/*--------------------------------*- C++ -*----------------------------------*\
| =========                 |                                                 |
| \\      /  F ield         | OpenFOAM: The Open Source CFD Toolbox           |
|  \\    /   O peration     | Version:  2406                                  |
|   \\  /    A nd           | Website:  www.openfoam.com                      |
|    \\/     M anipulation  |                                                 |
\*---------------------------------------------------------------------------*/
FoamFile
{
    version     2.0;
    format      ascii;
    arch        "LSB;label=32;scalar=64";
    class       volScalarField;
    location    "0.006";
    object      p;
}
// * * * * * * * * * * * * * * * * * * * * * * * * * * * * * * * * * * * * * //

dimensions      [1 -1 -2 0 0 0 0];

internalField   nonuniform List<scalar> 
8951
(
100916.11
100932.17
100948.59
100965.28
100982.1
100998.96
101015.75
101032.35
101048.66
101064.57
101080
101094.85
101109.05
101122.52
101135.2
101147.05
101158.03
101168.11
101177.29
101185.56
101192.96
101199.52
101205.23
101210.26
101214.63
101218.43
101221.74
101224.65
101227.2
101229.42
101231.38
101233.39
101234.98
101236.38
101239.56
101241.17
101242.82
101244.45
101246.04
101247.57
101249.04
101250.46
101251.83
101253.18
101254.54
101255.97
101257.51
101259.24
101261.22
101263.59
101266.31
101268.74
101271.41
101274.62
101278.3
101282.69
101286.59
101290.44
101293.9
101296.98
101299.76
101302.16
101304.12
101305.75
101306.78
101307.7
101308.07
101308.43
101308.37
101308.62
101308.45
101308.43
101308.75
101308.94
101309.08
101309.28
101309.69
101310.32
101311.15
101312.16
101313.33
101314.57
101315.91
101317.22
101318.56
101319.81
101320.57
101321.41
101322.16
101322.69
101322.93
101322.86
101322.7
101322.35
101321.94
101321.53
101321.08
101320.62
101320.17
101319.72
101319.28
101318.89
101318.57
101318.32
101318.1
101317.94
101317.88
101317.89
101317.95
101318.04
101318.15
101318.27
101318.38
101318.51
101318.71
101318.91
101319.14
101319.42
101319.7
101319.96
101320.19
101320.37
101320.49
101320.55
101320.55
101320.52
101320.5
101320.51
101320.64
101320.93
101321.45
101322.26
101323.39
101324.87
101326.7
101328.84
101331.25
101333.85
101336.57
101339.3
101341.96
101344.48
101346.8
101348.91
101350.8
101352.48
101353.94
101355.18
101356.21
101357.03
101357.64
101358.05
101358.26
101358.24
101357.98
101357.42
101356.59
101355.48
101354.18
101352.73
101351.34
101350.02
101348.95
101348
101347.31
101346.47
101345.8
101344.72
101344.11
101343.03
101343.08
101341.76
101341.43
101339.29
101339.04
101329.43
101336.26
100904.29
100920.1
100936.28
100952.8
100969.57
100986.44
101003.32
101020.1
101036.66
101052.9
101068.72
101084.02
101098.71
101112.73
101126
101138.46
101150.09
101160.83
101170.66
101179.6
101187.63
101194.8
101201.16
101206.68
101211.55
101215.76
101219.45
101222.67
101225.49
101227.98
101230.14
101232.06
101234.05
101235.09
101237.21
101240.47
101241.68
101243.37
101244.96
101246.5
101248
101249.45
101250.85
101252.21
101253.55
101254.92
101256.36
101257.94
101259.71
101261.76
101264.17
101266.88
101269.38
101272.27
101275.69
101279.22
101283.22
101287.14
101291.08
101294.45
101297.45
101300.11
101302.45
101304.34
101305.91
101306.86
101307.59
101307.93
101308.49
101308.46
101308.65
101308.26
101308.35
101308.69
101308.82
101309.01
101309.23
101309.66
101310.29
101311.12
101312.13
101313.32
101314.56
101315.92
101317.24
101318.59
101319.83
101320.6
101321.46
101322.2
101322.71
101322.95
101322.87
101322.71
101322.36
101321.95
101321.54
101321.08
101320.61
101320.14
101319.67
101319.22
101318.8
101318.46
101318.19
101317.94
101317.77
101317.69
101317.69
101317.74
101317.83
101317.95
101318.07
101318.2
101318.35
101318.55
101318.77
101319.02
101319.31
101319.59
101319.85
101320.07
101320.24
101320.35
101320.39
101320.38
101320.34
101320.3
101320.3
101320.42
101320.7
101321.22
101322.02
101323.15
101324.63
101326.45
101328.59
101330.99
101333.59
101336.3
101339.03
101341.68
101344.18
101346.5
101348.6
101350.49
101352.16
101353.62
101354.86
101355.9
101356.72
101357.34
101357.76
101357.98
101357.97
101357.72
101357.18
101356.36
101355.26
101353.98
101352.55
101351.17
101349.85
101348.8
101347.85
101347.16
101346.32
101345.66
101344.57
101343.96
101342.84
101342.87
101341.52
101341.16
101339.05
101338.81
101329.19
101336.61
100908.75
100924.88
100941.19
100957.74
100974.5
100991.33
101008.15
101024.83
101041.27
101057.34
101072.98
101088.07
101102.52
101116.3
101129.29
101141.47
101152.81
101163.26
101172.79
101181.45
101189.2
101196.12
101202.23
101207.52
101212.22
101216.27
101219.83
101222.95
101225.69
101228.11
101230.22
101232.11
101234.06
101234.62
101237.7
101240.74
101241.77
101243.53
101245.13
101246.71
101248.25
101249.74
101251.18
101252.59
101254
101255.43
101256.95
101258.6
101260.46
101262.58
101265.05
101267.76
101270.34
101273.31
101276.8
101280.52
101284.11
101288.01
101291.71
101295.03
101297.98
101300.45
101302.7
101304.49
101305.84
101306.91
101307.41
101307.88
101308.43
101308.25
101308.41
101308.01
101308.12
101308.48
101308.55
101308.81
101309.07
101309.53
101310.19
101311.05
101312.09
101313.29
101314.59
101315.96
101317.3
101318.67
101319.9
101320.69
101321.56
101322.27
101322.76
101322.98
101322.88
101322.7
101322.34
101321.92
101321.5
101321.02
101320.54
101320.05
101319.57
101319.1
101318.67
101318.31
101318.02
101317.77
101317.58
101317.5
101317.49
101317.54
101317.64
101317.76
101317.89
101318.03
101318.19
101318.41
101318.65
101318.9
101319.19
101319.47
101319.73
101319.95
101320.11
101320.2
101320.23
101320.21
101320.15
101320.1
101320.09
101320.19
101320.47
101320.98
101321.79
101322.91
101324.39
101326.21
101328.34
101330.74
101333.33
101336.04
101338.75
101341.39
101343.89
101346.2
101348.29
101350.18
101351.84
101353.3
101354.55
101355.59
101356.41
101357.04
101357.47
101357.7
101357.71
101357.47
101356.94
101356.13
101355.05
101353.78
101352.36
101350.99
101349.69
101348.64
101347.7
101347.01
101346.18
101345.51
101344.42
101343.8
101342.65
101342.67
101341.28
101340.91
101338.8
101338.57
101328.99
101337.24
100913.35
100929.08
100945.76
100962.31
100979.06
100995.81
101012.52
101029.06
101045.34
101061.23
101076.65
101091.52
101105.72
101119.24
101131.96
101143.85
101154.91
101165.07
101174.32
101182.7
101190.19
101196.87
101202.77
101207.85
101212.4
101216.29
101219.75
101222.77
101225.46
101227.82
101229.92
101231.75
101233.36
101234.27
101237.96
101240.55
101241.62
101243.46
101245.11
101246.76
101248.37
101249.94
101251.47
101252.97
101254.47
101256
101257.62
101259.38
101261.33
101263.53
101266.05
101268.77
101271.42
101274.43
101277.92
101281.61
101285.12
101289.04
101292.31
101295.58
101298.48
101300.78
101302.89
101304.57
101305.69
101306.88
101307.32
101307.73
101308.16
101307.96
101308.07
101307.74
101307.85
101308.18
101308.23
101308.54
101308.83
101309.33
101310.04
101310.95
101312.03
101313.26
101314.6
101316
101317.37
101318.75
101319.98
101320.8
101321.67
101322.35
101322.82
101323.01
101322.88
101322.68
101322.31
101321.88
101321.43
101320.94
101320.44
101319.94
101319.43
101318.95
101318.51
101318.14
101317.84
101317.58
101317.38
101317.3
101317.3
101317.35
101317.45
101317.58
101317.72
101317.87
101318.04
101318.27
101318.52
101318.79
101319.08
101319.36
101319.61
101319.82
101319.97
101320.05
101320.07
101320.03
101319.96
101319.9
101319.88
101319.97
101320.24
101320.75
101321.55
101322.67
101324.15
101325.96
101328.09
101330.49
101333.07
101335.77
101338.47
101341.11
101343.6
101345.9
101347.99
101349.86
101351.53
101352.99
101354.24
101355.28
101356.11
101356.75
101357.18
101357.43
101357.45
101357.22
101356.7
101355.91
101354.84
101353.58
101352.18
101350.82
101349.53
101348.49
101347.55
101346.87
101346.03
101345.36
101344.27
101343.64
101342.46
101342.46
101341.06
101340.67
101338.56
101338.34
101328.83
101337.59
100902.47
100918.09
100933.54
100949.96
100966.49
100983.34
101000.04
101016.62
101033.01
101049.12
101064.81
101080.01
101094.64
101108.6
101121.86
101134.3
101145.91
101156.7
101166.58
101175.56
101183.68
101190.92
101197.39
101203.08
101207.97
101212.39
101216.14
101219.51
101222.47
101225.1
101227.44
101229.53
101231.21
101232.27
101234.44
101238.09
101240.17
101241.43
101243.34
101245.06
101246.79
101248.49
101250.14
101251.76
101253.36
101254.96
101256.6
101258.32
101260.18
101262.22
101264.51
101267.07
101269.81
101272.51
101275.57
101279.02
101282.62
101286.11
101289.87
101292.99
101296.11
101298.9
101301.11
101303.05
101304.62
101305.66
101306.76
101307.18
101307.54
101307.86
101307.67
101307.74
101307.46
101307.57
101307.85
101307.91
101308.25
101308.58
101309.13
101309.88
101310.82
101311.94
101313.21
101314.59
101316.03
101317.42
101318.82
101320.05
101320.9
101321.77
101322.42
101322.87
101323.03
101322.88
101322.67
101322.28
101321.83
101321.37
101320.86
101320.34
101319.82
101319.3
101318.81
101318.35
101317.98
101317.66
101317.39
101317.19
101317.1
101317.1
101317.16
101317.26
101317.4
101317.55
101317.71
101317.9
101318.13
101318.39
101318.67
101318.96
101319.24
101319.49
101319.69
101319.83
101319.91
101319.91
101319.86
101319.78
101319.7
101319.67
101319.76
101320.02
101320.52
101321.31
101322.43
101323.9
101325.72
101327.84
101330.23
101332.81
101335.5
101338.19
101340.82
101343.3
101345.59
101347.68
101349.55
101351.22
101352.68
101353.93
101354.98
101355.82
101356.46
101356.9
101357.16
101357.19
101356.97
101356.47
101355.69
101354.63
101353.39
101352
101350.65
101349.36
101348.33
101347.4
101346.72
101345.88
101345.21
101344.12
101343.49
101342.28
101342.25
101340.84
101340.45
101338.31
101338.11
101328.7
101337.94
100906.94
100922.43
100938.28
100954.31
100970.78
100987.26
101004.11
101020.56
101036.81
101052.73
101068.21
101083.19
101097.58
101111.27
101124.28
101136.44
101147.77
101158.3
101167.9
101176.61
101184.49
101191.49
101197.77
101203.27
101207.96
101212.29
101215.9
101219.2
101222.09
101224.71
101227.03
101228.96
101230.3
101231.81
101234.71
101237.95
101239.75
101241.23
101243.2
101245
101246.81
101248.6
101250.34
101252.06
101253.76
101255.46
101257.21
101259.03
101261
101263.13
101265.49
101268.09
101270.85
101273.61
101276.69
101280.11
101283.62
101287.05
101290.62
101293.65
101296.62
101299.23
101301.4
101303.19
101304.65
101305.64
101306.63
101307
101307.32
101307.56
101307.37
101307.42
101307.17
101307.28
101307.53
101307.59
101307.96
101308.33
101308.91
101309.7
101310.69
101311.85
101313.16
101314.57
101316.03
101317.46
101318.87
101320.11
101320.98
101321.85
101322.48
101322.9
101323.04
101322.88
101322.65
101322.25
101321.79
101321.31
101320.79
101320.25
101319.72
101319.18
101318.67
101318.2
101317.81
101317.49
101317.21
101317.01
101316.91
101316.91
101316.97
101317.08
101317.22
101317.38
101317.55
101317.75
101317.99
101318.27
101318.55
101318.85
101319.13
101319.37
101319.57
101319.7
101319.76
101319.76
101319.69
101319.6
101319.51
101319.47
101319.54
101319.8
101320.29
101321.08
101322.2
101323.66
101325.47
101327.59
101329.97
101332.55
101335.23
101337.92
101340.53
101343.01
101345.29
101347.37
101349.24
101350.91
101352.37
101353.62
101354.67
101355.52
101356.17
101356.62
101356.89
101356.93
101356.72
101356.23
101355.47
101354.43
101353.19
101351.81
101350.48
101349.2
101348.18
101347.25
101346.57
101345.74
101345.06
101343.97
101343.33
101342.09
101342.05
101340.62
101340.23
101338.05
101337.87
101328.58
101338.3
100911.33
100926.79
100942.7
100958.71
100975.21
100991.37
101007.94
101024.28
101040.45
101056.2
101071.44
101086.19
101100.35
101113.76
101126.51
101138.38
101149.44
101159.72
101169.03
101177.49
101185.13
101191.9
101198.01
101203.32
101207.83
101212.07
101215.54
101218.8
101221.66
101224.26
101226.42
101227.9
101229.54
101231.98
101234.72
101237.56
101239.32
101241
101243.03
101244.91
101246.82
101248.69
101250.54
101252.36
101254.16
101255.98
101257.83
101259.77
101261.83
101264.06
101266.49
101269.13
101271.91
101274.71
101277.8
101281.17
101284.6
101287.94
101291.36
101294.28
101297.1
101299.53
101301.63
101303.3
101304.66
101305.6
101306.48
101306.81
101307.08
101307.26
101307.08
101307.1
101306.88
101306.98
101307.2
101307.27
101307.67
101308.07
101308.69
101309.52
101310.54
101311.74
101313.08
101314.53
101316.02
101317.47
101318.9
101320.15
101321.04
101321.91
101322.52
101322.94
101323.06
101322.88
101322.64
101322.22
101321.75
101321.26
101320.72
101320.17
101319.61
101319.06
101318.54
101318.06
101317.66
101317.32
101317.04
101316.82
101316.72
101316.72
101316.78
101316.89
101317.04
101317.2
101317.39
101317.6
101317.85
101318.14
101318.44
101318.74
101319.01
101319.26
101319.45
101319.57
101319.62
101319.6
101319.53
101319.42
101319.32
101319.27
101319.33
101319.58
101320.07
101320.85
101321.96
101323.43
101325.23
101327.34
101329.72
101332.29
101334.96
101337.64
101340.25
101342.71
101344.99
101347.07
101348.93
101350.6
101352.06
101353.32
101354.37
101355.22
101355.88
101356.35
101356.62
101356.67
101356.48
101356
101355.25
101354.22
101353
101351.63
101350.31
101349.04
101348.02
101347.1
101346.43
101345.59
101344.92
101343.82
101343.18
101341.91
101341.85
101340.41
101340.02
101337.8
101337.62
101328.45
101338.67
100915.73
100931.16
100947.01
100963.04
100979.32
100995.62
101011.79
101027.96
101043.82
101059.49
101074.5
101089.01
101102.92
101116.04
101128.55
101140.12
101150.91
101160.94
101169.97
101178.18
101185.6
101192.15
101198.09
101203.22
101207.56
101211.74
101215.07
101218.32
101221.14
101223.59
101225.28
101226.97
101229.47
101231.96
101234.41
101237.04
101238.88
101240.73
101242.82
101244.8
101246.8
101248.77
101250.72
101252.65
101254.57
101256.5
101258.46
101260.51
101262.68
101264.99
101267.49
101270.17
101272.97
101275.81
101278.9
101282.22
101285.55
101288.81
101292.07
101294.88
101297.57
101299.85
101301.83
101303.4
101304.66
101305.53
101306.32
101306.6
101306.84
101306.96
101306.78
101306.77
101306.57
101306.66
101306.86
101306.95
101307.37
101307.8
101308.46
101309.32
101310.38
101311.61
101312.99
101314.47
101315.99
101317.47
101318.92
101320.17
101321.09
101321.96
101322.55
101322.96
101323.07
101322.88
101322.62
101322.19
101321.72
101321.2
101320.65
101320.08
101319.51
101318.95
101318.41
101317.92
101317.5
101317.15
101316.86
101316.64
101316.54
101316.53
101316.59
101316.71
101316.86
101317.03
101317.23
101317.45
101317.72
101318.01
101318.32
101318.62
101318.9
101319.14
101319.33
101319.44
101319.48
101319.46
101319.37
101319.25
101319.13
101319.07
101319.13
101319.37
101319.85
101320.62
101321.73
101323.19
101324.99
101327.09
101329.47
101332.03
101334.69
101337.36
101339.96
101342.42
101344.69
101346.76
101348.63
101350.29
101351.75
101353.01
101354.07
101354.93
101355.6
101356.07
101356.35
101356.42
101356.24
101355.77
101355.03
101354.02
101352.81
101351.45
101350.14
101348.88
101347.87
101346.95
101346.28
101345.45
101344.77
101343.67
101343.03
101341.74
101341.66
101340.19
101339.81
101337.54
101337.34
101328.29
101339.04
100905.21
100920.13
100935.52
100951.28
100967.24
100983.37
100999.59
101015.61
101031.62
101047.15
101062.55
101077.35
101091.62
101105.31
101118.12
101130.39
101141.65
101152.18
101161.98
101170.71
101178.69
101185.89
101192.23
101198.04
101202.98
101207.15
101211.31
101214.47
101217.75
101220.4
101222.4
101224.22
101226.78
101229.31
101231.55
101233.92
101236.47
101238.41
101240.41
101242.57
101244.64
101246.75
101248.83
101250.89
101252.93
101254.97
101257.01
101259.1
101261.26
101263.53
101265.94
101268.5
101271.22
101274.03
101276.9
101279.98
101283.24
101286.48
101289.64
101292.75
101295.45
101298
101300.17
101302.01
101303.48
101304.65
101305.45
101306.14
101306.39
101306.6
101306.66
101306.47
101306.43
101306.25
101306.34
101306.52
101306.63
101307.06
101307.52
101308.21
101309.11
101310.2
101311.47
101312.88
101314.39
101315.95
101317.45
101318.92
101320.18
101321.13
101322
101322.58
101322.97
101323.08
101322.87
101322.61
101322.17
101321.68
101321.15
101320.58
101320
101319.42
101318.84
101318.28
101317.78
101317.35
101316.99
101316.69
101316.47
101316.36
101316.35
101316.41
101316.52
101316.68
101316.86
101317.07
101317.31
101317.58
101317.88
101318.2
101318.51
101318.79
101319.03
101319.21
101319.32
101319.35
101319.31
101319.21
101319.08
101318.95
101318.88
101318.93
101319.16
101319.63
101320.4
101321.5
101322.96
101324.75
101326.85
101329.21
101331.77
101334.42
101337.09
101339.68
101342.13
101344.39
101346.46
101348.32
101349.98
101351.45
101352.71
101353.78
101354.64
101355.31
101355.8
101356.09
101356.16
101356
101355.54
101354.81
101353.81
101352.62
101351.27
101349.97
101348.72
101347.72
101346.8
101346.14
101345.3
101344.63
101343.52
101342.87
101341.57
101341.47
101339.98
101339.61
101337.29
101337.06
101328.09
101339.42
100909.65
100924.54
100939.87
100955.53
100971.38
100987.37
101003.41
101019.3
101035.04
101050.46
101065.49
101080.08
101094.03
101107.51
101120.01
101132.07
101142.98
101153.26
101162.84
101171.25
101179.02
101186.01
101192.17
101197.87
101202.6
101206.6
101210.8
101213.74
101216.96
101219.15
101221.31
101223.88
101226.53
101228.72
101230.94
101233.34
101235.86
101237.89
101240.02
101242.27
101244.45
101246.66
101248.85
101251.03
101253.2
101255.35
101257.52
101259.73
101262
101264.38
101266.87
101269.5
101272.26
101275.09
101277.98
101281.05
101284.24
101287.38
101290.45
101293.41
101296
101298.42
101300.46
101302.18
101303.54
101304.63
101305.34
101305.96
101306.18
101306.34
101306.35
101306.15
101306.1
101305.93
101306
101306.17
101306.31
101306.75
101307.24
101307.96
101308.89
101310.02
101311.32
101312.76
101314.3
101315.89
101317.42
101318.9
101320.18
101321.15
101322.02
101322.59
101322.98
101323.08
101322.87
101322.59
101322.14
101321.65
101321.11
101320.52
101319.93
101319.33
101318.73
101318.16
101317.65
101317.21
101316.83
101316.53
101316.3
101316.18
101316.17
101316.23
101316.34
101316.5
101316.69
101316.91
101317.16
101317.45
101317.76
101318.09
101318.4
101318.68
101318.92
101319.1
101319.2
101319.22
101319.17
101319.06
101318.91
101318.78
101318.7
101318.73
101318.95
101319.42
101320.18
101321.28
101322.73
101324.51
101326.61
101328.96
101331.51
101334.16
101336.81
101339.4
101341.84
101344.1
101346.16
101348.02
101349.68
101351.14
101352.41
101353.48
101354.35
101355.03
101355.53
101355.83
101355.91
101355.76
101355.32
101354.6
101353.61
101352.43
101351.1
101349.81
101348.57
101347.57
101346.66
101345.99
101345.16
101344.48
101343.37
101342.72
101341.4
101341.28
101339.78
101339.41
101337.03
101336.77
101327.86
101339.8
100914.12
100928.96
100944.2
100959.75
100975.47
100991.3
101007.15
101022.85
101038.35
101053.56
101068.32
101082.68
101096.35
101109.45
101121.81
101133.57
101144.13
101154.17
101163.57
101171.6
101179.19
101185.99
101191.97
101197.6
101202.08
101205.89
101210.12
101212.87
101215.68
101218.14
101220.79
101223.48
101225.78
101227.93
101230.24
101232.68
101235.19
101237.33
101239.58
101241.91
101244.2
101246.53
101248.84
101251.14
101253.43
101255.72
101258.02
101260.35
101262.74
101265.22
101267.8
101270.49
101273.28
101276.14
101279.04
101282.08
101285.2
101288.26
101291.22
101294.05
101296.53
101298.81
101300.73
101302.33
101303.6
101304.58
101305.23
101305.79
101305.97
101306.08
101306.04
101305.83
101305.76
101305.6
101305.67
101305.82
101305.98
101306.43
101306.95
101307.7
101308.66
101309.82
101311.15
101312.63
101314.2
101315.81
101317.37
101318.87
101320.16
101321.16
101322.03
101322.6
101322.98
101323.07
101322.86
101322.58
101322.12
101321.61
101321.06
101320.47
101319.86
101319.24
101318.63
101318.05
101317.52
101317.07
101316.68
101316.37
101316.13
101316
101315.99
101316.05
101316.16
101316.33
101316.53
101316.76
101317.02
101317.31
101317.63
101317.97
101318.29
101318.58
101318.82
101318.99
101319.08
101319.09
101319.03
101318.91
101318.75
101318.61
101318.51
101318.54
101318.75
101319.21
101319.97
101321.06
101322.5
101324.28
101326.37
101328.72
101331.25
101333.89
101336.54
101339.11
101341.55
101343.81
101345.86
101347.72
101349.38
101350.84
101352.12
101353.19
101354.07
101354.76
101355.26
101355.57
101355.66
101355.52
101355.09
101354.39
101353.41
101352.24
101350.92
101349.64
101348.41
101347.42
101346.51
101345.85
101345.02
101344.34
101343.23
101342.57
101341.24
101341.1
101339.57
101339.21
101336.79
101336.5
101327.6
101340.19
100918.62
100933.39
100948.53
100963.94
100979.51
100995.16
101010.81
101026.29
101041.55
101056.51
101071.01
101085.07
101098.52
101111.23
101123.43
101134.73
101145.26
101154.93
101164.11
101171.8
101179.22
101185.81
101191.63
101197.16
101201.42
101205.05
101208.92
101212.14
101214.56
101217.54
101220.14
101222.6
101224.84
101227.08
101229.46
101231.94
101234.45
101236.71
101239.07
101241.5
101243.91
101246.35
101248.79
101251.22
101253.64
101256.06
101258.49
101260.95
101263.46
101266.04
101268.71
101271.46
101274.29
101277.17
101280.08
101283.09
101286.14
101289.1
101291.96
101294.66
101297.03
101299.18
101300.98
101302.47
101303.62
101304.53
101305.13
101305.61
101305.74
101305.81
101305.73
101305.51
101305.42
101305.26
101305.32
101305.48
101305.66
101306.11
101306.66
101307.44
101308.43
101309.61
101310.98
101312.49
101314.08
101315.72
101317.3
101318.82
101320.13
101321.15
101322.03
101322.59
101322.96
101323.06
101322.85
101322.57
101322.1
101321.59
101321.02
101320.41
101319.79
101319.16
101318.54
101317.94
101317.4
101316.93
101316.53
101316.21
101315.97
101315.84
101315.82
101315.87
101315.99
101316.16
101316.36
101316.6
101316.87
101317.18
101317.51
101317.85
101318.19
101318.47
101318.71
101318.88
101318.97
101318.97
101318.9
101318.77
101318.6
101318.44
101318.34
101318.35
101318.56
101319
101319.75
101320.84
101322.27
101324.04
101326.13
101328.47
101331
101333.63
101336.27
101338.84
101341.26
101343.51
101345.57
101347.42
101349.08
101350.55
101351.82
101352.9
101353.79
101354.48
101354.99
101355.31
101355.42
101355.29
101354.87
101354.18
101353.21
101352.05
101350.75
101349.48
101348.25
101347.27
101346.36
101345.71
101344.87
101344.19
101343.08
101342.42
101341.09
101340.93
101339.37
101339.01
101336.56
101336.24
101327.33
101340.58
100923.15
100937.83
100952.84
100968.11
100983.51
100998.97
101014.39
101029.64
101044.65
101059.34
101073.57
101087.32
101100.5
101112.95
101124.81
101135.71
101146.22
101155.51
101164.24
101172.11
101179.12
101185.5
101191.11
101196.19
101200.71
101204.49
101207.62
101211.31
101213.83
101216.64
101219.14
101221.55
101223.84
101226.16
101228.6
101231.11
101233.65
101236.02
101238.5
101241.03
101243.56
101246.12
101248.69
101251.25
101253.81
101256.37
101258.93
101261.52
101264.15
101266.83
101269.59
101272.41
101275.27
101278.17
101281.09
101284.07
101287.04
101289.91
101292.67
101295.25
101297.51
101299.53
101301.2
101302.58
101303.66
101304.5
101305.03
101305.42
101305.51
101305.53
101305.42
101305.19
101305.08
101304.93
101304.98
101305.13
101305.33
101305.8
101306.37
101307.17
101308.19
101309.4
101310.79
101312.33
101313.95
101315.62
101317.23
101318.76
101320.08
101321.13
101322.02
101322.58
101322.94
101323.04
101322.84
101322.55
101322.08
101321.56
101320.98
101320.37
101319.73
101319.09
101318.45
101317.84
101317.29
101316.81
101316.39
101316.06
101315.82
101315.67
101315.65
101315.7
101315.82
101315.99
101316.2
101316.45
101316.73
101317.05
101317.38
101317.74
101318.08
101318.37
101318.61
101318.77
101318.85
101318.85
101318.77
101318.63
101318.45
101318.28
101318.16
101318.17
101318.36
101318.8
101319.55
101320.62
101322.05
101323.81
101325.89
101328.22
101330.74
101333.37
101336
101338.56
101340.98
101343.22
101345.27
101347.13
101348.78
101350.25
101351.53
101352.62
101353.51
101354.21
101354.73
101355.06
101355.18
101355.05
101354.65
101353.97
101353.02
101351.87
101350.58
101349.32
101348.1
101347.12
101346.22
101345.56
101344.73
101344.05
101342.94
101342.28
101340.94
101340.76
101339.18
101338.82
101336.34
101335.99
101327.03
101340.97
100927.71
100942.28
100957.15
100972.25
100987.46
101002.71
101017.9
101032.9
101047.65
101062.06
101076.01
101089.46
101102.33
101114.52
101126.05
101136.71
101146.89
101155.93
101164.21
101172.27
101178.91
101185.07
101190.49
101195.09
101199.86
101203.84
101206.7
101210.24
101212.81
101215.53
101218
101220.43
101222.77
101225.15
101227.64
101230.2
101232.79
101235.27
101237.86
101240.5
101243.15
101245.84
101248.54
101251.25
101253.94
101256.64
101259.34
101262.05
101264.8
101267.59
101270.43
101273.32
101276.23
101279.14
101282.06
101285.01
101287.91
101290.7
101293.35
101295.81
101297.96
101299.84
101301.4
101302.7
101303.7
101304.45
101304.91
101305.23
101305.27
101305.26
101305.11
101304.87
101304.74
101304.6
101304.64
101304.78
101305.01
101305.48
101306.07
101306.9
101307.94
101309.18
101310.6
101312.16
101313.81
101315.5
101317.13
101318.69
101320.02
101321.09
101321.99
101322.56
101322.92
101323.02
101322.82
101322.54
101322.06
101321.53
101320.95
101320.32
101319.67
101319.02
101318.37
101317.75
101317.18
101316.69
101316.26
101315.92
101315.66
101315.51
101315.48
101315.53
101315.65
101315.82
101316.04
101316.29
101316.59
101316.91
101317.26
101317.62
101317.97
101318.27
101318.5
101318.67
101318.75
101318.74
101318.65
101318.49
101318.3
101318.12
101318
101317.99
101318.18
101318.61
101319.34
101320.41
101321.83
101323.59
101325.66
101327.98
101330.49
101333.11
101335.73
101338.28
101340.7
101342.94
101344.98
101346.83
101348.49
101349.96
101351.25
101352.34
101353.23
101353.94
101354.47
101354.81
101354.94
101354.83
101354.43
101353.76
101352.82
101351.69
101350.4
101349.15
101347.95
101346.97
101346.08
101345.42
101344.59
101343.91
101342.8
101342.13
101340.79
101340.6
101338.98
101338.64
101336.13
101335.76
101326.71
101341.36
100918.2
100932.29
100946.73
100961.45
100976.37
100991.38
101006.4
101021.34
101036.08
101050.55
101064.67
101078.33
101091.48
101104.05
101115.95
101127.16
101137.59
101147.41
101156.23
101164.32
101172.07
101178.54
101184.51
101189.78
101194.3
101198.9
101202.75
101205.68
101209.03
101211.62
101214.31
101216.79
101219.24
101221.62
101224.05
101226.59
101229.21
101231.86
101234.46
101237.16
101239.91
101242.69
101245.51
101248.34
101251.19
101254.03
101256.86
101259.7
101262.55
101265.42
101268.31
101271.24
101274.19
101277.14
101280.07
101283
101285.91
101288.75
101291.45
101294
101296.33
101298.38
101300.15
101301.63
101302.83
101303.73
101304.4
101304.78
101305.04
101305.04
101304.99
101304.81
101304.56
101304.4
101304.26
101304.29
101304.44
101304.68
101305.16
101305.78
101306.62
101307.69
101308.95
101310.4
101311.99
101313.66
101315.38
101317.03
101318.6
101319.95
101321.05
101321.95
101322.53
101322.89
101322.99
101322.81
101322.52
101322.04
101321.51
101320.92
101320.28
101319.62
101318.95
101318.29
101317.66
101317.08
101316.57
101316.13
101315.78
101315.52
101315.36
101315.32
101315.37
101315.48
101315.66
101315.88
101316.14
101316.45
101316.78
101317.14
101317.51
101317.86
101318.17
101318.4
101318.57
101318.64
101318.62
101318.53
101318.36
101318.16
101317.97
101317.83
101317.82
101317.99
101318.42
101319.14
101320.21
101321.62
101323.36
101325.42
101327.74
101330.25
101332.85
101335.47
101338.01
101340.42
101342.65
101344.69
101346.54
101348.2
101349.68
101350.96
101352.06
101352.96
101353.68
101354.21
101354.56
101354.7
101354.6
101354.22
101353.56
101352.63
101351.51
101350.24
101349
101347.79
101346.83
101345.94
101345.28
101344.46
101343.77
101342.66
101341.98
101340.65
101340.44
101338.8
101338.46
101335.92
101335.54
101326.39
101341.75
100922.91
100936.89
100951.19
100965.74
100980.46
100995.25
101010.03
101024.71
101039.18
101053.37
101067.19
101080.55
101093.39
101105.64
101117.25
101128.16
101138.33
101147.83
101156.42
101164.32
101171.72
101178.05
101183.85
101188.98
101193.46
101197.83
101201.51
101204.53
101207.73
101210.33
101213
101215.49
101217.95
101220.38
101222.87
101225.46
101228.14
101230.86
101233.57
101236.38
101239.25
101242.16
101245.11
101248.08
101251.06
101254.05
101257.03
101260
101262.98
101265.97
101268.98
101271.99
101275
101278
101280.96
101283.89
101286.76
101289.54
101292.15
101294.61
101296.83
101298.78
101300.47
101301.85
101302.94
101303.75
101304.34
101304.66
101304.85
101304.81
101304.72
101304.51
101304.25
101304.08
101303.93
101303.96
101304.1
101304.36
101304.85
101305.49
101306.35
101307.43
101308.72
101310.19
101311.8
101313.5
101315.24
101316.91
101318.5
101319.87
101320.98
101321.9
101322.49
101322.85
101322.95
101322.79
101322.51
101322.03
101321.49
101320.89
101320.25
101319.58
101318.9
101318.23
101317.58
101316.99
101316.46
101316.01
101315.65
101315.38
101315.21
101315.16
101315.21
101315.32
101315.49
101315.72
101315.99
101316.31
101316.65
101317.02
101317.4
101317.76
101318.07
101318.31
101318.47
101318.54
101318.52
101318.41
101318.24
101318.03
101317.82
101317.68
101317.65
101317.82
101318.23
101318.95
101320
101321.4
101323.14
101325.19
101327.5
101330
101332.6
101335.2
101337.74
101340.14
101342.37
101344.41
101346.26
101347.92
101349.39
101350.68
101351.78
101352.69
101353.42
101353.96
101354.32
101354.46
101354.38
101354.01
101353.36
101352.44
101351.33
101350.07
101348.84
101347.64
101346.68
101345.79
101345.15
101344.32
101343.64
101342.52
101341.84
101340.51
101340.28
101338.62
101338.29
101335.71
101335.35
101326.05
101342.15
100927.64
100941.5
100955.65
100970.02
100984.53
100999.09
101013.62
101028.03
101042.21
101056.1
101069.61
101082.66
101095.19
101107.13
101118.43
101129.04
101138.93
101148.14
101156.5
101164.19
101171.28
101177.47
101183.09
101188.08
101192.47
101196.65
101200.22
101203.25
101206.35
101208.96
101211.61
101214.1
101216.59
101219.06
101221.6
101224.25
101226.99
101229.79
101232.61
101235.53
101238.51
101241.55
101244.64
101247.75
101250.88
101254.01
101257.13
101260.25
101263.36
101266.47
101269.58
101272.68
101275.76
101278.81
101281.8
101284.73
101287.56
101290.28
101292.82
101295.2
101297.34
101299.19
101300.77
101302.04
101303.04
101303.77
101304.28
101304.54
101304.67
101304.59
101304.45
101304.22
101303.95
101303.75
101303.61
101303.62
101303.77