/*--------------------------------*- C++ -*----------------------------------*\
| =========                 |                                                 |
| \\      /  F ield         | OpenFOAM: The Open Source CFD Toolbox           |
|  \\    /   O peration     | Version:  2406                                  |
|   \\  /    A nd           | Website:  www.openfoam.com                      |
|    \\/     M anipulation  |                                                 |
\*---------------------------------------------------------------------------*/
FoamFile
{
    version     2.0;
    format      ascii;
    arch        "LSB;label=32;scalar=64";
    class       surfaceScalarField;
    location    "0.006";
    object      phi;
}
// * * * * * * * * * * * * * * * * * * * * * * * * * * * * * * * * * * * * * //

dimensions      [1 0 -1 0 0 0 0];

oriented        oriented;

internalField   nonuniform List<scalar> 
17669
(
0.0060900995
0.0024315146
-0.0023783991
0.0060356293
0.0025709156
-0.0025160742
0.0059800776
0.0027029683
-0.0026469916
0.0059238589
0.0028263023
-0.0027696059
0.005867352
0.0029395415
-0.002882513
0.0058109779
0.003041215
-0.0029842782
0.0057550979
0.0031302215
-0.0030737418
0.0057000457
0.0032056265
-0.0031499447
0.0056461478
0.0032665949
-0.0032120452
0.0055937314
0.0033123462
-0.0032592642
0.0055430898
0.0033424025
-0.0032910944
0.0054945261
0.0033562772
-0.0033070555
0.0054483353
0.0033536536
-0.0033068259
0.0054047853
0.0033344962
-0.0032903438
0.0053642171
0.003298553
-0.0032574249
0.0053269665
0.0032459459
-0.0032081894
0.0052933807
0.0031769403
-0.0031429118
0.0052639016
0.0030916454
-0.0030617915
0.0052390284
0.0029900295
-0.0029648501
0.0052192462
0.0028726124
-0.0028525904
0.005205095
0.0027391027
-0.0027247702
0.0051968405
0.002590563
-0.0025821812
0.0051945734
0.0024282529
-0.0024258984
0.0051985932
0.002252433
-0.0022564
0.0052089838
0.0020644415
-0.0020748032
0.0052257904
0.0018651683
-0.0018819606
0.0052488868
0.0016557286
-0.0016788083
0.005278042
0.0014376677
-0.001466793
0.0053129698
0.0012123636
-0.0012472437
0.0053532364
0.00098121911
-0.0010214195
0.0053981322
0.0007459362
-0.0007906452
0.0054452986
0.0005120978
-0.00055916964
0.0054879033
0.00029142184
-0.00033412472
0.0055299589
0.00011850475
-0.0001600784
0.0055836485
-6.1227678e-05
7.9657946e-06
0.0056427432
-0.00026905546
0.00021021151
0.0057008056
-0.00045937961
0.00040161112
0.0057574179
-0.00062753673
0.00057121983
0.0058123718
-0.00077244331
0.00071777205
0.005865188
-0.00089210306
0.00083954289
0.0059151893
-0.0009842212
0.00093443561
0.0059615284
-0.0010459752
0.00099979995
0.0060032875
-0.0010740035
0.0010323479
0.0060395827
-0.0010651107
0.0010288536
0.0060696309
-0.0010166308
0.000986555
0.0060928437
-0.00092666523
0.00090336482
0.0061089152
-0.00079463732
0.00077843107
0.0061178756
-0.00062197111
0.00061284598
0.0061202342
-0.00041246018
0.00040992177
0.0061165328
-0.00017439332
0.00017791071
0.0061061711
8.1554979e-05
-7.1375806e-05
0.006086489
0.00034984721
-0.00033032322
0.0060586054
0.00064353387
-0.00061567784
0.0060275457
0.00095699916
-0.00092589391
0.0059962996
0.0012626548
-0.0012312894
0.0059661469
0.0015423573
-0.0015120247
0.0059380138
0.0017925353
-0.001764212
0.0059144386
0.0019936056
-0.0019698193
0.0058956043
0.0021482705
-0.0021292499
0.0058830845
0.0022516221
-0.0022389318
0.0058776198
0.0023009874
-0.0022953839
0.0058791913
0.0023032983
-0.0023047826
0.005888905
0.0022590436
-0.0022687182
0.0059064726
0.0021620956
-0.0021796559
0.0059303603
0.002032122
-0.0020560195
0.0059608626
0.0018612458
-0.0018917668
0.0059957778
0.0016621293
-0.0016970797
0.0060348581
0.0014463606
-0.0014855084
0.006077379
0.0012082582
-0.0012508535
0.0061229347
0.00095892381
-0.0010045492
0.0061689318
0.00069947428
-0.00074555368
0.0062153814
0.00045895171
-0.00050549574
0.0062663332
0.00023101592
-0.00028205309
0.006320607
-9.2238078e-06
-4.5233784e-05
0.0063740532
-0.0002467588
0.00019317501
0.0064247337
-0.00046397831
0.00041317438
0.0064721559
-0.0006475741
0.00060004066
0.0065160594
-0.00079026764
0.00074625444
0.0065562065
-0.00088709659
0.00084683656
0.0065923804
-0.00093378819
0.00089749459
0.0066246944
-0.00092658141
0.00089414986
0.0066535781
-0.0008642814
0.00083526246
0.0066801521
-0.00074917952
0.00072244043
0.0067060126
-0.0005890807
0.00056302124
0.0067319763
-0.00039861821
0.00037244921
0.0067575375
-0.00019255809
0.0001667282
0.0067831024
2.7283496e-05
-5.3192056e-05
0.0068124133
0.00025466968
-0.00028436595
0.0068481411
0.00045960684
-0.00049580394
0.0068909039
0.00061754738
-0.00066079826
0.0069394628
0.00071173233
-0.00076076587
0.0069918807
0.000740505
-0.00079334699
0.0070473735
0.0007171571
-0.00077300223
0.0071052843
0.00064603291
-0.00070422383
0.0071650887
0.00053692499
-0.0005969357
0.0072267796
0.00039987168
-0.00046171997
0.007290272
0.00024003727
-0.00030367279
0.0073554454
6.4196493e-05
-0.00012952638
0.0074220866
-0.0001218509
5.5008213e-05
0.0074897717
-0.0003116003
0.00024364925
0.0075581023
-0.00049669017
0.00042801507
0.007626858
-0.00066885099
0.00059967402
0.0076960345
-0.00082118358
0.00075150955
0.0077656331
-0.00095018857
0.00088002022
0.0078355375
-0.0010535862
0.00098305791
0.0079055791
-0.0011291528
0.001058455
0.0079757111
-0.0011751002
0.0011042871
0.0080460013
-0.001190754
0.0011197691
0.0081166053
-0.001177694
0.0011063932
0.008187817
-0.0011409898
0.0010690866
0.008259929
-0.001088907
0.0010161149
0.0083331053
-0.0010306517
0.00095681568
0.008407359
-0.00097423453
0.00089935717
0.0084825691
-0.0009256988
0.00084992286
0.0085586386
-0.00088956668
0.0008130051
0.008635689
-0.00086802086
0.00079057066
0.0087140236
-0.00086080025
0.00078217692
0.0087938518
-0.00086890529
0.00078889845
0.0088751265
-0.00089366995
0.00081231675
0.0089577375
-0.00093299753
0.00085039752
0.0090416707
-0.00098317942
0.00089933235
0.0091269692
-0.0010405178
0.00095536601
0.0092137467
-0.0011011503
0.0010145684
0.0093021727
-0.0011619937
0.0010738026
0.0093924407
-0.0012208353
0.0011308374
0.0094847498
-0.0012763762
0.0011843738
0.0095792763
-0.0013281526
0.0012339768
0.0096761593
-0.0013763032
0.001279828
0.0097755226
-0.0014210549
0.0013221728
0.0098774799
-0.0014629007
0.0013615135
0.0099821291
-0.0015025514
0.0013985716
0.010089545
-0.0015408255
0.0014341814
0.010199761
-0.0015782508
0.0014689004
0.010312763
-0.0016149687
0.0015029126
0.010428559
-0.0016507949
0.0015359975
0.010547216
-0.001685937
0.0015683005
0.010668752
-0.0017205705
0.0016000371
0.010793131
-0.0017545169
0.0016310786
0.010920303
-0.001787252
0.0016609157
0.011050199
-0.0018181002
0.0016888988
0.011182736
-0.0018461608
0.0017141588
0.011317804
-0.0018703821
0.0017356901
0.011455263
-0.0018894598
0.0017522409
0.011594934
-0.0019019439
0.0017624171
0.011736581
-0.0019062738
0.0017647282
0.011879898
-0.0019010549
0.0017578472
0.0120245
-0.0018846851
0.0017402489
0.012169926
-0.0018556559
0.0017104928
0.012315649
-0.0018127892
0.0016674621
0.0124611
-0.0017554717
0.0016105787
0.012605687
-0.0016835883
0.0015397423
0.012748816
-0.0015978152
0.0014556162
0.012889912
-0.0014992567
0.0013592701
0.013028456
-0.0013899036
0.0012526177
0.013164015
-0.0012726026
0.0011384113
0.013296316
-0.0011509081
0.0010200372
0.013425236
-0.0010293876
0.0009019099
0.013550877
-0.00091268725
0.00078845253
0.01367349
-0.00080479407
0.00068351438
0.013793559
-0.00070963139
0.00059077611
0.013911668
-0.00063131042
0.00051423561
0.014028618
-0.00057333356
0.00045717753
0.014145168
-0.0005369515
0.00042089096
0.014262275
-0.00052126044
0.00040431504
0.014380695
-0.00052708515
0.00040850241
0.014501486
-0.00054783621
0.00042660333
0.014625074
-0.00058874181
0.00046443671
0.014752353
-0.00063185199
0.0005035777
0.014883014
-0.00069301619
0.0005609492
0.01501752
-0.00073693697
0.00060044653
0.015154487
-0.00080169283
0.00066228451
0.015293603
-0.00079956821
0.00065793146
0.015432224
-0.00082740161
0.00068620541
0.015570065
-0.00067236623
0.00053181228
0.015702213
-0.00066364223
0.00052868817
0.015834602
-0.00027687495
0.00014313282
9.0882644e-05
-0.0002059857
0.0060948518
0.0023332253
0.0060470428
0.0024796999
0.0059974789
0.0026208605
0.0059467953
0.0027541
0.0058953318
0.0028782693
0.0058434453
0.002991971
0.0057915581
0.0030936855
0.0057400077
0.0031823913
0.0056891187
0.0032571625
0.00563922
0.0033171603
0.0055906453
0.0033615983
0.0055436924
0.0033900291
0.0054986828
0.0034019486
0.0054559309
0.0033970418
0.0054157274
0.003375297
0.0053784626
0.0033363697
0.0053445038
0.0032803994
0.0053142246
0.0032076487
0.0052881058
0.0031181247
0.0052666624
0.0030117652
0.0052503676
0.0028891343
0.0052397366
0.0027499053
0.0052349313
0.0025954876
0.0052359892
0.0024272772
0.0052432293
0.0022452416
0.0052566464
0.0020510515
0.0052762409
0.0018455892
0.0053018325
0.0016301585
0.0053331609
0.0014063762
0.0053698962
0.001175685
0.0054115008
0.00093969489
0.0054568781
0.0007007799
0.0055031058
0.00046590411
0.0055443734
0.00025013871
0.0055886616
7.4720266e-05
0.005644435
-0.00011663792
0.0057029482
-0.000327303
0.0057599027
-0.00051602817
0.0058154375
-0.00068276756
0.0058693124
-0.00082602874
0.005921014
-0.00094354416
0.0059698536
-0.0010328431
0.0060149962
-0.0010909548
0.0060555727
-0.00111448
0.0060907723
-0.0011002778
0.0061198991
-0.0010457924
0.0061424553
-0.00094931677
0.006158218
-0.00081054177
0.0061672821
-0.00063120558
0.0061701229
-0.00041548417
0.0061670916
-0.00017154779
0.006157459
9.1010417e-05
0.0061392363
0.00036792389
0.0061142562
0.00066847437
0.0060865772
0.0009847111
0.0060592731
0.0012900446
0.0060341193
0.001567678
0.0060114109
0.001815431
0.0059935137
0.0020116885
0.0059806314
0.0021613122
0.0059742435
0.0022581586
0.0059745572
0.0023007867
0.0059816792
0.0022962471
0.0059966021
0.0022441522
0.0060186391
0.0021400659
0.0060465659
0.0020041899
0.0060798057
0.001827994
0.0061167553
0.0016251586
0.0061580715
0.0014049898
0.0062023831
0.0011638861
0.0062489094
0.00091233069
0.0062954341
0.00065288616
0.0063431695
0.00041113333
0.0063949855
0.00017910993
0.0064489777
-6.342363e-05
0.0065017076
-0.00029961258
0.0065515417
-0.00051392274
0.0065980512
-0.00069418439
0.006641059
-0.00083337569
0.0066804091
-0.00092655118
0.0067160259
-0.00096951809
0.006748127
-0.00095881566
0.0067773081
-0.00089359853
0.0068048192
-0.00077686232
0.0068321413
-0.00061661549
0.0068599517
-0.00042666053
0.0068878919
-0.00022079307
0.0069166932
-1.8856544e-06
0.006949749
0.00022119811
0.0069891822
0.00041968347
0.0070352585
0.00057096922
0.0070865635
0.0006599455
0.0071412352
0.00068540906
0.0071985681
0.00065947402
0.0072579284
0.00058639469
0.0073188534
0.00047579373
0.0073813634
0.00033720197
0.0074453917
0.00017586128
0.0075108372
-1.4121582e-06
0.007577497
-0.00018872142
0.0076449931
-0.00037937283
0.007712991
-0.00056504291
0.0077813311
-0.00073762249
0.0078500426
-0.00089040276
0.0079191378
-0.0010198636
0.0079885261
-0.0011236081
0.0080580776
-0.0011993698
0.0081277715
-0.001245485
0.0081976983
-0.0012613863
0.0082680306
-0.0012487353
0.008339054
-0.0012127177
0.0084110287
-0.0011615755
0.0084840714
-0.0011043678
0.0085581563
-0.0010489563
0.0086331566
-0.0010012775
0.0087089527
-0.00096586549
0.0087856325
-0.00094511094
0.0088634803
-0.00093894786
0.0089426822
-0.00094829726
0.0090231912
-0.00097426905
0.0091049164
-0.0010147237
0.00918786
-0.001066049
0.0092720808
-0.0011246037
0.0093577064
-0.0011865918
0.0094449167
-0.0012489796
0.0095339132
-0.001309571
0.0096249
-0.0013670641
0.009718057
-0.0014209648
0.0098135281
-0.0014713704
0.0099114394
-0.0015184867
0.010011905
-0.0015627962
0.010115023
-0.0016049976
0.010220865
-0.0016458919
0.010329457
-0.0016859712
0.01044078
-0.0017253403
0.010554854
-0.0017638631
0.010671742
-0.0018017982
0.010791451
-0.0018392722
0.010913943
-0.0018760635
0.011039165
-0.0019116352
0.011167047
-0.0019452843
0.011297502
-0.0019760794
0.01143042
-0.0020029228
0.01156566
-0.0020244588
0.011703044
-0.0020391812
0.011842335
-0.0020454607
0.011983228
-0.002041835
0.012125341
-0.0020266267
0.012268214
-0.001998259
0.012411323
-0.0019554936
0.0125541
-0.0018976821
0.012695959
-0.0018246968
0.012836311
-0.0017372262
0.012974584
-0.00163641
0.013110263
-0.0015243142
0.013242919
-0.001403882
0.013372279
-0.0012788315
0.013498226
-0.0011538842
0.013620857
-0.0010339053
0.01374042
-0.00092301809
0.013857393
-0.00082538508
0.013972351
-0.0007452293
0.014086078
-0.00068626197
0.01419932
-0.00064970087
0.014313016
-0.00063479019
0.014427907
-0.00064213317
0.01454503
-0.0006653948
0.014664797
-0.00070921845
0.014788087
-0.00075612693
0.014914559
-0.00082088406
0.015044688
-0.00086901947
0.015177042
-0.00093643202
0.015311377
-0.00093643308
0.015444954
-0.00096357206
0.01557791
-0.00080801262
0.015704904
-0.0007934275
0.015832308
-0.00040557491
-2.0283387e-05
0.006026588
0.0023740834
0.0059841352
0.0025225688
0.0059399792
0.0026653926
0.005894652
0.0027999023
0.0058484099
0.002925041
0.0058015881
0.0030393523
0.0057546289
0.003141245
0.0057078439
0.0032298117
0.0056615552
0.0033041108
0.0056160964
0.0033632955
0.0055718099
0.0034065686
0.0055289994
0.0034335148
0.0054880063
0.003443602
0.0054491689
0.0034365095
0.0054127957
0.003412257
0.0053793311
0.0033703738
0.0053491664
0.0033110432
0.005322685
0.0032345421
0.0053003973
0.0031407552
0.0052828207
0.0030296175
0.0052703965
0.0029017708
0.0052636141
0.0027568475
0.0052625207
0.0025966902
0.0052670972
0.0024227765
0.005277708
0.0022346737
0.0052942346
0.00203455
0.0053166549
0.0018231855
0.0053447416
0.0016020984
0.0053782132
0.0013729486
0.0054166764
0.0011372884
0.0054594158
0.00089705586
0.0055049777
0.00065546978
0.0055502635
0.00042061623
0.0055909845
0.00020949935
0.0056381613
2.8056492e-05
0.0056953361
-0.00017349712
0.0057529732
-0.00038464923
0.0058089477
-0.00057168085
0.0058635811
-0.00073708356
0.0059165414
-0.00087868828
0.0059672944
-0.00099402804
0.0060151527
-0.0010804781
0.0060593108
-0.0011349471
0.0060989598
-0.0011540289
0.0061333663
-0.001134654
0.0061619193
-0.0010743842
0.0061842049
-0.00097170206
0.006200071
-0.00082655366
0.0062096529
-0.00064096093
0.0062133728
-0.00041938959
0.0062114346
-0.00016979816
0.0062031202
9.9146141e-05
0.0061870338
0.00038386777
0.0061653103
0.00069014986
0.0061420449
0.0010079994
0.0061197326
0.0013124221
0.0060988167
0.0015887225
0.006082266
0.0018321543
0.0060706408
0.0020234664
0.0060638378
0.0021682577
0.0060635982
0.0022585232
0.0060696451
0.0022948229
0.0060823805
0.0022835655
0.0061025309
0.0022240262
0.0061286097
0.0021139917
0.0061599935
0.0019728082
0.0061960669
0.0017919119
0.0062357618
0.0015854593
0.006279011
0.0013616936
0.0063246196
0.0011182314
0.0063722155
0.00086467361
0.0064196696
0.00060538185
0.0064685236
0.00036220852
0.0065210141
0.000126527
0.0065747173
-0.00011734624
0.0066268252
-0.00035182391
0.0066759591
-0.00056315185
0.006721762
-0.00074007548
0.0067641194
-0.00087582114
0.0068029583
-0.00096548331
0.0068383204
-0.0010049805
0.0068705364
-0.00099116434
0.0069003669
-0.00092356753
0.0069290818
-0.00080575386
0.0069580444
-0.0006458031
0.0069878434
-0.00045671621
0.0070182854
-0.00025155675
0.0070502966
-3.4292347e-05
0.0070869073
0.00018414363
0.007129751
0.00037633074
0.0071787971
0.00052140787
0.007232547
0.00060570609
0.007289223
0.00062830722
0.0073481794
0.00060016766
0.0074088057
0.00052549044
0.0074706974
0.00041369344
0.007533895
0.00027383993
0.0075983453
0.00011125683
0.0076639647
-6.7203545e-05
0.0077305672
-0.00025554584
0.0077978192
-0.00044691282
0.007865448
-0.00063303764
0.0079333474
-0.00080596407
0.0080015763
-0.00095914992
0.0080701572
-0.0010890343
0.0081390238
-0.0011931177
0.0082080841
-0.0012691049
0.0082773418
-0.0013154429
0.0083469063
-0.0013316662
0.0084169625
-0.0013195116
0.0084877833
-0.0012842552
0.008559596
-0.0012340946
0.0086324741
-0.0011779317
0.008706356
-0.0011234872
0.0087811106
-0.001076622
0.0088566023
-0.00104187
0.0089328813
-0.00102181
0.0090102091
-0.0010165863
0.0090887546
-0.0010270443
0.009168471
-0.0010540876
0.0092492869
-0.0010955529
0.0093312201
-0.0011479208
0.0094143445
-0.0012076057
0.009498801
-0.0012708762
0.0095847795
-0.0013347448
0.0096724888
-0.0013970294
0.0097621387
-0.0014564233
0.0098539129
-0.0015124006
0.0099479586
-0.0015650165
0.010044405
-0.0016144563
0.010143369
-0.0016611889
0.010244945
-0.0017059001
0.010349203
-0.001749371
0.010456162
-0.001792053
0.0105658
-0.0018340221
0.010678149
-0.0018752007
0.010793266
-0.0019158839
0.01091115
-0.0019561434
0.011031758
-0.0019957229
0.011155036
-0.0020340722
0.011280912
-0.0020704615
0.011409297
-0.0021039278
0.011540081
-0.0021333287
0.011673122
-0.0021572578
0.011808242
-0.0021741528
0.011945204
-0.0021823161
0.012083706
-0.0021802196
0.012223366
-0.0021661104
0.012363727
-0.0021383434
0.012504266
-0.002095621
0.012644421
-0.0020372616
0.012783609
-0.0019631239
0.012921244
-0.0018739104
0.013056759
-0.0017707958
0.013189643
-0.0016559198
0.01331947
-0.001532324
0.013445967
-0.0014038852
0.013569019
-0.0012754804
0.013688723
-0.0011521903
0.013805323
-0.0010382724
0.013919286
-0.00093812495
0.014031182
-0.00085608181
0.014141777
-0.00079605485
0.014251806
-0.0007592335
0.014362187
-0.00074500144
0.014473649
-0.00075374738
0.014587208
-0.0007793841
0.014703264
-0.00082597621
0.014822679
-0.00087651734
0.014945084
-0.00094467417
0.015070964
-0.00099681623
0.015198848
-0.0010666415
0.015328561
-0.00106869
0.015457279
-0.0010949028
0.015585527
-0.00093893242
0.015707503
-0.00091817713
0.015830107
-0.0005294212
-0.00012639191
0.0059377319
0.0024078563
0.0059013509
0.0025593852
0.0058631465
0.0027039479
0.0058237865
0.0028397916
0.0057834055
0.0029659753
0.0057422813
0.0030810424
0.0057008806
0.0031832583
0.0056594796
0.0032718592
0.0056184077
0.0033458496
0.0055780029
0.0034043803
0.0055386164
0.00344664
0.0055005572
0.0034722451
0.0054641888
0.0034806246
0.0054298745
0.0034714439
0.0053979345
0.0034447696
0.0053688694
0.0033999631
0.0053430818
0.0033372923
0.0053209475
0.0032570701
0.0053030009
0.0031590266
0.0052897474
0.00304313
0.0052815859
0.0029101303
0.0052789802
0.0027596016
0.005281845
0.0025939246
0.005290116
0.0024145744
0.0053042285
0.0022205984
0.0053239246
0.0020148774
0.0053491885
0.0017979399
0.0053797474
0.0015715708
0.0054152992
0.0013374473
0.0054553515
0.0010973131
0.0054989915
0.00085353715
0.0055445938
0.00061008476
0.0055883865
0.00037686662
0.0056298558
0.00016823025
0.0056802065
-2.1775328e-05
0.005737871
-0.00023088366
0.0057944357
-0.00044089473
0.0058494878
-0.00062639336
0.0059032551
-0.00079051619
0.0059553208
-0.00093043817
0.0060051481
-0.0010435737
0.0060520639
-0.0011271607
0.0060953066
-0.0011780167
0.0061341378
-0.0011927551
0.0061679059
-0.0011683894
0.0061960861
-0.0011026024
0.0062183463
-0.00099406258
0.0062346
-0.00084295428
0.0062450133
-0.00065154873
0.0062499561
-0.00042451947
0.0062495308
-0.00016956389
0.0062431002
0.00010539319
0.0062298205
0.00039700228
0.006212022
0.00070789032
0.0061935251
0.0010265045
0.0061765093
0.0013294827
0.0061615218
0.0016038165
0.0061513209
0.0018424829
0.0061455222
0.0020293822
0.0061453518
0.0021685456
0.0061513752
0.0022525955
0.0061632421
0.002283017
0.006181659
0.0022651861
0.006206635
0.0021990683
0.0062366965
0.002083932
0.0062718578
0.0019376555
0.0063107336
0.0017530322
0.0063526971
0.001543501
0.0063978086
0.0013165464
0.0064449206
0.001071086
0.006493539
0.00081600099
0.0065419869
0.00055689357
0.0065918839
0.0003122515
0.006644866
7.3454463e-05
0.0066982999
-0.00017097915
0.0067498462
-0.00040346161
0.0067983835
-0.00061176858
0.0068436221
-0.00078538861
0.0068855046
-0.00091777868
0.0069240411
-0.0010041005
0.0069593733
-0.0010404013
0.0069919618
-0.0010238648
0.0070226828
-0.00095442544
0.0070527755
-0.00083602655
0.0070834935
-0.000676757
0.0071153696
-0.00048887142
0.0071483618
-0.00028489733
0.0071835138
-6.9864933e-05
0.0072234855
0.00014370291
0.0072694822
0.00032980806
0.0073212277
0.00046913403
0.0073771804
0.00054925653
0.0074356633
0.00056939596
0.0074960672
0.00053941246
0.0075578092
0.00046346889
0.0076205366
0.00035075354
0.0076843049
0.0002099015
0.0077490728
4.6327285e-05
0.007814774
-0.00013308631
0.0078812424
-0.00032224697
0.0079481897
-0.00051415944
0.0080154015
-0.00070062611
0.008082821
-0.00087383595
0.008150533
-0.0010273902
0.0082185719
-0.0011576726
0.0082868946
-0.0012620922
0.0083554459
-0.0013383399
0.0084242532
-0.0013849595
0.0084934416
-0.0014015798
0.0085632051
-0.001390006
0.0086338016
-0.0013555802
0.0087054245
-0.0013064364
0.0087781075
-0.001251313
0.0088517572
-0.0011977977
0.0089262362
-0.0011517025
0.009001397
-0.001117554
0.0090772511
-0.0010980943
0.0091540331
-0.0010936902
0.0092318982
-0.0011051231
0.0093108015
-0.0011331056
0.0093906893
-0.0011754671
0.009471595
-0.0012287783
0.0095536068
-0.0012895083
0.0096368788
-0.0013539885
0.0097216105
-0.0014192748
0.0098080188
-0.001483197
0.0098963177
-0.0015444404
0.0099866958
-0.0016024473
0.010079304
-0.0016572303
0.010174275
-0.0017089528
0.010271725
-0.001758069
0.010371751
-0.0018052506
0.010474417
-0.0018512551
0.010579735
-0.0018964897
0.010687686
-0.0019410113
0.010798308
-0.001984807
0.010911656
-0.0020281949
0.011027716
-0.0020711864
0.011146445
-0.0021134998
0.011267787
-0.0021545707
0.011391668
-0.0021936423
0.011517998
-0.00222972
0.011646665
-0.0022616171
0.011777528
-0.0022878775
0.011910409
-0.0023068835
0.012045072
-0.0023168695
0.012181216
-0.0023162423
0.012318462
-0.0023031743
0.012456354
-0.0022759526
0.012594373
-0.0022332207
0.01273196
-0.0021742637
0.012868535
-0.0020989284
0.013003518
-0.0020079322
0.013136344
-0.0019024831
0.013266506
-0.0017847941
0.01339358
-0.0016580061
0.013517295
-0.0015261507
0.013637536
-0.0013942609
0.013754401
-0.001267629
0.013868125
-0.0011506461
0.013979171
-0.001047942
0.014088097
-0.00096396069
0.014195654
-0.00090280675
0.014302567
-0.00086564643
0.014409734
-0.00085199438
0.014517871
-0.00086203182
0.014627975
-0.0008899115
0.014740432
-0.00093912813
0.01485609
-0.0009931404
0.014974554
-0.0010645122
0.015096317
-0.001120448
0.015219875
-0.0011924657
0.015345122
-0.0011964935
0.015469171
-0.0012215824
0.015592886
-0.0010653039
0.015710021
-0.0010380651
0.015827969
-0.00064858096
-0.0002286044
0.0058568659
0.0022778628
0.0058293606
0.0024354408
0.0057996641
0.002589465
0.0057687283
0.0027351499
0.0057358697
0.0028732841
0.0057018988
0.0030005222
0.0056671155
0.0031163857
0.0056319113
0.0032190868
0.0055965213
0.0033079044
0.0055612858
0.0033817546
0.0055265498
0.0034397956
0.0054926699
0.0034812016
0.0054599626
0.0035056149
0.0054288131
0.0035124191
0.0053996103
0.0035012531
0.0053726768
0.0034722586
0.0053485725
0.0034245741
0.0053276959
0.0033586107
0.005310395
0.0032747452
0.0052972309
0.0031724969
0.0052886813
0.0030519216
0.0052850981
0.0029138969
0.005286924
0.0027579124
0.00529392
0.0025870172
0.0053059969
0.0024025595
0.0053236918
0.002202935
0.0053465707
0.001992021
0.0053746633
0.0017698675
0.0054076448
0.0015386251
0.0054451799
0.0012999686
0.0054866459
0.0010559315
0.0055309541
0.00080935395
0.0055760156
0.00056515026
0.0056187027
0.00033435501
0.0056626245
0.00012464558
0.0057153546
-7.4015331e-05
0.0057726467
-0.00028790442
0.0058281705
-0.00049607257
0.0058823756
-0.00068024033
0.0059353
-0.00084308731
0.0059864847
-0.00098129061
0.0060354049
-0.0010921981
0.0060814146
-0.0011729256
0.0061238093
-0.0012202292
0.0061619293
-0.0012307634
0.0061952083
-0.0012016315
0.0062232093
-0.0011306393
0.0062456816
-0.0010166343
0.0062626003
-0.00086002014
0.0062741565
-0.00066328047
0.0062806766
-0.0004312285
0.0062822034
-0.00017128546
0.0062782284
0.00010917754
0.0062684054
0.00040667409
0.0062551703
0.00072105432
0.0062419979
0.0010396665
0.0062307346
0.0013407673
0.0062221546
0.0016124776
0.0062184898
0.0018462324
0.0062192888
0.002028671
0.0062258445
0.0021620753
0.0062380835
0.0022404067
0.0062557906
0.0022653561
0.0062797194
0.002241282
0.0063093988
0.0021694025
0.0063434366
0.0020498963
0.0063819449
0.0018991567
0.0064235979
0.0017113832
0.0064678573
0.0014992551
0.0065147891
0.0012695922
0.0065633612
0.0010224901
0.0066129904
0.00076632578
0.0066624388
0.00050741342
0.0067133136
0.00026132609
0.0067666625
2.0024062e-05
0.0068198418
-0.00022433208
0.0068709072
-0.00045460715
0.0069189567
-0.00065988194
0.0069637661
-0.00083025911
0.0070053382
-0.00095941267
0.007043763
-0.0010425934
0.0070792828
-0.0010759989
0.0071124634
-0.0010571448
0.0071442455
-0.00098634131
0.0071758396
-0.00086780298
0.0072083874
-0.00070954979
0.0072423876
-0.00052317054
0.0072779293
-0.0003208127
0.0073161111
-0.00010849015
0.007359231
0.00010009188
0.0074081248
0.00028037358
0.0074623146
0.00041440382
0.0075202461
0.00049082177
0.0075803489
0.00050886162
0.0076420364
0.00047737159
0.0077047529
0.00040047017
0.007768192
0.00028709728
0.0078324196
0.00014549707
0.0078974057
-1.8828638e-05
0.0079631013
-0.00019897353
0.0080293617
-0.00038875111
0.0080959456
-0.00058105389
0.0081626926
-0.0007677606
0.0082295912
-0.00094119717
0.0082967505
-0.001095088
0.0083642177
-0.0012257487
0.0084319717
-0.001330507
0.0084999937
-0.001407055
0.0085683329
-0.0014540171
0.0086371277
-0.0014711093
0.008706579
-0.001460199
0.0087769265
-0.0014266678
0.0088483311
-0.0013785716
0.0089207893
-0.0013244812
0.0089941787
-0.0012718592
0.0090683536
-0.0012264898
0.0091431572
-0.0011928912
0.0092185646
-0.0011739415
0.009294778
-0.0011702368
0.0093719427
-0.0011825136
0.0094500151
-0.0012113054
0.0095289593
-0.0012544508
0.0096088229
-0.0013086073
0.0096897086
-0.0013702982
0.0097717829
-0.0014359161
0.0098552553
-0.0015025574
0.0099403496
-0.0015680613
0.010027286
-0.0016311045
0.010116257
-0.001691094
0.010207418
-0.0017480018
0.010300904
-0.0018019679
0.010396834
-0.0018534295
0.010495302
-0.0019030429
0.01059637
-0.0019515384
0.010700041
-0.0019992769
0.010806303
-0.0020463071
0.010915202
-0.0020926847
0.011026782
-0.0021387335
0.011141023
-0.0021844063
0.011257881
-0.0022294018
0.011377298
-0.0022731411
0.011499196
-0.0023148396
0.011623487
-0.0023534719
0.011750058
-0.0023878077
0.011878766
-0.0024163414
0.012009436
-0.0024374004
0.012141832
-0.0024491522
0.012275655
-0.0024499391
0.012410528
-0.0024378596
0.012545997
-0.0024111326
0.012681547
-0.0023683435
0.012816622
-0.002308745
0.012950646
-0.0022321725
0.013083043
-0.0021393577
0.013213252
-0.0020315437
0.013340769
-0.0019110134
0.01346517
-0.0017810086
0.013586186
-0.0016457117
0.013703704
-0.0015103124
0.013817818
-0.0013803116
0.01392876
-0.0012602313
0.014036981
-0.0011549304
0.014143034
-0.0010689619
0.014247652
-0.0010066161
0.014351551
-0.0009690404
0.014455608
-0.00095587266
0.014560528
-0.00096709375
0.014667288
-0.00099708852
0.014776264
-0.0010487906
0.014888285
-0.0011061168
0.015002937
-0.0011805272
0.015120719
-0.0012400418
0.015240099
-0.0013140497
0.015361035
-0.0013199946
0.015480605
-0.0013437927
0.015599964
-0.0011873093
0.015712437
-0.001153273
0.015825883
-0.00076322969
-0.00032699623
0.0057237382
0.0022953199
0.0057036895
0.0024556834
0.0056816868
0.0026118929
0.005657345
0.0027598777
0.0056322557
0.0028988347
0.0056053845
0.0030279924
0.005577482
0.0031448298
0.0055490692
0.0032481494
0.0055202965
0.0033373382
0.0054915017
0.0034112165
0.0054630322
0.003468939
0.0054352449
0.0035096633
0.0054084687
0.0035330407
0.0053831067
0.0035384133
0.0053595777
0.0035253714
0.0053381884
0.003494183
0.0053195651
0.003443684
0.005304085
0.0033745109
0.0052920456
0.0032871387
0.0052840438
0.0031807857
0.0052805163
0.0030556735
0.0052817664
0.0029128152
0.0052882239
0.0027515793
0.0052994698
0.0025758486
0.0053154207
0.0023866632
0.0053367499
0.0021816317
0.0053627972
0.0019659953
0.0053936896
0.0017389971
0.0054290264
0.0015033277
0.0054684238
0.0012606319
0.005511137
0.0010133044
0.0055559601
0.00076463286
0.0055998079
0.00052138264
0.0056429398
0.00029157352
0.0056898122
7.8176951e-05
0.0057439082
-0.00012768091
0.0058003876
-0.00034408588
0.0058550001
-0.00055031248
0.0059084358
-0.00073329865
0.0059605505
-0.0008948293
0.0060108839
-0.0010312747
0.0060589335
-0.0011399371
0.0061040932
-0.0012178279
0.0061457263
-0.0012616699
0.0061832574
-0.0012681752
0.0062162089
-0.0012345408
0.0062442329
-0.001158696
0.0062671589
-0.0010396585
0.0062850221
-0.00087803061
0.0062980362
-0.00067647157
0.0063064959
-0.00043988003
0.0063104238
-0.00017541371
0.0063094702
0.00010993122
0.0063037137
0.00041227103
0.0062956101
0.0007290716
0.0062882617
0.0010469829
0.0062832295
0.0013457939
0.0062814163
0.0016143392
0.0062845227
0.0018431748
0.0062921943
0.0020210577
0.0063054368
0.0021488911
0.0063238483
0.0022220121
0.0063474542
0.0022417777
0.0063766875
0.0022120637
0.0064108923
0.0021352077
0.0064487904
0.0020120014
0.0064904927
0.0018574638
0.0065348378
0.0016670494
0.0065813386
0.0014527751
0.0066300349
0.001220882
0.0066799819
0.00097252737
0.0067306262
0.00071564422
0.0067810841
0.00045693193
0.0068328423
0.0002095264
0.0068864608
-3.3667069e-05
0.0069394079
-0.00027742155
0.0069900793
-0.00050534684
0.0070377482
-0.00070759979
0.0070822591
-0.00087481805
0.0071236757
-0.0010008783
0.0071621646
-0.001081138
0.0071980597
-0.0011119611
0.0072320106
-0.0010911873
0.0072649921
-0.0010194531
0.0072981724
-0.00090116682
0.0073325904
-0.00074422017
0.0073687273
-0.00055962313
0.0074067789
-0.00035926098
0.0074478495
-0.00015002401
0.007493892
5.3539462e-05
0.0075454304
0.00022828196
0.0076018215
0.00035746184
0.0076615203
0.00043061265
0.0077230655
0.00044688155
0.0077858805
0.00041420043
0.007849437
0.00033662801
0.0079134685
0.00022284297
0.0079780484
8.0732798e-05
0.0080431574
-8.4116418e-05
0.0081087638
-0.00026478239
0.0081747469
-0.00045498917
0.0082409107
-0.00064753991
0.0083071466
-0.00083439506
0.0083734846
-0.0010080084
0.0084400557
-0.0011622079
0.0085069218
-0.0012932335
0.0085740832
-0.0013983383
0.008641554
-0.0014752284
0.0087094061
-0.0015225967
0.0087777886
-0.0015402362
0.008846906
-0.0015300688
0.0089169789
-0.0014974919
0.0089881356
-0.0014504704
0.0090603396
-0.0013974062
0.009133442
-0.0013456444
0.0092072846
-0.0013009553
0.0092817058
-0.0012678558