/*--------------------------------*- C++ -*----------------------------------*\
| =========                 |                                                 |
| \\      /  F ield         | OpenFOAM: The Open Source CFD Toolbox           |
|  \\    /   O peration     | Version:  2406                                  |
|   \\  /    A nd           | Website:  www.openfoam.com                      |
|    \\/     M anipulation  |                                                 |
\*---------------------------------------------------------------------------*/
FoamFile
{
    version     2.0;
    format      ascii;
    arch        "LSB;label=32;scalar=64";
    class       volVectorField;
    location    "0.012";
    object      UMean;
}
// * * * * * * * * * * * * * * * * * * * * * * * * * * * * * * * * * * * * * //

dimensions      [0 1 -1 0 0 0 0];

internalField   nonuniform List<vector> 
92813
(
(40.661035 30.58327 -4.8710949e-21)
(41.538105 29.811765 1.6113738e-20)
(42.375524 29.087501 -9.8148643e-21)
(43.159235 28.396188 -9.8972002e-21)
(43.882693 27.71362 -8.2553341e-21)
(44.55419 27.042816 6.5633142e-21)
(45.180766 26.390747 5.1007982e-21)
(45.768347 25.761792 0)
(46.323113 25.158437 -2.8680237e-21)
(46.850468 24.581625 -1.1984871e-24)
(47.355277 24.031246 -1.4579654e-21)
(47.842367 23.506474 -9.5961461e-22)
(48.31629 23.005905 0)
(48.780224 22.527646 0)
(49.23479 22.069636 2.6395967e-22)
(49.680627 21.630011 -1.5265205e-25)
(50.11688 21.207094 -2.2302364e-21)
(50.540701 20.799553 -2.111037e-21)
(50.949168 20.406757 2.5257405e-25)
(51.340938 20.028586 -8.8399614e-21)
(51.715709 19.665035 0)
(52.073859 19.315959 0)
(52.417495 18.980332 0)
(52.748393 18.656875 5.4474149e-21)
(53.067378 18.344417 -1.077055e-20)
(53.374846 18.041762 -5.33144e-21)
(53.670844 17.747716 0)
(53.955154 17.461086 0)
(54.227348 17.180666 5.2534928e-21)
(54.486802 16.905246 -1.577402e-20)
(54.732755 16.633574 -1.0560355e-20)
(54.964262 16.364357 5.3210386e-21)
(55.179993 16.0962 -1.6142223e-20)
(55.378415 15.827886 0)
(55.5582 15.557925 0)
(55.717745 15.284586 -1.7146876e-20)
(55.854935 15.006432 1.1785346e-20)
(55.968295 14.721716 -1.2225219e-20)
(56.055634 14.428132 1.2766553e-20)
(56.111839 14.123797 -3.3490816e-20)
(56.135808 13.808977 -4.9581993e-20)
(56.128308 13.479406 1.5139792e-20)
(56.085637 13.134049 4.0735439e-20)
(56.006616 12.772869 3.5235253e-20)
(55.892204 12.395801 9.5664799e-21)
(55.745001 12.004576 3.1285609e-20)
(55.569497 11.60212 0)
(55.372321 11.192774 0)
(55.163009 10.78286 0)
(54.955452 10.382032 5.8248948e-20)
(54.767545 10.003496 6.1987421e-20)
(54.614772 9.6588818 6.4728942e-20)
(54.501144 9.3506066 1.6603876e-20)
(54.418878 9.0719142 -1.6828428e-20)
(54.356449 8.8136943 6.7750571e-20)
(54.304807 8.5690976 -8.4908354e-20)
(54.258613 8.3341511 -4.2466345e-20)
(54.215196 8.1068179 3.7753075e-25)
(54.173329 7.886076 -1.4376528e-19)
(54.132482 7.6713647 0)
(54.092457 7.4623438 1.2572037e-19)
(54.053113 7.2587629 -1.3330972e-19)
(54.014373 7.0603882 8.2744646e-21)
(53.976195 6.867024 1.3959246e-19)
(53.938518 6.6784892 1.2213183e-19)
(53.901326 6.4946009 8.0676673e-21)
(53.864601 6.3152062 1.1184012e-19)
(53.828324 6.1401517 2.529653e-19)
(53.792485 5.9692905 1.5640299e-20)
(53.757081 5.8024864 -7.7277523e-21)
(53.722113 5.6396112 1.2978776e-19)
(53.687563 5.4805383 -1.5077836e-20)
(53.65344 5.3251461 1.264954e-19)
(53.619764 5.1733206 1.247998e-19)
(53.58651 5.0249587 2.0623538e-25)
(53.553686 4.8799416 2.284022e-19)
(53.521317 4.738176 -7.0339151e-21)
(53.489388 4.5995602 2.1482669e-19)
(53.457899 4.4640006 1.3650224e-20)
(53.426869 4.3313972 -6.7200089e-21)
(53.396297 4.2016708 -2.1167611e-19)
(53.366191 4.0747251 0)
(53.336555 3.9504819 -2.1133029e-19)
(53.307398 3.8288519 -1.9527286e-19)
(53.278727 3.7097596 3.1489288e-24)
(53.250544 3.5931229 0)
(53.222857 3.4788646 -1.8567369e-19)
(53.195671 3.3669104 -5.8871793e-21)
(53.168982 3.2571834 2.4986542e-24)
(53.142797 3.1496146 0)
(53.117119 3.0441276 0)
(53.091947 2.9406578 -3.5120941e-19)
(53.067289 2.8391317 -3.9730915e-24)
(53.04315 2.7394835 -5.2934584e-21)
(53.019538 2.6416484 1.0398228e-20)
(52.996452 2.545554 3.1652208e-19)
(52.973903 2.4511436 3.2071877e-19)
(52.951898 2.3583404 -3.1004352e-19)
(52.930435 2.2670905 0)
(52.909527 2.1773189 -3.035011e-19)
(52.889178 2.0889674 0)
(52.869388 2.001963 2.8776875e-19)
(52.850171 1.9162475 4.4818776e-21)
(52.831532 1.8317568 0)
(52.813459 1.7484155 -2.7617145e-19)
(52.795966 1.6661711 0)
(52.779059 1.5849389 2.6570199e-19)
(52.762752 1.5046519 -2.6287877e-19)
(52.747057 1.4252344 3.9986553e-21)
(52.731984 1.3466178 -1.9617269e-21)
(52.717544 1.268724 0)
(52.703745 1.1914716 0)
(52.690599 1.114776 4.721707e-19)
(52.67812 1.0385509 -1.5064899e-26)
(52.666323 0.96270468 -4.5428286e-19)
(52.655226 0.88713744 0)
(52.644833 0.81175889 2.3320231e-24)
(52.635165 0.73644007 0)
(52.626207 0.66111429 -4.2181504e-19)
(52.618042 0.58558573 -2.0859895e-24)
(52.610625 0.509872 0)
(52.60411 0.433567 -3.975516e-19)
(52.598344 0.35699512 3.8986314e-19)
(52.593677 0.27921069 0)
(52.589817 0.20130519 0)
(52.587241 0.12118062 3.6755647e-19)
(52.58542 0.041406462 -3.5226281e-19)
(39.928595 30.096427 -5.9711159e-21)
(40.871239 29.356742 -1.7215742e-20)
(41.727623 28.697526 0)
(42.522589 28.062566 -1.0300244e-20)
(43.266508 27.436442 1.9579953e-20)
(43.964946 26.820967 -9.3360975e-21)
(44.622309 26.220876 6.8202027e-24)
(45.242858 25.639282 0)
(45.83099 25.078115 8.2147912e-21)
(46.391019 24.538443 1.5801272e-20)
(46.927123 24.020599 -2.2327249e-24)
(47.443347 23.524252 1.4722841e-20)
(47.943316 23.048386 0)
(48.429657 22.591378 -6.9114033e-21)
(48.90359 22.151379 1.3428257e-20)
(49.365476 21.726699 -3.0702542e-24)
(49.814732 21.315915 6.3664159e-21)
(50.249951 20.918032 6.2171943e-21)
(50.669701 20.532671 0)
(51.073237 20.159883 0)
(51.460492 19.799747 5.8554797e-21)
(51.831903 19.45218 1.1766283e-24)
(52.188525 19.116691 -5.6794662e-21)
(52.531404 18.792448 -5.6081562e-21)
(52.861212 18.478446 1.1100734e-20)
(53.178306 18.173588 -5.5086651e-21)
(53.482752 17.876744 5.4781064e-21)
(53.774373 17.586766 1.0926997e-20)
(54.052779 17.302486 -5.4626798e-21)
(54.31738 17.022715 1.643524e-20)
(54.56742 16.746225 -5.5125245e-21)
(54.801932 16.471737 5.5664411e-21)
(55.019661 16.197743 -1.1277165e-20)
(55.219127 15.923144 5.7345814e-21)
(55.398935 15.646412 -1.7582818e-20)
(55.557441 15.365769 2.4085833e-20)
(55.692666 15.079722 0)
(55.802858 14.786633 1.2929388e-20)
(55.885514 14.484109 6.7620634e-21)
(55.936952 14.168861 2.841662e-20)
(55.955667 13.844536 -1.505088e-20)
(55.941601 13.503984 8.0513713e-21)
(55.891884 13.147628 -2.5987835e-20)
(55.806417 12.77543 -9.3610385e-21)
(55.686639 12.387768 4.0617904e-20)
(55.535778 11.986891 0)
(55.359016 11.576178 0)
(55.163823 11.160508 3.9140603e-20)
(54.961019 10.747138 7.0561964e-20)
(54.766003 10.347209 -1.5121825e-20)
(54.596637 9.9746642 -4.7851712e-20)
(54.465001 9.6390673 -6.6055694e-20)
(54.370241 9.3391668 0)
(54.302142 9.0661969 0)
(54.249617 8.8111938 -6.8232698e-20)
(54.205092 8.568215 5.1210486e-20)
(54.16446 8.3340515 8.5236567e-20)
(54.125774 8.1071137 0)
(54.088161 7.8865959 1.6934259e-20)
(54.051255 7.6720336 -1.684864e-20)
(54.014936 7.4631281 1.674837e-20)
(53.979091 7.2596447 1.1642733e-19)
(53.943661 7.0613555 -1.4029328e-19)
(53.908625 6.8680683 8.1877129e-21)
(53.873926 6.6796048 -2.5133174e-19)
(53.839565 6.4957819 1.2844788e-19)
(53.805531 6.3164489 -2.5420853e-19)
(53.771814 6.1414529 -1.3355978e-19)
(53.738411 5.9706466 -1.2425237e-19)
(53.705326 5.8038948 1.3043194e-19)
(53.672568 5.6410693 -1.5152604e-20)
(53.640122 5.4820426 7.4780059e-21)
(53.608006 5.3266943 0)
(53.576244 5.1749092 0)
(53.544814 5.0265847 -2.2956933e-19)
(53.513731 4.8816012 -2.2624771e-19)
(53.483023 4.739866 6.9660864e-21)
(53.452678 4.6012769 -2.2641657e-19)
(53.422701 4.4657408 2.1619687e-19)
(53.393115 4.3331566 6.650946e-21)
(53.363921 4.2034464 -6.5456214e-21)
(53.335131 4.0765129 0)
(53.306751 3.9522786 -2.0908595e-19)
(53.278794 3.8306537 1.9941183e-19)
(53.251269 3.7115632 -1.8997485e-19)
(53.22418 3.5949245 0)
(53.197537 3.480661 -2.8772111e-24)
(53.171349 3.3686982 0)
(53.145613 3.2589591 -1.8308528e-19)
(53.120337 3.1513755 0)
(53.095526 3.0458701 1.7675928e-19)
(53.071182 2.9423795 1.736442e-19)
(53.047316 2.8408295 6.8227417e-19)
(53.023931 2.7411551 5.2353266e-21)
(53.00104 2.6432914 3.2391622e-19)
(52.978641 2.5471658 -6.4625815e-19)
(52.956748 2.4527225 4.9598905e-21)
(52.935368 2.3598839 3.0178555e-19)
(52.914501 2.268597 -3.0106189e-19)
(52.894161 2.1787865 3.0023657e-19)
(52.874352 2.0903944 0)
(52.855077 2.0033529 2.4545592e-24)
(52.836351 1.9175988 0)
(52.818178 1.833065 0)
(52.800548 1.7496774 0)
(52.783475 1.6673785 2.6830884e-19)
(52.766966 1.5860925 2.0552888e-21)
(52.751036 1.5057585 -2.0180213e-21)
(52.735696 1.4262917 2.5549156e-19)
(52.72096 1.3476243 -4.9946887e-19)
(52.706836 1.2696777 1.9067622e-21)
(52.693335 1.1923728 4.7892226e-19)
(52.680468 1.115622 -1.8353046e-21)
(52.66825 1.0393424 0)
(52.656696 0.9634397 4.539407e-19)
(52.645824 0.88781587 -3.4653582e-21)
(52.635637 0.81237997 -8.6851478e-19)
(52.626159 0.73700431 0)
(52.617374 0.66162171 -2.1846815e-24)
(52.609364 0.58603304 4.1132184e-19)
(52.602084 0.51025793 -7.8652742e-22)
(52.595689 0.43389364 3.9499226e-19)
(52.590023 0.35725613 -7.7468801e-19)
(52.58544 0.27941188 0)
(52.581646 0.20143923 0)
(52.579108 0.12123623 -8.7316326e-23)
(52.577308 0.041426025 8.5416817e-23)
(39.167883 29.461737 -1.4401216e-23)
(40.096825 28.813679 -1.0502624e-20)
(40.968146 28.238056 -5.0012205e-21)
(41.786437 27.671939 4.7709468e-21)
(42.557524 27.10804 9.1362454e-21)
(43.285603 26.550476 -8.7606656e-21)
(43.974334 26.003723 -8.4177709e-21)
(44.627313 25.470504 -8.1011394e-21)
(45.248177 24.952632 3.1935798e-24)
(45.84055 24.451301 0)
(46.407993 23.967129 1.6217912e-24)
(46.953928 23.500136 -7.4350783e-25)
(47.481425 23.049721 1.1065346e-24)
(47.992847 22.61475 -6.6953497e-21)
(48.489568 22.19385 1.3046893e-20)
(48.972122 21.785683 -1.2731718e-20)
(49.44029 21.389085 1.2445341e-20)
(49.893297 21.003262 0)
(50.330249 20.627918 -5.9738564e-21)
(50.750611 20.263108 -5.8683883e-21)
(51.154307 19.908963 -7.5133891e-25)
(51.541653 19.565527 -5.6925965e-21)
(51.913336 19.232584 5.6230838e-21)
(52.270128 18.909586 -1.1136795e-20)
(52.612631 18.59574 0)
(52.941201 18.290111 0)
(53.25594 17.991686 1.0946318e-20)
(53.556713 17.699401 -1.0934943e-20)
(53.843168 17.412151 -5.4794036e-21)
(54.114754 17.128786 -5.5055566e-21)
(54.370726 16.848111 1.1103028e-20)
(54.610111 16.568866 -1.1234832e-20)
(54.831727 16.289522 1.7112334e-20)
(55.034135 16.009014 5.816428e-21)
(55.215878 15.725752 1.7872546e-20)
(55.375291 15.43798 2.9131e-24)
(55.510471 15.144162 6.3565639e-21)
(55.619485 14.842663 -6.6211385e-21)
(55.699648 14.531021 -6.9449708e-21)
(55.748489 14.205868 -2.9257851e-20)
(55.764155 13.871572 3.1076298e-20)
(55.74579 13.52004 -3.3344404e-20)
(55.69162 13.153056 3.593039e-20)
(55.602359 12.770413 0)
(55.47991 12.373063 5.270614e-20)
(55.328063 11.963734 9.1247356e-25)
(55.152613 11.546299 4.9772875e-20)
(54.961894 11.126327 -1.2137731e-19)
(54.768063 10.712311 -1.0172457e-19)
(54.587654 10.316834 8.9400001e-25)
(54.437337 9.9534117 -1.62038e-20)
(54.324987 9.6281642 4.9969846e-20)
(54.245908 9.3363531 8.4515469e-20)
(54.18906 9.0683515 0)
(54.144515 8.8160336 6.8212717e-20)
(54.106069 8.5744632 4.1491207e-24)
(54.070503 8.3410834 1.7014179e-20)
(54.036327 8.1146376 1.187002e-19)
(54.002872 7.894465 0)
(53.969862 7.6801635 0)
(53.937226 7.4714602 1.6679228e-20)
(53.904866 7.2681324 -1.6556829e-20)
(53.87274 7.0699581 2.4634607e-19)
(53.840841 6.8767487 -1.1394382e-19)
(53.809121 6.6883316 1.6118372e-20)
(53.777592 6.504525 -1.595465e-20)
(53.746252 6.3251821 -4.650444e-24)
(53.715098 6.1501528 0)
(53.684136 5.9792911 -7.7133107e-21)
(53.653375 5.8124648 -1.1427529e-19)
(53.622832 5.6495471 -7.5215583e-21)
(53.592496 5.4904122 7.4223448e-21)
(53.56239 5.3349421 1.2447247e-19)
(53.532547 5.1830223 1.9433811e-25)
(53.502947 5.0345524 2.2773247e-19)
(53.473608 4.889414 -7.0127443e-21)
(53.444566 4.7475158 -6.9084394e-21)
(53.415809 4.6087564 6.803402e-21)
(53.387349 4.4730448 -2.1434705e-19)
(53.35921 4.3402795 0)
(53.331397 4.210385 -6.4884256e-21)
(53.303926 4.0832639 -1.4210555e-25)
(53.276805 3.9588399 6.2745792e-21)
(53.25005 3.8370239 -1.9144018e-19)
(53.223672 3.7177413 -6.0722633e-21)
(53.197678 3.6009103 5.9699215e-21)
(53.172081 3.4864549 1.877814e-19)
(53.146891 3.3743008 -1.1534885e-20)
(53.122107 3.2643716 -1.7569809e-19)
(53.097741 3.1565995 0)
(53.073799 3.0509071 -1.750744e-19)
(53.050284 2.9472321 0)
(53.027208 2.8454997 -5.2749229e-21)
(53.004578 2.7456455 5.1846609e-21)
(52.982406 2.6476051 -3.2586128e-19)
(52.960695 2.5513052 6.3994894e-19)
(52.939456 2.4566912 -3.1905227e-19)
(52.9187 2.3636843 9.6395537e-21)
(52.898428 2.2722329 2.980958e-19)
(52.878654 2.1822608 -2.9727549e-19)
(52.859385 2.0937105 -4.558656e-21)
(52.840624 2.0065127 -2.8641191e-19)
(52.822386 1.9206061 -2.7232418e-19)
(52.804677 1.8359228 -8.6214312e-21)
(52.787488 1.7523901 4.2303922e-21)
(52.770834 1.6699515 -2.6566041e-19)
(52.754721 1.588528 0)
(52.739168 1.5080554 1.9981635e-21)
(52.724183 1.4284531 -2.5291961e-19)
(52.709783 1.3496547 -3.2765736e-24)
(52.695975 1.2715788 0)
(52.682772 1.1941474 -4.7412563e-19)
(52.670183 1.117273 4.6515243e-19)
(52.658225 1.0408709 4.5631665e-19)
(52.646913 0.96484869 -4.4762588e-19)
(52.636265 0.88910757 -4.3740554e-19)
(52.626286 0.81355536 -2.3716405e-24)
(52.616997 0.73806549 -2.4754874e-21)
(52.608385 0.66256825 4.1423925e-19)
(52.60053 0.58686973 7.9376066e-22)
(52.593387 0.51098185 0)
(52.587112 0.4345087 0)
(52.581548 0.35775833 3.8346605e-19)
(52.577047 0.27980693 3.7593985e-19)
(52.573321 0.20171923 0)
(52.570822 0.12139906 -7.2210924e-19)
(52.569043 0.041488504 0)
(38.528838 28.788928 9.875866e-21)
(39.440191 28.226425 -9.6609292e-21)
(40.311812 27.730378 4.6270157e-21)
(41.140492 27.235774 0)
(41.927677 26.737041 -8.5493132e-21)
(42.675692 26.239052 1.6484275e-20)
(43.387082 25.746508 7.9548256e-21)
(44.064549 25.262267 -7.6965143e-21)
(44.710936 24.788295 0)
(45.329159 24.326004 7.2303543e-21)
(45.922137 23.876282 0)
(46.492687 23.439478 -6.8330834e-21)
(47.04336 23.015407 1.0911933e-24)
(47.576198 22.603434 -6.4940329e-21)
(48.092561 22.202671 0)
(48.593149 21.812181 0)
(49.07806 21.431123 1.0222248e-24)
(49.546937 21.058918 -5.970189e-21)
(49.999254 20.695335 5.8699768e-21)
(50.434636 20.340408 5.7799205e-21)
(50.85299 19.994271 -8.4076486e-25)
(51.254523 19.657012 0)
(51.639715 19.328539 -5.5767804e-21)
(52.009139 19.008502 5.5283935e-21)
(52.363278 18.696309 5.5001703e-21)
(52.702431 18.391204 5.4783201e-21)
(53.02669 18.092312 -2.1886169e-20)
(53.335927 17.798676 0)
(53.629809 17.509267 -5.5015895e-21)
(53.907798 17.222994 5.5404229e-21)
(54.169156 16.938706 -1.6798381e-20)
(54.41291 16.655145 5.6772978e-21)
(54.637895 16.370876 0)
(54.842736 16.084734 -1.7712547e-20)
(55.025917 15.795132 -6.0659112e-21)
(55.185749 15.500344 -6.2606827e-21)
(55.320374 15.198794 -2.6009284e-20)
(55.427751 14.888894 2.7179372e-20)
(55.505161 14.567881 7.7648136e-25)
(55.550935 14.233511 -3.7706168e-20)
(55.563228 13.888931 0)
(55.540463 13.526553 3.4543197e-20)
(55.482044 13.149247 -3.7262348e-20)
(55.389371 12.756692 0)
(55.26487 12.350455 -5.4675322e-20)
(55.112903 11.933711 1.187003e-20)
(54.93994 11.510869 -6.4364227e-20)
(54.755364 11.088376 8.3476649e-20)
(54.572774 10.67616 1.0443921e-19)
(54.409275 10.287778 0)
(54.279138 9.935003 4.9175256e-20)
(54.185654 9.6199346 1.6756704e-20)
(54.121177 9.3352353 -1.6936526e-20)
(54.074703 9.0713277 1.70179e-20)
(54.037665 8.8211673 1.7035693e-20)
(54.005106 8.5807343 -1.7011007e-20)
(53.974561 8.348002 0)
(53.944911 8.1219698 7.6306517e-24)
(53.915653 7.9020834 1.6818378e-20)
(53.886586 7.6879884 -1.6717108e-20)
(53.857684 7.4794328 0)
(53.828859 7.2762051 1.6474694e-20)
(53.800088 7.0780904 -2.7769322e-19)
(53.771378 6.8849038 -1.618524e-20)
(53.742686 6.6964801 1.6020419e-20)
(53.714039 6.5126393 -1.1100785e-19)
(53.685443 6.3332395 -1.5688542e-20)
(53.656902 6.158134 -1.2402738e-19)
(53.628428 5.9871783 0)
(53.600039 5.8202437 0)
(53.571757 5.6572053 0)
(53.543577 5.4979383 -1.1047533e-19)
(53.515528 5.3423279 3.5355454e-24)
(53.487648 5.1902596 -7.1611925e-21)
(53.45992 5.0416351 0)
(53.432368 4.8963371 -2.2252579e-19)
(53.405032 4.7542753 -6.8493661e-21)
(53.377904 4.6153487 2.2256884e-19)
(53.350999 4.4794684 -6.6395459e-21)
(53.324345 4.3465318 -2.0257372e-19)
(53.297951 4.2164659 -2.0575706e-19)
(53.271835 4.0891726 0)
(53.246008 3.9645766 4.0438223e-19)
(53.220488 3.8425888 1.8353301e-19)
(53.195291 3.7231356 6.0153553e-21)
(53.170424 3.6061349 -1.8923262e-19)
(53.145903 3.4915113 -1.8599741e-19)
(53.121741 3.3791905 0)
(53.097939 3.2690962 1.7400165e-19)
(53.07451 3.1611614 5.5147959e-21)
(53.051463 3.0553079 0)
(53.028802 2.9514744 1.6497769e-19)
(53.006542 2.8495857 -3.2407441e-19)
(52.984691 2.7495777 8.1097761e-26)
(52.963262 2.6513861 3.2263033e-19)
(52.942259 2.5549372 -6.3849119e-19)
(52.921697 2.4601774 0)
(52.901585 2.3670267 3.0537295e-19)
(52.881927 2.2754345 0)
(52.862739 2.1853241 2.8967506e-19)
(52.844027 2.0966384 9.0257373e-21)
(52.825798 2.0093073 -4.4297927e-21)
(52.808065 1.9232704 -2.3758163e-24)
(52.790836 1.8384586 -2.7307703e-19)
(52.774103 1.7548002 -2.6379736e-19)
(52.757881 1.6722373 -4.1085635e-21)
(52.742179 1.5906932 0)
(52.727014 1.5101013 0)
(52.712397 1.430382 -2.4836226e-19)
(52.698344 1.3514682 4.8747819e-19)
(52.684864 1.2732799 0)
(52.671967 1.1957369 0)
(52.659667 1.118753 -4.621415e-19)
(52.647978 1.0422439 -9.0145649e-19)
(52.636916 0.96611448 1.7304842e-21)
(52.626501 0.89026866 8.6912712e-19)
(52.616736 0.81461304 8.5089895e-19)
(52.607643 0.73902096 -4.1809119e-19)
(52.599209 0.66342086 0)
(52.591515 0.58762314 -7.8558506e-22)
(52.584514 0.5116342 -3.9375898e-19)
(52.578363 0.43506272 0)
(52.572904 0.35821005 0)
(52.568489 0.28016157 -3.71727e-19)
(52.564832 0.20196881 -5.3420671e-22)
(52.562374 0.12153896 3.5751281e-19)
(52.560618 0.041543084 0)
(37.984738 28.098658 4.5305163e-21)
(38.877799 27.613608 8.9276212e-21)
(39.741686 27.190174 -4.3044648e-21)
(40.571618 26.763945 8.3086746e-21)
(41.3665 26.329176 -8.0333299e-21)
(42.126811 25.890283 -7.7785253e-21)
(42.85382 25.451817 0)
(43.549247 25.016686 -1.0953777e-24)
(44.215119 24.58699 7.1217054e-21)
(44.853648 24.164336 3.3849482e-24)
(45.467123 23.749856 6.7582807e-21)
(46.057797 23.344204 6.5928667e-21)
(46.627741 22.947577 1.7464791e-24)
(47.178679 22.559784 6.3059199e-21)
(47.711865 22.180378 6.1777727e-21)
(48.228061 21.808811 -4.1209374e-25)
(48.727567 21.444566 -5.9550803e-21)
(49.210317 21.087279 1.0284608e-24)
(49.67607 20.736807 9.5831635e-25)
(50.124607 20.393194 -5.6978702e-21)
(50.555864 20.056567 -1.1234316e-25)
(50.969978 19.727029 5.5785915e-21)
(51.367269 19.404559 -2.7428736e-25)
(51.748128 19.088934 1.6501947e-20)
(52.112896 18.779729 -1.6439294e-20)
(52.461785 18.476343 -1.0945063e-20)
(52.794837 18.178039 1.6426848e-20)
(53.111905 17.88397 0)
(53.412643 17.593194 0)
(53.69651 17.304685 1.6746825e-20)
(53.962761 17.017348 -5.6552897e-21)
(54.21042 16.729923 -5.7463795e-21)
(54.43831 16.44108 -2.34434e-20)
(54.645094 16.14958 6.0034843e-21)
(54.829231 15.853814 1.8546684e-20)
(54.988993 15.552098 6.400162e-21)
(55.122548 15.242869 -1.3329667e-20)
(55.227796 14.92456 -6.9809946e-21)
(55.302229 14.593842 -2.9410208e-20)
(55.344428 14.250902 3.8911998e-20)
(55.352956 13.895625 8.319873e-21)
(55.325715 13.522657 -8.9574965e-21)
(55.263286 13.13533 0)
(55.167642 12.73339 1.0466243e-20)
(55.041787 12.319024 -1.1344982e-20)
(54.890691 11.895856 0)
(54.721628 11.468926 5.3241666e-20)
(54.545238 11.045791 -1.4333754e-20)
(54.376476 10.637864 -3.0562671e-20)
(54.232104 10.258862 -1.604266e-20)
(54.122821 9.917605 0)
(54.047434 9.6122119 -8.4156907e-20)
(53.996415 9.333767 -3.392465e-20)
(53.95948 9.0733515 3.4024465e-20)
(53.929509 8.825056 -5.1031143e-20)
(53.902662 8.5856634 -6.7903409e-20)
(53.877097 8.3535788 0)
(53.85199 8.1280029 7.7370552e-24)
(53.826968 7.9084602 1.6751061e-20)
(53.80189 7.6946355 -1.3314519e-19)
(53.776772 7.4862924 -1.6520832e-20)
(53.751534 7.283229 -1.311016e-19)
(53.726167 7.0852377 1.2993719e-19)
(53.700695 6.8921359 -1.2870603e-19)
(53.67508 6.703767 2.5479541e-19)
(53.649362 6.5199518 -1.2603286e-19)
(53.623555 6.340553 1.2460605e-19)
(53.59767 6.1654278 1.231369e-19)
(53.571727 5.9944325 -1.0642612e-19)
(53.545751 5.8274418 -1.5009783e-20)
(53.51977 5.6643327 -1.1850276e-19)
(53.493784 5.5049811 1.1689347e-19)
(53.467827 5.3492757 -1.2967515e-19)
(53.441945 5.1971014 7.1012113e-21)
(53.416123 5.0483625 6.9977768e-21)
(53.390388 4.9029424 2.2059434e-19)
(53.36479 4.760752 0)
(53.33932 4.6216908 -2.1389496e-19)
(53.313997 4.4856719 6.57955e-21)
(53.288856 4.3525918 2.0719135e-19)
(53.263905 4.22238 2.0384984e-19)
(53.239168 4.0949377 -6.2662699e-21)
(53.214658 3.9701909 -3.9435706e-19)
(53.190396 3.8480508 1.9391818e-19)
(53.166401 3.7284441 0)
(53.142681 3.6112893 1.8739964e-19)
(53.119255 3.4965115 1.7842745e-19)
(53.09614 3.3840365 5.6561559e-21)
(53.073337 3.2737883 1.7228864e-19)
(53.050862 3.1657008 5.4601178e-21)
(53.028725 3.0596947 0)
(53.006934 2.9557104 2.2263294e-24)
(52.985503 2.8536719 5.1744978e-21)
(52.964444 2.7535156 -3.3030523e-19)
(52.943771 2.6551777 -6.3871329e-19)
(52.92349 2.5585839 3.1844086e-19)
(52.903615 2.4636818 -4.8100734e-21)
(52.884159 2.3703901 -6.0448642e-19)
(52.865127 2.2786594 2.9206754e-19)
(52.846534 2.1884124 9.1013457e-21)
(52.82839 2.0995924 5.5987997e-26)
(52.8107 2.0121289 5.3281386e-26)
(52.793481 1.925962 2.710603e-19)
(52.776739 1.841022 2.7445881e-19)
(52.760471 1.7572379 -4.1457702e-21)
(52.74469 1.6745513 2.602134e-19)
(52.729405 1.5928851 -1.9938556e-21)
(52.714635 1.5121738 2.5439335e-19)
(52.700392 1.4323375 4.876339e-19)
(52.686692 1.3533072 3.7685149e-21)
(52.673544 1.2750047 -3.6973445e-21)
(52.66096 1.1973494 -1.5315232e-26)
(52.648953 1.1202546 -4.5548432e-19)
(52.637537 1.0436364 4.4858161e-19)
(52.626731 0.9674 -4.383428e-19)
(52.616552 0.89144812 -4.2997819e-19)
(52.607004 0.81568714 2.4223755e-24)
(52.598111 0.73999129 4.1366298e-19)
(52.589859 0.66428879 0)
(52.582328 0.58838875 3.9796019e-19)
(52.575472 0.51229682 3.9110579e-19)
(52.569447 0.43562654 2.998617e-27)
(52.564095 0.35866919 -3.7620093e-19)
(52.559767 0.28052223 0)
(52.556179 0.20222366 -3.6089154e-19)
(52.553764 0.12168214 8.6308597e-23)
(52.552032 0.04160005 -8.2991433e-23)
(37.521496 27.394457 0)
(38.396639 26.984618 -4.1440298e-21)
(39.248936 26.628516 8.0368903e-21)
(40.074169 26.266207 -7.7993035e-21)
(40.870055 25.892369 -1.5144495e-20)
(41.635832 25.510594 2.2096295e-20)
(42.371789 25.124945 7.1689228e-21)
(43.078825 24.738208 -1.3975802e-20)
(43.75824 24.352516 6.8164756e-21)
(44.411594 23.969596 -1.3318166e-20)
(45.040591 23.59077 -1.3023961e-20)
(45.646955 23.216947 6.3763495e-21)
(46.232317 22.848642 -1.2495899e-20)
(46.798082 22.486035 0)
(47.345342 22.12906 0)
(47.874831 21.777518 0)
(48.38694 21.431181 0)
(48.881778 21.089892 0)
(49.359284 20.753616 -1.1367109e-20)
(49.819355 20.422432 -1.1246397e-20)
(50.261957 20.096477 -5.5717553e-21)
(50.687178 19.77587 -5.528025e-21)
(51.095215 19.460632 -1.0996405e-20)
(51.486307 19.150633 0)
(51.860662 18.845567 -5.4676721e-21)
(52.218392 18.544964 1.6410248e-20)
(52.559467 18.248207 0)
(52.883693 17.954555 0)
(53.190694 17.663153 5.5656365e-21)
(53.479904 17.373042 -5.6275613e-21)
(53.750554 17.083187 1.1430189e-20)
(54.00166 16.792323 1.1643914e-20)
(54.232015 16.499228 -2.4609417e-24)
(54.440292 16.202635 0)
(54.624936 15.900861 -1.2625137e-20)
(54.784207 15.592272 0)
(54.91624 15.275474 2.0524194e-20)
(55.018926 14.948708 7.2724669e-25)
(55.090201 14.608219 -1.171482e-24)
(55.128593 14.256721 4.0248641e-20)
(55.133027 13.890673 -3.4519572e-20)
(55.101427 13.507509 -3.7211199e-20)
(55.035414 13.110534 0)
(54.937439 12.699823 0)
(54.811122 12.278162 0)
(54.662112 11.849664 -3.8228411e-20)
(54.498661 11.420166 -6.8755037e-20)
(54.332837 10.998575 -1.4744047e-20)
(54.180581 10.597584 -4.6853322e-20)
(54.057104 10.229926 0)
(53.968672 9.9005497 0)
(53.910236 9.6041465 6.7523088e-20)
(53.871484 9.3312123 0)
(53.843324 9.0738601 -8.4966555e-20)
(53.820046 8.8272724 1.6970879e-20)
(53.798772 8.5889157 1.6930538e-20)
(53.778157 8.357543 5.0592532e-20)
(53.757611 8.1325141 -1.3422396e-19)
(53.736859 7.9134111 1.334257e-19)
(53.715811 7.6999528 1.15935e-19)
(53.694521 7.4919141 1.6434422e-20)
(53.67291 7.2891013 1.4665414e-19)
(53.650989 7.0913157 1.2916673e-19)
(53.628797 6.8983749 -1.5991791e-20)
(53.606298 6.7101325 -1.2655112e-19)
(53.583548 6.5264098 2.5031811e-19)
(53.56057 6.3470741 1.3918026e-19)
(53.537378 6.1719874 -1.5277783e-20)
(53.514003 6.001006 2.5647757e-19)
(53.490475 5.8340093 3.745033e-25)
(53.466831 5.6708756 8.8155189e-20)
(53.443071 5.511482 1.3042081e-19)
(53.419239 5.3557215 0)
(53.395387 5.2034777 0)
(53.371501 5.0546581 0)
(53.347615 4.9091474 0)
(53.323782 4.7668573 0)
(53.299999 4.6276882 0)
(53.276285 4.4915557 2.020739e-19)
(53.252682 4.358355 6.4139606e-21)
(53.2292 4.2280187 2.0192027e-19)
(53.205866 4.100447 0)
(53.182697 3.9755677 1.9525362e-19)
(53.159715 3.8532923 3.5848402e-24)
(53.136943 3.7335481 5.8992083e-21)
(53.114391 3.6162539 -5.7982867e-21)
(53.092082 3.5013356 -1.8805011e-19)
(53.070032 3.3887192 1.1199035e-20)
(53.048247 3.2783288 -1.1000596e-20)
(53.026744 3.1700996 1.0809666e-20)
(53.005535 3.0639511 -1.6989398e-19)
(52.98463 2.9598256 2.3272636e-24)
(52.964046 2.8576463 -5.121254e-21)
(52.943795 2.7573501 3.1683577e-19)
(52.923892 2.6588737 3.2098656e-19)
(52.904346 2.5621421 0)
(52.885173 2.4671044 3.0464698e-19)
(52.866386 2.3736779 2.9440887e-19)
(52.847991 2.2818146 4.5903545e-21)
(52.830006 2.1914366 0)
(52.81244 2.1024873 -4.4194038e-21)
(52.795302 2.0148962 -2.7327518e-19)
(52.778607 1.9286038 0)
(52.762363 1.8435397 -2.7155177e-19)
(52.746568 1.7596338 8.1971135e-21)
(52.731237 1.6768269 -5.2294281e-19)
(52.716378 1.595043 3.9456172e-21)
(52.702011 1.5142134 -2.4779173e-19)
(52.68815 1.4342635 -2.4311679e-19)
(52.67481 1.3551201 -4.7722395e-19)
(52.662002 1.2767054 0)
(52.649737 1.1989401 0)
(52.638028 1.1217367 4.4884669e-19)
(52.626892 1.0450116 4.4377034e-19)
(52.616346 0.96866901 4.3530939e-19)
(52.606408 0.8926135 4.2203872e-19)
(52.597083 0.81674798 -4.1559448e-19)
(52.588393 0.74095059 1.5982673e-21)
(52.580328 0.66514521 -7.8358309e-22)
(52.572963 0.58914595 -7.8737061e-19)
(52.566254 0.51295233 -7.5417073e-22)
(52.560358 0.43618359 -3.7867161e-19)
(52.555116 0.35912337 7.4249639e-19)
(52.550875 0.28087909 3.6440346e-19)
(52.54736 0.20247553 7.1399391e-19)
(52.544987 0.12182278 3.4980032e-19)
(52.543281 0.041657337 3.3616865e-19)
(37.134374 26.683954 0)
(37.991671 26.347994 -3.8675325e-21)
(38.829867 26.054598 1.506609e-20)
(39.645869 25.751512 -1.1012632e-20)
(40.43717 25.434754 7.163014e-21)
(41.202416 25.107125 -6.9925622e-21)
(41.941277 24.77208 -6.8329801e-21)
(42.654039 24.432173 1.3364287e-20)
(43.341403 24.089485 -6.5429124e-21)
(44.004361 23.745784 6.4105236e-21)
(44.644083 23.402505 1.8860222e-20)
(45.261815 23.060742 -1.8516771e-20)
(45.858776 22.721255 1.8198878e-20)
(46.436057 22.384515 -5.9693139e-21)
(46.99455 22.050761 0)
(47.534901 21.720085 0)
(48.057507 21.392512 1.2155552e-24)
(48.562552 21.068073 5.6605435e-21)
(49.050068 20.746845 5.6028554e-21)
(49.52002 20.428964 5.5539472e-21)
(49.972382 20.114594 5.5151319e-21)
(50.407197 19.803871 5.486748e-21)
(50.824566 19.496852 -1.0938143e-20)
(51.224603 19.19347 1.6377636e-20)
(51.607394 18.893509 5.4628874e-21)
(51.972944 18.596601 5.4764896e-21)
(52.321142 18.302232 0)
(52.651728 18.009754 0)
(52.964275 17.718392 1.6829204e-20)
(53.258176 17.427254 -1.706265e-20)
(53.532623 17.135363 0)
(53.786614 16.841438 5.911412e-21)
(54.01891 16.544376 1.8171126e-20)
(54.228153 16.242914 0)
(54.412782 15.935248 -6.459289e-21)
(54.571074 15.61989 -6.7067135e-25)
(54.701135 15.295505 2.1117499e-20)
(54.800797 14.96024 2.2251556e-20)
(54.868679 14.610045 -7.8391089e-21)
(54.903114 14.249908 5.1896562e-24)
(54.903272 13.873116 -5.3311047e-24)
(54.867573 13.48027 3.8680671e-20)
(54.798532 13.074152 0)
(54.699031 12.655423 -1.1296103e-20)
(54.573338 12.22745 6.1096559e-20)
(54.427887 11.794929 1.3191805e-20)
(54.272127 11.364728 7.0001809e-25)
(54.119586 10.947273 -1.5136251e-20)
(53.986439 10.55594 7.9571735e-20)
(53.884998 10.201132 6.3095186e-25)
(53.816756 9.883508 -1.6762442e-20)
(53.773865 9.5952777 -6.7649494e-20)
(53.746211 9.3271957 6.7867978e-20)
(53.72615 9.0725874 6.787119e-20)
(53.709256 8.8276275 1.3547568e-19)
(53.693444 8.5903489 0)
(53.677762 8.3597802 -6.7201751e-20)
(53.661795 8.1354069 0)
(53.645346 7.9168515 -2.6558802e-19)
(53.628366 7.7038656 -1.3182284e-19)
(53.610943 7.4962304 -1.6343553e-20)
(53.593 7.2937605 1.6198277e-20)
(53.574565 7.0962682 -1.2834803e-19)
(53.555692 6.9035685 1.4292258e-19)
(53.53635 6.715528 -3.1419557e-20)
(53.516608 6.5319678 -1.0872316e-19)
(53.496495 6.3527603 -1.2278764e-19)
(53.476036 6.1777729 0)
(53.455265 6.0068619 -1.0476776e-19)
(53.434221 5.8399118 -1.3293466e-19)
(53.412948 5.6768026 0)
(53.391449 5.5174123 -1.2930498e-19)
(53.369775 5.3616392 2.8324932e-20)
(53.347985 5.2093652 -1.3955712e-20)
(53.326066 5.0605015 0)
(53.304058 4.9149344 -2.1663527e-19)
(53.282021 4.7725764 -1.3330728e-20)
(53.259952 4.6333288 1.3121483e-20)
(53.237875 4.4971103 -2.0660371e-19)
(53.215836 4.3638143 2.0962995e-19)
(53.193849 4.2333772 4.4350814e-24)
(53.171943 4.1056982 -1.2290833e-20)
(53.150137 3.9807069 1.9936143e-19)
(53.128458 3.8583151 -1.9010971e-19)
(53.106931 3.7384509 0)
(53.085569 3.6210335 1.8367204e-19)
(53.064395 3.5059899 1.7485226e-19)
(53.04343 3.393246 5.5421469e-21)
(53.022681 3.2827264 -1.7423882e-19)
(53.002167 3.1743675 1.6581763e-19)
(52.981904 3.0680877 1.7863359e-19)
(52.961902 2.9638312 -1.7028499e-19)
(52.942179 2.8615205 -5.0676432e-21)