/*--------------------------------*- C++ -*----------------------------------*\
| =========                 |                                                 |
| \\      /  F ield         | OpenFOAM: The Open Source CFD Toolbox           |
|  \\    /   O peration     | Version:  2406                                  |
|   \\  /    A nd           | Website:  www.openfoam.com                      |
|    \\/     M anipulation  |                                                 |
\*---------------------------------------------------------------------------*/
FoamFile
{
    version     2.0;
    format      ascii;
    arch        "LSB;label=32;scalar=64";
    class       volScalarField;
    location    "0.04";
    object      nut;
}
// * * * * * * * * * * * * * * * * * * * * * * * * * * * * * * * * * * * * * //

dimensions      [0 2 -1 0 0 0 0];

internalField   nonuniform List<scalar> 
8260
(
0.033360583
0.037862021
0.043142492
0.049114988
0.055638967
0.062564247
0.06970336
0.076805982
0.083534817
0.089409059
0.093751203
0.095630832
0.093791833
0.086668309
0.072563434
0.050670361
0.02683991
0.012526392
0.008093106
0.0066636447
0.0058824137
0.0053920105
0.0049902796
0.0047257283
0.0045458807
0.0044029554
0.0042962735
0.0042182999
0.0041650263
0.0041302401
0.0041124819
0.039437765
0.044066763
0.049150405
0.054750722
0.06082686
0.067265515
0.073890092
0.080449934
0.086602077
0.091858738
0.095518366
0.0966319
0.093928329
0.085850854
0.070751859
0.048268765
0.024546135
0.011791655
0.0078799456
0.0065788574
0.0058361801
0.005362055
0.0049711539
0.0047152613
0.004539833
0.0043991992
0.004293738
0.0042166642
0.0041639756
0.0041295621
0.0041120306
0.046414139
0.050866683
0.055699147
0.060942589
0.066570135
0.072490896
0.078543864
0.084485258
0.089968411
0.094495977
0.097353453
0.097571821
0.093866181
0.084696483
0.068494616
0.045353762
0.022278352
0.011032765
0.0077412859
0.0065360102
0.0058116835
0.0053459518
0.0049609486
0.0047097152
0.0045366258
0.0043972102
0.0042923294
0.0042156574
0.0041631818
0.0041289541
0.0041115347
0.054371495
0.058463739
0.062926916
0.067741401
0.072866759
0.078212532
0.083623009
0.088858018
0.093567312
0.097244017
0.099163268
0.098338429
0.093473657
0.083056129
0.065638597
0.041855844
0.0199309
0.010369311
0.0076062132
0.0064699099
0.0057704672
0.0053176879
0.0049426946
0.0046995621
0.0045306013
0.004393457
0.0042896529
0.0042138534
0.0041619643
0.0041281356
0.0041109701
0.063304276
0.066898774
0.070887927
0.075176005
0.079710889
0.084395126
0.089069672
0.093491567
0.09730412
0.099990565
0.10081545
0.098777415
0.092575293
0.080738289
0.061998068
0.03770272
0.017558938
0.0097311079
0.0074651489
0.0064096418
0.0057345957
0.0052927873
0.0049269331
0.0046909196
0.0045254329
0.0043902568
0.0042873717
0.0042122894
0.0041608057
0.0041272977
0.0041103267
0.073042715
0.076081846
0.079501005
0.083162986
0.087006012
0.090924028
0.094750334
0.098234164
0.10100884
0.10254615
0.10209974
0.098656488
0.090919645
0.077482264
0.057341499
0.032860655
0.015437722
0.0091450322
0.0073267181
0.0063361076
0.0056884136
0.0052594623
0.0049055081
0.0046789586
0.0045181665
0.0043857111
0.0042841268
0.0042100973
0.0041592893
0.0041262643
0.0041095925
0.083282916
0.08573238
0.088507555
0.091455835
0.094507613
0.09754857
0.10040286
0.1028093
0.10438887
0.10460043
0.1026868
0.097627135
0.08814622
0.072933468
0.051391905
0.027405808
0.013437455
0.0086187881
0.0071829819
0.0062619878
0.005643484
0.0052259873
0.0048844652
0.0046672757
0.0045109282
0.0043812012
0.0042809067
0.0042079234
0.0041577127
0.0041251491
0.0041087555
0.093523769
0.095357379
0.097429717
0.099589299
0.10175821
0.10381317
0.10556818
0.10675025
0.10696693
0.10566383
0.10207405
0.095175352
0.083745772
0.066620572
0.04386384
0.021642766
0.011615194
0.0082140991
0.0070401158
0.0061769851
0.0055901996
0.0051848085
0.0048585285
0.004652599
0.0045017163
0.0043754079
0.0042767693
0.0042051352
0.0041557708
0.0041238191
0.0041078017
0.10296833
0.10416406
0.10548464
0.10679114
0.1079954
0.10896318
0.10949662
0.10930949
0.10799537
0.10498771
0.099513312
0.090558345
0.077015235
0.057951246
0.034621825
0.016929048
0.010112726
0.0078967007
0.0068874508
0.0060880022
0.0055356983
0.0051416648
0.0048320468
0.0046373425
0.004491934
0.0043692454
0.0042723844
0.0042021973
0.0041536722
0.0041223487
0.004106716
0.11036891
0.11091633
0.11144683
0.1118489
0.11202164
0.11181744
0.11102377
0.1093391
0.1063433
0.10146159
0.093922536
0.082733836
0.067020429
0.046301961
0.024198084
0.013218138
0.008962479
0.0075982594
0.0067290717
0.0059879289
0.005471874
0.0050912332
0.0048010821
0.0046189003
0.0044799805
0.0043616264
0.0042670002
0.0041985766
0.0041511578
0.0041206186
0.00410548
0.11385012
0.11375113
0.11347674
0.11294756
0.11204808
0.11061568
0.10842094
0.10514626
0.10036161
0.093495618
0.083799728
0.070310581
0.052673955
0.0314162
0.016659364
0.010567541
0.0083073747
0.0073424829
0.0065558233
0.0058818718
0.005403945
0.0050387437
0.004769425
0.0045993037
0.004466944
0.0043531726
0.0042611267
0.0041946549
0.0041483977
0.0041186786
0.0041040695
0.11066819
0.10991393
0.10885541
0.10741511
0.10545816
0.10280181
0.099197521
0.094315593
0.087731817
0.078913663
0.067205038
0.051589306
0.033217678
0.019221951
0.012007127
0.0088996839
0.0079121624
0.0070362555
0.0063695905
0.0057596404
0.005327162
0.0049797438
0.004733625
0.0045765957
0.0044514018
0.0043428838
0.0042540914
0.0041899491
0.0041451632
0.0041164089
0.0041021231
0.096981828
0.095683221
0.093931947
0.091650792
0.08869847
0.084880202
0.079931251
0.073535831
0.065338968
0.054978905
0.042382678
0.030106474
0.019433123
0.01256271
0.0093560149
0.0082295092
0.0074073012
0.0067626947
0.006160306
0.0056344719
0.0052402172
0.0049176283
0.0046977041
0.0045528211
0.0044342641
0.0043313776
0.0042462801
0.0041847971
0.0041416243
0.0041138529
0.0040997586
0.068254728
0.066442253
0.06422619
0.061639079
0.058554555
0.054816009
0.050260966
0.044828393
0.038490628
0.031312865
0.023711688
0.016812789
0.011911105
0.0093528697
0.0082167729
0.0075827093
0.0070621219
0.0064073986
0.0059303085
0.0054833909
0.0051559664
0.0048475034
0.004656479
0.004525452
0.0044140376
0.0043179937
0.004236979
0.0041787353
0.0041375576
0.0041109063
0.0040971447
0.038468203
0.037317109
0.035895456
0.034204004
0.032125229
0.02960054
0.026790577
0.023670636
0.020255211
0.016638217
0.013109718
0.010292945
0.0086841388
0.0079550806
0.0077224876
0.0070986441
0.0064943917
0.006109126
0.0056958229
0.005336354
0.0050466725
0.0047764368
0.0046169275
0.0044952763
0.0043920816
0.0043032716
0.0042265361
0.0041721205
0.0041331188
0.0041076363
0.0040943431
0.019059277
0.018650005
0.01804418
0.01727501
0.016317215
0.015169886
0.01389065
0.012512421
0.01108237
0.0097030958
0.008472437
0.0076798717
0.0073299358
0.007431863
0.0069036026
0.006463778
0.0061450471
0.0057361937
0.0054153408
0.0051598638
0.0049462437
0.0047054246
0.0045681581
0.0044610303
0.0043681141
0.004285801
0.0042142643
0.004164618
0.004128075
0.0041039425
0.0040914694
0.010118749
0.010020766
0.0098179024
0.0095336622
0.0091808948
0.0087797
0.0083533244
0.0078997645
0.007407774
0.0070356672
0.0068684225
0.0067701691
0.0068310144
0.0064599384
0.0063783694
0.0061259899
0.0056332768
0.0054608669
0.0052070409
0.0050133235
0.0048232216
0.004630014
0.0045232052
0.004425606
0.0043408143
0.0042665746
0.004201495
0.0041565627
0.0041225733
0.004099889
0.0040879624
0.0068374563
0.0068140863
0.0067516606
0.0066641391
0.0065520248
0.0064341467
0.006334848
0.0062444766
0.0061978733
0.0061960521
0.0062674528
0.0061773601
0.0058407006
0.0057453674
0.0056403068
0.0054496945
0.005320833
0.0051325925
0.0049806151
0.0048256581
0.0047126472
0.0045699615
0.0044716723
0.0043859417
0.00431108
0.0042457304
0.0041868915
0.0041478836
0.0041163781
0.0040953655
0.0040841809
0.0057641048
0.0057264228
0.005698367
0.0056831453
0.0056803303
0.0056840876
0.0056995086
0.0056747541
0.0056494847
0.0056210841
0.0055215966
0.0054388479
0.0054635786
0.0052973237
0.0052067062
0.0052053601
0.0050589994
0.0049701228
0.0048011946
0.004716952
0.0046161526
0.0044996672
0.0044261855
0.0043496301
0.00427913
0.0042231482
0.0041733701
0.0041384981
0.0041096884
0.0040904988
0.0040800133
0.0052838336
0.005281305
0.0052753387
0.0052699703
0.0052798101
0.0052945131
0.005280706
0.0052680635
0.0052280642
0.0051396811
0.0051009446
0.0050719623
0.0049740769
0.0049889588
0.0049300208
0.0048569317
0.0048355433
0.0047409332
0.004626693
0.0045849362
0.0045194975
0.0044526679
0.0043805121
0.00430435
0.0042459638
0.0042013043
0.0041580073
0.0041285175
0.0041023614
0.004085212
0.0040754422
0.004933522
0.0049306698
0.0049246581
0.0049094278
0.0048828641
0.0048444612
0.0048414528
0.0048351569
0.0048258609
0.0048217901
0.0048179599
0.0048137882
0.0047618043
0.0047600532
0.0047630011
0.0046797241
0.0046076179
0.0045623462
0.0044838955
0.0044683696
0.0044508565
0.0043831768
0.0043330129
0.0042685516
0.0042146449
0.004176893
0.0041436247
0.0041177418
0.0040948402
0.0040795329
0.0040708074
0.0046020634
0.0046032504
0.0046019992
0.0045985064
0.0045955842
0.0046018671
0.0046096111
0.0046086716
0.004603742
0.0045902857
0.0045755504
0.00454789
0.0045687892
0.0045079026
0.004474605
0.0044786974
0.0044908147
0.0044229695
0.0044123742
0.0043533742
0.0043330166
0.004326948
0.0042640926
0.0042245853
0.004183962
0.0041539614
0.0041261519
0.0041067464
0.0040873378
0.0040734271
0.00406572
0.0044256471
0.004426607
0.0044253408
0.0044222595
0.0044165488
0.0044069366
0.0043942869
0.0043842797
0.004380233
0.0043767938
0.0043729179
0.0043772208
0.004356759
0.0043729279
0.0043540193
0.0043578601
0.0043271036
0.0043410686
0.0043464987
0.0042932122
0.0042507599
0.0042321391
0.0042153755
0.0041828168
0.0041538237
0.0041314062
0.0041136982
0.0040946813
0.0040794011
0.0040673149
0.0040610537
0.0042649203
0.0042658775
0.0042654212
0.0042638835
0.0042619961
0.0042600755
0.0042585151
0.0042602153
0.0042618738
0.0042601968
0.0042551861
0.0042450925
0.004242937
0.0042334073
0.0042316459
0.0042233346
0.0042139989
0.0042126122
0.0042105047
0.0042097587
0.0041797875
0.0041801292
0.0041658998
0.004142072
0.0041280441
0.0041138204
0.0040987783
0.0040832529
0.0040722132
0.0040614023
0.0040559171
0.0041873509
0.0041887077
0.0041886832
0.0041877384
0.0041860763
0.0041837429
0.0041803712
0.0041755381
0.0041715943
0.0041696285
0.0041676436
0.0041657688
0.0041642649
0.0041646604
0.0041692999
0.0041622507
0.0041613437
0.0041555146
0.0041534388
0.0041357397
0.0041427215
0.0041316378
0.0041315296
0.0041215442
0.0041081081
0.0040967346
0.0040898877
0.0040754954
0.0040645904
0.0040559418
0.004051024
0.004117298
0.0041180388
0.0041180766
0.0041177881
0.0041174995
0.0041173647
0.004117434
0.0041179283
0.0041203892
0.0041219855
0.0041228405
0.0041229679
0.0041225722
0.0041241684
0.0041249381
0.0041257179
0.0041224382
0.0041094912
0.004113852
0.0041061101
0.0041054541
0.0041074608
0.0041051575
0.0041052476
0.0040964155
0.0040877232
0.0040789879
0.004067015
0.0040583023
0.0040506983
0.0040460764
0.0040845815
0.0040853012
0.0040855529
0.0040855345
0.0040853948
0.0040851781
0.0040848815
0.0040844036
0.0040839515
0.0040844069
0.0040862359
0.004089167
0.0040939672
0.004097946
0.0041022
0.0040998932
0.0041005036
0.0040919496
0.0040887989
0.0040946667
0.004091612
0.0040932206
0.004090404
0.0040886763
0.0040874666
0.0040781436
0.0040684543
0.0040613952
0.004052015
0.0040454148
0.0040422112
0.0040557116
0.0040560858
0.0040563202
0.004056555
0.0040569788
0.0040575711
0.0040582748
0.0040591938
0.0040605123
0.0040631369
0.0040659179
0.0040685131
0.004069936
0.0040700446
0.0040680507
0.0040684635
0.0040690744
0.0040756159
0.0040764227
0.0040787277
0.0040834465
0.0040773863
0.0040763898
0.0040698492
0.0040681894
0.0040641325
0.0040572024
0.0040518475
0.004046429
0.0040422809
0.0040403315
0.0040454739
0.0040457531
0.0040459476
0.0040461301
0.0040463525
0.0040466254
0.0040469477
0.0040473058
0.0040476233
0.004048049
0.0040488307
0.0040498735
0.0040510978
0.0040518134
0.0040518705
0.0040526208
0.0040537556
0.0040538419
0.0040552899
0.0040550196
0.0040564475
0.004055156
0.0040548903
0.004055113
0.0040534542
0.0040528591
0.0040502656
0.0040468478
0.0040434311
0.0040401152
0.0040368909
0.0040407266
0.0040408707
0.0040409856
0.0040411233
0.0040413016
0.0040415271
0.0040418009
0.0040421288
0.0040425014
0.0040428151
0.0040432323
0.0040439617
0.0040450686
0.0040455203
0.0040454001
0.0040454663
0.0040459326
0.004046124
0.0040468787
0.0040469909
0.0040478787
0.0040479784
0.0040474579
0.0040476527
0.0040478481
0.0040471303
0.0040462364
0.0040444353
0.0040399845
0.0040369486
0.0040370004
0.004035487
0.0040355912
0.004035743
0.0040359432
0.0040362005
0.0040365253
0.004036928
0.0040374184
0.0040380049
0.0040386973
0.0040394919
0.0040405569
0.0040417694
0.0040419407
0.004041819
0.0040418327
0.0040420649
0.0040422507
0.0040426946
0.0040433102
0.0040440048
0.0040442529
0.0040441721
0.0040443937
0.0040446461
0.0040438951
0.0040431428
0.0040411913
0.0040398602
0.0040392723
0.0040380043
0.00071178564
0.0015430341
0.0031083116
0.0054734909
0.0086148747
0.012607923
0.01753342
0.023435507
0.030412361
0.03797884
0.046275808
0.054926179
0.063270078
0.070275549
0.074394064
0.073427799
0.064668902
0.047241201
0.026799499
0.012942417
0.0076788286
0.0060907422
0.005382342
0.0049298899
0.0046546303
0.0044701907
0.0043441062
0.0042535399
0.0041909831
0.0041499255
0.0041287102
0.0017393317
0.0035313922
0.005928133
0.0087938308
0.012291989
0.016533419
0.02157469
0.027687637
0.03446091
0.041970975
0.050097217
0.058408546
0.066201875
0.072393879
0.075388089
0.072965236
0.062515943
0.04386444
0.023620108
0.011678563
0.0072640899
0.0059664112
0.0053284729
0.0049013716
0.0046405343
0.0044622313
0.0043393563
0.0042507309
0.0041893447
0.0041489603
0.0041282572
0.0032569344
0.0052256184
0.0076506949
0.010684279
0.014450388
0.019030109
0.024514237
0.030810624
0.037768169
0.045387705
0.053442173
0.06147629
0.068756401
0.074158835
0.076050776
0.072211251
0.060181891
0.040621147
0.021159647
0.010460982
0.0069630303
0.0059116732
0.0053036801
0.0048880381
0.0046339838
0.0044584705
0.0043370136
0.004249276
0.0041882902
0.0041481543
0.0041276956
0.0047718939
0.0069254944
0.0096476068
0.013015611
0.017068498
0.021905897
0.027620431
0.03395416
0.041004856
0.048639786
0.056567218
0.064293307
0.071042003
0.075645992
0.076439566
0.071214326
0.057705833
0.037524349
0.019007572
0.0097563963
0.0067974786
0.0058438162
0.0052656796
0.0048670243
0.0046234436
0.0044523451
0.0043331734
0.0042468894
0.0041868228
0.0041472346
0.0041270797
0.0062405287
0.0086967579
0.011715553
0.015340522
0.019649614
0.024750543
0.030531616
0.037013759
0.044150333
0.051761711
0.059524454
0.066910864
0.073103925
0.076895306
0.076591787
0.070009192
0.055125123
0.034551872
0.017101737
0.0089984167
0.0066238953
0.0057951131
0.005240451
0.0048535005
0.0046167293
0.0044483808
0.0043306416
0.0042452612
0.0041856864
0.0041464032
0.0041264432
0.0078060017
0.010518662
0.013770295
0.017624808
0.022218938
0.027499232
0.033427109
0.040035069
0.047217905
0.054768023
0.062333294
0.069351763
0.074967231
0.077933959
0.076536818
0.068622693
0.052478697
0.031708865
0.015432589
0.0085203845
0.0065105608
0.0057455716
0.005210167
0.0048367283
0.0046081862
0.0044433036
0.0043273822
0.0042431646
0.0041843339
0.0041455105
0.004125795
0.009325583
0.01228013
0.015783699
0.019918175
0.024737293
0.030180012
0.036279613
0.042993095
0.050195288
0.057657367
0.064999857
0.071627932
0.07664901
0.078783889
0.076300738
0.067089692
0.049803192
0.029037807
0.014010099
0.008051971
0.0064035807
0.0057041674
0.0051865334
0.0048241971
0.0046018183
0.0044394642
0.0043248709
0.0042414887
0.0041831671
0.0041446673
0.0041251407
0.010798679
0.014020901
0.017788126
0.022213054
0.027208299
0.03283441
0.039079692
0.045874505
0.053074105
0.060427005
0.067526919
0.073747889
0.078163774
0.079465558
0.075909244
0.065444338
0.047130704
0.026573798
0.012834329
0.0077360249
0.0063236072
0.0056646978
0.0051615422
0.004810633
0.0045947397
0.0044351738
0.0043220454
0.004239593
0.0041818945
0.004143793
0.0041244798
0.012271062
0.015744485
0.019779574
0.024427961
0.029625431
0.03543117
0.041807892
0.048667717
0.055847523
0.063074431
0.069916905
0.07571977
0.07952604
0.080000302
0.075394568
0.063718992
0.044515418
0.024345212
0.011898326
0.0074729391
0.0062507465
0.0056297229
0.0051403892
0.0047996656
0.0045889689
0.0044316332
0.0043196713
0.0042379418
0.0041807302
0.0041429476
0.0041238141
0.01369478
0.017423949
0.02173119
0.026574215
0.031983624
0.037960771
0.044455145
0.051365016
0.058510356
0.065598164
0.072173112
0.077552604
0.080751363
0.080410562
0.074789641
0.061954533
0.041979446
0.022366338
0.01110332
0.0072871577
0.0061911323
0.0055971654
0.0051194781
0.0047887155
0.0045830465
0.0044279781
0.0043171981
0.0042362024
0.0041795209
0.0041420879
0.0041231429
0.015105297
0.019082646
0.023624187
0.02867046
0.034282471
0.040415469
0.047013043
0.053959484
0.061058452
0.067997868
0.074300044
0.079256677
0.081856538
0.0807206
0.074122119
0.060185528
0.0395568
0.020644303
0.010485519
0.0071341162
0.0061368307
0.0055677439
0.0051011118
0.0047795094
0.0045779834
0.0044248171
0.0043150196
0.0042346169
0.0041783801
0.0041412461
0.0041224672
0.016476587
0.020703359
0.025451209
0.030711296
0.036510775
0.04278459
0.04947329
0.056444885
0.063488593
0.070274259
0.076303345
0.080843365
0.082859165
0.080958933
0.07342111
0.058446014
0.037284259
0.019178659
0.0099815568
0.0070182825
0.0060905502
0.005540701
0.0050836698
0.004770774
0.0045730483
0.0044217103
0.0043128515
0.004233014
0.0041772278
0.0041403995
0.0041217868
0.017823667
0.022277639
0.027227452
0.032688016
0.038649295
0.04505932
0.051828336
0.058815688
0.065798332
0.072428881
0.078189495
0.082324963
0.083779369
0.081145976
0.072712747
0.056770012
0.035188151
0.017954299
0.0096010971
0.0069246012
0.0060487483
0.0055162013
0.0050681746
0.0047633001
0.0045687447
0.0044189641
0.0043108943
0.0042315197
0.0041761239
0.0041395653
0.0041211019
0.019142652
0.02380053
0.028948266
0.034591851
0.040693665
0.047233941
0.054070451
0.061066511
0.067986006
0.074465173
0.079967047
0.083718573
0.084635794
0.081302638
0.072024652
0.055181963
0.033289044
0.01695607
0.0093167881
0.00685257
0.0060125631
0.0054939512
0.0050538997
0.0047564455
0.0045647105
0.0044163575
0.0043090017
0.0042300467
0.0041750273
0.0041387313
0.0041204128
0.020437128
0.025275829
0.030607314
0.036418343
0.042665822
0.049280408
0.056195003
0.063196004
0.070052829
0.076390894
0.081648242
0.085036018
0.085447049
0.081460278
0.071394573
0.053699205
0.031600077
0.016168147
0.0091271925
0.0067959621
0.0059805451
0.0054739862
0.0050413005
0.0047505525
0.0045611895
0.0044140437
0.0043072743
0.0042286606
0.0041739704
0.0041379078
0.0041197186
0.021693722
0.026703154
0.032199733
0.03815858
0.044531558
0.051242586
0.058177933
0.065198238
0.071999483
0.078202091
0.083234584
0.086285912
0.08623363
0.081645847
0.070856271
0.05234857
0.030130196
0.015580436
0.0089849168
0.0067506886
0.0059531304
0.0054561965
0.0050300515
0.0047452907
0.0045579999
0.0044119131
0.0043056371
0.0042273171
0.0041729331
0.004137089
0.0041190179
0.022860027
0.028039511
0.033694084
0.039790815
0.046275894
0.053069899
0.060047484
0.067039393
0.073790229
0.079890922
0.084725205
0.087481597
0.087013325
0.081883956
0.070440348
0.051183543
0.028920365
0.015084981
0.0088396118
0.0067117787
0.0059297595
0.0054406031
0.0050203437
0.0047407923
0.0045552561
0.0044100413
0.0043041398
0.0042260502
0.0041719308
0.0041362795
0.0041183107
0.023909057
0.029226088
0.035018375
0.041242108
0.047838672
0.054718379
0.061752627
0.068755903
0.075453832
0.08143523
0.086117811
0.088632567
0.087802317
0.082196695
0.070173257
0.050248572
0.027951963
0.01467091
0.0087162592
0.0066817487
0.00591054
0.00542717
0.0050120181
0.0047368898
0.0045528638
0.0044083751
0.0043027448
0.0042248383
0.0041709533
0.0041354767
0.0041175974
0.025011565
0.030389077
0.036253575
0.042558912
0.049234658
0.056184191
0.063270773
0.070298794
0.076981551
0.082897128
0.087439521
0.08972377
0.088612804
0.082603258
0.070077513
0.049575098
0.027208815
0.014322909
0.0086034289
0.0066588698
0.0058952729
0.0054159218
0.0050051439
0.0047336407
0.0045508715
0.0044069527
0.0043014781
0.0042236995
0.0041700089
0.0041346834
0.0041168782
0.0261024
0.031519126
0.03742085
0.043767642
0.050489045
0.057485291
0.06461241
0.071666341
0.078348927
0.084227285
0.088679415
0.09081612
0.089459528
0.083094433
0.070170468
0.049186435
0.026681205
0.014028726
0.0085032046
0.0066437568
0.0058840414
0.0054068831
0.0049996554
0.0047309826
0.0045492395
0.0044057524
0.004300324
0.0042226243
0.0041690925
0.0041338985
0.0041161542
0.027162263
0.032587473
0.038495852
0.044853786
0.051592837
0.058616196
0.065772429
0.072854549
0.079552193
0.085423268
0.089830723
0.091873857
0.090350702
0.08374254
0.070459771
0.049099832
0.026368908
0.013771257
0.0084109722
0.0066358376
0.0058769756
0.0054001476
0.0049956062
0.0047289658
0.0045480013
0.0044047958
0.0042992971
0.0042216212
0.004168207
0.0041331227
0.0041154257
0.028179592
0.033580689
0.039462896
0.04580251
0.052532185
0.0595685
0.066767865
0.073902159
0.08064849
0.086532649
0.090916524
0.092906474
0.091285723
0.084516779
0.070981033
0.049338578
0.026291717
0.013527552
0.0083244801
0.0066354998
0.0058743554
0.0053958058
0.0049929796
0.0047275774
0.0045471373
0.0044040686
0.0042983861
0.0042206814
0.0041673465
0.0041323536
0.0041146927
0.029162087
0.034480351
0.040287482
0.046576707
0.053306381
0.060370115
0.06760857
0.074779132
0.08155127
0.087471408
0.091889471
0.09389604
0.092261474
0.085421846
0.071722146
0.049921959
0.02643369
0.013270447
0.0082412826
0.0066376627
0.0058757279
0.0053938272
0.0049917026
0.0047267872
0.0045466077
0.0044035571
0.0042975825
0.0042198002
0.0041665066
0.0041315898
0.0041139546
0.030110271
0.035255292
0.040896522
0.047056511
0.053713677
0.060753027
0.068004047
0.07522475
0.082077668
0.088089729
0.092601698
0.094691898
0.093113635
0.086283949
0.072501518
0.050624493
0.026803863
0.012917286
0.0081713451
0.0066500967
0.0058789227
0.0053937696
0.0049914844
0.0047264363
0.0045462875
0.0044032134
0.0042968622
0.004218967
0.0041656834
0.004130832
0.0041132117
0.00072776066
0.0014903637
0.0029639707
0.0052004871
0.0081836297
0.011936961
0.016586189
0.022222295
0.028973687
0.03638231
0.044584973
0.053229278
0.061686653
0.068978227
0.073600334
0.073385359
0.065570772
0.048837322
0.028217792
0.013442436
0.0077960439
0.0061250635
0.0053975387
0.0049380648
0.0046585414
0.0044723086
0.0043456212
0.0042545608
0.0041917628
0.0041505547
0.0041289574
0.00077167866
0.0015280232
0.0029773056
0.0051497599
0.0080526876
0.011744311
0.01632262
0.021869358
0.02850348
0.035839517
0.04391798
0.052461229
0.060897988
0.068254695
0.073055601
0.073163222
0.065844382
0.049568816
0.028967904
0.013772152
0.0078710018
0.0061448943
0.0054062642
0.004942765
0.0046606111
0.0044739199
0.0043467819
0.0042553474
0.0041923507
0.0041509935
0.004129208
0.00082540257
0.0015700102
0.0029976731
0.0051292438
0.007974993
0.011592924
0.016076368
0.021511206
0.027997956
0.035228963
0.043205192
0.051672257
0.060081789
0.067497827
0.07247525
0.072909948
0.066099564
0.050313016
0.029767593
0.014131883
0.0079540284
0.0061667182
0.0054160808
0.0049482025
0.004663305
0.0044749603
0.0043476501
0.004255962
0.0041928892
0.0041514908
0.0041295265
0.00088819301
0.0016151066
0.0030170027
0.0051065619
0.0078946166
0.011438287
0.01582711
0.021149841
0.027489262
0.034609035
0.042477773
0.050860931
0.059238278
0.066707273
0.071857925
0.072623136
0.066332136
0.051070659
0.030615692
0.014529624
0.0080471746
0.0061886002
0.005424912
0.0049528628
0.0046651037
0.0044772088
0.0043491753
0.0042569682
0.0041936044
0.0041519825
0.0041299064
0.0009669861
0.0016696528
0.0030397183
0.0050851012
0.0078145334
0.01128292
0.015576321
0.02078005
0.026978102
0.033982172
0.041738064
0.050031332
0.058369145
0.065883927
0.071203326
0.072301115
0.066538701
0.051840242
0.031509067
0.014968051
0.0081519944
0.0062152887
0.0054370448
0.0049597592
0.0046689469
0.0044782554
0.0043501259
0.0042576427
0.0041942097
0.0041525245
0.0041301963
0.0010579139
0.001726631
0.003061727
0.005062042
0.0077332431
0.011126885
0.015325498
0.020412069
0.026467891
0.033352335
0.040990083
0.049187168
0.05747739
0.065029927
0.070512219
0.071943018
0.066712969
0.052615492
0.032436763
0.015454829
0.0082716199
0.0062403503
0.0054465948
0.0049648084
0.0046707901
0.0044799913
0.0043514497
0.0042585313
0.0041949245
0.0041530995
0.0041304676
0.0011750132
0.0018043369
0.0030943538
0.0050473217
0.007660109
0.010979104
0.015082995
0.020053681
0.025964126
0.032725367
0.040237511
0.048330728
0.056563579
0.064145092
0.06978291
0.071545112
0.066849167
0.053386872
0.033413702
0.015988841
0.008405077
0.006268669
0.0054577911
0.0049709831
0.004673734
0.0044818158
0.0043528334
0.0042594582
0.0041956739
0.0041537072
0.0041307942
0.0013151624
0.0018952619
0.0031357586
0.005038286
0.0075919817
0.010836105
0.01484505
0.01969958
0.025471131
0.03209611
0.039477438
0.04745939
0.055622944
0.063226668
0.069011545
0.071101203
0.066949455
0.054150855
0.034460559
0.016577639
0.0085554054
0.0062989831
0.0054694231
0.0049773787
0.004676771
0.0044836751
0.0043542811
0.0042604231
0.0041964688
0.0041543482
0.0041312954
0.0014851535
0.0020070548
0.0031951102
0.0050431015
0.007536171
0.010705236
0.014619382
0.019357293
0.024983955
0.031473601
0.03871883
0.046582464
0.054675151
0.062282272
0.068203202
0.070613359
0.067008891
0.054901176
0.03555349
0.01722562
0.0087236879
0.0063316008
0.0054813309
0.0049839239
0.0046800048
0.0044856646
0.0043557926
0.0042614267
0.0041972976
0.0041550211
0.0041318862
0.0016889897
0.0021505007
0.003275263
0.0050659626
0.0074974497
0.01059149
0.014410923
0.019030947
0.024506341
0.030861642
0.037966598
0.045704692
0.053717313
0.061314981
0.06735936
0.070080381
0.067022802
0.055638221
0.036691532
0.017937594
0.0089134998
0.006366635
0.0054937243
0.0049907731
0.0046832692
0.0044876158
0.004357358
0.0042624676
0.0041981834
0.0041557269
0.0041325419
0.0019252028
0.0023247255
0.0033800225
0.0051106286
0.0074804125
0.010500238
0.014225506
0.018727798
0.024062619
0.030272277
0.03722761
0.044831229
0.052747705
0.060328035
0.066482079
0.069501798
0.06698688
0.056350779
0.037874646
0.018719827
0.0091268323
0.0064046484
0.0055063206
0.004997557
0.004686859
0.0044898176
0.0043590121
0.0042635536
0.0041990993
0.0041564629
0.0041331308
0.0021944518
0.0025412215
0.0035298509
0.0051923386
0.0074964264
0.010440488
0.014071041
0.018455249
0.023651114
0.029709205
0.036508087
0.043968328
0.051777464
0.059325912
0.065574097
0.068877835
0.06689742
0.057021675
0.039062829
0.01957054
0.0093667563
0.0064456178
0.0055194222
0.0050049723
0.0046903412
0.0044918198
0.0043606748
0.0042646668
0.0042000843
0.0041572379
0.0041337211
0.0024890787
0.0027956585
0.0037200067
0.0053147385
0.0075521308
0.010420111
0.01395561
0.018221573
0.023276144
0.029160719
0.03581165
0.043122437
0.05081273
0.058313025
0.064638763
0.068209412
0.066751639
0.057644697
0.040243538
0.020493212
0.0096369841
0.0064906571
0.0055327932
0.0050117311
0.0046943273
0.0044943102
0.0043624892
0.0042658414
0.0042010916
0.0041580421
0.0041343981
0.0028024499
0.0030890359
0.0039581516
0.0054936446
0.0076625647
0.010451995
0.013891503
0.018035634
0.022947389
0.028662203
0.035156849
0.042302902
0.049860166
0.05728827
0.063679839
0.067498181
0.066547477
0.058212006
0.041427415
0.021489149
0.0099397769
0.0065391806
0.0055463324
0.0050199323
0.0046981086
0.0044963367
0.0043642077
0.004267017
0.0042021801
0.0041588913
0.0041351243
0.0031299312
0.0034247581
0.0042616822
0.0057386949
0.0078406538
0.010550064
0.013891392
0.017909908
0.022673783
0.028222577
0.034544927
0.041517399
0.048929134
0.056284345
0.062704719
0.066746861
0.066283599
0.058715757
0.042602556
0.022554823
0.010281036
0.0065940638
0.0055612424
0.0050265582
0.0047024297
0.0044991975
0.0043661972
0.0042682976
0.0042032841
0.004159757
0.0041358865
0.0034751906
0.0038057824
0.0046353682
0.0060683026
0.0081036669
0.010729821
0.013968497
0.017857227
0.02246524
0.027841101
0.033964122
0.040769576
0.048026478
0.05528954
0.061718692
0.065958959
0.06595957
0.059148296
0.043763391
0.023685732
0.010660141
0.0066523089
0.0055743572
0.0050354762
0.0047069035
0.0045013382
0.0043679279
0.004269525
0.0042044719
0.0041606765
0.004136683
0.0038671399
0.0042573709
0.0051048125
0.0065106252
0.008473538
0.011008939
0.014137058
0.017890134
0.022333016
0.02753034
0.033460973
0.040076797
0.047160241
0.054304791
0.060726833
0.06513876
0.065576537
0.05950383
0.04490206
0.024881456
0.011087848
0.0067213054
0.0055929783
0.0050430219
0.0047113322
0.004504543
0.004370063
0.0042709493
0.0042056773
0.0041615899
0.0041375123
0.0043525518
0.0048186508
0.0056903654
0.0070602052
0.0089583795
0.011399645
0.014409043
0.018018942
0.022287125
0.027299296
0.033032653
0.039450987
0.046340139
0.053345882
0.059735896
0.06429131
0.065137417
0.059783725
0.046019961
0.026150823
0.011558134
0.0068031074
0.0056052652
0.0050513907
0.0047172945
0.0045071532
0.0043718281
0.0042722264
0.0042069444
0.0041625726
0.0041383692
0.0049867684
0.0055164172
0.0064081753
0.0077457102
0.0095811087
0.011910563
0.014788942
0.018246978
0.022332502
0.027151402
0.032675004
0.03886203
0.045565034
0.052417919
0.058751995
0.063421542
0.064643434
0.059989292
0.04709597
0.027438973
0.012088563
0.0069023826
0.0056290406
0.0050627851
0.0047216831
0.0045103781
0.0043739661
0.0042738499
0.0042082541
0.0041635182
0.0041392505
0.0058164015
0.0063782623
0.0072705836
0.0085656975
0.010308383
0.012528932
0.015269884
0.018568777
0.022466993
0.027085208
0.032391332
0.038352703
0.044842661
0.051525037
0.057776471
0.062533432
0.064095517
0.060108935
0.048098908
0.028754131
0.01266091
0.0070020519
0.0056474484
0.0050696926
0.0047296816
0.0045141601
0.00437599
0.0042751999
0.0042095645
0.0041645635
0.0041401529
0.0068506652
0.0074030928
0.00826058
0.0094853851
0.011124704
0.013228701
0.015830479
0.018967715
0.022679392
0.027092513
0.032176928
0.037909195
0.044173478
0.050669036