/*--------------------------------*- C++ -*----------------------------------*\
| =========                 |                                                 |
| \\      /  F ield         | OpenFOAM: The Open Source CFD Toolbox           |
|  \\    /   O peration     | Version:  2406                                  |
|   \\  /    A nd           | Website:  www.openfoam.com                      |
|    \\/     M anipulation  |                                                 |
\*---------------------------------------------------------------------------*/
FoamFile
{
    version     2.0;
    format      ascii;
    arch        "LSB;label=32;scalar=64";
    class       volVectorField;
    location    "0.04";
    object      U;
}
// * * * * * * * * * * * * * * * * * * * * * * * * * * * * * * * * * * * * * //

dimensions      [0 1 -1 0 0 0 0];

internalField   nonuniform List<vector> 
8260
(
(40.215124 29.082373 0)
(41.59473 27.790365 -2.472618e-20)
(42.910604 26.498889 2.1365232e-20)
(44.184241 25.204477 -3.6545966e-20)
(45.413051 23.868191 1.5497194e-20)
(46.579398 22.508018 -2.6155256e-20)
(47.67202 21.160091 -1.0922572e-20)
(48.682371 19.857473 -1.4628299e-23)
(49.645581 18.624509 4.9153044e-21)
(50.60126 17.461567 0)
(51.493802 16.384325 4.6147947e-20)
(52.344211 15.385019 0)
(53.144494 14.444548 0)
(53.860206 13.525806 -7.078342e-20)
(54.329611 12.57109 1.8565453e-23)
(54.38936 11.487835 0)
(53.789394 9.9828884 0)
(52.902867 8.3310912 6.8079576e-19)
(52.438668 7.1755464 5.7237595e-21)
(52.146652 6.2574974 -6.9840714e-19)
(51.910616 5.4435207 -1.2712547e-18)
(51.699417 4.7082771 -1.1405208e-18)
(51.532077 4.0478247 -2.0695386e-18)
(51.406398 3.4552131 1.8491816e-18)
(51.271811 2.9031962 1.6413118e-18)
(51.146065 2.3873339 0)
(51.03442 1.9112606 2.5855129e-18)
(50.9491 1.4658686 2.2831125e-18)
(50.876533 1.0453077 4.0320009e-18)
(50.833971 0.62692882 0)
(50.803845 0.21332912 6.2594704e-18)
(39.215518 28.309566 2.4220241e-20)
(40.65515 27.140899 -1.7452576e-23)
(42.023019 26.032525 -1.8836235e-20)
(43.3539 24.889797 4.9565324e-20)
(44.649001 23.689325 0)
(45.89276 22.448155 2.4679762e-20)
(47.071338 21.196408 4.2324516e-20)
(48.17834 19.965165 2.7115357e-20)
(49.229987 18.77968 -3.0983418e-20)
(50.245636 17.646192 1.3338871e-20)
(51.201511 16.576042 -5.2301938e-20)
(52.103109 15.570134 0)
(52.939911 14.612836 0)
(53.673127 13.672255 1.4568964e-19)
(54.142892 12.66411 -1.520875e-19)
(54.170478 11.54038 1.8844324e-19)
(53.552635 9.9475421 2.6606887e-24)
(52.715765 8.3015361 -2.1404098e-20)
(52.320368 7.1677926 2.2304455e-20)
(52.061326 6.2545639 -6.6916927e-19)
(51.843902 5.4419701 -9.5588739e-21)
(51.646665 4.7066463 1.1046982e-18)
(51.490824 4.0478097 1.9870477e-18)
(51.373162 3.4555886 -3.4673624e-21)
(51.244305 2.903621 6.196554e-21)
(51.12347 2.3875242 -2.7392099e-21)
(51.015925 1.9114432 -2.48655e-18)
(50.933791 1.4660189 -2.199955e-18)
(50.863499 1.045264 -3.8927004e-18)
(50.822536 0.62651605 3.4375079e-18)
(50.793394 0.21299484 -6.0667233e-18)
(38.173776 27.26243 -2.0326822e-20)
(39.593695 26.320033 1.8245211e-20)
(41.006631 25.416503 0)
(42.401842 24.448009 -3.0157033e-20)
(43.769812 23.403164 2.6931572e-20)
(45.095637 22.299338 0)
(46.364753 21.162184 -4.1662718e-20)
(47.568194 20.019805 -9.0913326e-21)
(48.711747 18.897663 3.9619622e-20)
(49.804331 17.805741 0)
(50.832271 16.754229 4.8997257e-20)
(51.793612 15.749434 0)
(52.675291 14.779204 0)
(53.432836 13.816643 -7.4476281e-20)
(53.911123 12.758129 -5.2304785e-21)
(53.916909 11.58582 -2.0817647e-19)
(53.288101 9.8949653 2.7995865e-19)
(52.521388 8.2900087 -1.3625129e-18)
(52.193189 7.1839264 0)
(51.966042 6.2737681 6.3292485e-19)
(51.768473 5.460064 0)
(51.586557 4.7213629 -8.0709858e-21)
(51.443243 4.0613356 1.4461501e-20)
(51.334742 3.4666658 -1.2886037e-20)
(51.212822 2.9125195 -1.4591295e-18)
(51.097733 2.3941397 0)
(50.994875 1.9164082 0)
(50.916337 1.4696254 1.9876045e-21)
(50.848649 1.0476745 -1.7563036e-21)
(50.809522 0.62793021 -3.1762761e-18)
(50.781502 0.21353248 -4.2459685e-23)
(37.303305 26.076178 6.7677278e-20)
(38.6773 25.354632 -4.6720828e-20)
(40.085843 24.653901 2.9345223e-20)
(41.504453 23.872308 2.7216937e-20)
(42.91482 22.999119 -7.4800894e-20)
(44.299141 22.049118 -2.2570312e-20)
(45.640379 21.044086 2.0248103e-20)
(46.925402 20.008214 -1.8033079e-20)
(48.151546 18.965268 1.6021181e-20)
(49.320529 17.928452 0)
(50.419374 16.90857 5.114039e-20)
(51.441201 15.914086 0)
(52.369158 14.93624 -8.7426193e-20)
(53.150433 13.95245 0)
(53.634756 12.845466 -1.8290645e-19)
(53.613575 11.613523 6.9058981e-21)
(52.980667 9.8216735 4.3747057e-23)
(52.30373 8.2824817 6.5996276e-19)
(52.046987 7.1970387 -6.4550124e-19)
(51.855953 6.2882464 0)
(51.681289 5.4732121 -1.0667892e-18)
(51.517184 4.7313464 -7.4624114e-21)
(51.388703 4.0709324 6.6637501e-21)
(51.290676 3.4744033 -1.5168772e-18)
(51.176614 2.9188164 0)
(51.068132 2.3986481 0)
(50.970718 1.9198178 0)
(50.896349 1.472088 -1.8641283e-18)
(50.83169 1.0492718 0)
(50.794675 0.62867584 2.9074333e-18)
(50.767973 0.21373195 5.1303287e-18)
(36.617441 24.793446 -1.3967163e-20)
(37.924779 24.270646 0)
(39.292424 23.758869 -2.5469965e-20)
(40.696732 23.163208 2.4299202e-20)
(42.116589 22.46891 2.282352e-20)
(43.531405 21.684567 4.2286642e-20)
(44.92133 20.826518 1.9393961e-20)
(46.269159 19.913857 -1.7653747e-20)
(47.564584 18.966899 -1.5984995e-20)
(48.801747 18.000391 8.6881215e-20)
(49.966321 17.02602 -1.3165582e-20)
(51.046176 16.052492 0)
(52.019182 15.073938 1.738988e-19)
(52.821627 14.070442 -4.5561524e-24)
(53.30601 12.915315 2.1044937e-19)
(53.25171 11.60681 1.4922154e-20)
(52.625581 9.7281679 -3.2027931e-19)
(52.067856 8.2749743 6.2106041e-19)
(51.8829 7.2079466 6.3851018e-19)
(51.731357 6.3022947 2.3597924e-24)
(51.582411 5.4871988 9.6469256e-19)
(51.438399 4.7426318 8.7474187e-19)
(51.326769 4.0824674 6.087016e-21)
(51.240504 3.483881 1.3774973e-18)
(51.135445 2.9268084 1.2249138e-18)
(51.034494 2.4044671 0)
(50.943285 1.9243083 -3.7442434e-21)
(50.873628 1.4753576 1.6971131e-18)
(50.812426 1.0514718 -2.9914539e-18)
(50.77779 0.62983967 -2.6411023e-18)
(50.752588 0.21412135 5.6872177e-22)
(36.131058 23.437966 2.2997606e-20)
(37.353615 23.092393 -2.2135606e-20)
(38.652619 22.751629 -2.1925659e-20)
(40.010002 22.33137 4.2842039e-20)
(41.406106 21.813555 -4.1209838e-20)
(42.8199 21.199202 0)
(44.230051 20.497574 0)
(45.61626 19.721437 0)
(46.961974 18.88615 3.1529922e-20)
(48.253906 18.00543 3.5030141e-23)
(49.474724 17.090705 -5.3869071e-20)
(50.606433 16.149685 1.1387723e-19)
(51.620103 15.17854 -2.0726734e-19)
(52.43861 14.156801 -1.1066344e-19)
(52.913347 12.951994 2.6573569e-20)
(52.821849 11.544821 -1.5855925e-20)
(52.222461 9.6154106 1.8724734e-20)
(51.812309 8.2654245 -6.2073112e-19)
(51.698044 7.2146843 -1.729223e-20)
(51.589951 6.3133348 -4.9890103e-19)
(51.47001 5.4989661 -8.78752e-19)
(51.348665 4.7521513 -1.5893916e-18)
(51.25644 4.0930356 -1.423614e-18)
(51.183414 3.4924764 -8.147085e-25)
(51.088552 2.9343461 8.6858281e-21)
(50.996133 2.4098149 1.9590529e-18)
(50.912033 1.9285221 0)
(50.847737 1.478419 1.5320333e-18)
(50.790526 1.0535507 2.6970554e-18)
(50.75856 0.63086293 0)
(50.735095 0.21442874 0)
(35.859239 22.032675 8.7372433e-21)
(36.983543 21.84762 -3.7046243e-20)
(38.192682 21.658344 3.7559027e-20)
(39.475058 21.396288 -1.8740539e-20)
(40.815431 21.043589 -1.8459557e-20)
(42.195123 20.594643 0)
(43.59337 20.051222 0)
(44.988426 19.419005 0)
(46.359436 18.707124 -3.0734924e-20)
(47.686884 17.92568 -5.7773464e-20)
(48.948998 17.083791 0)
(50.121346 16.186705 -1.0398573e-19)
(51.166583 15.231429 1.2714539e-19)
(51.991839 14.19083 -3.5589389e-23)
(52.44226 12.932966 1.6943723e-19)
(52.312513 11.401223 3.2990427e-20)
(51.779772 9.4901908 -3.6197806e-20)
(51.535785 8.2494562 5.915159e-19)
(51.490753 7.2150102 0)
(51.429995 6.3202211 4.5264411e-19)
(51.342804 5.508232 8.0732697e-19)
(51.2467 4.7602577 1.434552e-18)
(51.176688 4.103364 -1.0009483e-20)
(51.118525 3.5009908 8.8006507e-21)
(51.035276 2.9422945 3.3223162e-23)
(50.952505 2.4154096 -1.7604553e-18)
(50.876507 1.9330761 0)
(50.818262 1.4817487 2.5407168e-23)
(50.765667 1.0558748 0)
(50.736674 0.63203484 0)
(50.715219 0.21479606 1.8867027e-18)
(35.813295 20.643728 -2.3880264e-23)
(36.826997 20.581562 -2.3309966e-20)
(37.929147 20.514306 8.0269607e-21)
(39.113706 20.385594 1.636136e-20)
(40.370535 20.177659 1.6437238e-20)
(41.684909 19.879911 0)
(43.038473 19.487342 0)
(44.410003 18.998422 0)
(45.776605 18.415191 0)
(47.114343 17.741989 -2.8492111e-20)
(48.396608 16.983249 2.7352122e-20)
(49.59203 16.139791 0)
(50.652985 15.207705 -2.6352757e-20)
(51.470384 14.140815 2.7194387e-20)
(51.875532 12.827165 -4.746521e-19)
(51.709298 11.15138 3.3365827e-20)
(51.310816 9.3582664 -3.4172147e-20)
(51.235746 8.2225077 -5.083717e-19)
(51.258825 7.205637 0)
(51.249408 6.3204833 0)
(51.199182 5.5130455 0)
(51.130898 4.7654412 2.0172877e-20)
(51.086224 4.1119866 1.1320498e-18)
(51.044673 3.5082093 5.0682658e-25)
(50.974666 2.9497279 -1.7901633e-18)
(50.902851 2.4204665 1.5689741e-18)
(50.836067 1.9374035 1.3962358e-18)
(50.784649 1.4849269 -2.4552783e-18)
(50.737421 1.0581518 0)
(50.71175 0.63313833 0)
(50.692661 0.2151193 -1.6864525e-18)
(35.980015 19.293447 -6.1730726e-21)
(36.878324 19.319978 2.619666e-20)
(37.86297 19.346253 -3.4476274e-20)
(38.934065 19.32312 -1.4303908e-20)
(40.086209 19.234417 1.4660575e-20)
(41.308902 19.066455 -2.9638573e-20)
(42.587444 18.808904 2.9620884e-20)
(43.903005 18.453832 0)
(45.232929 17.996195 0)
(46.550951 17.433277 0)
(47.826163 16.76273 0)
(49.019721 15.978745 1.0795989e-19)
(50.071241 15.073585 -1.3600935e-19)
(50.86267 13.954825 2.8126292e-20)
(51.190932 12.597702 2.4370968e-19)
(51.014748 10.784464 0)
(50.836263 9.2264661 0)
(50.910272 8.1798541 4.6004774e-19)
(51.000771 7.1819224 2.5691376e-20)
(51.046066 6.3110645 -2.287853e-20)
(51.037328 5.5117689 0)
(50.999993 4.7669679 -5.5770032e-19)
(50.983664 4.1181719 8.7207578e-25)
(50.960469 3.513877 -9.0045958e-19)
(50.905631 2.9565525 -3.3819157e-23)
(50.846387 2.4249746 -1.4152793e-18)
(50.790076 1.9415854 -1.239621e-18)
(50.746317 1.4880463 1.093983e-18)
(50.705289 1.0604615 -1.8853756e-21)
(50.683365 0.63425438 8.3168805e-22)
(50.66708 0.21544237 7.3364771e-22)
(36.33183 17.999831 0)
(37.119342 18.079399 -4.457666e-20)
(37.984721 18.171161 4.7895114e-20)
(38.933902 18.226352 0)
(39.966243 18.22824 -7.9045835e-20)
(41.076057 18.163145 2.2280716e-23)
(42.253265 18.01718 5.5198267e-20)
(43.482691 17.777542 2.7784522e-20)
(44.74357 17.432961 0)
(46.009093 16.973312 -2.3598665e-23)
(47.244896 16.388119 -6.5523626e-24)
(48.403787 15.663098 -1.6482896e-19)
(49.409247 14.780952 5.6101352e-20)
(50.136976 13.597283 5.8500543e-20)
(50.366276 12.145701 6.1903215e-20)
(50.281784 10.336398 2.4819492e-19)
(50.367462 9.0864904 -5.7223958e-20)
(50.556406 8.1152581 9.0706291e-23)
(50.715921 7.1383529 0)
(50.817803 6.2879215 -3.4557808e-19)
(50.854919 5.5018943 -5.6070709e-19)
(50.853158 4.7633666 0)
(50.867636 4.1200147 0)
(50.864546 3.5169471 7.8861812e-19)
(50.826869 2.9617277 7.1833404e-19)
(50.782103 2.4282127 1.2486675e-18)
(50.737798 1.94514 -8.6091478e-21)
(50.702622 1.4907948 3.7979889e-21)
(50.66866 1.0625664 1.719092e-18)
(50.651011 0.63522277 0)
(50.638047 0.21569565 1.3351886e-18)
(36.829748 16.756034 -3.022285e-20)
(37.506184 16.873723 3.4224787e-20)
(38.255346 17.004198 -4.275461e-20)
(39.083221 17.103964 -4.5747936e-20)
(39.989998 17.164064 1.2103527e-20)
(40.974812 17.168469 5.0563002e-20)
(42.032337 17.102496 0)
(43.151426 16.950607 -2.6743978e-20)
(44.313952 16.696323 0)
(45.493585 16.322 -4.2086616e-23)
(46.652924 15.808258 0)
(47.734853 15.129822 -5.6527035e-20)
(48.642941 14.24717 5.8312416e-20)
(49.245928 12.956575 6.0096137e-20)
(49.420694 11.427484 -2.4166793e-19)
(49.59471 9.9454918 -5.1218548e-19)
(49.883606 8.9802943 5.1468567e-20)
(50.183657 7.9723559 -4.1583666e-19)
(50.401551 7.0990115 -2.8731501e-19)
(50.565823 6.2311401 -3.632548e-20)
(50.650416 5.4698998 4.8092581e-19)
(50.689628 4.7530938 4.8354095e-19)
(50.737155 4.1153222 2.5164176e-20)
(50.75604 3.5170363 6.887601e-19)
(50.737076 2.9643276 0)
(50.708899 2.4297552 -2.2156701e-18)
(50.678468 1.9478036 -7.6369122e-21)
(50.652936 1.4930985 6.7375397e-21)
(50.62688 1.0643809 4.0230232e-23)
(50.614105 0.63600631 1.310925e-21)
(50.604997 0.21587542 -1.1852209e-18)
(37.480143 15.513024 0)
(38.036833 15.634407 0)
(38.662376 15.77307 0)
(39.359974 15.895442 0)
(40.133263 15.985694 0)
(40.983405 16.029502 -1.1008802e-19)
(41.907493 16.012481 1.0261237e-19)
(42.896524 15.917495 0)
(43.933498 15.723671 -1.0978413e-19)
(44.991274 15.406004 1.1253386e-19)
(46.027272 14.935263 5.7684612e-20)
(46.969685 14.268125 0)
(47.717049 13.321995 1.8197307e-19)
(48.178346 11.997345 -6.039176e-20)
(48.544723 10.583295 1.7022738e-19)
(48.962398 9.6730034 5.1553144e-20)
(49.423112 8.6845528 -1.8541853e-19)
(49.776295 7.8542258 -3.7058375e-19)
(50.065626 6.9825808 6.2056332e-19)
(50.281616 6.2068543 5.1726566e-19)
(50.423278 5.426524 0)
(50.507977 4.7213959 -2.5219938e-20)
(50.592137 4.1022548 2.2279876e-20)
(50.634427 3.5122376 -6.286803e-19)
(50.635097 2.9627628 0)
(50.625778 2.4288047 1.9625491e-18)
(50.611137 1.9488619 0)
(50.596597 1.494644 -5.9665333e-21)
(50.579289 1.065616 -2.689547e-18)
(50.571995 0.63641004 0)
(50.567183 0.21590195 0)
(38.134773 14.179539 0)
(38.585702 14.27686 0)
(39.100354 14.393913 0)
(39.676701 14.506916 8.8497007e-20)
(40.32049 14.593173 -1.7900768e-19)
(41.035202 14.640004 2.1682703e-19)
(41.819048 14.633761 -1.3504509e-19)
(42.662076 14.55603 2.832851e-20)
(43.544926 14.381847 1.4717744e-19)
(44.438188 14.079731 -7.3659603e-23)
(45.304686 13.60453 -6.197432e-20)
(46.076149 12.900078 -2.48403e-19)
(46.670369 11.917773 1.2112319e-19)
(47.193767 10.850998 0)
(47.814076 10.036398 0)
(48.428587 9.211952 9.286657e-20)
(48.923436 8.462441 3.3009593e-19)
(49.35641 7.6461551 7.3171791e-19)
(49.702446 6.8598795 -3.2393325e-19)
(49.981271 6.0860206 -5.7275371e-20)
(50.171277 5.3687301 5.0661313e-20)
(50.305265 4.6974745 -3.8032228e-19)
(50.432037 4.0834718 1.9750405e-20)
(50.498928 3.503856 0)
(50.520371 2.9494584 0)
(50.532138 2.4248973 -8.6803601e-19)
(50.53462 1.9475498 0)
(50.532852 1.4952312 0)
(50.525274 1.0660737 1.1916472e-18)
(50.524045 0.63631786 -1.0512233e-18)
(50.523685 0.21571667 -9.2723669e-19)
(38.761634 12.363515 -2.5635764e-23)
(39.125526 12.432755 -1.7792329e-19)
(39.538087 12.523135 9.1210984e-20)
(40.009061 12.604072 0)
(40.5391 12.673634 9.8501254e-24)
(41.123659 12.719681 1.3572725e-19)
(41.759725 12.714898 -4.5628612e-23)
(42.439532 12.639423 -3.2583707e-20)
(43.145593 12.469251 -3.3042181e-20)
(43.8508 12.181393 -6.5904039e-20)
(44.528819 11.739023 -6.4448237e-20)
(45.170485 11.156159 0)
(45.82965 10.506737 0)
(46.561024 9.939281 0)
(47.271321 9.3839995 0)
(47.882978 8.7938376 -1.6530381e-19)
(48.450817 8.0874421 -1.4651712e-19)
(48.925253 7.3999548 -2.5952131e-19)
(49.32454 6.6676062 0)
(49.654361 5.98642 -2.0294654e-19)
(49.899632 5.2782695 0)
(50.08581 4.6296727 3.1661046e-19)
(50.255195 4.0521371 0)
(50.348053 3.4857417 0)
(50.393211 2.930705 0)
(50.426914 2.4176469 0)
(50.447704 1.942352 0)
(50.460789 1.4943925 -9.3217273e-21)
(50.464244 1.0654356 8.2255564e-21)
(50.469716 0.63554046 1.8593214e-18)
(50.473506 0.21518276 8.1760215e-19)
(39.248217 10.327335 2.6241066e-23)
(39.475695 10.392304 0)
(39.762394 10.477752 1.873562e-21)
(40.119649 10.553627 1.1510698e-19)
(40.565805 10.572375 -2.5070891e-19)
(41.055488 10.583706 -3.5978461e-20)
(41.576041 10.540496 -2.1650391e-19)
(42.136093 10.448532 5.6676479e-19)
(42.733927 10.304331 -2.7527421e-19)
(43.346063 10.154476 -6.6227628e-20)
(43.982689 9.9412857 -2.2733652e-23)
(44.656275 9.700934 5.7735998e-20)
(45.393457 9.4468129 0)
(46.111992 9.1252702 0)
(46.779075 8.7280011 0)
(47.407231 8.2201172 2.9325393e-19)
(47.989528 7.681807 0)
(48.505568 7.081883 -2.2985408e-19)
(48.940082 6.4369282 0)
(49.31889 5.8014424 0)
(49.611056 5.1563628 0)
(49.847343 4.5637719 -2.4474419e-19)
(50.059757 3.9983572 -3.0851862e-20)
(50.181755 3.4446748 -4.6265372e-19)
(50.25232 2.9115972 2.4003899e-20)
(50.308647 2.4076965 0)
(50.349763 1.9325004 0)
(50.379523 1.4893025 5.2705167e-19)
(50.395672 1.0629305 9.3702107e-19)
(50.408599 0.63445096 -3.1722016e-21)
(50.415723 0.21377274 -2.8257168e-21)
(40.175298 8.0486408 0)
(40.336607 8.1503011 -1.0732862e-20)
(40.5068 8.2889381 1.0933496e-20)
(40.694389 8.4329666 -1.0961806e-20)
(40.909765 8.6351055 -2.0984053e-20)
(41.207701 8.7682292 2.0310795e-20)
(41.571513 8.9007404 -3.8885453e-20)
(42.005058 8.998273 -3.6468353e-20)
(42.532353 8.8750656 0)
(43.089265 8.7987607 -2.4303132e-19)
(43.716015 8.6484595 5.0344034e-19)
(44.390822 8.5946257 -5.1673795e-20)
(45.082522 8.4745815 -9.2981018e-20)
(45.742143 8.256195 1.6523303e-19)
(46.387439 7.9650831 -2.9318755e-19)
(46.984186 7.6059957 8.7612502e-24)
(47.572574 7.1689279 -1.1497059e-19)
(48.108245 6.6938137 4.0650662e-19)
(48.567286 6.1434149 0)
(48.975996 5.5997653 0)
(49.313828 5.0066666 6.9969378e-20)
(49.597675 4.450066 -7.1851936e-24)
(49.845222 3.9256501 -2.7239659e-20)
(49.996082 3.3953688 -2.4068015e-20)
(50.096217 2.8773738 -3.3901052e-19)
(50.178073 2.3785397 0)
(50.240297 1.9220253 0)
(50.288544 1.4820918 -4.5784926e-19)
(50.318993 1.0586101 -1.6410142e-18)
(50.340319 0.63119234 -7.2939697e-19)
(50.349668 0.21289191 0)
(40.942489 6.4619814 0)
(41.114009 6.5363645 1.1875782e-20)
(41.305088 6.6392042 -4.1096187e-19)
(41.518065 6.7447534 4.367103e-23)
(41.737495 6.8664874 3.826741e-19)
(41.972523 6.9886907 -2.1027868e-20)
(42.231643 7.0876436 3.9049727e-20)
(42.476864 7.1984297 3.5715758e-20)
(42.725771 7.5280948 0)
(43.114803 7.6686162 5.5924295e-20)
(43.642239 7.6120573 -4.884495e-20)
(44.190609 7.5272894 1.7721717e-19)
(44.783923 7.3820717 -3.2323698e-19)
(45.427423 7.3087705 1.4543086e-19)
(46.07174 7.1711476 0)
(46.657013 6.9199085 1.1487944e-19)
(47.20651 6.6149752 2.2982868e-23)
(47.742066 6.2342802 -1.7954553e-19)
(48.219448 5.7977498 2.3791796e-19)
(48.647185 5.3299242 6.9989469e-20)
(49.01777 4.8041884 -3.0885351e-19)
(49.341064 4.3233393 -2.1799324e-19)
(49.615068 3.8258738 0)
(49.792255 3.3222816 3.3911698e-19)
(49.924287 2.8243082 2.6169098e-19)
(50.035117 2.3530145 3.2972526e-20)
(50.120416 1.8983781 0)
(50.188116 1.4693053 0)
(50.233775 1.0512853 -5.6932485e-21)
(50.264379 0.62715029 4.9880938e-21)
(50.274977 0.21126966 0)
(41.563516 5.556317 -8.9010941e-19)
(41.668299 5.6342112 8.4351062e-19)
(41.790726 5.723281 7.8794258e-19)
(41.935851 5.8163108 -7.2715025e-19)
(42.109476 5.9138528 -6.8477186e-19)
(42.319951 6.0172512 6.4827421e-19)
(42.581955 6.1241949 -6.0778042e-19)
(42.906449 6.2201148 5.1699496e-19)
(43.221566 6.3424582 -4.6030726e-19)
(43.528089 6.3664094 -5.1571849e-20)
(43.766111 6.6762838 4.0325624e-19)
(44.148996 6.7656526 3.5850432e-19)
(44.637155 6.5741492 -4.1708625e-19)
(45.175557 6.3940894 0)
(45.778058 6.2873626 2.2723521e-19)
(46.399985 6.1982639 -4.0631536e-19)
(46.927934 6.0102138 8.981074e-20)
(47.417309 5.7073821 0)
(47.905089 5.385918 -2.0996317e-19)
(48.34583 5.0235202 1.2919975e-23)
(48.73543 4.5828323 4.3598154e-19)
(49.087562 4.1541223 2.4035536e-19)
(49.375977 3.696529 4.2397333e-20)
(49.575583 3.222813 -3.7394418e-19)
(49.739009 2.7610882 2.9679653e-19)
(49.882521 2.2993118 2.03574e-19)
(49.99167 1.8723415 1.2823904e-20)
(50.078323 1.4504111 3.7320684e-19)
(50.139552 1.039703 6.4831438e-19)
(50.180207 0.62146099 5.5429363e-19)
(50.191515 0.20954606 0)
(42.300345 4.5910909 -6.54158e-21)
(42.399177 4.6585354 -2.4097558e-20)
(42.512186 4.7362112 -7.2475053e-19)
(42.639997 4.8175179 1.3461504e-18)
(42.782424 4.9032343 -1.2375154e-18)
(42.9382 4.9925791 5.8172167e-19)
(43.104214 5.082308 0)
(43.281029 5.1693361 0)
(43.491586 5.2427007 -2.5782404e-20)
(43.761861 5.3331945 4.6077554e-20)
(44.102988 5.3365559 2.8734244e-19)
(44.41128 5.326431 -6.2026822e-19)
(44.672523 5.796485 3.1382529e-19)
(45.092103 5.6822426 0)
(45.568434 5.5344826 0)
(46.130113 5.3811499 0)
(46.690738 5.3979879 -1.5823921e-19)
(47.142374 5.1478351 2.0992089e-19)
(47.622048 4.9318593 0)
(48.076226 4.66767 -1.0898827e-19)
(48.477059 4.3113456 9.6160768e-20)
(48.843378 3.9577432 -3.3919854e-19)
(49.138184 3.542123 1.4956837e-19)
(49.355423 3.1000856 -9.8960973e-20)
(49.546745 2.6635842 -2.0353479e-19)
(49.721353 2.2438346 -2.0513259e-19)
(49.855298 1.8291906 3.3922238e-19)
(49.959349 1.4240992 -2.9913842e-19)
(50.035732 1.0229302 0)
(50.086935 0.61376322 -4.9647203e-19)
(50.099372 0.20749531 0)
(42.881205 3.9053271 7.6458027e-19)
(42.944924 3.9633786 2.9524342e-24)
(43.018579 4.0289994 1.0161897e-20)
(43.104562 4.0976968 0)
(43.206124 4.1712767 -1.7240764e-20)
(43.327525 4.2508017 5.0189582e-19)
(43.474688 4.3370791 -4.5379934e-19)
(43.651748 4.4308561 0)
(43.853249 4.5335193 2.2854903e-20)
(44.066861 4.6334025 3.4682644e-19)
(44.289309 4.7478314 3.6283494e-20)
(44.580432 4.8749516 -5.1611294e-19)
(44.939467 4.6861072 5.7191733e-20)
(45.158029 5.0461656 1.9717849e-19)
(45.501027 5.0650134 0)
(45.932182 4.821883 0)
(46.413818 4.6891624 -6.8565769e-20)
(46.895019 4.5634958 9.8181188e-24)
(47.363032 4.465893 1.0893128e-19)
(47.813096 4.2628321 -2.1141466e-23)
(48.238018 4.0238133 -2.5432451e-19)
(48.60958 3.7156651 7.4764663e-20)
(48.903291 3.3416971 6.5944999e-20)
(49.141373 2.9471289 2.9072199e-19)
(49.352535 2.5586502 -5.7385687e-24)
(49.551111 2.1571568 -2.2611664e-20)
(49.70892 1.7788796 -6.3799499e-19)
(49.83116 1.3887715 -1.7583318e-20)
(49.922098 1.0012257 0)
(49.983422 0.60291188 0)
(49.998612 0.20498706 0)
(43.532595 3.158127 1.3650459e-18)
(43.592205 3.2068225 1.2573874e-18)
(43.660479 3.2618259 -1.1729483e-18)
(43.738228 3.3194773 1.0746223e-18)
(43.826224 3.3814727 -9.683426e-19)
(43.925126 3.4486653 8.7962194e-19)
(44.034466 3.5202507 -8.065314e-19)
(44.154118 3.5943859 0)
(44.289523 3.6688665 0)
(44.452443 3.7445432 5.5938347e-19)
(44.65008 3.8167173 -4.8146017e-19)
(44.854575 3.864387 0)
(45.074617 4.0492578 -5.049269e-20)
(45.40831 3.9446751 0)
(45.637022 4.1179532 0)
(45.90057 4.3830941 -6.8148222e-20)
(46.274246 4.1881874 2.9609299e-19)
(46.717 4.034871 -4.2752807e-19)
(47.137512 4.0196333 -9.5777193e-20)
(47.533796 3.8161794 2.5314892e-19)
(47.993301 3.6570163 -2.8184143e-23)
(48.373846 3.4373245 -6.5930752e-20)
(48.662066 3.1073205 0)
(48.926513 2.7657611 0)
(49.157609 2.4181317 0)
(49.371294 2.0640734 0)
(49.550945 1.706703 3.1635381e-19)
(49.692456 1.3416064 -1.5501788e-20)
(49.798178 0.97198775 -1.3671011e-20)
(49.868921 0.58987205 -6.0290861e-21)
(49.889458 0.20170819 3.4567421e-19)
(44.047042 2.6306028 1.2176388e-18)
(44.085365 2.6721762 -1.1182865e-18)
(44.129637 2.718483 8.1229056e-21)
(44.181086 2.7671017 9.6487553e-19)
(44.241412 2.8199463 -8.7406847e-19)
(44.312756 2.8780586 7.9225668e-19)
(44.397874 2.9417402 -1.4280407e-18)
(44.500026 3.0112652 -1.9978353e-20)
(44.620846 3.0868957 5.54642e-19)
(44.758615 3.167419 0)
(44.913204 3.2505355 -4.8185796e-19)
(45.102162 3.3454294 2.5188242e-20)
(45.319526 3.374277 3.7877585e-19)
(45.526298 3.5113328 -3.1543889e-19)
(45.817996 3.4575053 2.4265059e-19)
(46.042733 3.5256562 3.7366633e-26)
(46.275228 3.7625393 2.1284297e-19)
(46.650285 3.608014 -2.3725273e-19)
(47.011797 3.5624962 3.3801832e-19)
(47.349714 3.4240455 -7.4369724e-20)
(47.71882 3.2196431 6.5624915e-20)
(48.119256 3.0720136 1.6968349e-23)
(48.41382 2.8356003 1.0251309e-19)
(48.695687 2.5500145 0)
(48.956932 2.2652963 -1.5941147e-19)
(49.186945 1.937906 1.4056742e-19)
(49.383154 1.6240153 3.0986239e-20)
(49.54185 1.2844341 -2.7328544e-20)
(49.663894 0.9336275 1.2050536e-20)
(49.74371 0.57027372 3.2420915e-19)
(49.772256 0.19702615 -2.953173e-19)
(44.627885 2.0506207 2.1875236e-18)
(44.664426 2.0845083 -1.9895766e-18)
(44.706312 2.1220114 -1.4430286e-20)
(44.754102 2.161344 -6.6348958e-21)
(44.808326 2.2041261 -6.049546e-21)
(44.869428 2.2511575 1.4138852e-18)
(44.937758 2.3024167 -4.8959087e-23)
(45.013721 2.357498 -1.1240916e-18)
(45.098442 2.415685 2.9323571e-24)
(45.194835 2.47632 0)
(45.305807 2.5392977 -2.5022318e-20)
(45.426479 2.5985572 -4.4390188e-20)
(45.563407 2.6785207 -1.965907e-20)
(45.736419 2.7001627 2.7824809e-19)
(45.91381 2.8277838 -2.459787e-19)
(46.169891 2.8318604 2.7160557e-20)
(46.410759 2.7188479 0)
(46.668717 2.9462082 -4.1738706e-20)
(46.976351 2.8928931 -7.468307e-20)
(47.279071 2.9723694 -6.5815568e-20)
(47.561947 2.8407141 0)
(47.870318 2.6583784 -1.0228021e-19)
(48.182915 2.5263089 0)
(48.467953 2.2988794 0)
(48.757579 2.0688045 1.4050961e-19)
(49.004026 1.8018136 -2.4781216e-19)
(49.213441 1.5156671 1.0926839e-19)
(49.383589 1.2071448 0)
(49.520205 0.88509558 -1.8059366e-19)
(49.608723 0.54759737 -2.9045014e-19)
(49.646922 0.19027209 0)
(45.048756 1.6691023 -1.9483643e-18)
(45.070138 1.6970006 3.4534341e-21)
(45.094845 1.7273865 1.2806675e-20)
(45.123538 1.7592341 1.5052358e-18)
(45.157152 1.7940324 -1.3658586e-18)
(45.196953 1.8325503 -2.0901851e-24)
(45.244588 1.8749814 0)
(45.301984 1.9213766 1.553093e-24)
(45.371051 1.9717625 8.9326978e-19)
(45.453281 2.0259626 -7.8291236e-19)
(45.550215 2.0831291 2.2081156e-20)
(45.666149 2.1435757 1.9581355e-20)
(45.800341 2.1965869 0)
(45.94343 2.2712238 0)
(46.103696 2.3108653 4.880244e-19)
(46.272275 2.3142422 2.3911368e-20)
(46.472409 2.4522512 -3.3830923e-19)
(46.673091 2.4000071 3.624067e-19)
(46.943301 2.2802886 -2.2653687e-19)
(47.258577 2.3408967 -5.7623453e-20)
(47.501144 2.4177728 0)
(47.745515 2.2870277 -9.0303592e-20)
(48.025642 2.1632159 7.9668233e-20)
(48.300712 2.0270328 -7.5291835e-24)
(48.58231 1.8508461 -6.194109e-20)
(48.833052 1.6320247 1.0922103e-19)
(49.049902 1.3886871 -9.6312605e-20)
(49.222918 1.1208227 -1.6988763e-19)
(49.368104 0.82475794 1.8713946e-20)
(49.465419 0.51540088 -2.4779009e-20)
(49.513161 0.18053324 7.2852731e-21)
(45.548238 1.2740774 -1.7237878e-18)
(45.569326 1.2969679 -6.0964274e-21)
(45.593473 1.3218896 1.4440317e-18)
(45.620976 1.3482368 0)
(45.652108 1.3772627 -1.2112897e-18)
(45.687042 1.4096168 -8.5399818e-21)
(45.725822 1.445485 2.1738824e-23)
(45.768424 1.4849288 1.772982e-18)
(45.814842 1.5279546 -2.1212335e-23)
(45.865524 1.5744596 -7.1264475e-19)
(45.921887 1.6241614 0)
(45.985214 1.6763471 0)
(46.059408 1.7340536 0)
(46.152395 1.7873119 0)
(46.263689 1.8377948 -2.390806e-20)
(46.400246 1.9435975 3.3783446e-19)
(46.547535 1.8893978 -2.6099156e-19)
(46.685043 2.0803567 -2.9166086e-19)
(46.894544 2.1189459 2.0012087e-19)
(47.147955 1.8772353 -6.8582841e-25)
(47.435716 1.9010837 0)
(47.68127 1.9056176 1.5911754e-19)
(47.929083 1.8100843 -1.4046685e-19)
(48.199752 1.7570671 6.1920348e-20)
(48.448034 1.6235653 0)
(48.675078 1.4534169 -1.4443649e-19)
(48.887858 1.2510614 4.2457187e-20)
(49.061491 1.0148037 1.8718727e-19)
(49.209445 0.75327579 9.9050212e-20)
(49.314443 0.47608315 0)
(49.370518 0.16761606 -2.0551796e-19)
(45.895213 0.99561986 0)
(45.906366 1.0132271 2.7044798e-21)
(45.919335 1.0321 0)
(45.934494 1.0519724 0)
(45.952377 1.0738336 -4.178706e-21)
(45.97371 1.0981863 -1.9346144e-18)
(45.999508 1.1252476 1.7399926e-18)
(46.031463 1.154767 6.0846212e-21)
(46.069857 1.1871958 1.0861548e-20)
(46.114955 1.2231 -1.2278126e-18)
(46.168835 1.2617131 2.1984245e-18)
(46.231275 1.3033305 -9.7457919e-19)
(46.30075 1.3464268 0)
(46.376894 1.3918314 0)
(46.468417 1.4430753 0)
(46.56742 1.4563786 0)
(46.689306 1.5447118 -1.6418471e-20)
(46.850266 1.4904531 2.6105422e-19)
(46.965602 1.5928528 -2.5490531e-20)
(47.114106 1.7307132 -1.5589512e-19)
(47.320616 1.5923213 1.5577223e-19)
(47.549841 1.5518316 -2.7681743e-19)
(47.794821 1.5207395 2.4594385e-19)
(48.075678 1.5156603 -1.0899901e-19)
(48.315778 1.4197393 1.4440458e-19)
(48.514712 1.26964 8.488315e-20)
(48.716369 1.0919369 0)
(48.896882 0.8983443 3.300504e-20)
(49.044559 0.67060326 -2.1836711e-24)
(49.156544 0.42647249 -1.283853e-19)
(49.219732 0.15144598 1.8116698e-19)
(46.285271 0.74353006 -2.7092941e-18)
(46.296669 0.75766591 2.4450022e-18)
(46.30981 0.77287505 0)
(46.324898 0.78906338 0)
(46.34214 0.80698906 7.3748036e-21)
(46.361689 0.82702487 0)
(46.383549 0.84925865 0)
(46.407199 0.87413018 -1.3793972e-18)
(46.433574 0.90148641 1.2261146e-18)
(46.463744 0.93107027 -1.224202e-24)
(46.496985 0.96390573 7.5724727e-21)
(46.535452 0.99983337 0)
(46.582593 1.0397464 0)
(46.641371 1.0848866 0)
(46.713373 1.1271996 0)
(46.800462 1.193574 0)
(46.893397 1.2235535 -1.4476761e-20)
(46.987053 1.3343537 -1.2788482e-20)
(47.09867 1.3162592 -3.1456282e-19)
(47.181146 1.3504011 6.3683964e-19)
(47.299953 1.4472769 -3.1217678e-19)
(47.481158 1.3593495 -3.0583236e-20)
(47.689013 1.2757639 -1.0720965e-19)
(47.914407 1.2399445 9.593257e-20)
(48.146264 1.1727772 -4.2409852e-20)
(48.350366 1.0689145 -7.4840669e-20)
(48.542537 0.91764502 5.8177588e-24)
(48.72697 0.758972 5.8204165e-20)
(48.876836 0.57255473 2.5667981e-20)
(48.993999 0.36731304 1.1318365e-19)
(49.063354 0.13059113 7.9870708e-20)
(46.564265 0.51428147 -2.3920359e-18)
(46.567586 0.52363518 2.1558468e-18)
(46.571583 0.53374123 -1.9503549e-21)
(46.576468 0.54449298 1.8310768e-18)
(46.582609 0.55639991 -1.6690198e-18)
(46.59055 0.56970187 -1.5086094e-18)
(46.60106 0.58449649 1.1301292e-23)
(46.615141 0.60088439 2.424389e-18)
(46.633934 0.61905672 -1.0816778e-18)
(46.658805 0.63920608 -3.7608295e-21)
(46.691332 0.66140986 -7.4511157e-25)
(46.732338 0.6858694 5.9200453e-21)
(46.781324 0.71218478 0)
(46.835313 0.73851965 9.2715686e-21)
(46.886215 0.77229797 -5.2441277e-19)
(46.940076 0.7929558 4.5593934e-19)
(47.002651 0.8281311 0)
(47.078155 0.81417641 -3.7208044e-19)
(47.154703 0.8762319 2.9842909e-19)
(47.276886 0.84678821 1.7547924e-20)
(47.373341 0.90797546 1.5456592e-20)
(47.491036 0.98811391 2.7122809e-20)
(47.664076 1.0011578 0)
(47.838338 0.93745308 1.6946075e-19)
(48.012729 0.86488162 -1.8693023e-19)
(48.208181 0.81507632 -3.299789e-20)
(48.388843 0.7180048 -5.8190714e-20)
(48.563551 0.59679017 0)
(48.715424 0.46074053 4.1062704e-24)
(48.83216 0.29676563 -7.9844859e-20)
(48.904912 0.10648322 6.3334287e-24)
(46.788425 0.2973777 -4.233754e-18)
(46.794476 0.30362117 9.4186836e-22)