/*--------------------------------*- C++ -*----------------------------------*\
| =========                 |                                                 |
| \\      /  F ield         | OpenFOAM: The Open Source CFD Toolbox           |
|  \\    /   O peration     | Version:  2406                                  |
|   \\  /    A nd           | Website:  www.openfoam.com                      |
|    \\/     M anipulation  |                                                 |
\*---------------------------------------------------------------------------*/
FoamFile
{
    version     2.0;
    format      ascii;
    arch        "LSB;label=32;scalar=64";
    class       volScalarField;
    location    "0.036";
    object      Ma;
}
// * * * * * * * * * * * * * * * * * * * * * * * * * * * * * * * * * * * * * //

dimensions      [0 0 0 0 0 0 0];

internalField   nonuniform List<scalar> 
8260
(
0.14477615
0.14592056
0.14710773
0.1483672
0.14962921
0.15087255
0.15210507
0.15331788
0.15460311
0.15604875
0.15750475
0.1589963
0.16046813
0.1617775
0.16242207
0.1618562
0.15921573
0.15584273
0.1540423
0.15295681
0.15208854
0.15131759
0.15063199
0.14999383
0.14942173
0.14898408
0.14863459
0.14836151
0.14813369
0.14799564
0.14790088
0.14106159
0.1425627
0.14416509
0.145786
0.14739432
0.14897612
0.15052953
0.15205861
0.15361331
0.15523503
0.1568554
0.15846913
0.16001773
0.16135005
0.16195113
0.16126394
0.15851548
0.15529708
0.15370572
0.15271384
0.15189931
0.15116561
0.15050841
0.14989325
0.14933993
0.14891862
0.14858152
0.14831739
0.14809591
0.14796229
0.14787037
0.13678337
0.13863133
0.14067279
0.14271215
0.1447162
0.14667751
0.14859148
0.15045957
0.15231089
0.15416602
0.15598471
0.15774978
0.15940011
0.16077344
0.16135486
0.16056576
0.15772878
0.15473999
0.15335184
0.15244689
0.15168858
0.15099583
0.15037058
0.1497813
0.14924842
0.14884475
0.14852135
0.14826723
0.14805295
0.14792438
0.14783567
0.13268513
0.13482223
0.13719293
0.13958111
0.14193798
0.14424993
0.14650661
0.14870094
0.15084485
0.15294748
0.15497446
0.15690093
0.15866048
0.16007302
0.16062784
0.15971519
0.15680935
0.15411887
0.15294378
0.15213655
0.15144284
0.15079781
0.15020991
0.14965082
0.14914229
0.14875955
0.14845224
0.14820973
0.14800387
0.14788112
0.14779619
0.12888862
0.13123412
0.13383167
0.13648379
0.1391314
0.14174841
0.14431486
0.14681318
0.14923804
0.15158534
0.15382205
0.15591357
0.15778464
0.15923009
0.15974076
0.15867653
0.15574589
0.15344653
0.15248504
0.15178387
0.15116278
0.1505723
0.15002722
0.14950265
0.14902204
0.14866287
0.14837378
0.14814435
0.14794816
0.14783192
0.14775129
0.12549484
0.12796708
0.13069733
0.13352175
0.13638032
0.13923633
0.14205969
0.1448218
0.14750112
0.15007811
0.152516
0.15476814
0.15674635
0.15821192
0.15864986
0.1574112
0.15453606
0.15271784
0.15196637
0.15138188
0.15084214
0.15031405
0.14981791
0.14933279
0.14888481
0.14855262
0.14828437
0.14806981
0.14788481
0.1477759
0.14770023
0.12261023
0.1251385
0.1279136
0.13081402
0.13378941
0.13679906
0.13980544
0.14277032
0.14565798
0.14843316
0.15104946
0.15344532
0.15551491
0.15697549
0.15729822
0.15586833
0.15321166
0.15192767
0.15138281
0.15092541
0.15047584
0.15001941
0.149579
0.14913879
0.14872884
0.14842736
0.14818277
0.14798499
0.14781288
0.14771218
0.14764222
0.12039358
0.12287491
0.12559773
0.12847394
0.13146429
0.13452934
0.13762816
0.14071586
0.14374549
0.1466672
0.14942075
0.15192599
0.15405315
0.15546506
0.15561516
0.15399241
0.15181272
0.1510669
0.15072749
0.15040834
0.15005692
0.14968349
0.14930631
0.14891676
0.1485511
0.14828489
0.14806726
0.14788841
0.14773112
0.14763964
0.14757642
0.11887841
0.12122981
0.12381674
0.12657799
0.12948633
0.13250664
0.13559879
0.13871559
0.14180308
0.14479925
0.14762797
0.15018584
0.15230963
0.15360741
0.15351257
0.15178891
0.15040385
0.15012677
0.14999499
0.14982234
0.14957863
0.14930211
0.1489965
0.1486633
0.14834878
0.1481231
0.14793616
0.14777856
0.14763819
0.14755699
0.14750182
0.11803852
0.12020302
0.12259371
0.12516682
0.12790503
0.13078338
0.13376724
0.13681158
0.13985963
0.14284015
0.14566039
0.14818774
0.15021054
0.1512868
0.1508554
0.14944218
0.14900935
0.14909655
0.14917764
0.14915526
0.14903568
0.14887068
0.14864547
0.14837478
0.14811895
0.14793933
0.14778723
0.14765351
0.14753242
0.14746271
0.14741718
0.11777583
0.11971577
0.12186744
0.12419643
0.12669613
0.12934994
0.13213295
0.13500583
0.13791184
0.14077239
0.14347704
0.14585498
0.14762406
0.14828719
0.1476883
0.14727411
0.14758662
0.14797878
0.14826791
0.14840006
0.14842251
0.14838231
0.14824753
0.14804868
0.14785948
0.14773061
0.14761767
0.14751113
0.14741194
0.14735506
0.14732079
0.11805526
0.11969241
0.12153681
0.12356066
0.12575766
0.12811758
0.13062098
0.13323143
0.13588998
0.13850786
0.14094973
0.1429862
0.14429125
0.14458201
0.14468054
0.14533686
0.14613706
0.14677114
0.14725483
0.14755459
0.14773526
0.14782602
0.14779445
0.14768292
0.14756808
0.14749319
0.14742386
0.14734902
0.14727459
0.1472322
0.1472104
0.11841572
0.11975496
0.12128407
0.12297968
0.12483566
0.12684951
0.1290053
0.13126254
0.13355337
0.1357781
0.13780228
0.13939307
0.14031604
0.14104631
0.14229755
0.14358567
0.14462668
0.14549325
0.14615819
0.14662898
0.14696238
0.14719614
0.1472819
0.14727217
0.14724095
0.14722356
0.14720223
0.14716469
0.14711829
0.14709238
0.14708335
0.11841523
0.11949853
0.12074054
0.12213249
0.12367622
0.1253511
0.12712792
0.12897148
0.13082323
0.13258953
0.13417687
0.13555433
0.13694713
0.1386651
0.14035721
0.14181892
0.14311606
0.14417183
0.14500386
0.14563323
0.14612508
0.14649288
0.14670531
0.14680863
0.14687244
0.14692015
0.14695064
0.1469554
0.14694133
0.14693408
0.14693682
0.11813151
0.11882169
0.11969829
0.12077087
0.12205691
0.123464
0.12492534
0.12647284
0.12810247
0.1297715
0.13147978
0.13320656
0.13500196
0.13677327
0.13846596
0.14010837
0.14157048
0.14282324
0.14381787
0.14460568
0.14524455
0.14573569
0.14606666
0.14628611
0.14645855
0.14658351
0.14666954
0.1467191
0.1467422
0.14675624
0.14676825
0.11924137
0.11976768
0.12034419
0.12097838
0.12172902
0.1226793
0.12381826
0.12513876
0.12656632
0.1281549
0.12994288
0.13187519
0.13358711
0.13519138
0.13684268
0.13848004
0.14003799
0.14143738
0.14260728
0.14355373
0.14434866
0.14495453
0.1453805
0.14571549
0.14600161
0.14621344
0.14636082
0.14645582
0.14651921
0.14655777
0.14657571
0.12060654
0.12113039
0.12172571
0.12238139
0.12306578
0.12379927
0.12460795
0.12538372
0.12625793
0.12747087
0.12890703
0.13054305
0.13242957
0.13420827
0.13578901
0.13724855
0.13867025
0.14009191
0.14138524
0.14248135
0.1434329
0.14416705
0.14468724
0.14511588
0.14550846
0.14580971
0.14602533
0.1461677
0.14627078
0.14633698
0.14635788
0.12195124
0.12228385
0.12267032
0.12312162
0.12365189
0.12428176
0.12505214
0.12600613
0.12699976
0.12780769
0.12863973
0.12990685
0.13137461
0.13311486
0.13490994
0.13644201
0.13774643
0.13901251
0.14027526
0.14142675
0.14249129
0.14336599
0.14400022
0.1445142
0.14499182
0.14537254
0.14566059
0.14585333
0.145997
0.14609122
0.1461141
0.12373093
0.12403604
0.12438567
0.12478064
0.12522212
0.12570746
0.1262252
0.12676812
0.12739405
0.12823268
0.12915854
0.12990491
0.13096954
0.13221807
0.13366278
0.13535295
0.13695558
0.13824494
0.13943808
0.14052742
0.14156497
0.14253331
0.14330378
0.14390876
0.14446173
0.14490268
0.14526201
0.14550953
0.14569568
0.14581808
0.14584443
0.12524509
0.12544977
0.12568604
0.12595955
0.12628031
0.12666157
0.12712165
0.12767773
0.12832235
0.12901037
0.12977192
0.13060368
0.13125458
0.13203936
0.13315413
0.13437913
0.13575456
0.13727226
0.13871157
0.13983509
0.1407793
0.14170551
0.14256267
0.14328111
0.14391094
0.14440705
0.14482503
0.14513347
0.14536395
0.14551523
0.14554961
0.12693019
0.12711395
0.12732466
0.12756399
0.1278344
0.1281374
0.12847152
0.12883459
0.12923685
0.12971052
0.13027644
0.1309819
0.13183866
0.13259104
0.13319426
0.13408473
0.13512613
0.13628757
0.13767328
0.13909983
0.14014186
0.14098806
0.14179417
0.1426178
0.14333836
0.14389539
0.14435708
0.14472314
0.14500134
0.14518128
0.14523041
0.1283695
0.12849112
0.1286315
0.12879397
0.12898408
0.12920867
0.12947591
0.12979574
0.13017355
0.13060185
0.13107096
0.13156461
0.13212296
0.13287081
0.13364778
0.13426986
0.13499277
0.13590046
0.13693924
0.13815522
0.13942399
0.14040004
0.1411189
0.14196915
0.14275629
0.14337596
0.14387406
0.14428327
0.14460677
0.14481658
0.14488697
0.12992648
0.13003621
0.13016203
0.13030532
0.13046781
0.13065088
0.13085557
0.13108229
0.13133314
0.13161721
0.13194753
0.13233001
0.13273523
0.13317603
0.13380982
0.13456443
0.13528935
0.1358552
0.13663767
0.13757481
0.13859195
0.1397758
0.14059749
0.14142048
0.1421904
0.1428456
0.14338131
0.14382038
0.14417904
0.14442203
0.14451953
0.13120006
0.13126573
0.13134165
0.13142961
0.13153242
0.1316537
0.13179797
0.13197077
0.13217769
0.13242252
0.13270839
0.13304183
0.13343761
0.13385238
0.13422902
0.13472296
0.135395
0.13608851
0.13658682
0.13732292
0.1381209
0.13903261
0.14006435
0.14094875
0.1416532
0.1422878
0.1428636
0.14333544
0.14372274
0.14399926
0.14412692
0.13259714
0.1326613
0.13273497
0.132819
0.13291423
0.13302109
0.13313965
0.13327021
0.13341509
0.13357819
0.13376056
0.13396241
0.13418884
0.13448258
0.13485481
0.13521117
0.13559696
0.1361772
0.13680371
0.13729035
0.1378879
0.13857085
0.13945913
0.14041266
0.14109408
0.14171231
0.14230994
0.14283372
0.14324573
0.14355131
0.14370912
0.13363207
0.13366339
0.13369969
0.13374181
0.13379129
0.13385042
0.13392239
0.13401126
0.13412122
0.13425678
0.13442495
0.13463389
0.13488668
0.13516771
0.13547374
0.13583357
0.13616532
0.13648724
0.13691107
0.13740825
0.13782369
0.13838098
0.13913645
0.13983246
0.14049632
0.14117405
0.1417658
0.14232139
0.14275814
0.14308489
0.14326932
0.1347988
0.1348241
0.1348527
0.13488546
0.13492354
0.13496833
0.13502144
0.13508444
0.13515905
0.13524755
0.13535233
0.13547599
0.13562199
0.13579472
0.13599266
0.13620134
0.1364627
0.13677186
0.13706082
0.13743551
0.13790006
0.13837648
0.13897392
0.13948851
0.14006209
0.1407184
0.14128949
0.14182352
0.1422764
0.14261013
0.14281227
0.13543318
0.1354492
0.13546833
0.13549123
0.13551867
0.13555165
0.13559158
0.13563853
0.13569302
0.13575692
0.13583251
0.13592098
0.13602557
0.13615357
0.13631023
0.1364898
0.13669124
0.13692718
0.13726059
0.13759152
0.1380273
0.13846134
0.13887845
0.13930256
0.13981898
0.14034096
0.14088075
0.14136881
0.14180812
0.14214086
0.1423496
0.13615496
0.13617531
0.13619804
0.13622333
0.13625133
0.13628214
0.13631561
0.13635312
0.13639576
0.13644323
0.13649477
0.13655077
0.13661223
0.1366908
0.13679465
0.13693487
0.13711299
0.1373204
0.13756309
0.13784169
0.13811489
0.13841315
0.13874102
0.13914159
0.1395936
0.14003202
0.14050736
0.14095866
0.14136538
0.14169364
0.14190057
0.1366278
0.13663628
0.13664646
0.13665894
0.13667449
0.13669407
0.13671875
0.13674958
0.13678759
0.13683419
0.13689133
0.13696153
0.13704506
0.13713416
0.13723077
0.13734088
0.13746817
0.13761605
0.13778693
0.1379801
0.13821268
0.13845438
0.1387277
0.13905918
0.1394293
0.13982635
0.14024182
0.14065292
0.14103076
0.14134047
0.14153517
0.136984
0.13699317
0.13700376
0.13701605
0.13703038
0.13704724
0.1370676
0.13709211
0.13712133
0.13715583
0.13719629
0.1372442
0.13730416
0.13737432
0.13745191
0.13754058
0.13764376
0.13776473
0.13790926
0.13808173
0.13828228
0.1385179
0.13876878
0.1390382
0.13936643
0.13972977
0.14011598
0.14050379
0.14086549
0.14116522
0.14135286
0.080065064
0.096178495
0.1070155
0.11517799
0.1219913
0.12816018
0.1338104
0.13859307
0.14327429
0.14763437
0.15163165
0.15527031
0.15856614
0.16150134
0.16404137
0.16599197
0.1669381
0.166471
0.16372164
0.15979531
0.15717123
0.15543453
0.15407906
0.15293484
0.15193085
0.15109287
0.15040245
0.14987253
0.14946299
0.14919556
0.14901677
0.1016366
0.10992741
0.11632359
0.12191064
0.1272958
0.13253018
0.13738497
0.14184121
0.14606456
0.14995818
0.15352793
0.15679471
0.15977071
0.16242724
0.16471749
0.1663888
0.16702761
0.16623164
0.16314034
0.15929106
0.15687447
0.15523074
0.15392073
0.15280312
0.15181983
0.15100131
0.15032742
0.14980991
0.14940908
0.14914734
0.14897892
0.10806064
0.11416711
0.11998355
0.12557642
0.13090396
0.13585426
0.14036098
0.14447098
0.14829077
0.15180386
0.15503562
0.15800857
0.16072833
0.16315777
0.16524002
0.16666295
0.16704399
0.16594292
0.16257734
0.15887984
0.15663
0.15504769
0.15377207
0.1526774
0.15171305
0.15091255
0.15025399
0.14974806
0.14935545
0.14909918
0.14893703
0.1141514
0.1199464
0.12537049
0.13039938
0.1350747
0.13939479
0.1433523
0.1469933
0.15038043
0.15351339
0.15641752
0.15911076
0.16158887
0.16380449
0.16568421
0.16685376
0.16700349
0.16559074
0.1620167
0.15847891
0.15637688
0.15485619
0.15361735
0.15254702
0.15160272
0.15082128
0.1501789
0.14968511
0.14930109
0.14905057
0.14889199
0.12069785
0.12582137
0.13052419
0.13488437
0.13894574
0.14269797
0.14614681
0.14933528
0.15230841
0.1550804
0.15767623
0.16010788
0.16235994
0.16437397
0.16605182
0.16698574
0.16692644
0.16519612
0.16144782
0.15810332
0.1561363
0.15466997
0.15346495
0.15241783
0.15149312
0.15073042
0.15010388
0.14962199
0.14924643
0.14900165
0.14884674
0.12764429
0.13180847
0.13568858
0.13932041
0.14271172
0.14585786
0.14877766
0.15150477
0.15407361
0.15650202
0.15880898
0.16099745
0.1630394
0.16486488
0.16634528
0.16706393
0.16681251
0.16475024
0.16088363
0.15774936
0.15589973
0.1544838
0.15331169
0.15228761
0.15138255
0.15063873
0.15002816
0.14955825
0.14919124
0.14895233
0.14880064
0.13452485
0.13773544
0.14075586
0.14360615
0.14629283
0.14882346
0.15121405
0.15348863
0.1556714
0.15777685
0.15981526
0.16177908
0.1636273
0.16527913
0.16657221
0.16710454
0.16664298
0.16425371
0.16033361
0.15741659
0.1556692
0.15429985
0.15315926
0.15215767
0.15127211
0.15054702
0.14995226
0.14949423
0.1491357
0.14890269
0.14875445
0.14142205
0.14357437
0.1456503
0.14767491
0.14965024
0.15157096
0.15344413
0.15528351
0.15710201
0.15890652
0.160697
0.16245466
0.16412593
0.16562009
0.16673801
0.16710174
0.16641881
0.16371314
0.15980663
0.15710177
0.15544265
0.15411716
0.15300707
0.15202761
0.15116148
0.15045506
0.14987604
0.14942985
0.14907977
0.14885272
0.14870786
0.14796012
0.14905651
0.15021155
0.15144247
0.15273675
0.15407309
0.15545475
0.15688482
0.15836469
0.15989197
0.16145577
0.1630259
0.1645367
0.16588255
0.16682628
0.16704832
0.16613994
0.16314776
0.15930808
0.15680241
0.15522008
0.15393607
0.15285552
0.15189784
0.15105105
0.15036314
0.1497997
0.14936524
0.14902355
0.14880247
0.1486611
0.15389704
0.15403074
0.15436142
0.15486149
0.15551684
0.15630831
0.15723539
0.15828833
0.15945835
0.16073374
0.16209273
0.16349417
0.16486075
0.16606151
0.16685313
0.16695609
0.16581294
0.16257409
0.15883888
0.1565156
0.15500078
0.15375646
0.1527046
0.1517684
0.15094084
0.15027126
0.14972327
0.14930045
0.14896706
0.14875197
0.14861408
0.15917462
0.15846333
0.15804704
0.15787955
0.15795249
0.15825656
0.15877637
0.15948986
0.16038188
0.16143239
0.16260895
0.16386015
0.16509667
0.16615486
0.16682324
0.16682389
0.16544283
0.16200044
0.15839795
0.15623908
0.15478467
0.15357841
0.1525545
0.15163949
0.15083107
0.1501796
0.14964685
0.14923556
0.14891037
0.14870125
0.14856686
0.16367121
0.16225837
0.16119468
0.16045136
0.16002459
0.15990652
0.16006577
0.16048435
0.16113387
0.16198814
0.16300469
0.16412301
0.16523894
0.16617709
0.16676108
0.16665162
0.16503931
0.16143488
0.15798358
0.15597098
0.15457148
0.15340197
0.15240532
0.15151125
0.15072188
0.15008823
0.14957053
0.14917063
0.14885351
0.14865035
0.14851943
0.16726397
0.16531325
0.16374775
0.16255199
0.16172069
0.16124127
0.16109855
0.16126461
0.16170945
0.1623981
0.16327742
0.16427846
0.16529619
0.16615606
0.16666188
0.16643705
0.16460838
0.1608838
0.1575932
0.15570982
0.15436121
0.15322724
0.15225721
0.15138383
0.15061346
0.14999729
0.14949441
0.14910573
0.14879656
0.1485993
0.14847183
0.16989772
0.16758317
0.16567511
0.16415394
0.16301617
0.16225612
0.16186471
0.16181855
0.16209167
0.16264297
0.16341332
0.16433195
0.16529603
0.16608969
0.16651126
0.16617232
0.16415399
0.16034988
0.15722439
0.15545456
0.15415381
0.15305434
0.15211035
0.15125742
0.15050595
0.14990687
0.14941856
0.14904093
0.14873955
0.14854813
0.14842406
0.17164213
0.16906642
0.16693281
0.16519938
0.16385438
0.16289304
0.16231314
0.16211002
0.16226276
0.16272568
0.16344319
0.16432027
0.16523303
0.16596685
0.16631571
0.16586783
0.16367978
0.15983576
0.15687503
0.15520459
0.15394938
0.15288342
0.15196493
0.15113232
0.15039941
0.14981708
0.14934308
0.1489763
0.14868256
0.14849687
0.14837613
0.17268295
0.16994997
0.16764625
0.16575613
0.16427078
0.16318064
0.16247995
0.16220007
0.16230388
0.1627168
0.16339016
0.16422858
0.16509531
0.16578726
0.16607797
0.16553103
0.163196
0.15934344
0.15654311
0.15495956
0.15374799
0.15271461
0.1518211
0.1510087
0.15029396
0.14972802
0.14926805
0.1489119
0.14862562
0.14844555
0.14832805
0.17312345
0.17038055
0.16799723
0.1660116
0.16443762
0.16327287
0.16251268
0.16218401
0.16223816
0.16260028
0.16322425
0.16403343
0.16488089
0.16555171
0.16579969
0.1651646
0.16271084
0.15887367
0.15622566
0.15471917
0.15354967
0.15254802
0.15167901
0.15088667
0.15018974
0.14963978
0.14919354
0.14884778
0.14856881
0.14839422
0.14827985
0.17231354
0.16989486
0.16770553
0.16581326
0.16426959
0.16310669
0.16234385
0.16198413
0.16199099
0.16232528
0.16293297
0.16373676
0.164589
0.1652613
0.16548411
0.16477729
0.16223008
0.15842608
0.15592082
0.15448324
0.15335441
0.15238367
0.15153877
0.15076637
0.15008684
0.14955246
0.14911966
0.14878404
0.14851218
0.14834291
0.14823153
0.17042124
0.16836135
0.16650155
0.16487805
0.16352926
0.16249599
0.16181688
0.16150337
0.16153593
0.16189043
0.16251567
0.16333944
0.16421924
0.164917
0.16513424
0.16437483
0.16175881
0.15800042
0.15562706
0.15425154
0.15316224
0.15222173
0.15140058
0.15064801
0.14998544
0.14946622
0.14904652
0.14872076
0.14845583
0.14829167
0.14818313
0.16782335
0.16613651
0.16463265
0.1633361
0.16226584
0.16145555
0.16094955
0.16075503
0.16087287
0.16129592
0.16197296
0.16284204
0.16377153
0.16451941
0.16475292
0.16396239
0.16130058
0.15759578
0.15534285
0.15402441
0.15297371
0.15206277
0.15126499
0.15053205
0.14988588
0.14938132
0.14897432
0.14865807
0.14839984
0.14824053
0.14813466
0.16447747
0.16326092
0.16219082
0.16128576
0.16055648
0.16004011
0.1597725
0.15975208
0.1600078
0.16054325
0.16130618
0.16224608
0.1632464
0.1640691
0.16434274
0.16354646
0.16085861
0.15721289
0.15506893
0.15380349
0.15279029
0.15190799
0.15113293
0.15041914
0.1497886
0.14929802
0.14890319
0.14859604
0.14834423
0.14818948
0.14808611
0.16036655
0.1597169
0.15918275
0.15875404
0.1584419
0.15828023
0.158289
0.15849925
0.15894569
0.15963272
0.16051441
0.1615511
0.16264286
0.16356508
0.16390566
0.16313332
0.16043784
0.15685771
0.15480893
0.15359132
0.15261372
0.15175858
0.15100515
0.15030971
0.14969377
0.14921638
0.1488331
0.14853458
0.14828891
0.14813844
0.14803742
0.15542446
0.1553944
0.15550315
0.15566611
0.15586558
0.15612299
0.15647702
0.15697467
0.15766771
0.15854996
0.15958595
0.16074842
0.16195377
0.16300146
0.16344019
0.16272898
0.16004866
0.15653823
0.15456534
0.15338752
0.15244311
0.15161346
0.15088058
0.15020276
0.14960056
0.14913578
0.14876357
0.1484734
0.14823368
0.14808734
0.14798854
0.14978941
0.15011182
0.1507874
0.15160305
0.15243961
0.15326496
0.15410896
0.15499397
0.15602952
0.1571929
0.15844401
0.15977851
0.16113166
0.16234115
0.16292449
0.16233107
0.15970325
0.15624746
0.15432717
0.15318236
0.15227061
0.15146672
0.15075499
0.15009536
0.14950703
0.1490551
0.148694
0.14841227
0.14817848
0.14803628
0.14793956
0.074219658
0.091883618
0.10350781
0.11228829
0.11950493
0.12587057
0.13170448
0.13688005
0.1417597
0.14632088
0.15052515
0.15436113
0.15783726
0.16093604
0.16362325
0.16573915
0.16686487
0.16658258
0.16402806
0.16011136
0.15738011
0.15559315
0.15420771
0.1530428
0.15202209
0.15116853
0.15046477
0.1499245
0.1495075
0.14923495
0.14905196
0.073317747
0.091728479
0.10344161
0.11212188
0.1192525
0.12551346
0.13123178
0.13640411
0.14125481
0.14581727
0.15005757
0.15395105
0.15749305
0.16065968
0.16340644
0.16559193
0.16677708
0.1665967
0.16416065
0.16026568
0.15748503
0.15567958
0.15428298
0.15311017
0.15208228
0.15122054
0.15050909
0.14996256
0.14954094
0.14926499
0.14907957
0.073193454
0.091885409
0.10359101
0.11209625
0.11903369
0.12513445
0.13072
0.135831
0.14064859
0.145216
0.14949716
0.15345571
0.15707365
0.16031967
0.1631401
0.16540924
0.16667708
0.16659549
0.16430898
0.16043392
0.15759089
0.15576304
0.15435582
0.15317648
0.15214264
0.1512735
0.15055486
0.15000232
0.14957625
0.1492969
0.14911771
0.073017736
0.09182985
0.10356411
0.1119894
0.11877018
0.12473129
0.13019568
0.13524304
0.14002861
0.14459573
0.14891088
0.15292977
0.15662199
0.15994845
0.16284716
0.16520354
0.16656299
0.16658779
0.16446022
0.16061846
0.15770971
0.15585532
0.15443569
0.15324881
0.15220826
0.15133105
0.15060456
0.15004544
0.1496144
0.14933122
0.14915147
0.072633974
0.091587181
0.10342256
0.11178041
0.11848206
0.12433341
0.12968867
0.13467224
0.1394201
0.14397653
0.14831425
0.15238446
0.15614575
0.15955073
0.1625296
0.16497333
0.166431
0.16656889
0.16460392
0.16081356
0.15783947
0.15595627
0.15452295
0.15332773
0.15227968
0.15139352
0.15065841
0.15009203
0.1496555
0.14936808
0.14919
0.072279394
0.091201148
0.10319781
0.11157205
0.11820789
0.1239584
0.12920961
0.13412376
0.1388257
0.1433613
0.14771038
0.15182233
0.15564645
0.15912685
0.16218617
0.16471475
0.16627926
0.16653692
0.16473806
0.16101267
0.15797589
0.15606263
0.1546153
0.15341158
0.15235569
0.15146014
0.15071591
0.15014182
0.14969939
0.14940747
0.14921776
0.0720886
0.090816555
0.10295451
0.11135814
0.11793694
0.1235931
0.12874547
0.13358637
0.13823681
0.14274471
0.14709643
0.15124174
0.15512263
0.15867501
0.16181411
0.16442304
0.16610855
0.16649154
0.16486494
0.16121536
0.15811691
0.15617233
0.15471102
0.1534991
0.15243544
0.15153047
0.15077684
0.15019473
0.14974609
0.14944941
0.14925952
0.072116321
0.090433642
0.10265165
0.11109676
0.11763632
0.1232124
0.1282763
0.13304585
0.13764373
0.14212066
0.14646919
0.15064105
0.15457311
0.15819382
0.16141119
0.16409641
0.16590344
0.16642932
0.16497472
0.16142562
0.15826228
0.1562847
0.15480943
0.1535899
0.15251881
0.15160425
0.15084108
0.15025069
0.14979563
0.14949403
0.14929923
0.072233728
0.090032851
0.10226869
0.11075511
0.11727407
0.12278957
0.12778046
0.13248639
0.13703554
0.1414821
0.14582457
0.15001807
0.15399644
0.15768188
0.16097567
0.16373711
0.16566301
0.16634595
0.1650644
0.16163806
0.15841223
0.15639997
0.15491077
0.15368408
0.15260577
0.15168176
0.15090889
0.15030999
0.14984824
0.14954147
0.14935013
0.072498198
0.089621879
0.10178481
0.11030083
0.11681701
0.12229501
0.12723354
0.13188984
0.13639929
0.14082061
0.14515781
0.14937045
0.15339144
0.15713832
0.1605067
0.16334714
0.16539043
0.16623461
0.16513963
0.16184926
0.15856663
0.15651783
0.15501481
0.15378163
0.15269653
0.15176312
0.15098044
0.15037278
0.14990408
0.14959189
0.14939967
0.072866584
0.089164531
0.101165
0.10969595
0.11622679
0.12169464
0.12660731
0.1312347
0.13571944
0.14012549
0.1444623
0.14869446
0.15275608
0.15656185
0.16000323
0.16292551
0.16508161
0.16608105
0.1651913
0.1620599
0.15872518
0.15663782
0.15512123
0.1538824
0.15279104
0.15184842
0.15105586
0.15043921
0.14996332
0.14964546
0.14944917
0.07330254
0.08866074
0.10037459
0.10889244
0.11545921
0.12095107
0.12587157
0.13049812
0.13497974
0.13938568
0.14373097
0.14798619
0.15208834
0.15595142
0.15946452
0.16247076
0.16473955
0.16589872
0.16521057
0.16225955
0.15888717
0.15675925
0.15522957
0.15398611
0.15288916
0.15193761
0.15113521
0.1505094
0.15002608
0.14970233
0.14950127
0.073550013
0.087889007
0.09927914
0.10780791
0.11445752
0.12002319
0.12499577
0.12965751
0.13416368
0.13858978
0.14295649
0.14724129
0.15138595
0.15530588
0.15888987
0.16198169
0.16436413
0.16568309
0.16519985
0.16243752
0.15905158
0.15688112
0.15533905
0.15409218
0.15299059
0.15203062
0.1512185
0.15058343
0.15009248
0.14976266
0.14955669
0.073504075
0.086838013
0.097876812
0.106427
0.11319861
0.1188875
0.12395933
0.12869614
0.1332585
0.13772815
0.14213244
0.14645599
0.15064697
0.15462438
0.15827887
0.16145747
0.16395382
0.16542363
0.16515469
0.16260207
0.159218
0.1570025
0.15544905
0.15420028
0.15309511
0.15212726
0.15130574
0.15066135
0.15016264
0.1498266
0.14961578
0.073180948
0.085584789
0.0962295
0.10477853
0.11169222
0.11754296
0.12275652
0.12760714
0.13225786
0.13679568
0.14125496
0.14562802
0.14987029
0.15390648
0.15763139
0.16089756
0.16350816
0.16511757
0.16506267
0.16274721
0.15938471
0.15712209
0.15555845
0.15430932
0.15320204
0.15222741
0.15139687
0.15074325
0.15023662
0.14989428
0.14967922
0.072270715
0.083884602
0.094220522
0.10281969
0.1099273
0.11599185
0.12139259
0.12639482
0.13116439
0.13579391
0.14032476
0.1447576
0.14905629
0.15315261
0.15694766
0.16030152
0.16302707
0.16476976
0.1649179
0.16286232
0.15955144
0.15723907
0.15566658
0.1544192
0.15331142
0.15233066
0.15149177
0.15082904
0.15031458
0.14996583
0.14974703
0.070873838
0.081792028
0.091882742
0.1005869
0.10794066
0.11426516
0.11989319
0.12507925
0.12999259
0.13473243
0.13934815
0.14384876
0.14820744
0.15236441
0.15622824
0.15966791
0.16250458
0.16437849
0.16472833
0.16294053
0.15971214
0.15735067
0.15577207
0.15452825
0.15342159
0.1524368
0.15159033
0.15091885
0.15039646
0.15004133
0.14981873
0.06909884
0.079434638
0.089327286
0.098165494
0.1058013
0.11242159
0.11830619
0.12369776
0.12877011
0.13363071
0.1383378
0.14290969
0.14732887
0.1515447
0.1554738
0.15899354
0.16192833
0.1639483
0.16451527
0.16299147
0.15987284
0.15745749
0.15587371
0.15463582
0.15353333
0.15254512
0.15169216
0.15101236
0.15048247
0.15012091
0.14989417
0.067118404
0.076956665
0.086677465
0.09565551
0.10359102
0.11053163
0.11669168
0.12229923
0.12753467
0.13251634
0.1373128
0.14195281
0.14642848
0.15069796
0.15468607
0.15827698
0.16129535
0.16343506
0.16423011
0.16299991
0.16001652
0.1575528
0.15597091
0.15474198
0.15364384
0.15265526
0.1517972
0.15110972
0.15057231
0.15020454
0.14997365
0.065206409
0.074577194
0.084100903
0.093180791
0.10140101
0.1086666
0.11510975
0.12093454
0.12632751
0.1314209
0.13629625
0.14099386
0.14551616
0.14983034
0.15386863
0.15752193
0.16062022
0.16289378
0.16391769
0.16297266
0.16012867
0.15764239
0.15606108
0.15484122
0.15375329
0.15276621
0.15190452
0.15121039
0.15066632
0.15029241
0.15005729
0.063666649
0.072569365
0.081828628
0.090911335
0.099347895
0.10690753
0.11362011
0.11965094
0.12518672
0.13037417
0.1353102
0.1400488
0.1446028
0.14894875
0.15302614
0.1567331
0.15990829
0.16230693
0.1635375
0.16288176
0.16023567
0.1577153
0.15614199
0.15493928
0.15386152
0.15287729
0.15201422
0.15131434
0.15076381
0.15038426
0.15014527
0.062837869
0.071257312
0.080151763
0.089084835
0.097592008
0.1053504
0.11227995
0.11848542
0.12413908
0.12939669
0.13437035
0.1391289
0.14369662
0.14805905
0.15216311
0.1559139
0.15916005
0.16167488
0.16309486
0.16270836
0.16032531
0.15777636
0.15621862
0.15502892
0.15396165
0.15298732
0.15212487
0.15142096
0.15086532
0.15048038
0.15023751
0.062874817
0.07083208
0.079285622
0.0879186
0.096306881
0.10410072
0.11114106
0.11745939
0.12319276
0.12849241
0.1334801
0.13823756
0.14280051
0.14716381
0.15128196
0.15506648
0.15837607
0.16100008
0.16260415
0.16249184
0.16034857
0.15783435
0.15627334
0.15510143
0.15406228
0.15309506
0.15223611
0.15152975
0.15096972
0.1505802
0.15033401
0.063852455
0.071264943
0.079257046
0.087457639
0.09554518
0.10320686
0.11022917
0.11657552
0.12233714
0.12764699
0.1326267
0.13736576
0.14190965
0.14626108
0.15038209
0.15419125
0.15755644
0.16028223
0.16206176
0.16224483
0.1603309
0.15783834
0.15632084
0.15517958
0.15415181
0.15319979
0.15234741
0.15164036
0.15107751
0.15068405
0.15043457
0.066000164
0.072715953
0.079990254
0.087646257
0.095309918
0.10266776
0.10952807
0.11580366
0.12153524
0.12682418
0.13177969
0.13649071
0.14100842
0.14534158
0.14945877
0.15328584
0.15669937
0.15951572
0.161448
0.16195161
0.16027927
0.15784347
0.15636524
0.15523564
0.15422733
0.15329767
0.15245545
0.15175135
0.15118747
0.15079111
0.15053902
0.068846618
0.074920262
0.081500668
0.088422414
0.095480026
0.10240752
0.10897949
0.11508925
0.12073364
0.12597474
0.13089759
0.13558081
0.14007446
0.14439093
0.14850396
0.15234612
0.15580253
0.15869874
0.16076151
0.16149588
0.16018825
0.15786719
0.15636075
0.15524596
0.15430689
0.15339279
0.15256333
0.15186295
0.15129934
0.15090144
0.15064725
0.071978013
0.077375063
0.083243741
0.089472406
0.095889467
0.1022915
0.10848862
0.1143623
0.11987495
0.12504908
0.12993828
0.13460216
0.13908289
0.14339291
0.14750862
0.15136839
0.15486613
0.15783839
0.16003221
0.16101252
0.1600779
0.1578598
0.1563213
0.15525406
0.15436502
0.15347116
0.15266356
0.15197254
0.1514129
0.15101439
0.1507585
0.074986793
0.079729887
0.084907351
0.09044685
0.096228328
0.10210003
0.10790607
0.11352587
0.11889519
0.1240015
0.12886697
0.13352808
0.13801423
0.14233369
0.14646447
0.15034973
0.1538915
0.1569389
0.15926121
0.16047454
0.1599055
0.15781875
0.15628934
0.15525346
0.15439043
0.15354707
0.15275982
0.15208099
0.15152572
0.15112896
0.15087299
0.077487874
0.081647146
0.086210716
0.091134096
0.096333531
0.10172482
0.10716338
0.11253861
0.11777033
0.12281756
0.12767354
0.13235062
0.13686259
0.14121029
0.14537079
0.14929125
0.15288171
0.15600374
0.15844794
0.15987091
0.15959511
0.15775743
0.15622724
0.15523532
0.15440479
0.15360952
0.15284965
0.15218424
0.1516398
0.15124558
0.15098903
0.07923781
0.08291179
0.086971627
0.091393054
0.096142822
0.10111561
0.10622764
0.11138212
0.11649381
0.12150045
0.12636659
0.13107996
0.13563759
0.14003125
0.14423603
0.14820136
0.15184448
0.15503973
0.15759854
0.15921895
0.15930143
0.15763199
0.15613693
0.15521379
0.15440412
0.15364508
0.15292441
0.15228515
0.15175041
0.15136134
0.15110751
0.080242757
0.083515419
0.087159851
0.091189932
0.095558575
0.10020648
0.10506952
0.11005739
0.11508136
0.12006931
0.12496792
0.12974015
0.13436348
0.13881927
0.14307949
0.14709617
0.15079348
0.1540576
0.15671917
0.15850964
0.15891585
0.15748626
0.15606954
0.1551644
0.15437765
0.15368079
0.15299897