/*--------------------------------*- C++ -*----------------------------------*\
| =========                 |                                                 |
| \\      /  F ield         | OpenFOAM: The Open Source CFD Toolbox           |
|  \\    /   O peration     | Version:  2406                                  |
|   \\  /    A nd           | Website:  www.openfoam.com                      |
|    \\/     M anipulation  |                                                 |
\*---------------------------------------------------------------------------*/
FoamFile
{
    version     2.0;
    format      ascii;
    arch        "LSB;label=32;scalar=64";
    class       volScalarField;
    location    "0.003";
    object      Ma;
}
// * * * * * * * * * * * * * * * * * * * * * * * * * * * * * * * * * * * * * //

dimensions      [0 0 0 0 0 0 0];

internalField   nonuniform List<scalar> 
23204
(
0.15450046
0.15450492
0.15450874
0.15450771
0.15450852
0.15457346
0.15456169
0.15455174
0.15454288
0.15453586
0.15453184
0.15452953
0.15452849
0.15452878
0.15452982
0.15453207
0.15453508
0.15453886
0.15454323
0.15454764
0.15455134
0.15455027
0.15455085
0.1554866
0.1553989
0.15531688
0.1552404
0.15516929
0.15510339
0.15504251
0.15498645
0.15493501
0.15488795
0.15484507
0.15480616
0.154771
0.15473937
0.15471108
0.15468595
0.15466392
0.15464478
0.1546285
0.15461467
0.15460323
0.15459364
0.15458512
0.15457817
0.15457421
0.15457209
0.15457119
0.15457157
0.15457267
0.15457498
0.15457806
0.15458193
0.15458632
0.15459068
0.15459425
0.15459316
0.15459347
0.15972041
0.1598079
0.15987027
0.15990815
0.15992235
0.15991377
0.1598832
0.15983149
0.15975962
0.15966865
0.15955966
0.1594338
0.15929217
0.1591357
0.15896484
0.15877896
0.15857513
0.15834525
0.15806564
0.15769874
0.15732331
0.15707107
0.15688848
0.15672185
0.15655881
0.15641429
0.15628078
0.15615124
0.15602823
0.15591174
0.15580182
0.15569821
0.15560071
0.15550911
0.15542324
0.15534293
0.15526804
0.15519843
0.15513392
0.15507434
0.15501948
0.15496914
0.15492311
0.15488116
0.1548431
0.15480872
0.15477781
0.15475015
0.15472562
0.15470413
0.15468549
0.15466964
0.15465622
0.15464513
0.15463588
0.1546277
0.15462086
0.15461695
0.15461498
0.15461421
0.15461469
0.15461584
0.15461823
0.15462136
0.15462532
0.15462974
0.15463403
0.15463747
0.15463636
0.15463639
0.14119876
0.14209269
0.14296733
0.14382248
0.14465812
0.14547424
0.14627081
0.14704774
0.1478049
0.1485421
0.14925911
0.14995564
0.15063136
0.1512859
0.15191885
0.15252976
0.15311817
0.15368359
0.15422552
0.15474345
0.15523689
0.15570534
0.15614835
0.15656548
0.15695635
0.15732062
0.15765802
0.15796835
0.1582515
0.15850743
0.15873621
0.15893802
0.15911313
0.15926198
0.15938493
0.15948232
0.15955477
0.15960291
0.1596275
0.15962948
0.15960974
0.15956917
0.15950876
0.15942964
0.15933295
0.15921993
0.1590918
0.1589497
0.15879446
0.15862618
0.15844335
0.15824088
0.15800302
0.15768789
0.15732743
0.15706543
0.15688056
0.15671904
0.15656083
0.15641714
0.15628564
0.15615944
0.15603926
0.15592532
0.1558178
0.15571645
0.15562108
0.15553148
0.15544748
0.15536894
0.15529571
0.15522764
0.15516457
0.15510632
0.15505269
0.15500349
0.15495849
0.15491751
0.15488032
0.15484674
0.15481655
0.15478956
0.15476562
0.15474468
0.15472654
0.15471114
0.15469814
0.15468738
0.15467847
0.15467061
0.15466392
0.15466007
0.15465821
0.15465757
0.15465814
0.15465933
0.1546618
0.15466499
0.15466901
0.15467346
0.15467769
0.154681
0.15467986
0.15467958
0.14060848
0.14150481
0.14238236
0.14324087
0.14408029
0.14490057
0.14570169
0.14648353
0.14724596
0.14798878
0.14871174
0.14941453
0.15009683
0.15075823
0.15139832
0.15201663
0.15261268
0.15318597
0.15373598
0.1542622
0.1547641
0.15524118
0.15569296
0.15611901
0.15651892
0.15689234
0.157239
0.15755868
0.15785127
0.15811674
0.15835514
0.15856666
0.15875157
0.15891026
0.15904308
0.15915052
0.15923317
0.15929171
0.15932684
0.15933949
0.15933067
0.15930129
0.15925239
0.1591851
0.15910065
0.15900034
0.15888549
0.1587574
0.15861724
0.1584657
0.15830241
0.15812472
0.15792285
0.1576621
0.15733085
0.15705872
0.15687149
0.15671506
0.15656241
0.15641854
0.15628944
0.15616694
0.15604976
0.15593846
0.15583342
0.1557344
0.15564123
0.15555369
0.15547164
0.15539492
0.15532339
0.15525691
0.15519532
0.15513844
0.15508608
0.15503804
0.15499412
0.15495411
0.15491782
0.15488506
0.15485561
0.15482929
0.15480597
0.15478558
0.15476795
0.15475299
0.15474039
0.15472997
0.15472137
0.15471384
0.15470735
0.15470354
0.15470177
0.15470125
0.15470189
0.15470314
0.15470568
0.15470893
0.15471301
0.15471748
0.15472165
0.15472481
0.15472366
0.15472305
0.14001923
0.14091727
0.14179699
0.14265818
0.14350075
0.14432466
0.14512981
0.14591611
0.14668339
0.14743143
0.14815997
0.1488687
0.14955725
0.15022523
0.15087219
0.15149767
0.15210115
0.15268212
0.15324005
0.15377441
0.15428465
0.15477026
0.15523075
0.15566567
0.15607459
0.15645715
0.15681308
0.15714215
0.15744424
0.15771931
0.15796742
0.15818874
0.15838357
0.15855225
0.15869514
0.15881277
0.15890576
0.15897479
0.15902061
0.15904407
0.15904624
0.15902812
0.15899075
0.1589353
0.15886304
0.15877531
0.15867353
0.15855915
0.15843357
0.15829798
0.15815296
0.15799771
0.15782718
0.15761802
0.15732994
0.15705153
0.15686264
0.15670996
0.15656235
0.15641945
0.15629277
0.15617377
0.15605975
0.15595116
0.15584867
0.15575206
0.15566115
0.15557575
0.1554957
0.15542086
0.15535109
0.15528625
0.15522618
0.1551707
0.15511964
0.1550728
0.15502997
0.15499096
0.15495559
0.15492366
0.15489497
0.15486933
0.15484664
0.15482682
0.15480969
0.15479518
0.15478297
0.15477289
0.1547646
0.15475737
0.15475111
0.15474738
0.15474565
0.15474524
0.15474594
0.15474725
0.15474987
0.15475317
0.15475729
0.15476179
0.1547659
0.15476891
0.15476775
0.15476679
0.13943183
0.14033077
0.14121189
0.14207507
0.14292018
0.14374713
0.14455581
0.14534609
0.14611777
0.14687062
0.14760437
0.14831867
0.14901315
0.1496874
0.15034096
0.15097334
0.15158402
0.15217247
0.15273814
0.15328047
0.15379892
0.15429295
0.15476206
0.15520578
0.15562367
0.15601537
0.15638057
0.15671906
0.15703069
0.15731543
0.15757333
0.15780456
0.15800939
0.15818817
0.15834127
0.15846922
0.15857266
0.15865231
0.15870892
0.15874334
0.15875659
0.15874978
0.15872399
0.15868037
0.15862025
0.158545
0.15845611
0.15835516
0.15824374
0.15812343
0.15799554
0.15786075
0.15771767
0.15755458
0.15731741
0.15704626
0.15685371
0.15670179
0.15656079
0.15642176
0.15629579
0.15617997
0.1560692
0.15596341
0.15586354
0.15576941
0.15568084
0.15559765
0.15551967
0.15544676
0.1553788
0.15531564
0.15525713
0.15520311
0.15515337
0.15510775
0.15506604
0.15502806
0.15499362
0.15496255
0.15493462
0.15490969
0.15488763
0.15486838
0.15485176
0.15483769
0.15482588
0.15481613
0.15480814
0.15480121
0.15479521
0.15479155
0.15478986
0.15478952
0.15479028
0.15479167
0.15479435
0.15479769
0.15480185
0.15480637
0.15481042
0.15481329
0.15481211
0.15481077
0.13792981
0.13884649
0.13974558
0.14062741
0.14149191
0.14233895
0.14316839
0.14398008
0.14477385
0.14554948
0.14630673
0.14704528
0.14776479
0.14846487
0.14914508
0.14980495
0.15044396
0.1510616
0.15165731
0.15223052
0.15278066
0.15330718
0.15380951
0.15428714
0.15473959
0.1551664
0.1555672
0.15594168
0.1562896
0.15661082
0.15690528
0.15717304
0.15741426
0.15762919
0.15781818
0.1579816
0.15811999
0.15823401
0.15832438
0.15839189
0.15843738
0.15846183
0.1584664
0.15845221
0.15842044
0.15837242
0.15830957
0.15823343
0.15814566
0.15804803
0.15794241
0.1578307
0.1577147
0.1575956
0.15746814
0.15728763
0.15704163
0.15684457
0.15669242
0.1565577
0.15642354
0.15629772
0.15618568
0.15607804
0.15597519
0.15587803
0.15578646
0.15570031
0.15561939
0.15554354
0.15547263
0.15540653
0.1553451
0.15528819
0.15523564
0.15518727
0.1551429
0.15510234
0.1550654
0.15503192
0.15500171
0.15497457
0.15495035
0.15492894
0.15491026
0.15489416
0.15488053
0.15486911
0.15485968
0.15485198
0.15484534
0.15483961
0.15483605
0.15483439
0.15483409
0.15483489
0.15483637
0.1548391
0.1548425
0.15484667
0.15485122
0.15485521
0.15485794
0.15485672
0.154855
0.13734801
0.13826348
0.13916204
0.14004397
0.14090919
0.14175756
0.14258892
0.14340308
0.14419984
0.14497897
0.14574017
0.14648313
0.14720748
0.1479128
0.14859864
0.14926451
0.14990989
0.15053423
0.15113697
0.15171752
0.15227529
0.15280971
0.15332021
0.15380626
0.15426735
0.15470302
0.15511289
0.15549663
0.15585399
0.15618481
0.15648904
0.15676672
0.157018
0.15724313
0.15744241
0.15761626
0.15776521
0.15788993
0.15799113
0.15806963
0.15812629
0.15816207
0.15817808
0.15817552
0.15815562
0.15811969
0.15806917
0.15800565
0.15793086
0.1578467
0.15775528
0.15765893
0.15756033
0.15746244
0.15736522
0.15723818
0.15703162
0.15683503
0.15668321
0.15655304
0.15642375
0.15629976
0.15619088
0.15608613
0.15598646
0.15589214
0.15580321
0.15571955
0.15564096
0.1555673
0.15549844
0.15543426
0.1553746
0.15531934
0.15526831
0.15522133
0.15517824
0.15513884
0.15510297
0.15507047
0.15504114
0.15501481
0.15499131
0.15497056
0.15495246
0.15493687
0.15492368
0.15491264
0.15490354
0.15489612
0.15488976
0.15488431
0.15488085
0.15487921
0.15487895
0.15487977
0.15488134
0.15488413
0.15488756
0.15489175
0.15489631
0.15490026
0.15490284
0.15490158
0.15489947
0.13676976
0.13768337
0.13858079
0.13946218
0.1403275
0.1411766
0.1420093
0.14282539
0.14362463
0.14440676
0.14517148
0.14591842
0.1466472
0.14735739
0.14804852
0.14872009
0.14937154
0.15000232
0.15061184
0.1511995
0.15176471
0.15230686
0.15282538
0.15331972
0.15378935
0.15423382
0.1546527
0.15504567
0.15541245
0.1557529
0.15606693
0.15635458
0.15661598
0.15685137
0.15706104
0.15724542
0.15740504
0.15754056
0.15765271
0.1577423
0.15781021
0.15785741
0.15788496
0.15789408
0.15788606
0.1578622
0.15782396
0.15777296
0.15771097
0.15764002
0.15756238
0.15748071
0.15739831
0.15731944
0.15724812
0.15717034
0.15701627
0.15682499
0.15667367
0.15654559
0.15642284
0.15630312
0.15619534
0.15609346
0.15599724
0.15590585
0.15581966
0.15573855
0.15566237
0.15559097
0.15552422
0.15546199
0.15540416
0.15535058
0.1553011
0.15525555
0.15521376
0.15517555
0.15514078
0.15510926
0.15508084
0.15505532
0.15503256
0.15501247
0.15499495
0.15497988
0.15496712
0.15495647
0.15494769
0.15494055
0.15493445
0.15492929
0.15492595
0.15492433
0.15492408
0.15492492
0.15492658
0.1549294
0.15493287
0.15493706
0.15494165
0.15494555
0.15494798
0.15494668
0.15494416
0.136196
0.13710701
0.13800256
0.13888277
0.13974755
0.14059676
0.14143021
0.14224766
0.14304886
0.1438335
0.14460125
0.14535173
0.14608454
0.14679922
0.14749528
0.14817219
0.1488294
0.14946632
0.15008236
0.1506769
0.15124933
0.15179903
0.1523254
0.15282789
0.15330595
0.15375911
0.15418694
0.15458909
0.15496528
0.15531535
0.15563919
0.15593684
0.15620841
0.15645412
0.15667426
0.15686926
0.15703965
0.15718608
0.15730927
0.15741004
0.15748928
0.15754797
0.15758715
0.15760802
0.15761189
0.1576001
0.15757411
0.15753555
0.15748623
0.15742825
0.15736402
0.15729646
0.1572293
0.15716766
0.15711829
0.15707838
0.15698621
0.15681393
0.15666356
0.15653713
0.15642062
0.15630596
0.15619866
0.15610024
0.1560075
0.15591917
0.1558358
0.15575733
0.15568362
0.15561453
0.15554995
0.15548973
0.15543377
0.15538191
0.15533402
0.15528992
0.15524946
0.15521247
0.1551788
0.1551483
0.15512079
0.1550961
0.15507409
0.15505467
0.15503774
0.15502318
0.15501086
0.15500058
0.15499211
0.15498524
0.15497942
0.15497453
0.15497131
0.15496973
0.15496947
0.15497031
0.15497206
0.15497492
0.15497842
0.1549826
0.15498721
0.15499107
0.15499336
0.15499198
0.15498906
0.13562759
0.13653525
0.13742822
0.13830655
0.13917014
0.14001884
0.14085244
0.14167068
0.14247328
0.1432599
0.14403019
0.14478375
0.14552015
0.1462389
0.1469395
0.1476214
0.14828403
0.14892679
0.14954907
0.15015022
0.15072963
0.15128666
0.1518207
0.15233118
0.15281753
0.15327927
0.15371596
0.15412722
0.15451278
0.15487244
0.1552061
0.15551377
0.15579554
0.15605161
0.1562823
0.15648799
0.15666923
0.15682665
0.15696098
0.15707302
0.15716368
0.15723391
0.1572848
0.15731749
0.15733329
0.15733356
0.15731979
0.1572936
0.15725682
0.15721163
0.15716053
0.15710659
0.15705385
0.157008
0.15697741
0.15696769
0.15693516
0.15679987
0.1566529
0.15652883
0.15641781
0.15630702
0.15620102
0.15610664
0.15601726
0.15593212
0.15585164
0.15577588
0.15570471
0.155638
0.15557563
0.15551748
0.15546342
0.15541333
0.15536705
0.15532444
0.15528533
0.15524958
0.15521705
0.15518757
0.15516099
0.15513714
0.15511589
0.15509714
0.15508081
0.15506676
0.15505487
0.15504496
0.1550368
0.15503021
0.15502464
0.15502002
0.15501693
0.15501539
0.15501512
0.15501594
0.15501778
0.15502065
0.15502418
0.15502836
0.15503298
0.1550368
0.15503896
0.15503749
0.15503416
0.13506559
0.1359691
0.13685875
0.1377345
0.13859623
0.13944378
0.1402769
0.14109533
0.14189875
0.14268681
0.14345912
0.14421526
0.14495478
0.14567716
0.14638189
0.14706839
0.14773608
0.14838434
0.14901254
0.14962002
0.15020615
0.15077027
0.15131177
0.15183004
0.15232453
0.15279472
0.15324015
0.15366045
0.15405531
0.15442452
0.15476797
0.15508565
0.15537763
0.15564411
0.15588538
0.15610183
0.15629399
0.15646249
0.15660803
0.15673143
0.15683357
0.15691543
0.15697806
0.15702263
0.1570504
0.15706274
0.15706118
0.1570473
0.15702297
0.15699041
0.15695218
0.15691146
0.15687247
0.15684124
0.15682704
0.15684092
0.15685799
0.15677768
0.15664125
0.15652002
0.15641295
0.156307
0.15620394
0.15611273
0.15602653
0.15594468
0.15586718
0.15579419
0.15572563
0.15566136
0.15560126
0.15554522
0.15549312
0.15544483
0.1554002
0.1553591
0.15532138
0.15528689
0.1552555
0.15522707
0.15520143
0.15517844
0.15515795
0.15513989
0.15512415
0.15511061
0.15509915
0.1550896
0.15508175
0.15507542
0.1550701
0.15506574
0.15506279
0.1550613
0.155061
0.15506181
0.15506372
0.1550666
0.15507015
0.15507431
0.15507895
0.15508273
0.15508476
0.15508318
0.15507944
0.13451121
0.13540977
0.13629531
0.13716774
0.13802692
0.13887263
0.13970463
0.14052262
0.14132626
0.14211518
0.14288896
0.14364716
0.14438929
0.14511483
0.14582324
0.14651392
0.14718628
0.14783966
0.14847344
0.14908693
0.14967948
0.15025044
0.15079915
0.15132502
0.15182745
0.15230592
0.15275996
0.15318918
0.15359325
0.15397196
0.15432515
0.15465281
0.15495501
0.15523191
0.15548379
0.15571105
0.15591418
0.15609381
0.15625064
0.15638546
0.15649915
0.15659269
0.15666712
0.1567236
0.15676338
0.15678783
0.15679845
0.15679685
0.15678489
0.15676482
0.15673926
0.15671143
0.15668564
0.15666808
0.1566685
0.15670074
0.15675763
0.15674234
0.1566286
0.15651036
0.15640563
0.15630582
0.15620777
0.15611843
0.15603533
0.15595686
0.15588241
0.15581228
0.15574639
0.15568462
0.15562685
0.15557296
0.15552286
0.1554764
0.15543346
0.1553939
0.15535758
0.15532438
0.15529416
0.15526679
0.15524211
0.15521998
0.15520027
0.15518289
0.15516775
0.15515472
0.15514368
0.15513449
0.15512694
0.15512087
0.1551158
0.15511169
0.15510887
0.15510743
0.15510711
0.1551079
0.15510987
0.15511275
0.1551163
0.15512045
0.15512511
0.15512885
0.15513075
0.15512905
0.15512491
0.13396587
0.13485863
0.13573924
0.13660759
0.13746346
0.13830663
0.13913681
0.1399537
0.14075692
0.14154608
0.14232074
0.14308043
0.14382464
0.14455283
0.14526443
0.14595884
0.14663543
0.14729354
0.14793251
0.14855166
0.14915032
0.1497278
0.15028347
0.15081667
0.15132683
0.1518134
0.15227589
0.15271388
0.15312705
0.15351515
0.15387803
0.15421563
0.15452801
0.15481532
0.15507783
0.15531591
0.15553005
0.15572086
0.15588902
0.15603532
0.15616062
0.15626589
0.15635216
0.15642059
0.15647241
0.15650898
0.15653178
0.15654244
0.15654278
0.1565351
0.15652203
0.15650681
0.15649377
0.15648918
0.15650283
0.15654961
0.15663633
0.15668851
0.15661314
0.15649972
0.15639766
0.15630321
0.15621075
0.15612351
0.15604368
0.15596861
0.15589735
0.15583015
0.15576699
0.15570777
0.15565238
0.15560071
0.15555264
0.15550805
0.15546683
0.15542884
0.15539395
0.15536205
0.15533301
0.15530672
0.15528302
0.15526176
0.15524283
0.15522614
0.15521159
0.15519907
0.15518845
0.15517961
0.15517237
0.15516655
0.15516172
0.15515784
0.15515517
0.15515377
0.15515342
0.1551542
0.15515621
0.15515907
0.15516262
0.15516676
0.15517143
0.15517514
0.15517692
0.15517506
0.15517054
0.13343117
0.13431724
0.13519208
0.1360555
0.13690728
0.13774714
0.13857478
0.13938986
0.14019198
0.14098072
0.14175563
0.1425162
0.14326191
0.1439922
0.14470647
0.14540409
0.14608444
0.14674683
0.14739058
0.148015
0.1486194
0.14920308
0.14976538
0.15030565
0.15082329
0.15131772
0.15178846
0.15223507
0.15265719
0.15305457
0.15342703
0.15377449
0.15409701
0.1543947
0.15466782
0.15491673
0.1551419
0.15534391
0.15552344
0.15568125
0.1558182
0.15593524
0.15603339
0.15611379
0.15617767
0.15622637
0.15626137
0.15628425
0.15629684
0.15630148
0.15630075
0.1562979
0.15629728
0.15630509
0.15633089
0.15638954
0.15649656
0.15660711
0.15658862
0.15648839
0.15638981
0.15630021
0.15621219
0.15612778
0.15605161
0.15597994
0.15591199
0.15584779
0.15578744
0.15573083
0.15567787
0.15562844
0.15558245
0.15553977
0.1555003
0.1554639
0.15543047
0.15539989
0.15537206
0.15534686
0.15532414
0.15530377
0.15528562
0.15526962
0.15525567
0.15524365
0.15523344
0.15522496
0.155218
0.15521244
0.15520784
0.15520418
0.15520167
0.15520029
0.15519993
0.15520069
0.15520273
0.15520556
0.1552091
0.15521322
0.1552179
0.15522158
0.15522324
0.15522121
0.15521631
0.13290887
0.13378732
0.13465548
0.13551312
0.13635996
0.13719571
0.13802002
0.13883252
0.13963281
0.14042043
0.14119489
0.1419557
0.14270228
0.14343405
0.14415042
0.14485072
0.14553431
0.14620048
0.14684855
0.14747781
0.14808755
0.14867705
0.14924564
0.14979266
0.15031749
0.15081953
0.15129829
0.1517533
0.1521842
0.1525907
0.15297262
0.15332985
0.15366241
0.15397043
0.15425413
0.15451384
0.15475003
0.15496325
0.15515415
0.1553235
0.15547213
0.15560096
0.15571101
0.15580341
0.15587936
0.1559402
0.15598739
0.1560225
0.15604728
0.15606416
0.15607567
0.156085
0.15609651
0.15611625
0.15615337
0.15622219
0.15634267
0.15649843
0.15655632
0.15647521
0.15638139
0.15629625
0.15621265
0.15613175
0.15605923
0.1559909
0.15592634
0.15586521
0.15580773
0.15575379
0.15570331
0.15565618
0.1556123
0.15557156
0.15553386
0.15549908
0.15546713
0.1554379
0.15541129
0.15538719
0.15536548
0.155346
0.15532864
0.15531333
0.15529997
0.15528845
0.15527865
0.15527051
0.15526385
0.15525853
0.15525415
0.1552507
0.15524833
0.15524699
0.15524661
0.15524737
0.15524941
0.1552522
0.15525572
0.15525982
0.15526451
0.15526815
0.1552697
0.15526749
0.15526223
0.13240089
0.13327075
0.13413127
0.1349822
0.13582321
0.13665397
0.13747412
0.13828324
0.1390809
0.13986663
0.14063993
0.14140025
0.14214702
0.14287963
0.14359746
0.14429985
0.14498611
0.14565553
0.14630742
0.14694103
0.14755565
0.14815056
0.14872506
0.14927847
0.14981015
0.15031951
0.15080601
0.15126919
0.15170865
0.15212409
0.1525153
0.15288217
0.15322468
0.15354293
0.15383714
0.15410761
0.15435478
0.15457919
0.15478147
0.15496235
0.15512265
0.15526329
0.15538526
0.15548966
0.15557769
0.15565066
0.15571004
0.15575736
0.15579431
0.15582337
0.15584701
0.15586839
0.15589178
0.15592306
0.15597092
0.15604885
0.15617806
0.15636374
0.15649802
0.15645862
0.15637191
0.15629041
0.15621244
0.15613627
0.15606663
0.15600154
0.15594039
0.15588242
0.15582787
0.15577665
0.1557287
0.1556839
0.15564218
0.15560341
0.15556752
0.15553439
0.15550393
0.15547607
0.1554507
0.15542772
0.15540701
0.15538843
0.15537187
0.15535725
0.15534447
0.15533345
0.15532406
0.15531625
0.15530987
0.1553048
0.15530065
0.1552974
0.15529516
0.15529383
0.15529345
0.15529421
0.15529623
0.15529897
0.15530247
0.15530653
0.15531123
0.15531483
0.15531629
0.15531386
0.15530826
0.13190925
0.13276949
0.13362138
0.13446462
0.13529885
0.13612371
0.13693878
0.13774365
0.13853785
0.13932088
0.14009221
0.14085129
0.14159751
0.14233026
0.14304887
0.14375269
0.144441
0.14511309
0.14576823
0.14640567
0.14702468
0.14762453
0.1482045
0.14876389
0.14930206
0.14981839
0.15031233
0.15078339
0.15123117
0.15165533
0.15205564
0.15243197
0.15278428
0.15311265
0.15341727
0.15369842
0.15395652
0.15419207
0.15440569
0.15459808
0.15477006
0.15492249
0.15505637
0.15517277
0.15527287
0.15535797
0.15542951
0.15548912
0.15553815
0.15557932
0.15561501
0.15564831
0.15568339
0.15572591
0.15578409
0.15587049
0.15600569
0.15620804
0.15641095
0.15643819
0.15636146
0.15628342
0.15621102
0.15614067
0.15607372
0.1560119
0.15595415
0.15589942
0.15584786
0.15579942
0.15575404
0.15571163
0.15567209
0.15563533
0.15560126
0.15556981
0.15554087
0.15551439
0.15549027
0.15546843
0.15544874
0.15543107
0.15541531
0.15540136
0.15538917
0.15537863
0.15536964
0.15536218
0.15535608
0.15535124
0.1553473
0.15534426
0.15534211
0.15534081
0.15534045
0.15534119
0.15534318
0.15534587
0.15534933
0.15535335
0.15535805
0.15536162
0.15536298
0.15536033
0.1553544
0.13143602
0.13228557
0.13312778
0.13396231
0.13478876
0.13560673
0.13641579
0.13721548
0.13800532
0.13878477
0.13955329
0.14031031
0.14105519
0.1417873
0.14250598
0.14321052
0.14390021
0.14457432
0.1452321
0.1458728
0.14649566
0.14709993
0.14768489
0.14824982
0.14879406
0.14931697
0.149818
0.15029662
0.15075241
0.15118503
0.15159421
0.1519798
0.15234173
0.15268007
0.15299497
0.15328669
0.15355562
0.15380225
0.15402715
0.15423102
0.15441462
0.15457883
0.1547246
0.15485298
0.15496513
0.15506233
0.15514601
0.15521791
0.15527904
0.15533221
0.15537987
0.15542499
0.1554716
0.15552513
0.15559333
0.15568784
0.1558277
0.15603782
0.15629197
0.15640612
0.15634945
0.15627633
0.15620876
0.15614372
0.15608041
0.15602197
0.15596762
0.15591623
0.1558677
0.1558221
0.15577934
0.15573934
0.15570202
0.1556673
0.1556351
0.15560533
0.15557794
0.15555285
0.15553
0.15550931
0.15549065
0.1554739
0.15545893
0.15544567
0.15543405
0.15542399
0.1554154
0.15540826
0.15540244
0.15539784
0.1553941
0.15539124
0.15538918
0.15538791
0.15538758
0.15538829
0.15539024
0.15539286
0.15539628
0.15540026
0.15540495
0.15540848
0.15540976
0.15540686
0.15540063
0.13098323
0.131821
0.13265245
0.13347721
0.13429484
0.13510491
0.13590696
0.13670049
0.13748501
0.13825996
0.13902478
0.13977886
0.14052156
0.14125222
0.14197017
0.14267468
0.14336503
0.14404047
0.14470023
0.14534354
0.14596965
0.14657778
0.1471672
0.14773717
0.14828701
0.14881608
0.14932379
0.14980961
0.15027309
0.15071386
0.15113164
0.15152624
0.15189759
0.1522457
0.15257072
0.15287287
0.15315252
0.15341011
0.15364622
0.15386148
0.15405666
0.15423259
0.15439021
0.15453054
0.15465471
0.15476398
0.15485975
0.15494365
0.15501718
0.15508225
0.15514181
0.15519865
0.15525666
0.15532103
0.15539905
0.15550147
0.15564553
0.1558578
0.15614161
0.15634751
0.15633375
0.15626914
0.15620608
0.15614567
0.15608666
0.15603176
0.15598084
0.15593284
0.15588742
0.1558447
0.15580459
0.15576705
0.15573199
0.15569933
0.15566901
0.15564096
0.15561512
0.15559145
0.15556989
0.15555035
0.15553274
0.15551691
0.15550274
0.15549015
0.15547909
0.15546951
0.15546131
0.1554545
0.15544895
0.15544457
0.15544105
0.15543834
0.15543635
0.15543512
0.15543482
0.15543548
0.15543739
0.15543994
0.15544332
0.15544724
0.15545191
0.1554554
0.15545661
0.15545346
0.15544692
0.13055281
0.13137771
0.13219732
0.13301122
0.13381896
0.13462007
0.13541406
0.13620043
0.13697864
0.13774812
0.13850829
0.13925851
0.13999813
0.14072649
0.14144286
0.14214654
0.14283677
0.14351278
0.14417381
0.14481907
0.14544778
0.14605916
0.14665245
0.14722692
0.14778186
0.1483166
0.14883055
0.14932316
0.14979394
0.15024252
0.15066858
0.15107192
0.15145242
0.15181009
0.15214502
0.15245743
0.15274764
0.15301607
0.15326326
0.15348983
0.1536965
0.15388408
0.15405348
0.15420571
0.15434186
0.15446316
0.15457097
0.15466682
0.15475236
0.1548296
0.15490101
0.15496949
0.15503881
0.15511389
0.15520159
0.15531184
0.15546013
0.15567182
0.15596772
0.15625356
0.15631519
0.1562605
0.15620299
0.15614694
0.15609244
0.15604132
0.15599385
0.15594928
0.155907
0.15586721
0.15582981
0.15579476
0.15576198
0.15573141
0.155703
0.15567669
0.15565243
0.15563019
0.15560992
0.15559155
0.15557499
0.15556008
0.15554671
0.15553479
0.15552429
0.15551517
0.15550735
0.15550087
0.15549559
0.15549143
0.15548811
0.15548552
0.1554836
0.15548244
0.15548214
0.15548276
0.15548462
0.15548709
0.15549041
0.15549426
0.15549891
0.15550236
0.1555035
0.15550009
0.15549327
0.13014653
0.13095747
0.13176414
0.1325661
0.13336286
0.13415395
0.13493883
0.135717
0.13648787
0.13725088
0.13800541
0.13875081
0.13948643
0.14021156
0.14092549
0.14162748
0.14231676
0.14299257
0.1436541
0.14430058
0.14493119
0.14554516
0.1461417
0.14672007
0.14727954
0.14781944
0.14833914
0.14883807
0.14931574
0.14977174
0.15020573
0.15061747
0.15100683
0.15137378
0.1517184
0.15204085
0.15234143
0.15262054
0.15287867
0.15311641
0.15333446
0.1535336
0.15371471
0.15387876
0.15402682
0.1541601
0.15427991
0.15438777
0.15448535
0.15457449
0.15465767
0.15473773
0.15481825
0.15490395
0.15500126
0.15511932
0.15527206
0.15548241
0.15577928
0.15612206
0.15628436
0.15625006
0.15619945
0.15614771
0.15609764
0.15605068
0.15600669
0.15596553
0.15592647
0.15588964
0.15585498
0.15582246
0.155792
0.15576355
0.15573707
0.15571251
0.15568984
0.15566905
0.15565008
0.1556329
0.15561739
0.15560341
0.15559084
0.15557958
0.15556962
0.15556095
0.15555352
0.15554735
0.15554234
0.15553841
0.15553526
0.15553277
0.15553094
0.15552983
0.15552953
0.1555301
0.15553191
0.1555343
0.15553755
0.15554133
0.15554594
0.15554934
0.15555043
0.15554674
0.15553966
0.12976591
0.13056184
0.1313545
0.13214345
0.13292817
0.13370816
0.13448288
0.13525178
0.13601428
0.13676979
0.13751767
0.13825728
0.13898791
0.13970888
0.14041945
0.14111886
0.14180634
0.1424811
0.14314234
0.14378926
0.14442104
0.14503688
0.145636
0.14621763
0.14678104
0.14732552
0.14785043
0.14835519
0.14883928
0.14930226
0.14974378
0.15016357
0.15056146
0.15093739
0.1512914
0.15162365
0.15193439
0.15222397
0.15249286
0.15274163
0.15297092
0.15318149
0.15337419
0.15354997
0.15370986
0.15385504
0.1539868
0.15410664
0.15421612
0.15431709
0.15441199
0.15450354
0.1545952
0.15469145
0.1547983
0.15492421
0.15508173
0.15529103
0.15558289
0.15595496
0.15622259
0.15623626
0.15619525
0.15614808
0.1561026
0.15605984
0.15601938
0.15598161
0.15594581
0.155912
0.15588012
0.15585016
0.15582204
0.15579573
0.1557712
0.15574841
0.15572736
0.15570802
0.15569037
0.15567437
0.15565993
0.15564689
0.1556351
0.1556245
0.15561508
0.15560685
0.15559979
0.15559394
0.1555892
0.15558548
0.15558246
0.15558009
0.15557836
0.15557727
0.15557696
0.15557749
0.15557923
0.15558153
0.15558472
0.1555884
0.15559297
0.15559632
0.15559736
0.15559339
0.15558606
0.12941216
0.13019208
0.13096973
0.13174464
0.13251628
0.13328412
0.13404763
0.13480622
0.13555932
0.1363063
0.13704652
0.13777932
0.138504
0.13921984
0.13992609
0.140622
0.14130679
0.14197964
0.14263974
0.14328629
0.14391847
0.14453544
0.14513643
0.14572064
0.14628733
0.14683578
0.14736533
0.14787538
0.14836538
0.14883487
0.14928347
0.14971089
0.15011693
0.1505015
0.15086461
0.15120636
0.15152699
0.15182682
0.15210626
0.15236586
0.15260622
0.15282808
0.15303225
0.15321963
0.15339124
0.15354823
0.15369185
0.15382354
0.15394485
0.15405757
0.15416415
0.15426713
0.15436985
0.15447658
0.15459295
0.15472678
0.1548894
0.15509848
0.15538299
0.15576245
0.15612298
0.15621983
0.1561898
0.15614812
0.15610775
0.1560688
0.15603192
0.15599754
0.15596507
0.15593429
0.15590524
0.15587786
0.15585211
0.15582797
0.1558054
0.15578441
0.15576497
0.1557471
0.15573078
0.15571598
0.15570259
0.15569049
0.1556795
0.15566954
0.15566064
0.15565285
0.15564616
0.15564062
0.15563615
0.15563261
0.15562972
0.15562747
0.15562582
0.15562474
0.15562442
0.1556249
0.15562657
0.15562877
0.1556319
0.15563547
0.15563998
0.15564329
0.15564429
0.15564003
0.15563245
0.12908612
0.12984913
0.13061085
0.13137075
0.13212832
0.13288303
0.13363431
0.13438158
0.13512425
0.13586169
0.13659325
0.13731824
0.13803597
0.13874571
0.1394467
0.14013818
0.14081934
0.14148939
0.1421475
0.14279285
0.1434246
0.14404193
0.14464403
0.1452301
0.14579939
0.14635116
0.14688473
0.14739948
0.14789484
0.14837033
0.14882554
0.14926014
0.14967392
0.15006674
0.15043859
0.15078953
0.15111975
0.15142955
0.15171931
0.15198952
0.15224076
0.15247372
0.15268919
0.15288803
0.15307124
0.15323991
0.15339528
0.15353873
0.15367179
0.15379624
0.15391434
0.15402867
0.15414239
0.15425954
0.15438542
0.15452724
0.15469528
0.15490506
0.15518225
0.15555593
0.15597599
0.15618108
0.15618149
0.1561476
0.15611252
0.15607748
0.1560443
0.15601336
0.15598424
0.15595654
0.15593033
0.15590556
0.15588221
0.15586025
0.15583967
0.15582047
0.15580267
0.15578628
0.15577129
0.15575769
0.15574538
0.1557342
0.155724
0.15571469
0.1557063
0.15569893
0.1556926
0.15568737
0.15568316
0.15567978
0.15567703
0.15567489
0.1556733
0.15567223
0.15567189
0.15567231
0.1556739
0.15567601
0.15567907
0.15568253
0.15568697
0.15569022
0.15569118
0.15568665
0.15567881
0.12878828
0.1295336
0.13027853
0.13102255
0.13176515
0.13250579
0.13324389
0.13397888
0.13471015
0.13543706
0.13615897
0.13687518
0.13758498
0.13828765
0.13898243
0.13966853
0.14034516
0.1410115
0.14166673
0.14231001
0.14294051
0.14355739
0.14415983
0.14474702
0.14531819
0.14587259
0.14640953
0.14692836
0.14742849
0.14790943
0.14837072
0.14881202
0.14923308
0.14963373
0.15001393
0.15037369
0.15071319
0.15103265
0.15133245
0.15161302
0.15187491
0.15211877
0.15234535
0.15255549
0.15275014
0.15293035
0.15309734
0.15325243
0.15339713
0.1535332
0.15366276
0.15378835
0.15391298
0.1540405
0.15417588
0.15432578
0.15449955
0.1547109
0.15498197
0.15534397
0.15579149
0.15611443
0.15617043
0.15614702
0.15611649
0.15608583
0.15605653
0.15602909
0.15600334
0.15597875
0.15595541
0.15593328
0.15591234
0.15589258
0.155874
0.15585662
0.15584046
0.15582555
0.15581191
0.15579951
0.15578826
0.15577802
0.15576861
0.15575993
0.15575205
0.15574508
0.1557391
0.15573419
0.1557302
0.15572697
0.15572437
0.15572234
0.15572078
0.15571972
0.15571935
0.15571971
0.15572122
0.15572322
0.15572621
0.15572954
0.1557339
0.1557371
0.15573803
0.15573321
0.15572512
0.12851875
0.1292457
0.12997311
0.13070049
0.13142731
0.13215303
0.13287708
0.13359889
0.13431784
0.1350333
0.13574461
0.13645109
0.13715203
0.13784668
0.1385343
0.13921409
0.13988527
0.140547
0.14119846
0.14183881
0.14246721
0.14308282
0.14368479
0.14427233
0.14484464
0.14540096