/*--------------------------------*- C++ -*----------------------------------*\
| =========                 |                                                 |
| \\      /  F ield         | OpenFOAM: The Open Source CFD Toolbox           |
|  \\    /   O peration     | Version:  2406                                  |
|   \\  /    A nd           | Website:  www.openfoam.com                      |
|    \\/     M anipulation  |                                                 |
\*---------------------------------------------------------------------------*/
FoamFile
{
    version     2.0;
    format      ascii;
    arch        "LSB;label=32;scalar=64";
    class       volScalarField;
    location    "0.003";
    object      nut;
}
// * * * * * * * * * * * * * * * * * * * * * * * * * * * * * * * * * * * * * //

dimensions      [0 2 -1 0 0 0 0];

internalField   nonuniform List<scalar> 
23204
(
0.0043212107
0.004299734
0.0042806308
0.0042620809
0.0042545642
0.0044588782
0.00445086
0.0044442425
0.0044384357
0.0044328614
0.0044277022
0.0044220315
0.004415048
0.0044059109
0.0043944912
0.0043800496
0.0043635497
0.0043449106
0.0043241099
0.0043024941
0.0042832427
0.0042645973
0.0042568091
0.0048736115
0.0048367525
0.0048026741
0.0047709899
0.0047413847
0.0047136073
0.0046874622
0.0046628207
0.0046395823
0.0046176469
0.0045969589
0.0045774234
0.0045589073
0.0045413958
0.0045249956
0.0045098621
0.0044961198
0.0044838012
0.0044728736
0.0044633886
0.0044552048
0.0044484264
0.0044425233
0.0044369238
0.0044316304
0.0044258075
0.0044187146
0.0044094628
0.0043979467
0.0043833605
0.0043667048
0.0043479304
0.0043270269
0.0043052897
0.0042859022
0.0042671652
0.0042591118
0.18287982
0.1843341
0.18519725
0.18534242
0.18463981
0.18295031
0.18012641
0.17601527
0.17046382
0.16332059
0.15444463
0.14371494
0.13104236
0.11638716
0.099785725
0.08139954
0.061618936
0.041330341
0.022717966
0.010561725
0.0065886984
0.0058352106
0.0056409306
0.0055239953
0.0054269659
0.0053407715
0.0052622273
0.0051916631
0.005127594
0.0050693559
0.0050162622
0.0049678304
0.0049235779
0.0048829998
0.0048457082
0.0048112344
0.0047791821
0.0047492291
0.0047211184
0.0046946524
0.0046697028
0.0046461745
0.0046239728
0.004603047
0.0045833033
0.0045646027
0.0045469239
0.004530365
0.0045150736
0.0045011708
0.0044886867
0.004477587
0.0044679243
0.0044595699
0.0044526236
0.0044466098
0.0044409865
0.0044355667
0.0044295864
0.0044223766
0.0044130092
0.0044013971
0.0043866686
0.0043698611
0.0043509556
0.0043299504
0.0043081099
0.0042885991
0.0042697732
0.0042614631
0.075785306
0.078387438
0.081070831
0.083823901
0.086641665
0.089520875
0.092458937
0.09545358
0.098502747
0.10160454
0.10475721
0.10795913
0.11120879
0.11450478
0.11784575
0.12123038
0.12465727
0.12812489
0.13163139
0.13517441
0.1387509
0.14235676
0.14598651
0.14963281
0.15328601
0.15693348
0.16055898
0.16414188
0.16765634
0.17107042
0.17434525
0.17743414
0.18028129
0.18281387
0.18483881
0.18643525
0.1874603
0.18778665
0.18728319
0.18581
0.18321854
0.17935407
0.17406033
0.16718388
0.15857901
0.14811795
0.13570187
0.12127701
0.10485864
0.086573644
0.066748308
0.046127287
0.026523745
0.012338086
0.0069594913
0.0058993117
0.0056653673
0.0055434759
0.0054441544
0.0053564316
0.0052768216
0.0052052123
0.0051402655
0.0050812479
0.0050274482
0.0049783922
0.0049335883
0.0048925263
0.0048547928
0.0048199135
0.0047874827
0.0047571711
0.0047287173
0.0047019213
0.004676656
0.0046528314
0.0046303587
0.0046091921
0.0045892377
0.004570351
0.0045525045
0.0045357857
0.0045203328
0.0045062641
0.0044936081
0.00448233
0.0044724785
0.0044639481
0.0044568275
0.0044506895
0.0044450371
0.0044394974
0.0044333586
0.0044260238
0.0044165391
0.0044048301
0.0043899614
0.0043730058
0.0043539745
0.0043328785
0.0043109531
0.0042913324
0.0042724191
0.0042638632
0.0774626
0.080026689
0.082674542
0.085395973
0.088184681
0.091036367
0.093947832
0.096916503
0.099940203
0.10301704
0.10614533
0.10932361
0.11255055
0.11582499
0.11914586
0.12251217
0.12592289
0.12937689
0.13287278
0.13640871
0.13998216
0.14358962
0.14722623
0.15088537
0.15455808
0.15823251
0.16189321
0.16552037
0.16908895
0.17256779
0.17591857
0.17909453
0.18203799
0.18467147
0.18686556
0.18861153
0.18979898
0.1903052
0.18999929
0.18874096
0.18638092
0.18276304
0.17772778
0.1711195
0.16278854
0.15260083
0.14044865
0.12626535
0.11004701
0.091889598
0.072063384
0.051192395
0.03077479
0.014655483
0.0075098014
0.0059880066
0.0056926151
0.0055632733
0.0054611454
0.0053721854
0.0052916413
0.0052189558
0.0051531302
0.0050933003
0.0050387944
0.0049891051
0.0049437406
0.0049021811
0.0048639965
0.0048287021
0.0047958827
0.0047652023
0.0047363959
0.0047092617
0.0046836737
0.0046595472
0.0046367994
0.0046153892
0.0045952218
0.0045761479
0.0045581331
0.0045412529
0.0045256343
0.0045113937
0.0044985589
0.0044870962
0.0044770502
0.0044683382
0.0044610381
0.0044547639
0.0044490711
0.0044434163
0.0044371217
0.0044296542
0.0044200504
0.0044082427
0.0043932355
0.0043761354
0.0043569853
0.0043358144
0.0043138222
0.0042941061
0.0042751058
0.0042663171
0.079255462
0.081785745
0.084400864
0.087091611
0.08985127
0.092675022
0.095559306
0.098501351
0.10149891
0.10455009
0.10765332
0.11080725
0.11401076
0.11726292
0.12056295
0.12391017
0.12730392
0.13074347
0.13422787
0.13775578
0.1413252
0.14493321
0.14857557
0.15224632
0.15593723
0.15963719
0.16333154
0.16700126
0.17062212
0.17416368
0.17758818
0.18084903
0.1838881
0.18662968
0.18897306
0.19086912
0.19221861
0.19290325
0.19279317
0.19174807
0.18961816
0.18624617
0.18147044
0.17513141
0.16707688
0.15716693
0.14528559
0.13135437
0.11535192
0.097346475
0.077559281
0.056511762
0.035439563
0.017574936
0.0083271084
0.0061166635
0.0057243479
0.0055834152
0.0054787156
0.0053881989
0.0053066576
0.0052329259
0.0051661594
0.0051055024
0.0050502883
0.0049999572
0.0049540233
0.0049119548
0.0048733105
0.0048375917
0.0048043734
0.0047733147
0.0047441468
0.0047166669
0.0046907502
0.0046663168
0.0046432908
0.0046216351
0.0046012531
0.0045819909
0.0045638076
0.0045467645
0.004530976
0.0045165577
0.0045035376
0.0044918842
0.0044816395
0.0044727407
0.0044652562
0.0044588356
0.0044530868
0.0044473191
0.004440875
0.0044332682
0.0044235434
0.0044116349
0.004396491
0.0043792503
0.0043599903
0.0043387603
0.0043167192
0.004296923
0.004277835
0.0042688282
0.081174319
0.083670007
0.086256058
0.088918448
0.091649996
0.094445927
0.097302709
0.10021758
0.10318834
0.10621316
0.10929057
0.11241939
0.1155987
0.11882779
0.12210617
0.12543347
0.12880939
0.1322336
0.13570559
0.1392245
0.14278885
0.14639629
0.1500432
0.15372428
0.15743198
0.16115596
0.1648823
0.16859278
0.17226395
0.17586611
0.17936211
0.1827058
0.18583963
0.18869107
0.19117285
0.19321685
0.19472706
0.19558836
0.19567218
0.19483847
0.19293717
0.18981011
0.18529413
0.17922551
0.17144953
0.1618212
0.15021698
0.1365475
0.12077554
0.10294445
0.083232427
0.062073546
0.040486519
0.021120594
0.0095276857
0.0063112061
0.0057633865
0.0056043925
0.0054971779
0.0054044874
0.0053219079
0.0052471166
0.0051793381
0.0051178579
0.0050619179
0.0050109384
0.0049644265
0.0049218413
0.0048827285
0.0048465758
0.0048129489
0.0047815024
0.0047519647
0.0047241321
0.0046978811
0.0046731368
0.0046498301
0.0046279275
0.00460733
0.004587879
0.0045695268
0.0045523191
0.0045363564
0.0045217547
0.0045085429
0.0044966931
0.0044862451
0.0044771543
0.0044694811
0.0044629054
0.0044570816
0.0044512012
0.0044446151
0.0044368645
0.0044270177
0.0044150051
0.0043997268
0.0043823499
0.0043629907
0.0043417158
0.0043196433
0.004299783
0.0042806061
0.0042713969
0.080742801
0.083182829
0.085680244
0.088248435
0.090886694
0.093591777
0.096360349
0.099189483
0.10207672
0.10502002
0.10801773
0.11106852
0.1141714
0.11732563
0.12053077
0.1237866
0.12709306
0.13045021
0.1338581
0.13731667
0.14082551
0.14438367
0.14798936
0.15163956
0.1553296
0.15905264
0.16279903
0.16655563
0.170305
0.17402444
0.17768502
0.18125029
0.18467479
0.18790205
0.19086259
0.19347573
0.19566447
0.19733328
0.19836911
0.19864464
0.19802026
0.19634575
0.19346232
0.18920541
0.18340871
0.17591279
0.16656938
0.15524789
0.14184894
0.12632083
0.10868456
0.089080438
0.067867985
0.045887247
0.025279873
0.011244892
0.0066143899
0.0058145185
0.0056267278
0.0055158356
0.00542085
0.0053374347
0.0052614813
0.0051926656
0.0051303492
0.0050736744
0.0050220418
0.0049749435
0.0049318347
0.0048922446
0.0048556484
0.004821603
0.0047897597
0.0047598442
0.0047316525
0.0047050623
0.0046800035
0.0046564144
0.0046342641
0.0046134503
0.0045938101
0.0045752887
0.0045579144
0.0045417732
0.004526982
0.0045135725
0.004501521
0.0044908644
0.0044815766
0.0044737104
0.0044669719
0.0044610522
0.0044550565
0.004448336
0.0044404395
0.00443047
0.0044183496
0.0044029396
0.0043854315
0.0043659853
0.0043446788
0.004322592
0.0043026841
0.0042834169
0.004274021
0.082914303
0.085352439
0.0878426
0.090394251
0.093010205
0.09568986
0.098431388
0.10123269
0.10409178
0.10700692
0.10997669
0.11299996
0.11607593
0.11920412
0.12238432
0.12561658
0.12890117
0.13223849
0.13562899
0.13907301
0.14257063
0.1461214
0.14972406
0.15337619
0.15707374
0.16081055
0.16457768
0.16836273
0.17214901
0.17591462
0.17963138
0.18326364
0.18676678
0.19008564
0.19315331
0.19589258
0.19822242
0.20004715
0.20125498
0.20171971
0.20130229
0.1998525
0.19721104
0.19321225
0.18768791
0.18047365
0.17141792
0.16038407
0.14726358
0.1319915
0.11456872
0.095102099
0.07388733
0.051617028
0.030013907
0.013610804
0.0070950473
0.0058862405
0.0056512625
0.0055345454
0.0054377551
0.0053531132
0.0052759276
0.0052061249
0.0051429591
0.0050855451
0.00503326
0.0049855673
0.0049419275
0.0049018511
0.0048648018
0.0048303286
0.0047980798
0.004767779
0.0047392225
0.0047122887
0.0046869128
0.0046630401
0.0046406417
0.0046196113
0.0045997815
0.0045810901
0.004563547
0.0045472227
0.004532236
0.0045186228
0.0045063644
0.004495494
0.0044860045
0.0044779409
0.0044710322
0.0044649949
0.0044588791
0.0044520304
0.004443988
0.0044338959
0.0044216636
0.004406125
0.0043884913
0.0043689716
0.0043476467
0.0043255625
0.0043056236
0.0042862647
0.0042766973
0.085286387
0.087705561
0.090179781
0.09271238
0.095305633
0.097959843
0.10067415
0.10344717
0.10627743
0.10916357
0.11210442
0.11509912
0.1181471
0.12124812
0.12440222
0.12760976
0.1308713
0.1341876
0.13755949
0.14098773
0.14447285
0.14801488
0.15161312
0.1552657
0.15896921
0.16271813
0.1665042
0.17031577
0.1741369
0.17794647
0.18171709
0.18541394
0.18899337
0.19240159
0.19557373
0.19843473
0.20090191
0.20287939
0.20425631
0.20490742
0.20469428
0.20346679
0.2010653
0.19732324
0.1920708
0.18513988
0.17637397
0.16563201
0.15279703
0.13779202
0.1205997
0.10129735
0.080125789
0.057655613
0.03527286
0.01672776
0.0078589763
0.0059940143
0.0056794395
0.0055536087
0.0054552778
0.0053687501
0.0052904212
0.0052197082
0.0051556826
0.0050975284
0.0050445855
0.0049962899
0.0049521105
0.0049115388
0.0048740273
0.0048391173
0.0048064548
0.0047757618
0.0047468354
0.0047195546
0.0046938597
0.0046697027
0.0046470563
0.0046258095
0.0046057898
0.0045869274
0.0045692127
0.0045527004
0.0045375123
0.0045236895
0.0045112194
0.0045001305
0.0044904347
0.004482169
0.0044750826
0.0044689064
0.0044626638
0.0044556908
0.0044475039
0.00443729
0.004424942
0.0044092782
0.0043915256
0.0043719465
0.004350617
0.0043285519
0.0043085987
0.0042891475
0.0042794228
0.087864115
0.09025955
0.092712435
0.095222796
0.097791716
0.10041952
0.1031058
0.10584969
0.10865015
0.11150618
0.11441694
0.11738183
0.12040053
0.12347305
0.12659973
0.12978119
0.13301833
0.13631225
0.13966415
0.1430752
0.14654638
0.1500782
0.15367047
0.15732191
0.16102968
0.1647889
0.16859201
0.17242805
0.17628184
0.18013303
0.18395505
0.18771395
0.19136712
0.19486207
0.19813564
0.2011143
0.20371491
0.20584165
0.20738438
0.20821869
0.20820678
0.20719883
0.20503496
0.20154784
0.19656625
0.18991956
0.18144541
0.17099889
0.15845565
0.14372764
0.12678118
0.10766728
0.086579399
0.063986828
0.041007732
0.020642119
0.0090554579
0.0061659001
0.0057138486
0.0055733282
0.005472806
0.0053843009
0.0053050634
0.0052334225
0.0051685175
0.0051096254
0.0050560069
0.0050071011
0.0049623731
0.0049212976
0.0048833151
0.00484796
0.0048148763
0.004783785
0.0047544842
0.0047268539
0.0047008388
0.0046763978
0.004653504
0.0046320409
0.004611831
0.0045927965
0.004574907
0.0045582019
0.0045428061
0.004528768
0.0045160817
0.0045047704
0.0044948638
0.0044863912
0.0044791193
0.0044727836
0.004466406
0.0044593098
0.0044509811
0.0044406472
0.0044281802
0.004412395
0.0043945311
0.0043749074
0.0043535875
0.004331558
0.0043116071
0.0042920636
0.0042821946
0.090664734
0.093033925
0.095461781
0.097946781
0.10048909
0.1030888
0.10574562
0.10845903
0.11122832
0.11405284
0.11693203
0.11986559
0.12285346
0.12589594
0.12899363
0.13214745
0.13535862
0.13862858
0.14195891
0.14535117
0.14880678
0.15232673
0.15591134
0.15955984
0.16327002
0.16703759
0.17085567
0.17471398
0.17859809
0.18248843
0.18635925
0.19017749
0.19390159
0.19748031
0.20085198
0.2039443
0.20667432
0.2089465
0.21065139
0.21166538
0.21185132
0.21105975
0.20913072
0.20589632
0.2011841
0.19482137
0.18664095
0.1764927
0.16424659
0.14980441
0.13311768
0.11421403
0.093245896
0.070598067
0.047175407
0.025338388
0.010869888
0.0064520224
0.0057594179
0.0055941862
0.0054902576
0.0053999945
0.005319887
0.0052472624
0.0051814648
0.0051218143
0.0050675117
0.0050179894
0.0049727044
0.004931117
0.0048926553
0.0048568473
0.0048233357
0.0047918407
0.0047621621
0.0047341805
0.0047078451
0.0046831209
0.0046599807
0.0046383019
0.0046179015
0.0045986932
0.0045806256
0.0045637225
0.0045481129
0.004533854
0.0045209472
0.0045094104
0.004499289
0.0044906044
0.0044831385
0.0044766243
0.0044701022
0.0044628804
0.0044544132
0.0044439625
0.0044313741
0.0044154719
0.0043975053
0.0043778518
0.0043565567
0.0043345794
0.0043146473
0.0042950127
0.0042850097
0.093710763
0.096051253
0.09845088
0.10090739
0.10342039
0.10598968
0.10861503
0.11129607
0.11403237
0.11682354
0.11966934
0.12256972
0.12552492
0.1285355
0.13160234
0.13472669
0.13791006
0.14115424
0.14446117
0.14783282
0.15127102
0.15477723
0.15835225
0.16199587
0.16570639
0.16948018
0.17331098
0.17718919
0.18110112
0.18502795
0.18894477
0.19281943
0.19661141
0.20027066
0.20373683
0.20693874
0.20979399
0.21220751
0.21407056
0.21526032
0.21564033
0.21506159
0.2133642
0.21037985
0.205935
0.19985514
0.19196985
0.18212219
0.17017777
0.1560292
0.13961464
0.12094085
0.10012456
0.077479786
0.053740697
0.030757463
0.013492473
0.0069389441
0.005825742
0.005617027
0.0055079104
0.0054161906
0.0053348341
0.00526121
0.0051945203
0.0051340763
0.0050790848
0.0050289423
0.004983093
0.0049409864
0.0049020379
0.00486577
0.0048318244
0.0047999215
0.0047698624
0.0047415288
0.0047148739
0.0046898678
0.0046664826
0.0046445888
0.0046239975
0.0046046135
0.004586364
0.0045692578
0.0045534284
0.0045389433
0.0045258121
0.0045140478
0.0045037076
0.0044948056
0.0044871366
0.0044804264
0.0044737495
0.0044663968
0.0044577945
0.0044472308
0.0044345196
0.0044185057
0.0044004462
0.0043807779
0.0043595233
0.0043376146
0.0043177176
0.0042979944
0.0042878658
0.097028233
0.099337067
0.10170514
0.10412981
0.10661035
0.10914638
0.11173763
0.11438385
0.11708479
0.11984033
0.12265047
0.12551543
0.12843573
0.1314122
0.13444602
0.13753873
0.14069216
0.14390845
0.14718988
0.15053882
0.15395752
0.15744788
0.16101117
0.16464768
0.16835631
0.17213396
0.17597501
0.17987056
0.18380758
0.18776805
0.19172787
0.19565581
0.19951235
0.2032486
0.20680541
0.2101127
0.21308877
0.21563924
0.2176561
0.21901734
0.21958726
0.21921736
0.21774795
0.21501046
0.21083049
0.20503191
0.19744179
0.18789698
0.17625791
0.16240969
0.14627832
0.12785194
0.10721608
0.084625079
0.060675739
0.036823136
0.017066915
0.0077670876
0.0059316048
0.0056434301
0.005525957
0.0054327451
0.0053498541
0.0052752333
0.0052076592
0.0051464042
0.0050907159
0.0050399488
0.0049935277
0.004950895
0.0049114527
0.0048747186
0.0048403342
0.0048080198
0.0047775788
0.0047488937
0.0047219207
0.0046966346
0.004673006
0.004650898
0.0046301152
0.0046105533
0.004592118
0.0045748034
0.0045587484
0.0045440318
0.0045306728
0.0045186793
0.0045081167
0.0044989915
0.00449111
0.0044841877
0.0044773448
0.0044698541
0.0044611198
0.0044504469
0.0044376131
0.0044214938
0.0044033526
0.0043836841
0.0043624861
0.0043406628
0.0043208168
0.0043010092
0.0042907601
0.10064614
0.10291971
0.10525249
0.10764154
0.11008598
0.11258531
0.11513924
0.11774757
0.12041024
0.12312731
0.12589902
0.12872586
0.13160859
0.13454834
0.13754658
0.14060512
0.14372613
0.14691206
0.15016558
0.15348941
0.15688621
0.16035831
0.16390745
0.16753442
0.17123861
0.17501754
0.17886616
0.18277622
0.18673541
0.19072644
0.19472603
0.19870384
0.20262135
0.20643077
0.2100741
0.21348232
0.21657458
0.21925728
0.22142324
0.22295129
0.22370651
0.22354103
0.22229547
0.21980114
0.21588299
0.21036349
0.20306739
0.19382747
0.18249654
0.16895435
0.15311584
0.13495248
0.11452243
0.092029422
0.067958963
0.043462435
0.021646517
0.0091434989
0.006113639
0.005676501
0.005544656
0.0054492507
0.0053649287
0.0052893131
0.0052208539
0.0051587887
0.005102398
0.005050996
0.0050039968
0.0049608318
0.0049208895
0.0048836838
0.0048488565
0.0048161284
0.004785305
0.0047562697
0.004728981
0.0047034172
0.004679547
0.0046572255
0.0046362504
0.004616508
0.0045978828
0.0045803551
0.0045640686
0.0045491156
0.0045355257
0.0045233019
0.0045125132
0.0045031589
0.0044950548
0.0044879061
0.0044808853
0.0044732477
0.0044643838
0.0044536053
0.0044406508
0.0044244334
0.0044062232
0.0043865685
0.0043654437
0.0043437228
0.0043239435
0.004304057
0.00429369
0.10459618
0.10683018
0.10912331
0.11147243
0.11387656
0.11633514
0.11884786
0.12141463
0.12403548
0.12671067
0.12944064
0.13222612
0.13506815
0.1379681
0.14092773
0.14394916
0.14703486
0.15018762
0.15341043
0.1567064
0.16007857
0.16352969
0.16706195
0.17067661
0.17437359
0.17815091
0.18200415
0.18592566
0.18990381
0.19392205
0.1979579
0.2019819
0.20595651
0.20983498
0.21356042
0.21706485
0.22026838
0.22307828
0.22538824
0.22707801
0.22801351
0.22804755
0.22702119
0.22476578
0.22110581
0.21586257
0.20885878
0.19992415
0.18890395
0.17567243
0.16013511
0.14224854
0.12204677
0.099690381
0.075574073
0.050614721
0.027190114
0.011330722
0.0064415024
0.0057226841
0.005564519
0.0054657286
0.0053800291
0.0053034436
0.0052340888
0.0051712187
0.0051141151
0.00506207
0.0050144882
0.0049707851
0.0049303375
0.0048926559
0.004857383
0.0048242399
0.0047930351
0.0047636519
0.0047360503
0.0047102115
0.0046861016
0.0046635672
0.0046423986
0.0046224728
0.0046036536
0.0045859079
0.0045693847
0.0045541905
0.0045403668
0.004527912
0.0045168935
0.0045073039
0.0044989671
0.0044915789
0.0044843673
0.0044765734
0.004467582
0.0044567005
0.0044436288
0.0044273219
0.0044090568
0.0043894294
0.0043683949
0.0043467934
0.0043270959
0.004307138
0.0042966525
0.1089125
0.11110189
0.11335036
0.11565459
0.11801355
0.12042668
0.12289369
0.12541453
0.12798938
0.13061863
0.13330295
0.13604329
0.13884092
0.14169748
0.14461501
0.14759591
0.15064297
0.15375929
0.1569482
0.16021317
0.16355761
0.16698469
0.170497
0.17409627
0.1777829
0.18155545
0.18541004
0.18933964
0.19333328
0.19737509
0.20144341
0.20550962
0.20953711
0.21348019
0.21728301
0.22087866
0.22418822
0.22711992
0.2295684
0.23141438
0.23252466
0.23275284
0.23194051
0.22991922
0.22651315
0.22154268
0.21482877
0.20619836
0.19549133
0.18257396
0.16734482
0.14974702
0.12979333
0.1076073
0.083508984
0.058232519
0.033598769
0.014579785
0.0070428417
0.0057956062
0.0055866098
0.0054824009
0.0053952648
0.0053176167
0.0052473576
0.0051836869
0.00512585
0.0050731582
0.0050249895
0.0049807434
0.004939786
0.0049016253
0.0048659051
0.0048323473
0.0048007629
0.0047710349
0.0047431238
0.0047170131
0.0046926652
0.0046699182
0.0046485547
0.0046284422
0.0046094249
0.004591457
0.004574692
0.0045592521
0.0045451923
0.0045325056
0.0045212537
0.0045114222
0.0045028422
0.0044952031
0.0044877871
0.0044798273
0.0044707097
0.0044597268
0.0044465431
0.0044301562
0.004411852
0.004392265
0.0043713379
0.0043498732
0.0043302722
0.0043102516
0.0042996438
0.1136314
0.1157704
0.11796851
0.12022223
0.12253051
0.12489281
0.12730889
0.12977877
0.13230275
0.13488138
0.13751551
0.1402063
0.14295526
0.14576429
0.14863569
0.15157216
0.15457676
0.15765292
0.1608043
0.1640347
0.16734791
0.17074746
0.17423638
0.17781681
0.18148963
0.18525389
0.18910625
0.19304026
0.19704556
0.20110701
0.20520367
0.20930778
0.21338364
0.21738653
0.22126168
0.22494319
0.2283532
0.23140093
0.23398204
0.23597825
0.23725734
0.23767376
0.23706973
0.23527715
0.23212008
0.2274182
0.22099097
0.2126628
0.20226991
0.18966962
0.17475439
0.15745562
0.1377673
0.11578104
0.091754979
0.066279482
0.040760102
0.019047283
0.008131792
0.0059239776
0.00561317
0.0054994717
0.005410701
0.0053318081
0.0052606524
0.0051961761
0.0051375899
0.0050842475
0.0050354881
0.0049906948
0.0049492241
0.0049105823
0.0048744147
0.0048404433
0.0048084823
0.0047784134
0.0047501966
0.004723817
0.0046992328
0.0046762731
0.0046547129
0.0046344101
0.0046151907
0.0045969967
0.0045799856
0.0045642959
0.0045499978
0.0045370782
0.0045255889
0.0045155088
0.0045066753
0.0044987746
0.004491141
0.0044830063
0.0044737619
0.0044626786
0.0044493894
0.0044329332
0.0044146069
0.0043950733
0.0043742711
0.0043529605
0.0043334702
0.0043133969
0.0043026592
0.11879088
0.12087304
0.12301443
0.12521132
0.12746274
0.12976816
0.13212742
0.13454064
0.13700822
0.13953087
0.14210962
0.14474583
0.14744126
0.15019804
0.15301873
0.15590631
0.15886413
0.16189592
0.16500565
0.16819747
0.17147549
0.17484364
0.17830531
0.18186307
0.18551822
0.18927031
0.19311648
0.19705086
0.20106368
0.20514047
0.20926101
0.21339835
0.21751768
0.22157525
0.22551729
0.22927897
0.23278346
0.23594104
0.23864845
0.24078845
0.24222987
0.24282808
0.24242606
0.24085615
0.23794251
0.2335043
0.22735981
0.21933111
0.20925153
0.19697088
0.18237391
0.16538278
0.14597473
0.12421372
0.10030614
0.074728096
0.048575447
0.024742103
0.010022453
0.0061678316
0.0056491317
0.0055172969
0.0054261493
0.0053459961
0.0052739508
0.0052086626
0.0051493264
0.005095326
0.005045972
0.0050006275
0.0049586411
0.0049195174
0.0048829033
0.0048485209
0.004816187
0.0047857816
0.0047572633
0.0047306179
0.0047057988
0.0046826261
0.0046608667
0.0046403699
0.0046209444
0.0046025212
0.0045852605
0.0045693175
0.0045547785
0.0045416249
0.0045298942
0.0045195584
0.0045104617
0.0045022879
0.0044944249
0.0044861076
0.0044767334
0.004465551
0.0044521635
0.0044356495
0.0044173196
0.0043978522
0.0043771928
0.0043560538
0.0043366877
0.0043165723
0.0043056935
0.12443013
0.12644838
0.12852606
0.13065924
0.13284697
0.13508883
0.13738473
0.13973491
0.1421399
0.14460057
0.14711811
0.14969411
0.15233053
0.15502975
0.15779458
0.16062827
0.16353446
0.16651715
0.16958064
0.17272937
0.17596781
0.17930021
0.18273035
0.18626118
0.18989441
0.19363004
0.19746571
0.20139603
0.20541185
0.2094993
0.21363889
0.21780442
0.22196195
0.22606867
0.23007179
0.23390753
0.23750013
0.24076096
0.24358786
0.24586473
0.24746147
0.24823445
0.24802753
0.24667363
0.24399713
0.23981692
0.23395036
0.22621763
0.21644897
0.20448963
0.19021406
0.17353754
0.15442242
0.13290859
0.10915887
0.083557721
0.056967734
0.031553054
0.013068386
0.006647608
0.0057056539
0.0055366912
0.0054415673
0.0053601909
0.0052872259
0.0052211274
0.0051610502
0.0051063827
0.0050564287
0.00501053
0.0049680266
0.0049284215
0.0048913631
0.004856573
0.0048238707
0.0047931335
0.0047643181
0.0047374102
0.0047123573
0.0046889706
0.0046670093
0.0046463142
0.0046266789
0.0046080242
0.0045905115
0.0045743124
0.0045595297
0.0045461405
0.0045341638
0.0045235652
0.0045141957
0.0045057377
0.0044976353
0.0044891279
0.0044796193
0.0044683394
0.0044548613
0.0044383015
0.0044199876
0.0044005998
0.0043801013
0.0043591512
0.0043399221
0.0043197755
0.0043087408
0.13058888
0.1325357
0.13454217
0.13660417
0.13872086
0.1408919
0.14311733
0.1453975
0.14773311
0.15012518
0.15257509
0.15508463
0.15765598
0.16029175
0.16299502
0.16576928
0.16861844
0.1715468
0.17455893
0.1776596
0.18085357
0.18414543
0.1875393
0.19103851
0.19464515
0.19835962
0.20218003
0.2061015
0.21011539
0.21420844
0.21836183
0.22255012
0.22674018
0.2308901
0.23494808
0.23885136
0.24252527
0.24588229
0.2488214
0.25122768
0.25297217
0.25391234
0.25389297
0.25274772
0.25030135
0.24637266
0.24077834
0.23333705
0.22387626
0.21223765
0.19828604
0.18192949
0.16311781
0.14186985
0.11831149
0.092753006
0.065879085
0.039322499
0.017540703
0.0075875193
0.0058081273
0.0055595312
0.0054571966
0.0053743808
0.005300467
0.0052335583
0.0051727486
0.0051174028
0.0050668451
0.0050203908
0.0049773703
0.0049372853
0.0048997858
0.0048645924
0.0048315267
0.0048004628
0.0047713548
0.0047441874
0.0047189014
0.0046952994
0.004673133
0.0046522353
0.0046323867
0.0046134992
0.0045957328
0.0045792751
0.0045642464
0.0045506193
0.0045383917
0.0045275239
0.00451787
0.0045091189
0.0045007688
0.0044920627
0.0044824155
0.0044710397
0.0044574788
0.004440886
0.0044226083
0.0044033141
0.004382995
0.0043622511
0.0043431706
0.0043230038
0.0043117954
0.13730676
0.13917424
0.14110164
0.14308463
0.14512246
0.14721496
0.14936231
0.15156501
0.15382392
0.15614023
0.15851554
0.16095182
0.16345149
0.1660174
0.16865285
0.1713616
0.17414784
0.17701612
0.1799713
0.18301843
0.18616258
0.18940864
0.19276107
0.19622351
0.19979844
0.20348664
0.20728663
0.21119399
0.21520061
0.2192938
0.22345535
0.22766053
0.23187703
0.23606378
0.24016996
0.24413383
0.24788177
0.25132744
0.25437098
0.25689867
0.25878278
0.25988192
0.26004191
0.25909727
0.25687326
0.2531888
0.24786009
0.24070467
0.2315476
0.22022719
0.20660173
0.19056871
0.17206887
0.15110247
0.12776386
0.10230266
0.075266164
0.047902834
0.023512317
0.00935172
0.0060142188
0.0055902413
0.0054733988
0.0053885726
0.0053136687
0.0052459432
0.0051844047
0.0051283717
0.0050772086
0.0050301984
0.004986662
0.0049461001
0.0049081635
0.0048725716
0.0048391478
0.0048077624
0.0047783666
0.0047509426
0.004725424
0.0047016049
0.0046792297
0.0046581249
0.0046380599
0.0046189388
0.0046009179
0.0045841997
0.0045689234
0.0045550554
0.0045425717
0.0045314276
0.0045214769
0.004512427
0.0045038215
0.0044949077
0.0044851182
0.004473648
0.0044600123
0.0044433996
0.0044251787
0.0044059932
0.0043858724
0.0043653516
0.0043464305
0.0043262533
0.0043148516
0.14462246
0.14640257
0.14824284
0.15013872
0.15208961
0.15409553
0.15615682
0.15827418
0.16044864
0.16268162
0.16497489
0.16733066
0.16975156
0.17224069
0.1748016
0.1774383
0.18015523
0.18295721
0.18584936
0.18883702
0.19192554
0.19512009
0.19842543
0.20184553
0.20538319
0.20903956
0.21281354
0.21670115
0.22069473
0.22478214
0.22894577
0.23316157
0.23739796
0.24161475
0.24576201
0.24977903
0.25359328
0.25711955
0.2602592
0.26289976
0.26491475
0.26616401
0.26649451
0.26574169
0.26373151
0.26028317
0.25521258
0.24833643
0.23947777
0.22847193
0.21517247
0.19946561
0.18128402
0.16061206
0.13751703
0.11219851
0.08509634
0.057178045
0.03086087
0.012395898
0.0064489012
0.0056395276
0.0054909264
0.0054027991
0.005326817
0.0052582689
0.0051959991
0.005139277
0.0050875074
0.005039942
0.0049958917
0.0049548565
0.0049164877
0.0048805026
0.0048467263
0.0048150249
0.0047853459
0.0047576682
0.0047319171
0.0047078785
0.0046852907
0.0046639741
0.00464369
0.0046243353
0.00460606
0.0045890802
0.0045735548
0.0045594423
0.0045466975
0.004535268
0.00452501
0.0045156577
0.0045067877
0.0044976587
0.0044877242
0.0044761611
0.0044624583
0.0044458391
0.0044276957
0.0044086353
0.0043887321
0.0043684507
0.0043496988
0.0043295196
0.0043179035
0.15257306
0.15425782
0.1560029
0.15780352
0.15965929
0.16157041
0.16353747
0.16556138
0.16764339
0.16978511
0.17198857
0.1742562
0.17659087
0.17899593
0.18147516
0.18403283
0.18667364
0.18940267
0.1922253
0.19514713
0.19817376
0.20131066
0.20456285
0.2079346
0.21142901
0.21504756
0.21878952
0.22265128
0.22662564
0.23070093
0.23486013
0.23907981
0.24332911
0.24756866
0.25174943
0.2558117
0.25968402
0.26328233
0.26650924
0.26925354
0.27139006
0.27277996
0.27327139
0.27270088
0.27089521
0.26767401
0.26285315
0.25624869
0.24768208
0.23698588
0.22400991
0.208631
0.19077203
0.17040474
0.14757304
0.12243483
0.095344884
0.06706226
0.039375282
0.017097535
0.0073624512
0.005733513
0.0055116229
0.0054172139
0.0053399042
0.0052705194
0.0052075116
0.0051501086
0.0050977303
0.0050496108
0.0050050494
0.0049635453
0.0049247493
0.004888377
0.0048542539
0.0048222421
0.0047922846
0.0047643558
0.0047383719
0.0047141114
0.004691307
0.0046697741
0.0046492681
0.00462968
0.0046111523
0.0045939111
0.0045781344
0.0045637728
0.0045507615
0.0045390365
0.0045284644
0.0045188056
0.0045096615
0.0045003124
0.0044902303
0.0044785755
0.0044648137
0.0044482016
0.004430156
0.0044112383
0.0043915725
0.0043715465
0.0043529722
0.0043327974
0.004320942
0.16119331
0.162775
0.16441704
0.16611441
0.16786694
0.1696751
0.17153974
0.17346201
0.17544342
0.17748583
0.1795915
0.18176313
0.18400384
0.18631723
0.18870734
0.19117869
0.19373623
0.19638531
0.19913155
0.20198079
0.20493892
0.20801163
0.21120421
0.21452119
0.21796597
0.22154031
0.2252438
0.22907321
0.23302173
0.23707815
0.24122596
0.24544234
0.24969713
0.2539517
0.25815793
0.26225706
0.2661787
0.26983997
0.27314471
0.27598303
0.27823112
0.27975148
0.28039359
0.27999512
0.2783838
0.2753799
0.27079944
0.26445807
0.25617591
0.24578319
0.2331263
0.21807571
0.20054189
0.180487
0.15793464
0.13300777
0.10599296
0.077492219
0.048851313
0.023575253
0.0091889182
0.0059352172
0.0055401637
0.0054321372
0.0053529358
0.0052826761
0.0052189272
0.005160856
0.0051078658
0.0050591936
0.0050141245
0.0049721565
0.004932939
0.0048961855
0.0048617216
0.004829405
0.0047991738
0.0047709962
0.0047447792
0.0047202939
0.0046972692
0.0046755153
0.0046547845
0.0046349643
0.0046161877
0.0045986864
0.0045826552
0.0045680391
0.004554755
0.0045427257
0.0045318347
0.0045218634
0.0045124374
0.0045028653
0.0044926336
0.0044808887
0.0044670755
0.0044504845
0.0044325561
0.0044138005
0.0043943921
0.0043746369
0.0043562472
0.0043360813
0.0043239564
0.17051496
0.17198637
0.17351794
0.17510442
0.1767459
0.17844318
0.18019738
0.18200994
0.18388267