/*--------------------------------*- C++ -*----------------------------------*\
| =========                 |                                                 |
| \\      /  F ield         | OpenFOAM: The Open Source CFD Toolbox           |
|  \\    /   O peration     | Version:  2406                                  |
|   \\  /    A nd           | Website:  www.openfoam.com                      |
|    \\/     M anipulation  |                                                 |
\*---------------------------------------------------------------------------*/
FoamFile
{
    version     2.0;
    format      ascii;
    arch        "LSB;label=32;scalar=64";
    class       volScalarField;
    location    "0.003";
    object      omega;
}
// * * * * * * * * * * * * * * * * * * * * * * * * * * * * * * * * * * * * * //

dimensions      [0 0 -1 0 0 0 0];

internalField   nonuniform List<scalar> 
23204
(
98.498208
98.465768
98.41505
98.399431
98.248545
99.359978
99.258113
99.165916
99.082765
99.00582
98.93266
98.86597
98.803609
98.74761
98.692732
98.646322
98.58962
98.529664
98.493413
98.460932
98.410388
98.394013
98.244259
104.9528
104.3413
103.78564
103.28138
102.82392
102.40883
102.03199
101.68919
101.37675
101.09196
100.83199
100.59562
100.3831
100.19254
100.02036
99.862869
99.717402
99.583608
99.461615
99.350534
99.249541
99.157987
99.075295
98.998835
98.926135
98.859856
98.797802
98.742032
98.687261
98.641047
98.584751
98.524661
98.488532
98.456021
98.405692
98.388609
98.239779
470.50447
435.86999
403.82803
374.25677
347.01302
321.95295
298.93557
277.82444
258.49618
240.82505
224.68748
209.96541
196.54674
184.32459
173.1969
163.0635
153.82101
145.35244
137.52073
130.29629
124.35386
120.31998
117.67581
115.70346
114.04667
112.57745
111.25587
110.06043
108.97916
107.9986
107.10981
106.30265
105.56871
104.90159
104.29432
103.74258
103.24193
102.7878
102.37577
102.00176
101.66162
101.35163
101.06909
100.81114
100.57655
100.36563
100.17653
100.00576
99.849605
99.705268
99.572454
99.451316
99.341103
99.240971
99.150059
99.067816
98.991819
98.919568
98.853697
98.791941
98.736394
98.681727
98.635699
98.579814
98.519589
98.483793
98.451273
98.401205
98.383474
98.235363
4554.5007
4317.7455
4088.3362
3867.1069
3654.3515
3450.1746
3254.58
3067.5037
2888.8318
2718.4117
2556.0603
2401.5714
2254.7207
2115.2709
1982.9751
1857.5811
1738.8337
1626.4774
1520.2589
1419.9283
1325.2408
1235.9577
1151.8476
1072.6859
998.25597
928.34877
862.76248
801.30235
743.77999
690.01284
639.82333
593.03824
549.48945
509.03316
471.8005
437.16312
405.09269
375.47471
348.17351
323.05013
299.96679
278.78866
259.39052
241.65298
225.45357
210.67491
197.20545
184.93874
173.77291
163.6082
154.342
145.85884
138.02105
130.74494
124.57208
120.3229
117.59288
115.59902
113.94153
112.47831
111.16376
109.9747
108.90007
107.92561
107.0427
106.24105
105.51222
104.84969
104.24678
103.69907
103.20215
102.75143
102.34255
101.97145
101.63401
101.32651
101.04624
100.79033
100.55756
100.34825
100.1606
99.991224
99.836396
99.693192
99.561354
99.441052
99.331788
99.232514
99.142257
99.060467
98.984919
98.913114
98.847661
98.786207
98.730887
98.67633
98.630486
98.575023
98.514672
98.479209
98.446703
98.39694
98.37864
98.231049
4439.1248
4214.472
3996.1128
3784.867
3581.1663
3385.2253
3197.1266
3016.8669
2844.383
2679.5672
2522.2778
2372.3472
2229.5879
2093.7974
1964.762
1842.2612
1726.0697
1615.9607
1511.7078
1413.0866
1319.8764
1231.8612
1148.8305
1070.58
996.91141
927.63298
862.559
801.50961
744.31029
690.79141
640.78785
594.13942
550.69459
510.32989
473.01419
438.36865
406.28007
376.62832
349.28179
324.10572
300.96569
279.72958
260.27007
242.47172
226.21534
211.38434
197.86781
185.55985
174.35899
164.16608
154.87973
146.38693
138.55176
131.25343
124.861
120.35256
117.51338
115.49242
113.83368
112.37669
111.06907
109.88744
108.81912
107.85143
106.97443
106.1785
105.45496
104.79726
104.19883
103.65526
103.16216
102.71495
102.30928
101.94113
101.60643
101.30146
101.0235
100.76964
100.5387
100.33101
100.1448
99.976802
99.823304
99.681244
99.550387
99.430911
99.322565
99.224141
99.134552
99.053223
98.978112
98.906752
98.841726
98.780585
98.725499
98.671062
98.625404
98.570373
98.509911
98.474689
98.442223
98.3928
98.37403
98.226769
4323.3952
4110.2855
3902.5983
3701.1315
3506.3801
3318.6258
3138.0095
2964.5781
2798.3127
2639.146
2486.9748
2341.6674
2203.0708
2071.0154
1945.3194
1825.7921
1712.2375
1604.4559
1502.2473
1405.412
1313.7528
1227.0759
1145.1917
1067.9154
995.06731
926.47277
861.96219
801.37066
744.53764
691.3066
641.52493
595.04484
551.72709
511.4515
474.12222
439.48051
407.38645
377.71444
350.33524
325.11761
301.93055
280.64461
261.13353
243.28023
226.97179
212.09257
198.53245
186.18622
174.95292
164.73424
155.43026
146.93104
139.10397
131.80636
125.23664
120.42391
117.44091
115.3851
113.72497
112.27382
110.9727
109.79865
108.73694
107.77626
106.90523
106.11521
105.39713
104.74446
104.15061
103.61127
103.12207
102.67844
102.27604
101.91089
101.57896
101.27653
101.00088
100.74909
100.51999
100.31392
100.12913
99.962484
99.81031
99.669402
99.539527
99.420868
99.313389
99.2158
99.126886
99.046028
98.971341
98.900421
98.835827
98.775006
98.720156
98.665846
98.620374
98.565778
98.50522
98.470161
98.437758
98.388703
98.369582
98.222479
4207.4079
4005.5374
3808.088
3616.1135
3430.1446
3250.4866
3077.3107
2910.698
2750.6649
2597.1792
2450.1712
2309.5427
2175.1723
2046.9216
1924.6384
1808.1608
1697.3203
1591.9438
1491.8562
1396.8821
1306.8469
1221.5787
1140.9082
1064.6699
992.70239
924.84804
860.95327
800.86814
744.44612
691.54379
642.02093
595.74135
552.57535
512.40347
475.10688
440.48858
408.40456
378.72693
351.3285
326.08125
302.85743
281.53052
261.9765
244.07597
227.7206
212.79749
199.19735
186.81577
175.55246
165.31008
155.99034
147.48663
139.67106
132.39236
125.70378
120.55573
117.38081
115.27796
113.61403
112.16793
110.87488
109.70851
108.65382
107.6999
106.83529
106.05134
105.33888
104.69136
104.10218
103.56715
103.08193
102.64194
102.24286
101.88073
101.55159
101.25173
100.9784
100.72867
100.5014
100.29695
100.11357
99.948241
99.797379
99.657627
99.528734
99.410881
99.304236
99.207467
99.11923
99.038852
98.964576
98.894086
98.829924
98.76943
98.714813
98.660633
98.615341
98.561173
98.500534
98.465605
98.43329
98.384624
98.365287
98.218199
4291.7226
4093.6344
3900.8061
3712.8191
3529.9647
3352.571
3180.8899
3015.0898
2855.2687
2701.4678
2553.6828
2411.8738
2275.9716
2145.8844
2021.5022
1902.7009
1789.3456
1681.2939
1578.398
1480.5069
1387.4685
1299.1302
1215.3411
1135.9521
1060.8165
989.79079
922.73425
859.50917
799.98053
744.01573
691.48444
642.25858
596.21291
553.22617
513.18107
475.95398
441.38222
409.32625
379.65899
352.25571
326.99158
303.74203
282.38355
262.7945
244.85623
228.45931
213.49687
199.86042
187.44647
176.15552
165.89127
156.55718
148.05007
140.24774
133.0002
126.2526
120.76906
117.34151
115.17234
113.50087
112.06029
110.77532
109.61673
108.56959
107.62259
106.76472
105.98697
105.28028
104.63798
104.05357
103.52293
103.04177
102.60548
102.20975
101.85068
101.52435
101.22707
100.95605
100.70836
100.48293
100.28009
100.09809
99.93406
99.784493
99.645898
99.517985
99.40093
99.29511
99.199144
99.111584
99.031699
98.957821
98.887753
98.82402
98.763855
98.709466
98.655419
98.610297
98.556546
98.495842
98.461039
98.428835
98.380577
98.361172
98.213998
4167.6248
3979.076
3795.5478
3616.7502
3442.7512
3273.7403
3109.908
2951.405
2798.3339
2650.7518
2508.6764
2372.0921
2240.9557
2115.2016
1994.7461
1879.4909
1769.3266
1664.1353
1563.7933
1468.1726
1377.1433
1290.5743
1208.335
1130.2955
1056.328
986.30635
920.10648
857.60636
798.68573
743.22588
691.10941
642.22016
596.44347
553.66628
513.77564
476.65093
442.1507
410.14287
380.50339
353.11066
327.84323
304.57976
283.19979
263.5843
245.61677
229.18536
214.18844
200.51961
188.07637
176.76013
166.47572
157.1284
148.61838
140.82977
133.61911
126.86467
121.08345
117.33608
115.07047
113.3865
111.95187
110.67439
109.5237
108.48449
107.54455
106.69368
105.92215
105.22138
104.58438
104.00483
103.47867
103.00162
102.56908
102.17675
101.82076
101.49724
101.20255
100.93384
100.68819
100.46458
100.26334
100.0827
99.919942
99.771652
99.634216
99.50728
99.39102
99.286029
99.190852
99.103966
99.024589
98.951103
98.881443
98.818138
98.758305
98.704137
98.650226
98.605263
98.551914
98.491163
98.456492
98.424421
98.37659
98.357275
98.209958
4041.9666
3863.5955
3689.5504
3519.8315
3354.5072
3193.7147
3037.6054
2886.313
2739.9392
2598.5513
2462.1834
2330.8401
2204.5005
2083.1222
1966.6453
1854.9953
1748.0864
1645.8238
1548.1063
1454.828
1365.8801
1281.1519
1200.5326
1123.9111
1051.1776
982.22308
916.93978
855.22112
796.96143
742.05568
690.39926
641.88778
596.41692
553.88206
514.17636
477.18561
442.78321
410.8453
381.25243
353.88676
328.63049
305.36574
283.97508
264.34231
246.35318
229.89626
214.86982
201.17276
188.70347
177.36438
167.06149
157.70187
149.18904
141.41354
134.24057
127.51724
121.51105
117.38285
114.97604
113.27153
111.84154
110.57217
109.43013
108.3987
107.46587
106.62212
105.85693
105.16222
104.53063
103.95604
103.43441
102.96154
102.53279
102.14389
101.79099
101.47031
101.1782
100.91178
100.66816
100.44637
100.24671
100.06742
99.905904
99.758871
99.622593
99.496635
99.381168
99.277013
99.182613
99.096398
99.017547
98.944447
98.875186
98.812308
98.752805
98.698854
98.645083
98.600265
98.547303
98.486528
98.451985
98.420067
98.372682
98.353623
98.20615
3915.6865
3747.4118
3582.8228
3422.0733
3265.2738
3112.5529
2964.0446
2819.8713
2680.1335
2544.905
2414.2325
2288.1369
2166.6164
2049.6491
1937.1962
1829.205
1725.6112
1626.3417
1531.3163
1440.45
1353.6539
1270.8371
1191.9075
1116.7723
1045.339
977.51529
913.20938
852.32979
794.78519
740.48405
689.33436
641.24333
596.11696
553.85941
514.37117
477.54591
443.26873
411.42408
381.89799
354.57702
329.34735
306.09472
284.70495
265.06472
247.06226
230.58809
215.53848
201.81765
189.32577
177.96639
167.64674
158.27571
149.75996
141.99616
134.85865
128.18907
122.04929
117.50529
114.89548
113.15682
111.72948
110.4682
109.33524
108.31203
107.3867
106.5499
105.79144
105.10289
104.47682
103.90724
103.39022
102.92157
102.49665
102.11121
101.76142
101.44357
101.15405
100.88991
100.64829
100.42829
100.23022
100.05225
99.891962
99.746165
99.611043
99.486062
99.371393
99.268078
99.174443
99.088893
99.010587
98.937873
98.869002
98.806547
98.747374
98.693636
98.640011
98.595324
98.542729
98.481957
98.447529
98.415778
98.368858
98.350225
98.202626
3789.1562
3630.7399
3475.4603
3323.5367
3175.1122
3030.321
2889.2916
2752.1415
2618.9704
2489.8573
2364.8583
2244.0079
2127.3202
2014.791
1906.4005
1802.1154
1701.8913
1605.6749
1513.4058
1425.0182
1340.4424
1259.606
1182.4349
1108.8538
1038.7869
972.15803
908.89097
848.90896
792.13469
738.4899
687.89499
640.26861
595.52711
553.58374
514.34716
477.71953
443.59605
411.86935
382.43154
355.17407
329.98742
306.76119
285.38464
265.74744
247.7405
231.25666
216.19193
202.45196
189.94119
178.56429
168.22974
158.8482
150.32932
142.57541
135.46984
128.86324
122.67847
117.73044
114.83961
113.04395
111.61647
110.36349
109.23923
108.22453
107.3071
106.47735
105.72577
105.04346
104.42302
103.85852
103.34615
102.88176
102.4607
102.07874
101.73207
101.41706
101.13011
100.86823
100.62858
100.41037
100.21387
100.03722
99.878128
99.733544
99.599573
99.475573
99.361709
99.259229
99.166349
99.081457
99.003713
98.93139
98.862903
98.800867
98.74202
98.688492
98.635018
98.590446
98.538198
98.477459
98.44312
98.411548
98.365111
98.347071
98.199419
3662.5994
3513.7648
3367.5896
3224.3161
3084.1052
2947.0977
2813.4217
2683.1928
2556.5113
2433.4601
2314.1032
2198.4858
2086.6355
1978.5634
1874.2662
1773.728
1676.9224
1583.8143
1494.3613
1408.516
1326.2263
1247.4374
1172.0922
1100.1321
1031.4974
966.1275
903.96112
844.93584
788.98804
736.05242
686.06158
638.94546
594.63079
553.04015
514.0909
477.69393
443.75373
412.17098
382.84421
355.67018
330.54398
307.35931
286.00907
266.38613
248.38417
231.8985
216.82676
203.07323
190.54761
179.15619
168.80877
159.41777
150.8956
143.14966
136.07207
129.52796
123.36821
118.08319
114.82501
112.93571
111.50291
110.25834
109.14288
108.13648
107.22707
106.40467
105.66007
104.98403
104.36928
103.80991
103.30224
102.84215
102.42498
102.04651
101.70297
101.39079
101.10638
100.84674
100.60904
100.39259
100.19765
100.02231
99.864407
99.721011
99.588186
99.465168
99.35212
99.250465
99.158328
99.074089
98.996924
98.924999
98.85689
98.795264
98.736742
98.683422
98.630104
98.585631
98.533706
98.473031
98.438746
98.407358
98.361423
98.344138
98.196544
3536.2006
3396.6585
3259.3522
3124.5289
2992.3559
2862.9773
2736.5218
2613.1046
2492.827
2375.7749
2262.0187
2151.6124
2044.5948
1940.9899
1840.8089
1744.0512
1650.7066
1560.7563
1474.1749
1390.9313
1310.9903
1234.3134
1160.8597
1090.5862
1023.4487
959.40157
898.39771
840.38868
785.32411
733.15134
683.81491
637.25593
593.41144
552.21357
513.58864
477.45639
443.73017
412.31858
383.12682
356.0573
331.00999
307.88295
286.57291
266.97615
248.9893
232.51027
217.439
203.67895
191.14279
179.74017
169.38217
159.98295
151.45751
143.71778
136.66433
130.17663
124.08479
118.57482
114.87525
112.83684
111.38935
110.15213
109.04602
108.0482
107.14679
106.33187
105.59434
104.92464
104.31565
103.76145
103.25852
102.80276
102.38949
102.01453
101.67411
101.36474
101.08286
100.82543
100.58966
100.37495
100.18157
100.00753
99.850797
99.708565
99.576875
99.454844
99.342625
99.24178
99.150376
99.066785
98.990209
98.918693
98.85096
98.789733
98.731533
98.678419
98.625261
98.580869
98.529241
98.468664
98.434394
98.403188
98.357772
98.341395
98.194002
3410.1403
3279.5937
3150.903
3024.3115
2899.986
2778.0705
2658.6933
2541.9691
2427.9999
2316.8742
2208.6672
2103.4399
2001.2403
1902.1035
1806.0529
1713.1015
1623.2533
1536.5044
1452.8443
1372.2575
1294.724
1220.2207
1148.7215
1080.1985
1014.6219
951.96035
892.1805
835.24722
781.12295
729.76731
681.13647
635.18252
591.85278
551.08899
512.82658
476.99413
443.51365
412.30159
383.26997
356.3271
331.37814
308.3257
287.07059
267.51265
249.55168
233.08834
218.02495
204.26628
191.72441
180.31425
169.94827
160.54235
152.01391
144.27898
137.24582
130.80625
124.80001
119.19085
115.02277
112.75604
111.27688
110.0452
108.94819
107.95965
107.06638
106.25899
105.52853
104.86535
104.26218
103.71319
103.21502
102.76361
102.35426
101.98281
101.6455
101.33892
101.05955
100.80429
100.57042
100.35745
100.16561
99.992869
99.837295
99.696202
99.565636
99.444595
99.333221
99.233168
99.142487
99.059539
98.98356
98.912469
98.845108
98.784267
98.726387
98.673473
98.620481
98.576154
98.524792
98.464348
98.430052
98.39902
98.354138
98.33881
98.191782
3284.6087
3162.7529
3042.4109
2923.8179
2807.1357
2692.5054
2580.0533
2469.8929
2362.1261
2256.8433
2154.123
2054.0319
1956.6254
1861.9476
1770.0325
1680.9048
1594.5807
1511.0697
1430.3749
1352.4946
1277.4229
1205.1507
1135.6661
1068.9549
1005.0012
943.78681
885.29161
829.49317
776.36624
725.88227
678.00874
632.70852
589.93905
549.65169
511.79101
476.29446
443.09249
412.10939
383.26412
356.47111
331.64091
308.68095
287.49628
267.99056
250.06691
233.62891
218.58145
204.83154
192.29006
180.87641
170.50539
161.09461
152.56378
144.83261
137.81606
131.41644
125.49564
119.89965
115.30328
112.70806
111.16761
109.93809
108.85007
107.87073
106.98586
106.18617
105.46276
104.80623
104.20889
103.66514
103.17177
102.72472
102.31929
101.95134
101.61714
101.31333
101.03642
100.78331
100.55132
100.34006
100.14977
99.978328
99.8239
99.683922
99.554468
99.434422
99.323905
99.224628
99.13466
99.052353
98.976971
98.906325
98.839327
98.77886
98.721297
98.668578
98.615756
98.571478
98.52035
98.460076
98.425709
98.394839
98.350506
98.336351
98.189866
3159.8108
3046.3332
2934.0613
2823.22
2713.9636
2606.4279
2500.7356
2396.9981
2295.3164
2195.7814
2098.474
2003.465
1910.8157
1820.5774
1732.793
1647.4969
1564.7163
1484.4721
1406.7796
1331.6495
1259.0887
1189.1009
1121.6872
1056.8463
994.57485
934.86738
877.71614
823.11074
771.0377
721.47984
674.41557
629.81822
587.65523
547.88746
510.46861
475.34488
442.45512
411.73138
383.09966
356.48068
331.79061
308.94187
287.844
268.40461
250.53039
234.128
219.10507
205.37091
192.83741
181.42456
171.05183
161.63839
153.10617
145.37816
138.37503
132.00816
126.16245
120.64765
115.74237
112.7162
111.06534
109.83118
108.75219
107.78165
106.90527
106.1134
105.39717
104.74732
104.15583
103.61735
103.12878
102.68611
102.28459
101.92014
101.58901
101.28794
101.01348
100.76248
100.53235
100.3228
100.13405
99.963906
99.810615
99.671729
99.543372
99.424327
99.31468
99.216163
99.1269
99.045233
98.970444
98.900259
98.833618
98.773511
98.716259
98.663732
98.611085
98.566841
98.515913
98.455843
98.421362
98.390637
98.346866
98.33399
98.188243
3035.9696
2930.5486
2826.0568
2722.7079
2620.6466
2520.0019
2420.8916
2323.4236
2227.6972
2133.8027
2041.8223
1951.8295
1863.8897
1778.0604
1694.3912
1612.925
1533.698
1456.7413
1382.0806
1309.7377
1239.731
1172.0757
1106.7847
1043.8686
983.33582
925.19256
869.44267
816.08714
765.12362
716.54577
670.34252
626.49733
584.98738
545.7829
508.8466
474.13334
441.59026
411.15714
382.76707
356.34719
331.81947
309.10152
288.10756
268.74938
250.93736
234.58148
219.59225
205.88149
193.36312
181.95648
171.5858
162.17231
153.64012
145.91517
138.92294
132.58289
126.7987
121.39346
116.33968
112.81487
110.97741
109.72526
108.65414
107.69267
106.82471
106.04074
105.33181
104.68865
104.10302
103.56983
103.08609
102.64778
102.25018
101.8892
101.56113
101.26276
100.9907
100.74179
100.51351
100.30567
100.11845
99.949607
99.797446
99.659632
99.532357
99.414316
99.305551
99.20778
99.119216
99.038187
98.963988
98.894274
98.827985
98.768224
98.711273
98.658934
98.606465
98.562245
98.51148
98.45165
98.417011
98.386409
98.34321
98.331704
98.186908
2913.3256
2815.6304
2718.6179
2622.4895
2527.3795
2433.4091
2340.6897
2249.325
2159.4111
2071.037
1984.2849
1899.2297
1815.9399
1734.4771
1654.8966
1577.2479
1501.575
1427.9172
1356.3095
1286.7833
1219.3671
1154.0865
1090.965
1030.0239
971.28236
914.75751
860.46387
808.41308
758.61326
711.06833
665.77726
622.73325
581.92293
543.32568
506.91303
472.64841
440.48708
410.37652
382.25695
356.06205
331.7197
309.1529
288.28072
269.0193
251.28293
234.98506
220.03927
206.36009
193.86379
182.47001
172.10544
162.69496
154.16466
146.44316
139.46009
133.14195
127.40631
122.10888
117.062
113.04737
110.917
109.62194
108.55598
107.60378
106.74426
105.96827
105.26668
104.63022
104.0505
103.52262
103.0437
102.60976
102.21604
101.85853
101.53348
101.23779
100.9681
100.72125
100.4948
100.28866
100.10298
99.935442
99.784408
99.647645
99.521435
99.404399
99.296532
99.199493
99.111621
99.03123
98.957613
98.888375
98.822437
98.763004
98.70634
98.654188
98.6019
98.557695
98.507057
98.447499
98.412656
98.382155
98.339539
98.329475
98.185863
2792.136
2701.8263
2611.9811
2522.7894
2434.3744
2346.8481
2260.3153
2174.874
2090.6165
2007.6295
1925.9937
1845.7848
1767.0726
1689.9217
1614.3916
1540.537
1468.4079
1398.0507
1329.5082
1262.82
1198.0233
1135.1529
1074.2417
1015.3206
958.41861
903.56261
850.77702
800.0833
751.49936
705.03876
660.70997
618.51547
578.45101
540.5048
504.65703
470.87944
439.13535
409.37984
381.56025
355.61686
331.4836
309.08901
288.35715
269.20873
251.5621
235.33434
220.44229
206.80337
194.33631
182.96253
172.60881
163.20486
154.67876
146.96164
139.9867
133.68643
127.98855
122.78179
117.83357
113.45119
110.90668
109.52441
108.45825
107.51492
106.66411
105.89603
105.20182
104.57205
103.9983
103.47573
103.00164
102.57204
102.18219
101.82812
101.50606
101.21301
100.94567
100.70086
100.47624
100.2718
100.08765
99.921427
99.771518
99.635785
99.510618
99.394586
99.28764
99.19132
99.10413
99.024376
98.951332
98.882571
98.816986
98.757858
98.701467
98.6495
98.597394
98.553197
98.502651
98.443393
98.408302
98.377879
98.335855
98.327288
98.185112
2672.6712
2589.3977
2506.3974
2423.8468
2341.8578
2260.5328
2179.9688
2100.2577
2021.487
1943.7399
1867.0953
1791.6279
1717.4079
1644.5017
1572.9714
1502.8756
1434.2692
1367.2041
1301.7292
1237.8914
1175.735
1115.303
1056.6363
999.77447
944.75509
891.61396
840.38443
791.097
743.77856
698.45165
655.13366
613.83588
574.56271
537.31092
502.06901
468.81687
437.52567
408.15801
380.66834
355.00353
331.10367
308.90294
288.33059
269.312
251.76978
235.62483
220.79738
207.2079
194.77783
183.43095
173.0939
163.70041
155.18129
147.47
140.50285
134.2173
128.54885
123.41209
118.59899
114.03689
110.98153
109.43903
108.36158
107.42632
106.58425
105.8241
105.13729
104.51421
103.94645
103.42919
102.95991
102.53464
102.14863
101.79796
101.47888
101.18844
100.92341
100.68062
100.45783
100.2551
100.07249
99.907583
99.758796
99.624071
99.499931
99.384906
99.278889
99.183276
99.096764
99.017642
98.945164
98.876876
98.811644
98.752793
98.696661
98.644874
98.59295
98.548758
98.49827
98.439336
98.403956
98.373585
98.332165
98.325139
98.184655
2555.2104
2478.6155
2402.1281
2325.9123
2250.0686
2174.6895
2099.8637
2025.6763
1952.2094
1879.5419
1807.7497
1736.9055
1667.0792
1598.3374
1530.744
1464.3598
1399.2433
1335.4506
1273.0358
1212.0511
1152.5473
1094.5737
1038.1786
983.40858
930.30913
878.9238
829.29397
781.45825
735.45177
691.30534
649.04459
608.6891
570.25147
533.73658
499.14096
466.45238
435.64965
406.70276
379.57315
354.21436
330.57266
308.58797
288.19483
269.32347
251.9009
235.85199
221.10054
207.57021
195.18534
183.87211
173.55872
164.17993
155.67101
147.9675
141.00847
134.73543
129.09011
124.00486
119.32026
114.77166
111.18797
109.37803
108.26721
107.33812
106.50472
105.75257
105.07316
104.45676
103.89498
103.38302
102.91854
102.49756
102.11536
101.76809
101.45194
101.16409
100.90135
100.66057
100.43962
100.23859
100.05752
99.893934
99.746264
99.612531
99.489411
99.3754
99.270299
99.17538
99.089547
99.011048
98.939129
98.871305
98.806423
98.747823
98.691934
98.640318
98.588574
98.544386
98.493924
98.435334
98.399624
98.369283
98.328477
98.323028
98.18448
2440.0361
2369.7552
2299.4403
2229.2435
2159.2538
2089.5538
2020.2237
1951.3411
1882.982
1815.2205
1748.1286
1681.7764
1616.232
1551.5615
1487.8291
1425.097
1363.4259
1302.8749
1243.5017
1185.3629
1128.5144
1073.0109
1018.9063
966.25376
915.10512
865.51081
817.51928
771.17635
726.52455
683.60221
642.44256
603.07282
565.51328
529.77652
495.8667
463.77915
433.50009
405.00671
378.2674
353.24224
329.88375
308.13764
287.94386
269.23759
251.95039
236.01125
221.3477
207.88674
195.55574
184.28345
174.00045
164.64159
156.14655
148.45328
141.50328
135.24147
129.61458
124.56639
119.98341
115.56247
111.57464
109.3628
108.17783
107.25067
106.42564
105.68151
105.00945
104.39973
103.84393
103.33726
102.87755
102.46084
102.08242
101.7385
101.42527
101.13998
100.87951
100.64073
100.42162
100.22231
100.04278
99.880508
99.733952
99.601204
99.479099
99.366108
99.261902
99.167665
99.0825
99.004613
98.933253
98.865877
98.801337
98.742961
98.687296
98.635841
98.584274
98.54009
98.489625
98.431391
98.395318
98.364986
98.324805
98.320963
98.184587
2327.4274
2263.0909
2198.6018
2134.1002
2069.6643
2005.3666
1941.2786
1877.4704
1814.0113
1750.9698
1688.4136
1626.4092
1565.0221
1504.317
1444.3573
1385.2055
1326.9233
1269.5717
1213.2108
1157.9005
1103.7003
1050.6692
998.86592
948.34863
899.17469
851.40033
805.08006
760.26606
717.00736
675.34902
635.33116
596.98802
560.34701
525.4279
492.24206
460.79204
431.07119
403.06366
376.74464
352.08073
329.03062
307.54588
287.57191
269.04898
251.91328
236.09809
221.53479
208.15387
195.88587
184.66227
174.41625
165.08356
156.60642
148.92629
141.98685
135.7358
130.12394
125.10246
120.59148
116.33569
112.16262
109.42916
108.09928
107.16433
106.34712
105.61097
104.94624
104.34318
103.79334
103.29194
102.83697
102.4245
102.04982
101.70923
101.3989
101.11615
100.85792
100.62115
100.40389
100.2063
100.02829
99.867339
99.721896
99.590133
99.469032
99.357061
99.253734
99.16018
99.075645
98.998365
98.92756
98.86061
98.796403
98.738223
98.682762
98.631454
98.580058
98.535879
98.485386
98.427515
98.39105
98.360708
98.321165
98.318956
98.18504
2217.6532
2158.8889
2099.8744
2040.7387
1981.5493
1922.3691
1863.2606
1804.2862
1745.5084
1686.9899
1628.7929
1570.9801
1513.6137
1456.7558
1400.4683
1344.8129
1289.8514
1235.6453
1182.2564
1129.7465
1078.1776
1027.6119
978.11185
929.73948
882.55664
836.62434
792.00217
748.74772
706.91568
666.55703
627.71802
590.43924
554.7546
520.69052
488.26516
457.48783
428.35871
400.86868
374.99951
350.72421
328.0076
306.80709
287.07359
268.75249
251.78476
236.10806
221.65774
208.36794
196.17248
185.00573
174.80349
165.50361
157.04896
149.38534
142.45849
136.21852
130.61944
125.61754
121.15424
117.04601
112.91665
109.62743
108.04343
107.08009
106.2693
105.54106
104.88361
104.28717
103.74326
103.24712
102.79686
102.38858
102.01762
101.68033
101.37287
101.09265
100.83665
100.60188
100.38648
100.1906
100.01411
99.854472
99.710147
99.579361
99.459243
99.348286
99.24584
99.152984
99.069006
98.992333
98.922075
98.855527
98.791638
98.73363
98.678349
98.627169
98.575938
98.531766
98.481222
98.423714
98.386835
98.356467
98.317576
98.317018
98.185949
2110.965
2057.401
2003.5084
1949.4061
1895.1514
1840.7977
1786.3989
1732.0098
1677.6857
1623.483
1569.4586
1515.6704
1462.1766
1409.0363
1356.3089
1304.0545
1252.3339
1201.2084
1150.7401
1100.9918
1052.0271
1003.9103
956.7062
910.47994
865.29673
821.22134
778.31751
736.64728
696.27013
657.24214
619.61491
583.43467
548.74121
515.56702
483.93649
453.86534
425.36016
398.41827
373.02781
349.16802
326.80976
305.91625
286.4439
268.34329
251.56023
236.03683
221.71257
208.52532
196.4123
185.31094
175.15976
165.89913
157.47242
149.82908
142.91735
136.68943
131.10191
126.11479
121.68208
117.6809
113.72458
110.01364
108.03226
107.00048
106.19237
105.4719
104.82167
104.23179
103.69377
103.20287
102.75728
102.35316
101.98588
101.65185
101.34725
101.06954
100.81576
100.58298
100.36944
100.17529
100.00029
99.841961
99.698751
99.568927
99.449768
99.33981
99.238251
99.146114
99.062615
98.986546
98.916817
98.850651
98.787064
98.729202
98.674076
98.623002
98.571928
98.527761
98.477151
98.419998
98.382687
98.352279
98.314057
98.315165
98.187307
2007.591
1958.8583
1909.7366
1860.3348
1810.7008
1760.8793
1710.9158
1660.8573
1610.7521
1560.6502
1510.6028
1460.6626
1410.8835
1361.3206
1312.0305
1263.0709
1214.5005
1166.3798
1118.7702
1071.7345
1025.3369
979.64262
934.71809
890.63044
847.44726
805.23609
764.06386
723.99616
685.0964
647.42487
611.0378
575.98629
542.31535
510.06293
479.25916
449.92561
422.07493
395.71052
370.82664
347.40856
325.43305
304.86903
285.67841
267.81696
251.23537
235.8803
221.69541
208.62244
196.6021
185.57499
175.48247
166.26743
157.87501
150.25598
143.36234
137.14806
131.57178
126.59628
122.18305
118.25035
114.49436
110.62103
108.10306
106.93134
106.11678
105.40359
104.76051
104.17713
103.64496
103.15928
102.71832
102.3183
101.95468
101.62388
101.32211
101.04689
100.79531
100.56453
100.35286
100.16041
99.986886
99.829862
99.687756
99.558874
99.44065
99.331669
99.230984
99.13957
99.056507
98.981027
98.911808
98.846006
98.782698
98.72496
98.66996
98.618967
98.56804
98.523877
98.473187
98.416375
98.378619
98.348161
98.310627
98.313424
98.188978
1907.7303
1863.4661
1818.7685
1773.737
1728.4109
1682.8265
1637.0214
1591.0352
1544.9093
1498.6872
1452.4142
1406.1376
1359.9066
1313.7721
1267.7871
1222.006
1176.4853
1131.2834
1086.4603
1042.0782
998.20064
954.89319
912.22274
870.25749
829.06646
788.71907
749.2845
710.831
673.42501
637.13026
602.00677
568.10981
535.4889
504.18684
474.23887
445.67198
418.50438
392.74523
368.39455
345.44342
323.87435
303.66187
284.77327
267.16952
250.80621
235.63458
221.60257
208.65582
196.73866
185.79495
175.76899
166.6063
158.2543
150.66439
143.79222
137.59368
132.02915
127.06342
122.66258
118.76986
115.18012
111.40779
108.31167
106.8848
106.04349
105.3363
104.70028
104.12331
103.59694
103.11645
102.68007
102.28412
101.92409
101.59649
101.29753
101.02478
100.77539
100.5466
100.3368
100.14602
99.973962
99.818229
99.677206
99.549247
99.431934
99.323896
99.224058
99.133351
99.050719
98.975799
98.907068
98.841611
98.77856
98.72092
98.666018
98.615079
98.564287
98.520123
98.469343
98.412852
98.374641
98.344125
98.307305
98.311834
98.190873
1811.5486
1771.3997
1730.7867
1689.8008
1648.4733
1606.8329
1564.9098
1522.7365
1480.3477
1437.7805
1395.0744
1352.2712
1309.415
1266.5522
1223.7317
1181.0044
1138.4237
1096.0454
1053.9276
1012.1305
970.71677
929.75119
889.30039
849.43271
810.21775
771.72589
734.0277
697.19322
661.2911
626.38766
592.54594
559.82464
528.27709
497.9503
468.88403
441.11014
414.65196
389.52394
365.73158
343.27147
322.13164
302.29205
283.72533
266.39756
250.2692
235.29611
221.43053
208.62212
196.81884
185.96792
176.01668
166.91336
158.60782
151.05257
144.20557
138.02536
132.47374
127.51707
123.12429
119.25283
115.77144
112.2323
108.72252
106.88449
105.97496
105.27024
104.6411
104.07046
103.54983
103.0745
102.64264
102.2507
101.89423
101.56977
101.27359
101.0033
100.75608
100.52928
100.32131
100.1322
99.961578
99.807108
99.667146
99.540089
99.423663
99.316536
99.217528
99.127488
99.0453
98.970901
98.902617
98.837481
98.774659
98.717096
98.662259
98.61135
98.560676
98.516505
98.465627
98.40943
98.370757
98.340182
98.304108
98.310438
98.193002
1719.176
1682.8009
1645.9432
1608.6864
1571.0548
1533.07
1494.7554
1456.137
1417.2429
1378.1044
1338.7549
1299.2308
1259.5711
1219.8176
1180.0145
1140.209
1100.4509
1060.7929
1021.2903
982.00123
942.98642
904.30917
866.03508
828.23183
790.96879
754.3165
718.34608
683.12854
648.73391
615.23035
582.68314
551.15367
520.69838
491.36782
463.20571
436.24817
410.52317
386.05004
362.83935
340.8929
320.20398
300.75782
282.53221
265.49825
249.62126
234.86168
221.1761
208.51816
196.8396
186.09104
176.2229
167.18619
158.93325
151.41851
144.60082
138.44195
132.90501
127.9576
123.57052
119.70921
116.28908
112.98215
109.37485
106.97096
105.91703
105.2058
104.58313
104.01872
103.50378
103.03353
102.60614
102.21816
101.8652
101.54383
101.25039
100.98253
100.73746
100.51262
100.30648
100.11901
99.949782
99.796544
99.657619
99.531445
99.41588
99.309628