/*--------------------------------*- C++ -*----------------------------------*\
| =========                 |                                                 |
| \\      /  F ield         | OpenFOAM: The Open Source CFD Toolbox           |
|  \\    /   O peration     | Version:  2406                                  |
|   \\  /    A nd           | Website:  www.openfoam.com                      |
|    \\/     M anipulation  |                                                 |
\*---------------------------------------------------------------------------*/
FoamFile
{
    version     2.0;
    format      ascii;
    arch        "LSB;label=32;scalar=64";
    class       volScalarField;
    location    "0.003";
    object      T;
}
// * * * * * * * * * * * * * * * * * * * * * * * * * * * * * * * * * * * * * //

dimensions      [0 0 0 1 0 0 0];

internalField   nonuniform List<scalar> 
23204
(
292.85558
292.85437
292.85354
292.85302
292.85265
292.91325
292.90608
292.89922
292.89273
292.88666
292.88104
292.87588
292.87123
292.8671
292.8635
292.86044
292.85788
292.85581
292.85418
292.85299
292.85216
292.85165
292.85128
293.03708
293.03338
293.02922
293.02459
293.01952
293.01403
293.00813
293.00186
292.99523
292.9883
292.98108
292.97363
292.96599
292.95822
292.95035
292.94245
292.93458
292.92679
292.91915
292.91171
292.90455
292.8977
292.89122
292.88516
292.87955
292.87441
292.86977
292.86565
292.86206
292.85901
292.85647
292.85442
292.85279
292.85161
292.8508
292.85029
292.84993
293.1337
293.12827
293.12292
293.11765
293.11246
293.10731
293.10221
293.09712
293.09204
293.08693
293.08177
293.07653
293.07117
293.06564
293.05991
293.05392
293.04765
293.04123
293.03535
293.03378
293.03916
293.04414
293.04681
293.04826
293.04905
293.04942
293.04933
293.04879
293.04782
293.0464
293.04452
293.04218
293.03937
293.03608
293.03233
293.02811
293.02343
293.01831
293.01277
293.00682
293.00051
292.99385
292.98688
292.97964
292.97216
292.9645
292.9567
292.94882
292.94091
292.93303
292.92524
292.9176
292.91017
292.90301
292.89617
292.88971
292.88366
292.87806
292.87294
292.86831
292.86421
292.86064
292.8576
292.85507
292.85303
292.85142
292.85025
292.84945
292.84895
292.84859
293.42646
293.41431
293.40246
293.39092
293.37966
293.36869
293.35799
293.34755
293.33737
293.32743
293.31774
293.30827
293.29903
293.29001
293.2812
293.27259
293.26419
293.25597
293.24794
293.24009
293.23242
293.22493
293.2176
293.21043
293.20343
293.19658
293.18988
293.18333
293.17692
293.17065
293.16451
293.1585
293.15262
293.14685
293.14119
293.13563
293.13016
293.12478
293.11947
293.11422
293.10901
293.10382
293.09864
293.09343
293.08817
293.08283
293.07737
293.07174
293.06588
293.05974
293.05326
293.04646
293.03972
293.03568
293.03891
293.04379
293.04653
293.04794
293.04869
293.04897
293.04881
293.0482
293.04715
293.04565
293.0437
293.0413
293.03842
293.03508
293.03126
293.02698
293.02225
293.01708
293.01149
293.0055
292.99915
292.99245
292.98545
292.97818
292.97068
292.96299
292.95518
292.94729
292.93937
292.93148
292.92369
292.91605
292.90862
292.90147
292.89464
292.88819
292.88216
292.87658
292.87147
292.86687
292.86278
292.85923
292.85621
292.85369
292.85167
292.85007
292.84891
292.84812
292.84763
292.84726
293.43788
293.42571
293.41384
293.40225
293.39094
293.3799
293.36913
293.35861
293.34833
293.3383
293.3285
293.31892
293.30957
293.30042
293.29148
293.28275
293.2742
293.26585
293.25768
293.24969
293.24188
293.23424
293.22677
293.21946
293.21231
293.20532
293.19847
293.19178
293.18523
293.17882
293.17255
293.16641
293.16039
293.15449
293.14871
293.14303
293.13744
293.13195
293.12653
293.12117
293.11585
293.11056
293.10528
293.09998
293.09462
293.08919
293.08363
293.0779
293.07193
293.06566
293.059
293.05191
293.04453
293.03844
293.03901
293.04347
293.04624
293.04764
293.04832
293.04851
293.04829
293.04759
293.04647
293.0449
293.04288
293.04041
293.03747
293.03406
293.03019
293.02585
293.02107
293.01584
293.01021
293.00418
292.99778
292.99104
292.98401
292.97671
292.96918
292.96148
292.95365
292.94574
292.93781
292.92992
292.92213
292.9145
292.90708
292.89993
292.89312
292.88668
292.88066
292.8751
292.87002
292.86543
292.86136
292.85783
292.85483
292.85233
292.85032
292.84874
292.84759
292.84681
292.84632
292.84596
293.44907
293.43691
293.42502
293.41341
293.40206
293.39097
293.38013
293.36954
293.35919
293.34907
293.33917
293.3295
293.32003
293.31078
293.30172
293.29286
293.2842
293.27571
293.26741
293.25929
293.25134
293.24356
293.23595
293.2285
293.22121
293.21407
293.20709
293.20026
293.19357
293.18703
293.18062
293.17434
293.1682
293.16217
293.15626
293.15046
293.14476
293.13915
293.13362
293.12815
293.12273
293.11734
293.11196
293.10656
293.10112
293.09559
293.08994
293.08412
293.07805
293.07167
293.06487
293.05754
293.04969
293.04209
293.0397
293.0432
293.04595
293.04735
293.04797
293.04805
293.04774
293.04699
293.04579
293.04415
293.04206
293.03952
293.03651
293.03304
293.02911
293.02471
293.01987
293.0146
293.00891
293.00284
292.9964
292.98963
292.98256
292.97523
292.96768
292.95995
292.95211
292.94419
292.93625
292.92836
292.92057
292.91294
292.90553
292.8984
292.8916
292.88518
292.87918
292.87364
292.86857
292.86401
292.85996
292.85645
292.85347
292.85098
292.84899
292.84743
292.8463
292.84552
292.84504
292.84468
293.46
293.44786
293.43598
293.42436
293.41299
293.40186
293.39098
293.38034
293.36992
293.35973
293.34975
293.33998
293.33042
293.32107
293.3119
293.30293
293.29414
293.28554
293.27711
293.26886
293.26078
293.25287
293.24512
293.23754
293.23011
293.22284
293.21572
293.20875
293.20193
293.19525
293.18871
293.1823
293.17603
293.16988
293.16385
293.15793
293.15211
293.14638
293.14074
293.13517
293.12964
293.12416
293.11868
293.11319
293.10765
293.10204
293.0963
293.09039
293.08424
293.07775
293.07083
293.06334
293.05514
293.04652
293.04121
293.04303
293.04566
293.04704
293.04759
293.04761
293.04721
293.04638
293.04511
293.04339
293.04123
293.03862
293.03555
293.03201
293.02802
293.02357
293.01867
293.01335
293.00761
293.00149
292.99501
292.98821
292.9811
292.97374
292.96617
292.95843
292.95056
292.94264
292.93469
292.9268
292.91901
292.91139
292.90398
292.89687
292.89008
292.88368
292.8777
292.87218
292.86715
292.8626
292.85858
292.85509
292.85213
292.84966
292.84769
292.84614
292.84502
292.84425
292.84378
292.84342
293.48298
293.47063
293.45853
293.44667
293.43506
293.42369
293.41255
293.40164
293.39096
293.38049
293.37024
293.36019
293.35035
293.34071
293.33126
293.322
293.31292
293.30403
293.29531
293.28677
293.2784
293.27019
293.26216
293.25428
293.24656
293.23901
293.2316
293.22435
293.21725
293.21029
293.20348
293.19681
293.19028
293.18388
293.1776
293.17145
293.16541
293.15948
293.15364
293.14789
293.14221
293.13658
293.13099
293.12542
293.11984
293.11421
293.10852
293.1027
293.0967
293.09047
293.0839
293.07688
293.06925
293.06083
293.05155
293.0437
293.04309
293.04538
293.04672
293.04723
293.04718
293.04668
293.04577
293.04442
293.04263
293.0404
293.03772
293.03458
293.03098
293.02692
293.02241
293.01746
293.01209
293.0063
293.00014
292.99362
292.98678
292.97964
292.97226
292.96466
292.9569
292.94902
292.94108
292.93313
292.92524
292.91745
292.90984
292.90245
292.89534
292.88858
292.8822
292.87624
292.87075
292.86573
292.86122
292.85722
292.85375
292.85081
292.84837
292.84641
292.84488
292.84378
292.84302
292.84255
292.84219
293.49318
293.48091
293.46887
293.45707
293.44549
293.43414
293.423
293.41208
293.40138
293.39088
293.38058
293.37048
293.36058
293.35086
293.34133
293.33199
293.32282
293.31383
293.30501
293.29636
293.28788
293.27956
293.2714
293.2634
293.25556
293.24788
293.24035
293.23297
293.22574
293.21865
293.21171
293.20492
293.19826
293.19173
293.18533
293.17906
293.17291
293.16686
293.16091
293.15505
293.14926
293.14354
293.13785
293.13218
293.12651
293.1208
293.11502
293.10912
293.10305
293.09674
293.0901
293.08301
293.07528
293.06669
293.05699
293.0472
293.04363
293.04515
293.04641
293.04687
293.04674
293.04614
293.04516
293.04374
293.04187
293.03956
293.03681
293.0336
293.02994
293.02582
293.02126
293.01625
293.01082
293.00499
292.99878
292.99222
292.98535
292.97818
292.97077
292.96315
292.95537
292.94747
292.93953
292.93158
292.92368
292.9159
292.90829
292.90092
292.89383
292.88708
292.88072
292.87479
292.86933
292.86434
292.85985
292.85588
292.85244
292.84952
292.8471
292.84516
292.84365
292.84256
292.84181
292.84135
292.84099
293.50297
293.4908
293.47886
293.46712
293.4556
293.44428
293.43317
293.42226
293.41155
293.40104
293.39071
293.38058
293.37063
293.36086
293.35126
293.34184
293.3326
293.32352
293.31461
293.30586
293.29727
293.28885
293.28058
293.27247
293.26451
293.25671
293.24906
293.24155
293.2342
293.22699
293.21993
293.21301
293.20623
293.19958
293.19307
293.18667
293.1804
293.17424
293.16818
293.16222
293.15633
293.1505
293.14472
293.13896
293.1332
293.12741
293.12154
293.11557
293.10943
293.10305
293.09635
293.08918
293.08138
293.07269
293.06273
293.05167
293.04482
293.04502
293.0461
293.04649
293.04629
293.04562
293.04455
293.04305
293.0411
293.03872
293.0359
293.03263
293.0289
293.02472
293.02009
293.01503
293.00955
293.00367
292.99742
292.99082
292.98391
292.97671
292.96927
292.96163
292.95383
292.94593
292.93798
292.93002
292.92213
292.91436
292.90676
292.8994
292.89233
292.8856
292.87927
292.87337
292.86793
292.86297
292.85851
292.85457
292.85116
292.84826
292.84586
292.84395
292.84246
292.84137
292.84063
292.84018
292.83982
293.51229
293.50026
293.48842
293.47679
293.46534
293.45409
293.44302
293.43215
293.42145
293.41094
293.40061
293.39045
293.38047
293.37066
293.36101
293.35154
293.34222
293.33307
293.32408
293.31525
293.30657
293.29805
293.28968
293.28146
293.27339
293.26548
293.25771
293.2501
293.24263
293.2353
293.22812
293.22108
293.21418
293.20741
293.20078
293.19428
293.18789
293.18162
293.17545
293.16938
293.16339
293.15747
293.15159
293.14574
293.13989
293.13402
293.12808
293.12203
293.11582
293.10938
293.10262
293.0954
293.08755
293.07879
293.06871
293.05699
293.04701
293.04507
293.0458
293.04611
293.04584
293.04509
293.04394
293.04235
293.04033
293.03788
293.03498
293.03164
293.02785
293.02361
293.01892
293.01381
293.00828
293.00235
292.99606
292.98942
292.98247
292.97524
292.96778
292.96012
292.9523
292.94439
292.93643
292.92848
292.92059
292.91282
292.90524
292.89789
292.89084
292.88414
292.87784
292.87196
292.86655
292.86163
292.8572
292.85329
292.8499
292.84704
292.84466
292.84276
292.84129
292.84022
292.83949
292.83904
292.83869
293.52109
293.50922
293.49753
293.48601
293.47467
293.4635
293.45251
293.44168
293.43103
293.42054
293.41022
293.40006
293.39007
293.38023
293.37056
293.36104
293.35167
293.34246
293.3334
293.32449
293.31574
293.30713
293.29867
293.29036
293.28219
293.27417
293.2663
293.25857
293.25099
293.24356
293.23626
293.22911
293.22209
293.21522
293.20847
293.20185
293.19536
293.18898
293.18271
293.17654
293.17044
293.16442
293.15845
293.15252
293.14659
293.14063
293.13462
293.1285
293.12223
293.11573
293.10891
293.10165
293.09377
293.08498
293.07486
293.06285
293.05042
293.0455
293.04555
293.04574
293.0454
293.04457
293.04332
293.04166
293.03956
293.03703
293.03406
293.03065
293.0268
293.02249
293.01775
293.01258
293.007
293.00102
292.99469
292.98801
292.98103
292.97377
292.96629
292.9586
292.95078
292.94286
292.93489
292.92694
292.91906
292.9113
292.90373
292.8964
292.88938
292.8827
292.87642
292.87058
292.8652
292.86031
292.85592
292.85204
292.84868
292.84584
292.84349
292.84162
292.84017
292.83911
292.83839
292.83794
292.83759
293.52932
293.51764
293.50612
293.49475
293.48354
293.47249
293.46158
293.45084
293.44024
293.4298
293.41951
293.40938
293.39939
293.38955
293.37986
293.37031
293.36091
293.35165
293.34254
293.33358
293.32475
293.31607
293.30753
293.29913
293.29088
293.28277
293.2748
293.26697
293.25929
293.25174
293.24434
293.23708
293.22996
293.22297
293.21612
293.2094
293.2028
293.19631
293.18994
293.18367
293.17748
293.17136
293.1653
293.15928
293.15327
293.14724
293.14115
293.13497
293.12863
293.12208
293.11522
293.10792
293.10002
293.09123
293.08112
293.06904
293.05508
293.04656
293.04538
293.04537
293.04496
293.04404
293.04269
293.04095
293.03878
293.03618
293.03314
293.02966
293.02573
293.02137
293.01657
293.01134
293.00571
292.99969
292.99331
292.9866
292.97959
292.9723
292.96479
292.95709
292.94926
292.94133
292.93336
292.92541
292.91754
292.90979
292.90224
292.89493
292.88793
292.88129
292.87504
292.86923
292.86388
292.85903
292.85467
292.85083
292.8475
292.84469
292.84237
292.84051
292.83908
292.83804
292.83733
292.83689
292.83653
293.53691
293.52546
293.51414
293.50295
293.4919
293.48098
293.4702
293.45956
293.44905
293.43868
293.42845
293.41835
293.40839
293.39856
293.38888
293.37932
293.3699
293.36062
293.35147
293.34246
293.33358
293.32484
293.31624
293.30777
293.29943
293.29124
293.28318
293.27526
293.26749
293.25985
293.25235
293.24498
293.23776
293.23067
293.22372
293.21689
293.21019
293.20361
293.19713
293.19076
293.18448
293.17828
293.17213
293.16602
293.15993
293.15382
293.14767
293.14142
293.13503
293.12843
293.12152
293.1142
293.10628
293.09751
293.08746
293.07543
293.06076
293.04858
293.04538
293.04502
293.0445
293.04351
293.04207
293.04024
293.03799
293.03531
293.0322
293.02865
293.02466
293.02024
293.01538
293.0101
293.00442
292.99835
292.99193
292.98519
292.97814
292.97083
292.9633
292.95559
292.94774
292.93981
292.93184
292.9239
292.91603
292.9083
292.90077
292.89349
292.88651
292.8799
292.87368
292.8679
292.8626
292.85778
292.85346
292.84965
292.84636
292.84358
292.84128
292.83945
292.83804
292.83701
292.83631
292.83587
292.83552
293.54383
293.53263
293.52155
293.51057
293.4997
293.48895
293.47832
293.4678
293.45741
293.44713
293.43698
293.42694
293.41703
293.40725
293.39758
293.38804
293.37862
293.36933
293.36016
293.35112
293.34221
293.33342
293.32476
293.31623
293.30783
293.29957
293.29143
293.28343
293.27557
293.26784
293.26025
293.2528
293.24548
293.23829
293.23124
293.22432
293.21752
293.21084
293.20428
293.19781
293.19144
293.18515
293.17892
293.17273
293.16656
293.16038
293.15416
293.14785
293.1414
293.13476
293.12782
293.12047
293.11255
293.10381
293.09383
293.08196
293.06715
293.05187
293.04569
293.0447
293.04404
293.04297
293.04145
293.03952
293.0372
293.03444
293.03126
293.02764
293.02358
293.0191
293.01418
293.00885
293.00312
292.99701
292.99055
292.98377
292.97669
292.96936
292.96181
292.95409
292.94623
292.93829
292.93033
292.92239
292.91454
292.90683
292.89932
292.89207
292.88512
292.87854
292.87236
292.86662
292.86135
292.85657
292.85229
292.84852
292.84526
292.84251
292.84024
292.83844
292.83704
292.83603
292.83534
292.83491
292.83456
293.55002
293.53911
293.52828
293.51754
293.5069
293.49634
293.48589
293.47553
293.46527
293.45511
293.44506
293.43512
293.42528
293.41555
293.40593
293.39643
293.38703
293.37775
293.36858
293.35952
293.35059
293.34177
293.33307
293.3245
293.31605
293.30772
293.29953
293.29146
293.28352
293.27571
293.26804
293.2605
293.25309
293.24582
293.23868
293.23167
293.22478
293.21801
293.21135
293.2048
293.19835
293.19197
293.18566
293.17939
293.17315
293.1669
293.16061
293.15425
293.14775
293.14106
293.13409
293.12673
293.11881
293.1101
293.10022
293.08854
293.07393
293.05666
293.04663
293.04446
293.04358
293.04242
293.04082
293.03881
293.0364
293.03356
293.0303
293.02662
293.0225
293.01795
293.01297
293.00759
293.00181
292.99566
292.98916
292.98235
292.97525
292.96789
292.96032
292.95259
292.94473
292.93679
292.92883
292.92091
292.91307
292.90538
292.8979
292.89067
292.88376
292.87721
292.87107
292.86537
292.86014
292.85541
292.85116
292.84743
292.84421
292.84149
292.83925
292.83747
292.8361
292.8351
292.83442
292.834
292.83365
293.55543
293.54484
293.53431
293.52384
293.51344
293.50311
293.49286
293.48268
293.47259
293.46258
293.45266
293.44283
293.43309
293.42345
293.4139
293.40444
293.39509
293.38583
293.37668
293.36764
293.3587
293.34987
293.34115
293.33254
293.32405
293.31568
293.30744
293.29931
293.29131
293.28344
293.27569
293.26808
293.26059
293.25324
293.24602
293.23892
293.23195
293.2251
293.21836
293.21172
293.20518
293.19873
293.19234
293.186
293.17969
293.17337
293.16703
293.16061
293.15406
293.14733
293.14033
293.13296
293.12505
293.11638
293.10661
293.09514
293.0809
293.06278
293.04845
293.04436
293.04314
293.04188
293.04018
293.03806
293.03558
293.03267
293.02934
293.02558
293.02139
293.01678
293.01175
293.00632
293.00049
292.9943
292.98777
292.98092
292.97379
292.96642
292.95884
292.95109
292.94323
292.9353
292.92735
292.91944
292.91162
292.90396
292.8965
292.88931
292.88243
292.87592
292.86982
292.86416
292.85898
292.85428
292.85009
292.8464
292.84321
292.84053
292.83832
292.83656
292.83521
292.83423
292.83356
292.83314
292.83279
293.56003
293.54978
293.53958
293.52941
293.51929
293.50921
293.49919
293.48923
293.47933
293.4695
293.45974
293.45005
293.44043
293.43089
293.42143
293.41205
293.40276
293.39356
293.38445
293.37543
293.3665
293.35768
293.34895
293.34034
293.33182
293.32342
293.31514
293.30697
293.29892
293.29099
293.28318
293.2755
293.26795
293.26053
293.25323
293.24606
293.23901
293.23208
293.22527
293.21856
293.21194
293.20541
293.19895
293.19254
293.18616
293.17979
293.17338
293.16691
293.16032
293.15355
293.14653
293.13915
293.13125
293.12264
293.11298
293.10173
293.08791
293.06985
293.05172
293.04458
293.04273
293.04131
293.03952
293.03732
293.03475
293.03177
293.02836
293.02453
293.02028
293.01561
293.01052
293.00504
292.99917
292.99293
292.98637
292.97949
292.97234
292.96495
292.95736
292.94961
292.94174
292.93382
292.92588
292.91799
292.9102
292.90256
292.89513
292.88797
292.88114
292.87467
292.86861
292.86299
292.85786
292.85321
292.84906
292.84541
292.84227
292.83962
292.83744
292.83571
292.83438
292.83341
292.83275
292.83234
292.832
293.56379
293.55392
293.54407
293.53422
293.52441
293.51462
293.50486
293.49514
293.48546
293.47583
293.46625
293.45672
293.44725
293.43784
293.4285
293.41922
293.41002
293.40089
293.39183
293.38286
293.37397
293.36517
293.35646
293.34785
293.33933
293.33092
293.32261
293.31441
293.30632
293.29835
293.2905
293.28276
293.27515
293.26767
293.26031
293.25307
293.24595
293.23895
293.23207
293.22529
293.2186
293.21201
293.20548
293.19901
293.19256
293.18613
293.17967
293.17315
293.16652
293.15972
293.15268
293.14529
293.13741
293.12884
293.1193
293.10828
293.09489
293.07743
293.05673
293.04533
293.04238
293.04073
293.03885
293.03658
293.03391
293.03085
293.02737
293.02347
293.01915
293.01442
293.00928
293.00374
292.99783
292.99156
292.98496
292.97806
292.97089
292.96348
292.95588
292.94812
292.94026
292.93235
292.92443
292.91656
292.90879
292.90118
292.89379
292.88667
292.87988
292.87345
292.86744
292.86187
292.85678
292.85218
292.84808
292.84448
292.84138
292.83876
292.83661
292.83491
292.8336
292.83265
292.832
292.8316
292.83126
293.56669
293.55723
293.54775
293.53826
293.52877
293.51929
293.50982
293.50037
293.49094
293.48154
293.47216
293.46283
293.45353
293.44428
293.43507
293.42592
293.41682
293.40779
293.39882
293.38991
293.38108
293.37232
293.36364
293.35505
293.34655
293.33813
293.32982
293.3216
293.31349
293.30549
293.29761
293.28983
293.28218
293.27464
293.26723
293.25993
293.25276
293.2457
293.23875
293.23191
293.22516
293.2185
293.21191
293.20538
293.19888
293.19239
293.18588
293.17932
293.17265
293.16582
293.15876
293.15136
293.1435
293.135
293.12557
293.11476
293.10181
293.08514
293.06343
293.04705
293.04216
293.04016
293.03817
293.03581
293.03305
293.02991
293.02636
293.02239
293.01801
293.01322
293.00802
293.00244
292.99648
292.99017
292.98354
292.97662
292.96943
292.96201
292.9544
292.94665
292.9388
292.93089
292.92299
292.91515
292.90741
292.89984
292.89249
292.88541
292.87866
292.87228
292.86631
292.8608
292.85576
292.85121
292.84715
292.8436
292.84054
292.83796
292.83585
292.83417
292.83289
292.83195
292.83132
292.83092
292.83059
293.56874
293.55969
293.55061
293.5415
293.53237
293.52322
293.51406
293.5049
293.49574
293.48659
293.47745
293.46833
293.45923
293.45016
293.44112
293.43211
293.42315
293.41423
293.40536
293.39655
293.38779
293.3791
293.37047
293.36192
293.35344
293.34505
293.33674
293.32853
293.32042
293.3124
293.30449
293.29669
293.289
293.28143
293.27397
293.26663
293.2594
293.25229
293.24529
293.23839
293.23159
293.22487
293.21823
293.21164
293.20509
293.19855
293.192
293.1854
293.1787
293.17184
293.16477
293.15737
293.14953
293.14108
293.13176
293.12117
293.10862
293.09276
293.07136
293.05035
293.04225
293.03962
293.03748
293.03502
293.03217
293.02895
293.02533
293.02129
293.01685
293.012
293.00675
293.00112
292.99512
292.98878
292.98212
292.97517
292.96796
292.96054
292.95293
292.94518
292.93734
292.92945
292.92157
292.91376
292.90605
292.89852
292.89121
292.88418
292.87748
292.87115
292.86524
292.85977
292.85479
292.85029
292.84629
292.84278
292.83977
292.83723
292.83515
292.8335
292.83224
292.83132
292.8307
292.83031
292.82999
293.56993
293.56132
293.55265
293.54393
293.53518
293.52638
293.51756
293.50871
293.49985
293.49097
293.48209
293.47321
293.46433
293.45546
293.44661
293.43777
293.42896
293.42018
293.41144
293.40273
293.39408
293.38547
293.37691
293.36842
293.35999
293.35164
293.34336
293.33517
293.32706
293.31905
293.31113
293.30332
293.29561
293.28801
293.28052
293.27314
293.26588
293.25872
293.25167
293.24473
293.23788
293.23111
293.22442
293.21779
293.21119
293.20461
293.19802
293.19138
293.18465
293.17777
293.17068
293.16329
293.15548
293.14708
293.13787
293.12749
293.11531
293.10021
293.07985
293.05572
293.04288
293.03914
293.03677
293.03422
293.03128
293.02798
293.02428
293.02018
293.01567
293.01076
293.00546
292.99978
292.99375
292.98737
292.98069
292.97372
292.9665
292.95907
292.95146
292.94372
292.93589
292.92802
292.92017
292.91239
292.90472
292.89723
292.88997
292.88299
292.87634
292.87007
292.86421
292.8588
292.85387
292.84943
292.84548
292.84202
292.83906
292.83656
292.83452
292.8329
292.83166
292.83076
292.83015
292.82977
292.82946
293.57028
293.56211
293.55388
293.54557
293.5372
293.52878
293.52031
293.51179
293.50325
293.49467
293.48606
293.47744
293.4688
293.46016
293.45152
293.44288
293.43424
293.42563
293.41703
293.40845
293.39991
293.39141
293.38295
293.37453
293.36617
293.35788
293.34964
293.34149
293.3334
293.32541
293.3175
293.30969
293.30197
293.29436
293.28685
293.27945
293.27216
293.26497
293.25789
293.25091
293.24402
293.23721
293.23048
293.2238
293.21716
293.21055
293.20392
293.19725
293.19049
293.1836
293.1765
293.16911
293.16132
293.15299
293.14389
293.1337
293.12188
293.10745
293.08836
293.06315
293.04457
293.0388
293.03607
293.03339
293.03036
293.02698
293.02321
293.01904
293.01447
293.00951
293.00416
292.99844
292.99236
292.98596
292.97925
292.97226
292.96503
292.9576
292.94999
292.94226
292.93445
292.92661
292.91879
292.91105
292.90342
292.89598
292.88877
292.88184
292.87525
292.86903
292.86323
292.85788
292.85301
292.84862
292.84473
292.84133
292.83841
292.83595
292.83395
292.83236
292.83115
292.83026
292.82967
292.82929
292.829
293.56982
293.56211
293.55431
293.54642
293.53846
293.53042
293.52231
293.51415
293.50593
293.49767
293.48936
293.48102
293.47264
293.46425
293.45583
293.4474
293.43897
293.43053
293.4221
293.41368
293.40528
293.3969
293.38855
293.38024
293.37196
293.36374
293.35557
293.34746
293.33943
293.33146
293.32358
293.31578
293.30807
293.30046
293.29295
293.28554
293.27823
293.27102
293.26391
293.2569
293.24998
293.24314
293.23638
293.22967
293.223
293.21635
293.20969
293.203
293.19622
293.18931
293.18221
293.17483
293.16707
293.15879
293.14979
293.13979
293.12829
293.11448
293.0966
293.07203
293.04809
293.03877
293.03537
293.03255
293.02942
293.02596
293.02212
293.01788
293.01325
293.00823
293.00284
292.99707
292.99096
292.98453
292.9778
292.9708
292.96356
292.95613
292.94853
292.94081
292.93303
292.92522
292.91743
292.90972
292.90215
292.89475
292.8876
292.88073
292.8742
292.86804
292.8623
292.85701
292.8522
292.84788
292.84404
292.8407
292.83783
292.83541
292.83345
292.83189
292.8307
292.82983
292.82926
292.82889
292.82861
293.5686
293.56134
293.55397
293.54651
293.53895
293.53131
293.52358
293.51578
293.50791
293.49997
293.49198
293.48393
293.47584
293.4677
293.45954
293.45134
293.44312
293.43489
293.42665
293.4184
293.41015
293.40192
293.3937
293.3855
293.37734
293.36921
293.36112
293.35308
293.3451
293.33719
293.32935
293.32158
293.3139
293.3063
293.2988
293.29139
293.28407
293.27685
293.26973
293.2627
293.25576
293.2489
293.24211
293.23537
293.22868
293.222
293.21532
293.20861
293.20181
293.19489
293.18779
293.18042
293.17269
293.16447
293.15558
293.14575
293.13455
293.12128
293.1045
293.08147
293.05398
293.03931
293.03472
293.03168
293.02847
293.02493
293.02101
293.01671
293.01202
293.00694
293.0015
292.9957
292.98955
292.98309
292.97634
292.96933
292.96209
292.95466
292.94707
292.93938
292.93161
292.92384
292.91609
292.90843
292.9009
292.89356
292.88647
292.87966
292.87319
292.8671
292.86142
292.8562
292.85145
292.84719
292.84342
292.84013
292.83731
292.83494
292.83302
292.83149
292.83033
292.82948
292.82893
292.82856
292.82829
293.56665
293.55984
293.55291
293.54587
293.53873
293.53148
293.52413
293.5167
293.50918
293.50159
293.49392
293.48618
293.47838
293.47053
293.46263
293.45468
293.4467
293.43868
293.43064
293.42259
293.41452
293.40645
293.39838
293.39032
293.38228
293.37426
293.36627
293.35832
293.35042
293.34257
293.33478
293.32707
293.31942
293.31185
293.30437
293.29697
293.28967
293.28245
293.27533
293.26829
293.26134
293.25447
293.24766
293.24091
293.23419
293.2275
293.2208
293.21407
293.20726
293.20034
293.19324
293.18588
293.17819
293.17003
293.16123
293.15156
293.14064
293.12785
293.11202
293.09074
293.06233
293.04124
293.03427
293.03081
293.02749
293.02386
293.01987
293.01551
293.01076
293.00564
293.00015
292.99431
292.98813
292.98165
292.97488
292.96786
292.96062
292.9532
292.94563
292.93795
292.93022
292.92247
292.91477
292.90716
292.89969
292.89241
292.88537
292.87863
292.87223
292.86621
292.8606
292.85544
292.85076
292.84656
292.84286
292.83963
292.83686
292.83454
292.83266
292.83116
292.83003
292.8292
292.82866
292.82831
292.82805
293.56403
293.55766
293.55116
293.54454
293.5378
293.53095
293.524
293.51694
293.50978
293.50253
293.49519
293.48778
293.48029
293.47272
293.4651
293.45742
293.44968
293.44191
293.43409
293.42624
293.41837
293.41047
293.40257
293.39467
293.38676
293.37887
293.371
293.36316
293.35535
293.34759
293.33987
293.33222
293.32463
293.3171
293.30966
293.30229
293.29501
293.28781
293.28069
293.27366
293.26671
293.25983
293.25301
293.24625
293.23953
293.23282
293.22611
293.21937
293.21256
293.20563
293.19854
293.19121
293.18354
293.17544
293.16674
293.15723
293.14656
293.1342
293.11919
293.09953
293.0723
293.04531
293.03415
293.02994
293.02648
293.02278
293.01872
293.01429
293.00948
293.00431
292.99878
292.9929
292.9867
292.9802
292.97342
292.96639
292.95916
292.95174
292.94418
292.93653
292.92883
292.92113
292.91348
292.90592
292.8985
292.89129
292.88432
292.87765
292.87132
292.86537
292.85983
292.85474
292.85013
292.846
292.84236
292.83919
292.83649
292.83422
292.83237
292.83091
292.8298
292.82899
292.82848
292.82814
292.82789
293.5608
293.55485
293.54877
293.54256
293.53623
293.52977
293.5232
293.51651
293.50972
293.50282
293.49582
293.48873
293.48156
293.4743
293.46696
293.45955
293.45208
293.44456
293.43697
293.42935
293.42168
293.41399
293.40627
293.39853
293.39079
293.38305
293.37531
293.36759
293.35989
293.35223
293.3446
293.33702
293.3295
293.32204
293.31464
293.30731
293.30006
293.29289
293.2858
293.27878
293.27184
293.26497
293.25816
293.25139
293.24467
293.23796
293.23125
293.2245
293.21769
293.21077
293.20369
293.19637
293.18875
293.18071
293.1721
293.16273
293.1523
293.14033
293.12602
293.10777
293.08266
293.05198
293.03483
293.02919
293.02546
293.02166
293.01754
293.01305
293.00819
293.00297
292.99739
292.99148
292.98526
292.97874
292.97195
292.96492
292.95769
292.95029
292.94275
292.93513
292.92747
292.91981
292.91221
292.9047
292.89735
292.8902
292.8833
292.87671
292.87045
292.86458
292.85912
292.8541
292.84956
292.84551
292.84193
292.83883
292.83618
292.83396
292.83216
292.83073
292.82965
292.82886
292.82836
292.82804
292.82781
293.55702
293.55148
293.5458
293.53999
293.53405
293.52798
293.52178
293.51546
293.50903
293.50248
293.49583
293.48907
293.48221
293.47526
293.46822
293.4611
293.4539
293.44663
293.4393
293.43191
293.42447
293.41699
293.40946
293.40192
293.39434
293.38676
293.37917
293.37159
293.36402
293.35647
293.34895
293.34146
293.33402
293.32663
293.3193
293.31203
293.30483
293.2977
293.29064
293.28365
293.27673
293.26987
293.26307
293.25632
293.2496
293.2429
293.23619
293.22945
293.22264
293.21573
293.20867
293.20138
293.1938
293.18581
293.1773
293.16807
293.15785
293.14624
293.13254
293.11547
293.09255
293.06151
293.03716
293.02864
293.02444
293.02053
293.01633
293.01178
293.00687
293.0016
292.99599
292.99005
292.98381
292.97727
292.97048
292.96345
292.95623
292.94884
292.94133
292.93374
292.92612
292.91851
292.91096
292.90352
292.89623
292.88915
292.88233
292.87581
292.86963
292.86384
292.85846
292.85352
292.84905
292.84507
292.84157
292.83853
292.83594
292.83377
292.83202
292.83062
292.82958
292.82881
292.82833
292.82801
292.82781
293.55273
293.54758
293.54229
293.53687
293.5313
293.52561
293.51978
293.51382
293.50775
293.50155
293.49523
293.4888
293.48227
293.47563
293.46889
293.46206
293.45515
293.44815
293.44107
293.43393
293.42672
293.41946
293.41215
293.4048
293.39742
293.39001
293.38259
293.37516
293.36773
293.36031
293.3529
293.34553
293.33819
293.33089
293.32363
293.31643
293.30929
293.30222
293.2952
293.28825
293.28136
293.27453
293.26776
293.26102
293.25432
293.24763
293.24093
293.2342
293.22741
293.22052
293.21347
293.20621
293.19867
293.19075
293.18232
293.17322
293.16321
293.15192
293.13876
293.12269
293.10172
293.07257
293.04208
293.02861
293.02344
293.01937
293.01511
293.0105
293.00554
293.00023
292.99458
292.98861
292.98235
292.9758
292.969
292.96198
292.95477
292.9474
292.93992
292.93237
292.92479
292.91723
292.90974
292.90236