/*--------------------------------*- C++ -*----------------------------------*\
| =========                 |                                                 |
| \\      /  F ield         | OpenFOAM: The Open Source CFD Toolbox           |
|  \\    /   O peration     | Version:  2406                                  |
|   \\  /    A nd           | Website:  www.openfoam.com                      |
|    \\/     M anipulation  |                                                 |
\*---------------------------------------------------------------------------*/
FoamFile
{
    version     2.0;
    format      ascii;
    arch        "LSB;label=32;scalar=64";
    class       volScalarField;
    location    "0.038";
    object      k;
}
// * * * * * * * * * * * * * * * * * * * * * * * * * * * * * * * * * * * * * //

dimensions      [0 2 -2 0 0 0 0];

internalField   nonuniform List<scalar> 
35803
(
824.74589
805.11098
779.10352
746.48822
707.10758
661.00074
608.65396
551.06483
489.69439
426.34371
362.70468
300.42981
241.0122
185.65858
135.23746
90.437606
51.931308
21.737473
6.2848156
2.1310449
1.2910124
0.97485915
0.79289406
0.63211483
0.53015263
0.48636181
0.45934479
0.4285826
0.41729971
0.39773296
0.3913233
811.60148
789.93497
762.3899
728.97797
689.49901
643.92075
592.60657
536.41704
476.72729
415.1703
353.32539
292.67985
234.7009
180.58461
131.20883
87.285408
49.576039
20.330969
5.7003952
2.0367464
1.2620081
0.96133212
0.78519653
0.62813373
0.52772566
0.48503597
0.45863235
0.42815766
0.41701572
0.3977162
0.39134469
792.48576
769.52036
741.2033
707.54163
668.38414
623.70309
573.79326
519.39519
461.72657
402.26153
342.45963
283.70643
227.40435
174.72953
126.56984
83.663286
46.868422
18.711688
5.17084
1.9466885
1.2443125
0.95276939
0.78047692
0.62597037
0.52603682
0.48400214
0.45817008
0.42782103
0.41679749
0.3977155
0.39136697
765.73009
742.12736
713.82602
680.69306
642.55534
599.38332
551.42841
499.32906
444.13958
387.17546
329.77712
273.24856
218.91865
167.9363
121.20177
79.482676
43.752792
16.868685
4.6564899
1.8560309
1.2189433
0.93958131
0.77294089
0.62236775
0.52355132
0.48260479
0.45745416
0.42738037
0.41648352
0.39771976
0.39139336
730.66226
707.23106
679.68046
647.80344
611.39166
570.38902
524.99624
475.75227
423.55559
369.5611
314.99198
261.07105
209.05295
160.05347
114.9875
74.653704
40.171237
14.817521
4.1452533
1.7635239
1.1936755
0.92615751
0.76624986
0.619066
0.52118732
0.48124098
0.45682848
0.42700268
0.41619024
0.39772514
0.39142386
686.8387
664.39774
638.33885
608.42307
574.423
536.25095
494.04747
448.24621
399.59299
349.08086
297.81252
246.92683
197.60157
150.91434
107.79729
69.078682
36.068288
12.605966
3.6413066
1.6698415
1.1645073
0.90969485
0.7588472
0.61508807
0.51834884
0.47964223
0.45605513
0.42654269
0.41584951
0.39773325
0.39145572
634.20674
613.50703
589.62837
562.3284
531.37453
496.65279
458.24064
416.46209
371.91086
325.41647
277.95178
230.56318
184.34698
140.33764
99.488824
62.654554
31.401952
10.310772
3.1572965
1.578255
1.1335606
0.89167881
0.750493
0.61086133
0.51560733
0.47776425
0.45529774
0.42606077
0.41551881
0.39774547
0.39149746
573.2174
554.93629
533.79627
509.65653
482.28514
451.5444
417.44864
380.21316
340.28313
298.32397
255.16645
211.74886
169.07809
128.13973
89.915239
55.283512
26.167911
8.044042
2.7107034
1.4957822
1.099214
0.87080281
0.73955545
0.60572714
0.51270313
0.47550837
0.45441851
0.4254552
0.41517146
0.3977623
0.3915459
505.15299
489.66875
471.66311
451.06583
427.65354
401.26983
371.87193
339.57495
304.68438
267.70371
229.3097
190.31293
151.61848
114.1556
78.939439
46.894083
20.456171
6.1726537
2.3216872
1.4096958
1.0620246
0.84775662
0.72741161
0.60069502
0.50981254
0.47304845
0.45344103
0.4247216
0.4148657
0.39778648
0.39160195
432.0671
419.49419
404.76193
387.84313
368.52783
346.64883
322.11797
294.96445
265.3667
233.67134
200.3924
166.19425
131.86552
98.271877
66.470484
37.470163
14.536512
4.5710283
1.9913596
1.328612
1.0209437
0.82181109
0.71384886
0.59262652
0.5064354
0.47022473
0.45224488
0.42382902
0.41458384
0.39781942
0.39166641
356.3429
346.58689
335.03832
321.6992
306.38194
288.92093
269.19775
247.17263
222.9133
196.62101
168.64757
139.50074
109.84316
80.476735
52.509886
27.137595
9.1424851
3.2950951
1.7247371
1.2454044
0.97525816
0.79387788
0.69854613
0.58394572
0.5026224
0.46715474
0.45087154
0.42283819
0.41419485
0.39786382
0.39174192
280.48782
273.30525
264.68999
254.65656
243.04625
229.70883
214.51449
197.3742
178.26698
157.2703
134.58761
110.57296
85.771243
60.943339
37.238691
16.418766
5.6288697
2.4332898
1.5438509
1.1633481
0.92392702
0.76403759
0.68130028
0.57353033
0.49826073
0.46381326
0.44922427
0.42182857
0.41353073
0.39791995
0.39182548
207.06969
202.02575
195.93996
188.81419
180.50049
170.85331
159.73884
147.04122
132.68316
116.65427
99.036163
80.044683
60.164241
40.194236
21.258383
8.1404032
3.3497557
1.8791096
1.3878527
1.0745972
0.86775511
0.73329392
0.66157772
0.56232549
0.49348545
0.46023234
0.44715467
0.42078635
0.41291073
0.39798532
0.39192284
138.18326
134.86358
130.84732
126.12277
120.57732
114.08332
106.50415
97.707467
87.585783
76.079373
63.162291
48.917758
34.025501
19.65019
9.3743591
4.0241282
2.2051527
1.5965906
1.2488428
0.98868724
0.80780834
0.7016211
0.63895008
0.55197142
0.48769582
0.45572888
0.44469492
0.41947079
0.41191595
0.39806527
0.39203404
76.04138
74.0834
71.710323
68.902131
65.567838
61.607613
56.920367
51.398091
44.966944
37.629756
29.665284
21.674451
14.153879
7.9080572
3.9916958
2.321598
1.6995647
1.3730208
1.1198398
0.89497992
0.75302139
0.66586586
0.61465199
0.54030506
0.48111462
0.450305
0.4421286
0.41784652
0.41094768
0.39815889
0.3921589
31.055375
30.162908
29.118088
27.91066
26.47148
24.726532
22.63288
20.154068
17.296361
14.133251
10.86076
7.8171031
5.2706313
3.2927407
2.1217858
1.6957828
1.4414389
1.1823102
0.98106835
0.8189971
0.69378041
0.62874887
0.59060794
0.52944652
0.47418558
0.44547049
0.43954971
0.41606346
0.41001127
0.39827001
0.39229921
10.212032
9.9688973
9.6597617
9.2833528
8.8251475
8.2687904
7.6134418
6.841554
5.9381994
4.9552567
3.9607869
3.0561318
2.308873
1.763139
1.4745556
1.3878123
1.1662562
1.0048314
0.88138822
0.73534672
0.6401686
0.59218021
0.56754019
0.51712928
0.46573841
0.43978855
0.43724968
0.41437369
0.40909706
0.3984088
0.39245584
3.4098659
3.3717476
3.3077112
3.2147174
3.0924291
2.9372513
2.7496985
2.5379597
2.2937979
2.0309613
1.7705279
1.5413643
1.3486754
1.2370939
1.1592072
1.040104
0.98418395
0.88438841
0.75192439
0.67139982
0.59267645
0.55546572
0.54244005
0.50576914
0.45763342
0.43439339
0.43174437
0.41253962
0.40798531
0.39859917
0.39262828
1.4605358
1.4526362
1.4378061
1.4155767
1.386422
1.3498175
1.3043366
1.2474601
1.1860237
1.1204283
1.0627716
1.0233319
0.98994761
0.96694781
0.88537537
0.81912451
0.77050326
0.71859531
0.67774964
0.60925623
0.54172798
0.52839964
0.51990693
0.49280283
0.44872259
0.42930104
0.42682206
0.41079139
0.40709445
0.3989037
0.39278667
0.8981802
0.8928764
0.88703467
0.87981127
0.87116787
0.86119259
0.84958084
0.83647598
0.82712063
0.8166257
0.80821902
0.77754405
0.77183923
0.73357209
0.73601829
0.69176554
0.65539414
0.6262112
0.58023746
0.5499755
0.51003759
0.49921773
0.49469842
0.47942642
0.44141004
0.4246654
0.42394907
0.40920715
0.40599644
0.39942614
0.3930045
0.69932001
0.69760131
0.69636069
0.69483672
0.69376453
0.69344895
0.69329986
0.69175614
0.68532001
0.67086271
0.64783644
0.63424151
0.62460323
0.61382017
0.59760307
0.58904474
0.55652496
0.53479141
0.52701456
0.51228995
0.48084306
0.473035
0.47591629
0.46551911
0.43445721
0.4203989
0.41985925
0.40773107
0.40519687
0.40034446
0.39321832
0.58271845
0.58048017
0.57799451
0.57560721
0.57320815
0.57069352
0.56812299
0.56561239
0.5632537
0.56093485
0.55847951
0.56031863
0.55120744
0.53992517
0.52488633
0.51132684
0.50573138
0.48684637
0.47637782
0.46441947
0.46179032
0.45246883
0.45792626
0.45424552
0.42705199
0.41597043
0.41580263
0.40632078
0.40458303
0.4008836
0.39329536
0.50886289
0.50927324
0.50990724
0.51060255
0.511185
0.51184759
0.5126972
0.51335553
0.51299117
0.51067243
0.50472973
0.49511889
0.49060299
0.48501813
0.48568663
0.47352268
0.46537667
0.45810196
0.45190154
0.44008161
0.43859525
0.43972981
0.44783442
0.44229974
0.42158545
0.41077514
0.41179108
0.40452882
0.4038772
0.40085822
0.39323392
0.46404937
0.46358583
0.46274459
0.46158165
0.46070153
0.46022181
0.45997415
0.45975356
0.45938252
0.45881046
0.45807951
0.45952417
0.45817611
0.45527742
0.44772891
0.44503327
0.44102221
0.43662451
0.43743111
0.42522189
0.41874259
0.41996343
0.43674815
0.43383596
0.41760431
0.40657294
0.40777227
0.4028485
0.40276246
0.39963931
0.39342556
0.43145708
0.43169859
0.4321301
0.43272964
0.43350243
0.43441585
0.43541404
0.43619491
0.43643497
0.43577434
0.43353957
0.42890404
0.42551682
0.42365757
0.4236419
0.42286329
0.42694088
0.42459875
0.41852242
0.41696598
0.40999335
0.40848568
0.42425986
0.42092193
0.41202675
0.40406712
0.4035012
0.4015193
0.40105158
0.39964375
0.39386768
0.41348723
0.41342711
0.41327987
0.41305251
0.4127736
0.41243766
0.41206422
0.41183842
0.41174154
0.41155395
0.41107906
0.41042745
0.40993609
0.40992833
0.40977868
0.41161814
0.41013268
0.41212088
0.40958007
0.40655023
0.40317057
0.40213168
0.40809481
0.41367047
0.40631917
0.40186222
0.40096848
0.40006304
0.3996693
0.39776199
0.39407899
0.40381968
0.40381515
0.40378088
0.40371873
0.40365472
0.40360112
0.40356693
0.4035616
0.40358248
0.40358323
0.40346193
0.40312172
0.40269549
0.40248589
0.40259297
0.40275466
0.40307224
0.40298989
0.4025877
0.4013139
0.39911688
0.39956473
0.40161705
0.40924918
0.40269689
0.39990798
0.39926121
0.39820613
0.3985045
0.39683469
0.39485177
0.39942661
0.39941615
0.39938349
0.3993348
0.39928894
0.39924976
0.39921261
0.39916765
0.39911212
0.39906498
0.39903443
0.39901359
0.39915456
0.39950438
0.39968509
0.39967821
0.39966918
0.39980498
0.39929739
0.39917639
0.39796565
0.39858572
0.39972213
0.40238674
0.40067018
0.39857211
0.39821556
0.3972234
0.39743077
0.39653436
0.39520371
0.39747553
0.39745809
0.39743127
0.39740349
0.39738868
0.39739323
0.39741783
0.39745882
0.39749401
0.39752188
0.39754681
0.39756574
0.39760793
0.39769524
0.39778001
0.39789172
0.39815101
0.39825919
0.39819289
0.39828267
0.39829353
0.39846874
0.39976621
0.39920166
0.3989998
0.39792236
0.39754105
0.39682508
0.39697456
0.39650329
0.39595272
0.39702668
0.39701649
0.39700421
0.396993
0.39698645
0.39698713
0.39699656
0.39701527
0.39703881
0.39705997
0.39707286
0.39707416
0.39707051
0.39708563
0.39715531
0.39729678
0.39748082
0.3975818
0.39758852
0.39770796
0.39815256
0.39820609
0.39951128
0.39816219
0.39817858
0.39773177
0.39729944
0.39689135
0.39685011
0.3966923
0.39674891
0.3976017
0.39759445
0.39758469
0.39757288
0.39755983
0.39754653
0.39753386
0.39752211
0.39751089
0.39749947
0.39748762
0.3974759
0.39746479
0.39745388
0.39744113
0.39742323
0.39741166
0.39741331
0.3974206
0.39747259
0.39750761
0.39758771
0.39836452
0.3976013
0.39757672
0.39746254
0.39740721
0.39733631
0.39727919
0.39734099
0.39723822
125.33869
163.80841
206.68054
243.29461
294.17351
360.20147
420.27672
460.01336
475.1309
470.76816
447.65994
404.11046
351.43144
293.80491
235.05525
178.51206
126.5953
80.613952
42.720232
16.988654
5.0906823
1.7936622
1.0429745
0.76827882
0.61419597
0.5293496
0.47981206
0.43813715
0.42416027
0.39937038
0.39063983
148.04869
193.35958
232.33233
271.39823
331.52473
394.76614
444.72623
473.69983
480.79319
471.90774
443.13052
397.60248
344.33801
286.93937
228.92279
173.34141
122.43048
77.400382
40.499433
15.780788
4.6764785
1.7079344
1.0209409
0.75985522
0.60986975
0.52733214
0.47871607
0.43763714
0.42388618
0.39927359
0.39064577
176.31488
216.81374
246.54026
295.31982
359.67166
419.32707
462.09101
483.33063
484.81596
471.55745
437.93679
391.08235
337.42891
280.31566
223.02445
168.37215
118.42885
74.313388
38.381644
14.659758
4.322744
1.6341464
1.0074822
0.75435275
0.6068517
0.52587484
0.47789234
0.43725499
0.42363045
0.39917755
0.3906512
203.49025
232.36033
268.42958
327.17856
390.11845
442.57885
476.99987
490.88518
487.63459
469.7344
432.46796
384.61651
330.70285
273.9204
217.34772
163.59433
114.58221
71.345641
36.362201
13.617913
4.0101684
1.5690665
0.99319222
0.74806811
0.60341233
0.52418516
0.47696296
0.4368183
0.4233545
0.39908212
0.39065518
222.27165
247.12249
296.73497
359.1804
417.84361
462.78574
489.38357
496.876
490.02322
466.62284
426.90163
378.23322
324.15743
267.74352
211.88254
158.99959
110.8835
68.491923
34.438807
12.648048
3.7290616
1.5111327
0.9805443
0.74235656
0.60026728
0.52262468
0.47610252
0.43641485
0.42307708
0.39898952
0.3906581
232.93903
270.42168
329.53776
390.9216
443.19485
480.30915
499.60669
501.76333
490.95359
462.72568
421.30346
371.95147
317.79438
261.77947
206.62178
154.58124
107.32671
65.747428
32.607751
11.744795
3.4748133
1.4594112
0.96869395
0.73671597
0.59713015
0.52104469
0.47523154
0.43600361
0.42278974
0.39889895
0.39066013
249.84665
303.08047
364.09076
420.6746
465.64968
495.23152
507.91933
505.71188
490.62824
458.51452
415.72194
365.78763
311.61729
256.02482
201.55974
150.33346
103.90641
63.108144
30.864935
10.904184
3.2446995
1.4132359
0.95775566
0.73132047
0.59412246
0.51952031
0.47438818
0.4356092
0.42250038
0.39881115
0.39066143
279.67843
338.64312
397.22104
447.57115
485.22653
507.81345
514.70708
508.98359
488.91102
454.14911
410.18075
359.75624
305.63047
250.47725
196.69163
146.25109
100.61768
60.569324
29.206575
10.123044
3.0367047
1.3720936
0.94756903
0.72609222
0.59119185
0.51802355
0.47355571
0.43522358
0.42221024
0.3987261
0.39066213
316.01636
374.68536
428.1002
471.52078
502.13409
518.34678
520.38457
510.87177
486.34413
449.69669
404.70112
353.8714
299.83847
245.13513
192.0133
142.32948
97.456089
58.12642
27.628209
9.3986535
2.8491058
1.3356918
0.93807357
0.72105192
0.58835833
0.51657089
0.47274295
0.43485528
0.42192577
0.39864417
0.39066235
353.89257
408.7116
455.87754
492.50075
516.61856
527.10084
525.22948
511.48621
483.48736
445.21417
399.30459
348.14653
294.24563
239.99715
187.52109
138.56441
94.417662
55.778141
26.125736
8.7283955
2.6803166
1.3041355
0.9291859
0.71618422
0.58560888
0.51515591
0.47194613
0.43450391
0.42165177
0.39856543
0.39066228
390.54152
439.78547
480.54675
510.78907
528.99259
534.46298
529.18918
511.16472
480.4602
440.72682
394.01178
342.59401
288.85587
235.06207
183.21161
134.95203
91.498821
53.523375
24.696186
8.111931
2.5287394
1.2755929
0.92083883
0.71149007
0.58294431
0.51378147
0.47116707
0.43417242
0.42139402
0.39849001
0.39066218
424.25097
467.63321
502.30647
526.6853
539.54431
540.77585
532.05484
509.99902
477.28762
436.26287
388.84342
337.22498
283.67249
230.32867
179.0817
131.48878
88.696898
51.359653
23.33616
7.5462599
2.3928219
1.2500261
0.91299383
0.70696561
0.58035946
0.51244568
0.47040453
0.43386017
0.42115672
0.39841787
0.39066242
454.77067
492.43932
521.45084
540.48735
548.51714
546.32851
533.55169
508.5084
474.04421
431.8543
383.81908
332.04924
278.69818
225.79562
175.12836
128.17139
86.010386
49.286124
22.043635
7.0257468
2.2711204
1.2269809
0.90560147
0.70260983
0.5778528
0.51114947
0.46965871
0.43356605
0.42094263
0.39834895
0.39066332
482.1018
514.44042
538.28034
552.48852
556.28262
550.97606
534.22971
506.84888
470.77115
427.52964
378.95642
327.0752
273.93501
221.46146
171.34869
124.99671
83.435489
47.301286
20.81887
6.547226
2.1623353
1.2061675
0.89862489
0.69842113
0.57542263
0.50989353
0.46892949
0.4332867
0.42075227
0.39828308
0.39066517
506.50229
533.95516
553.10085
562.95159
563.14097
554.63814
534.49406
505.05921
467.5035
423.31559
374.2712
322.31
269.38447
217.32466
167.7399
121.9618
80.969774
45.403447
19.661068
6.1083791
2.0652668
1.1872999
0.89202713
0.69439785
0.57306883
0.50867986
0.46821784
0.43301799
0.42058422
0.39822019
0.3906682
528.27981
551.29605
566.19157
572.08233
569.37683
557.24643
534.51063
503.18124
464.27731
419.23686
369.77729
317.75959
265.04756
213.38353
164.29928
119.06383
78.612888
43.591187
18.569101
5.7071135
1.978796
1.1701463
0.88577467
0.69053731
0.57079192
0.50751067
0.46752561
0.43275556
0.42043556
0.39816014
0.39067262
547.75868
566.76234
577.82073
580.23828
574.73633
559.22685
534.2966
501.25748
461.1274
415.31573
365.48669
313.42891
260.92481
209.63636
161.02419
116.30008
76.36279
41.863046
17.541491
5.3413916
1.9018781
1.1545073
0.87983464
0.68683545
0.56859318
0.50638827
0.46685588
0.43249623
0.42030274
0.39810284
0.3906786
565.2462
580.6225
588.20296
587.6525
579.22933
560.8287
533.93587
499.33715
458.08619
411.57189
361.40975
309.32196
257.01643
206.08134
157.91209
113.66874
74.217614
40.217771
16.576447
5.0091838
1.8335416
1.1401692
0.87417555
0.68328644
0.56647411
0.50531452
0.46621255
0.43223877
0.42018233
0.39804819
0.39068621
581.02102
593.11744
597.53675
594.47985
582.93444
562.22495
533.50052
497.46456
455.1825
408.02256
357.55527
305.44199
253.32229
202.71665
154.96039
111.16699
72.175519
38.654214
15.671974
4.7084343
1.7728912
1.1269574
0.86876848
0.67988263
0.56443626
0.50429077
0.46559992
0.43198433
0.42007149
0.39799612
0.3906955
595.33214
604.46742
606.08639
600.58692
586.20938
563.46172
533.04354
495.67829
452.44162
404.68266
353.93075
301.79158
249.84205
199.54047
152.16661
108.79124
70.232874
37.17107
14.825955
4.4370478
1.719108
1.1147468
0.86358638
0.67661485
0.56248073
0.50331773
0.46502191
0.43173614
0.41996815
0.39794653
0.39070642
608.39944
614.84266
614.04809
606.01816
589.22791
564.60428
532.6139
494.01242
449.88566
401.56511
350.54255
298.37278
246.57519
196.55103
149.52839
106.53952
68.385517
35.766642
14.0362
4.1929179
1.6714488
1.103424
0.8586055
0.67347313
0.56060782
0.50239555
0.46448169
0.43149858
0.41987079
0.39789934
0.39071894
620.42511
624.41373
621.51272
610.91719
592.08992
565.71028
532.25459
492.49669
447.53381
398.68102
347.39601
295.1872
243.5211
193.74668
147.04563
104.41006
66.630959
34.438802
13.300422
3.9748873
1.6292472
1.0928964
0.85380676
0.67044761
0.55881668
0.50152392
0.46398131
0.43127603
0.41977829
0.39785472
0.39073295
631.59087
633.36319
628.44516
615.52213
594.8432
566.82761
532.00315
491.15682
445.40271
396.03995
344.49568
292.23614
240.67906
191.12556
144.71588
102.40153
64.966839
33.185868
12.616259
3.7811826
1.5918947
1.0830853
0.84917689
0.66752976
0.55710526
0.50070199
0.46352133
0.43107182
0.41968974
0.39781279
0.39074841
642.04054
641.83597
634.91387
619.94733
597.54548
567.99983
531.8927
490.01493
443.50675
393.65011
341.84536
289.52063
238.04835
188.68747
142.535
100.51226
63.392401
32.004343
11.981492
3.6083257
1.5588408
1.0739257
0.84470925
0.66471328
0.55547047
0.49992832
0.46310175
0.43088775
0.41960452
0.39777364
0.39076524
651.89245
649.97284
640.99202
624.26391
600.24515
569.26426
531.94151
489.08977
441.85837
391.51853
339.44831
287.04159
235.62829
186.4307
140.50245
98.740768
61.90748
30.891386
11.394203
3.4541835
1.5296245
1.0653628
0.84040396
0.66199484
0.55390861
0.49920059
0.46272272
0.43072413
0.41952237
0.39773765
0.39078338
661.26921
657.72121
646.86135
628.51218
602.98439
570.65189
532.15206
488.39834
440.46837
389.6513
337.30729
284.79964
233.4216
184.35255
138.61714
97.085777
60.511441
29.844727
10.852663
3.3171169
1.5038814
1.0573507
0.83626735
0.65937421
0.55241576
0.4985155
0.46238341
0.43058007
0.41944333
0.3977049
0.39080271
670.25175
665.15561
652.59746
632.73948
605.79969
572.19359
532.5756
487.95806
439.34633
388.05377
335.42441
282.79791
231.42665
182.45325
136.87803
95.546196
59.203246
28.862048
10.355159
3.195705
1.4813883
1.0498503
0.83231067
0.65685396
0.5509883
0.49786838
0.46208173
0.4304539
0.41936721
0.39767534
0.3908231
678.917
672.32906
658.25356
636.98169
608.71844
573.91612
533.26709
487.78302
438.50047
386.73056
333.80364
281.03564
229.63962
180.73204
135.28424
94.121091
57.98165
27.940964
9.8998891
3.0886431
1.4619992
1.0428286
0.82854857
0.65443873
0.54962338
0.49725251
0.46181567
0.43034322
0.41929377
0.3976486
0.3908441
687.34148
679.29521
663.85488
641.26475
611.76265
575.83255
534.20304
487.86492
437.93702
385.68868
332.45364
279.51081
228.06158
179.18811
133.83509
92.809699
56.845381
27.079222
9.4849957
2.9946902
1.4447695
1.0362572
0.82499757
0.65213431
0.54832004
0.49665943
0.46158449
0.43024328
0.41922127
0.39762395
0.39086542
695.53475
686.12067
669.42271
645.60979
614.95067
577.95697
535.38353
488.2064
437.66415
384.94128
331.3723
278.22691
226.69278
177.82101
132.53011
91.611443
55.793235
26.274737
9.1086314
2.912679
1.4296652
1.0301132
0.82167477
0.64995432
0.54707151
0.49608192
0.4613847
0.43015167
0.41914642
0.39760159
0.39088688
703.50947
692.84447
674.98252
650.03569
618.29661
580.30155
536.83644
488.89232
437.69637
384.48518
330.55551
277.18446
225.5334
176.63055
131.36906
90.525959
54.824157
25.525597
8.7689934
2.841402
1.4161317
1.0243524
0.81859575
0.64790467
0.54587731
0.49551495
0.46121344
0.43006772
0.41906503
0.39758123
0.39090836
711.29516
699.49112
680.55752
654.56869
621.8282
582.8945
538.58362
489.89685
438.03043
384.3157
330.00788
276.38352
224.58376
175.61678
130.35192
89.553096
53.937287
24.830046
8.467397
2.778972
1.4029939
1.0189573
0.81577167
0.64599182
0.54473397
0.49495525
0.46106756
0.42999156
0.41896928
0.397563
0.39092977
719.11151
706.2301
686.27279
659.29881
625.61727
585.79058
540.65629
491.21916
438.70203
384.42686
329.73051
275.82478
223.84435
174.77992
129.47887
88.692969
53.132149
24.190308
8.1984805
2.7215593
1.3905938
1.0139185
0.81320759
0.64421945
0.54363548
0.49439624
0.46094323
0.42992353
0.41885129
0.39754723
0.39095111
727.21829
713.27596
692.29559
664.33252
629.70768
589.01115
543.03613
492.8458
439.67077
384.84877
329.72585
275.50932
223.31584
174.12039
128.75027
87.946328
52.408951
23.607392
7.9580372
2.6682066
1.3788569
1.0092255
0.81089999
0.64258758
0.54257294
0.4938291
0.46083553
0.4298632
0.41871401
0.3975346
0.39097238
735.45261
720.54726
698.59075
669.65726
634.08496
592.49576
545.69382
494.76667
440.94455
385.57065
329.98507
275.43818
222.9991
173.63883
128.16659
87.313551
51.768506
23.081521
7.7435873
2.618581
1.3678175
1.004869
0.80883504
0.6410907
0.5415413
0.49325552
0.46073848
0.42981037
0.41857351
0.39752559
0.39099361
743.07697
727.45492
704.72365
674.99077
638.60625
596.19308
548.63328
496.99064
442.52534
386.58967
330.53351
275.60173
222.89496
173.33608
127.7286
86.79498
51.211999
22.612469
7.5527591
2.5723568
1.3574755
1.0008404
0.80698882
0.63971781
0.54054186
0.49268504
0.46064766
0.4297663
0.41844014
0.39752029
0.39101486
749.96484
733.79802
710.49703
680.17135
643.16042
600.08474
551.83571
499.51529
444.41478
387.90783
331.35967
276.02771
222.99428
173.21294
127.43728
86.39171
50.740792
22.199838
7.3834549
2.5292379
1.3478379
0.99713186
0.80532983
0.63845425
0.53957645
0.49212884
0.46056133
0.42972764
0.41830962
0.39751861
0.39103621
756.7092
739.98862
716.17121
685.34064
647.80122
604.15721
555.29315
502.33804
446.61451
389.52762
332.46558
276.70357
223.32315
173.26531
127.29364
86.104854
50.356421
21.843235
7.2338484
2.4889509
1.3389101
0.99373607
0.80382334
0.63728577
0.5386481
0.49159944
0.4604774
0.42968288
0.41818873
0.39751965
0.3910578
763.4958
746.19084
721.86685
690.5746
652.56832
608.4227
559.00547
505.45797
449.12606
391.45158
333.85424
277.63152
223.86972
173.50765
127.29863
85.935686
50.060613
21.542419
7.1023353
2.4512422
1.3306998
0.99064685
0.80243675
0.63620329
0.53776338
0.49110777
0.460392
0.42962769
0.41809253
0.39752339
0.39107973
770.30961
752.44374
727.63682
695.91885
657.49294
612.89743
562.97671
508.87558
451.95126
393.68241
335.52895
278.8147
224.63628
173.93442
127.45517
85.885674
49.855261
21.297431
6.9874755
2.4158697
1.3232186
0.98785954
0.80114419
0.63520591
0.53693111
0.49066047
0.46030263
0.42956794
0.41800864
0.39753015
0.39110203
777.08762
758.72881
733.49018
701.39344
662.5946
617.59478
567.21237
512.59235
455.09217
396.22303
337.4934
280.25666
225.6258
174.54779
127.76426
85.954293
49.742363
21.108718
6.8879352
2.3825965
1.3164844
0.9853717
0.79992944
0.63430106
0.53616026
0.49025714
0.46020903
0.42950217
0.41793871
0.39753969
0.39112465
783.77915
765.01645
739.41732
707.00252
667.88335
622.5246
571.71864
516.61019
458.55081
399.07678
339.75162
281.96138
226.84162
175.35026
128.22781
86.147937
49.724083
20.977257
6.8024263
2.3511861
1.310523
0.98318324
0.79878637
0.63350182
0.53545192
0.48988926
0.46011364
0.42942944
0.41788682
0.39755172
0.39114742
790.35482
771.28232
745.40414
712.74232
673.36278
627.69371
576.50286
520.93056
462.32895
402.24756
342.3082
283.9334
228.28762
176.34477
128.84791
86.465754
49.802579
20.904693
6.7296346
2.3213951
1.3053702
0.98129538
0.79771721
0.63282272
0.53479208
0.4895387
0.46002048
0.42934976
0.41784177
0.39756651
0.39117014
796.79375
777.5046
751.43471
718.60441
679.03153
633.10627
581.57333
525.55843
466.42696
405.73989
345.16815
286.17766
229.96807
177.53458
129.62689
86.909649
49.980116
20.893555
6.6681268
2.2929632
1.3010732
0.97970886
0.79673028
0.63227655
0.53413973
0.48917821
0.45993247
0.42926707
0.41779516
0.39758336
0.39119257
803.06988
783.65653
757.48916
724.57669
684.88449
638.76496
586.93681
530.50189
470.84715
409.5573
348.33653
288.69947
231.88775
178.92344
130.56739
87.481527
50.259009
20.947386
6.6162218
2.2656013
1.2976955
0.97842382
0.79583975
0.6318745
0.5334517
0.48877884
0.45984989
0.42918534
0.41773837
0.39760197
0.3912145
809.14129
789.70176
763.54289
730.64358
690.91839
644.67001
592.5973
535.76723
475.59594
413.7043
351.81898
291.50479
234.05206
180.51567
131.6724
88.183334
50.641245
21.071061
6.5718657
2.2390057
1.2953339
0.97744574
0.79506974
0.63163115
0.53274008
0.48832811
0.45977133
0.42910344
0.4176744
0.39762249
0.39123587
814.93255
795.58617
769.56442
736.78187
697.12631
650.82659
598.55065
541.35726
480.68146
418.1865
355.62107
294.59958
236.46659
182.3159
132.94514
89.016999
51.128397
21.271211
6.5325255
2.212921
1.2941506
0.97679464
0.79445931
0.63156931
0.53206993
0.4878443
0.45969521
0.42901254
0.41760774
0.39764519
0.3912569
820.29526
801.20444
775.48878
742.9518
703.47104
657.21063
604.78972
547.26826
486.10268
423.00609
359.74661
297.98876
239.13647
184.32869
134.38874
89.984278
51.72132
21.556805
6.4952524
2.187169
1.2942377
0.97649129
0.79405113
0.63165675
0.53147575
0.48735998
0.45961387
0.42890031
0.41753069
0.39767061
0.39127807
824.51966
805.6888
780.36806
748.20451
709.04071
662.97317
610.55843
552.83977
491.28455
427.68683
363.81179
301.36924
241.82749
186.37577
135.86797
90.982269
52.338942
21.873819
6.4557799
2.1622713
1.2947548
0.97648946
0.79384523
0.63189194
0.53093057
0.48688981
0.45950775
0.42875797
0.41742947
0.39769974
0.39129996
122.29733
159.57568
205.74797
243.20002
287.81633
350.23357
409.91302
451.70429
469.88957
467.44941
447.16611
405.50955
353.72405
296.47943
237.81239
181.08004
128.81914
82.441557
44.052854
17.724259
5.2893221
1.8228689
1.0504636
0.771724
0.6162878
0.53034921
0.48042007
0.43840825
0.42435767
0.39944555
0.39062871
126.8905
161.92892
206.47999
243.24044
284.01746
343.9259
402.81546
445.13737
464.7325
463.92022
444.78858
404.47278
353.45323
296.76605
238.46067
181.90005
129.66988
83.253825
44.731536
18.14953
5.4242775
1.8486918
1.0552105
0.77414326
0.61783671
0.53105843
0.48086524
0.43858864
0.42448743
0.39949023
0.39061449
132.15538
165.80194
208.029
243.41027
280.72614
337.92341
395.88927
438.65212
459.56083
460.02594
442.05064
403.15102
353.08048
297.01448
239.0832
182.7042
130.51254
84.061765
45.412477
18.580446
5.5643274
1.8741182
1.0600876
0.77661242
0.61939368
0.53174686
0.48131469
0.43876568
0.42461485
0.39953562
0.39059849
136.79983
169.45222
209.93727
243.84463
277.99589
332.28927
389.15699
432.24878
454.3573
455.99257
439.25738
401.75623
352.65028
297.2217
239.67801
183.49129
131.3464
84.865321
46.09517
19.015826
5.7089751
1.9001208
1.0651183
0.77915132
0.62096742
0.53242003
0.48177318
0.43894033
0.42474142
0.39958299
0.39058083
141.18417
172.92135
211.82289
244.43707
275.74949
327.03425
382.62964
425.92727
449.10951
451.92922
436.40467
400.29056
352.16098
297.38597
240.24385
184.26048
132.17087
85.664079
46.779259
19.454771
5.858048
1.9269764
1.0702671
0.78173748
0.62254114
0.53307431
0.48223687
0.43910956
0.42486521
0.39963211
0.39056152
145.44327
176.25209
213.6583
245.04983
273.89721
322.15419
376.31804
419.68962
443.74253
447.83378
433.49113
398.75804
351.61244
297.50642
240.77996
185.01116
132.9855
86.457934
47.464435
19.896093
6.0115655
1.9547875
1.075514
0.78435286
0.62410059
0.53371082
0.48270308
0.43927125
0.42498522
0.39968272
0.39054049
149.62556
179.47335
215.41915
245.69895
272.40267
317.64262
370.23554
413.55025
438.40452
443.71514
430.52178
397.15987
351.00509
297.5825
241.28583
185.74287
133.7899
87.246632
48.150404
20.337867
6.169602
1.9836055
1.0808617
0.78699192
0.62564044
0.53433697
0.48317207
0.43942494
0.42510172
0.39973496
0.39051771
153.77584
182.61583
217.11061
246.39789
271.23521
313.49713
364.39618
407.54237
433.4254
439.58946
427.50167
395.49758
350.33948
297.6136
241.761
186.45516
134.58367
88.029928
48.8369
20.779563
6.332218
2.0134879
1.0863196
0.78965378
0.62716043
0.534963
0.48364525
0.43957093
0.42521533
0.39978896
0.39049317
157.93632
185.71872
218.75268
247.15916
270.36617
309.70888
358.81028
401.66637
428.34
435.45058
424.43454
393.77318
349.61626
297.6021
242.20504
187.14757
135.36643
88.807606
49.523694
21.220663
6.4994475
2.0444768
1.0918955
0.79233711
0.62866222
0.53559943
0.48412374
0.43970965
0.42532645
0.39984481
0.39046704
162.13004
188.8159
220.38438
247.9542
269.77523
306.2648
353.48528
395.924
423.16824
431.29654
421.32276
391.98949
348.83624
297.55045
242.61751
187.81965
136.13781
89.579446
50.210627
21.660699
6.6713108
2.0766182
1.0975955
0.79503953
0.63014876
0.53625582
0.48460793
0.43984159
0.42543523
0.39990265
0.39044027
166.36971
191.93818
222.05967
248.74672
269.4101
303.15098
348.42564
390.32529
418.04249
427.132
418.16584
390.15123
348.00021
297.44879
242.99788
188.47096
136.89743
90.345224
50.897629
22.099377
6.8478061
2.109955
1.1034253
0.79775846
0.63162444
0.5369403
0.48509743
0.43996733
0.4255417
0.39996249
0.39041438
170.65983
195.10444
223.79643
249.5448
269.28751
300.36509