/*--------------------------------*- C++ -*----------------------------------*\
| =========                 |                                                 |
| \\      /  F ield         | OpenFOAM: The Open Source CFD Toolbox           |
|  \\    /   O peration     | Version:  2406                                  |
|   \\  /    A nd           | Website:  www.openfoam.com                      |
|    \\/     M anipulation  |                                                 |
\*---------------------------------------------------------------------------*/
FoamFile
{
    version     2.0;
    format      ascii;
    arch        "LSB;label=32;scalar=64";
    class       volScalarField;
    location    "0.1";
    object      p;
}
// * * * * * * * * * * * * * * * * * * * * * * * * * * * * * * * * * * * * * //

dimensions      [1 -1 -2 0 0 0 0];

internalField   nonuniform List<scalar> 
2065
(
101355.68
101350.51
101216.91
100524.65
100584.09
100652.08
100726.52
100804.17
100887.11
100964.11
101032.39
101084.09
101140.37
101186.92
101228.05
101262.51
101293.01
101315.94
101335.18
101347.76
101354.49
101349.31
101215.82
100318.22
100325.91
100334.58
100343.53
100353.24
100364.54
100378.49
100396.23
100419.33
100449.37
100487.78
100535.31
100592.02
100657.17
100729.09
100804.48
100885.63
100961.29
101030.1
101080.64
101137.13
101183.96
101225.41
101260.25
101291.02
101314.34
101333.8
101346.52
101353.23
101348.14
101214.86
100316.76
100326.88
100337.95
100349.54
100362.02
100375.83
100391.79
100410.91
100434.54
100464.14
100501.16
100546.53
100600.6
100662.95
100732.27
100805.5
100884.08
100958.26
101027.91
101077.43
101133.88
101180.95
101222.7
101257.9
101288.96
101312.67
101332.34
101345.2
101351.92
101346.98
101213.5
100318.07
100330.2
100343.39
100357.3
100372.02
100387.91
100405.59
100425.91
100450.02
100479.25
100515.01
100558.38
100609.93
100669.49
100736.13
100807.13
100883.1
100955.36
101025.27
101074.45
101130.61
101177.88
101219.92
101255.48
101286.82
101310.91
101330.82
101343.82
101350.55
101345.81
101211.7
100323.65
100337.38
100352.21
100367.76
100384.13
100401.55
100420.51
100441.71
100466.11
100494.92
100529.49
100570.94
100620.04
100676.84
100740.74
100809.39
100883.04
100953.11
101022.22
101071.7
101127.32
101174.77
101217.06
101252.97
101284.59
101309.08
101329.22
101342.36
101349.1
101344.63
101209.84
100334.77
100349.51
100365.39
100381.89
100399.18
100417.48
100437.14
100458.75
100483.14
100511.38
100544.71
100584.29
100630.97
100685.03
100746.14
100812.32
100883.7
100951.87
101019.24
101069.23
101124.07
101171.64
101214.14
101250.37
101282.27
101307.16
101327.54
101340.84
101347.59
101343.47
101207.88
100352.27
100367.45
100383.74
100400.45
100417.88
100436.3
100456
100477.48
100501.45
100528.86
100560.83
100598.5
100642.78
100694.12
100752.36
100815.98
100885.01
100951.67
101016.76
101067.06
101120.87
101168.5
101211.18
101247.71
101279.88
101305.16
101325.78
101339.24
101346.05
101342.38
101205.8
100376.1
100391.31
100407.46
100423.73
100440.61
100458.43
100477.49
100498.24
100521.32
100547.57
100578
100613.68
100655.55
100704.14
100759.48
100820.42
100886.9
100951.23
101014.64
101065.41
101117.79
101165.39
101208.19
101244.98
101277.41
101303.08
101323.95
101337.59
101344.46
101341.35
101203.63
100407.17
100421.6
100436.81
100451.91
100467.51
100484.02
100501.79
100521.23
100542.95
100567.68
100596.34
100629.93
100669.34
100715.16
100767.55
100825.66
100889.25
100950.91
101012.87
101064.09
101114.86
101162.36
101205.2
101242.2
101274.89
101300.93
101322.06
101335.88
101342.81
101340.39
101201.43
100443.16
100456.51
100470.52
100484.14
100498.04
100512.77
100528.75
100546.42
100566.36
100589.27
100615.95
100647.32
100684.21
100727.24
100776.62
100831.76
100891.98
100951.15
101011.81
101063.13
101112.11
101159.43
101202.24
101239.41
101272.31
101298.72
101320.09
101334.12
101341.11
101339.44
101199.31
100482.72
100494.86
100507.4
100519.31
100531.29
100543.99
100557.9
100573.52
100591.43
100612.28
100636.83
100665.88
100700.21
100740.42
100786.76
100838.78
100895.19
100952.01
101011.55
101062.68
101109.59
101156.67
101199.34
101236.6
101269.7
101296.44
101318.08
101332.32
101339.37
101338.43
101197.33
100523.79
100534.41
100545.48
100555.79
100565.94
100576.66
100588.51
100602.03
100617.83
100636.55
100658.89
100685.58
100717.35
100754.75
100798.04
100846.84
100899.27
100954.12
101012.54
101062.79
101107.41
101154.12
101196.53
101233.82
101267.06
101294.12
101316.01
101330.47
101337.6
101337.29
101195.54
100565.09
100574.04
100583.57
100592.35
100600.85
100609.77
100619.73
100631.31
100645.12
100661.79
100681.98
100706.38
100735.63
100770.26
100810.53
100856.13
100905.22
100958.12
101014.6
101063.25
101105.74
101151.87
101193.87
101231.08
101264.43
101291.76
101313.9
101328.59
101335.81
101336
101193.9
100605.15
100612.51
100620.46
100627.83
100634.92
100642.36
100650.77
100660.73
100672.85
100687.71
100705.94
100728.19
100755.04
100786.98
100824.29
100866.78
100913.07
100963.31
101017.13
101064.05
101104.4
101149.96
101191.38
101228.43
101261.82
101289.38
101311.76
101326.69
101334.03
101334.58
101192.41
100642.52
100648.43
100654.88
100661.01
100667.05
100673.51
100680.91
100689.76
100700.62
100714.04
100730.61
100750.92
100775.53
100804.9
100839.35
100878.78
100922.23
100969.27
101019.07
101065.11
101104.23
101148.46
101189.14
101225.91
101259.25
101287
101309.61
101324.79
101332.27
101333.13
101191.16
100678.22
100682.1
100687.04
100692.08
100697.39
100703.28
100710.12
100718.33
100728.36
100740.73
100755.95
100774.57
100797.11
100824.06
100855.71
100892.1
100932.53
100976.34
101022.55
101066.74
101104.64
101147.39
101187.18
101223.56
101256.77
101284.64
101307.47
101322.9
101330.58
101331.83
101190.39
100712.69
100715.63
100719.21
100722.65
100726.89
100732.4
100738.98
100746.83
100756.35
100767.94
100782.07
100799.21
100819.86
100844.48
100873.41
100906.75
100944.05
100984.62
101027.5
101068.79
101105.81
101146.85
101185.62
101221.41
101254.4
101282.32
101305.35
101321.04
101329
101330.84
101190.55
100743.98
100746.22
100749.72
100753.42
100757.49
100762.59
100768.78
100776.26
100785.3
100796.2
100809.31
100825.06
100843.89
100866.24
100892.48
100922.77
100956.85
100994.09
101033.36
101072.37
101108.1
101146.8
101184.43
101219.56
101252.2
101280.06
101303.26
101319.21
101327.42
101330.17
101192.1
100777.13
100778.71
100781.29
100784.9
100789.29
100794.16
100800.08
100807.24
100815.8
100825.96
100838.02
100852.34
100869.33
100889.41
100912.96
100940.18
100970.98
101004.75
101040.11
101076.14
101111.29
101147.74
101183.82
101217.99
101250.19
101277.9
101301.21
101317.42
101325.67
101329.56
101195.27
100813.1
100814.79
100817.27
100820.21
100823.88
100828.43
100834.05
100840.72
100848.55
100857.74
100868.54
100881.27
100896.3
100914.03
100934.83
100958.96
100986.42
101016.7
101048.49
101082.25
101115.36
101149.22
101183.65
101216.88
101248.47
101275.86
101299.21
101315.67
101323.91
101328.77
101200.02
100851.68
100853.42
100855.85
100858.56
100861.94
100866.13
100871.06
100876.88
100883.67
100891.61
100900.92
100911.87
100924.79
100940.04
100958.02
100979.02
101003.13
101030.01
101058.74
101089.84
101119.96
101151.19
101184.06
101216.14
101247.08
101274.01
101297.26
101313.95
101322.41
101327.8
101206.22
100892.14
100894.03
100896.47
100898.72
100901.44
100905.21
100909.67
100914.71
100920.45
100927.07
100934.77
100943.81
100954.51
100967.22
100982.34
101000.19
101020.94
101044.44
101070.01
101097.87
101125.9
101153.74
101184.83
101215.98
101246.04
101272.33
101295.39
101312.25
101320.97
101326.69
101213.56
100931.84
100933.76
100936.07
100938.77
100942.03
100945.44
100949.19
100953.38
100958.06
100963.34
100969.41
100976.52
100984.97
100995.15
101007.42
101022.16
101039.6
101059.73
101082.06
101106.61
101131.61
101156.18
101186.49
101216.77
101245.49
101270.95
101293.63
101310.56
101319.5
101325.42
101221.49
100970.6
100972.37
100974.98
100978.02
100981.12
100984.27
100987.61
100991.17
100994.99
100999.14
101003.77
101009.1
101015.45
101023.21
101032.77
101044.52
101058.78
101075.62
101094.74
101115.93
101137.05
101159.93
101189.34
101218.16
101245.34
101269.79
101292.01
101308.87
101317.99
101324.09
101229.26
101008.03
101009.95
101012.46
101015.13
101017.93
101020.87
101023.93
101027.03
101030.16
101033.37
101036.78
101040.59
101045.1
101050.68
101057.76
101066.77
101078.07
101091.83
101107.85
101125.76
101144.24
101166.17
101193.47
101219.82
101245.19
101268.53
101290.51
101307.2
101316.43
101322.83
101236.2
101045.28
101046.2
101047.97
101050.06
101052.34
101054.8
101057.39
101060
101062.53
101064.97
101067.4
101069.98
101072.97
101076.74
101081.7
101088.34
101097.04
101108.08
101121.39
101136.7
101153.64
101172.99
101196.53
101221.2
101246.28
101268.11
101289.27
101305.58
101314.79
101321.56
101241.73
101082.38
101082.7
101083.66
101084.93
101086.33
101087.82
101089.37
101090.94
101092.46
101093.88
101095.23
101096.64
101098.35
101100.65
101103.93
101108.65
101115.22
101123.98
101134.99
101148.12
101163.13
101179.4
101200.31
101223.45
101247.78
101268.71
101288.3
101304.08
101313.07
101320.04
101245.41
101111.12
101112.42
101114.73
101116.5
101117.31
101117.96
101118.49
101118.97
101119.38
101119.67
101119.92
101120.24
101120.83
101121.97
101123.97
101127.24
101132.17
101139.13
101148.24
101159.39
101172.53
101186.71
101205.66
101226.56
101248.68
101269.12
101287.52
101302.72
101311.35
101318.45
101247.46
101137.09
101135.53
101134.56
101134.78
101136.13
101137.63
101139.28
101140.84
101141.36
101140.83
101140.31
101139.96
101139.86
101140.25
101141.43
101143.75
101147.59
101153.25
101160.92
101170.48
101181.93
101194.44
101211.13
101229.63
101249.76
101269.9
101287.56
101301.67
101309.71
101317.34
101248.72
101161.88
101160.83
101159.89
101158.81
101157.54
101156.24
101154.91
101153.75
101153.57
101154.28
101154.9
101154.96
101154.73
101154.98
101156
101158.04
101161.38
101166.31
101172.98
101181.36
101191.49
101202.26
101216.9
101233.72
101252.68
101271.2
101287.22
101300.75
101308.08
101316.6
101249.61
101173.1
101173.14
101172.88
101172.37
101171.71
101170.91
101169.95
101168.77
101167.52
101166.41
101165.52
101165.32
101165.84
101166.72
101168.18
101170.48
101173.84
101178.46
101184.49
101191.96
101200.83
101210.52
101223.39
101238.73
101255.86
101272.22
101287.09
101300.06
101306.4
101315.53
101251.28
101175.44
101175.59
101175.67
101175.65
101175.58
101175.49
101175.41
101175.37
101175.43
101175.56
101175.76
101176.13
101176.86
101178.05
101179.82
101182.32
101185.72
101190.16
101195.73
101202.47
101210.35
101219.11
101230.02
101243.7
101258.83
101273.9
101287.71
101299.37
101304.61
101314.43
101256.1
101179.22
101179.8
101180.3
101180.75
101181.24
101181.81
101182.45
101183.19
101184.04
101184.98
101185.59
101185.92
101187
101188.97
101191.36
101194.19
101197.64
101201.87
101206.98
101213.01
101219.94
101227.71
101237.01
101249.01
101262.33
101275.9
101288.35
101299.08
101302.76
101313.85
101263.3
101186.93
101187.54
101188.13
101188.71
101189.39
101190.23
101191.25
101192.4
101193.29
101193.94
101195.25
101197.51
101199.91
101202.12
101204.45
101207.11
101210.24
101213.98
101218.44
101223.67
101229.63
101236.38
101244.3
101254.66
101266.12
101277.7
101288.45
101299.01
101301.38
101314.1
101268.36
101200.42
101200.55
101200.9
101201.3
101201.8
101202.42
101203.12
101203.98
101205.37
101207.42
101209.72
101211.95
101213.94
101215.9
101218.04
101220.42
101223.13
101226.28
101230.02
101234.39
101239.38
101245.09
101251.68
101260.4
101270.13
101279.99
101289.27
101298.72
101299.44
101314.89
101271.26
101216.89
101217.17
101217.49
101217.88
101218.34
101218.88
101219.56
101220.61
101221.78
101222.97
101224.49
101226.17
101227.85
101229.58
101231.41
101233.41
101235.66
101238.26
101241.31
101244.88
101249
101253.72
101259.1
101266.3
101274.5
101282.87
101290.28
101298.92
101298.02
101313.8
101273.25
101233.49
101233.44
101233.58
101233.8
101234.08
101234.43
101234.82
101235.27
101236.29
101237.93
101239.23
101240.16
101241.19
101242.39
101243.76
101245.33
101247.16
101249.3
101251.81
101254.77
101258.19
101262.07
101266.42
101272.17
101278.88
101285.69
101291.87
101298.62
101297.02
101311.92
101272.9
101248.14
101248.09
101248.16
101248.29
101248.46
101248.7
101248.99
101249.19
101249.08
101248.95
101249.6
101250.99
101252.23
101253.25
101254.39
101255.74
101257.29
101259.09
101261.22
101263.75
101266.63
101269.82
101273.3
101277.77
101283.09
101288.4
101292.98
101298.78
101296.78
101310.02
101274.01
101258.49
101258.59
101258.72
101258.84
101258.98
101259.15
101259.36
101259.63
101259.94
101260.17
101260.22
101260.27
101260.78
101261.74
101262.91
101264.23
101265.74
101267.47
101269.43
101271.68
101274.15
101276.77
101279.53
101282.92
101287.04
101291.09
101294.47
101299.14
101296.38
101307.24
101277.37
101265.2
101265.37
101265.56
101265.76
101265.98
101266.23
101266.51
101266.83
101267.2
101267.61
101268.09
101268.63
101269.27
101270.07
101271.02
101272.14
101273.45
101274.98
101276.75
101278.7
101280.79
101282.91
101285.06
101287.5
101290.56
101293.46
101295.73
101299.15
101295.67
101304.3
101279.42
101273.23
101273.37
101273.54
101273.72
101273.92
101274.16
101274.44
101274.76
101275.14
101275.57
101276.04
101276.57
101277.2
101277.95
101278.77
101279.69
101280.74
101281.96
101283.39
101284.97
101286.63
101288.26
101289.84
101291.44
101293.5
101295.31
101296.45
101298.54
101294.51
101302.14
101279.6
101281.35
101281.39
101281.46
101281.55
101281.67
101281.82
101282.02
101282.25
101282.49
101282.77
101283.14
101283.68
101284.3
101284.9
101285.55
101286.3
101287.16
101288.11
101289.17
101290.35
101291.56
101292.71
101293.75
101294.61
101295.73
101296.63
101296.73
101297.76
101293.42
101300.43
101279.13
101288.47
101288.48
101288.51
101288.56
101288.62
101288.69
101288.78
101288.89
101289.03
101289.21
101289.41
101289.61
101289.86
101290.26
101290.77
101291.36
101292.04
101292.79
101293.59
101294.43
101295.26
101296
101296.55
101296.81
101297.17
101297.32
101296.46
101297.01
101292.71
101299.34
101279.75
101293.17
101293.19
101293.24
101293.29
101293.35
101293.42
101293.51
101293.61
101293.73
101293.87
101294.03
101294.23
101294.57
101294.97
101295.33
101295.72
101296.15
101296.59
101297.01
101297.4
101297.76
101298.04
101298.12
101297.89
101297.65
101297.26
101295.79
101296.08
101291.61
101298.32
101281.95
101297.03
101297.06
101297.11
101297.17
101297.23
101297.32
101297.41
101297.52
101297.64
101297.79
101297.95
101298.11
101298.21
101298.33
101298.57
101298.86
101299.13
101299.33
101299.42
101299.39
101299.25
101298.97
101298.53
101297.8
101297.03
101296.3
101294.62
101294.98
101291.26
101297.59
101284.26
101301.37
101301.42
101301.47
101301.53
101301.59
101301.65
101301.71
101301.78
101301.84
101301.9
101301.96
101302.01
101302.04
101302.06
101302.05
101302
101301.86
101301.6
101301.21
101300.65
101299.91
101298.99
101297.92
101296.69
101295.49
101294.74
101293.2
101293.81
101291.21
101298.63
101286.99
101305.08
101305.09
101305.11
101305.12
101305.14
101305.15
101305.15
101305.16
101305.15
101305.14
101305.11
101305.06
101304.98
101304.85
101304.64
101304.34
101303.9
101303.3
101302.52
101301.53
101300.34
101298.95
101297.43
101295.89
101294.51
101293.94
101292.86
101294.34
101292.52
101299.9
101290.52
101309.95
101309.86
101309.76
101309.65
101309.52
101309.36
101309.19
101308.98
101308.75
101308.48
101308.17
101307.81
101307.39
101306.9
101306.32
101305.63
101304.82
101303.88
101302.81
101301.63
101300.37
101299.11
101297.97
101297.06
101296.5
101296.95
101297.11
101299.54
101298.41
101303.4
101295.69
101315.92
101315.72
101315.5
101315.24
101314.95
101314.62
101314.23
101313.79
101313.28
101312.71
101312.07
101311.35
101310.54
101309.62
101308.59
101307.44
101306.17
101304.81
101303.42
101302.08
101300.9
101300.08
101299.86
101300.43
101301.79
101304.29
101306.17
101308.78
101307.11
101308.15
101301.91
101321.2
101320.88
101320.55
101320.2
101319.84
101319.45
101319.02
101318.55
101318.02
101317.44
101316.79
101316.04
101315.2
101314.24
101313.17
101311.99
101310.72
101309.43
101308.21
101307.17
101306.49
101306.34
101306.98
101308.59
101311.08
101314.28
101315.92
101316.63
101312.63
101310
101305.98
101322.81
101322.61
101322.4
101322.19
101321.97
101321.74
101321.5
101321.23
101320.94
101320.63
101320.27
101319.89
101319.53
101319.15
101318.69
101318.22
101317.79
101317.45
101317.29
101317.38
101317.82
101318.65
101319.86
101321.32
101322.7
101323.78
101322.85
101320.52
101314.62
101310.66
101307.77
101319.42
101319.41
101319.4
101319.4
101319.41
101319.43
101319.47
101319.54
101319.63
101319.78
101319.99
101320.25
101320.55
101320.95
101321.47
101322.14
101322.95
101323.92
101325.06
101326.35
101327.71
101328.95
101329.75
101329.75
101328.77
101327.69
101325.93
101324.33
101319.9
101314.01
101308.69
101315.9
101316.08
101316.25
101316.43
101316.63
101316.86
101317.15
101317.53
101318.02
101318.64
101319.39
101320.28
101321.32
101322.48
101323.73
101325.09
101326.55
101328.09
101329.61
101330.96
101331.96
101332.36
101331.96
101330.82
101329.5
101329.23
101329.27
101327.78
101319.06
101302.66
101290.18
101317.88
101318.1
101318.35
101318.65
101318.99
101319.38
101319.84
101320.35
101320.95
101321.64
101322.43
101323.32
101324.3
101325.39
101326.65
101328.04
101329.49
101330.94
101332.25
101333.28
101333.81
101333.68
101332.85
101331.58
101330.18
101328.28
101323.12
101312.53
101299.35
101290.92
101276.49
101320.28
101320.55
101320.86
101321.22
101321.64
101322.12
101322.67
101323.31
101324.04
101324.88
101325.86
101327.01
101328.35
101329.88
101331.44
101332.91
101334.24
101335.39
101336.12
101336.13
101335.14
101333.04
101329.98
101326.61
101323.65
101320.59
101314.29
101300.81
101282.46
101269.3
101252.56
101327.25
101327.8
101328.38
101329
101329.67
101330.42
101331.24
101332.14
101333.12
101334.17
101335.29
101336.43
101337.51
101338.48
101339.41
101340.28
101340.92
101341.13
101340.71
101339.36
101336.77
101332.78
101327.55
101321.69
101316.13
101310.97
101302.8
101288.01
101267.66
101249.54
101237.47
101326.74
101327.21
101327.7
101328.22
101328.76
101329.31
101329.88
101330.44
101331
101331.58
101332.2
101332.83
101333.5
101334.2
101334.92
101335.58
101335.88
101335.67
101335.04
101333.71
101331.42
101328
101323.55
101318.41
101313.15
101307.89
101298.72
101284.18
101266.05
101250.94
101236.18
101336.02
101335.64
101335.27
101334.92
101334.58
101334.23
101333.89
101333.54
101333.18
101332.81
101332.4
101331.94
101331.4
101330.78
101330.09
101329.39
101328.82
101328.32
101327.5
101326.27
101324.54
101322.28
101319.66
101317.09
101313.49
101312.45
101304.59
101297.36
101284.06
101273.7
101238.82
100301.43
100299.69
100298.52
100298.2
100299.19
100302.34
100308.14
100317.57
100331.64
100350.92
100375.92
100406
100440.27
100478.85
100520.36
100563.42
100607.15
100650.34
100691.65
100730.62
100767.92
100804.62
100840.82
100877.56
100913.74
100948.94
100984.42
101020.02
101055.2
101088.19
101118.32
101145.71
101165.68
101173.53
101176.27
101179.89
101188.45
101202.72
101219.23
101236.06
100298.6
100296.02
100294.33
100294.19
100296.51
100302.18
100311.75
100326.32
100346.52
100372.68
100404.19
100440.14
100479.62
100521.57
100564.6
100607.73
100649.84
100689.8
100727.15
100762.88
100798.61
100834.63
100871.83
100908.98
100945.03
100981.24
101017.28
101053.19
101086.54
101116.94
101144.75
101165.44
101173.51
101176.51
101179.72
101188.07
101202.29
101218.66
101235.52
101249.43
101259.11
101265.42
101273.6
101281.85
101288.86
101293.34
101297.15
101301.38
101305.25
101310.68
101317.19
101322.73
101323.49
101319.41
101315.02
101316.79
101318.89
101325.43
101325.16
101337.43
100297.8
100294.61
100293.12
100294.17
100298.8
100308.02
100322.63
100343.27
100370.15
100402.39
100439.5
100479.59
100521.63
100564.28
100606.79
100647.96
100686.88
100722.97
100757.47
100792.51
100828.5
100866.18
100904.33
100941.3
100978.21
101014.43
101050.91
101084.64
101115.19
101143.24
101164.84
101173.35
101176.55
101179.59
101187.75
101201.92
101218.04
101234.92
101249.06
101258.95
101265.37
101273.5
101281.69
101288.75
101293.29
101297.11
101301.38
101305.2
101310.48
101316.84
101322.35
101323.34
101319.4
101315.24
101317.07
101319.25
101325.82
101325.51
101337.06
100300.94
100297.91
100297.2
100300.14
100308.02
100321.72
100341.84
100368.67
100400.83
100438.26
100478.47
100520.28
100562.9
100604.3
100644.5
100682.83
100718.12
100751.66
100786.24
100822.31
100860.43
100899.54
100937.5
100975.05
101011.32
101048.14
101082.76
101112.5
101140.73
101163.57
101172.9
101176.24
101179.61
101187.57
101201.6
101217.35
101234.18
101248.58
101258.73
101265.31
101273.39
101281.53
101288.61
101293.22
101297.06
101301.37
101305.15
101310.28
101316.5
101321.96
101323.18
101319.4
101315.46
101317.35
101319.61
101326.24
101325.88
101336.71
100310.49
100307.62
100306.28
100307.8
100313.93
100325.85
100344.33
100369.37
100400.77
100437.59
100477.5
100518.99
100561.11
100601.58
100640.45
100678.12
100713.26
100746.09
100780.4
100816.69
100855.2
100895.1
100933.98
100972.07
101008.48
101045.26
101080.89
101109.18
101137.14
101161.5
101172.29
101175.86
101179.84
101187.62
101201.2
101216.75
101233.35
101248.01
101258.47
101265.26
101273.29
101281.37
101288.47
101293.15
101297.01
101301.35
101305.09
101310.08
101316.17
101321.57
101322.99
101319.41
101315.68
101317.63
101319.97
101326.7
101326.28
101336.39
)
;

boundaryField
{
    Side1
    {
        type            empty;
    }
    Inlet
    {
        type            totalPressure;
        rho             rho;
        psi             none;
        gamma           1;
        p0              uniform 102920.87;
        value           nonuniform List<scalar> 
59
(
101304.38
101304.41
101304.41
101304.39
101304.35
101304.31
101304.23
101304.12
101303.94
101303.69
101303.37
101302.96
101302.5
101302.01
101301.51
101301.01
101300.52
101300.03
101299.54
101299.03
101298.48
101297.88
101297.19
101296.35
101295.32
101294.05
101292.63
101290.97
101289.5
101288.63
101287.98
101287.37
101287.06
101287.23
101287.25
101287.16
101287.14
101287.19
101287.34
101287.36
101287.32
101287.42
101287.61
101287.92
101287.96
101287.83
101287.86
101288.69
101290
101291.52
101292.91
101294.72
101297.03
101298.66
101296.29
101295.83
101294.95
101294.03
101290.65
)
;
    }
    Side2
    {
        type            empty;
    }
    Outlet
    {
        type            freestreamPressure;
        freestreamValue uniform 101325;
        value           nonuniform List<scalar> 
35
(
101325
101325
101325
101325
101325
101325
101325
101325
101325
101325
101325
101325
101325
101325
101325
101325
101325
101325
101325
101325
101325
101325
101325
101325
101325
101325
101325
101325
101325
101325
101325
101325
101325
101325
101325
)
;
    }
    Botwall
    {
        type            zeroGradient;
    }
    Cyli
    {
        type            zeroGradient;
    }
    procBoundary3to0
    {
        type            processor;
        value           nonuniform List<scalar> 7(100303.2 100301.63 100301.63 100301.63 100301.63 100305.02 100305.02);
    }
    procBoundary3to1
    {
        type            processor;
        value           nonuniform List<scalar> 
62
(
100304.26
100303.32
100303.02
100303.6
100305.25
100308.66
100314.54
100323.81
100337.26
100355.42
100379.07
100407.43
100440.53
100477.67
100517.53
100560.25
100604.64
100649.11
100692.22
100733.27
100772.65
100810.71
100847.32
100883.71
100919.01
100953.32
100987.97
101022.82
101057.05
101089.55
101119.35
101146.25
101165.62
101173.48
101176.25
101180.12
101188.9
101203.2
101219.76
101236.55
101249.78
101249.78
101259.22
101265.45
101273.7
101281.99
101288.96
101293.38
101297.18
101301.38
101305.3
101310.88
101317.54
101323.1
101323.63
101319.43
101314.8
101316.52
101318.52
101325.07
101324.84
101337.83
)
;
    }
    procBoundary3to2
    {
        type            processor;
        value           nonuniform List<scalar> 
35
(
101356.77
101351.71
101217.84
100514.4
100576.7
100647.56
100724.44
100804.83
100888.72
100966.71
101035.27
101087.65
101143.55
101189.78
101230.59
101264.67
101294.9
101317.46
101336.49
101348.92
101348.92
100320.37
100320.37
100325.77
100331.79
100337.85
100344.61
100353.26
100365.11
100381.43
100404.07
100434.74
100474.77
100474.77
100313.64
)
;
    }
}


// ************************************************************************* //
