/*--------------------------------*- C++ -*----------------------------------*\
| =========                 |                                                 |
| \\      /  F ield         | OpenFOAM: The Open Source CFD Toolbox           |
|  \\    /   O peration     | Version:  2406                                  |
|   \\  /    A nd           | Website:  www.openfoam.com                      |
|    \\/     M anipulation  |                                                 |
\*---------------------------------------------------------------------------*/
FoamFile
{
    version     2.0;
    format      ascii;
    arch        "LSB;label=32;scalar=64";
    class       surfaceScalarField;
    location    "0.1";
    object      phi;
}
// * * * * * * * * * * * * * * * * * * * * * * * * * * * * * * * * * * * * * //

dimensions      [1 0 -1 0 0 0 0];

oriented        oriented;

internalField   nonuniform List<scalar> 
4031
(
0.00018131265
0.69596937
8.0331353e-06
0.7782494
0.85215105
0.0018953218
0.082737795
0.0021848497
0.096287456
0.002456167
0.11175608
0.0026978801
0.12932553
0.0029053039
0.14914496
0.0030289104
0.17111235
0.003028394
0.19494773
0.0028316507
0.21949308
0.0024661933
0.24361614
0.002164991
0.27066021
0.00191204
0.30301423
0.0016660607
0.34005894
0.0014273544
0.38212152
0.0011845816
0.42959202
0.0009508037
0.48379631
0.00070509653
0.54449254
0.00045479646
0.61536194
0.00019433259
0.6962148
1.148938e-05
0.77841231
0.85217481
-2.6198062e-05
0.010038565
4.5513042e-05
4.8062375e-05
0.0141203
0.00012466228
0.018059699
0.00020462654
0.022106353
0.00030261418
0.026527182
0.0004291609
0.031518978
0.00059094311
0.037243547
0.00078889647
0.043852084
0.0010230103
0.051505794
0.0012905491
0.060372416
0.0015835757
0.070623244
0.0018895972
0.082432306
0.0021947826
0.095982756
0.0024858593
0.11146544
0.0027502074
0.12906155
0.0029806439
0.14891477
0.003128416
0.17096471
0.0031513036
0.19492483
0.0029698492
0.21967438
0.0025953307
0.24399046
0.0022807368
0.27097434
0.0020184317
0.30327577
0.0017628563
0.34031345
0.0015132454
0.38236967
0.0012578435
0.4298453
0.0010108065
0.4840401
0.00075058084
0.54474729
0.00048404033
0.61561879
0.00020863128
0.69647401
1.6471481e-05
0.77858228
0.85219354
-0.0001929828
0.010023221
0.00020855492
-0.00010170119
0.01402931
-1.9586235e-07
0.017958551
0.00010508554
0.022001505
0.00022314337
0.026409624
0.00036427052
0.031378415
0.00053576279
0.037072673
0.00074049378
0.043648008
0.00097981912
0.051267139
0.0012525964
0.060100297
0.0015529813
0.070323481
0.0018702119
0.082115647
0.0021911898
0.095662298
0.0025024179
0.11115468
0.0027902888
0.12877406
0.0030445762
0.14866076
0.0032219136
0.17078753
0.0032736566
0.1948731
0.0031085522
0.21983936
0.0027265867
0.2443722
0.0023986014
0.27130184
0.0021275786
0.303546
0.0018629106
0.34057702
0.0016025725
0.38262851
0.0013343975
0.43011127
0.0010737498
0.48429732
0.00079847561
0.54501673
0.0005149439
0.61589195
0.00022440758
0.69674698
2.2627506e-05
0.77875908
0.85220893
-0.00043216618
0.010004009
0.00045171263
-0.00031688209
0.013914427
-0.00018189027
0.017824028
-4.4248495e-05
0.021864398
0.00010177445
0.026264199
0.00026482562
0.03121602
0.00045234126
0.036885858
0.00066877121
0.043432305
0.00091691409
0.051019725
0.0011972957
0.059820621
0.0015062603
0.070015177
0.0018351398
0.081787372
0.0021720845
0.0953259
0.0025037674
0.11082348
0.0028159026
0.12846233
0.0030954449
0.1483815
0.0033046075
0.17057853
0.0033895366
0.19478819
0.0032458882
0.2199829
0.0028591314
0.24475871
0.0025178791
0.27164257
0.0022389885
0.30382407
0.0019659379
0.34084896
0.0016951949
0.38289771
0.0014141901
0.43038998
0.0011396424
0.48456825
0.0008488102
0.54530136
0.00054765001
0.61618202
0.00024198708
0.69703366
3.170671e-05
0.77894137
0.85223222
-0.00074598277
0.0099676251
0.0007828398
-0.00059875132
0.013767734
-0.000423139
0.017649018
-0.00024488394
0.021686805
-6.346459e-05
0.026083495
0.00012838362
0.031024933
0.00033796634
0.036677067
0.0005709914
0.043200082
0.00083166755
0.050759837
0.0011221772
0.059530863
0.0014411426
0.069696907
0.0017823036
0.08144684
0.0021353952
0.094973374
0.0024877469
0.11047163
0.0028247281
0.12812577
0.0031308302
0.1480757
0.0033698093
0.17033974
0.0034902047
0.19466785
0.003377872
0.22009513
0.0029916941
0.24514464
0.0026377018
0.271996
0.0023519823
0.30410894
0.0020714651
0.34112834
0.0017908068
0.3831768
0.00149708
0.43068135
0.0012084356
0.48485309
0.00090160643
0.54560161
0.00058228775
0.6164895
0.00026157104
0.69733394
4.2919144e-05
0.77912904
0.85226284
-0.0011264423
0.0099021648
0.0011925321
-0.00094004499
0.013582027
-0.00071749819
0.01742722
-0.0004930062
0.021463113
-0.00027056783
0.0258619
-4.4718998e-05
0.030799957
0.00019187678
0.036441354
0.0004456354
0.042947199
0.00072209661
0.050484219
0.0010250877
0.059228659
0.0013554659
0.069367246
0.0017094796
0.081093468
0.0020788628
0.094604561
0.0024519869
0.11009901
0.0028141873
0.12776398
0.0031478056
0.14774238
0.0034171874
0.17007056
0.0035727079
0.19451243
0.0034974235
0.22017031
0.0031223009
0.2455195
0.0027569952
0.27236072
0.0024657737
0.3043993
0.0021789811
0.341414
0.0018890672
0.38346514
0.0015828786
0.43098511
0.0012800436
0.48515195
0.00095683817
0.54591786
0.00061891675
0.61681482
0.00028316304
0.69764773
5.6172047e-05
0.77932215
0.85230053
-0.0015510914
0.0097991188
0.001654924
-0.0013219344
0.013353705
-0.0010506781
0.017156845
-0.00077816862
0.021191528
-0.00051254912
0.025597237
-0.00025009361
0.030538471
1.5992694e-05
0.036176229
0.00029291711
0.042671208
0.00058726098
0.050190754
0.00090436714
0.05891236
0.0012471829
0.069025153
0.0016144623
0.080726826
0.0020001587
0.094219425
0.0023940123
0.10970564
0.0027816089
0.12737679
0.0031433766
0.14738091
0.0034429981
0.16977116
0.0036247951
0.19433076
0.0035900277
0.22020498
0.0032483397
0.24586091
0.0028744217
0.27273403
0.0025793574
0.30469349
0.0022877254
0.34170451
0.0019894429
0.38376184
0.0016713079
0.43130076
0.0013543211
0.48546477
0.0010143882
0.54625045
0.00065748413
0.61715836
0.00030655065
0.69797509
7.1093901e-05
0.77952062
0.8523456
-0.002015417
0.0096422357
0.0021732185
-0.0017337202
0.013072955
-0.0014096433
0.016833745
-0.0010878359
0.02087073
-0.00077901594
0.025289448
-0.00048041331
0.0302409
-0.00018500077
0.035881823
0.00011508177
0.042372082
0.00042753221
0.049879188
0.0007590903
0.058581598
0.0011145951
0.068670348
0.0014951235
0.080346906
0.0018969024
0.093818174
0.0023112756
0.10929172
0.0027243261
0.12696411
0.0031148851
0.14699064
0.0034447304
0.16944156
0.0036726272
0.19410296
0.0036898253
0.22018768
0.0033694296
0.24618102
0.0029884988
0.27311438
0.0026916019
0.30498949
0.0023969574
0.34199804
0.0020914129
0.38406582
0.001762028
0.43162758
0.001431064
0.48579137
0.0010740509
0.54659969
0.00069791819
0.61752037
0.00033143354
0.69831624
8.7053174e-05
0.77972423
0.85239868
-0.0024508548
0.0094464446
0.0026476154
-0.0021300952
0.012753175
-0.0017625252
0.016467167
-0.0013987491
0.020507968
-0.0010531881
0.024944917
-0.00072390171
0.029912636
-0.00040358712
0.035562495
-8.3641645e-05
0.042053059
0.00024462707
0.049551756
0.00058918499
0.058237778
0.00095642127
0.068303748
0.0013494679
0.079954403
0.0017667189
0.09340139
0.0022012121
0.10885763
0.0026397643
0.12652591
0.0030602171
0.14657046
0.0034234583
0.16907855
0.0036958278
0.19383065
0.0037699252
0.22011349
0.0034831053
0.24646753
0.0030977943
0.2734992
0.002801272
0.30528513
0.0025056277
0.34229259
0.0021941139
0.38437579
0.0018545368
0.43196452
0.0015099856
0.48613133
0.00113568
0.54696574
0.00074026554
0.61790092
0.00035769103
0.69867161
0.0001036299
0.77993265
0.85246076
-0.0028464978
0.0092150989
0.0030787274
-0.002493342
0.012400918
-0.0020905861
0.016065309
-0.0016932189
0.020111509
-0.0013197097
0.024572325
-0.00096851232
0.029562346
-0.00063121488
0.035226066
-0.00029793674
0.041720583
4.1120616e-05
0.049213412
0.0003950906
0.057884424
0.00077163105
0.067927725
0.0011755705
0.079550898
0.0016072115
0.092970122
0.0020612459
0.10840393
0.0025254825
0.12606196
0.002977713
0.14611848
0.0033803093
0.16867614
0.0036968272
0.19351419
0.0038276016
0.21998264
0.0035868555
0.24670789
0.003200238
0.2738854
0.0029066275
0.30557789
0.0026123711
0.34258579
0.0022967148
0.38468993
0.0019483264
0.43231017
0.0015907423
0.48648408
0.0011991151
0.54734856
0.00078463961
0.61829975
0.00038559448
0.69904155
0.00012072184
0.78014587
0.85253246
-0.0031519079
0.0089693373
0.0033983954
-0.0027891583
0.012038891
-0.0023703719
0.015647211
-0.0019543948
0.019696205
-0.0015657322
0.024184334
-0.0012043584
0.029201632
-0.00086078368
0.034883117
-0.0005233982
0.041383764
-0.00018092464
0.048871427
0.00017694092
0.057526962
0.00055896666
0.067546026
0.00097129914
0.079138832
0.001415808
0.092525847
0.0018886845
0.10793128
0.00237906
0.12557181
0.002866052
0.14563171
0.0033177964
0.16822457
0.0036844869
0.1931476
0.0038673591
0.2197998
0.0036783108
0.24689642
0.0032936268
0.27426942
0.0030068589
0.30586384
0.0027167674
0.34287487
0.0023983383
0.38500687
0.0020425305
0.43266312
0.0016729291
0.48684852
0.0012642294
0.54774782
0.00083135269
0.61871616
0.00041560218
0.69942628
0.00013825383
0.78036469
0.85261331
-0.0033700202
0.0087334544
0.0036064418
-0.0030187611
0.011688084
-0.002602394
0.0152312
-0.0021823084
0.019276414
-0.0017905495
0.023792843
-0.0014302187
0.028841553
-0.001091141
0.034544266
-0.00075951988
0.041052332
-0.00042200792
0.048534055
-6.676858e-05
0.057171811
0.0003160818
0.067163224
0.00073380928
0.078721137
0.0011894612
0.09207024
0.0016805457
0.10744028
0.0021977942
0.1250547
0.0027233813
0.1451063
0.0032376934
0.16771043
0.0036716288
0.19271385
0.0039003543
0.21957161
0.0037550337
0.24704122
0.0033754595
0.27464744
0.0030982155
0.30614027
0.0028144276
0.34315769
0.0024967375
0.38532307
0.0021364825
0.43302036
0.0017560985
0.48722337
0.0013306124
0.54816318
0.00088068542
0.61914877
0.00044859104
0.69982543
0.00015665638
0.78059106
0.85270165
-0.0034677163
0.0085392078
0.0036619031
-0.0031615812
0.011381844
-0.0027788757
0.014848303
-0.0023780433
0.018875318
-0.0019994743
0.023413972
-0.0016527287
0.02849449
-0.0013287505
0.034219963
-0.0010121162
0.040735365
-0.00068732225
0.048208922
-0.00034077734
0.056824927
3.8636755e-05
0.066783488
0.00045901627
0.078300483
0.00092433215
0.091604729
0.0014331998
0.10693132
0.0019779204
0.12451
0.0025434701
0.14454089
0.0031120971
0.16714197
0.0036087292
0.1922175
0.0038877105
0.21929426
0.0037972506
0.24713198
0.0034445597
0.27499782
0.0031827543
0.30640127
0.0029100424
0.34342947
0.0025933277
0.38563829
0.002228912
0.43338158
0.0018395544
0.48760673
0.0013980517
0.54859382
0.00093307468
0.61959552
0.00048519252
0.70023855
0.00017693271
0.78082776
0.85279622
-0.0034318583
0.0084222285
0.0035482964
-0.0032100555
0.01115938
-0.0029009455
0.014538396
-0.0025525823
0.018526042
-0.0022098758
0.023070281
-0.0018910124
0.028174615
-0.0015914443
0.03391939
-0.001296338
0.040439281
-0.00098906766
0.047900719
-0.00065468369
0.056489678
-0.00028100274
0.066409036
0.00014075182
0.077878084
0.00061525792
0.091129741
0.0011420781
0.10640421
0.001714679
0.12393731
0.0023189149
0.14393674
0.0029307884
0.16653029
0.0034779767
0.19167051
0.0038073081
0.21896397
0.0037907943
0.24714883
0.0034960608
0.27529303
0.0032497508
0.30664696
0.0029884615
0.34368986
0.0026800065
0.38594519
0.0023186587
0.43373948
0.0019224729
0.48799634
0.0014654293
0.54903925
0.0009884269
0.62005328
0.00052654522
0.70066405
0.00020000124
0.78107911
0.85290003
-0.0033174244
0.0084044
0.0033341756
-0.0032115813
0.011052254
-0.0030119756
0.014337327
-0.0027491973
0.018261654
-0.0024648337
0.022784211
-0.0021850723
0.027893111
-0.0019136992
0.033646288
-0.0016401809
0.040164092
-0.0013490166
0.04760798
-0.0010249516
0.056164174
-0.00065510744
0.066037931
-0.00023012775
0.077452062
0.0002554208
0.090643405
0.00080185131
0.10585727
0.001403428
0.12333552
0.0020462838
0.14329393
0.0027029955
0.16587381
0.0033087823
0.19106504
0.0037459552
0.21852629
0.0038268686
0.24706753
0.0035379692
0.27558248
0.0033088646
0.3068755
0.0030697522
0.34392803
0.0027672013
0.38624613
0.0024047102
0.43409827
0.0020030404
0.48839074
0.0015325461
0.54949729
0.0010464606
0.62051895
0.00057172648
0.70110106
0.0002252779
0.78134896
0.8530224
-0.0032350442
0.0085040123
0.0031339493
-0.0032554425
0.011070967
-0.0031850454
0.014264968
-0.0030295363
0.018103945
-0.0028205579
0.022572907
-0.0025866117
0.027656786
-0.0023409674
0.033398274
-0.0020813978
0.039902222
-0.0017969281
0.047321342
-0.0014740032
0.055839275
-0.0010999549
0.065662161
-0.0006650378
0.077015732
-0.00016318554
0.090140491
0.00040671829
0.10528668
0.0010398673
0.12270206
0.0017230888
0.14261075
0.0024280413
0.16516915
0.0030950895
0.19039841
0.0036126587
0.21800896
0.0037872292
0.24689278
0.0035488741
0.27582065
0.0033429092
0.30708105
0.0031206609
0.34414933
0.0028330781
0.38653189
0.0024832701
0.43444396
0.0020800657
0.4887858
0.0015971153
0.54996676
0.0011054748
0.62098875
0.00061917254
0.7015485
0.00025126005
0.78164163
0.85318136
-0.0032971849
0.0087366594
0.0030624384
-0.0034546802
0.011226199
-0.0035148069
0.014322716
-0.0034725649
0.018059177
-0.0033401017
0.022437728
-0.0031483203
0.027462215
-0.0029188152
0.033165985
-0.0026586033
0.0396393
-0.002363932
0.047024107
-0.0020255879
0.055498592
-0.0016328042
0.065267342
-0.0011760977
0.076557364
-0.00064899076
0.089612147
-4.9020383e-05
0.10468593
0.00062022357
0.12203249
0.0013468789
0.14188418
0.0021032206
0.16441321
0.0028330659
0.18966912
0.0034252685
0.21741721
0.0037185409
0.24659958
0.0035724837
0.27596663
0.0033614284
0.30729195
0.0031683727
0.34434131
0.0029005941
0.3867975
0.0025565228
0.43478342
0.0021500177
0.4891831
0.0016602276
0.5504416
0.0011633871
0.62146196
0.00066339604
0.70200895
0.00027583174
0.78195638
0.85340134
-0.0036181937
0.0090745255
0.0032780296
-0.0038872471
0.011492676
-0.00405192
0.014484584
-0.0041017371
0.01810616
-0.0040414032
0.022374643
-0.0038891058
0.027307142
-0.0036673806
0.032941469
-0.0033920903
0.03936127
-0.0030690582
0.046698468
-0.0026961572
0.055123305
-0.0022667848
0.064835896
-0.0017730635
0.076061963
-0.00120854
0.089046403
-0.00056954661
0.10404621
0.00014221155
0.12132051
0.00091644487
0.14111018
0.0017278933
0.16360235
0.0025250361
0.18887275
0.0032010951
0.21674185
0.0035215385
0.24627944
0.0034552239
0.27603322
0.0033610628
0.30738632
0.0032103656
0.34449096
0.0029450899
0.38706012
0.0026130226
0.43511014
0.0022140995
0.4895714
0.0017184337
0.55092023
0.0012181132
0.62193632
0.00070155886
0.70248537
0.00029753624
0.78228745
0.85370224
-0.0043788516
0.0094708853
0.0039806448
-0.0047087632
0.011820618
-0.004936751
0.014710491
-0.005035229
0.018202395
-0.0050041401
0.022341174
-0.0048553575
0.027155972
-0.0046118854
0.032695645
-0.004295618
0.039042711
-0.0039202837
0.04632095
-0.0034907327
0.054691753
-0.0030050848
0.06434852
-0.0024577055
0.075513221
-0.0018423442
0.088430121
-0.0011544057
0.10335784
-0.00039348511
0.12055966
0.00043302302
0.14028422
0.0013037342
0.16273255
0.002174111
0.18800345
0.0029592597
0.21595774
0.0034207124
0.24581886
0.0034416363
0.27601317
0.003306883
0.3075219
0.00315955
0.34463748
0.0029616624
0.38725452
0.0026664521
0.43539866
0.0022655388
0.48995985
0.0017741949
0.55139184
0.0012683109
0.62241319
0.00072987513
0.70298227
0.00031372942
0.78262745
0.85409212
-0.0055439742
0.0098722535
0.0051413921
-0.0058750786
0.012150455
-0.006102636
0.014936749
-0.0062011869
0.018299615
-0.0061579343
0.022296717
-0.0059827854
0.026979784
-0.0056974386
0.032409204
-0.0053251792
0.038669311
-0.0048842486
0.04587888
-0.0043850004
0.054191435
-0.0038302742
0.063792891
-0.0032174906
0.074899804
-0.0025414241
0.087753784
-0.0017969758
0.10261355
-0.00098148146
0.11974478
-9.8999698e-05
0.13940278
0.00083356546
0.16180136
0.0017806241
0.18705795
0.0026710783
0.21506881
0.003272651
0.24521866
0.0033498601
0.27593744
0.0032879281
0.307585
0.003239388
0.34468479
0.0029943025
0.3874956
0.0026867289
0.4356984
0.0023109484
0.49032069
0.001822686
0.55185717
0.0013101112
0.62289285
0.00074767149
0.70349997
0.00031437945
0.78297949
0.85456185
-0.0069427839
0.010224133
0.0065906639
-0.0072237349
0.012431256
-0.007404111
0.015117094
-0.0074593172
0.018354905
-0.0073791665
0.022216597
-0.0071654045
0.026765955
-0.006833282
0.032077142
-0.0064043573
0.038240533
-0.0058984886
0.045373187
-0.0053296
0.053622757
-0.0047045718
0.063168161
-0.0040241448
0.074219845
-0.0032847526
0.087015115
-0.0024813511
0.1018112
-0.001609972
0.11887481
-0.00067181963
0.13846638
0.00032092965
0.16081064
0.0013366291
0.18604446
0.002300302
0.21410729
0.0030272237
0.24449365
0.0032633129
0.27570313
0.0031685627
0.30768459
0.0030518102
0.34480383
0.0029482838
0.38759088
0.0027204394
0.43591603
0.0023357599
0.49068745
0.0018622939
0.55230419
0.0013446471
0.62337264
0.00075287473
0.70404218
0.00028797789
0.7833573
0.85508228
-0.0083993204
0.010489008
0.0081349989
-0.0085966942
0.012629314
-0.0087027812
0.015224044
-0.0086963646
0.01834959
-0.0085627783
0.022084365
-0.0083018773
0.02650657
-0.0079236837
0.031700521
-0.0074453088
0.037763752
-0.0068851966
0.044814702
-0.006258107
0.052997342
-0.005573198
0.062484993
-0.0048336993
0.073482185
-0.0040378908
0.086221297
-0.003181293
0.1009568
-0.0022594194
0.11795537
-0.0012711847
0.13748082
-0.00022504801
0.15976736
0.00085118724
0.18497116
0.0018895575
0.21307172
0.0027247258
0.24366077
0.003007142
0.27542213
0.0029173506
0.3077717
0.0029490071
0.3447719
0.0028926442
0.38764761
0.0026770779
0.43611975
0.0023505181
0.49099266
0.001892569
0.55273162
0.0013693824
0.623852
0.00074498213
0.70460938
0.00023744981
0.78377195
0.85561298
-0.0097954593
0.010652164
0.0096337068
-0.0098936445
0.012729117
-0.0099087534
0.015241029
-0.0098249518
0.018267979
-0.0096287862
0.021890664
-0.0093170957
0.026197534
-0.0088957031
0.031281929
-0.0083767948
0.037247761
-0.0077753734
0.044216294
-0.0071055444
0.052330607
-0.0063773373
0.061759947
-0.0055951524
0.072703236
-0.0047583552
0.085387837
-0.003862796
0.10006471
-0.0029033256
0.11699952
-0.0018770891
0.13645833
-0.00078935118
0.15868345
0.00033651599
0.18384909
0.0014374124
0.21197438
0.0023565293
0.24274455
0.0027871882
0.27499307
0.0028414406
0.30771701
0.0029762469
0.34463578
0.0029450708
0.38767588
0.002696576
0.43635642
0.0023324555
0.49133197
0.0018983309
0.55313075
0.0013810587
0.62431826
0.00073895829
0.70518452
0.00019776043
0.78421404
0.856131
-0.011025433
0.010722483
0.010957107
-0.011035934
0.012741793
-0.010971645
0.015179282
-0.010814537
0.01811372
-0.010553676
0.021632893
-0.010186005
0.025833266
-0.0097169922
0.030816623
-0.0091578573
0.036692588
-0.0085214845
0.043584072
-0.0078203648
0.051633782
-0.0070644491
0.061008446
-0.006258337
0.071901644
-0.0054009613
0.084535085
-0.0044871727
0.099155654
-0.0035101458
0.11602732
-0.0024647142
0.13541779
-0.0013527265
0.15757635
-0.00019303368
0.18269417
0.00095691976
0.21082885
0.0019564614
0.24174883
0.0025520849
0.27439989
0.0027418602
0.3075293
0.0027704893
0.34460823
0.0026561839
0.38778426
0.0025608176
0.43643496
0.0023153877
0.49154943
0.0019014882
0.55350436
0.0013878381
0.62477271
0.00074559157
0.70574779
0.00018145266
0.78467115
0.85661784
-0.011946981
0.010720506
0.011951489
-0.011889598
0.012687258
-0.011763137
0.015055926
-0.011551897
0.017905922
-0.011245088
0.021329888
-0.010837616
0.02542993
-0.010332604
0.030316077
-0.0097411725
0.036105947
-0.009078339
0.042926326
-0.0083579499
0.05091872
-0.0075900052
0.060246009
-0.0067791833
0.071096476
-0.0059237538
0.083685434
-0.0050164644
0.098254254
-0.0040473692
0.1150642
-0.0030075303
0.13438397
-0.0018943548
0.15646915
-0.00072076431
0.18152636
0.00046760692
0.20964579
0.0015654918
0.24065618
0.0022459138
0.27372391
0.0023937377
0.30738405
0.0024330362
0.34456604
0.0024713658
0.38772971
0.002435698
0.43645329
0.0022097773
0.49175227
0.0018615621
0.55380709
0.0013719659
0.62519381
0.00073522644
0.7062917
0.00017095174
0.78511667
0.85704205
-0.012290601
0.010685108
0.012328799
-0.012203707
0.01260345
-0.012054888
0.014910596
-0.011831937
0.017686866
-0.011523534
0.021025784
-0.011121788
0.025032894
-0.010625422
0.029824831
-0.010041373
0.035527407
-0.0093840798
0.042274892
-0.0086706913
0.050211485
-0.0079148453
0.05949656
-0.0071232689
0.070311493
-0.0062947541
0.082863682
-0.0054207671
0.097387168
-0.0044878891
0.11413832
-0.003482359
0.13338547
-0.0023961521
0.15538992
-0.0012357915
0.1803727
-3.8199919e-05
0.20845437
0.0010891178
0.23953547
0.0018683238
0.27294975
0.0020915218
0.30716162
0.0022866022
0.3443624
0.0024609675
0.38754211
0.0024359489
0.43646289
0.0022047698
0.4919557
0.0018270885
0.55413341
0.0013545297
0.6255878
0.00073002431
0.70680767
0.00020888336
0.78550153
0.8574099
-0.011531824
0.010671692
0.01154879
-0.011480809
0.012556402
-0.011384277
0.014818442
-0.011229098
0.017536516
-0.011002973
0.020804962
-0.010695761
0.024731387
-0.010301216
0.029436298
-0.0098193502
0.035051785
-0.0092576721
0.041719641
-0.0086299958
0.049590418
-0.0079516556
0.058825043
-0.0072328805
0.069599811
-0.0064754471
0.082113655
-0.0056725724
0.096591999
-0.0048102308
0.11328389
-0.0038714972
0.13245472
-0.0028435023
0.15436989
-0.001727185
0.17926418
-0.0005543388
0.20728888
0.00058507299
0.23840312
0.0014624555
0.27207732
0.0018142791
0.30681022
0.0020653403
0.34410757
0.0021720972
0.38742531
0.0020897753
0.43652441
0.0019911802
0.49201858
0.0017514631
0.55431236
0.001301079
0.62594889
0.00071729253
0.70726585
0.00026641389
0.78579565
0.85774293
-0.0096536698
0.010714785
0.0096121597
-0.0096774578
0.012581421
-0.0096769831
0.014818806
-0.0096408008
0.01750395
-0.0095563073
0.020727797
-0.0094145647
0.024596722
-0.0092042348
0.029232623
-0.0089164752
0.034770601
-0.008549361
0.041359141
-0.0081090145
0.049156774
-0.0076037948
0.058326675
-0.0070415708
0.069044711
-0.0064252303
0.081504885
-0.0057498503
0.09592472
-0.005003033
0.1125456
-0.0041677394
0.13162822
-0.0032289206
0.15343999
-0.0021833008
0.17822742
-0.0010549825
0.20616907
7.8015629e-05
0.23727786
0.0010030186
0.27115775
0.0014265292
0.30638878
0.0017087884
0.34382291
0.001880924
0.3872426
0.001946867
0.43643327
0.0019155488
0.49201076
0.0016370141
0.55452929
0.0012351517
0.62625113
0.0007098009
0.70764871
0.00025916835
0.78607065
0.85805557
-0.0072908331
0.010860135
0.0071490076
-0.0074196336
0.01271476
-0.0075281225
0.014932901
-0.0076126926
0.017592023
-0.0076683192
0.020783901
-0.0076856411
0.024615509
-0.0076595982
0.029209192
-0.0075863125
0.034700748
-0.0074566152
0.041233743
-0.0072564252
0.048961836
-0.0069796191
0.058055944
-0.0066279948
0.068699709
-0.0062030787
0.081087117
-0.0056983375
0.095427781
-0.005100973
0.11195676
-0.0043946965
0.13093113
-0.0035646711
0.15261967
-0.002606141
0.17727887
-0.0015380205
0.20511071
-0.00042894701
0.2361776
0.00054756081
0.27018793
0.0010486647
0.30589113
0.0013494856
0.3435197
0.0016469783
0.38693678
0.001838813
0.43622136
0.0018330286
0.49197495
0.00155831
0.55473613
0.0011593519
0.62654157
0.00068821761
0.70796312
0.0001509543
0.78641787
0.8583409
-0.0048146268
0.011162365
0.0045138661
-0.0051212635
0.013023234
-0.0054250433
0.015238918
-0.0057146915
0.017884311
-0.0059775912
0.02104984
-0.006200367
0.024841753
-0.0063698544
0.029382608
-0.0064755746
0.034810756
-0.0065162144
0.041278999
-0.0064960743
0.048946763
-0.0064147583
0.057980136
-0.0062603352
0.068551453
-0.006016295
0.080850076
-0.0056706776
0.095089854
-0.0052114131
0.111506
-0.0046239476
0.13035322
-0.0038949225
0.15190127
-0.0030197735
0.17641508
-0.0020143022
0.20411668
-0.00094004114
0.23511391
4.4576163e-05
0.26921161
0.00061641253
0.30532528
0.00095418599
0.34318261
0.0013050055
0.38657979
0.0014966574
0.43600925
0.001483434
0.49194343
0.0013332803
0.55481158
0.0010478795
0.62671158
0.00064138225
0.70820378
1.7622499e-05
0.78683921
0.85859414
-0.0027881779
0.011566623
0.0023835595
-0.0032182446
0.013452816
-0.0036670116
0.015687259
-0.0041247356
0.018341827
-0.0045780764
0.021503323
-0.0050109165
0.02527521
-0.0054050168
0.029777998
-0.0057409874
0.035149
-0.0059998431
0.041541192
-0.0061677021
0.049118982
-0.0062364775
0.058054406
-0.0062044383
0.068525822
-0.0060704575
0.080723389
-0.0058247607
0.094852581
-0.005453099
0.11114403
-0.0049413157
0.12985259
-0.0042778524
0.1512504
-0.003458865
0.17560975
-0.0024976355
0.20316946
-0.0014446651
0.23407432
-0.00042632645
0.26820491
0.00020016562
0.30470741
0.00056573961
0.34282026
0.00094007333
0.38620045
0.0011799346
0.43574835
0.0013617443
0.49171552
0.0012922393
0.55480453
0.00093369636
0.62694982
0.00058600882
0.70837997
-2.6534613e-05
0.78724027
0.85885824
-0.002695164
0.011960092
0.002302015
-0.0031146157
0.013872496
-0.0035567999
0.01612971
-0.0040165224
0.01880189
-0.0044854816
0.021972746
-0.0049514998
0.02574189
-0.0053981627
0.030225627
-0.0058048879
0.035557139
-0.0061463361
0.041884729
-0.006397749
0.049373545
-0.0065402831
0.058201703
-0.0065654559
0.068557726
-0.0064731497
0.080639733
-0.0062554343
0.094645258
-0.005903688
0.11080443
-0.005407625
0.12937057
-0.0047583485
0.15061695
-0.0039536152
0.17482221
-0.0030056734
0.20223932
-0.0019570486
0.23304307
-0.00092083815
0.26718448
-0.00021478967
0.30401395
0.00019187008
0.34242176
0.00060192006
0.38578882
0.00092667016
0.4354045
0.0010209422
0.49157646
0.00091077649
0.55483595
0.00078210045
0.62695343
0.00050167287
0.70848161
-0.00011871451
0.78765594
0.85910693
-0.0046803799
0.012285377
0.0043564225
-0.0050245704
0.014218155
-0.0053849473
0.016491726
-0.0057551958
0.019173974
-0.0061264797
0.022346108
-0.0064870884
0.026104905
-0.006822486
0.030563895
-0.0071158372
0.035854015
-0.0073500817
0.04212336
-0.0075067309
0.049535625
-0.0075661555
0.058267868
-0.0075108228
0.068510836
-0.007329277
0.080468859
-0.0070235331
0.094353057
-0.006593124
0.11039049
-0.0060340574
0.12883048
-0.0053396502
0.1499435
-0.0045056041
0.17401056
-0.0035396652
0.20129656
-0.0024756336
0.23200211
-0.0014108197
0.26614144
-0.00062243529
0.30324411
-0.00021287308
0.34202633
0.0001891956
0.38539168
0.00053352685
0.43504725
0.00070590861
0.49136266
0.0006870582
0.55477453
0.00058159211
0.62693103
0.00025065137
0.70861677
-0.0003000684
0.7880129
0.85924413
-0.0074970609
0.012528019
0.0072579375
-0.0077471939
0.014472186
-0.0080037214
0.016752571
-0.0082597412
0.019434769
-0.0085059112
0.022597554
-0.0087301703
0.026334976
-0.0089178403
0.030757984
-0.0090519982
0.035995315
-0.0091141098
0.042193597
-0.0090889575
0.04952
-0.0089682542
0.058158739
-0.0087487878
0.068305405
-0.0084171084
0.08015337
-0.0079714737
0.093925739
-0.007415045
0.10985483
-0.0067504478
0.12818927
-0.005975654
0.14919468
-0.005085889
0.17314903
-0.004083874
0.20032439
-0.002994825
0.23094355
-0.0019030457
0.26507966
-0.0010437333
0.30241291
-0.00063131926
0.34163701
-0.00024798547
0.38502138
9.5084391e-05
0.43469908
0.00036718353
0.49105564
0.00047055541
0.55459586
0.00040193905
0.62687316
5.6069392e-05
0.7087502
-0.00048805629
0.78836458
0.85927856
-0.009876568
0.01270989
0.0097003117
-0.010057624
0.01465961
-0.010238682
0.016940795
-0.010412725
0.019616879
-0.010570376
0.022764285
-0.010699541
0.026474392
-0.010785423
0.030855415
-0.010810992
0.036033877
-0.010759851
0.042157109
-0.010620591
0.049397137
-0.010378512
0.057934491
-0.010016423
0.067962423
-0.009537257
0.079695135
-0.0089500042
0.093361743
-0.0082641285
0.10919482
-0.0074870531
0.12744092
-0.006622597
0.14836198
-0.0056695633
0.17223066
-0.0046283594
0.1993203
-0.0035164021
0.22987039
-0.0024034599
0.26400613
-0.0014764286
0.30152452
-0.0010277155
0.34122175
-0.00066029176
0.38467713
-0.00030554669
0.4343486
3.2493281e-05
0.49069256
0.00020213418
0.55436604
8.6494922e-05
0.62688003
-0.00026133309
0.7088748
-0.00067404132
0.78858744
0.85922133
-0.010631052
0.012878591
0.010469009
-0.010797701
0.014833843
-0.010964326
0.017116001
-0.011124498
0.019786695
-0.011269663
0.022920201
-0.011388854
0.026605636
-0.011469064
0.030949416
-0.011496121
0.036077211
-0.011453228
0.042133346
-0.011314703
0.049280239
-0.011062437
0.057706421
-0.01069118
0.067617383
-0.010200864
0.079232993
-0.0095943491
0.092785457
-0.0088810227
0.10851413
-0.0080724091
0.12666779
-0.0071780943
0.14750626
-0.0062038683
0.17129816
-0.0051538786
0.19831502
-0.0040426123
0.22880649
-0.0029270291
0.26293973
-0.0019532925
0.30060006
-0.001456617
0.34077008
-0.0010705005
0.38432607
-0.00071968203
0.43401465
-0.00039461197
0.49035754
-0.00025618442
0.55418656
-0.00036361663
0.62688663
-0.00058027168
0.70888893
-0.00072278285
0.78853877
0.85916918
-0.0096534571
0.013082896
0.0094568237
-0.0098601357
0.015049321
-0.010073141
0.0173391
-0.010286983
0.020012089
-0.010493806
0.023140197
-0.010683037
0.026809816
-0.010841053
0.03112424
-0.010951609
0.036206104
-0.011000037
0.042201533
-0.010973584
0.049275428
-0.010854119
0.057610514
-0.010618964
0.067408659
-0.010255615
0.078899398
-0.0097620313
0.092324924
-0.0091433033
0.10793195
-0.0084094747
0.12597444
-0.0075726681
0.14671403
-0.006644806
0.17041883
-0.0056358423
0.19735842
-0.0045620972
0.22778876
-0.0034709981
0.26190752
-0.0024808752
0.29966974
-0.0019344179
0.34027992
-0.0015202671
0.38395963
-0.0011453699
0.43367007
-0.00086526879
0.49007939
-0.00071776036
0.5540013
-0.00066302141
0.62674713
-0.00068258324
0.70874647
-0.0007675308
0.78845757
0.85927281
-0.0080311902
0.013325279
0.0077960271
-0.0082841705
0.015310557
-0.0085529806
0.017617355
-0.0088340776
0.020303986
-0.0091217146
0.023440184
-0.0094072875
0.027109512
-0.0096785187
0.031411621
-0.0099189111
0.036464961
-0.010107053
0.042410678
-0.010223144
0.049415138
-0.010251285
0.057664988
-0.010179222
0.067365924
-0.0099900094
0.078742926
-0.0096665359
0.0920382
-0.0092018353
0.10750819
-0.0085992297
0.12541685
-0.0078688676
0.14603297
-0.0070253909
0.16962946
-0.006083382
0.19647566
-0.0050615121
0.22683105
-0.0040000807
0.26091411
-0.0030072469
0.29874665
-0.002409409
0.33974917
-0.0019752974
0.3835857
-0.0015434434
0.43328158
-0.0012426828
0.48979357
-0.0010298545
0.55376431
-0.0008587178
0.62651
-0.00084892147
0.70860836
-0.00097379185
0.78845576
0.85945846
-0.0073492965