/*--------------------------------*- C++ -*----------------------------------*\
| =========                 |                                                 |
| \\      /  F ield         | OpenFOAM: The Open Source CFD Toolbox           |
|  \\    /   O peration     | Version:  2406                                  |
|   \\  /    A nd           | Website:  www.openfoam.com                      |
|    \\/     M anipulation  |                                                 |
\*---------------------------------------------------------------------------*/
FoamFile
{
    version     2.0;
    format      ascii;
    arch        "LSB;label=32;scalar=64";
    class       volScalarField;
    location    "0.08";
    object      Ma;
}
// * * * * * * * * * * * * * * * * * * * * * * * * * * * * * * * * * * * * * //

dimensions      [0 0 0 0 0 0 0];

internalField   nonuniform List<scalar> 
8260
(
0.15796213
0.15972854
0.16139041
0.16291695
0.16421807
0.16524687
0.1659564
0.1663481
0.16646448
0.16633062
0.16599745
0.16553262
0.16499483
0.16444207
0.16391934
0.16346159
0.16309539
0.1628366
0.16270113
0.16267933
0.16276001
0.16293008
0.16314376
0.16331279
0.16329177
0.1628224
0.16138185
0.15977989
0.15842285
0.15697769
0.15094913
0.15324014
0.15530883
0.1573843
0.15930393
0.16100756
0.16244229
0.16354946
0.16432458
0.16479365
0.16497258
0.16490888
0.16466832
0.16431508
0.16390813
0.16349953
0.16313022
0.16283159
0.16262512
0.16252982
0.16253782
0.16264082
0.16282779
0.16305374
0.16322911
0.16320918
0.16273272
0.16127986
0.15968345
0.15834871
0.15693123
0.15085544
0.14789318
0.15031482
0.15285603
0.155241
0.15739959
0.1592816
0.16083174
0.16203153
0.16289036
0.1634197
0.16366
0.16367444
0.16353179
0.16329136
0.16301337
0.16274558
0.16252436
0.16237791
0.16232851
0.16237093
0.16250012
0.16270707
0.16294778
0.16313151
0.16311436
0.16263143
0.16116527
0.15957732
0.15826753
0.15688087
0.15081464
0.1428802
0.1455801
0.14844747
0.15119778
0.15374066
0.15601766
0.15797353
0.15957547
0.16081604
0.1616997
0.1622561
0.16254524
0.1626317
0.16257758
0.16244759
0.16229678
0.16216559
0.16208963
0.16209402
0.16217712
0.16233751
0.162568
0.16282576
0.16301977
0.16300507
0.16251421
0.16103403
0.15945686
0.15817565
0.15682131
0.15078697
0.13839336
0.14126305
0.1443151
0.14730462
0.15013234
0.15272776
0.15502973
0.15699215
0.15859104
0.15982013
0.16069768
0.16127312
0.1616056
0.16175613
0.1617926
0.16177479
0.16174752
0.16175353
0.16182037
0.16195141
0.16214872
0.16240685
0.1626845
0.16289052
0.16287892
0.1623787
0.16088379
0.15931973
0.15807141
0.15675003
0.15073094
0.13459565
0.13750927
0.14061012
0.14370373
0.14669535
0.14950772
0.15207283
0.15433297
0.15624851
0.15779954
0.15899062
0.15985618
0.1604463
0.16081752
0.16103856
0.16116968
0.16126151
0.16136169
0.16150099
0.16168832
0.16192915
0.16221976
0.16252063
0.16274091
0.16273306
0.162222
0.16071151
0.15916405
0.15795357
0.15666603
0.15067162
0.13160588
0.1344414
0.13746537
0.14053129
0.14355772
0.14646923
0.14919492
0.1516692
0.1538393
0.15567068
0.15715202
0.15829999
0.15915143
0.15975529
0.1601756
0.1604716
0.16069811
0.16090556
0.16112868
0.16138178
0.16167363
0.16200237
0.16233036
0.16256743
0.16256408
0.16204037
0.16051367
0.15898757
0.15782066
0.15656812
0.15060947
0.12946875
0.13212662
0.1349672
0.13788812
0.1408269
0.14371757
0.14649229
0.14908287
0.15142793
0.15347991
0.15521132
0.15661987
0.15772582
0.15856651
0.15919657
0.1596718
0.16004778
0.16037631
0.16069556
0.16102488
0.16137622
0.16174956
0.16210921
0.16236595
0.16236789
0.16182941
0.16028618
0.15878786
0.15767116
0.15645674
0.15054431
0.12815752
0.13055254
0.13313172
0.13581744
0.13856796
0.14133167
0.14404905
0.14665507
0.14908553
0.15128418
0.15320976
0.15484196
0.15618284
0.15725456
0.1580985
0.15876339
0.1593019
0.15976507
0.16019322
0.16061
0.16103021
0.16145545
0.16185196
0.16213163
0.16213958
0.16158391
0.16002431
0.15856233
0.15750343
0.15633146
0.1504756
0.12753799
0.12962724
0.13190145
0.13430185
0.13679806
0.13935525
0.1419267
0.1444559
0.14688204
0.14914621
0.15119821
0.15300316
0.15454568
0.15583086
0.15688404
0.15774302
0.15845371
0.15906363
0.15961321
0.16012909
0.16062819
0.16111339
0.16155263
0.16185873
0.16187332
0.16129791
0.15972265
0.15830836
0.15731571
0.15619287
0.15040279
0.12748728
0.1292507
0.13120115
0.13329275
0.13550101
0.13780079
0.14016106
0.14253782
0.14487871
0.14712814
0.14923308
0.15114942
0.15284759
0.15431616
0.15556324
0.15661263
0.1574998
0.15826556
0.15894777
0.15957403
0.16016229
0.16071598
0.16120436
0.16154058
0.16156217
0.16096394
0.15937585
0.15802335
0.15710592
0.15604144
0.15032665
0.12788892
0.12933923
0.13096085
0.13273285
0.1346376
0.13665508
0.13876323
0.14093256
0.14312244
0.14528526
0.14737092
0.14933221
0.15113051
0.1527408
0.15415494
0.15538119
0.15644175
0.15736752
0.15819072
0.15893728
0.1596245
0.1602553
0.16079941
0.16116945
0.16119781
0.1605727
0.15898037
0.15770484
0.15687108
0.15587591
0.15024934
0.12855812
0.12974223
0.13107289
0.1325425
0.13414916
0.13588079
0.13772026
0.13964947
0.14164168
0.14366034
0.14566268
0.14760391
0.1494422
0.15114377
0.15268732
0.15406617
0.15528788
0.15637096
0.15733887
0.15821284
0.15900729
0.15972313
0.16032927
0.16073642
0.16077022
0.16011347
0.15853502
0.15735097
0.1566071
0.1556938
0.15017168
0.12937005
0.13033032
0.1314161
0.13262279
0.13395586
0.13541467
0.13699148
0.13867272
0.14044352
0.14227978
0.1441489
0.14601296
0.14783241
0.14957043
0.15119736
0.15269433
0.15405486
0.15528387
0.15639358
0.15739746
0.15830451
0.15911152
0.15978484
0.16023126
0.16026716
0.15957343
0.1580302
0.15696064
0.15630868
0.15548953
0.15009142
0.13023288
0.13100926
0.13189183
0.13288017
0.13398002
0.13519816
0.13653308
0.13797858
0.13952448
0.14115839
0.14285995
0.14460121
0.14634931
0.14806952
0.14972917
0.15130152
0.15276865
0.15412242
0.15536258
0.15649231
0.15751251
0.15841351
0.1591567
0.15964224
0.15967369
0.15893791
0.1574407
0.156534
0.15596983
0.15525345
0.15000433
0.13112893
0.13175486
0.13246932
0.13327373
0.13417494
0.13518149
0.13630202
0.13753363
0.13886939
0.14030003
0.14181569
0.1434023
0.14503663
0.14669001
0.14833154
0.14993151
0.15146464
0.15291211
0.15426157
0.15550455
0.15663161
0.15762407
0.1584355
0.15895586
0.15897183
0.15819189
0.1567834
0.15607377
0.15558796
0.15497332
0.14992181
0.13208965
0.13259149
0.13316634
0.13381636
0.13454817
0.13536862
0.13628693
0.13731417
0.13845071
0.13968972
0.14102353
0.14244223
0.14393357
0.1454797
0.14705584
0.14863417
0.15018678
0.151688
0.15311539
0.15444893
0.1556675
0.1567412
0.15761226
0.15815655
0.15814067
0.1573188
0.15607669
0.15558469
0.15516987
0.15465733
0.14979447
0.13315497
0.13355064
0.13400573
0.1345229
0.13510876
0.13577046
0.13651518
0.13735103
0.13828999
0.13933972
0.14049417
0.14174375
0.14307846
0.14448693
0.14595539
0.14746352
0.14898575
0.15049377
0.15195808
0.15334858
0.15463239
0.15576683
0.15667889
0.15722548
0.15715599
0.15630052
0.15534608
0.15507095
0.15473069
0.15431896
0.14962352
0.13439046
0.13469347
0.13504375
0.13544416
0.13590089
0.13642087
0.13701175
0.13768115
0.13843635
0.13928785
0.14024812
0.14131751
0.14248726
0.14374596
0.14507846
0.14647299
0.14791513
0.14937891
0.1508313
0.15223447
0.15354497
0.1547067
0.15562716
0.1561388
0.15598851
0.15518557
0.15462498
0.15453286
0.15429007
0.15393453
0.14954704
0.13583864
0.13606047
0.13631867
0.13661608
0.13695823
0.13735135
0.13780259
0.13831954
0.13890986
0.13958071
0.14034084
0.14120443
0.14218282
0.14326872
0.14444793
0.14570484
0.14702525
0.14839426
0.14978086
0.15114283
0.15242805
0.15356701
0.15444287
0.15486153
0.15459869
0.15409881
0.153931
0.1539706
0.15380789
0.15349099
0.14925725
0.13749899
0.13764931
0.13782606
0.1380319
0.13827162
0.13855059
0.13887518
0.13925257
0.13969064
0.14019774
0.14078219
0.14145142
0.14221556
0.14309337
0.14409169
0.14518767
0.1463598
0.14758678
0.14885078
0.15010801
0.15129976
0.15234152
0.15308087
0.15334067
0.15314481
0.15312991
0.15325157
0.1533794
0.15327916
0.15302144
0.14903169
0.13936257
0.13945002
0.13955502
0.13967987
0.13982854
0.14000536
0.1402157
0.14046583
0.14076285
0.14111475
0.14153023
0.14201826
0.1425875
0.14324634
0.14401305
0.14490613
0.1459012
0.14696663
0.14805458
0.14912562
0.15013087
0.15098836
0.15154536
0.151741
0.15197607
0.15231079
0.15256921
0.15275186
0.15271268
0.1525882
0.14887038
0.14142969
0.14146101
0.14150235
0.14155566
0.14162414
0.14171104
0.14182061
0.1419579
0.14212877
0.1423399
0.14259872
0.14291307
0.14329044
0.14373634
0.14425451
0.14486234
0.14558594
0.14639819
0.14727136
0.14814799
0.14895532
0.14962545
0.15013468
0.15059467
0.1511244
0.15156085
0.15187326
0.15209344
0.15210718
0.15205077
0.14874794
0.14357495
0.14357346
0.14357597
0.1435838
0.14359907
0.14362366
0.14366036
0.14371262
0.1437847
0.14388169
0.14400948
0.14417469
0.14438429
0.14464361
0.14495192
0.14529956
0.14568884
0.14617196
0.14677262
0.14741314
0.14806251
0.14868848
0.14930199
0.14992236
0.15043698
0.15086059
0.15118937
0.15142444
0.15148482
0.15144942
0.14856605
0.1452584
0.14525944
0.14526092
0.14526336
0.14526743
0.14527372
0.1452834
0.1452982
0.1453204
0.1453528
0.14539862
0.1454655
0.14556448
0.14570372
0.14589013
0.14612658
0.14640162
0.14667701
0.14694484
0.14728397
0.14773776
0.14824777
0.14881152
0.14938834
0.14983869
0.15022454
0.15054341
0.15077725
0.150865
0.15088663
0.14831393
0.14625924
0.14625488
0.14625053
0.14624649
0.14624336
0.14624183
0.14624296
0.14624817
0.14625936
0.1462789
0.14630975
0.1463554
0.14641926
0.14650522
0.14661817
0.14676461
0.14695272
0.14718906
0.14745335
0.14769513
0.14788307
0.14816709
0.1485766
0.14897945
0.14936159
0.1496872
0.14996662
0.15017451
0.15024551
0.15029824
0.14812649
0.14710138
0.14710132
0.14710197
0.1471036
0.14710654
0.14711112
0.1471178
0.1471271
0.14713968
0.14715625
0.1471777
0.14720503
0.14723946
0.1472823
0.1473348
0.14739822
0.14747491
0.14757061
0.14769549
0.14786956
0.1481004
0.14830866
0.14850055
0.14873331
0.14901164
0.14926129
0.14947918
0.14963084
0.14965922
0.14973631
0.14796362
0.14775791
0.14775595
0.14775406
0.1477524
0.14775116
0.14775059
0.14775104
0.14775301
0.14775718
0.14776442
0.14777584
0.1477928
0.14781739
0.14785124
0.14789413
0.1479437
0.14799588
0.14804974
0.14810753
0.14816618
0.14823952
0.14832257
0.14840562
0.14854013
0.14872079
0.14889482
0.14904586
0.14914392
0.14913934
0.14934848
0.14784587
0.14841453
0.14840949
0.1484039
0.14839779
0.14839123
0.1483843
0.14837721
0.14837028
0.14836397
0.14835896
0.14835602
0.14835585
0.14835839
0.14836335
0.14837052
0.14837884
0.14838059
0.14836914
0.14834882
0.14832271
0.14829623
0.14825264
0.14820866
0.14828517
0.14842337
0.14847685
0.14859277
0.14874269
0.14879207
0.14922328
0.14749596
0.14882499
0.14882113
0.14881602
0.14880939
0.14880093
0.14879031
0.14877722
0.14876144
0.14874288
0.14872165
0.14869808
0.14867275
0.1486464
0.14861975
0.14859343
0.14856756
0.14854393
0.14851529
0.14846696
0.14840377
0.14833051
0.1482519
0.14815249
0.14820087
0.1483353
0.14829448
0.14837425
0.14852476
0.14850661
0.14913913
0.14725874
0.14897376
0.14897017
0.14896489
0.14895752
0.14894765
0.14893487
0.14891882
0.14889918
0.1488757
0.14884825
0.14881682
0.14878154
0.14874276
0.14870114
0.14865817
0.14861762
0.14858897
0.14858798
0.14862003
0.14866428
0.14868901
0.14866084
0.14853804
0.14858706
0.14863321
0.14856605
0.14866941
0.14876631
0.14839725
0.14917925
0.14727323
0.12273287
0.12880493
0.1349224
0.14077324
0.14620821
0.15114853
0.15533988
0.15866168
0.16137279
0.16342284
0.16485516
0.16574808
0.1662019
0.16632273
0.16622292
0.16599305
0.16570567
0.16542572
0.16520344
0.16507209
0.16503903
0.16509542
0.16521689
0.16534927
0.16538688
0.16515504
0.16428213
0.16273092
0.16071369
0.15796173
0.15224355
0.13038826
0.13652777
0.14214053
0.14721299
0.15176823
0.15573653
0.15902483
0.16164259
0.16368581
0.16514948
0.16609776
0.16660778
0.16677094
0.16668493
0.16644374
0.16611722
0.1657647
0.16544491
0.16520156
0.16505702
0.16501614
0.16506608
0.16517946
0.16530243
0.1653278
0.16507236
0.16416646
0.1626029
0.16061152
0.15790188
0.1521991
0.13791011
0.14324474
0.14805428
0.15236618
0.15617117
0.15940578
0.16202423
0.1640514
0.16555043
0.16654556
0.16710805
0.16730929
0.16724035
0.16698834
0.16662869
0.16621732
0.16580673
0.16545372
0.16519166
0.16503373
0.16498545
0.16502936
0.16513534
0.16525018
0.16526479
0.16498758
0.1640499
0.16247574
0.16051079
0.15784377
0.15215501
0.14612784
0.15047417
0.15432487
0.15770671
0.16061986
0.16303083
0.1649209
0.16631635
0.16727088
0.16781335
0.16800876
0.16792735
0.16765152
0.16724882
0.1667801
0.16629068
0.16582928
0.16545111
0.16517177
0.16500211
0.16494786
0.16498679
0.16508617
0.16519365
0.16519794
0.16489947
0.16393032
0.16234772
0.16041054
0.15778793
0.15211199
0.15447465
0.15767456
0.16044
0.162822
0.1648209
0.16641868
0.16760165
0.16838632
0.16882601
0.16894507
0.16880607
0.16847198
0.16800834
0.16746749
0.16689835
0.16633731
0.16583685
0.1654378
0.16514175
0.16496233
0.16490339
0.16493829
0.16503189
0.16513283
0.16512729
0.1648081
0.16380761
0.16221845
0.16030988
0.15773438
0.15207031
0.16284844
0.1647451
0.16633557
0.16768354
0.16876243
0.16955889
0.17005567
0.17025359
0.17020949
0.1699482
0.16950513
0.16894503
0.16830963
0.16764296
0.16698146
0.16636043
0.16583169
0.16541245
0.16510154
0.16491427
0.16485188
0.16488372
0.16497248
0.16506776
0.16505303
0.16471401
0.16368262
0.16208835
0.16020821
0.15768313
0.15202964
0.17075859
0.17133894
0.17183822
0.17219274
0.17239015
0.17240938
0.17226032
0.17192334
0.17143353
0.17082409
0.17011164
0.16934468
0.16855489
0.16777366
0.16702926
0.16636596
0.16581352
0.16537414
0.16505112
0.16485788
0.16479328
0.16482309
0.16490804
0.16499856
0.16497531
0.16461749
0.16355568
0.16195764
0.16010638
0.15763415
0.1519829
0.17801473
0.17743468
0.17688217
0.17629325
0.17566329
0.17496613
0.17421242
0.17339317
0.17250519
0.17157908
0.17062336
0.16967201
0.16874335
0.16785669
0.16704954
0.16635619
0.16578006
0.16532298
0.16499054
0.1647932
0.16472764
0.16475645
0.16483871
0.16492539
0.16489432
0.16451892
0.16342716
0.16182659
0.16000484
0.15758747
0.15192445
0.18459416
0.18291589
0.18136923
0.17991865
0.17854146
0.1772116
0.17592315
0.17466157
0.17342021
0.17221308
0.17104235
0.16992623
0.16886915
0.16789868
0.16705043
0.16632942
0.1657301
0.1652592
0.16491992
0.16472031
0.16465501
0.16468388
0.16476464
0.1648484
0.16481029
0.16441858
0.16329744
0.16169542
0.1599037
0.1575429
0.15188237
0.19024886
0.18762715
0.18523507
0.18304165
0.1810164
0.17913346
0.1773765
0.17572856
0.17417955
0.17272755
0.17136716
0.170099
0.16893618
0.16791315
0.16703248
0.1662826
0.16566411
0.16518302
0.1648394
0.16463932
0.16457548
0.1646055
0.164686
0.16476781
0.16472346
0.1643167
0.16316672
0.16156439
0.15980314
0.15750064
0.15181184
0.19488594
0.19151115
0.18843698
0.18563201
0.18306752
0.18071905
0.17856686
0.17659359
0.17478353
0.173118
0.17158654
0.17019436
0.16896374
0.1679054
0.16699069
0.16621507
0.16558254
0.1650947
0.16474918
0.1645504
0.16448921
0.16452146
0.164603
0.16468381
0.16463409
0.16421363
0.16303501
0.16143374
0.15970326
0.15746039
0.15177688
0.19841116
0.1945077
0.19093735
0.18766961
0.18468526
0.18196583
0.17949288
0.17724874
0.1752117
0.17336686
0.17170807
0.17023666
0.1689632
0.16786811
0.16692175
0.16612758
0.16548581
0.16499454
0.16464951
0.16445378
0.16439636
0.16443195
0.16451585
0.16459666
0.16454246
0.16410971
0.16290293
0.16130371
0.15960417
0.15742225
0.15173651
0.2010023
0.19668206
0.19273909
0.18913111
0.18583769
0.18284159
0.18012455
0.17766788
0.17546011
0.17349531
0.17176025
0.17024163
0.16893031
0.16779628
0.16682698
0.16602075
0.16537432
0.16488286
0.1645407
0.16434971
0.16429717
0.16433719
0.16442477
0.16450658
0.16444887
0.1640053
0.16277106
0.16117453
0.15950593
0.15738604
0.15169744
0.20274266
0.19812826
0.19390957
0.19005544
0.18654605
0.18336228
0.18048447
0.17789397
0.17557819
0.17354198
0.17176268
0.17020535
0.16885526
0.16769126
0.16670742
0.16589521
0.16524853
0.16476005
0.16442307
0.16423851
0.1641919
0.16423745
0.16433002
0.16441385
0.16435362
0.16390074
0.16264002
0.16104644
0.15940859
0.15735141
0.15164836
0.20370644
0.19896864
0.19459402
0.19058512
0.18693637
0.18363319
0.18065733
0.17799014
0.17561239
0.17352464
0.1717023
0.17011123
0.16873219
0.1675534
0.16656369
0.16575155
0.16510894
0.16462654
0.16429704
0.16412053
0.16408086
0.164133
0.16423186
0.16431875
0.164257
0.16379637
0.16251046
0.16091967
0.15931221
0.15731821
0.1515915
0.20329428
0.19879438
0.19454698
0.19058579
0.18693684
0.18361065
0.1806057
0.17791265
0.17551791
0.17340516
0.17155461
0.16994865
0.16856265
0.16738309
0.16639638
0.16559039
0.16495609
0.16448278
0.16416304
0.16399618
0.16396438
0.16402418
0.16413056
0.16422155
0.16415934
0.1636925
0.16238292
0.16079445
0.15921685
0.15728607
0.1514142
0.20144048
0.19733817
0.19343588
0.18975265
0.18630933
0.18312634
0.18021766
0.17758802
0.17523499
0.17314818
0.17131437
0.16972107
0.16834788
0.16718082
0.16620612
0.16541239
0.16479056
0.16432931
0.16402161
0.1638659
0.16384281
0.16391133
0.16402641
0.16412255
0.16406094
0.16358942
0.16225814
0.16067099
0.15912255
0.15725381
0.15143827
0.19885281
0.19515494
0.19163166
0.18829676
0.18515472
0.18221838
0.17950252
0.1770174
0.1747692
0.17275986
0.17098277
0.16943001
0.16808849
0.16694716
0.1659936
0.16521825
0.16461301
0.1641667
0.16387328
0.16373013
0.16371657
0.16379486
0.16391972
0.16402204
0.16396211
0.16348743
0.16213681
0.16054952
0.1590294
0.15722182
0.15136267
0.19533921
0.19219612
0.18916675
0.18627617
0.18352391
0.18092007
0.1784788
0.17621109
0.17412764
0.17224349
0.17056015
0.1690755
0.16778484
0.16668267
0.16575949
0.16500868
0.16442411
0.16399558
0.16371865
0.16358932
0.16358606
0.16367518
0.16381081
0.16392032
0.16386316
0.16338673
0.16201886
0.16043021
0.15893744
0.15718992
0.15129327
0.19091492
0.18845235
0.18603604
0.18369741
0.18142899
0.17924209
0.17715309
0.17517263
0.17331207
0.17159948
0.17004632
0.16865744
0.16743723
0.1663879
0.16550453
0.16478449
0.16422465
0.16381667
0.16355836
0.16344393
0.16345182
0.16355275
0.16370001
0.16381767
0.16376439
0.16328754
0.16190401
0.16031325
0.15884672
0.15715749
0.15122073
0.1856189
0.18394256
0.18225021
0.18056973
0.17887941
0.17719195
0.17552938
0.17390337
0.17232271
0.17082746
0.16944073
0.16817557
0.1670459
0.16606342
0.1652295
0.16454656
0.16401548
0.16363073
0.163393
0.16329443
0.16331442
0.16342797
0.16358764
0.1637144
0.16366612
0.16319021
0.1617923
0.16019885
0.15875728
0.15712422
0.15113866
0.17948663
0.17868666
0.17782872
0.1769064
0.17588344
0.17477334
0.17360674
0.17239879
0.17115551
0.16992478
0.16874165
0.16762914
0.16661102
0.16570992
0.16493535
0.16429595
0.16379762
0.16343866
0.16322317
0.16314137
0.16317446
0.16330128
0.16347404
0.16361077
0.16356868
0.163095
0.16168407
0.1600872
0.15866906
0.1570892
0.15107627
0.17244145
0.17257794
0.17268339
0.17263221
0.17238536
0.17194891
0.17136062
0.17063784
0.16979557
0.16888272
0.16794408
0.16701567
0.16613199
0.16532778
0.16462289
0.16403362
0.16357201
0.16324127
0.16304936
0.16298523
0.16303242
0.16317302
0.16335946
0.16350703
0.16347233
0.16300194
0.16157953
0.15997883
0.1585825
0.15705198
0.15104153
0.16466711
0.16541858
0.16639772
0.16729465
0.16798397
0.16841303
0.1685737
0.1684729
0.1681499
0.16764795
0.16701959
0.16632154
0.16560383
0.16491636
0.16429326
0.16376119
0.16334006
0.1630395
0.1628718
0.16282597
0.16288807
0.16304287
0.16324361
0.16340321
0.16337742
0.16291103
0.16147935
0.1598741
0.15849706
0.15701104
0.1509042
0.11986744
0.12593957
0.13185086
0.1376877
0.14326793
0.14842899
0.1529584
0.15670443
0.15976372
0.16214274
0.16387284
0.16502123
0.16568457
0.16597004
0.16598956
0.16584675
0.16562316
0.1653867
0.16519221
0.16507853
0.16505632
0.16512101
0.16525034
0.16539018
0.16543607
0.16522087
0.16437196
0.16283182
0.16079593
0.15801619
0.15228442
0.12017118
0.12627281
0.13194287
0.13741386
0.14262904
0.14752576
0.15192025
0.15566512
0.15877561
0.16125355
0.16311242
0.16440038
0.16519956
0.16560805
0.16572988
0.16566869
0.16551078
0.16532386
0.16516517
0.16507624
0.16506926
0.16514501
0.1652828
0.16542842
0.1654783
0.16527287
0.16443848
0.16290603
0.16085423
0.1580474
0.15231309
0.12067565
0.12655558
0.13187511
0.13699883
0.14190503
0.14656816
0.15083699
0.15456511
0.15772808
0.16030819
0.1623003
0.16373403
0.16467601
0.1652143
0.16544571
0.16547254
0.16538489
0.16525116
0.16513117
0.16506943
0.16508006
0.16516781
0.16531516
0.16546751
0.16552221
0.16532752
0.16450965
0.16298692
0.16091795
0.15808242
0.15234278
0.12093481
0.12662526
0.1316801
0.13651122
0.14118123
0.14564715
0.14979231
0.1534869
0.15668405
0.15934972
0.16146287
0.16303583
0.16411889
0.16478867
0.16513401
0.16525448
0.16524199
0.16516586
0.16508827
0.16505671
0.16508792
0.16518929
0.16534754
0.16550771
0.16556771
0.16538535
0.16458505
0.16307316
0.16098659
0.15811997
0.1523748
0.12117839
0.12669688
0.1315287
0.13610567
0.14054257
0.14480901
0.14881616
0.15245334
0.15565971
0.15838849
0.16060562
0.16230719
0.16352718
0.16432891
0.16479207
0.16501175
0.16507986
0.16506629
0.16503532
0.16503744
0.16509198
0.16520905
0.16537961
0.16554867
0.16561474
0.16544552
0.16466426
0.16316445
0.16105963
0.15816084
0.15241226
0.12146791
0.12681007
0.13144836
0.13579507
0.13999735
0.14405694
0.14791132
0.15146794
0.15465885
0.15742811
0.15973106
0.16154947
0.1629005
0.16383347
0.16441762
0.16474175
0.16489599
0.16495035
0.16497075
0.1650107
0.16509168
0.16522659
0.16541114
0.16559041
0.16566279
0.16550896
0.16474743
0.16326077
0.16113783
0.15820481
0.15245204
0.12176659
0.12692398
0.13138541
0.13552564
0.13950868
0.14336688
0.14706329
0.15052355
0.15367931
0.15646934
0.1588409
0.16076323
0.16223853
0.16330109
0.1640087
0.1644422
0.16468817
0.16481615
0.16489306
0.1649749
0.16508631
0.1652416
0.16544161
0.16563246
0.16571195
0.16557476
0.16483489
0.16336255
0.16122111
0.15825253
0.15249933
0.12203108
0.12699433
0.13129265
0.13525151
0.13903964
0.14271177
0.14625391
0.14961004
0.15271654
0.15551105
0.15793559
0.15994989
0.16154182
0.16273134
0.16356401
0.16411124
0.16445438
0.16466176
0.1648006
0.16492866
0.16507429
0.1652534
0.16547062
0.16567461
0.16576152
0.16564342
0.16492609
0.16346952
0.16131009
0.15830395
0.15254831
0.12222297
0.12698942
0.13113603
0.13493837
0.13855907
0.14206582
0.14546405
0.14871538
0.15176435
0.15455095
0.15701521
0.15910956
0.16081029
0.16212338
0.16308193
0.16374672
0.16419237
0.16448502
0.16469149
0.16487066
0.16505465
0.16526092
0.16549748
0.16571638
0.1658122
0.16571425
0.1650214
0.16358206
0.161405
0.15835962
0.15259288
0.12229544
0.12689861
0.13089505
0.13456021
0.1380391
0.14140352
0.14467304
0.14782502
0.15081386
0.15358455
0.15607803
0.1582423
0.16004406
0.16147681
0.16256128
0.16334684
0.16390006
0.16428388
0.16456386
0.1647994
0.16502635
0.16526325
0.16552144
0.16575731
0.16586445
0.16578731
0.16512034
0.16369999
0.16150621
0.15841984
0.15263575
0.12221746
0.12665245
0.13053159
0.13408735
0.13745174
0.1406991
0.14385915
0.14692256
0.14985412
0.15260564
0.15512117
0.15734694
0.15924263
0.16079095
0.16200077
0.16290972
0.16357526
0.16405606
0.1644156
0.16471309
0.16498761
0.1652595
0.16554202
0.16579691
0.16591873
0.16586164
0.16522296
0.16382347
0.16161407
0.15848493
0.15268026
0.12195472
0.12624118
0.13002746
0.1334971
0.1367728
0.13992866
0.14300077
0.14599044
0.14887239
0.15160606
0.15414027
0.15642154
0.15840522
0.16006516
0.16139934
0.16243372
0.16321596
0.16379943
0.16424461
0.16460988
0.16493653
0.16524815
0.16555865
0.16583457
0.16597467
0.1659366
0.16532905
0.1639525
0.16172892
0.15855522
0.1527285
0.12151049
0.12567111
0.1293727
0.13277323
0.13598262
0.13907111
0.14207761
0.1450112
0.14785518
0.15057649
0.15312969
0.15546333
0.15753063
0.15929876
0.1607561
0.16191742
0.16282028
0.16351187
0.1640488
0.16448784
0.16487181
0.16522774
0.16557012
0.16586958
0.16603136
0.16601316
0.16543849
0.16408701
0.1618512
0.15863101
0.15278231
0.12084698
0.12490164
0.12853977
0.13189375
0.13506077
0.13810643
0.14107066
0.14396804
0.14678892
0.14950707
0.152083
0.15446884
0.15661733
0.15849099
0.16007026
0.16135963
0.16238657
0.16319143
0.16382609
0.16434503
0.16479199
0.16519736
0.16557534
0.16590108
0.1660884
0.16609144
0.16555113
0.16422692
0.16198106
0.15871266
0.1528432
0.11996997
0.12392561
0.12751527
0.13084281
0.13399048
0.13701768
0.13996349
0.14284601
0.14566104
0.14838823
0.15099391
0.15343444
0.15566364
0.1576412
0.15934134
0.1607595
0.16191349
0.16283632
0.1635745
0.16417947
0.1646953
0.16515506
0.16557324
0.16592874
0.16614496
0.16617098
0.16566664
0.16437209
0.1621186
0.15880042
0.15291195
0.11888083
0.12274615
0.12629757
0.12961385
0.13276199
0.13579332
0.13874396
0.1416334
0.14446124
0.14721182
0.14985681
0.15235694
0.1546681
0.15674897
0.1585692
0.16011659
0.16140004
0.16244505
0.1632922
0.16398925
0.16457988
0.16509848
0.16556242
0.1659523
0.16620096
0.16625091
0.16578458
0.16452231
0.16226405
0.15889454
0.152988
0.11754995
0.1213446
0.12487572
0.12819965
0.13136916
0.13442706
0.13740532
0.14032332
0.14318307
0.14597244
0.14866775
0.15123411
0.15362996
0.15581445
0.15775427
0.15943106
0.16084576
0.16201652
0.16297762
0.16377257
0.1644439
0.16502639
0.16554076
0.16597018
0.16625438
0.16633024
0.16590439
0.16467737
0.16241765
0.15899532
0.15306932
0.11599911
0.1197354
0.12326014
0.1266081
0.12981767
0.13292247
0.13594922
0.13891583
0.14182564
0.14466892
0.14742581
0.15006552
0.15254976
0.15483879
0.15689777
0.15870374
0.16025079
0.1615501
0.16262952
0.16352782
0.16428566
0.16493773
0.16550757
0.16598026
0.16630209
0.16640854
0.16602528
0.16483692
0.16257962
0.15910312
0.15315324
0.11426692
0.11795461
0.12148252
0.12486605
0.12812954
0.13129697
0.13438889
0.13742055
0.1403956
0.14330587
0.14613442
0.14885415
0.1514302
0.15382462
0.15600207
0.15793641
0.15961607
0.16104583
0.16224715
0.16325369
0.16410358
0.16483096
0.16546172
0.16598118
0.16634397
0.16648532
0.16614666
0.16500052
0.16275013
0.15921831
0.15323759
0.11242242
0.11606682
0.11960055
0.12302317
0.12634627
0.12958427
0.13275105
0.13585815
0.13890855
0.14189487
0.14480227
0.14760682
0.15027683
0.15277656
0.15507103
0.15713202
0.1589435
0.16050451
0.16183033
0.16294926
0.16389628
0.16470442
0.16540062
0.16597251
0.16638014
0.16655853
0.16626781
0.16516751
0.16292925
0.15934125
0.15332102
0.11052912
0.11413444
0.11767411
0.12113511
0.1245179
0.1278279
0.13107242
0.13425876
0.13738853
0.14045469
0.14344385
0.14633472
0.14909852
0.15170167
0.15411028
0.15629493
0.1582361
0.15992788
0.16137959
0.16261412
0.16366269
0.1645566
0.16532216
0.16595183
0.16640961
0.16662665
0.16638718
0.16533686
0.163117
0.15947225
0.15340279
0.10868593
0.11224841
0.11578573
0.11927558
0.12270903
0.1260834
0.12939977
0.13266105
0.13586697
0.1390104
0.14207887
0.1450532
0.14790725
0.15060957
0.15312747
0.1554311
0.15749827
0.15931873
0.16089632
0.16224847
0.16340218
0.16438637
0.16522614
0.16591854
0.16642978
0.16668841
0.16650349
0.16550705
0.16331345
0.15961157
0.15348274
0.10695032
0.11046257
0.11398724
0.11749476
0.12096784
0.12439622
0.12777489
0.13110239
0.13437638
0.13758953
0.14073013
0.14378087
0.1467179
0.14951216
0.1521322
0.15454807
0.15673568
0.15868099
0.16038284
0.16185326
0.16311462
0.16419295
0.16511174
0.16587221
0.16643976
0.16674213
0.16661592
0.16567615
0.16351767
0.15975952
0.15356179
0.10541174
0.10885464
0.11234603
0.11585125
0.11934566
0.12281167
0.126238
0.12961846
0.1329482
0.13621942
0.13942105
0.1425375
0.14554717
0.1484232
0.15113569
0.1536549
0.15595532
0.15801977
0.15984249
0.16143024
0.16280052
0.16397589
0.16497781
0.16581039
0.16643932
0.16678946
0.16671899
0.16584239
0.16372875
0.1599159
0.15364244
0.10411702
0.10746701
0.1108998
0.1143782
0.11787184
0.12135632
0.12481381
0.12823274
0.13160491
0.13492142
0.13817155
0.14134126
0.14441122
0.14735683
0.15015001
0.15276165
0.15516531
0.15734125
0.15927959
0.16098204
0.16246104
0.1637352
0.1648233
0.16572972
0.16642801
0.16683127
0.16681293
0.16600373
0.16394547
0.16008051
0.15372926
0.10308009
0.10630852
0.10965397
0.11307902
0.11654915
0.12003366
0.12350762
0.12695292
0.13035667
0.13370775
0.13699519
0.14020625
0.14332392
0.1463262
0.14918708
0.15187874
0.15437446
0.15665247
0.15869941
0.16051216
0.16209809
0.16347148
0.16464776
0.16562993
0.16640077
0.16686313
0.16689883
0.16615899
0.16416543
0.16025294
0.15382876
0.10233797
0.10542121
0.10865034
0.11199089
0.11540744
0.1188655
0.12233429
0.1257891
0.12921123
0.13258573
0.1359
0.13914159
0.14229529
0.14534182
0.1482575
0.1510162
0.15359175
0.1559611
0.15810793
0.16002489
0.16171433
0.16318595
0.16445137
0.16551173
0.16635451
0.16688092
0.16697587
0.16630778
0.1643848
0.16043247
0.15394679
0.10187462
0.10479286
0.10788061
0.11110867
0.11444344
0.11784913
0.12129089
0.12473814
0.12816585
0.13155394
0.13488662
0.13815033
0.14133075
0.14441073
0.14736936
0.15018268
0.15282562
0.15527477
0.15751159
0.15952513
0.1613131
0.16288047
0.16423475
0.16537518
0.16628869
0.16688095
0.16704155
0.16644884
0.16459817
0.16061792
0.15408719
0.10167422
0.10441579
0.1073429
0.1104341
0.11366023
0.11698694
0.12037781
0.12379804
0.12721674
0.13060804
0.13395147
0.13723074
0.14043095
0.14353623
0.14652802
0.14938486
0.1520834
0.15460065
0.15691687
0.15901819
0.16089831
0.16255749
0.16399898
0.16521951
0.16620249
0.16686398
0.16709153
0.16657571
0.16480229
0.16080758
0.15425246
0.10170065
0.10426289
0.10702023
0.10995805
0.11305421
0.11627835
0.11959508
0.1229677
0.12636102
0.12974362
0.13308967
0.13637867
0.13959353
0.14271828
0.14573577
0.14862695
0.15137066
0.15394495
0.15632985
0.15850953
0.16047423
0.16222001
0.16374572
0.16504474
0.16609595
0.16682681
0.16712385
0.16668237
0.164992
0.16099629
0.15444497
0.10192011
0.10430345
0.10688878
0.10966508
0.11261655
0.1157193
0.11894134
0.12224644
0.12559712
0.12895765
0.13229693
0.13558942
0.13881442
0.14195432
0.14499235
0.14791095
0.1506911
0.1533126
0.15575592
0.15800431
0.16004536
0.16187145
0.16347731
0.16485299
0.16597231
0.16677331
0.16713529
0.16676707
0.16516088
0.16118421
0.15464856
0.10231053
0.10451431
0.10692807
0.10954072
0.11233983
0.1153074
0.11841743
0.12163642