/*--------------------------------*- C++ -*----------------------------------*\
| =========                 |                                                 |
| \\      /  F ield         | OpenFOAM: The Open Source CFD Toolbox           |
|  \\    /   O peration     | Version:  2406                                  |
|   \\  /    A nd           | Website:  www.openfoam.com                      |
|    \\/     M anipulation  |                                                 |
\*---------------------------------------------------------------------------*/
FoamFile
{
    version     2.0;
    format      ascii;
    arch        "LSB;label=32;scalar=64";
    class       volScalarField;
    location    "0.08";
    object      omega;
}
// * * * * * * * * * * * * * * * * * * * * * * * * * * * * * * * * * * * * * //

dimensions      [0 0 -1 0 0 0 0];

internalField   nonuniform List<scalar> 
8260
(
21853.35
18516.704
15397.291
12635.288
10261.113
8253.3141
6577.3447
5195.0953
4068.0293
3159.6977
2435.9795
1865.5453
1420.5294
1076.5836
812.8815
612.0618
459.95268
345.21726
258.94544
194.23551
145.80638
109.63614
82.706234
62.758782
48.096461
37.29467
28.508691
20.213504
16.433982
13.058348
10.620369
17953.83
15382.383
13026.856
10899.122
9010.8634
7363.7959
5950.8466
4757.8963
3765.7424
2952.5119
2295.1805
1770.6489
1357.0402
1034.389
784.99596
593.72123
447.93816
337.37196
253.83585
190.91355
143.6484
108.23458
81.795776
62.165277
47.706514
37.026205
28.290879
20.046574
16.366779
13.027242
10.616329
14603.901
12715.998
10946.938
9312.3252
7824.4364
6492.4172
5320.8598
4308.8312
3449.839
2732.9645
2144.2724
1667.9787
1287.8234
988.1002
754.24852
573.41246
434.58661
328.62647
248.12452
187.19109
141.22431
106.65633
80.767881
61.494058
47.264101
36.719405
28.039393
19.859128
16.291672
12.992264
10.612444
11731.314
10390.944
9090.507
7856.8397
6704.965
5647.7947
4695.2969
3853.4896
3123.7296
2502.875
1984.109
1557.8499
1212.9197
937.63288
720.51947
551.01977
419.80154
318.90664
241.75709
183.02984
138.50784
104.88381
79.611014
60.737023
46.763915
36.371892
27.751477
19.65012
16.207541
12.953625
10.60907
9305.7645
8377.3487
7443.2676
6533.2801
5661.4593
4841.1198
4083.9415
3399.0313
2792.0749
2264.9857
1816.1484
1440.9474
1132.5874
883.03227
683.7577
526.46228
403.50259
308.14436
234.68011
178.38981
135.47006
102.89647
78.310676
59.88399
46.198657
35.977897
27.421321
19.416869
16.112833
12.910313
10.605586
7290.1071
6658.4019
6003.0382
5348.1694
4704.7688
4084.1507
3497.1927
2953.4786
2460.4555
2022.8442
1642.463
1318.3765
1047.3436
824.4959
643.99932
499.70528
385.63127
296.28105
226.84336
173.23131
132.0812
100.67256
76.851206
58.923729
45.560165
35.530711
27.042143
19.156384
16.005869
12.86116
10.602584
5639.2324
5216.728
4767.2829
4307.6535
3845.2286
3388.3005
2945.5465
2525.3716
2135.1816
1780.7377
1465.7443
1191.6995
958.0179
762.4146
601.39349
470.77646
366.16193
283.2736
218.20307
167.51665
128.31146
98.189527
75.215904
57.843995
44.839323
35.022455
26.605983
18.86568
15.885084
12.805181
10.599987
4307.012
4029.5708
3728.308
3413.7503
3090.2697
2763.2228
2438.7136
2123.1954
1822.9472
1543.517
1289.2443
1062.9417
865.77979
697.40728
556.23096
439.7853
345.11427
269.10179
208.72617
161.21245
124.13218
95.424509
73.387209
56.631517
44.025961
34.443751
26.10355
18.541866
15.749044
12.741554
10.597886
3248.8652
3070.2698
2872.9907
2663.1248
2442.9239
2215.4493
1984.5269
1754.5718
1530.2869
1316.2725
1116.6165
934.53625
772.13703
630.33974
508.96676
406.94343
322.56666
253.77737
198.39566
154.2926
119.51734
92.355078
71.346987
55.272034
43.108747
33.783298
25.524078
18.18241
15.596587
12.669446
10.596417
2422.5122
2309.8883
2183.7003
2047.1884
1901.2903
1747.5202
1587.9964
1425.4133
1262.9158
1103.883
951.6465
809.1904
678.88632
562.31977
460.23334
372.58053
298.67006
237.35381
187.21687
146.74195
114.44562
88.960221
69.07696
53.750403
42.075037
33.027294
24.85527
17.785525
15.426955
12.587785
10.595608
1788.2395
1718.5224
1639.7016
1553.1159
1458.9799
1357.8875
1250.8439
1139.2951
1025.1133
910.51283
797.89985
689.67289
588.00592
494.65636
410.83438
337.15235
273.65906
219.93586
175.22434
138.56071
108.90286
85.22166
66.559307
52.050777
40.910705
32.158448
24.08374
17.350597
15.239728
12.495694
10.595408
1309.9387
1267.5397
1219.2645
1165.5457
1106.2571
1041.4853
971.58365
897.19871
819.29797
739.16483
658.34518
578.5454
501.49206
428.77637
361.71229
301.23478
247.85723
201.68739
162.48856
129.76922
102.88511
81.125528
63.77747
50.156855
39.599987
31.15647
23.196905
16.878684
15.034248
12.392299
10.595797
955.49575
929.99785
900.80833
867.98897
831.31765
790.66607
746.04642
697.6546
645.89231
591.39487
535.03397
477.8851
421.15858
366.10142
313.88501
265.49893
221.67223
182.83484
149.12149
120.41273
96.401958
76.664351
60.717152
48.052224
38.125193
29.99768
22.186544
16.373362
14.809722
12.277124
10.596038
696.78144
681.42966
663.80231
643.84429
621.3429
596.12287
568.0628
537.13759
503.44496
467.2285
428.9021
389.05549
348.4355
307.90109
268.35545
230.66457
195.57747
163.66362
135.27893
110.56521
89.479769
71.839251
57.367494
45.720732
36.466018
28.651282
21.047984
15.866227
14.566226
12.151479
10.595941
509.76789
500.36537
489.57528
477.32351
463.44861
447.79185
430.21728
410.62132
388.96364
365.28698
339.73704
312.58015
284.21237
255.15106
226.00662
197.43513
170.07871
144.505
121.15808
100.33113
82.164389
66.662076
53.722291
43.146785
34.598031
27.077685
19.782324
15.35598
14.30436
12.018255
10.595088
374.74633
368.81905
362.04462
354.36346
345.66599
335.83847
324.76549
312.3408
298.4818
283.1454
266.34462
248.16339
228.7707
208.43146
187.50454
166.42448
145.6684
125.71273
106.9884
89.843728
74.522304
61.156991
49.780941
40.315221
32.489497
25.229083
18.42383
14.840832
14.025834
11.879638
10.592882
276.37811
272.54655
268.19311
263.27633
257.7263
251.4688
244.42462
236.51226
227.65083
217.77253
206.83505
194.83482
181.81749
167.89111
153.23305
138.09161
122.77538
107.63141
93.015336
79.258656
66.639237
55.360772
45.548501
37.210005
30.095012
23.057613
17.045045
14.321017
13.734323
11.73939
10.586528
203.45837
200.97361
198.16618
195.0085
191.45718
187.46487
182.98032
177.94816
172.30921
166.00335
158.9744
151.1833
142.61552
133.2929
123.28234
112.70192
101.72201
90.56206
79.478103
68.742117
58.614976
49.32071
41.033623
33.810237
27.342922
20.543097
15.746729
13.751307
13.512494
11.609897
10.573734
148.40894
146.84646
145.0872
143.11269
140.89618
138.40801
135.61497
132.48022
128.96406
125.02265
120.61106
115.68199
110.19651
104.13486
97.499155
90.328193
82.700004
74.731951
66.584196
58.453493
50.552944
43.088204
36.243096
30.075506
24.113162
17.867505
14.649218
13.265311
13.094658
11.501939
10.556511
106.33071
105.41746
104.3899
103.23552
101.93779
100.47817
98.835382
96.98493
94.89904
92.54724
89.895966
86.908099
83.545176
79.767069
75.546577
70.872192
65.762188
60.270669
54.481924
48.521429
42.541391
36.702899
31.161386
25.902425
20.268998
15.501046
13.796892
12.82013
12.784461
11.440394
10.498327
74.025216
73.557546
73.030272
72.435216
71.762465
71.000707
70.136563
69.154024
68.034036
66.754133
65.288406
63.608622
61.683143
59.474855
56.946599
54.066357
50.810283
47.183244
43.225038
39.006236
34.615995
30.151783
25.675029
21.063699
16.271416
13.870175
13.133239
12.380319
12.407148
11.350094
10.474697
49.195101
49.020674
48.822503
48.595627
48.334465
48.032389
47.681075
47.269912
46.785517
46.211193
45.526433
44.706858
43.725121
42.553187
41.154157
39.494641
37.545184
35.282895
32.694125
29.803038
26.649492
23.259761
19.64777
16.070101
13.824836
12.935502
12.538135
11.960906
12.036359
11.283058
10.467092
30.067708
30.061877
30.055853
30.047385
30.03387
30.011799
29.976097
29.919512
29.832101
29.70059
29.507645
29.231173
28.844181
28.317232
27.624284
26.730603
25.622267
24.261089
22.644566
20.773856
18.700248
16.672318
14.847316
13.312414
12.532093
12.215764
11.964839
11.537857
11.642828
11.21963
10.464362
18.122812
18.131222
18.144235
18.161263
18.181594
18.204475
18.228638
18.251775
18.270086
18.277604
18.265581
18.221315
18.129327
17.969854
17.717542
17.359237
16.891609
16.289509
15.587286
14.733304
13.89385
13.124654
12.49392
12.003214
11.81606
11.583789
11.422904
11.113256
11.224149
11.0275
10.457578
12.937588
12.919335
12.901971
12.887212
12.87565
12.868717
12.867407
12.871946
12.881679
12.894633
12.907232
12.911775
12.904377
12.879423
12.834818
12.756228
12.62122
12.440038
12.226424
11.970929
11.752027
11.538245
11.392833
11.32309
11.126721
11.024609
10.949307
10.733216
10.822269
10.812502
10.39574
11.288703
11.254376
11.220773
11.189735
11.163245
11.1418
11.125764
11.115346
11.110372
11.110249
11.113731
11.118625
11.122253
11.121766
11.114429
11.095445
11.059516
11.009974
10.936545
10.880167
10.842909
10.820472
10.790546
10.754781
10.677
10.628364
10.589148
10.462474
10.547145
10.56483
10.303578
10.676683
10.650549
10.625279
10.601441
10.579718
10.56074
10.545038
10.533011
10.524874
10.520602
10.519904
10.522151
10.526447
10.531195
10.53396
10.531669
10.521245
10.501481
10.477627
10.456722
10.434472
10.438493
10.445203
10.446025
10.417386
10.395162
10.380008
10.30629
10.348404
10.393497
10.219263
10.35958
10.344062
10.329194
10.315126
10.302231
10.290857
10.281337
10.273997
10.269104
10.266847
10.267286
10.270235
10.275159
10.28092
10.28596
10.288636
10.287133
10.280376
10.270494
10.262246
10.256446
10.248403
10.262517
10.275787
10.268902
10.262734
10.25245
10.183901
10.170239
10.313314
10.205657
10.190312
10.183358
10.176657
10.170368
10.164654
10.159661
10.155528
10.152399
10.150418
10.149696
10.150212
10.151732
10.153687
10.15545
10.156628
10.157138
10.156969
10.157004
10.162396
10.173733
10.176159
10.163636
10.157759
10.172582
10.155485
10.144476
10.129663
10.083706
10.082172
10.136013
10.248775
10.089577
10.087932
10.086167
10.084528
10.08304
10.081716
10.080569
10.079615
10.078887
10.078421
10.078173
10.077623
10.076203
10.07498
10.074625
10.07552
10.078418
10.08557
10.100546
10.122224
10.135951
10.119817
10.114015
10.112945
10.096519
10.068404
10.055968
10.041755
10.04846
10.094186
10.301182
10.029305
10.029727
10.030075
10.030447
10.030766
10.030917
10.030746
10.030067
10.028697
10.02653
10.023693
10.02095
10.019314
10.018341
10.017836
10.017755
10.018272
10.020006
10.024233
10.031513
10.043357
10.057164
10.041289
10.051075
10.040609
10.031262
10.031063
10.029853
10.015415
10.095102
10.016031
95283.232
78420.786
63074.436
49930.665
39046.366
30157.369
23010.985
17347.578
12921.445
9510.9043
6926.2149
4996.6455
3575.4575
2541.4085
1797.2187
1266.638
891.25476
627.19979
442.13947
312.66758
222.09901
158.67846
114.21071
83.004576
61.113518
45.847191
34.939451
25.54014
18.892672
14.385579
11.114655
79137.405
64160.255
51707.718
41363.54
32763.765
25628.217
19786.083
15078.911
11344.903
8432.3052
6198.8713
4512.6291
3257.3641
2334.8546
1664.5977
1182.3707
838.21916
594.09765
421.62243
300.02155
214.34164
153.94179
111.3329
81.266755
60.073984
45.227294
34.538332
25.239904
18.730398
14.301654
11.082584
72168.132
58575.822
47034.153
37367.901
29383.921
22875.271
17633.169
13452.962
10154.372
7584.4902
5608.9485
4110.2103
2987.5982
2156.7828
1548.6469
1107.7895
790.76055
564.17773
402.89873
288.37797
207.13987
149.51004
108.62033
79.617154
59.08042
44.628667
34.145787
24.941649
18.571118
14.218527
11.048194
64910.355
52405.237
42000.451
33380.351
26287.449
20505.884
15840.929
12115.958
9175.3584
6881.9622
5114.6435
3768.8913
2755.9838
2002.0881
1446.8105
1041.6155
748.25079
537.13168
385.82501
277.67323
200.46774
145.37418
106.07106
78.056394
58.13374
44.053708
33.763806
24.648243
18.417264
14.137699
11.01276
59032.138
47523.591
37998.816
30155.221
23740.832
18533.607
14339.61
10993.388
8351.3123
6287.9573
4694.0314
3476.1539
2555.5736
1867.0203
1357.0935
982.80615
710.15393
512.68469
370.26834
267.84475
194.2971
141.52239
103.68065
76.58315
57.23382
43.502547
33.392699
24.360372
18.269365
14.059827
10.977217
54184.744
43383.964
34579.664
27405.91
21576.415
16858.297
13064.624
10039.735
7650.0028
5780.7024
4333.0972
3223.3771
2381.3168
1748.7049
1277.9014
930.5027
676.00366
490.59957
356.10986
258.83513
188.60145
137.9432
101.44457
75.195889
56.380402
42.975233
33.032731
24.078567
18.12755
13.984986
10.942169
49907.509
39812.24
31664.644
25071.18
19737.727
15432.893
11978.415
9225.8498
7050.0244
5345.2035
4021.8009
3004.2323
2229.3542
1644.8641
1207.942
883.97979
645.39898
470.66801
343.24301
250.59186
183.3559
134.62547
99.35825
73.892952
55.573099
42.471766
32.684168
23.80333
17.991877
13.913064
10.908182
46307.942
36796.703
29192.782
23086.008
18170.569
14217.255
11051.095
8529.4178
6535.0828
4970.1168
3752.5959
2813.8345
2096.6315
1553.666
1146.1462
842.60836
618.00005
452.70691
331.57241
243.06694
178.53725
131.55855
97.417157
72.672598
54.811422
41.992095
32.347229
23.535098
17.8624
13.843878
10.871751
43182.331
34194.812
27073.969
21389.304
16832.374
13179.032
10257.869
7932.5143
6092.4857
4646.6487
3519.5441
2648.2896
1980.6986
1473.6192
1091.5926
805.85346
593.51182
436.55507
321.01275
236.2167
174.12393
128.73232
95.616848
71.533039
54.094802
41.536128
32.022101
23.274249
17.739062
13.77716
10.845406
40470.248
31957.688
25259.474
19938.533
15689.211
12291.782
9579.2055
7420.8247
5712.0575
4367.7256
3317.8485
2504.4631
1879.5768
1403.4665
1043.4968
773.26862
571.67839
422.07075
311.48783
230.00149
170.09601
126.13719
93.953017
70.472474
53.422609
41.103748
31.708927
23.021103
17.621717
13.71301
10.817509
38119.621
30032.08
23703.408
18697.148
14712.594
11533.946
8999.072
6982.6683
5385.4849
4127.575
3143.6403
2379.8236
1791.6064
1342.1112
1001.2113
744.46983
552.27781
409.12949
302.92983
224.38546
166.43517
123.76421
92.421524
69.489112
52.794174
40.694917
31.407787
22.775927
17.510167
13.651094
10.797236
36074.963
28371.065
22368.157
17635.8
13879.363
10887.859
8504.3083
6608.5076
5106.0876
3921.617
2993.8292
2272.249
1715.3188
1288.6364
964.18572
719.12781
535.11808
397.62224
295.27853
219.33634
163.12467
121.60501
91.018433
68.581198
52.208798
40.309529
31.118725
22.538944
17.404174
13.5916
10.778752
34301.596
26941.689
21226.057
16732.097
13171.839
10339.989
8084.819
6291.0293
4868.7148
3746.2544
2865.8163
2179.9458
1649.5
1242.3024
931.95517
696.96154
520.03354
387.45389
288.48079
214.82526
160.14928
119.65186
89.740027
67.747027
51.66577
39.947431
30.841809
22.310338
17.303492
13.534299
10.761181
32784.238
25728.31
20262.721
15973.152
12579.053
9881.4143
7733.6242
6024.8483
4669.1303
3598.3611
2757.3565
2101.3406
1593.1952
1202.4843
904.1286
677.73232
506.88206
378.54196
282.49001
210.82657
157.4953
117.89768
88.582831
66.984964
51.164376
39.608432
30.577116
22.090257
17.207876
13.479041
10.744521
31555.85
24741.264
19475.807
15351.682
12092.943
9504.7119
7444.4057
5804.8728
4503.4347
3474.8897
2666.4261
2035.1184
1545.5835
1168.6604
880.37916
661.23893
495.5427
370.81555
277.26565
207.31768
155.15047
116.336
87.54362
66.293454
50.703909
39.292315
30.324743
21.878818
17.117092
13.425966
10.728807
30437.617
23876.94
18805.427
14831.98
11691.079
9195.1934
7207.3921
5624.679
4367.5557
3373.2791
2591.357
1980.2853
1505.9963
1140.4043
860.43703
647.31393
485.91385
364.21447
272.77292
204.2789
153.10395
114.96101
86.619426
65.671031
50.28368
38.998842
30.084812
21.676072
17.030932
13.375284
10.707574
29272.066
23034.033
18187.44
14374.04
11348.9
8938.0964
7013.7533
5478.9386
4258.2482
3291.7556
2531.0083
1936.0485
1473.908
1117.3745
844.08409
635.82066
477.91172
358.68851
268.98241
201.69332
151.34628
113.76753
85.807538
65.116326
49.90302
38.727762
29.857548
21.481925
16.949186
13.326302
10.69311
28311.953
22333.646
17674.652
13997.873
11072.118
8733.5908
6861.9693
5365.9064
4173.9807
3229.0383
2484.5068
1901.8109
1448.9186
1099.3073
831.14993
626.65112
471.46919
354.19688
265.86985
199.54672
149.86935
112.751
85.1055
64.628069
49.56129
38.478875
29.643281
21.296191
16.871659
13.27976
10.681048
27451.979
21740.204
17257.594
13701.612
10860.083
8580.6766
6750.7701
5284.3414
4113.6942
3184.2802
2451.2347
1877.146
1430.7398
1086.0111
821.50894
619.72428
466.53495
350.70775
263.41589
197.82744
148.66635
111.90751
84.51111
64.205091
49.257882
38.252092
29.442363
21.118627
16.798153
13.236348
10.669336
26690.913
21240.232
16925.713
13479.316
10709.772
8477.7592
6679.1669
5233.5222
4076.814
3157.0341
2430.8527
1861.8064
1419.1967
1077.3648
815.0786
614.98501
463.07276
348.19782
261.60594
196.52634
147.73177
111.23373
84.022422
63.846318
48.992221
38.047342
29.255091
20.948952
16.728433
13.196411
10.658538
26010.607
20821.851
16670.776
13325.82
10618.387
8423.4379
6646.5
5213.151
4063.1532
3147.1596
2423.2456
1855.701
1414.2185
1073.3142
811.81862
612.40382
461.06154
346.65247
260.4301
195.63684
147.06122
110.72695
83.637729
63.550768
48.76376
37.864578
29.081738
20.786867
16.662235
13.160239
10.648559
25396.627
20474.453
16486.272
13237.411
10584.106
8416.9957
6651.7993
5222.0279
4071.6485
3153.8864
2427.9303
1858.5653
1415.6835
1073.8215
811.72826
611.97684
460.49523
346.0655
259.88298
195.15483
146.65157
110.38502
83.355559
63.317543
48.571981
37.703779
28.92262
20.632075
16.599239
13.128051
10.639689
24822.332
20182.788
16364.53
13210.796
10602.973
8452.8133
6691.131
5258.1879
4102.5775
3178.3142
2445.9857
1871.1656
1424.0301
1079.0668
814.8556
613.72147
461.37068
346.42278
259.95923
195.07842
146.5009
110.20631
83.17465
63.145814
48.416384
37.564909
28.778082
20.484349
16.539179
13.099833
10.63218
24233.422
19916.31
16288.747
13233.78
10668.081
8530.2298
6765.3476
5322.2774
4153.858
3217.5111
2474.8198
1891.6188
1438.0497
1088.3738
820.83625
617.44091
463.59853
347.69463
260.63417
195.39182
146.60292
110.18927
83.093782
63.03475
48.296458
37.447868
28.648529
20.343553
16.48168
13.075139
10.623698
91754.953
76076.207
61886.857
49519.505
39096.914
30563.399
23546.837
17889.926
13404.974
9906.0927
7232.0608
5223.6133
3738.1372
2654.6149
1874.031
1317.6553
924.52856
648.5774
455.70859
321.1799
227.39938
161.96174
116.23542
84.247611
61.87131
46.309171
35.244924
25.779096
19.029944
14.46135
11.137141
85774.316
71492.329
59055.5
47948.988
38297.192
30108.89
23319.109
17802.82
13398.741
9947.979
7290.6833
5281.5406
3787.6898
2693.6134
1903.0368
1338.3544
938.83262
658.2148
462.07248
325.31783
230.05908
163.65639
117.30794
84.922851
62.293925
46.572729
35.423777
25.932346
19.122439
14.515029
11.156691
80094.991
67270.898
56095.312
46021.305
37121.263
29447.666
22988.562
17672.211
13381.275
9984.238
7347.3678
5339.7415
3838.5511
2734.2087
1933.5342
1360.2762
954.06325
668.51712
468.89487
329.76268
232.91849
165.47924
118.46169
85.649062
62.748204
46.856055
35.615311
26.097037
19.225022
14.574751
11.175897
74792.641
63345.894
53293.11
44144.466
35944.431
28765.723
22634.948
17523.006
13350.197
10013.663
7401.3561
5397.7677
3890.5013
2776.326
1965.5258
1383.4566
970.26387
679.52329
476.20604
334.53653
235.99283
167.44027
119.70308
86.430274
63.236627
47.160795
35.820427
26.273974
19.339607
14.641256
11.193794
69837.16
59669.768
50623.479
42312.893
34765.471
28062.574
22257.289
17353.913
13305.369
10035.126
7451.8463
5455.1083
3943.2737
2819.8605
1998.9979
1407.9245
987.47631
691.27288
484.0379
339.6623
239.29824
169.55025
121.03904
87.270861
63.761904
47.488837
36.040204
26.464364
19.462572
14.71476
11.211121
65210.123
56205.043
48067.529
40520.676
33583.039
27337.787
21854.739
17163.724
13245.487
10047.329
7497.9538
5511.2426
3996.5918
2864.6976
2033.9257
1433.6956
1005.7281
703.79176
492.41011
345.15307
242.84348
171.81425
122.47231
88.172259
64.325142
47.837774
36.272508
26.664197
19.58963
14.797007
11.22785
60879.15
52915.903
45607.216
38761.433
32395.516
26590.786
21426.45
16951.256
13169.236
10048.461
7538.8062
5565.6609
4050.1564
2910.6992
2070.2707
1460.7816
1025.0498
717.11263
501.35031
351.02989
246.64385
174.24186
124.00895
89.138178
64.928875
48.208025
36.516918
26.871209
19.72804
14.888419
11.249303
56823.129
49786.187
43233.839
37033.695
31204.05
25822.584
20972.535
16715.962
13076.121
10041.034
7573.7539
5617.5767
4103.4807
2957.6124
2107.9367
1489.1768
1045.4771
731.28356
510.90396
357.32945
250.72646
176.85224
125.66215
90.177325
65.578278
48.606183
36.777863
27.091507
19.878959
14.990519
11.272874
53012.766
46800.102
40937.277
35333.331
30007.563
25032.722
20492.162
16456.589
12964.514
10020.754
7601.5298
5666.2417
4156.0945
3005.1874
2146.8211
1518.8633
1067.032
746.33916
521.10458
364.07883
255.11047
179.65891
127.44086
91.295406
66.276965
49.034562
37.056444
27.325889
20.043628
15.10515
11.298034
49423.182
43944.362
38710.955
33658.695
28806.596
24221.803
19985.289
16172.387
12832.98
9985.3883
7620.8761
5710.8324
4207.4698
3053.1293
2186.7915
1549.8063
1089.7286
762.31128
531.98553
371.30602
259.81677
182.67626
129.35472
92.498567
67.028783
49.495856
37.35385
27.575168
20.223464
15.23422
11.325791
46036.22
41211.916
36552.645
32010.08
27602.608
23391.116
19452.353
15862.906
12680.596
9935.0992
7630.4624
5750.4696
4257.0254
3101.0969
2227.6842
1581.9522
1113.5709
779.22798
543.57957
379.03971
264.86741
185.92053
131.41403
93.793428
67.837803
49.992504
37.671413
27.84019
20.420028
15.37951
11.357184
42842.737
38601.54
34462.787
30389.511
26398.183
22542.777
18894.374
15528.104
12506.66
9868.7884
7629.1379
5784.2938
4304.1396
3148.7037
2269.3
1615.2258
1138.5516
797.11245
555.91821
387.30905
270.28528
189.40866
133.62973
95.187107
68.708354
50.527312
38.010598
28.121803
20.635004
15.542382
11.392997
39835.406
36112.189
32443.274
28800.357
25196.994
21679.767
18313.059
15168.488
12310.935
9786.1846
7619.1018
5811.702
4348.1737
3195.5273
2311.4046
1649.5264
1164.6499
815.98177
569.03109
396.14327
276.09408
193.15723
136.01343
96.687263
69.645073
51.10336
38.373019
28.420862
20.870138
15.723464
11.433641
37008.407
33742.812
30496.439
27246.613
24003.402
20805.802
17710.863
14785.155
12093.429
9686.1913
7595.4894
5831.5888
4388.4335
3241.1046
2353.732
1684.7295
1191.8301
835.84567
582.94523
405.57141
282.31826
197.18418
138.57744
98.302139
70.652944
51.723888
38.76041
28.738224
21.127162
15.922424
11.47924
34356
31494.956
28626.864
25733.927
22822.964
19925.564
17091.072
14379.866
11854.605
9568.3152
7558.2172
5842.9575
4424.1959
3284.9398
2395.9828
1720.6861
1220.04
856.70526
597.68416
415.62184
288.98291
201.50883
141.33604
100.04061
71.737306
52.392253
39.17463
29.074734
21.407695
16.13791
11.529962
31871.519
29368.208
26838.207
24267.998
21661.814
19044.509
16457.778
13955.113
11595.53
9432.6614
7507.3303
5844.2696
4454.7291
3326.5207
2437.8279
1757.2215
1249.2108
878.55178
613.26705
426.3218
296.11345
206.15125
144.30447
101.9121
72.904025
53.111819
39.617658
29.431203
21.713059
16.367748
11.586254
29553.617
27365.235
25135.714
22855.473
20526.875
18168.883
15815.88
13514.163
11317.975
9279.9771
7443.2835
5838.3722
4479.7578
3365.3689
2478.9181
1794.1357
1279.2551
901.36522
629.70769
437.6968
303.7354
211.13207
147.49703
103.92667
74.160028
53.885828
40.091577
29.808377
22.044057
16.609403
11.648847
27398.831
25487.155
23523.852
21502.809
19425.299
17305.443
15170.949
13061.013
11024.377
9111.3929
7366.0019
5822.3604
4498.6419
3400.9997
2518.897
1831.2062
1310.063
925.11294
647.01349
449.76997
311.87399
216.47265
150.92892
106.09506
75.512649
54.718093
40.598539
30.206873
22.400718
16.86071
11.719139
25407.477
23737.001
22007.908
20216.838
18364.547
16461.335
14529.046
12600.26
10717.746
8928.3892
7275.5768
5795.2046
4510.7304
3432.9284
2557.3948
1868.195
1341.5093
949.74907
665.1845
462.5614
320.55393
222.19491
154.61701
108.42859
76.969671
55.61357
41.140414
30.627062
22.782008
17.120748
11.799195
23578.931
22116.797
20592.102
19003.477
17351.477
15643.502
13896.445
12136.89
10401.526
8732.9771
7172.9866
5758.1872
4515.4237
3460.7024
2594.0447
1904.8486
1373.4512
975.21405
684.21244
476.08736
329.79886
228.32117
158.57916
110.94114
78.53916
56.577609
41.720377
31.069005
23.185592
17.390553
11.892091
21912.936
20628.753
19280.444
17868.129
16392.399
14858.529
13279.3
11675.989
10079.443
8527.5374
7059.5062
5711.7408
4513.3692
3484.0655
2628.5098
1940.9023
1405.7299
1001.4357
704.07988
490.35945
339.63093
234.87376
162.83346
113.64639
80.229607
57.616006
42.342112
31.532489
23.607712
17.673247
12.001987
20402.457
19269.985
18073.156
16813.368
15491.538
14111.529
12682.868
11222.288
9755.2392
8314.7013
6936.7913
5656.8695
4505.553
3502.9813
2660.505
1976.0924
1438.1698
1028.3254
724.75889
505.38367
350.07009
241.87476
167.39855
116.5569
82.050066
58.734851
43.009377
32.017089
24.043222
17.973126
12.131298
19036.763
18034.637
16968.109
15839.843
14651.495
13406.294
12111.433
10779.919
9432.3884
8097.0041
6806.2968
5593.6866
4489.5965
3516.9633
2689.7181
2010.1555
1470.5814
1055.776
746.20947
521.15936
361.1335
249.34566
172.29361
119.68718
84.009766
59.940366
43.725805
32.522379
24.485996
18.293774
12.277097
17796.188
16909.076
15956.908
14943.431
13871.391
12744.157
11567.597
10351.938
9113.7616
7876.7182
6669.5311
5523.1156
4467.1341
3525.953
2715.8754
2042.8195
1502.7628
1083.6673
768.37892
537.67808
372.8347
257.30701
177.53827
123.05308
86.120686
61.238904
44.496996
33.048258
24.929754
18.636054
12.434683
16657.429
15874.741
15025.96
14115.287
13146.469
12123.517
11051.88
9940.0255
8801.3929
7655.6713
6527.8169
5445.903
4438.2261
3529.5508
2738.666
2073.8
1534.4956
1111.8618
791.20032
554.92236
385.18271
265.77781
183.15219
126.67074
88.396141
62.63732
45.328781
33.594736
25.369152
18.997523
12.599562
15599.937
14914.017
14161.197
13345.224
12470.307
11541.16
10563.445
9544.8225
8496.5971
7435.2468
6382.2499
5362.7235
4403.1721
3528.181
2757.8987
2102.8171
1565.5394
1140.2035
814.59416
572.86462
398.18091
274.77484
189.1546
130.55628
90.847513
64.144115
46.225516
34.160187
25.801213
19.375197
12.768831
14608.554
14011.894
13348.651
12621.365
11833.905
10991.203
10099.208
9165.3389
8199.6538
7216.2744
6233.7344
5274.3459
4362.6428
3522.6896
2773.5781
2129.6241
1595.6445
1168.5126
838.45995
591.46468
411.82573
284.31188
195.56406
134.72663
93.486869
65.767361
47.192324
34.748605
26.227265
19.771183
12.945998
13672.599
13157.567
12577.719
11933.944
11229.056
10467.544
9655.3133
8799.6976
7910.095
6999.0428
6082.7515
5180.9985
4316.1462
3510.8963
2785.1055
2153.8748
1624.5366
1196.5858
862.67316
610.66699
426.10493
294.39869
202.39799
139.1991
96.327835
67.516163
48.235574
35.370156
26.654604
20.196701
13.137929
12787.69
12345.687
11842.127
11276.212
10649.253
9964.6565
9227.7352
8445.504
7626.9058
6783.4337
5929.5751
5082.986
4263.9693
3493.8248
2792.3277
2175.2504
1651.9143
1224.1965
887.09093
630.39952
440.9961
305.03997
209.67191
143.99089
99.385382
69.402381
49.36339
36.038861
27.095932
20.671677
13.379682
11953.557
11575.46
11140.151
10645.423
10091.034
9478.9479
8813.3709
8100.5788
7348.93
6569.102
5774.3023
4980.4871
4206.1212
3471.0327
2794.3765
2193.2595
1677.4284
1251.0937
911.54849
650.57198
456.46522
316.23414
217.3987
149.11839
102.67355
71.438786
50.583886
36.755232
27.567733
21.218801
13.658582
11171.586
10848.367
10472.909
10041.961
9553.9204
9009.2722
8410.825
7763.7297
7075.4763
6355.9064
5617.188
4873.9333
4143.072
3443.0927
2792.5145
2207.9303
1700.8217
1277.0135
935.86615
671.08591
472.46788
327.97281
225.58819
154.59725
106.20714
73.636099
51.903552
37.52411
28.08843
21.855654
14.075044
10442.721
10165.896
9842.091
9467.335
9038.9431
8556.0654
8020.0781
7434.7752
6806.4965
6144.0921
5458.7509
4763.9656
4075.3894
3410.2956
2786.4251
2219.1279
1721.8669
1301.7167
959.85153
691.82038
488.94682
340.23984
234.24629
160.44194
110.00165
76.008341
53.333961
38.362099
28.675396
22.584376
14.65149
9765.7318
9527.9423
9248.3195
8922.5547
8547.1624
8120.1977
7641.7078
7114.0899
6542.3437
5934.1369
5299.6096
4651.2117
4003.4654
3372.4729
2774.9288
2226.4537
1740.3153
1324.981
983.31544
712.64324
505.83282
353.01093
243.37442
166.66505
114.07258
78.569966
54.888629
39.284458
29.341366
23.375608
15.391665
9136.7534
8931.9148
8690.0692
8406.8647
8078.3392
7701.6807
7275.8022
6801.7669
6283.176
5726.3667
5140.3024
4536.3665
3928.0468
3330.4277
2759.3487
2230.1104
1756.1015
1346.6456
1006.0956
733.42839
523.04847
366.254
252.96901
173.27681
118.43473
81.33528
56.579752
40.29968
30.090632
24.183526
16.240363
8550.5827
8373.6958
8164.2682
7918.0232
7630.8477
7299.3465
6921.4872
6497.1381
6028.5174
5520.541
4980.8682
4419.7237
3849.5606
3284.5229
2739.6611
2229.8116
1769.0452
1366.5501
1028.0364
754.05685
540.51974
379.9324
263.02163
180.28459
123.1015
84.317935
58.419147
41.417105
30.920457
24.988316
17.216734
8002.5683
7849.388
7667.7417
7453.5334
7202.6558
6911.46
6577.2172
6198.7639
5777.0636
5315.5911
4820.5781
4300.9563
3768.0789
3235.1936
2716.7014
2227.1841
1779.555
1384.6938
1049.0294
774.41895
558.17021
394.00481
273.51894
187.69229
128.08438
87.530401
60.416436
42.644747
31.819151
25.786156
18.300839
7490.0229
7356.8477
7198.8548
7012.2181
6792.9757
6537.3957
6242.3868
5905.9972
5528.0299
5110.637
4658.5984
4179.4242
3683.2232
3182.239
2690.1168
2220.9026
1787.4243
1401.0051
1068.9839
794.40791
575.91164
408.42199
284.4421
195.50015
133.39273
90.984077
62.580449
43.987191
32.759573
26.567932
19.351685
7011.5695
6895.1924
6757.2043
6594.1033
6402.1705
6177.7403
5917.5401
5619.1373
5281.4598
4905.4137
4494.3976
4054.4629
3594.3418
3125.1084
2659.5117
2211.0082
1792.5292
1415.372
1087.7783
813.91148
593.6573
423.12905
295.76679
203.70471
139.03396
94.689624
64.919857
45.443009
33.727045
27.308157
20.314119
6565.7871
6463.5326
6342.4388
6199.3508
6030.8466
5833.4347
5603.8216
5339.2911
5038.1626
4700.3865
4328.066
3925.8314
3500.964
3063.2294
2624.3326
2197.0374
1794.0287
1427.3549
1105.1702
832.7755
611.30018
438.05788
307.46114
212.29859
145.01369
98.657278
67.444503
47.014656
34.718837
27.990509
21.214592
6151.552
6061.2415
5954.4652
5828.4113
5679.9727
5505.8937
5302.9738
5068.3754
4800.0311
4497.1309
4160.7295
3794.176
3403.3318
2996.5898
2584.5053
2179.0598
1792.6396
1436.9268
1120.9661
850.81505
628.71864
453.14127
319.49032
221.27152
151.33617
102.89717
70.167237
48.716625
35.749301