/*--------------------------------*- C++ -*----------------------------------*\
| =========                 |                                                 |
| \\      /  F ield         | OpenFOAM: The Open Source CFD Toolbox           |
|  \\    /   O peration     | Version:  2406                                  |
|   \\  /    A nd           | Website:  www.openfoam.com                      |
|    \\/     M anipulation  |                                                 |
\*---------------------------------------------------------------------------*/
FoamFile
{
    version     2.0;
    format      ascii;
    arch        "LSB;label=32;scalar=64";
    class       volScalarField;
    location    "0.07";
    object      T;
}
// * * * * * * * * * * * * * * * * * * * * * * * * * * * * * * * * * * * * * //

dimensions      [0 0 0 1 0 0 0];

internalField   nonuniform List<scalar> 
2065
(
293.41907
293.39828
293.38131
293.36897
293.36045
293.35543
293.3541
293.35582
293.35896
293.36296
293.36772
293.37495
293.38651
293.40578
293.43611
293.47944
293.52727
293.57588
293.62048
293.65936
293.69317
293.72375
293.75141
293.77776
293.80472
293.83198
293.85771
293.89624
293.93358
293.96083
293.96092
293.92999
293.892
293.84971
293.81799
293.81113
293.83115
293.83945
293.8087
293.75495
293.70226
293.66188
293.62492
293.58117
293.53133
293.48143
293.43507
293.39219
293.35877
293.32862
293.30776
293.28284
293.26497
293.23814
293.23225
293.20931
293.21289
293.18528
293.55099
293.52015
293.49493
293.47507
293.45947
293.44708
293.43792
293.43161
293.42703
293.42379
293.42235
293.42474
293.4326
293.45017
293.47961
293.52207
293.56951
293.61343
293.65285
293.68596
293.71391
293.73876
293.7611
293.78312
293.8062
293.83055
293.85322
293.8893
293.92291
293.94643
293.94423
293.91286
293.87352
293.83147
293.79856
293.78813
293.80229
293.80681
293.7774
293.7276
293.67692
293.63621
293.59886
293.55696
293.51019
293.46307
293.4188
293.37785
293.34628
293.31792
293.29891
293.27561
293.25921
293.23395
293.22901
293.2074
293.21134
293.18467
293.65332
293.62065
293.59058
293.56417
293.54201
293.52354
293.50801
293.49519
293.48481
293.47638
293.46978
293.46566
293.46607
293.47245
293.48933
293.51896
293.56026
293.60615
293.64698
293.6804
293.70772
293.72985
293.74926
293.7668
293.78511
293.80475
293.82616
293.84538
293.87864
293.90832
293.92877
293.92484
293.89362
293.8538
293.81198
293.77761
293.76328
293.77149
293.77283
293.74555
293.70024
293.65195
293.61138
293.574
293.53397
293.49016
293.44571
293.40344
293.36432
293.33448
293.30779
293.29052
293.26876
293.25376
293.23003
293.22599
293.20567
293.20995
293.18419
293.654
293.63788
293.62052
293.60251
293.58512
293.56931
293.55501
293.5423
293.53124
293.52179
293.51374
293.50723
293.50297
293.50279
293.50845
293.52446
293.55326
293.59302
293.63611
293.67369
293.70248
293.72376
293.74058
293.75529
293.76882
293.78408
293.8006
293.81861
293.83433
293.86407
293.88994
293.90786
293.90295
293.87248
293.83322
293.79144
293.75539
293.73713
293.73952
293.7382
293.71369
293.67321
293.62766
293.58764
293.55049
293.51225
293.47125
293.42934
293.38898
293.35156
293.32334
293.2982
293.28256
293.26227
293.24861
293.22638
293.22318
293.20408
293.20868
293.18381
293.63694
293.6291
293.62003
293.60992
293.59924
293.5887
293.57881
293.56976
293.56159
293.55425
293.54766
293.54204
293.53809
293.53735
293.54184
293.55575
293.58218
293.61911
293.65867
293.69237
293.71719
293.73357
293.74593
293.75715
293.76765
293.78047
293.79416
293.80778
293.82019
293.84558
293.86786
293.88383
293.87876
293.84967
293.81178
293.7701
293.73246
293.71038
293.70726
293.70367
293.68232
293.64682
293.60431
293.56518
293.52844
293.49187
293.45348
293.41395
293.3754
293.33958
293.31283
293.28913
293.27502
293.25611
293.24373
293.22295
293.22056
293.20263
293.20753
293.1835
293.63524
293.63174
293.62742
293.6223
293.61651
293.61031
293.60403
293.59796
293.59226
293.58699
293.58192
293.5771
293.57276
293.56935
293.56809
293.57095
293.58191
293.60484
293.63781
293.67319
293.70313
293.7241
293.73725
293.74647
293.75564
293.76406
293.77482
293.78594
293.79377
293.80311
293.82341
293.84229
293.85693
293.85252
293.8255
293.78944
293.74836
293.70943
293.68379
293.67559
293.66996
293.6519
293.62136
293.58211
293.54413
293.50792
293.47286
293.43685
293.39954
293.36269
293.32834
293.30295
293.28057
293.26786
293.25027
293.2391
293.21972
293.21811
293.2013
293.20648
293.18327
293.63426
293.63268
293.63061
293.62807
293.62511
293.62184
293.61843
293.61505
293.61183
293.60884
293.60601
293.60312
293.60017
293.5972
293.59441
293.59263
293.59378
293.60179
293.62075
293.64913
293.68024
293.70667
293.72483
293.73583
293.74349
293.75172
293.75904
293.76771
293.77588
293.77754
293.78346
293.79807
293.8137
293.82755
293.82457
293.8003
293.76658
293.72663
293.68681
293.65809
293.64532
293.63773
293.62281
293.59702
293.56117
293.52456
293.48895
293.45521
293.42136
293.3861
293.35083
293.31783
293.29368
293.27249
293.26108
293.24473
293.23471
293.21669
293.21582
293.20008
293.20553
293.18309
293.63311
293.63217
293.63094
293.62945
293.62776
293.62598
293.62423
293.62261
293.62123
293.62014
293.61919
293.61813
293.61677
293.61488
293.61247
293.61013
293.60985
293.61545
293.6305
293.65435
293.68156
293.70498
293.72139
293.73144
293.73866
293.74645
293.75352
293.75977
293.76383
293.76045
293.76181
293.77045
293.78285
293.79621
293.79528
293.77442
293.74362
293.70528
293.6651
293.63387
293.61706
293.60748
293.5953
293.57385
293.54158
293.5065
293.47152
293.43891
293.40697
293.37359
293.33981
293.30803
293.28499
293.26488
293.25466
293.23948
293.23054
293.21383
293.21367
293.19896
293.20466
293.18297
293.63295
293.63241
293.63169
293.63084
293.62993
293.62905
293.6283
293.62776
293.62748
293.62751
293.62766
293.62768
293.62716
293.62593
293.624
293.62152
293.62039
293.62419
293.63587
293.65581
293.67977
293.70086
293.71624
293.72624
293.73381
293.74108
293.74801
293.75145
293.75087
293.74319
293.73907
293.74173
293.75076
293.76361
293.76513
293.74821
293.7209
293.68473
293.64473
293.61152
293.59121
293.57952
293.56956
293.55217
293.52336
293.48991
293.45558
293.42393
293.39365
293.362
293.32958
293.29891
293.27687
293.25772
293.24859
293.23451
293.22658
293.21113
293.21166
293.19794
293.20387
293.18289
293.63321
293.63301
293.63268
293.63227
293.6318
293.63134
293.63098
293.6308
293.63086
293.63122
293.63183
293.63255
293.63312
293.6331
293.6323
293.63068
293.62834
293.62702
293.62995
293.6391
293.65607
293.67761
293.69704
293.71182
293.72205
293.73002
293.73694
293.74287
293.74325
293.73825
293.72624
293.7165
293.7133
293.7186
293.73061
293.73463
293.72204
293.69875
293.66531
293.62604
293.59128
293.56794
293.55404
293.5457
293.53194
293.5065
293.47474
293.44109
293.41022
293.38138
293.35129
293.32013
293.29046
293.26929
293.251
293.24284
293.22979
293.22282
293.20859
293.20977
293.197
293.20314
293.18286
293.63287
293.63275
293.63255
293.6323
293.63204
293.63182
293.63173
293.63182
293.63215
293.63275
293.63357
293.63447
293.63522
293.63559
293.63532
293.63426
293.63269
293.63204
293.63458
293.64216
293.65712
293.67711
293.69548
293.70989
293.72017
293.72818
293.73455
293.73869
293.73595
293.72677
293.71044
293.69536
293.68652
293.68768
293.6982
293.70442
293.69633
293.67749
293.64727
293.6092
293.57329
293.54727
293.53108
293.52375
293.51309
293.49094
293.46094
293.42797
293.39773
293.37011
293.34142
293.31141
293.28264
293.26224
293.2447
293.23742
293.22533
293.21925
293.20618
293.20799
293.19613
293.20248
293.18286
293.63189
293.63185
293.63173
293.63157
293.63139
293.63126
293.63124
293.63139
293.63173
293.63231
293.6331
293.63399
293.6348
293.63555
293.63599
293.6358
293.63561
293.63634
293.63953
293.64694
293.66007
293.67923
293.69714
293.71127
293.72123
293.7288
293.73413
293.73602
293.73015
293.717
293.69659
293.6766
293.66244
293.65909
293.66733
293.67511
293.67143
293.65734
293.63071
293.59425
293.55753
293.52911
293.51062
293.50368
293.49561
293.47663
293.44842
293.41614
293.38639
293.35979
293.33235
293.3034
293.27543
293.25569
293.23881
293.23229
293.22109
293.21584
293.20391
293.20631
293.19534
293.20188
293.1829
293.6301
293.63016
293.63011
293.62998
293.62982
293.62966
293.62957
293.6296
293.62978
293.63015
293.63076
293.63155
293.63241
293.63355
293.63498
293.63608
293.6377
293.64034
293.64509
293.6533
293.66619
293.68395
293.7022
293.71599
293.72531
293.73197
293.73577
293.7351
293.72619
293.70939
293.68524
293.66078
293.64169
293.63361
293.63881
293.64727
293.64761
293.63841
293.61562
293.58111
293.54391
293.51334
293.49256
293.48544
293.47943
293.4635
293.4371
293.40552
293.37614
293.35038
293.32404
293.29606
293.2688
293.24961
293.2333
293.22745
293.21708
293.21261
293.20175
293.20472
293.19461
293.20132
293.18298
293.62761
293.62779
293.62779
293.62765
293.6274
293.6271
293.62684
293.62668
293.62656
293.62661
293.62691
293.62756
293.62858
293.6302
293.63276
293.63534
293.63899
293.64396
293.6511
293.66067
293.67436
293.69139
293.71008
293.72345
293.73198
293.73741
293.73934
293.736
293.7241
293.70408
293.67662
293.64811
293.62444
293.61162
293.61315
293.62136
293.62508
293.62069
293.60192
293.56965
293.53227
293.49977
293.47673
293.46894
293.46452
293.45144
293.42688
293.39601
293.36691
293.34182
293.31645
293.28934
293.26271
293.24399
293.22816
293.22287
293.21328
293.20953
293.19971
293.20321
293.19394
293.20081
293.18309
293.62475
293.62504
293.62505
293.62483
293.6244
293.62385
293.62325
293.62267
293.62226
293.62198
293.62194
293.62242
293.62363
293.6258
293.62952
293.63369
293.63943
293.64674
293.65634
293.6681
293.6832
293.70059
293.71952
293.73258
293.74041
293.74454
293.74444
293.73846
293.72386
293.70106
293.67067
293.63854
293.61059
293.59318
293.59061
293.59764
293.60388
293.60411
293.58943
293.55967
293.52242
293.48822
293.46297
293.45411
293.4508
293.44038
293.41765
293.38751
293.35863
293.33406
293.30954
293.28322
293.25714
293.2388
293.22337
293.21854
293.20967
293.20659
293.19777
293.20178
293.19332
293.20034
293.18323
293.62236
293.62231
293.62192
293.62123
293.62031
293.61928
293.61822
293.61729
293.6166
293.61622
293.61653
293.61793
293.62067
293.62529
293.63164
293.63922
293.64869
293.66038
293.67448
293.69129
293.70975
293.729
293.74203
293.74943
293.75245
293.75048
293.74214
293.7252
293.70003
293.66713
293.63182
293.59985
293.57809
293.57121
293.57624
293.58403
293.58855
293.57799
293.55096
293.51413
293.47849
293.45112
293.44088
293.43821
293.43022
293.40932
293.37994
293.35121
293.32704
293.30325
293.27764
293.25205
293.23401
293.21891
293.21443
293.20625
293.20379
293.19592
293.2004
293.19274
293.19991
293.1834
293.62027
293.62006
293.61942
293.61837
293.61697
293.61539
293.61372
293.61214
293.61087
293.61013
293.61028
293.61193
293.61536
293.62084
293.62917
293.63865
293.65002
293.66358
293.67935
293.69757
293.71726
293.73672
293.75025
293.7577
293.7601
293.75676
293.74653
293.72766
293.70057
293.6656
293.62754
293.59184
293.56602
293.55481
293.55716
293.56564
293.57389
293.56739
293.54327
293.50718
293.47037
293.44098
293.42913
293.42671
293.42087
293.40178
293.37319
293.3446
293.32071
293.29754
293.27257
293.24741
293.22959
293.21475
293.21055
293.203
293.20112
293.19416
293.19908
293.19219
293.1995
293.18359
293.61936
293.61889
293.61789
293.61635
293.61437
293.6121
293.60966
293.6073
293.60533
293.60412
293.60408
293.60604
293.61035
293.61711
293.62661
293.63788
293.651
293.66586
293.68264
293.70155
293.72179
293.74136
293.75582
293.76398
293.7665
293.76249
293.75097
293.73066
293.70211
293.66553
293.62518
293.58614
293.5566
293.54119
293.54035
293.54879
293.55999
293.55745
293.53639
293.50135
293.46366
293.43239
293.41873
293.41622
293.41224
293.39495
293.36719
293.33872
293.31501
293.29237
293.26798
293.24318
293.22553
293.21088
293.20687
293.19992
293.19857
293.19247
293.19781
293.19167
293.19913
293.18379
293.61944
293.61792
293.61577
293.61309
293.60997
293.60659
293.60325
293.60039
293.59868
293.59843
293.60069
293.60593
293.61414
293.62513
293.63784
293.65185
293.66734
293.68453
293.70316
293.72273
293.74231
293.75785
293.76733
293.77066
293.76681
293.75473
293.73361
293.70404
293.66635
293.62418
293.58231
293.54937
293.53004
293.52569
293.53346
293.54677
293.54797
293.53011
293.49642
293.45815
293.42516
293.40955
293.40669
293.40427
293.38872
293.36184
293.33349
293.30989
293.28768
293.26381
293.23934
293.22179
293.20726
293.20338
293.19698
293.19612
293.19085
293.19658
293.19116
293.19877
293.184
293.41913
293.40146
293.39807
293.39689
293.38303
293.35707
293.32886
293.3053
293.28345
293.26003
293.23585
293.21836
293.2039
293.20006
293.19418
293.19378
293.18929
293.1954
293.19068
293.19842
293.18421
292.75976
292.74055
293.16165
293.05355
292.96572
292.89796
292.84754
292.81151
292.78651
292.76923
293.27413
293.15985
293.05836
292.97623
292.91371
292.86781
292.83532
292.81287
292.79737
293.26656
293.16033
293.06491
292.98851
292.93052
292.88846
292.85903
292.83884
292.82494
293.2623
293.16325
293.074
293.00227
292.94821
292.90943
292.88262
292.86439
292.8519
293.26089
293.16924
293.08567
293.01773
292.96684
292.93076
292.90612
292.88953
292.87826
293.26332
293.17855
293.09959
293.03483
292.98647
292.95248
292.92954
292.91429
292.90403
293.26933
293.19032
293.11532
293.05327
293.0069
292.97453
292.95288
292.93866
292.92922
293.27763
293.20384
293.13248
293.07277
293.02798
292.9968
292.97612
292.96269
292.9539
293.28745
293.21873
293.15083
293.09318
293.04963
293.01934
292.99934
292.98648
292.97818
293.29814
293.23452
293.1701
293.11441
293.07192
293.04227
293.02275
293.01028
293.00236
293.30934
293.25104
293.19037
293.13677
293.09528
293.0661
293.04687
293.03464
293.02696
293.32263
293.26979
293.21296
293.1614
293.12074
293.09182
293.07266
293.06048
293.05288
293.33989
293.29284
293.23984
293.19021
293.15015
293.12115
293.10171
293.08931
293.0816
293.36237
293.31967
293.27133
293.22439
293.18508
293.15581
293.1358
293.12288
293.11482
293.39608
293.35739
293.31219
293.26703
293.22798
293.19806
293.17713
293.1634
293.15476
293.44043
293.40409
293.36152
293.31805
293.27929
293.24866
293.2267
293.21199
293.20259
293.4905
293.45686
293.41689
293.37527
293.33726
293.30651
293.28401
293.26877
293.25902
293.54247
293.51154
293.47455
293.43558
293.39933
293.36944
293.34714
293.33172
293.32157
293.59091
293.56329
293.53012
293.4947
293.46113
293.43281
293.4111
293.39562
293.38502
293.63431
293.61068
293.58196
293.55075
293.52054
293.49443
293.47389
293.45882
293.44825
293.67289
293.65364
293.6297
293.603
293.5765
293.55303
293.53413
293.51994
293.50972
293.70837
293.69366
293.67452
293.65212
293.62887
293.60737
293.58934
293.57524
293.56469
293.74083
293.73067
293.71632
293.69811
293.67775
293.6577
293.64004
293.62573
293.61479
293.7714
293.76553
293.75601
293.7423
293.72522
293.70694
293.68989
293.67562
293.66453
293.80236
293.80065
293.79608
293.78747
293.77454
293.75853
293.74166
293.72597
293.71254
293.83252
293.83358
293.83232
293.82709
293.8168
293.80175
293.78358
293.76528
293.74909
293.86091
293.86467
293.86649
293.86465
293.85774
293.84573
293.83052
293.81415
293.79843
293.90176
293.90793
293.91246
293.91344
293.90921
293.89932
293.88494
293.86828
293.8518
293.94199
293.95058
293.95796
293.96209
293.96132
293.95521
293.94441
293.93086
293.91678
293.97247
293.98376
293.99494
294.00374
294.00707
294.00334
293.99433
293.9828
293.97071
293.97352
293.98375
293.99302
293.99947
294.00218
294.00085
293.9957
293.98769
293.97838
293.94295
293.95354
293.9647
293.97498
293.98254
293.98635
293.98612
293.98275
293.97756
293.90663
293.91933
293.93345
293.94736
293.95921
293.96751
293.97166
293.97212
293.96992
293.86443
293.87767
293.89284
293.90865
293.9233
293.93505
293.94284
293.94669
293.94751
293.834
293.84914
293.86653
293.885
293.90258
293.91737
293.92833
293.93542
293.93922
293.83086
293.85074
293.87387
293.89828
293.92146
293.94111
293.95586
293.96555
293.97091
293.85615
293.88119
293.91027
293.94123
293.97119
293.99758
294.01893
294.03488
294.04596
293.86779
293.89557
293.92823
293.96363
293.99863
294.03001
294.0556
294.07487
294.08852
293.83579
293.86169
293.89253
293.92655
293.96089
293.9927
294.01989
294.04154
294.05784
293.77874
293.80147
293.82915
293.86057
293.89358
293.92542
293.95368
293.97705
293.9953
293.72463
293.74648
293.77369
293.80532
293.83924
293.87251
293.90249
293.92764
293.94765
293.68512
293.7084
293.73805
293.77339
293.81198
293.85032
293.88508
293.91416
293.93707
293.64878
293.67278
293.70375
293.74136
293.78355
293.82658
293.86643
293.90042
293.92769
293.60333
293.62543
293.65416
293.6895
293.73
293.77261
293.81359
293.84988
293.87995
293.5506
293.56967
293.59458
293.62554
293.66172
293.70099
293.74031
293.77674
293.80823
293.49814
293.51462
293.53626
293.56349
293.59589
293.63196
293.66925
293.70505
293.73714
293.44987
293.46439
293.48353
293.50774
293.53686
293.56985
293.60483
293.63949
293.67167
293.4052
293.41787
293.43456
293.45569
293.48115
293.51018
293.54143
293.57309
293.6034
293.37006
293.38097
293.3953
293.41337
293.4351
293.45989
293.48668
293.51414
293.54092
293.33822
293.3474
293.3594
293.37447
293.39253
293.41312
293.43541
293.45838
293.48102
293.31564
293.32309
293.33282
293.34505
293.35971
293.37642
293.39454
293.41326
293.43178
293.28924
293.29522
293.30302
293.31282
293.32455
293.33794
293.35248
293.36756
293.38251
293.27007
293.27474
293.28084
293.28851
293.29769
293.30817
293.31954
293.33131
293.34293
293.24186
293.24528
293.24977
293.25546
293.26233
293.27023
293.27887
293.28788
293.29686
293.23512
293.23771
293.24111
293.2454
293.25058
293.25651
293.26299
293.26969
293.27629
293.211
293.21255
293.21463
293.21732
293.22068
293.22467
293.22916
293.23397
293.23885
293.21428
293.21553
293.21718
293.21931
293.22192
293.22498
293.22837
293.23192
293.23545
293.18587
293.18641
293.18716
293.18813
293.18934
293.1908
293.19246
293.19425
293.19605
292.72481
292.70938
292.69416
292.67726
292.65395
292.60917
292.755
292.741
292.72713
292.71164
292.69011
292.64822
292.78458
292.77194
292.75936
292.74525
292.72552
292.68661
292.81345
292.80208
292.79075
292.77798
292.76003
292.72421
292.84159
292.8314
292.82124
292.80977
292.79359
292.76093
292.869
292.85986
292.85079
292.84057
292.82611
292.79667
292.89567
292.88749
292.87942
292.87037
292.85759
292.83137
292.92162
292.91428
292.90712
292.89916
292.88799
292.86496
292.94694
292.94032
292.93398
292.92704
292.91739
292.89746
292.97174
292.96573
292.9601
292.95407
292.94585
292.92892
292.99632
292.99083
292.98582
292.98064
292.97374
292.95956
293.0212
293.01608
293.01158
293.0071
293.0014
292.98977
293.04728
293.04241
293.03829
293.03443
293.02977
293.0202
293.07595
293.07112
293.06722
293.06379
293.05999
293.05214
293.10891
293.1039
293.09997
293.09674
293.09347
293.08658
293.14838
293.14301
293.13889
293.13568
293.13271
293.12628
293.19557
293.18962
293.18507
293.18165
293.17896
293.17444
293.2518
293.24573
293.24113
293.23751
293.23343
293.22027
293.31375
293.30678
293.30077
293.29482
293.28717
293.27019
293.37661
293.36893
293.36206
293.35539
293.34777
293.33582
293.4398
293.43217
293.42565
293.42
293.41507
293.41229
293.50134
293.49347
293.48601
293.4781
293.46759
293.45148
293.55595
293.54781
293.54028
293.53287
293.52404
293.50921
293.60568
293.59722
293.58937
293.58155
293.57213
293.55636
293.65528
293.64666
293.63837
293.62947
293.6173
293.59467
293.70054
293.68882
293.67708
293.66452
293.64918
293.62757
293.73429
293.71976
293.70528
293.69033
293.67347
293.65422
293.78348
293.76823
293.75251
293.7356
293.71539
293.68695
293.83568
293.81879
293.80087
293.78111
293.75704
293.72329
293.90246
293.8869
293.86979
293.85005
293.82402
293.77966
293.95833
293.94458
293.92892
293.90998
293.88368
293.83358
293.96849
293.95742
293.94449
293.92848
293.90476
293.85989
293.97127
293.96343
293.95349
293.94003
293.91857
293.87338
293.96605
293.96036
293.95221
293.94017
293.9203
293.88173
293.94647
293.94357
293.93807
293.92894
293.913
293.88308
293.94034
293.93879
293.93463
293.92698
293.91375
293.89029
293.97344
293.974
293.97253
293.96812
293.95808
293.93557
294.05358
294.05866
294.06122
294.06006
294.05201
294.02794
294.09849
294.10616
294.11182
294.11523
294.11394
294.09858
294.07069
294.08164
294.09075
294.09764
294.10159
294.09624
294.01021
294.02354
294.03538
294.04587
294.05443
294.05773
293.96429
293.97947
293.99361
294.00674
294.01873
294.02574
293.9559
293.9729
293.98851
294.00329
294.01743
294.03012
293.95052
293.97144
293.99105
294.00955
294.02684
294.03952
293.90594
293.93067
293.95448
293.97816
294.002
294.02425
293.83651
293.86447
293.89252
293.92158
293.95142
293.97884
293.76685
293.79698
293.82791
293.85992
293.89371
293.92734
293.70263
293.73557
293.77067
293.8089
293.84896
293.88585
293.63362
293.66705
293.7049
293.74803
293.79648
293.84396
293.56839
293.60014
293.63805
293.68469
293.74115
293.79942
293.50462
293.53276
293.56776
293.61431
293.67622
293.74583
293.45126
293.4748
293.50487
293.54655
293.60774
293.68538
293.39833
293.41765
293.44246
293.4778
293.53344
293.61345
293.35523
293.37026
293.38943
293.417
293.46205
293.5354
293.30641
293.31812
293.33321
293.35471
293.39145
293.45555
293.28326
293.29176
293.30254
293.31777
293.34388
293.393
293.24417
293.25088
293.2595
293.27197
293.29304
293.33189
293.2392
293.24371
293.24946
293.25728
293.27134
293.30055
293.19802
293.2006
293.20392
293.20899
293.21708
293.23078
)
;

boundaryField
{
    Side1
    {
        type            empty;
    }
    Inlet
    {
        type            totalTemperature;
        gamma           1.4;
        T0              nonuniform List<scalar> 0();
        value           nonuniform List<scalar> 0();
    }
    Side2
    {
        type            empty;
    }
    Outlet
    {
        type            zeroGradient;
    }
    Botwall
    {
        type            zeroGradient;
    }
    Cyli
    {
        type            zeroGradient;
    }
    procBoundary1to0
    {
        type            processor;
        value           nonuniform List<scalar> 
44
(
293.44298
293.28483
293.5879
293.5879
293.68687
293.68687
293.6682
293.64344
293.64344
293.63799
293.63799
293.63538
293.63375
293.63333
293.63333
293.63321
293.63285
293.63182
293.62994
293.62727
293.62206
293.62422
293.62206
293.62005
293.61931
293.62034
293.62034
292.73246
292.71121
293.16518
293.0508
292.95714
292.88306
292.82741
292.78747
292.78747
293.28483
293.28483
292.69389
292.67698
292.66039
292.64211
292.61708
292.56958
)
;
    }
    procBoundary1to3
    {
        type            processor;
        value           nonuniform List<scalar> 
62
(
293.62251
293.62031
293.61741
293.61383
293.60971
293.60523
293.60067
293.59664
293.59422
293.59351
293.59601
293.60225
293.61201
293.62472
293.63882
293.65348
293.66866
293.68474
293.70211
293.7205
293.73946
293.75584
293.76698
293.77178
293.76882
293.75705
293.73578
293.70572
293.66744
293.62399
293.57992
293.54393
293.52106
293.51308
293.51956
293.53416
293.53883
293.52423
293.4922
293.45365
293.45365
293.41415
293.39437
293.39029
293.39002
293.37778
293.35278
293.32472
293.30117
293.2796
293.2566
293.23267
293.21521
293.20076
293.1969
293.19151
293.19152
293.18778
293.19425
293.1902
293.19809
293.18441
)
;
    }
}


// ************************************************************************* //
