/*--------------------------------*- C++ -*----------------------------------*\
| =========                 |                                                 |
| \\      /  F ield         | OpenFOAM: The Open Source CFD Toolbox           |
|  \\    /   O peration     | Version:  2406                                  |
|   \\  /    A nd           | Website:  www.openfoam.com                      |
|    \\/     M anipulation  |                                                 |
\*---------------------------------------------------------------------------*/
FoamFile
{
    version     2.0;
    format      ascii;
    arch        "LSB;label=32;scalar=64";
    class       volScalarField;
    location    "0.06";
    object      k;
}
// * * * * * * * * * * * * * * * * * * * * * * * * * * * * * * * * * * * * * //

dimensions      [0 2 -2 0 0 0 0];

internalField   nonuniform List<scalar> 
2065
(
209.22567
213.71299
217.38927
220.3976
222.83246
224.81604
226.35332
227.36444
227.60605
227.28966
226.22791
224.76967
223.98563
224.1142
225.19586
226.85434
228.0395
228.72266
229.07888
229.27986
229.01844
227.4714
221.1903
207.04335
188.87674
169.19526
150.30349
132.52791
115.80169
102.81442
95.984595
92.790153
89.864335
83.859813
72.684467
60.219166
51.673584
48.247277
47.595905
46.596811
43.412317
40.384534
39.521326
39.735635
40.497367
41.020103
41.495139
41.938747
42.410962
42.557797
42.606163
42.056226
41.503382
40.23414
39.263404
37.079298
35.829086
32.170781
145.47643
155.50894
164.97394
173.88311
182.11982
189.88238
196.83923
202.54995
206.82588
209.59135
210.49275
210.57709
211.46687
213.7811
217.60367
222.33077
226.96244
230.75552
234.66312
236.97923
237.07314
234.27597
224.38968
207.07808
187.25573
167.5473
149.20744
132.00016
116.30026
104.40923
97.975471
94.442326
90.826788
83.846778
72.21261
60.211438
52.496574
49.766402
49.539993
48.976141
46.417252
43.563319
42.824828
43.119961
43.979036
44.472404
44.848099
45.131077
45.435871
45.397548
45.291765
44.539053
43.88606
42.427616
41.38201
39.03882
37.733458
33.897796
83.50612
97.428328
111.92172
126.76332
141.2811
155.10252
168.12166
179.26554
188.41011
195.59973
200.02331
201.91244
202.28503
203.46115
207.29233
213.66596
221.29211
228.59441
235.94785
242.39934
245.1984
244.38208
238.62091
224.08781
204.22362
183.64953
164.62899
147.29241
131.04163
116.52544
105.70889
99.498741
95.590748
91.391046
83.760328
71.993792
60.519104
53.627312
51.570277
51.801294
51.728678
49.857547
47.151718
46.437501
46.757427
47.6319
48.050568
48.285161
48.374415
48.486969
48.242962
47.975023
46.991243
46.230736
44.576214
43.444472
40.937056
39.56893
35.557372
56.569068
66.78711
79.039567
92.771358
107.41713
122.42814
137.32002
151.54601
164.12962
175.42825
184.89457
191.21904
195.29593
197.45545
199.56672
204.92789
214.02839
223.33762
233.49141
243.88636
250.90627
252.31875
249.24529
238.78244
219.96651
198.35609
178.12522
160.44541
144.54598
129.5922
116.40544
106.58418
100.51338
96.294353
91.737433
83.872475
72.262296
61.323772
55.190513
53.757296
54.452036
54.928247
53.687726
51.13648
50.336272
50.625249
51.431899
51.732077
51.787765
51.654125
51.559162
51.078726
50.645347
49.412341
48.534624
46.68005
45.452282
42.776932
41.340563
37.154996
52.696926
60.774057
70.153007
80.946083
92.986639
105.98585
119.55866
133.08468
146.17037
159.02958
170.66307
179.91132
187.66531
193.20602
198.25977
205.86554
217.02702
228.73524
241.48094
252.72258
257.83228
256.65002
249.83091
233.88309
211.94569
189.81209
170.97049
155.17038
141.05995
127.67515
115.93281
106.96589
101.02527
96.665517
92.090003
84.488831
73.303679
62.841588
57.31826
56.406222
57.541976
58.601342
57.863062
55.502134
54.492408
54.692555
55.352881
55.493237
55.341741
54.950965
54.640437
53.895424
53.292239
51.800121
50.794551
48.738239
47.40559
44.560764
43.051932
38.695126
48.153567
53.718043
60.267947
67.88781
76.44916
85.865722
96.213374
107.28614
118.93269
131.13938
143.91921
156.59038
168.4972
179.74104
189.42765
198.23161
208.74034
222.76912
236.2222
249.88369
259.35174
260.87058
256.68969
244.61758
223.98072
200.56168
179.39606
162.69534
149.12496
137.0061
125.34624
115.05566
106.86881
101.12836
96.902881
92.720101
85.904597
75.388466
65.280973
60.144121
59.589633
61.106962
62.719915
62.361531
60.198806
58.872897
58.921288
59.368302
59.315454
58.918803
58.25258
57.711245
56.689696
55.905686
54.151356
53.007468
50.748828
49.303968
46.29002
44.705512
40.181354
46.819789
51.402484
56.442013
62.039453
68.266727
75.245366
82.844598
91.064968
99.971275
109.67444
120.48038
132.47233
145.46759
158.99529
172.93396
186.14295
198.81288
212.70513
228.35749
242.59842
254.95845
260.78666
259.13103
251.21146
233.19682
210.1459
187.13747
168.2742
154.07505
142.7964
132.65794
122.7296
113.7956
106.41901
101.02013
97.278865
93.917167
88.339182
78.725918
68.797624
63.757924
63.366367
65.153466
67.235512
67.155904
65.15889
63.443198
63.26371
63.456991
63.174416
62.494724
61.544833
60.756539
59.453914
58.475433
56.462697
55.169963
52.709494
51.147202
47.964926
46.302986
41.616537
50.354804
54.652102
59.281988
64.295371
69.704458
75.572552
81.95096
88.798537
96.274326
104.61485
114.02586
124.98176
137.5267
151.63312
167.22165
183.09439
198.78091
214.91889
230.95483
244.55027
254.41933
257.25603
252.40347
238.38522
217.38524
194.25747
173.63511
157.88391
146.15363
136.85868
128.41945
120.04364
112.31648
105.72033
100.93749
98.096332
95.935259
91.878575
83.421138
73.466824
68.192305
67.760428
69.659814
72.085097
72.2044
70.314081
68.161792
67.680822
67.597667
67.028991
66.057285
64.811904
63.764076
62.177973
60.993002
58.729119
57.278361
54.61768
52.934582
49.585413
47.845423
43.002887
53.656784
57.487407
61.583906
65.99188
70.744871
75.84171
81.373623
87.43743
94.083616
101.64162
110.23555
120.22603
131.90895
145.62599
161.54648
179.0351
196.7516
213.739
229.30658
241.62992
248.81562
247.27471
238.02452
220.88068
199.66938
178.95538
162.25164
149.86555
140.21995
132.17791
124.85151
117.63855
110.89539
105.12723
101.20648
99.644438
98.934476
96.462489
89.453431
79.268756
73.434281
72.746381
74.584321
77.200369
77.45135
75.598723
72.980971
72.143373
71.757691
70.850938
69.588229
68.038306
66.721812
64.851915
63.451866
60.944014
59.328851
56.470702
54.665056
51.151188
49.333454
44.342059
53.322826
56.513518
59.812075
63.32636
67.107147
71.185341
75.595505
80.430659
85.805922
91.808581
98.705191
106.76235
116.03701
126.96037
139.97176
155.16422
172.45672
190.50611
207.94924
222.2603
232.17701
235.54889
231.16717
219.29617
201.97044
183.20878
167.0353
155.12931
146.04965
137.70933
129.89596
122.69747
116.01617
109.95111
105.04338
102.21052
102.13353
103.04606
101.98019
96.542599
86.100647
79.429988
78.253771
79.871186
82.512711
82.826637
80.954488
77.852699
76.614324
75.894361
74.630519
73.068573
71.209048
69.618054
67.466096
65.845513
63.10113
61.317626
58.265843
56.337353
52.661796
50.767408
45.635205
56.038252
58.756516
61.559574
64.555431
67.803918
71.345859
75.217911
79.477567
84.248081
89.666257
95.932993
103.23929
111.77106
121.92012
134.02532
148.11939
163.91229
180.36349
196.28218
209.13339
216.71048
217.75785
211.9306
199.89332
185.08363
171.10071
160.61279
153.37139
146.9567
139.26114
130.73669
122.74167
115.8064
110.00593
105.82936
104.32333
105.56868
108.31775
108.3054
104.29592
93.827537
86.089902
84.187881
85.453063
87.950334
88.263792
86.322301
82.729876
81.058341
79.975312
78.350119
76.480495
74.309811
72.441632
70.011327
68.167593
65.194609
63.240988
60.000435
57.950086
54.11673
52.147392
46.882988
57.915647
60.258202
62.680494
65.296849
68.172097
71.351017
74.868711
78.742955
83.063795
87.948973
93.577733
100.15772
107.86201
117.04358
127.93977
140.53501
154.45952
168.82273
182.15407
192.90396
198.83289
198.93813
193.1945
183.47421
173.32593
165.32951
160.44901
157.16694
153.00469
145.54924
135.55559
125.77807
117.64174
111.50603
107.9834
107.62139
110.0881
114.44406
115.35529
112.38957
102.24024
93.294568
90.448199
91.257139
93.438151
93.700866
91.644322
87.567415
85.441939
83.974844
81.988804
79.80724
77.327124
75.182039
72.478993
70.412055
67.219032
65.095436
61.67193
59.501829
55.515408
53.473374
48.085583
58.626274
60.830377
63.098497
65.566769
68.292305
71.30751
74.64857
78.345065
82.448615
87.044893
92.251687
98.214227
105.10207
113.17096
122.60161
133.453
145.30085
157.40219
168.46032
177.11945
182.03034
182.48579
178.54368
172.88756
168.3716
166.15117
165.99519
165.72998
163.35588
156.24797
144.49582
132.29441
122.15024
115.0666
111.84006
112.11976
115.62682
121.20057
122.88776
120.67067
111.04255
100.90193
96.940784
97.19913
98.907871
99.081704
96.865285
92.323131
89.733897
87.869605
85.526813
83.033281
80.248529
77.829581
74.861176
72.57325
69.169464
66.877741
63.277957
60.991194
56.857226
54.745233
49.242687
58.292111
60.563148
62.887064
65.398205
68.165194
71.226437
74.604268
78.327986
82.431423
86.973664
92.036582
97.709775
104.12698
111.43972
119.55369
128.65225
138.45528
148.40051
157.54297
164.8589
169.52589
171.24922
170.2207
169.30001
169.90519
172.3342
175.74771
177.709
176.5787
170.23588
157.0798
142.31245
129.61069
120.9531
117.40017
117.87408
121.9666
128.35209
130.64376
128.97515
119.98574
108.7607
103.58784
103.15373
104.32469
104.3573
101.93346
96.95848
93.905686
91.638543
88.946093
86.14451
83.062737
80.375501
77.150747
74.646037
71.041488
68.584993
64.816368
62.41688
58.141597
55.96281
50.353513
56.729311
59.267951
61.849057
64.617433
67.647914
70.987659
74.665064
78.698721
83.116629
87.955683
93.257971
99.052563
105.34418
112.27558
119.61663
127.63791
135.79046
143.98952
151.63736
158.16432
163.16734
166.54212
168.64329
171.71084
176.33034
182.01567
187.78597
191.48633
191.31805
186.01907
172.3796
155.35614
139.91414
129.15065
124.5371
124.80198
128.88323
135.67596
138.39737
137.13822
128.85433
116.72018
110.31119
109.01332
109.65294
109.48584
106.80146
101.43916
97.931838
95.263004
92.230621
89.12842
85.759768
82.812087
79.34146
76.625862
72.831243
70.214658
66.285285
63.777723
59.367987
57.125936
51.416072
56.903477
59.916273
63.12138
66.601476
70.417876
74.614568
79.225148
84.28119
89.810023
95.825944
102.32321
109.24792
116.54976
123.88492
131.13004
138.23038
145.2086
151.86159
157.89701
163.24378
167.80367
172.29638
178.68397
185.61218
193.0567
200.34973
205.48827
206.33191
202.18967
189.18466
170.58617
152.59867
139.3973
133.04643
132.65467
136.19825
142.97767
145.96145
145.01138
137.46296
124.63827
117.0172
114.73928
114.8347
114.41569
111.43652
105.73561
101.79025
98.726867
95.366626
91.974256
88.331054
85.132761
81.428008
78.509051
74.535458
71.764603
67.683122
65.072728
60.535944
58.234466
52.42878
53.494557
57.035913
60.78902
64.846131
69.287162
74.179121
79.580624
85.542142
92.095014
99.234891
106.91755
115.02486
123.34685
131.49957
138.91464
145.6708
151.83961
157.53709
162.94776
168.27627
173.71945
180.2245
187.87769
195.5727
203.80906
212.04762
218.45655
220.57572
217.63174
206.19142
186.98841
166.96343
151.24654
142.683
141.06547
143.78894
150.09261
153.18772
152.47069
145.65496
132.38727
123.6192
120.30211
119.82053
119.10032
115.81305
109.82327
105.46241
102.01666
98.342713
94.673125
90.769527
87.332142
83.40607
80.292652
76.151485
73.233134
69.008617
66.301101
61.645123
59.288296
53.389545
49.179365
53.24269
57.573119
62.265022
67.415679
73.114372
79.448412
86.497001
94.30509
102.86181
112.0859
121.79677
131.74868
141.30458
149.80279
157.06058
163.14303
168.33389
173.01201
177.82823
183.35005
190.06642
197.36044
204.80025
213.10911
221.91817
229.50601
233.19652
231.53904
222.25898
203.55012
182.20853
164.14708
153.126
149.76754
151.50531
156.88093
159.965
159.42011
153.29974
139.85998
130.03956
125.66127
124.5538
123.52585
119.91492
113.68268
108.93346
105.12168
101.14994
97.218065
93.069665
89.406085
85.272327
81.974502
77.677325
74.619008
70.260845
67.462267
62.695302
60.287383
54.298538
48.657093
53.533239
58.872407
64.781658
71.362356
78.71361
86.945888
96.113441
106.21412
117.14286
128.67736
140.53601
152.0315
162.28108
170.84768
177.40496
182.34001
186.23483
190.208
194.83043
200.15891
206.08744
212.47039
220.29883
229.42636
238.11423
243.60261
243.41206
236.47589
219.389
197.54841
177.52154
164.03028
158.551
159.13903
163.28874
166.21781
165.79217
160.28591
146.97829
136.21109
130.77955
129.00872
127.66879
123.73171
117.29937
112.19223
108.03403
103.78182
99.604084
95.227529
91.351717
87.0245
83.553132
79.11165
75.921461
71.439241
68.555888
63.68639
61.231745
55.15734
142.0778
135.62722
133.16734
131.5123
127.25837
120.66367
115.23118
110.74865
106.23432
101.82814
97.240747
93.167426
88.66135
85.027791
80.453804
77.140211
72.543603
69.581867
64.618438
62.121464
55.967197
447.37423
415.70944
351.5782
415.79632
459.94094
479.3259
479.19108
462.75617
436.28795
405.1848
279.52185
344.45518
404.76266
447.04027
466.03624
466.15379
450.33164
424.54113
394.03716
276.98137
336.89519
393.28233
433.60041
452.13864
452.46433
437.25186
412.14926
382.28177
274.10865
328.97587
381.42121
419.67701
437.66381
438.14626
423.53398
399.13819
369.9544
270.93616
320.78682
369.27114
405.34805
422.6712
423.2533
409.21669
385.53981
357.0844
267.47187
312.35673
356.86443
390.6619
407.18712
407.78807
394.31717
371.37759
343.69248
263.7493
303.79224
344.29607
375.70029
391.28199
391.84642
378.89361
356.69345
329.82045
259.8013
295.08155
331.67641
360.5782
375.05836
375.505
363.0045
341.53675
315.51164
255.57994
286.48829
319.19767
345.43711
358.62949
358.83896
346.6955
325.93838
300.78894
251.35569
278.16395
306.94729
330.435
342.13409
341.9502
330.07018
309.97965
285.71025
247.1302
270.0655
295.13569
315.74358
325.73433
324.95352
313.21328
293.72405
270.32033
242.98373
262.50904
284.03961
301.52947
309.601
307.98953
296.22981
277.25861
254.69452
239.6152
255.92811
273.81095
287.92351
293.89046
291.18675
279.22135
260.66349
238.8943
237.20453
250.24789
264.41194
274.95078
278.69282
274.64254
262.29845
244.05854
223.04451
235.48781
245.21146
255.6129
262.43799
263.95516
258.37006
245.52038
227.53388
207.2565
234.00564
240.36241
246.84963
250.22414
249.46549
242.2826
228.86706
211.09857
191.54397
231.94365
234.95977
237.55669
238.21879
235.00569
226.33743
212.42744
194.93845
176.1577
229.15989
228.83659
228.22702
226.00227
220.50638
210.5374
196.27569
179.1745
161.24723
226.3073
222.88151
219.01908
213.91488
206.31563
195.23768
180.79634
164.21619
147.22808
223.72032
217.49636
210.49549
202.5335
192.90952
180.86032
166.38786
150.43983
134.44653
221.80598
213.56966
203.88017
193.15151
181.4026
168.26679
153.68679
138.32319
123.28887
220.0124
211.05354
199.77762
186.86961
173.06025
158.65419
143.76632
128.82171
114.59123
215.17812
206.74549
195.41827
181.73486
166.78487
151.47867
136.283
121.59435
107.9655
203.54893
197.04245
187.36871
174.7516
160.20106
144.93126
129.83456
115.48942
102.40893
187.21252
182.672
175.18313
164.5753
151.542
137.28822
122.92701
109.24559
96.819703
168.18504
164.68615
158.76739
150.11447
139.08556
126.59675
113.68785
101.21642
89.813027
149.44301
146.51372
141.67991
134.53379
125.18847
114.34377
102.90062
91.686525
81.350617
131.69432
129.05931
124.83832
118.7369
110.83408
101.55503
91.562362
81.593514
72.298895
114.43056
111.58583
107.50101
101.97932
95.009657
86.878677
78.121368
69.369151
61.203609
100.75008
97.59071
93.226028
87.513152
80.555394
72.727778
64.580014
56.679732
49.492493
93.617784
90.442592
86.003882
80.182619
73.139238
65.334484
57.37252
49.831532
43.134908
90.720664
87.990601
84.029565
78.645979
71.960616
64.387527
56.544452
49.082135
42.46858
88.384247
86.260348
83.016095
78.386402
72.39679
65.382498
57.863129
50.533533
43.934064
83.343841
82.1845
80.114847
76.734426
71.804921
65.582987
58.796531
52.037418
45.820444
72.806033
72.485303
71.820291
70.360174
67.461846
62.916404
57.216842
51.145649
45.353539
60.062515
59.533782
58.704475
57.363104
55.390421
52.64191
49.019407
44.822908
40.522878
50.919756
49.954892
48.658283
46.877204
44.478035
41.460261
37.974611
34.297619
30.739021
46.964128
45.602937
43.869719
41.67892
38.977541
35.809826
32.354293
28.875536
25.629631
45.996094
44.394947
42.432423
40.063669
37.260108
34.072522
30.66938
27.294012
24.179038
44.671188
42.797069
40.625452
38.197571
35.52871
32.615348
29.525391
26.430878
23.537076
41.014401
38.765833
36.314707
33.822669
31.377386
28.964137
26.536334
24.115821
21.803709
37.839036
35.475248
32.873359
30.222344
27.671411
25.26187
22.96799
20.786498
18.766901
36.82882
34.316654
31.485065
28.539279
25.686152
23.044752
20.640887
18.471832
16.553832
36.944459
34.318355
31.258641
27.957999
24.700753
21.708545
19.083237
16.834466
14.945978
37.575416
34.807278
31.547106
27.982136
24.345111
20.946776
18.013968
15.605107
13.676181
38.099255
35.323993
31.999538
28.284472
24.479752
20.862087
17.645148
14.975309
12.881433
38.641988
35.930327
32.642158
28.907876
24.977535
21.1896
17.819965
15.000249
12.738316
39.214723
36.632208
33.471208
29.83322
25.931589
22.049373
18.479648
15.432405
12.997942
39.82697
37.387009
34.378795
30.881918
27.081667
23.237991
19.618194
16.426374
13.774826
40.133688
37.857701
35.035784
31.729822
28.099483
24.378144
20.814853
17.612179
14.891482
40.328079
38.209085
35.575046
32.470712
29.031438
25.466365
22.006487
18.848414
16.119624
39.93807
37.975715
35.518759
32.610421
29.371906
25.987802
22.670888
19.609162
16.931483
39.483879
37.634129
35.315281
32.558582
29.480744
26.257816
23.081722
20.12543
17.517711
38.384211
36.708001
34.596417
32.066027
29.199042
26.148028
23.109953
20.271979
17.756249
37.484076
35.891048
33.879854
31.465925
28.73158
25.822493
22.913783
20.17019
17.724518
35.44505
34.003213
32.179593
29.985283
27.491441
24.825208
22.143777
19.600109
17.315461
34.2514
32.88017
31.143225
29.049296
26.66419
24.10827
21.533383
19.089085
16.893464
30.754706
29.549892
28.027043
26.192107
24.099069
21.849812
19.576146
17.409976
15.456253
381.98402
343.43036
296.30165
236.50981
155.15305
50.626395
371.94443
333.8894
287.4092
228.62629
149.22317
48.411533
361.33821
323.86065
278.13811
220.53639
143.29952
46.172579
350.1836
313.37234
268.52945
212.27018
137.38238
43.934747
338.52407
302.45844
258.61555
203.86304
131.48848
41.710441
326.38107
291.15174
248.43444
195.33553
125.61071
39.513346
313.78289
279.48565
238.01467
186.70609
119.74681
37.345308
300.76958
267.49197
227.37695
177.97782
113.87358
35.205976
287.37845
255.20129
216.5409
169.15297
107.97158
33.086121
273.62618
242.62261
205.50302
160.20989
102.00204
30.972701
259.55364
229.78332
194.27642
151.14405
95.942954
28.849245
245.18596
216.68722
182.84333
141.92081
89.760389
26.698851
230.58888
203.38968
171.24746
132.56941
83.46416
24.510668
215.80553
189.91204
159.48519
123.06631
77.055233
22.283893
200.96343
176.3834
147.69563
113.58479
70.770222
20.075308
186.19287
162.95557
136.05605
104.31747
64.740761
17.92859
171.49227
149.587
124.44894
95.009924
58.499705
15.772388
157.15142
136.58525
113.18213
85.965157
52.392719
13.658521
143.34386
124.15972
102.53248
77.590074
47.062185
12.020845
130.46738
112.65672
92.74091
69.927341
42.174084
10.737517
118.83624
102.36413
84.078543
63.252692
38.036786
9.7983463
108.79239
93.614372
76.90144
57.991147
35.240353
9.1014
101.04103
86.95097
71.53794
54.169341
33.302641
8.6014722
95.171715
81.976858
67.628474
51.482026
31.997405
8.23238
90.267516
77.835094
64.377977
49.231538
30.825509
7.8646679
85.341369
73.624738
60.962087
46.695876
29.27485
7.3835938
79.24622
68.432423
56.706378
43.437654
27.144739
6.7733221
71.735346
61.877802
51.167979
39.021218
24.057442
6.034311
63.59883
54.660379
44.94115
33.943831
20.486989
5.2566174
53.571618
45.761751
37.304326
27.806863
16.357336
4.4961654
42.895654
36.267606
29.227206
21.481475
12.404204
3.9211736
37.093008
31.134309
24.96341
18.358805
10.907167
3.7632199
36.506838
30.637248
24.606824
18.200707
11.012973
3.9122041
37.921265
31.946097
25.782686
19.228334
11.92527
4.2628307
40.047574
34.185935
27.99449
21.230132
13.400223
4.6245082
39.866535
34.207393
28.167736
21.495898
13.655157
4.729225
36.217281
31.5254
26.270561
20.245703
12.962521
4.5150733
27.321543
23.755407
19.827546
15.320815
9.8279771
3.9721812
22.571379
19.426919
16.071337
12.387018
8.1638455
3.7267191
21.262698
18.285083
15.158391
11.818366
8.1506533
3.8069139
20.794258
17.957379
14.95349
11.742457
8.3359868
3.9998509
19.544017
17.098443
14.409382
11.448042
8.2237494
4.1272008
16.834461
14.813615
12.621389
10.197273
7.5282994
4.0477049
14.775746
12.949737
11.023881
8.9739061
6.8226318
3.9341285
13.262396
11.59138
9.8920642
8.1677348
6.4816206
3.872905
12.024691
10.45177
8.9240747
7.4566112
6.1420066
3.819442
11.148359
9.5692823
8.1209648
6.8328308
5.7982247
3.7522066
10.838531
9.1219892
7.6199556
6.3891302
5.5383227
3.6807595
10.95265
9.090622
7.4412
6.1484286
5.3781165
3.6159025
11.483352
9.3713753
7.5254184
6.0818593
5.2804967
3.5580132
12.462504
10.1073
7.9280234
6.1776757
5.1844497
3.4992027
13.631067
11.148178
8.7374885
6.5804295
5.1782577
3.4469697
14.44973
11.916533
9.3708274
6.9128143
4.8821857
3.3352277
15.071512
12.535563
9.9389224
7.3285703
4.8947976
3.244562
15.372294
12.864683
10.249569
7.5097998
4.7199482
3.1021678
15.391982
12.922538
10.333093
7.5833696
4.686277
2.9477208
15.106867
12.729524
10.202912
7.4638741
4.5012399
2.7450229
14.76143
12.455265
10.002836
7.3429652
4.4236352
2.5777368
13.539238
11.437693
9.1832418
6.7364389
4.2120594
2.3047994
)
;

boundaryField
{
    Side1
    {
        type            empty;
    }
    Inlet
    {
        type            inletOutlet;
        inletValue      nonuniform List<scalar> 0();
        value           nonuniform List<scalar> 0();
    }
    Side2
    {
        type            empty;
    }
    Outlet
    {
        type            zeroGradient;
    }
    Botwall
    {
        type            kqRWallFunction;
        value           nonuniform List<scalar> 
59
(
50.626395
48.411533
46.172579
43.934747
41.710441
39.513346
37.345308
35.205976
33.086121
30.972701
28.849245
26.698851
24.510668
22.283893
20.075308
17.92859
15.772388
13.658521
12.020845
10.737517
9.7983463
9.1014
8.6014722
8.23238
7.8646679
7.3835938
6.7733221
6.034311
5.2566174
4.4961654
3.9211736
3.7632199
3.9122041
4.2628307
4.6245082
4.729225
4.5150733
3.9721812
3.7267191
3.8069139
3.9998509
4.1272008
4.0477049
3.9341285
3.872905
3.819442
3.7522066
3.6807595
3.6159025
3.5580132
3.4992027
3.4469697
3.3352277
3.244562
3.1021678
2.9477208
2.7450229
2.5777368
2.3047994
)
;
    }
    Cyli
    {
        type            kqRWallFunction;
        value           nonuniform List<scalar> 0();
    }
    procBoundary1to0
    {
        type            processor;
        value           nonuniform List<scalar> 
44
(
203.50386
281.70664
134.40538
134.40538
70.896597
70.896597
48.732079
46.212964
46.212964
43.338479
43.338479
42.560591
46.309373
49.993257
49.993257
50.318228
53.360984
55.507731
56.318987
55.958779
53.929865
54.257543
53.929865
50.019309
45.263011
44.147534
44.147534
457.80278
425.61153
358.17056
426.30246
472.24684
491.97152
491.55288
474.52308
474.52308
281.70664
281.70664
391.45341
352.47014
304.80786
244.17641
161.07277
52.798682
)
;
    }
    procBoundary1to3
    {
        type            processor;
        value           nonuniform List<scalar> 
62
(
43.526727
48.886351
54.876183
61.604448
69.178499
77.69083
87.213776
97.831321
109.54057
122.23923
135.68455
149.54535
163.16287
175.43292
185.60966
193.10733
198.20358
201.44788
204.14772
206.76404
209.79697
213.55401
218.13701
224.78402
233.79635
243.50312
250.94697
252.86108
248.29764
234.17319
212.87329
191.3165
175.30002
167.27084
166.27022
169.05814
171.69216
171.40132
166.60178
153.84386
153.84386
147.71183
140.19635
136.97015
134.99505
130.49762
123.7886
118.05174
113.26174
108.50484
103.88984
99.109422
94.853893
90.182991
86.399012
81.704373
78.275473
73.574099
70.540661
65.491788
62.957031
56.729514
)
;
    }
}


// ************************************************************************* //
