/*--------------------------------*- C++ -*----------------------------------*\
| =========                 |                                                 |
| \\      /  F ield         | OpenFOAM: The Open Source CFD Toolbox           |
|  \\    /   O peration     | Version:  2406                                  |
|   \\  /    A nd           | Website:  www.openfoam.com                      |
|    \\/     M anipulation  |                                                 |
\*---------------------------------------------------------------------------*/
FoamFile
{
    version     2.0;
    format      ascii;
    arch        "LSB;label=32;scalar=64";
    class       surfaceScalarField;
    location    "0.06";
    object      phi;
}
// * * * * * * * * * * * * * * * * * * * * * * * * * * * * * * * * * * * * * //

dimensions      [1 0 -1 0 0 0 0];

oriented        oriented;

internalField   nonuniform List<scalar> 
4030
(
0.015129425
0.0010386415
0.01538875
0.0010014522
-0.0012620991
0.015624566
0.00097994806
-0.0012172307
0.015835909
0.00096657136
-0.0011795471
0.016023821
0.00097175094
-0.0011614783
0.01618328
0.0010179509
-0.0011794596
0.016308026
0.0011404997
-0.0012675308
0.016380618
0.0013879079
-0.0014630227
0.016378214
0.0018483194
-0.0018485973
0.016266427
0.0025821984
-0.0024731097
0.016005662
0.0036280601
-0.0033698609
0.015582819
0.0049839956
-0.0045629918
0.015026404
0.0065332085
-0.0059776391
0.01439074
0.0080652434
-0.0074300126
0.013747756
0.0093548531
-0.0087119441
0.013153324
0.010243814
-0.0096492988
0.012638111
0.010641866
-0.010126828
0.012215276
0.010510377
-0.010088404
0.01189874
0.0098067213
-0.0094919858
0.011712928
0.0085023117
-0.0083195047
0.011686362
0.0065748665
-0.0065527136
0.011812298
0.0040971514
-0.0042291997
0.012026502
0.0015151847
-0.0017369639
0.012244757
-0.00032925769
0.00010267868
0.012458135
-0.0011618295
0.00093885423
0.012578277
-0.00060555074
0.00047613521
0.012505215
0.0014721638
-0.0014070809
0.012256119
0.0047388187
-0.0044971514
0.011936912
0.0082339484
-0.0079167162
0.011640513
0.010575536
-0.010282677
0.011510603
0.010316416
-0.010191568
0.011607847
0.007223102
-0.007327785
0.011820492
0.0032267142
-0.0034489792
0.012074593
0.00014848274
-0.00041346166
0.012336161
-0.0015033579
0.0012296421
0.012500812
-0.000791794
0.00061540307
0.012577198
0.0018558118
-0.0019418674
0.012722046
0.003888017
-0.0040403285
0.012975477
0.0031449576
-0.0034075018
0.013289036
0.0010621368
-0.0013861753
0.013635001
-0.00048091596
0.00012323356
0.013992173
-0.00087703437
0.00050697721
0.014374487
-0.00073294608
0.00033616562
0.014795016
-0.0010167129
0.00057847928
0.015242449
-0.0016946928
0.0012250051
0.015707727
-0.0022820455
0.0017895094
0.016192603
-0.0027771493
0.0022608512
0.016694802
-0.0031443274
0.002609342
0.017223588
-0.0035216622
0.0029640076
0.017773278
-0.0036568515
0.0030862818
0.018366065
-0.0040772906
0.0034719167
0.01897041
-0.0038128654
0.0032072705
0.019610885
-0.0035115122
0.0028944202
0.02029194
-0.0034480266
0.0028197646
0.021002944
-0.0032813864
0.0026166107
0.021696751
-0.0026844191
0.0020260513
0.022462161
-0.0030308719
0.0022942249
-0.0018836825
0.0011908437
0.012750888
0.00054642437
0.013168302
0.00058265762
0.013544113
0.00060252758
0.013894346
0.0006145134
0.014226101
0.00063797501
0.014537038
0.00070472488
0.014825827
0.00084914746
0.015075469
0.0011354508
0.015252825
0.0016680073
0.015325265
0.0025068522
0.015234696
0.0037159578
0.014942054
0.005274557
0.014505349
0.0069691774
0.013983831
0.0085868848
0.013412472
0.0099264356
0.012868359
0.010788189
0.012378967
0.011131185
0.011963725
0.010924735
0.011651128
0.010117402
0.011476929
0.0086732623
0.011472338
0.006574658
0.011625442
0.0039374693
0.011859329
0.0012730278
0.012105296
-0.00058386223
0.012367434
-0.0014340507
0.012534983
-0.00078274498
0.012514712
0.0014843161
0.012332121
0.0049155433
0.012078532
0.0084831204
0.011859089
0.010791525
0.011790251
0.010379653
0.011922724
0.0070827527
0.012140141
0.0029994497
0.01239816
-0.000120329
0.012673544
-0.0017912856
0.012862165
-0.00099250439
0.012987706
0.0017201317
0.013186872
0.0036807724
0.013478492
0.0028437905
0.013818497
0.00071135205
0.014183845
-0.00085828197
0.014557219
-0.0012637213
0.014954031
-0.001144864
0.015382301
-0.0014634433
0.01582942
-0.0021648169
0.016288121
-0.0027687147
0.016760669
-0.0032817324
0.017245114
-0.0036619803
0.017751133
-0.0040567426
0.018273038
-0.0041996472
0.018832067
-0.0046487584
0.019398483
-0.0043800738
0.019997189
-0.0040860687
0.020629695
-0.0040270269
0.021287054
-0.0038920211
0.021922198
-0.0032836682
0.022621562
-0.003701072
-0.0025044187
0.0078186298
-0.00015619018
0.0084880639
-0.00012439514
0.0091562287
-8.7058664e-05
0.009814001
-5.7009525e-05
0.010457732
-3.1197292e-05
0.01109124
2.2351653e-06
0.01170318
9.0250044e-05
0.012295855
0.00025364852
0.012843694
0.00058452842
0.013308072
0.0012004524
0.013657881
0.0021539915
0.013825325
0.0035458048
0.01377088
0.005326989
0.013505392
0.0072337885
0.013134236
0.0089584563
0.012698886
0.010362412
0.012231869
0.011255637
0.011790394
0.011572645
0.01140844
0.011305741
0.011130631
0.010393146
0.010999517
0.0088008384
0.011044502
0.0065244586
0.011246195
0.0037286504
0.011507021
0.0010035509
0.011806181
-0.00089182914
0.012134681
-0.0017731097
0.012362343
-0.0010203472
0.012414945
0.0014234371
0.01231606
0.0050106487
0.012144788
0.0086471246
0.012011039
0.010921934
0.012015104
0.010369347
0.012183592
0.0069059658
0.012409282
0.0027637085
0.012681318
-0.00040323035
0.012975569
-0.0020984411
0.013195984
-0.001225324
0.013378288
0.0015272082
0.013634779
0.0034156314
0.013966515
0.0025020483
0.014333959
0.00033287429
0.014718759
-0.0012553574
0.015107842
-0.0016665103
0.015517502
-0.0015702328
0.015951531
-0.0019166512
0.016396785
-0.002633778
0.016847966
-0.0032485002
0.01730769
-0.0037740008
0.017774332
-0.0041621322
0.018257907
-0.0045694585
0.018752707
-0.0047152662
0.019279018
-0.0051872939
0.019809053
-0.0049103921
0.020367979
-0.0046200573
0.020954127
-0.0045591006
0.02156074
-0.0044514484
0.022140452
-0.0038270257
0.022777658
-0.0043086836
-0.0030574092
0.0040700378
-0.00071472215
0.0046477096
-0.00073521099
0.0052721258
-0.00075030564
0.0059384137
-0.00075500793
0.0066336122
-0.00075408167
0.0073518384
-0.00075153808
0.0080858459
-0.00073416787
0.0088396759
-0.00066626951
0.009590739
-0.00050039764
0.010308581
-0.00013655378
0.010962011
0.00054373053
0.011522109
0.0015907941
0.011905001
0.0031602141
0.012082282
0.0051478006
0.012048177
0.0072671098
0.011845451
0.0091615292
0.011570806
0.010637928
0.011237674
0.011589339
0.010881606
0.01192871
0.010575709
0.011610601
0.010374245
0.010592379
0.010322294
0.0088489532
0.01044227
0.0063988664
0.010703231
0.0034601007
0.011001676
0.00069618271
0.011376199
-0.0012751336
0.011777287
-0.0021851116
0.012075109
-0.0013283041
0.01221654
0.0012736527
0.012218643
0.0050041016
0.012148236
0.0087112111
0.012108219
0.010957416
0.012194644
0.010276143
0.012401444
0.0066905415
0.012640923
0.0025140119
0.012934846
-0.00070820474
0.013253268
-0.0024300025
0.013511241
-0.0014959715
0.01375515
0.001272185
0.014069836
0.0030917412
0.014441481
0.002119945
0.014835658
-7.2543646e-05
0.015238667
-0.0016708698
0.015642041
-0.0020839435
0.016062333
-0.0020067932
0.016499915
-0.0023740836
0.016941702
-0.0030999129
0.017384428
-0.0037203803
0.017830913
-0.0042534303
0.018279823
-0.0046447342
0.018741432
-0.0050601872
0.019209997
-0.0052045063
0.019704878
-0.0056941293
0.020200319
-0.0054055697
0.020721582
-0.0051155932
0.021263987
-0.0050469357
0.02182291
-0.0049627414
0.022350811
-0.0043181037
0.022929967
-0.004857761
-0.0035474509
0.0027726712
-0.0010907459
0.0031786811
-0.0011426402
0.0036221765
-0.0011953731
0.0041119251
-0.0012465118
0.0046533373
-0.0012974685
0.0052441873
-0.0013446084
0.0058781831
-0.0013706548
0.0065496942
-0.0013405618
0.0072404469
-0.0011942173
0.0079275747
-0.00082697837
0.0085907433
-0.00012274578
0.0091932325
0.00098516508
0.009676043
0.0026747656
0.010017017
0.0048050194
0.010193138
0.0070903245
0.01019814
0.0091568998
0.010091238
0.010745676
0.0099221613
0.011759048
0.0097057343
0.012145088
0.0095216625
0.011793491
0.0094362229
0.010675393
0.0094942307
0.0087867944
0.0097103697
0.0061767232
0.010025607
0.0031370678
0.010380867
0.00033217746
0.010843306
-0.0017467224
0.011318665
-0.0026715138
0.011695634
-0.0017155032
0.011939438
0.0010214074
0.012056796
0.0048815397
0.012102575
0.0086602435
0.012166799
0.010887106
0.012339885
0.010095803
0.012583673
0.0064378505
0.012846967
0.0022403607
0.013172593
-0.0010451042
0.013518041
-0.0027886868
0.013816921
-0.0018077394
0.014123712
0.00095379166
0.014494638
0.0027110144
0.014903893
0.0016998077
0.015322586
-0.00050260353
0.015741596
-0.0021026015
0.016157196
-0.0025139149
0.016585587
-0.0024519653
0.017024464
-0.0028334304
0.017461257
-0.0035616294
0.017894672
-0.0041834123
0.018327631
-0.0047196193
0.018759021
-0.0051098756
0.019199311
-0.0055294717
0.019642704
-0.0056683571
0.020107653
-0.0061707092
0.020570513
-0.0058675859
0.021056462
-0.0055750349
0.021557994
-0.0054935142
0.022072549
-0.0054292401
0.022552549
-0.0047608025
0.023078083
-0.0053526855
-0.003979664
0.0016775581
-0.0012748023
0.0019153594
-0.0013298845
0.0021730012
-0.0014017524
0.0024628201
-0.0014868204
0.0027957233
-0.0015812315
0.003180903
-0.0016846799
0.00361851
-0.0017844824
0.0041000817
-0.0018547543
0.0046158746
-0.0018591677
0.0051552921
-0.0017367213
0.0057113615
-0.0013863215
0.0062731805
-0.00068784976
0.0068051515
0.00045013
0.0073021302
0.0021752551
0.0077338561
0.0043715834
0.0080702119
0.0067533732
0.0082810907
0.0089463801
0.0083732417
0.010654322
0.0083741686
0.011758649
0.0083425699
0.01217652
0.008318736
0.01181589
0.0083798365
0.010611636
0.0085694296
0.0085927296
0.0088850859
0.0058547253
0.0092537128
0.0027607049
0.0096966757
-0.00011926868
0.010243254
-0.0023028652
0.010787335
-0.0032265689
0.011251539
-0.0021899464
0.011606745
0.00065765273
0.011849913
0.0046325672
0.012020959
0.0084836103
0.012200341
0.010701378
0.012459039
0.0098293905
0.01274375
0.0061437341
0.013046957
0.0019269031
0.013407899
-0.0014174255
0.013779532
-0.0031735194
0.014120493
-0.0021617335
0.014487347
0.00057487212
0.014910158
0.0022777923
0.015353161
0.001245535
0.015792684
-0.00095354441
0.016224793
-0.0025476204
0.016650137
-0.0029539039
0.017084
-0.0029030696
0.017521988
-0.0032924519
0.017952402
-0.0040174775
0.018375787
-0.0046367857
0.018795102
-0.0051723328
0.019209356
-0.0055578168
0.01962916
-0.005978041
0.020048655
-0.0061080167
0.020485394
-0.0066187029
0.020917915
-0.006298648
0.021371138
-0.0060009829
0.021834921
-0.0059020847
0.022308701
-0.0058545519
0.022744993
-0.0051593063
0.023221636
-0.0057982015
-0.0043594785
0.00085658204
-0.0013751432
0.00099979865
-0.0014192709
0.0011485245
-0.0014799793
0.0013057968
-0.0015605267
0.0014842286
-0.0016669096
0.0016976363
-0.0017964789
0.0019437491
-0.0019328374
0.0022201141
-0.002063114
0.0025262406
-0.0021634028
0.0028595962
-0.0021953156
0.0032190444
-0.0020992167
0.0036118514
-0.0017823486
0.0040376636
-0.0011168548
0.0044637083
2.1272937e-05
0.0049219982
0.0017145079
0.0053922927
0.003899648
0.0058425879
0.0063024698
0.0062309341
0.0085582376
0.0065235366
0.010362358
0.0067205903
0.011561946
0.0068833311
0.012013386
0.0070464107
0.01165103
0.0072757865
0.010379332
0.0076086334
0.0082551275
0.0080085395
0.0054482874
0.0084508611
0.0023109582
0.0089940433
-0.00067098254
0.0096127949
-0.0029312625
0.010221472
-0.0038459953
0.010774728
-0.0027533743
0.011244192
0.0001795197
0.011618801
0.0042515828
0.011922798
0.0081735199
0.012223385
0.010394223
0.012567357
0.0094771711
0.012900944
0.005800248
0.013249731
0.0015679766
0.013647714
-0.001826738
0.014044732
-0.0035835821
0.014426307
-0.0025564111
0.014847542
0.00014115344
0.015315825
0.0017985205
0.015787073
0.00076268045
0.016242977
-0.0014208672
0.01668489
-0.0030025926
0.017117311
-0.0034012043
0.017554091
-0.0033574973
0.01798918
-0.0037490803
0.018412021
-0.0044661931
0.018824843
-0.0050798744
0.019230589
-0.0056115313
0.019628282
-0.005989008
0.020028638
-0.0064068279
0.020425726
-0.0065249015
0.020836215
-0.0070400163
0.021240864
-0.0067011923
0.02166419
-0.0063962806
0.022093602
-0.0062761386
0.022530459
-0.0062425465
0.022927503
-0.0055180691
0.023360275
-0.0061993478
-0.0046926194
0.00017766774
-0.0014184154
0.00023030344
-0.0014731708
0.00029969217
-0.0015507484
0.00039194206
-0.0016542882
0.00050330655
-0.0017799375
0.00062914091
-0.0019241498
0.00077236942
-0.0020780991
0.00093216142
-0.0022251544
0.0011040782
-0.0023377984
0.0012765629
-0.0023705156
0.0014628774
-0.0022884794
0.001689381
-0.0020119541
0.0019511653
-0.0013817478
0.0022525469
-0.00028306445
0.0026475998
0.0013170577
0.0031356988
0.0034099182
0.0036691852
0.0057682654
0.0042024382
0.00802493
0.0046750841
0.0098899762
0.0050757769
0.0111613
0.0054302144
0.011658189
0.0057919848
0.011287302
0.0061981501
0.0099697194
0.0066539188
0.0077944187
0.0071397356
0.00495606
0.0076908897
0.0017525505
0.0083216853
-0.0013103938
0.0089970911
-0.0036160844
0.009664009
-0.0045233147
0.010299955
-0.0033993443
0.010879256
-0.00040857426
0.011384851
0.0037390562
0.011824658
0.0077271283
0.012246833
0.0099650808
0.012676275
0.0090389404
0.013066719
0.0053996913
0.013463642
0.0011608018
0.013896112
-0.0022704441
0.014317377
-0.0040176528
0.014735547
-0.0029876688
0.015203332
-0.00033947124
0.015709326
0.0012809941
0.016202432
0.00025764936
0.016669815
-0.0018996516
0.017118074
-0.0034640595
0.017554902
-0.0038531096
0.017992246
-0.0038128397
0.018422671
-0.0042014893
0.018836979
-0.0049067426
0.019238932
-0.0055122784
0.01963139
-0.0060373774
0.020013303
-0.0064041099
0.020395463
-0.0068169802
0.02077186
-0.0069206554
0.021158297
-0.0074367961
0.021537766
-0.0070778836
0.021934261
-0.0067640136
0.022332932
-0.0066194084
0.022736972
-0.006597349
0.023099483
-0.0058418001
0.023493672
-0.0065614054
-0.0049850831
-0.00051829479
-0.0013804038
-0.00054544904
-0.0014472753
-0.00055920219
-0.0015383661
-0.00056058451
-0.0016544041
-0.00054950285
-0.0017926635
-0.00052621095
-0.0019492499
-0.00049071216
-0.0021155841
-0.0004442132
-0.0022738471
-0.00038497106
-0.0023994512
-0.00029860907
-0.0024594758
-0.00019732028
-0.0023926101
-8.9352226e-05
-0.0021229003
4.9173095e-05
-0.0015232638
0.00025371472
-0.00049042511
0.0005915355
0.00097687248
0.0010824455
0.0029173217
0.0016758824
0.0051739083
0.0023279416
0.0073724673
0.0029561792
0.0092615424
0.0035374145
0.010579635
0.0040788725
0.01111551
0.004634134
0.010729902
0.0051967756
0.0094031378
0.0057636019
0.0072225191
0.0063677568
0.0043457191
0.0070268021
0.0010863039
0.0077272996
-0.0020192737
0.0084481105
-0.0043459138
0.0091599565
-0.0052451026
0.009863206
-0.0041123979
0.010539978
-0.0010942547
0.011169363
0.0031022125
0.011742107
0.0071472931
0.01228259
0.0094171407
0.01279686
0.0085153734
0.013248022
0.0049382508
0.013691893
0.0007065377
0.014154462
-0.002744154
0.014597172
-0.0044728666
0.015046061
-0.0034495508
0.015551383
-0.00085791392
0.016086762
0.00073356605
0.016595192
-0.00026303765
0.017069104
-0.0023849493
0.017520264
-0.0039285828
0.017958938
-0.0043070262
0.018394774
-0.0042669664
0.018819065
-0.0046481428
0.019224161
-0.0053383708
0.019615193
-0.0059338515
0.019994847
-0.0064502409
0.02036199
-0.0068040114
0.020727426
-0.0072098718
0.02108508
-0.0072971549
0.021449903
-0.0078114312
0.021807109
-0.0074316153
0.022180074
-0.0071075033
0.022551873
-0.0069358645
0.022927449
-0.0069233289
0.023260383
-0.0061354457
0.023621523
-0.006889898
-0.0052431042
-0.0010717502
-0.0012185083
-0.0011797517
-0.0012735395
-0.0012769669
-0.0013512941
-0.0013641531
-0.0014525227
-0.001442917
-0.0015771058
-0.0015142966
-0.0017228856
-0.0015798771
-0.0018854231
-0.0016399234
-0.0020574602
-0.0016921243
-0.0022237621
-0.0017337214
-0.0023601699
-0.0017609365
-0.0024346771
-0.0017658877
-0.002390417
-0.0017255821
-0.0021660646
-0.001623033
-0.0016286892
-0.0014346876
-0.00068151012
-0.0011416665
0.00068152373
-0.00068818377
0.0024620844
-5.3075951e-05
0.0045376042
0.00070103104
0.0066175157
0.0014581311
0.0085037512
0.0021927913
0.009844005
0.0029032451
0.010403329
0.0036227179
0.010007845
0.0043228423
0.0086988333
0.0050157075
0.0065244553
0.0057472145
0.003608097
0.006503637
0.00032308926
0.0072639847
-0.0027875677
0.0080149471
-0.0051054056
0.008751899
-0.0059914219
0.0094992972
-0.0048692915
0.010253379
-0.0018573237
0.010992411
0.0023552419
0.01168936
0.006442735
0.012341572
0.0087569342
0.012937361
0.0079098214
0.013447966
0.0044171917
0.013933348
0.00021064505
0.014419526
-0.0032413848
0.014879707
-0.004945215
0.015352895
-0.0039355634
0.015886676
-0.0014050179
0.016443262
0.00016444302
0.016960701
-0.00079308125
0.017436434
-0.0028720756
0.017887228
-0.004392881
0.018325392
-0.0047605627
0.018757967
-0.0047180681
0.019174993
-0.0050878402
0.019570499
-0.0057606241
0.019950822
-0.0063447089
0.020318384
-0.0068507213
0.020671999
-0.0071898405
0.021022415
-0.0075871094
0.021363506
-0.0076565127
0.02170939
-0.008166551
0.02204747
-0.007765509
0.022400432
-0.0074303002
0.022749465
-0.0072297036
0.023101164
-0.0072250942
0.023409702
-0.0064041818
0.023743549
-0.0071905769
-0.0054731328
-0.0015849408
-0.0010417587
-0.001751206
-0.0011083766
-0.0019072263
-0.0011964689
-0.0020560488
-0.0013049995
-0.0022003561
-0.0014342132
-0.0023414864
-0.0015832983
-0.0024803602
-0.001748237
-0.0026164587
-0.0019232094
-0.002747375
-0.0020948679
-0.002866324
-0.0022434627
-0.0029691048
-0.0023342386
-0.0030434586
-0.0023185486
-0.0030517294
-0.0021605032
-0.00297882
-0.0017043243
-0.0027914477
-0.00087151777
-0.0024746833
0.00036240443
-0.0020000027
0.0019854984
-0.0013890457
0.0039251303
-0.0006325746
0.0058597572
0.00022920135
0.0076407474
0.0010904769
0.0089811777
0.0019464421
0.0095450995
0.0028078702
0.0091433915
0.0036374477
0.007864887
0.0044657208
0.0056908435
0.0053202441
0.0027474748
0.0061655872
-0.00052959166
0.0069752607
-0.0036046948
0.0077402159
-0.0058783015
0.008478321
-0.0067382338
0.0092396447
-0.0056397233
0.010043249
-0.0026699226
0.010871262
0.0015188833
0.011677996
0.0056278755
0.012431399
0.0079949737
0.013100792
0.007230247
0.013664683
0.0038426701
0.014183448
-0.00031873023
0.014685219
-0.0037541281
0.015157961
-0.0054297799
0.015649205
-0.0044394028
0.016202975
-0.0019722268
0.016773196
-0.00041879149
0.01729391
-0.0013267389
0.017767199
-0.0033567813
0.018214667
-0.0048539737
0.018650243
-0.0052116058
0.019078161
-0.005164691
0.01948716
-0.0055197495
0.019873008
-0.006173355
0.020243092
-0.0067452265
0.020599526
-0.0072396742
0.020941098
-0.0075629721
0.021278428
-0.0079505376
0.021605367
-0.0080010749
0.021935223
-0.0085050217
0.02225753
-0.0080829141
0.022594233
-0.007736173
0.022924828
-0.0075053368
0.023257459
-0.0075074743
0.023546987
-0.0066534059
0.023859502
-0.0074694033
-0.0056818122
-0.0019688048
-0.0008182957
-0.0021797476
-0.00089849231
-0.0023842272
-0.00099313228
-0.0025839174
-0.0011065474
-0.002780591
-0.0012388852
-0.0029760629
-0.0013892919
-0.0031718873
-0.0015540119
-0.0033662633
-0.0017305815
-0.0035553589
-0.0019076825
-0.0037327082
-0.0020682101
-0.0038866986
-0.0021825592
-0.0040020946
-0.0022054396
-0.0040506752
-0.0021144233
-0.0040027507
-0.0017548064
-0.0038368565
-0.0010399353
-0.0035151092
3.8265549e-05
-0.0030188203
0.0014871074
-0.002352826
0.0032572729
-0.0015875727
0.0050928049
-0.00070450711
0.0067559004
0.0002663297
0.008008185
0.0012472855
0.0085613165
0.0022321597
0.0081550238
0.0031849619
0.0069075653
0.0041478717
0.0047225402
0.005112896
0.0017764335
0.0060273787
-0.0014507644
0.0068639476
-0.0044481437
0.007625425
-0.0066470672
0.0083488828
-0.0074696863
0.0091024587
-0.0064019461
0.0099272628
-0.0035036398
0.010818116
0.00061937529
0.011715209
0.0047221639
0.012553575
0.0071474784
0.013285781
0.0064874672
0.013893598
0.0032240563
0.014434732
-0.00087052817
0.014943727
-0.0042740115
0.015423584
-0.0059211167
0.015927046
-0.0049551851
0.016493384
-0.0025520359
0.017070538
-0.0010093929
0.017589537
-0.0018590063
0.018056726
-0.0038354258
0.018498296
-0.0053092697
0.018929543
-0.0056583804
0.019351783
-0.0056057556
0.01975238
-0.005943422
0.020128815
-0.0065767286
0.020489396
-0.0071360491
0.02083593
-0.0076182235
0.021167187
-0.0079250314
0.021493598
-0.0083022393
0.021809021
-0.0083334184
0.022125986
-0.0088299395
0.022436083
-0.0083873937
0.022760476
-0.0080290966
0.02307717
-0.0077673721
0.023395741
-0.0077755005
0.023671826
-0.0068887014
0.023969161
-0.0077325282
-0.0058759512
-0.0021946657
-0.00056502454
-0.0024362311
-0.00065793189
-0.002668689
-0.00076175947
-0.0028989636
-0.00087744524
-0.0031306882
-0.0010084308
-0.0033656426
-0.0011557156
-0.0036016065
-0.001319546
-0.0038369831
-0.0014968363
-0.0040669549
-0.0016794873
-0.0042834251
-0.0018536728
-0.0044727264
-0.0019953541
-0.0046168313
-0.0020635369
-0.0047008071
-0.0020327989
-0.0046730245
-0.001784997
-0.0045227283
-0.0011926792
-0.0042129086
-0.00027395994
-0.0037200141
0.00099194162
-0.0030396671
0.0025747452
-0.0022120262
0.0042630233
-0.0012786296
0.0058201499
-0.00025231399
0.0069791137
0.00083126866
0.0074743737
0.001922377
0.0070600068
0.0029908952
0.0058343289
0.0040735424
0.0036345645
0.0051227156
0.00072143898
0.0060791539
-0.0024133478
0.0069212958
-0.005296578
0.0076641971
-0.007396583
0.0083588377
-0.0081715761
0.0090868825
-0.0071381063
0.009909707
-0.004335205
0.010837737
-0.00031748945
0.011800528
0.0037502963
0.012705395
0.0062329311
0.013487504
0.0056942736
0.014125914
0.0025747022
0.014678076
-0.0014333696
0.015186314
-0.0047929997
0.015667754
-0.006413695
0.016178055
-0.005477503
0.016750751
-0.0031381545
0.017329134
-0.0016015983
0.017842255
-0.0023856867
0.018300385
-0.0043050567
0.018733929
-0.0057566205
0.019159484
-0.0060994889
0.019575406
-0.0060405648
0.019967609
-0.0063587917
0.020335195
-0.006971229
0.020687285
-0.0075180987
0.02102541
-0.0079877637
0.021348323
-0.0082778949
0.021666212
-0.0086445328
0.021972971
-0.008656343
0.022280401
-0.0091446302
0.02258205
-0.0086827093
0.022898271
-0.0083132391
0.023205792
-0.0080205973
0.023515492
-0.0080343842
0.023783864
-0.0071158092
0.024072335
-0.0079862666
-0.0060624967
-0.0022538282
-0.00029962843
-0.0025109962
-0.00040170917
-0.002763859
-0.00050991597
-0.003015117
-0.00062728675
-0.0032676335
-0.00075710192
-0.0035224084
-0.00090222547
-0.0037781512
-0.0010651942
-0.0040340805
-0.0012424147
-0.0042844375
-0.0014307653
-0.0045202533
-0.0016196278
-0.0047281089
-0.0017894076
-0.0048847112
-0.0019089825
-0.0049826215
-0.0019370923
-0.004973084
-0.001796816
-0.0048375494
-0.0013305925
-0.0045399463
-0.00057398734
-0.0040522809
0.00050183167
-0.0033694418
0.0018894082
-0.0025156862
0.0034066698
-0.0015381225
0.0048397171
-0.00045792506
0.005895591
0.00070525447
0.0063072922
0.0018838165
0.005877224
0.0030526283
0.0046606307
0.0042252883
0.0024566255
0.0053254166
-0.0003842844
0.0062966194
-0.0033902439
0.0071245571
-0.006130245
0.0078365121
-0.0081145022
0.0084939624
-0.0088355463
0.0091851196
-0.0078367961
0.0099861034
-0.0051446438
0.010924609
-0.001264857
0.011928507
0.0027369562
0.012881262
0.005269962
0.013696723
0.0048672028
0.014351176
0.0019091965
0.014903566
-0.0019964041
0.015403874
-0.0053038298
0.015881655
-0.0069022801
0.016393944
-0.0060014876
0.016967915
-0.0037254253
0.017542857
-0.0021906587
0.018046829
-0.0029034659
0.018493666
-0.0047634513
0.018917544
-0.0061943613
0.019336452
-0.0065339401
0.019745795
-0.0064688022
0.020129989
-0.0067661692
0.02048961
-0.0073576593
0.020834498
-0.0078925788
0.021165968
-0.0083499585
0.021482745
-0.0086236849
0.021794728
-0.0089799651
0.022095882
-0.0089728599
0.022397338
-0.0094526638
0.022694487
-0.0089728066
0.023006849
-0.0085929424
0.023310094
-0.0082699548
0.02361627
-0.0082894997
0.023882802
-0.0073406117
0.024168862
-0.0082370732
-0.0062485041
-0.0021367975
-0.002396659
-0.0001427292
-0.0026538407
-0.00025368314
-0.0029108592
-0.00037128924
-0.003169704
-0.00049935658
-0.0034313902
-0.0006417243
-0.0036959114
-0.00080195135
-0.0039592096
-0.00098049627
-0.0042154511
-0.0011760144
-0.0044556231
-0.0013810661
-0.0046670192
-0.0015797482
-0.0048284149
-0.0017494541
-0.0049264646
-0.0018410791
-0.0049248322
-0.0018006215
-0.0047898118
-0.0014679157
-0.0044976492
-0.00086858775
-0.0040198751
2.1471886e-05
-0.0033430197
0.0012097775
-0.0024885936
0.002549242
-0.0014824018
0.0038301744
-0.00035534696
0.0047646817
0.00086058651
0.0050868908
0.0020924117
0.0046399044
0.0033362588
0.0034117757
0.004566058
0.00122156
0.0056840024
-0.0015076084
0.0066441661
-0.0043556957
0.0074407929
-0.0069320707
0.0081115197
-0.0087905789
0.0087263844
-0.0094562555
0.0093749261
-0.0084922794
0.010140418
-0.0059182107
0.011068527
-0.0022017021
0.01209076
0.0017050406
0.013068764
0.0042812623
0.013900299
0.0040239192
0.014558202
0.0012401723
0.015101175
-0.0025499257
0.015587377
-0.0058003084
0.016056757
-0.0073821462
0.016566759
-0.0065228541
0.017137934
-0.0043097085
0.017705831
-0.0027728687
0.018198263
-0.0034099214
0.018632238
-0.0052090599
0.019045358
-0.0066213725
0.019457085
-0.0069611656
0.019859959
-0.0068905231
0.020236895
-0.0071662301
0.020589748
-0.0077371384
0.020928999
-0.0082609729
0.021255822
-0.0087067329
0.021568899
-0.0089647616
0.021877803
-0.0093113007
0.022176615
-0.009286193
0.022475849
-0.0097578049
0.022772598
-0.0092617823
0.023085566
-0.0088727056
0.023389583
-0.0085205225
0.023697717
-0.008546356
0.023968397
-0.0075691128
0.024258612
-0.0084915143
-0.006441109
-0.0021035304
0.00010435235
-0.002351544
-6.5469027e-06
-0.0026010658
-0.00012270903
-0.0028529331
-0.00024849953
-0.00310758
-0.00038816188
-0.003364183
-0.00054651298
-0.0036187865
-0.00072714434
-0.0038648101
-0.00093133773
-0.0040927094
-0.001154619
-0.0042896752
-0.0013843514
-0.0044410985
-0.0015997314
-0.0045306028
-0.0017534396
-0.004529332
-0.0018039363
-0.004394684
-0.001604783
-0.0041069358
-0.0011587706
-0.0036445341
-0.00044360946
-0.0029843886
0.00054663864
-0.0021344134
0.0016959202
-0.0011189183
0.0028108622
2.7189915e-05
0.0036142735
0.0012587831
0.0038506184
0.0025171715
0.0033757625
0.0038120523
0.0021115177
0.0050551982
-2.6822459e-05
0.0061579312
-0.0026154794
0.0070847744
-0.0052874604
0.0078358449
-0.0076878544
0.0084567364
-0.0094162469
0.009024829
-0.010029577
0.0096281707
-0.0091019909
0.010349715
-0.0066473986
0.011250318
-0.0031107767
0.012269915
0.00067563648
0.013253614
0.0032864981
0.014085593
0.0031802045
0.014735675
0.00057887078
0.015261144
-0.0030858162
0.015728112
-0.0062773491
0.016185001
-0.0078492141
0.016689046
-0.007037927
0.017254244
-0.0048877581
0.017812515
-0.003345555
0.018291865
-0.0039034612
0.018712049
-0.0056409894
0.01911389
-0.0070371014
0.019518324
-0.0073810175
0.019915198
-0.0073061422
0.020285974
-0.0075599991
0.02063356
-0.0081110902
0.020969007
-0.0086250376
0.021293432
-0.0090602623
0.02160546
-0.0093037104
0.021914309
-0.0096415119
0.022214237
-0.0095997701
0.022515159
-0.010063918
0.02281574
-0.0095538681
0.023133917
-0.0091571668
0.023443876
-0.0087774877
0.023759561
-0.0088105767
0.024040468
-0.0078074098
0.024341488
-0.0087562407
-0.0066474991
-0.0016545298
0.00032392682
-0.0018800308
0.00021814658
-0.0021097886
0.00010618485
-0.0023423957
-1.6816117e-05
-0.0025771449
-0.00015439916
-0.0028124342
-0.00031227809
-0.0030444369
-0.00049626906
-0.0032663138
-0.00071066837
-0.0034684716
-0.00095375955
-0.0036388086
-0.0012154198
-0.0037630773
-0.001477003
-0.0038266218
-0.0016915823
-0.003809237
-0.0018232243
-0.0036694704
-0.0017466881
-0.0033865102
-0.0014441472
-0.002938833
-0.00089402953
-0.0023003585
-9.4994589e-05
-0.0014720838
0.00086400993
-0.00047394344
0.0018085282
0.00065887562
0.0024767838
0.0018663212
0.0026381592
0.0031309032
0.002106122
0.0044343024
0.00080268595
0.005648766
-0.0012464724
0.0067091662
-0.0036807896
0.00758329
-0.0061661736
0.0082767879
-0.0083856375
0.0088406684
-0.0099843849
0.0093582577
-0.010551799
0.009915185
-0.0096647613
0.010588216
-0.0073276155
0.011448129
-0.0039787695
0.012447695
-0.00033374319
0.013421261
0.0023016302
0.014240232
0.0023492785
0.014872715
-6.4950769e-05
0.015374231
-0.0035976268
0.015817861
-0.0067308529
0.016258919
-0.0083001506
0.016753975
-0.007543671
0.01731079
-0.0054571091
0.017857788
-0.0039069837
0.018323324
-0.0043832887
0.018729431
-0.0060589912
0.019120028
-0.0074415509
0.01951746
-0.0077937511
0.019909148
-0.0077164218
0.020275191
-0.0079488287
0.020619298
-0.0084812281
0.020953029
-0.0089867886
0.021277528
-0.0094129555
0.021591354
-0.0096433226
0.021903354
-0.0099737617
0.022208025
-0.0099171951
0.022514675
-0.010374932
0.022823433
-0.0098534218
0.023151536
-0.0094510807
0.023472703
-0.0090461241
0.023801617
-0.0090878724
0.024098895
-0.0080616655
0.024417424
-0.0090379586
-0.0068748856
-0.001075153
-0.0012667042
0.00040895481
-0.00146639
0.00030507865
-0.0016694642
0.00018541588
-0.0018733692
4.8610903e-05
-0.0020756982
-0.00011090012
-0.0022727833
-0.00030019531
-0.0024578585
-0.00052667018
-0.0026216876
-0.00079108368
-0.0027526338
-0.0010857231
-0.0028373413
-0.0013936742
-0.0028621681
-0.0016682816
-0.0028111902
-0.0018759668
-0.0026546298
-0.0019052894
-0.002374322
-0.0017268257
-0.001944914
-0.0013262038
-0.0013368701
-0.0007062902
-0.00054540698
6.8687274e-05
0.00041215335
0.00084648672
0.00148713
0.0013968344
0.002655385
0.0014645849
0.0039049528
0.00085123662
0.0051568956
-0.00045467857
0.0063098231
-0.0024045067
0.0073027594
-0.0046784243
0.0081068925
-0.0069745964
0.0087324083
-0.0090150714
0.0092337595
-0.010489538
0.0096976441
-0.011019779
0.010207311
-0.010179792
0.010830082
-0.0079571273
0.011639789
-0.0047960625
0.012605608
-0.0013092501
0.013556517
0.0013393032
0.014351552
0.0015420478
0.014959003
-0.00068379267
0.015431902
-0.004080711
0.015849097
-0.0071576954
0.016271756
-0.0087323939
0.016755437
-0.008037701
0.017302142
-0.0060159799
0.017837068
-0.0044562964
0.018288816
-0.0048493572
0.018681163
-0.0064633948
0.01906107
-0.0078352425
0.019452188