/*--------------------------------*- C++ -*----------------------------------*\
| =========                 |                                                 |
| \\      /  F ield         | OpenFOAM: The Open Source CFD Toolbox           |
|  \\    /   O peration     | Version:  2406                                  |
|   \\  /    A nd           | Website:  www.openfoam.com                      |
|    \\/     M anipulation  |                                                 |
\*---------------------------------------------------------------------------*/
FoamFile
{
    version     2.0;
    format      ascii;
    arch        "LSB;label=32;scalar=64";
    class       volScalarField;
    location    "0.09";
    object      nut;
}
// * * * * * * * * * * * * * * * * * * * * * * * * * * * * * * * * * * * * * //

dimensions      [0 2 -1 0 0 0 0];

internalField   nonuniform List<scalar> 
2065
(
0.036832861
0.041817754
0.047672659
0.054314857
0.061598617
0.069369957
0.077439645
0.085553148
0.093368301
0.10039714
0.10594819
0.10906245
0.10842214
0.10232675
0.088796154
0.066369192
0.037681151
0.016594257
0.0090377425
0.0070740061
0.0061174463
0.0054176178
0.0049933041
0.0047522994
0.0045482286
0.0043977502
0.0043346165
0.0042312332
0.0042061884
0.0040958328
0.0040435716
0.043547665
0.04867387
0.054318173
0.060559173
0.067361767
0.074613024
0.082135631
0.089675536
0.096884302
0.10326623
0.10810332
0.11041409
0.10886049
0.10174391
0.087110281
0.06380629
0.035009335
0.01528428
0.0087236809
0.0069578567
0.006066948
0.0053896735
0.004976455
0.0047424393
0.0045410027
0.0043933588
0.0043310865
0.0042297894
0.0042047421
0.0040950285
0.0040433706
0.051273356
0.056212956
0.06159103
0.067450671
0.073772921
0.080470979
0.087385276
0.094270161
0.1007738
0.10638976
0.11038482
0.11175335
0.10913628
0.10084116
0.084963292
0.060670029
0.031974789
0.014025434
0.0083984982
0.0068988055
0.0060415068
0.0053764111
0.0049676844
0.0047372348
0.0045371828
0.0043906027
0.0043291345
0.0042281883
0.0042033712
0.0040944428
0.0040431482
0.060115452
0.064666895
0.06965185
0.07505436
0.08084094
0.086926274
0.093157505
0.099293957
0.10498077
0.10970092
0.11270842
0.11297552
0.10912318
0.099472464
0.082198217
0.056839648
0.028599615
0.012869049
0.0081597307
0.0068099592
0.0059978277
0.0053530415
0.0049521506
0.0047277435
0.0045300471
0.0043858897
0.0043255676
0.004226545
0.0042019124
0.0040934868
0.0040428906
0.070083784
0.074100052
0.078578045
0.083418735
0.08857599
0.093957306
0.099406845
0.10468179
0.10942103
0.11309648
0.11494885
0.1139305
0.10864532
0.097439291
0.07860729
0.052163971
0.024928478
0.011755711
0.0079209337
0.0067273973
0.0059574066
0.0053319836
0.0049390768
0.0047194074
0.0045239994
0.0043817071
0.0043225235
0.0042246102
0.0042001085
0.0040926347
0.0040426091
0.081016277
0.084436369
0.088304325
0.09247641
0.096896316
0.10146257
0.10601148
0.11029238
0.11393376
0.1163944
0.11690083
0.11438749
0.1074462
0.094466603
0.0739202
0.046486107
0.021084515
0.010695977
0.0076901515
0.0066273757
0.0059045364
0.0053034361
0.0049212622
0.0047077537
0.0045155131
0.0043760115
0.0043182002
0.0042224366
0.0041982029
0.0040914863
0.0040423041
0.092611396
0.095400135
0.098579888
0.1019904
0.10556738
0.1092009
0.11271779
0.11585647
0.11823199
0.1192878
0.11823546
0.11399412
0.10515203
0.090173022
0.06778919
0.039693053
0.017870625
0.0097397962
0.007458058
0.0065249509
0.0058495425
0.0052741164
0.0049043085
0.0046959363
0.0045071906
0.0043702857
0.0043140233
0.0042199751
0.0041959568
0.0040903526
0.0040419811
0.10436454
0.10649564
0.10892574
0.11149576
0.11413294
0.1167182
0.11906782
0.1209075
0.12183687
0.12128273
0.11844191
0.11222318
0.10122586
0.084037914
0.059787466
0.031850771
0.014883392
0.0088786064
0.0072323138
0.0064080365
0.0057833056
0.005237484
0.0048830963
0.004680665
0.0044965617
0.0043630667
0.0043086841
0.0042171741
0.0041934486
0.0040889168
0.0040416411
0.1154589
0.11691147
0.11854197
0.12020445
0.12181602
0.12324628
0.12429882
0.12468429
0.12398503
0.1216108
0.11674677
0.1083012
0.094910939
0.07537069
0.049459094
0.023477064
0.012183727
0.0081366929
0.0070028121
0.0062846946
0.0057126585
0.0051980776
0.0048617498
0.0046642261
0.0044854717
0.0043554624
0.0043032388
0.0042139628
0.0041904867
0.0040873772
0.0040413156
0.12459947
0.12536945
0.12616096
0.12686273
0.12737928
0.12756586
0.12720939
0.12600134
0.12350422
0.11911234
0.11200811
0.10111952
0.085171241
0.06330735
0.036566451
0.017583726
0.010097771
0.00760991
0.0067764827
0.0061482428
0.0056319162
0.0051503859
0.0048355509
0.0046436329
0.0044716813
0.0043462047
0.0042965805
0.0042102236
0.0041869229
0.0040854971
0.0040410212
0.1298324
0.12991599
0.12985763
0.1295749
0.1289567
0.12784208
0.1259971
0.12308889
0.11865837
0.11209137
0.10258977
0.0891437
0.07065741
0.046932953
0.023172538
0.012826525
0.0085457062
0.0072598641
0.006537113
0.0060053358
0.0055477638
0.0050986974
0.0048074083
0.0046209585
0.0044567576
0.0043362718
0.0042896695
0.0042058005
0.0041832017
0.0040834745
0.0040407731
0.12827032
0.12765753
0.12676666
0.12552239
0.12378931
0.12138122
0.11803567
0.11338523
0.10695358
0.098144333
0.086241547
0.070390827
0.049757069
0.028136755
0.015325533
0.0097646103
0.0076276549
0.0069029963
0.0062950565
0.0058544303
0.0054539081
0.0050391903
0.0047716652
0.0045931244
0.0044383747
0.0043243774
0.0042813536
0.0042005102
0.0041794688
0.0040811153
0.0040405677
0.11573021
0.11448989
0.11284968
0.11073128
0.10798088
0.10438839
0.099651037
0.093295194
0.084884537
0.073943585
0.060079288
0.043428001
0.028297496
0.016760187
0.01057212
0.0081198913
0.0072905884
0.0065774091
0.0060691275
0.0057002617
0.0053510328
0.004979855
0.004730554
0.0045624415
0.0044182842
0.0043116111
0.0042725912
0.0041948544
0.0041755729
0.0040786565
0.0040404944
0.086557182
0.084788001
0.082529588
0.079723003
0.076201033
0.071794048
0.066377414
0.059983003
0.052351288
0.043522946
0.03378254
0.02392475
0.015868681
0.010663316
0.0083986576
0.0075761007
0.0067034866
0.0063112702
0.0058491801
0.0055422073
0.0052304604
0.0049105547
0.0046798932
0.0045258406
0.0043939763
0.0042966637
0.0042621405
0.0041886337
0.0041714472
0.0040760284
0.0040403152
0.051399322
0.050122741
0.048532332
0.046553314
0.044027173
0.040858867
0.036973925
0.032413184
0.027623751
0.022684652
0.017711172
0.013139818
0.0099093272
0.0081893513
0.0074907329
0.0068389616
0.0065299103
0.0060153746
0.0056662633
0.0053806715
0.0051021366
0.0048366097
0.0046236696
0.0044876794
0.0043675865
0.0042807031
0.0042511185
0.0041817353
0.004167116
0.0040738764
0.0040403518
0.025448384
0.024943782
0.024199545
0.023203689
0.021905736
0.020313625
0.018418296
0.016267254
0.014086931
0.011943199
0.010023923
0.0084318058
0.0075661967
0.0071581423
0.0067824481
0.0065022755
0.0060195004
0.0057802304
0.0054511502
0.0052110386
0.0049747775
0.004739119
0.0045587075
0.0044440656
0.0043365194
0.0042620417
0.0042382184
0.0041738957
0.0041625587
0.0040728962
0.0040406087
0.012437953
0.012309539
0.012044903
0.011658315
0.011155297
0.010553863
0.0098506463
0.0090780857
0.0083245417
0.0075812286
0.0070711361
0.0068030453
0.006768892
0.0064792935
0.0061217345
0.005939792
0.0057826911
0.0054558802
0.0052468785
0.0050509336
0.0048226653
0.0046440903
0.0044949267
0.0043991132
0.0043053531
0.0042420709
0.0042243214
0.0041633655
0.0041568412
0.0040726059
0.0040404982
0.0074191587
0.0073890745
0.0073136394
0.0072003207
0.0070536078
0.0068422977
0.006602758
0.0064123025
0.0063079639
0.0062716469
0.0061867326
0.006161598
0.0058786497
0.0056546239
0.0057341494
0.0056699542
0.0052541665
0.0051602122
0.0049656996
0.0048408579
0.0046719023
0.0045477328
0.0044178639
0.0043438721
0.0042740123
0.0042201596
0.0042073858
0.0041511447
0.0041412429
0.0040725579
0.0040405784
0.0057524782
0.0057333678
0.0057169458
0.0057039846
0.0056983951
0.0057254826
0.0057169754
0.0056795919
0.0056493911
0.0056039213
0.0055473908
0.0054180182
0.005402344
0.0053275555
0.0051532981
0.0050057592
0.0050288945
0.0049119483
0.0047552442
0.0046444222
0.0045581496
0.0044566947
0.0043498608
0.0042923019
0.0042452604
0.0041989404
0.0041883834
0.0041380616
0.0041222668
0.0040725153
0.0040405235
0.0052780411
0.0052735268
0.0052739983
0.0052863578
0.0052993336
0.0052769722
0.0052609096
0.0052371941
0.0051692607
0.0050871559
0.0050462891
0.0049899144
0.0049627745
0.0048703432
0.0048283074
0.004732511
0.0047680374
0.004748783
0.004631339
0.0045435252
0.0044179739
0.004359203
0.0042918099
0.0042406854
0.0042140944
0.0041768036
0.0041672462
0.0041251424
0.0041118839
0.004072134
0.0040398506
0.0049030009
0.004894212
0.0048747539
0.0048417995
0.0048127538
0.0048204667
0.0048083987
0.0047920616
0.004775423
0.0047679704
0.0047472783
0.0047119634
0.0046425106
0.0045722592
0.0045509022
0.0044904792
0.0044538655
0.0044582638
0.0044775138
0.0044271943
0.0043455926
0.0042715313
0.0042502634
0.0042101251
0.0041763319
0.0041535072
0.0041482301
0.004111643
0.0041029692
0.0040715207
0.004037423
0.0045812543
0.0045820848
0.0045807026
0.0045823261
0.0045901253
0.0045936398
0.0045858232
0.0045782468
0.0045594357
0.0045154185
0.0044935195
0.0044676111
0.0044590471
0.0044173432
0.0043824508
0.0043682427
0.0043225275
0.0043010416
0.0043827998
0.0043749779
0.0042930767
0.0042059983
0.0041978334
0.0041751962
0.0041472076
0.0041280736
0.0041311056
0.0040989851
0.0040962483
0.0040717236
0.0040382488
0.0043973837
0.0043980885
0.0043945127
0.0043850986
0.0043710377
0.0043544734
0.0043513484
0.0043471607
0.0043435165
0.0043513016
0.0043449856
0.0043276477
0.0042887965
0.0042997613
0.0042760896
0.0042575567
0.0042508457
0.0042101738
0.0042284453
0.0042772366
0.0042619739
0.004173057
0.0041415139
0.0041402544
0.0041285118
0.004109233
0.0041135251
0.0040900154
0.0040898951
0.0040717576
0.0040404784
0.0042294162
0.0042304119
0.0042291945
0.0042263868
0.0042242965
0.0042257724
0.004227872
0.004227208
0.0042226784
0.0042094179
0.0041998561
0.004192428
0.0041930032
0.00417601
0.0041843349
0.0041569414
0.0041474602
0.0041600162
0.0041609337
0.004176661
0.004204064
0.0041469096
0.0041119011
0.0041147789
0.0041023209
0.0040922939
0.0040953366
0.0040797421
0.004081155
0.0040674615
0.0040398141
0.0041489327
0.0041492578
0.0041474335
0.0041438829
0.0041405475
0.004137909
0.0041353755
0.0041325349
0.0041298843
0.0041279093
0.0041262892
0.0041242905
0.0041199664
0.0041152076
0.0041060165
0.0041053142
0.0040985122
0.0041050822
0.0041222053
0.0041237203
0.0041227259
0.0041201648
0.0040902127
0.0040847314
0.0040817248
0.0040777566
0.0040793557
0.0040673403
0.0040690654
0.0040671616
0.0040399234
0.0040944386
0.0040951298
0.0040947662
0.0040936685
0.0040926336
0.0040918879
0.0040914886
0.0040918587
0.0040924549
0.0040923632
0.0040907889
0.0040870323
0.004082593
0.0040798934
0.0040773744
0.0040728482
0.0040740511
0.0040734261
0.0040804096
0.0040965689
0.0040855906
0.0040816218
0.0040718555
0.004065407
0.0040665751
0.0040630519
0.0040650746
0.0040566098
0.0040567385
0.00406666
0.0040386197
0.004067562
0.0040680517
0.0040677815
0.0040670669
0.0040663839
0.0040658296
0.0040652956
0.004064689
0.0040639891
0.0040632852
0.0040625417
0.0040616578
0.0040612026
0.0040614906
0.0040607575
0.0040588764
0.0040579752
0.0040595525
0.00406207
0.0040717566
0.0040680871
0.0040620703
0.0040580364
0.0040565979
0.0040557402
0.0040548642
0.004056709
0.0040506628
0.0040518327
0.0040626098
0.0040386028
0.0040512244
0.0040515586
0.0040515299
0.0040513092
0.0040511191
0.0040509967
0.004050933
0.0040509464
0.004051053
0.0040511744
0.004051187
0.0040510611
0.0040508425
0.0040507579
0.0040494695
0.0040489774
0.0040494086
0.0040522287
0.0040541397
0.0040591123
0.0040592945
0.0040534279
0.0040510095
0.004051614
0.0040504719
0.0040498506
0.0040504712
0.0040462278
0.0040487621
0.0040544222
0.0040395758
0.0040448148
0.0040449043
0.0040449396
0.0040449603
0.0040449902
0.0040450018
0.004044974
0.0040449062
0.0040448122
0.004044706
0.0040446837
0.0040448072
0.004044664
0.0040446596
0.0040455077
0.004045519
0.0040456027
0.0040482607
0.0040499864
0.0040520226
0.0040504729
0.0040477184
0.004046358
0.0040457461
0.0040450413
0.004044517
0.0040442422
0.0040434746
0.0040445007
0.004049479
0.0040416297
0.0040409368
0.0040408666
0.0040407415
0.0040405851
0.004040447
0.004040359
0.0040403247
0.0040403312
0.00404035
0.0040403124
0.0040401665
0.0040399504
0.0040397685
0.0040400012
0.004040957
0.004042047
0.0040429273
0.0040454992
0.0040470922
0.0040445273
0.0040446578
0.0040437027
0.0040424444
0.0040421722
0.004041729
0.0040415074
0.0040417576
0.0040404657
0.0040412163
0.0040444474
0.004042044
0.0040410336
0.0040410122
0.0040409955
0.0040409841
0.0040409795
0.0040409831
0.0040409964
0.0040410217
0.0040410638
0.0040411187
0.00404118
0.0040411791
0.0040411196
0.0040412007
0.0040415134
0.004042024
0.0040422534
0.0040424781
0.004041546
0.0040414592
0.0040415993
0.0040412529
0.0040408519
0.0040406492
0.0040406116
0.0040407106
0.0040406975
0.0040405386
0.0040412778
0.0040447809
0.0040412908
0.00086165774
0.0018372945
0.003634964
0.0062878646
0.009788643
0.014235994
0.01971328
0.026273319
0.03402837
0.042494607
0.051838383
0.061676567
0.071336806
0.079746753
0.085261278
0.085499418
0.077257996
0.058658959
0.034604097
0.01621019
0.0084137158
0.0061164633
0.00536191
0.0049696036
0.004706204
0.0045104983
0.0044053074
0.0042875111
0.0042480034
0.0041279283
0.004059887
0.0020911356
0.0041309596
0.0067709588
0.0099487724
0.01384049
0.018546245
0.024150861
0.030964327
0.038529473
0.046957645
0.056140891
0.065643935
0.074747434
0.082321559
0.0866651
0.085361211
0.075263166
0.055124673
0.030886977
0.014467831
0.0078026651
0.0059446164
0.0053051075
0.0049402632
0.0046883015
0.0045004327
0.0043992698
0.004283492
0.0042455479
0.0041254894
0.0040587779
0.0037735203
0.0059458228
0.0086430164
0.012031553
0.016233569
0.021335675
0.027443653
0.034458671
0.042239695
0.050805001
0.059934887
0.069169771
0.077756655
0.084520064
0.087714547
0.084907276
0.073043254
0.051629736
0.027774846
0.012733258
0.0073773035
0.0058692604
0.005279169
0.0049260711
0.0046791896
0.0044948803
0.0043955296
0.0042807071
0.0042432995
0.0041232594
0.0040576848
0.0054145625
0.0078244167
0.010869047
0.01462512
0.019137426
0.024526254
0.030885576
0.037960409
0.045862826
0.054468706
0.06348939
0.072424921
0.080476489
0.086419521
0.088467336
0.084184075
0.070637414
0.048217616
0.024994979
0.011699677
0.0070501162
0.0057839955
0.0052407872
0.0049035624
0.0046647619
0.0044865508
0.0043904447
0.0042772013
0.0042410413
0.004120814
0.0040566325
0.0070563619
0.0097976788
0.013159078
0.017193989
0.021992472
0.02767506
0.034123378
0.041373526
0.049387548
0.057991359
0.066862474
0.075464925
0.082955318
0.08806241
0.088963285
0.083232228
0.068086889
0.044894384
0.022503111
0.010582964
0.0068007578
0.0057270659
0.0052163376
0.0048890012
0.004655095
0.004480666
0.0043865659
0.004274292
0.0042388791
0.0041185118
0.0040556391
0.0087760606
0.011798885
0.015422638
0.019718982
0.024838531
0.03072192
0.037343697
0.04474538
0.052828448
0.061389496
0.070075712
0.078314616
0.085220049
0.089477761
0.089234426
0.082085635
0.065432993
0.041673252
0.020289337
0.0098595972
0.0066340854
0.0056696538
0.0051865538
0.0048707408
0.0046429816
0.0044734581
0.004382102
0.0042710763
0.004236726
0.0041161284
0.00405471
0.010453264
0.013747717
0.017652209
0.022260336
0.027627462
0.033699187
0.040518465
0.048049445
0.056172484
0.06466177
0.07313564
0.08098656
0.087288577
0.090688619
0.089308657
0.080773228
0.062719133
0.038570832
0.018336545
0.0091483885
0.0064855101
0.0056253609
0.0051644915
0.0048570752
0.0046335821
0.0044676489
0.0043783284
0.0042682144
0.0042346459
0.0041138118
0.0040538379
0.012080032
0.015670115
0.019867041
0.024796228
0.030363723
0.036645494
0.043635644
0.051270486
0.05940996
0.067804572
0.076044512
0.083489052
0.089175453
0.091715756
0.0892124
0.07933492
0.059983151
0.035638178
0.016649375
0.0086540591
0.0063821755
0.0055836843
0.005140573
0.0048420498
0.0046231813
0.0044612574
0.0043743325
0.0042652353
0.0042325731
0.0041115669
0.0040530036
0.013702687
0.017571517
0.022066818
0.027245042
0.033041958
0.039528692
0.046674296
0.054395322
0.062532554
0.070814124
0.078803751
0.085829498
0.090894673
0.092579833
0.088972233
0.077798143
0.057256728
0.03290655
0.015224191
0.0082145899
0.0062927593
0.0055491222
0.0051212091
0.0048299065
0.0046144404
0.0044557196
0.0043707748
0.0042625017
0.0042305774
0.0041095105
0.0040521789
0.015275205
0.019426448
0.02422177
0.029618645
0.035654157
0.042337194
0.049623589
0.057414526
0.065533457
0.073687483
0.081415423
0.088015951
0.092461117
0.093302947
0.088623472
0.076193677
0.054579496
0.030404903
0.014051862
0.0079078149
0.0062268576
0.005517626
0.0051016297
0.0048175839
0.0046054672
0.0044499915
0.0043671582
0.0042597604
0.0042285951
0.0041076293
0.0040513688
0.016830644
0.021255745
0.026310121
0.031934482
0.038198759
0.04506224
0.05247353
0.060319482
0.068406844
0.076422781
0.083882729
0.090057656
0.093890968
0.093908638
0.088195205
0.074568025
0.051985889
0.028155178
0.013117365
0.0076544943
0.0061707175
0.0054908416
0.0050849919
0.0048072459
0.0045976807
0.0044448341
0.0043638347
0.0042572099
0.0042266671
0.0041059363
0.0040508484
0.018338515
0.023038893
0.028323468
0.034187077
0.040664715
0.047692206
0.055213988
0.063102262
0.071147798
0.079019194
0.086210021
0.091965
0.095201652
0.094427077
0.087720524
0.07296023
0.049499562
0.02617127
0.01235236
0.0074798363
0.0061275173
0.0054670255
0.005068907
0.0047973144
0.0045900303
0.0044397006
0.0043605395
0.0042547187
0.0042247629
0.0041044106
0.0040502307
0.019816946
0.024768729
0.030279
0.036367421
0.043030278
0.050215128
0.057835881
0.065755527
0.073752196
0.081476727
0.08840253
0.093749492
0.096413127
0.094880137
0.087233508
0.071406726
0.047147547
0.024459858
0.011765864
0.0073584305
0.0060916322
0.0054468782
0.0050549361
0.0047888723
0.0045832611
0.004434998
0.0043574614
0.0042523983
0.0042229049
0.004103089
0.0040493841
0.021262238
0.026440964
0.032172621
0.03846707
0.045288862
0.052624468
0.060329679
0.068272207
0.076217064
0.083797656
0.090467967
0.095428016
0.097543091
0.095286968
0.086755235
0.069934712
0.044960818
0.023018675
0.01132155
0.0072704944
0.0060639225
0.0054295738
0.0050418924
0.0047811023
0.0045769371
0.0044304444
0.0043544546
0.004250181
0.0042210746
0.0041019455
0.0040487397
0.022687365
0.028064461
0.033999081
0.040480058
0.047466135
0.054889892
0.062689587
0.070650084
0.078542571
0.08598897
0.092417416
0.097010505
0.098608988
0.095677472
0.086320157
0.068573235
0.042963062
0.021835099
0.011017098
0.0072105093
0.0060425024
0.0054154569
0.0050305571
0.0047745268
0.0045713506
0.0044262382
0.0043517146
0.004248047
0.0042193538
0.004100926
0.0040479646
0.02406555
0.029631547
0.035749326
0.042395267
0.049522983
0.057057916
0.064888967
0.07287967
0.08072741
0.088044068
0.094250205
0.098503317
0.099630336
0.096077954
0.08596035
0.067351146
0.041174359
0.020909451
0.010793968
0.0071603541
0.0060269703
0.0054038176
0.0050203628
0.0047687124
0.0045662601
0.0044222179
0.0043491579
0.0042459729
0.0042176868
0.0041000389
0.0040470192
0.025332554
0.031090028
0.0373837
0.044184403
0.051439578
0.059070833
0.066955101
0.074926305
0.082728963
0.089952102
0.095963844
0.099919252
0.10062428
0.096513068
0.08570612
0.066300122
0.039662045
0.020157847
0.01057047
0.0071148902
0.0060169212
0.0053949921
0.0050117035
0.0047638938
0.0045619295
0.0044185037
0.0043468499
0.0042439818
0.0042161238
0.0040992232
0.0040462127
0.0264779
0.032381315
0.038824796
0.045766046
0.053146992
0.060878947
0.068832503
0.076824867
0.084583159
0.091691855
0.097549441
0.10126654
0.10160666
0.097005561
0.085586432
0.065457572
0.038439989
0.019539159
0.010379331
0.0070803171
0.0060125123
0.0053886994
0.0050043324
0.004759845
0.0045581575
0.0044150136
0.0043447193
0.004242064
0.0042146363
0.004098482
0.0040456022
0.02768038
0.033647966
0.040169666
0.047200269
0.054669116
0.062479586
0.070495258
0.078522439
0.08627263
0.093321734
0.09904558
0.10253622
0.10258366
0.097575163
0.085627815
0.064863419
0.03750861
0.019024042
0.010199241
0.0070559762
0.0060138995
0.0053851303
0.0049984733
0.0047566622
0.0045549845
0.004411809
0.0043427601
0.0042402532
0.0042132261
0.0040977957
0.0040451122
0.02887379
0.034879366
0.041438124
0.048512168
0.056030558
0.063892635
0.071955001
0.080016276
0.087773819
0.094792186
0.10043151
0.10377542
0.10358271
0.098218108
0.085851562
0.06455339
0.036868618
0.018592959
0.010025241
0.0070449129
0.0060215453
0.0053842309
0.0049940769
0.0047542355
0.0045524351
0.0044088531
0.0043409645
0.0042385098
0.0042118561
0.0040971926
0.0040447184
0.030030347
0.03604139
0.042603646
0.049686796
0.057222674
0.065112399
0.073207238
0.081301862
0.08908083
0.096099265
0.10170161
0.10495668
0.10460234
0.098996395
0.0862773
0.064557214
0.036528723
0.018228487
0.0098443961
0.0070400861
0.0060353084
0.0053861267
0.0049913305
0.004752609
0.004550613
0.0044061689
0.0043393231
0.0042368269
0.0042105302
0.0040966717
0.0040444097
0.031141508
0.037120453
0.043648967
0.050707487
0.058229736
0.066133309
0.074273596
0.082427701
0.090261114
0.097287582
0.1028693
0.10607885
0.10564182
0.099885426
0.086917056
0.064899707
0.036515445
0.017911482
0.0096466733
0.0070377287
0.0060540145
0.0053907718
0.0049902778
0.0047517186
0.0045494203
0.0044037151
0.0043378736
0.0042352035
0.0042092631
0.0040962536
0.0040441725
0.032214085
0.03809639
0.044537148
0.051534513
0.059052612
0.066982072
0.075161772
0.083345351
0.091204326
0.098274344
0.10389595
0.10713505
0.10669763
0.10088895
0.087774448
0.065592368
0.036877176
0.017603626
0.0094386357
0.0070461002
0.0060763356
0.0053980067
0.0049909468
0.0047515239
0.0045486538
0.0044014785
0.0043367386
0.0042336313
0.0042081123
0.0040959749
0.0040439877
0.033249951
0.038936621
0.045190296
0.052041079
0.059472763
0.067369603
0.075559143
0.083796115
0.091740273
0.098911069
0.10463706
0.10797072
0.10760539
0.10183087
0.088662647
0.066409046
0.037464794
0.01722894
0.009228315
0.007060119
0.0061007732
0.0054079705
0.004991866
0.0047517236
0.0045481961
0.00439944
0.0043356794
0.0042322808
0.0042070303
0.0040958569
0.004043813
0.00088634345
0.0017840713
0.0034751616
0.0059863307
0.0093129951
0.013489809
0.018658549
0.024931963
0.032429732
0.040714632
0.049933885
0.059743483
0.069500056
0.078187956
0.084211114
0.085223607
0.078021895
0.060309099
0.036306231
0.016912269
0.0085456683
0.0061615016
0.0053803977
0.0049802968
0.0047132139
0.0045144253
0.0044080743
0.0042895043
0.0042497626
0.0041296742
0.0040606632
0.00094383944
0.0018399451
0.0035017658
0.0059406735
0.0091739733
0.013279753
0.018367562
0.024536069
0.031903036
0.040098362
0.049172504
0.058860005
0.068579883
0.077320755
0.083516782
0.08485403
0.07817265
0.061025781
0.037193146
0.01737231
0.0086599568
0.0061918558
0.0053939798
0.0049882782
0.0047185754
0.0045176793
0.0044104658
0.0042912632
0.0042510457
0.0041310087
0.0040614307
0.0010109404
0.0018964046
0.0035359578
0.0059288326
0.0090973546
0.013117667
0.018096199
0.024133236
0.031335613
0.039406597
0.048359545
0.057951599
0.06762666
0.076413396
0.082778731
0.084444464
0.078293353
0.06175038
0.038125989
0.017869599
0.0088009014
0.0062235995
0.0054076132
0.0049964172
0.0047240608
0.0045212669
0.0044128851
0.0042929289
0.0042527523
0.0041323197
0.0040622574
0.0010915627
0.0019598414
0.0035711864
0.0059158465
0.0090176716
0.012951396
0.01782036
0.023727978
0.030763046
0.038702348
0.047528014
0.05701562
0.066639944
0.075464821
0.081994681
0.083991097
0.078379084
0.06247594
0.039095883
0.01841394
0.0089232719
0.0062615624
0.0054242549
0.0050057691
0.0047301811
0.0045251039
0.0044156542
0.0042949686
0.0042539759
0.0041335553
0.0040631566
0.0011809532
0.0020260993
0.0036043127
0.0059001119
0.0089351476
0.012781882
0.017540593
0.023310717
0.030184873
0.037987644
0.046679371
0.056055012
0.065620139
0.074474532
0.081162477
0.083489275
0.078423674
0.063191498
0.040090516
0.019013416
0.009110594
0.0062994268
0.0054402426
0.0050150698
0.0047363905
0.0045288959
0.0044181634
0.0042966427
0.0012892919
0.0021071221
0.0036466841
0.0058902546
0.0088560927
0.012613565
0.017259851
0.022891068
0.02960256
0.037264088
0.045815222
0.0003923468
0.00046628504
0.00055948926
0.00067685884
0.00081658982
0.00029312926
0.00031812809
0.020004486
0.027376587
8.447058e-05
0.0001319247
0.00034961456
0.00041544988
4.0366397e-05
9.2833465e-05
0.00023247788
0.00061824582
0.0008556216
4.4223362e-05
9.243039e-05
0.00021542727
0.00053326634
0.0011028526
0.0020107906
0.0001132096
0.00018663276
0.00042767038
0.0010434454
0.0021399111
0.0034945985
0.00015973596
0.00028717188
0.00078729693
0.001859116
0.0032396664
0.0048747729
0.00018962447
0.00041986554
0.0012640189
0.0025991385
0.004295383
0.0062993841
0.00021182807
0.00055968792
0.0017315012
0.0033913478
0.0054047074
0.0077158704
0.0002311868
0.00071196207
0.0021698551
0.0040961989
0.006406878
0.0090433319
0.0002484651
0.00086695957
0.0025964065
0.0048229408
0.0074378604
0.010380861
0.00025801348
0.0010305959
0.0029940251
0.005487859
0.0084020193
0.011657845
0.00026961088
0.0011929659
0.0034027314
0.006177122
0.0093796722
0.012930707
0.00027968194
0.0013629399
0.0038031309
0.0068390459
0.010319028
0.01416111
0.00028848511
0.0015562678
0.0042258741
0.0075066736
0.011248467
0.015372631
0.00029532722
0.0017543307
0.0046342591
0.0081487358
0.012148751
0.016557005
0.00030110379
0.001970894
0.0050333702
0.0087707774
0.013032187
0.017728277
0.00030556923
0.0020395788
0.0052733686
0.0092810969
0.013842684
0.018853747
0.00030970917
0.002086585
0.0054278799
0.0096690528
0.014527067
0.019865542
0.00031428311
0.0022459708
0.0057499689
0.010145096
0.015208757
0.020811233
0.00031816233
0.0023180433
0.0059992541
0.010652813
0.01598555
0.021864011
0.00032164386
0.002409745
0.0062596288
0.01114157
0.016739428
0.022909171
0.00032454802
0.0024957366
0.0065113087
0.011617932
0.01747677
0.023937519
0.00032687602
0.0025784578
0.006751036
0.012071619
0.018182632
0.024935138
0.0026563211
0.006981905
0.012504624
0.01885183
0.025894179
0.0071953056
0.01290502
0.019461028
0.026781633
0.03398944
0.040831838
0.048941969
0.058275105
0.068758763
0.080191587
0.092235592
0.1043545
0.11569465
0.12492324
0.13005257
0.12816345
0.11180801
0.11500343
0.080238994
0.085443322
0.044910452
0.0500419
0.021731317
0.02452334
0.010916353
0.012024474
0.0069637874
0.0072981445
0.0057374542
0.005762182
0.0052804603
0.0052878933
0.0049187354
0.0049148952
0.0045877485
0.0045852387
0.0044031568
0.0043997896
0.0042340296
0.0042306151
0.0041530517
0.004150017
0.0040959891
0.0040943718
0.0040680039
0.0040672774
0.0040510906
0.0040509287
0.0040447419
0.0040447227
0.0040410705
0.0040409964
0.0040410744
0.004041055
)
;

boundaryField
{
    Side1
    {
        type            empty;
    }
    Inlet
    {
        type            calculated;
        value           nonuniform List<scalar> 
92
(
0.0040389652
0.0040389652
0.0040389652
0.0040389652
0.0040389652
0.0040389652
0.0040389652
0.0040389652
0.0040389652
0.0040389652
0.0040389652
0.0040389652
0.0040389652
0.0040403152
0.0040389652
0.0040389652
0.0040389652
0.0040389652
0.0040389652
0.0040389652
0.004037423
0.0040382488
0.0040389652
0.0040398141
0.0040389652
0.0040386197
0.0040389652
0.0040389652
0.0040389652
0.004042044
0.0040389652
0.0040389652
0.0040389652
0.0040389652
0.0040389652
0.0040389652
0.0040389652
0.0040389652
0.0040389652
0.0040389652
0.0040389652
0.0040389652
0.0040389652
0.0040389652
0.0040389652
0.0040389652
0.0040389652
0.0040389652
0.0040389652
0.0040389652
0.0040389652
0.0040389652
0.0040389652
0.0040389652
0.0040389652
0.0040389652
0.0040389652
0.0040389652
0.0040389652
0.0040389652
0.0040389652
0.0040389652
0.0040389652
0.0040389652
0.0040389652
0.0040389652
0.0040389652
0.0040389652
0.0040389652
0.0040389652
0.0040389652
0.0040389652
0.0040389652
0.0040389652
0.0040389652
0.0040389652
0.0040389652
0.0040389652
0.0040389652
0.0040389652
0.0040389652
0.0040389652
0.0040389652
0.0040389652
0.0040389652
0.0040389652
0.0040389652
0.0040389652
0.0040389652
0.0040389652
0.0040389652
0.0040389652
)
;
    }
    Side2
    {
        type            empty;
    }
    Outlet
    {
        type            zeroGradient;
    }
    Botwall
    {
        type            nutkWallFunction;
        blending        stepwise;
        value           nonuniform List<scalar> 0();
    }
    Cyli
    {
        type            nutkWallFunction;
        blending        stepwise;
        value           nonuniform List<scalar> 
20
(
0
8.5538549e-06
1.5128501e-05
1.9281745e-05
2.2328163e-05
2.4969484e-05
2.7311685e-05
2.8601009e-05
3.0164442e-05
3.1517246e-05
3.2701591e-05
3.362272e-05
3.4404999e-05
3.5010899e-05
3.5574815e-05
3.6190596e-05
3.6724248e-05
3.7199888e-05
3.7600475e-05
3.7925503e-05
)
;
    }
    procBoundary2to0
    {
        type            processor;
        value           nonuniform List<scalar> 
55
(
0.00048713451
0.00061749104
0.00078763956
0.0010018953
0.0012318757
0.00053210351
0.00041169647
0.00021807707
0.00023451617
0.00023451617
0.0073996105
0.013285845
0.013285845
0.020624281
0.028196835
5.3583626e-05
5.3583626e-05
8.0954871e-06
8.0954871e-06
0.00032868648
0.00032868648
0.0027265978
0.0027265978
0.035290444
0.042858562
0.051546448
0.061329785
0.072106252
0.083669245
0.095670669
0.10754325
0.11838432
0.12680509
0.13074197
0.12717875
0.12717875
0.10833974
0.075020647
0.040504135
0.019575253
0.010089622
0.006689717
0.0057204274
0.0052472813
0.0049097975
0.0045776051
0.0043991132
0.0042326048
0.0041533413
0.0040961062
0.0040680563
0.0040510374
0.0040447138
0.00404111
0.004041092
)
;
    }
    procBoundary2to3
    {
        type            processor;
        value           nonuniform List<scalar> 
35
(
0.0042558747
0.004134757
0.0040642121
0.055072428
0.064569879
0.073445083
0.080284558
0.082941463
0.078431386
0.063897217
0.041107345
0.019650036
0.0092576491
0.0063461461
0.0054601155
0.0050259936
0.0047434365
0.0045331504
0.0044213733
0.0042558747
0.0042989935
0.0014144773
0.00098387846
0.0021978428
0.0036892904
0.0058771433
0.0087727697
0.012440874
0.016975166
0.022471019
0.029015978
0.036534824
0.055072428