/*--------------------------------*- C++ -*----------------------------------*\
| =========                 |                                                 |
| \\      /  F ield         | OpenFOAM: The Open Source CFD Toolbox           |
|  \\    /   O peration     | Version:  2406                                  |
|   \\  /    A nd           | Website:  www.openfoam.com                      |
|    \\/     M anipulation  |                                                 |
\*---------------------------------------------------------------------------*/
FoamFile
{
    version     2.0;
    format      ascii;
    arch        "LSB;label=32;scalar=64";
    class       volScalarField;
    location    "0.082";
    object      k;
}
// * * * * * * * * * * * * * * * * * * * * * * * * * * * * * * * * * * * * * //

dimensions      [0 2 -2 0 0 0 0];

internalField   nonuniform List<scalar> 
8260
(
646.71807
625.61426
596.71138
561.21605
519.99341
473.85881
423.96742
371.77518
318.8975
266.79645
216.77868
169.95588
127.16808
89.057025
56.025538
28.823621
10.479379
3.2487489
1.5922485
1.103242
0.8634951
0.7276368
0.61621489
0.54312511
0.49894489
0.46749888
0.44561573
0.42957123
0.41851692
0.41152501
0.40791044
631.20607
607.45777
577.25667
541.61616
501.08614
456.28646
408.1586
357.94082
307.0793
256.94089
208.68913
163.39787
121.90523
84.888649
52.764923
26.518042
9.1856647
2.9410127
1.5193071
1.076135
0.84881009
0.71940277
0.61147858
0.54085301
0.49773042
0.46678024
0.44513899
0.42926862
0.41832379
0.41140147
0.40782911
608.37298
583.5371
553.27936
518.29791
479.02984
436.00688
390.0222
342.13829
293.61524
245.69323
199.45929
155.92667
115.92493
80.168197
49.108039
23.945666
7.9738288
2.6781655
1.4748402
1.0618459
0.84096076
0.71501414
0.60897497
0.5396658
0.49709701
0.46640511
0.44488039
0.42909803
0.4181883
0.41129457
0.40773969
577.3209
552.57073
523.31143
489.93762
452.7429
412.16993
368.89421
323.83054
278.07327
232.7364
188.84333
147.35185
109.082
74.786421
44.978448
21.095837
6.7830456
2.4369253
1.427181
1.0391373
0.82770848
0.70728635
0.60441078
0.53748083
0.49591555
0.46570032
0.44438518
0.42877162
0.41796904
0.41114599
0.40763773
538.46465
514.88363
487.41322
456.39046
421.96938
384.48154
344.48036
302.73835
260.19719
217.85128
176.65569
137.51868
101.25229
68.647342
40.310868
17.974749
5.6389734
2.2130039
1.3795791
1.0186092
0.81605224
0.70042891
0.60039533
0.5356054
0.49490434
0.46509345
0.44396268
0.42849724
0.41776789
0.41099623
0.40752154
492.32708
470.76755
445.78685
417.73743
386.67516
352.82511
316.61512
278.67422
239.79528
200.85328
162.72875
126.28063
92.316011
61.660338
35.053871
14.639446
4.6360097
2.0102815
1.3311048
0.9936133
0.80110185
0.69136014
0.59495759
0.53300087
0.49348222
0.46423423
0.44335998
0.4281042
0.41749893
0.41080862
0.40738906
439.72569
420.82821
398.90368
374.3198
347.07085
317.29325
285.29648
251.56902
216.75681
181.61045
146.92601
113.50864
82.16594
53.74805
29.186125
11.228594
3.745659
1.8319204
1.2817537
0.96850545
0.78631277
0.68221005
0.58949572
0.53041315
0.49207245
0.46337434
0.44276026
0.42771891
0.41722467
0.41060732
0.40723815
382.06456
366.19119
347.66571
326.84632
303.68741
278.25413
250.75085
221.53393
191.10568
160.08675
129.17606
99.117154
70.729564
44.868486
22.760458
7.9902469
2.994838
1.6897882
1.2313769
0.94002345
0.7689531
0.6711481
0.58282318
0.52713964
0.49027898
0.46227174
0.44198833
0.42722071
0.41688276
0.41036471
0.40706632
321.19669
308.4275
293.38268
276.39434
257.39052
236.37908
213.47356
188.90951
163.05225
136.39075
109.51633
83.101856
58.003382
35.060558
16.015411
5.5193651
2.4193429
1.5685653
1.178306
0.91060034
0.7513698
0.65947357
0.57585624
0.52364337
0.48837809
0.46109694
0.44116821
0.42669694
0.41651603
0.41009666
0.40687065
259.14314
249.33429
237.6327
224.33246
209.3466
192.63907
174.24591
154.29669
133.034
110.82318
88.145675
65.595454
44.104443
24.554222
9.613303
3.7373635
2.0064754
1.4557438
1.122512
0.87840616
0.73190196
0.64585799
0.56778768
0.5193607
0.4860355
0.45965701
0.44016035
0.42604855
0.41607021
0.40977882
0.40664743
198.05862
190.88642
182.24824
172.32948
161.03862
148.31561
134.14263
118.56908
101.74068
83.920497
65.491249
46.956718
29.421781
14.000789
5.4503136
2.6222981
1.7592414
1.3530395
1.0632338
0.84537636
0.71242319
0.63129299
0.55933673
0.51466328
0.48343441
0.45808185
0.43906341
0.42534294
0.41557718
0.40942258
0.40639218
139.94263
134.95564
128.93016
121.95295
113.92035
104.74416
94.367342
82.789044
70.097986
56.499022
42.315211
27.915066
14.945522
6.7738163
3.1953518
2.0050155
1.5741628
1.2396968
1.0020242
0.80943771
0.69175251
0.61497605
0.5498692
0.50919077
0.48028545
0.45618711
0.43775516
0.42449066
0.41498694
0.4090047
0.40606636
86.771057
83.620562
79.741202
75.159922
69.793518
63.561202
56.399405
48.309308
39.391755
29.88734
20.363692
12.399395
6.5817537
3.4339646
2.1683482
1.7115732
1.3864224
1.1424185
0.93851206
0.77499075
0.66818011
0.59802551
0.54024687
0.50337945
0.4767656
0.45408431
0.43631991
0.4235481
0.41433229
0.40853527
0.40565795
41.264266
39.398355
37.172949
34.647472
31.76068
28.449524
24.703194
20.612852
16.309489
11.9858
8.0485665
4.9923649
3.1036361
2.1624699
1.7231119
1.4465124
1.2373526
1.0247335
0.87263485
0.735969
0.64575034
0.57965096
0.52939472
0.49701557
0.47272797
0.4515554
0.43462512
0.42242437
0.41357286
0.40799342
0.4051869
14.863582
14.163081
13.345889
12.423965
11.336762
10.0733
8.7328405
7.3348773
5.9087677
4.5284252
3.3210286
2.4191192
1.909529
1.6498341
1.4714963
1.2476926
1.0632187
0.93181814
0.80720929
0.70126571
0.62013658
0.55989896
0.5190168
0.49038744
0.46830393
0.44870198
0.43275468
0.42116749
0.41274786
0.40739369
0.40466871
5.036584
4.8677407
4.6385416
4.3691373
4.0526798
3.6897314
3.2970745
2.8917341
2.4698374
2.0874597
1.7609269
1.5478422
1.4383442
1.3737748
1.197714
1.0340247
0.9353967
0.82451843
0.74065367
0.65680173
0.59617337
0.54160219
0.50727553
0.48274306
0.4633276
0.44547698
0.4304809
0.41970711
0.41181587
0.40671957
0.40412129
2.0219335
1.9904757
1.9365774
1.8651767
1.7819001
1.6883233
1.5867681
1.4831559
1.3744541
1.2950876
1.2273003
1.1682805
1.1391423
1.0533956
1.0125425
0.91488499
0.79002356
0.74262703
0.67694541
0.62005122
0.57118241
0.52160543
0.49591081
0.47522586
0.45782908
0.44186268
0.42806291
0.41809625
0.41081129
0.40598555
0.40353903
1.1389859
1.1291958
1.1144102
1.0959473
1.0750458
1.0584554
1.0421375
1.0185536
0.99718409
0.97304712
0.97211149
0.95101423
0.87587465
0.84290396
0.81691239
0.76072871
0.70324247
0.65115429
0.6166124
0.57653347
0.54476419
0.50556962
0.48416152
0.46634612
0.45185009
0.4380571
0.42515436
0.41635556
0.40967871
0.40517068
0.40285842
0.85297863
0.84738681
0.84266572
0.83772807
0.831396
0.82060207
0.80991481
0.79864764
0.79103196
0.78525798
0.76777843
0.73600748
0.73369289
0.69877609
0.67413342
0.67375462
0.62207214
0.59156811
0.5601533
0.5417973
0.52125224
0.48964233
0.47423294
0.45920964
0.44547166
0.43370003
0.42231896
0.41448644
0.40845299
0.40428796
0.40217459
0.68824166
0.68694826
0.68514946
0.6827493
0.68250125
0.68489702
0.68744616
0.68581391
0.67682196
0.65579673
0.64023904
0.63478328
0.61831357
0.61891297
0.5978608
0.57832879
0.56938504
0.54554798
0.52335818
0.51258102
0.49685086
0.47932241
0.46453223
0.45120156
0.43872073
0.42932473
0.41911176
0.41251824
0.40706622
0.40333287
0.40136743
0.5976139
0.5977635
0.5969809
0.59451953
0.58995159
0.58298512
0.57590317
0.57221222
0.56946374
0.56821393
0.56929003
0.56769848
0.55298702
0.54993695
0.55128778
0.53153115
0.5151587
0.50836971
0.49344131
0.48893331
0.47837556
0.46740881
0.45720017
0.44372624
0.4320857
0.42435654
0.41626848
0.41036632
0.40556375
0.40232724
0.4005798
0.51632273
0.51644737
0.51612934
0.51530503
0.51444887
0.51458641
0.51678249
0.51809286
0.51706329
0.51394635
0.5094832
0.50411002
0.51073347
0.49863935
0.49661029
0.49072108
0.48633109
0.47962894
0.47039579
0.46466662
0.45962227
0.45646893
0.44374248
0.43494553
0.42576682
0.41915474
0.41267665
0.40819954
0.40408287
0.40125403
0.3996946
0.4764419
0.47695267
0.47688334
0.47630875
0.47523262
0.47349689
0.47086679
0.46807803
0.46706532
0.4666104
0.46608734
0.46747046
0.46386887
0.46743055
0.45949222
0.46211807
0.45368942
0.45742828
0.45505482
0.44963743
0.44142698
0.43721152
0.43304684
0.42553827
0.41914036
0.41392066
0.40983666
0.40591857
0.40257109
0.40017295
0.39883807
0.44097307
0.44127903
0.44127443
0.44107367
0.44081477
0.44057774
0.44049261
0.44151863
0.44232605
0.44255869
0.4423222
0.44088338
0.43962422
0.43620497
0.43606631
0.43503558
0.43705997
0.43272028
0.43304224
0.42892794
0.42826986
0.42584731
0.42111245
0.41591858
0.41285254
0.40990031
0.40677038
0.40355489
0.40129059
0.39912162
0.39799443
0.42419184
0.42457211
0.42467355
0.42458031
0.42435488
0.42395803
0.42329928
0.42227725
0.42172648
0.42137518
0.42092264
0.42044059
0.42015068
0.42021834
0.42138628
0.42020259
0.42063493
0.42015107
0.41925841
0.41562072
0.41475647
0.41411649
0.41351674
0.41102656
0.40848856
0.40629815
0.40474103
0.40210165
0.40000056
0.39819419
0.39721479
0.41103913
0.41122386
0.41126075
0.4112231
0.41116683
0.41110296
0.41103981
0.41100681
0.41107312
0.41120462
0.41136393
0.411483
0.41149324
0.41164244
0.41158395
0.41166497
0.4113791
0.4105958
0.4090999
0.40880885
0.40779966
0.40849502
0.40815275
0.40788863
0.40603836
0.40435069
0.40283651
0.40068776
0.39890393
0.39741349
0.3965084
0.4050115
0.40514122
0.40513413
0.40502878
0.40486994
0.40472625
0.40464401
0.40465693
0.40475686
0.40495941
0.4051807
0.40541425
0.40573694
0.40610361
0.40714489
0.40711451
0.4069949
0.40633528
0.40518098
0.40588747
0.40543862
0.40546421
0.40512876
0.40506295
0.40458684
0.40282113
0.40128596
0.39972801
0.39799277
0.39673085
0.39605859
0.39936809
0.39943949
0.39947817
0.39952018
0.39959404
0.39970247
0.39984128
0.40000609
0.40019947
0.40045133
0.40090405
0.40154574
0.40211225
0.40238281
0.40195502
0.40174157
0.40168703
0.40229301
0.40329663
0.40361584
0.40462402
0.40353399
0.40304669
0.40194399
0.40187552
0.40087588
0.39951137
0.39839183
0.39725874
0.39635696
0.39582591
0.39744911
0.39749715
0.39753217
0.3975702
0.39762249
0.39769054
0.3977735
0.39787142
0.39798566
0.39812037
0.3982796
0.39848752
0.39873908
0.39891036
0.39892118
0.39898881
0.39921433
0.39937857
0.39970735
0.39971922
0.40001413
0.39963493
0.39981489
0.39966611
0.39935454
0.39910384
0.39847543
0.39771197
0.39689848
0.39619368
0.39571202
0.39664711
0.39667655
0.3967021
0.39673277
0.39677373
0.39682597
0.39689017
0.39696777
0.3970598
0.39716531
0.39729469
0.39748311
0.39771923
0.3978756
0.3979199
0.3979481
0.39800262
0.39807536
0.39822024
0.39828279
0.39847401
0.39844033
0.39845237
0.39853427
0.39844248
0.39830987
0.39795548
0.39743872
0.39679748
0.39631934
0.39615325
0.39659875
0.39660559
0.3966162
0.39663155
0.39665298
0.39668136
0.39671815
0.39676568
0.39682742
0.3969087
0.39701906
0.39719291
0.39741532
0.3975257
0.397541
0.39755634
0.3975984
0.3976459
0.39776184
0.39783401
0.39799884
0.3980652
0.39802569
0.39809902
0.39814037
0.39800114
0.39780714
0.39749081
0.39729346
0.39710249
0.39694991
77.01632
140.73423
222.27217
299.70155
359.23644
396.11543
410.25042
405.2619
385.92252
350.43203
307.40315
260.34742
212.3081
165.79384
122.655
84.122273
51.027765
25.051283
9.3067758
3.0391922
1.3532932
0.89384931
0.69857335
0.58482589
0.52068538
0.48069684
0.45475875
0.43580596
0.42321623
0.4149671
0.4107684
166.22832
252.91744
323.02985
373.52202
405.88545
420.3501
418.83019
405.87356
376.81239
338.15942
294.13644
247.48981
200.70463
155.84562
114.46854
77.627758
46.088557
21.793928
7.6925526
2.5574538
1.2424732
0.86244112
0.68556705
0.57839602
0.51752674
0.47899712
0.45379642
0.43525979
0.422897
0.4147937
0.41069367
246.98109
312.69681
365.72204
403.90727
425.26575
430.39941
422.00788
400.23517
366.82344
326.44076
281.98436
235.87551
190.25685
146.88218
107.07861
71.760821
41.672897
19.023393
6.5258918
2.2654274
1.1754871
0.84889551
0.67975711
0.57545903
0.51606306
0.47819011
0.45332504
0.4349798
0.4226923
0.41465214
0.41059819
316.15725
368.97406
408.04146
431.92458
440.59973
436.50232
421.41604
393.17891
356.95673
315.36878
270.75834
225.26873
180.76038
138.74319
100.36295
66.42835
37.692347
16.632913
5.5716605
2.0001673
1.1254678
0.83099781
0.67082027
0.57082067
0.51371362
0.47687905
0.45255061
0.43452494
0.42241097
0.41448787
0.41049869
368.07069
408.38621
435.50552
448.9646
449.70675
439.48228
417.02457
385.39701
347.28678
304.90277
260.35157
215.53867
172.09065
131.32313
94.237652
61.560997
34.089125
14.532032
4.7756242
1.8206794
1.0833919
0.81891494
0.6650232
0.56786893
0.51223937
0.47604017
0.45204427
0.43421922
0.42219508
0.41434174
0.41039331
408.77441
439.1818
456.60968
461.35262
455.93941
439.03733
411.9156
377.60346
338.01686
295.10689
250.74965
206.63025
164.17986
124.55679
88.645456
57.101873
30.826865
12.674344
4.1149601
1.6552416
1.0504121
0.8060425
0.65808652
0.56421395
0.51036835
0.47496293
0.45138985
0.43382574
0.42194031
0.41418329
0.41028252
440.71882
462.58335
471.96023
470.40054
458.72026
436.53896
406.32698
369.97317
329.28159
286.04867
241.95995
198.51525
156.98509
118.39884
83.543518
53.023902
27.875484
11.050201
3.5758596
1.5405915
1.0223739
0.79586839
0.65280336
0.56150723
0.50900452
0.4741595
0.45088935
0.43351711
0.42172318
0.41403502
0.41016927
465.90881
480.60675
483.48431
477.11847
459.62851
433.6299
400.79284
362.76557
321.21859
277.78728
233.9908
191.17383
150.47446
112.81448
78.898307
49.301188
25.204882
9.6457064
3.1503951
1.4426181
0.99937542
0.78597064
0.64725418
0.55858376
0.50749691
0.47325971
0.45032454
0.43316795
0.42148793
0.41388053
0.4100539
486.16655
494.81168
492.7806
481.20517
459.55721
430.52173
395.5377
356.15275
313.92691
270.36351
226.84521
184.58846
144.62191
107.77655
74.692872
45.912622
22.812012
8.4469417
2.8083766
1.3697219
0.97941404
0.77757423
0.64267601
0.55624053
0.50630118
0.47252869
0.44985343
0.43286938
0.42127525
0.41373203
0.40993695
503.09398
506.60407
500.45958
483.97295
459.12207
427.58872
390.80544
350.27846
307.47943
263.80353
220.52119
178.7424
139.40511
103.26277
70.915359
42.854522
20.670281
7.4355892
2.5422841
1.3137266
0.96239312
0.76974377
0.63820077
0.5539081
0.50508516
0.47177522
0.44936238
0.43255533
0.42105546
0.41358072
0.40981874
517.76946
516.97707
506.64291
486.36095
458.82277
425.11959
386.77372
345.24457
301.92562
258.12228
215.01312
173.61965
134.80411
99.254417
67.543212
40.110066
18.763784
6.5930433
2.3271767
1.2677129
0.94730613
0.76291689
0.63437679
0.55196813
0.50407603
0.47113602
0.4489338
0.43227376
0.42085006
0.41343322
0.4096994
530.58133
526.29645
511.97125
488.81065
458.92283
423.29245
383.56736
341.12211
297.29861
253.32725
210.31329
169.20493
130.80031
95.743541
64.557091
37.663854
17.085103
5.9007016
2.1615106
1.2312642
0.93412183
0.75671347
0.63080648
0.55013838
0.50310402
0.47051298
0.44850876
0.43199003
0.42064331
0.41328484
0.40957899
542.36761
534.82928
517.23567
491.58069
459.47451
422.24041
381.27451
337.96227
293.6217
249.4219
206.41312
165.48337
127.38163
92.703069
61.934529
35.504962
15.620505
5.3385338
2.0319714
1.2013806
0.92231974
0.75128635
0.62773194
0.54859733
0.50228122
0.46997615
0.44812999
0.43172929
0.42044648
0.41313915
0.40945757
553.49732
542.92644
522.71998
494.85103
460.69867
422.09991
379.95477
335.7995
290.91341
246.4173
203.31255
162.45869
124.53308
90.107761
59.655868
33.613341
14.356326
4.8890834
1.9350408
1.1772416
0.91184617
0.74647044
0.62496928
0.54720233
0.50152124
0.46947545
0.44776705
0.43147358
0.42025133
0.41299363
0.40933518
564.66121
551.19985
528.72567
498.89073
463.11374
422.82231
379.71092
334.70809
289.21704
244.3564
201.04008
160.12343
122.24544
87.962461
57.726073
31.966374
13.277752
4.537165
1.8653946
1.1576017
0.90246194
0.74231145
0.62262357
0.54603417
0.50087829
0.46904595
0.44744171
0.43123596
0.42006394
0.41285036
0.40921166
576.34843
560.36593
535.77173
504.05932
466.67491
425.04315
380.57016
334.78748
288.60435
243.22695
199.57869
158.4625
120.51802
86.266534
56.146272
30.558018
12.371171
4.2715795
1.812817
1.14142
0.89413585
0.73872512
0.62060704
0.54502022
0.50030853
0.4686618
0.44713819
0.43100731
0.4198803
0.41270817
0.40908665
588.20062
570.39399
543.98183
510.54027
471.56791
428.54271
382.84066
335.89418
288.93586
242.98491
198.88909
157.47764
119.34961
85.020192
54.916965
29.405886
11.640976
4.0571794
1.7644456
1.1277119
0.88678061
0.73570919
0.61895916
0.54419527
0.49983804
0.46833956
0.44686714
0.43079435
0.4197034
0.41256791
0.40896013
596.62525
578.2684
551.14769
516.82257
476.87227
432.80271
386.09094
338.15268
290.28506
243.56469
198.96828
157.17058
118.74352
84.225823
54.038253
28.519172
11.06944
3.8853141
1.7253471
1.1167645
0.88039509
0.73320542
0.61763152
0.54352369
0.49944515
0.46806546
0.4466203
0.43059263
0.41953129
0.41242903
0.40883227
603.98956
584.74016
557.16373
522.51742
482.12957
437.47124
390.05051
341.32384
292.64146
245.16291
199.88088
157.5077
118.70485
83.888791
53.511778
27.900795
10.64171
3.7485473
1.6924708
1.1082215
0.87497443
0.73119226
0.61663315
0.54302288
0.49914264
0.46784698
0.44640285
0.43040573
0.41936573
0.41229201
0.40870338
613.16259
592.62033
564.17493
528.97316
488.12782
442.96178
394.92113
345.45078
295.94983
247.65673
201.61689
158.60459
119.25092
83.994677
53.340999
27.552417
10.347575
3.6409834
1.6659195
1.1021631
0.87056241
0.72963744
0.61594079
0.54268149
0.49892202
0.46767757
0.44621089
0.43023174
0.41920593
0.41215653
0.40857358
622.22133
601.00282
571.99058
536.33935
495.06994
449.43812
400.80599
350.60516
300.25502
251.08079
204.18806
160.41183
120.39784
84.611671
53.526446
27.475698
10.182695
3.5562115
1.6444477
1.0985485
0.86723602
0.72854494
0.6155645
0.54251503
0.49879145
0.4675611
0.44604686
0.43007237
0.4190527
0.41202263
0.40844247
630.85075
609.47461
580.33741
544.52683
502.99067
456.96765
407.77913
356.83789
305.60762
255.47654
207.6253
162.95814
122.15965
85.720656
54.103468
27.687841
10.151377
3.4871699
1.6274503
1.0975086
0.86509646
0.7279274
0.61549998
0.5425187
0.49874646
0.46749306
0.4459076
0.42992581
0.41890504
0.41188975
0.40830976
638.67654
617.39476
588.57346
553.08574
511.74533
465.54046
415.85333
364.18267
312.04231
260.87817
211.96008
166.27298
124.55778
87.341252
55.069819
28.204737
10.247335
3.4230302
1.6141691
1.0983945
0.86418035
0.72777775
0.61562348
0.54262441
0.49876628
0.46746859
0.44579055
0.42979096
0.41876231
0.41175763
0.40817589
644.35465
623.33952
595.01022
560.02842
519.0917
473.07349
423.23614
371.11365
318.30026
266.27749
216.4018
169.74937
127.1311
89.129914
56.179859
28.842758
10.46241
3.3450657
1.6040378
1.1010376
0.86424957
0.72788668
0.61596966
0.54286488
0.49883717
0.46747251
0.44568965
0.42966549
0.41862375
0.41162645
0.40804175
77.056673
132.80184
208.77615
283.19925
343.24662
383.27178
401.76743
400.79405
384.61345
351.83701
310.67945
264.59528
216.81254
170.10681
126.50695
87.376347
53.597107
26.739877
10.085342
3.2083735
1.3859214
0.90177823
0.70184703
0.58652065
0.52158673
0.48119401
0.45506889
0.43599862
0.42337089
0.4150776
0.41080539
77.580849
129.62515
202.12465
274.31038
333.62138
374.21186
394.21097
395.06636
380.76583
350.03726
309.91913
264.58415
217.42081
171.06331
127.60549
88.47345
54.622748
27.532652
10.506987
3.3209953
1.4061785
0.90611213
0.70363363
0.58748307
0.52210906
0.48155735
0.45530127
0.43614488
0.42348397
0.41515164
0.41083942
78.546461
126.88496
195.35778
265.15498
323.64633
364.76281
386.23213
388.93417
376.20153
347.44018
308.78955
264.49804
217.99576
172.02531
128.73379
89.613135
55.692404
28.367803
10.963876
3.4481643
1.4285683
0.91111547
0.70574526
0.58861052
0.52273435
0.48183865
0.45548123
0.43625973
0.42359338
0.41523912
0.41088561
80.227753
124.52353
188.79917
255.94161
313.45481
354.98087
377.84475
382.3809
371.30509
344.55134
307.45454
264.28605
218.51688
172.9805
129.88549
90.793483
56.805008
29.248281
11.457293
3.5903623
1.4532933
0.91565728
0.70749752
0.58957839
0.5232598
0.48232501
0.45578771
0.43645136
0.42372896
0.41532133
0.41094088
82.485529
122.81507
182.56227
246.78787
303.13213
344.91151
369.06531
375.40346
366.05063
341.34768
305.88793
263.9242
218.96771
173.9187
131.05539
92.013184
57.959735
30.181346
11.98791
3.748938
1.4814276
0.92244101
0.71041806
0.59113064
0.52412752
0.48263653
0.45598711
0.4365786
0.42385403
0.41541397
0.41099209
85.406764
121.60936
176.89924
237.92442
292.81037
334.62571
359.92645
368.01104
360.42422
337.81352
304.069
263.39987
219.33268
174.82989
132.2384
93.271046
59.154781
31.166816
12.549017
3.9248525
1.5126122
0.92737462
0.71226312
0.59218552
0.52471037
0.48307653
0.45626248
0.43675159
0.42399654
0.41551208
0.41102854
89.006704
121.5558
171.74982
229.30113
282.49576
324.15486
350.45896
360.21864
354.40885
333.94533
301.97823
262.69171
219.59288
175.70081
133.42587
94.561639
60.385753
32.197341
13.143842
4.1196972
1.547694
0.93387913
0.7148213
0.59362297
0.52550142
0.48354939
0.4565551
0.43693417
0.42414678
0.41561587
0.41107039
93.548473
122.01476
167.4318
221.22017
272.40166
313.63113
340.73391
352.05793
348.03858
329.69242
299.58684
261.77196
219.72017
176.51253
134.60351
95.872951
61.659265
33.277482
13.798983
4.3360793
1.5870296
0.9409253
0.717618
0.5951767
0.52636795
0.48404987
0.4568631
0.43712784
0.42430522
0.41572503
0.41114308
98.958113
123.26046
163.87342
213.71684
262.60381
303.12841
330.80825
343.56096
341.29851
325.06931
296.87979
260.62138
219.6989
177.25343
135.76496
97.20209
62.97013
34.406889
14.509669
4.5762208
1.631199
0.94856766
0.72050431
0.59685641
0.52727315
0.48458675
0.45719201
0.43733221
0.42447146
0.4158394
0.4112562
105.4837
125.86813
161.41126
206.97885
253.23448
292.74829
320.75454
334.76909
334.20392
320.06731
293.83899
259.21978
219.5511
177.90851
136.89778
98.540846
64.314727
35.593946
15.271196
4.842818
1.6808441
0.95694657
0.72378418
0.5986855
0.52829434
0.48516168
0.45753518
0.43755002
0.42464628
0.41595896
0.41136702
112.9565
129.46651
159.81616
201.02375
244.38888
282.58897
310.64962
325.72618
326.79563
314.67316
290.44697
257.54219
219.19886
178.45652
137.98768
99.880135
65.686509
36.83321
16.084938
5.1389069
1.7368142
0.96613918
0.72709712
0.6007018
0.52934277
0.4857673
0.45790609
0.43778056
0.42482865
0.41608435
0.41145936
121.22815
134.28767
159.85945
196.09361
236.18993
272.74923
300.57385
316.49022
319.10077
308.89219
286.68978
255.56503
218.622
178.8751
139.01862
101.20947
67.078766
38.110439
16.944364
5.4667558
1.7999743
0.97636205
0.73102908
0.60288453
0.53055912
0.48644137
0.45828514
0.43802631
0.42501952
0.41621561
0.4115509
130.07253
140.05305
160.55389
192.15511
228.7309
263.32664
290.61159
307.12676
311.13899
302.73717
282.56275
253.26837
217.80845
179.13976
139.97271
102.51689
68.483924
39.421231
17.835846
5.8275526
1.8713469
0.98777735
0.73496775
0.60536898
0.53180578
0.48711174
0.4587021
0.43828826
0.42521707
0.41635345
0.41165519
139.18104
146.51028
162.34946
189.22253
222.07047
254.40521
280.84571
297.70317
302.93959
296.22747
278.05949
250.63404
216.73269
179.20826
140.82996
103.78927
69.893789
40.762096
18.762349
6.2248671
1.9520798
1.0007246
0.73974372
0.60801018
0.53324394
0.48792212
0.4591143
0.43856501
0.42542299
0.41649732
0.41177204
148.24458
153.46381
165.37214
187.42837
216.30618
246.07209
271.35982
288.28137
294.54165
289.39424
273.17666
247.64795
215.37763
179.11838
141.57601
105.01316
71.299031
42.124485
19.732052
6.6597319
2.0435551
1.0154033
0.74468931
0.61110054
0.53480593
0.48864978
0.45957856
0.43886576
0.42563448
0.41664775
0.41189484
156.79623
160.45106
169.01887
186.55195
211.42066
238.39366
262.24659
278.94168
285.98436
282.2742
267.9221
244.30262
213.72763
178.83588
142.19399
106.17527
72.691342
43.497868
20.749524
7.1374775
2.1473857
1.0326308
0.75056869
0.61441122
0.53645083
0.48963738
0.46002181
0.43917499
0.42585481
0.4168043
0.41202176
164.3551
166.79149
172.69416
186.44664
207.34816
231.37377
253.5469
269.7617
277.31335
274.91212
262.31513
240.59497
211.76337
178.28219
142.6614
107.26279
74.06555
44.87727
21.814883
7.6500725
2.2652538
1.0530543
0.75698584
0.61811336
0.5385234
0.49044043
0.46052924
0.43952441
0.42607915
0.41696677
0.41215162
170.42773
172.09735
176.22982
186.70239
204.08674
225.11994
245.37942
260.85026
268.62119
267.34977
256.39737
236.53868
209.48124
177.48186
142.96303
108.26371
75.418559
46.273763
22.940948
8.2303444
2.3998805
1.0771289
0.76450843
0.62256822
0.54033487
0.49160608
0.46101256
0.43986449
0.42631417
0.41713628
0.41228387
174.58795
175.75664
178.86672
187.06403
201.44991
219.64092
237.84285
252.32436
260.01952
259.66862
250.22398
232.1635
206.88777
176.42538
143.06664
109.16276
76.735769
47.688609
24.128241
8.855577
2.5529742
1.1050768
0.77272086
0.62664297
0.54307749
0.49258408
0.46154892
0.44027314
0.4265502
0.41730866
0.4124183
176.626
177.5944
180.26829
187.09884
199.10316
214.73696
230.89226
244.22757
251.62794
251.96611
243.87081
227.51545
204.00263
175.11725
143.00474
109.95078
78.002253
49.100869
25.35319
9.5149651
2.7279673
1.1379356
0.78253399
0.63281061
0.54515931
0.49381999
0.46211151
0.44064131
0.42680008
0.41749039
0.41255434
177.39692
178.42666
181.0603
187.1349
197.24431
210.61693
224.74122
236.75106
243.64334
244.39383
237.44737
222.66942
200.87153
173.58116
142.79383
110.6252
79.210403
50.504869
26.615526
10.242125
2.9275989
1.175619
0.79341399
0.6374191
0.5483686
0.49516712
0.46265288
0.44111375
0.42704539
0.41766916
0.41269106
178.29306
179.40729
182.13128
187.63265
196.41143
207.65297
219.66825
230.12344
236.26753
237.14184
231.10005
217.73035
197.55651
171.83917
142.37058
111.17746
80.355264
51.896423
27.909958
11.031547
3.1586749
1.2201802
0.80486937
0.64459306
0.55117876
0.49628766
0.46337926
0.44151639
0.42730787
0.41786287
0.41282692
180.60225
181.71895
184.3084
189.09828
196.53545
205.71861
215.67754
224.46886
229.66112
230.39291
224.98716
212.81894
194.13731
169.93694
141.79366
111.61271
81.435173
53.27166
29.228798
11.857163
3.4237495
1.2716533
0.82101352
0.65167838
0.55410882
0.49811417
0.46392037
0.44203266
0.4275603
0.41804352
0.41296102
185.3718
186.20099
188.21027
191.94145
197.63561
205.10587
212.90061
219.88136
223.92755
224.29337
219.25662
208.05966
190.70772
167.93502
141.09303
111.94269
82.452599
54.631141
30.576609
12.749598
3.7252391
1.3287631
0.83146027
0.65706263
0.55805379
0.49924009
0.46489146
0.44249594
0.42783114
0.41824554
0.41309206
192.79195
192.99169
194.03915
196.4176
200.31229
205.56678
211.26527
216.39488
219.19431
218.97177
214.04239
203.5742
187.36288
165.89824
140.30538
112.18369
83.411642
55.975203
31.960249
13.74425
4.0795608
1.3956089
0.85218743
0.66731232
0.56053471
0.50121165
0.46549254
0.44298775
0.42809295
0.41841998
0.41321913
202.26347
201.7719
201.71796
202.53019
204.44038
207.38498
211.13213
214.10261
215.55086
214.50089
209.44342
199.4644
184.18968
163.88856
139.46661
112.35075
84.313016
57.295803
33.361526
14.812166
4.4852268
1.469913
0.86929114
0.67271419
0.56466478
0.50310526
0.46660338
0.44354699
0.42837517
0.41862367
0.41334049
213.23925
212.1191
211.01021
210.32685
210.24889
210.90391
212.11935
213.22756
213.14399
210.99625
205.54585
195.8074
181.25526
161.95695
138.60886
112.46035
85.157289
58.584665
34.768355
15.932809
4.9398194
1.5517814
0.8819558
0.67726117
0.5686136
0.50455576
0.46740811
0.4439754
0.42865116
0.41879499
0.41345417
224.21718
223.0452
221.41072
219.56953
217.7619
216.20025
214.91797
213.81046
211.98403
208.51995
202.41049
192.65355
178.59963
160.13252
137.74532
112.50047
85.935019
59.830108
36.168751
17.10362
5.4601382
1.645749
0.89776379
0.68728063
0.5707857
0.50724712
0.46837145
0.44465568
0.42894834
0.41898867
0.41355811
231.80133
231.29254
230.03279
228.0744
225.5247
222.56743
219.36916
215.92901
212.1603
207.18038
200.12133
190.05177
176.24636
158.42258
136.87373
112.4755
86.632149
61.014546
37.543064
18.300027
6.0200543
1.7526248
0.91457779
0.69247715
0.57624228
0.50921233
0.46964931
0.4451433
0.42923088
0.41914972
0.41364859
232.92681
233.34286
233.04566
231.8798
229.76834
226.70991
222.81027
218.18542
212.82134
206.50502
198.45864
187.90867
174.1506
156.79877
135.97618
112.3822
87.229842
62.116371
38.872752
19.507345
6.6349555
1.8729301
0.92720218
0.69726568
0.57964712
0.5107814
0.47052094
0.44573811
0.42952483
0.41931391
0.41372398
229.93364
231.23504
231.69982
231.24132
229.75469
227.10797
223.34342
218.51501
212.68638
205.65046
196.88215
185.89517
172.11665
155.14547
134.98286
112.16338
87.716094
63.125519
40.146458
20.713512
7.3029131
2.00897
0.93953414
0.69954471
0.58162235
0.51413117
0.47212699
0.44649673
0.42985979
0.41945334
0.41377863
220.67645
223.9378
226.31801
227.37903
227.00055
225.15477
221.97973
217.36467
211.36874
203.87044
194.67804
183.46359
169.77533
153.2291
133.74306
111.70388
87.996772
63.997704
41.346439
21.910611
8.0241153
2.165314
0.95278779
0.70154927
0.58625491
0.51594787
0.47311346
0.44688144
0.4301163
0.41958724
0.41381077
205.2679
209.36523
213.13511
216.17034
217.99597
218.26987
216.55468
212.88883
207.29675
199.91376
190.89919
179.94865
166.68197
150.76499
132.0787
110.90566
87.988369
64.694404
42.455342
23.091289
8.8015989
2.3482986
0.96833091
0.70330336
0.58887052
0.5179392
0.47497604
0.44777519
0.43056632
0.41968531
0.41381418
189.66641
193.67545
197.51522
200.86804
203.41563
204.76964
204.65834
202.74895
198.8442
192.90245
184.97522
174.91707
162.51001
147.51578
129.84433
109.71761
87.804933
65.226308
43.467666
24.249386
9.641978
2.5656675
0.98824552
0.704176
0.59089311
0.52195956
0.47671559
0.4484879
0.43075626
0.41975221
0.4137838
177.25028
180.68222
184.02776
187.07729
189.588
191.24915
191.77891
190.88432
188.28658
183.78656
177.22279
168.4328
157.23809
143.44826
126.99644
108.0749
87.283875
65.556671
44.37627
25.386764
10.553226
2.8267331
1.0149786
0.7053869
0.59280426
0.5241304
0.47755078
0.44900954
0.431036
0.41980952
0.41371644
169.78311
172.40273
174.93082
177.24149
179.15625
180.43814
180.86702
180.19112
178.13471
174.462
168.93483
161.30488
151.34073
138.83555
123.68785
106.05025
86.420322
65.680365
45.181336
26.507319
11.52667
3.1437323
1.0508098
0.70661206
0.59500778
0.52607824