/*--------------------------------*- C++ -*----------------------------------*\
| =========                 |                                                 |
| \\      /  F ield         | OpenFOAM: The Open Source CFD Toolbox           |
|  \\    /   O peration     | Version:  2406                                  |
|   \\  /    A nd           | Website:  www.openfoam.com                      |
|    \\/     M anipulation  |                                                 |
\*---------------------------------------------------------------------------*/
FoamFile
{
    version     2.0;
    format      ascii;
    arch        "LSB;label=32;scalar=64";
    class       volScalarField;
    location    "0.007";
    object      k;
}
// * * * * * * * * * * * * * * * * * * * * * * * * * * * * * * * * * * * * * //

dimensions      [0 2 -2 0 0 0 0];

internalField   nonuniform List<scalar> 
86779
(
699.007
685.5875
670.00401
652.74765
634.1156
614.34002
593.64866
572.26658
550.40481
528.2567
505.99413
483.76512
461.69449
439.88482
418.41319
397.33802
376.70398
356.54549
336.89159
317.76826
299.19739
281.19685
263.77897
246.95128
230.7176
215.07905
200.03534
185.5826
171.71594
158.42962
145.71706
133.57106
121.98407
110.94839
100.45639
90.500571
81.07382
72.170026
63.782734
55.903924
48.534794
41.675196
35.324628
29.486053
24.168088
19.386428
15.168379
11.55516
8.5969967
6.3393456
4.7710891
3.7708358
3.152611
2.7533441
2.4683821
2.2459332
2.0610051
1.9019199
1.7627147
1.6394404
1.5299194
1.4321691
1.3440593
1.2645566
1.1927745
1.1272844
1.0675986
1.0134382
0.96383781
0.91885338
0.87850258
0.84183675
0.80834652
0.77818061
0.7509416
0.72573707
0.70251066
0.68144917
0.661989
0.64394094
0.6275175
0.61226293
0.59821105
0.58546717
0.57359089
0.56238298
0.55201612
0.54229078
0.53295737
0.52421356
0.51597437
0.50817
0.50088965
0.49410629
0.48779318
0.48194099
0.47651657
0.47148601
0.466833
0.46254826
0.45862289
0.4550207
0.45168646
0.44856879
0.44562753
0.44283127
0.44015754
0.43759809
0.43515921
0.43284988
0.4306833
0.42866724
0.42681042
0.42510842
0.42354253
0.42209636
0.42076082
0.41953679
0.41842099
0.41740694
0.41649877
0.41570093
0.41503221
0.41447078
0.41408352
0.41371815
0.41366137
690.54277
675.77763
659.16053
641.20099
622.13785
602.15119
581.42432
560.15009
538.50981
516.67016
494.77993
472.96815
451.34374
429.99586
408.99247
388.38555
368.21363
348.50519
329.28473
310.57488
292.39569
274.76549
257.69826
241.20291
225.28439
209.94483
195.18421
181.00023
167.38875
154.34487
141.86285
129.9363
118.55846
107.72239
97.421194
87.648118
78.396788
69.661842
61.438366
53.716681
46.498659
39.78886
33.585443
27.892696
22.721472
18.090718
14.032539
10.594239
7.8322214
5.7838634
4.4064217
3.5480042
3.0163514
2.6627757
2.4022046
2.1933635
2.017014
1.8640896
1.7297894
1.6105631
1.5045409
1.409876
1.3244231
1.2472099
1.1774788
1.1137951
1.0556079
1.0027987
0.9543676
0.91030233
0.87078696
0.83493056
0.80212985
0.77259445
0.74592992
0.72125092
0.6984742
0.67780338
0.65870948
0.64096124
0.62480928
0.60981454
0.59597519
0.58342593
0.57174536
0.56070556
0.55049614
0.54093385
0.53173298
0.5231099
0.51498589
0.50727382
0.5000763
0.4933681
0.48711953
0.48132443
0.47595223
0.47096876
0.46635911
0.46211432
0.45822537
0.45465669
0.45135283
0.44826266
0.44534655
0.44257332
0.43992112
0.43738222
0.43496343
0.43267346
0.43052511
0.4285257
0.42668307
0.42499279
0.42343604
0.42199631
0.42066474
0.41944334
0.4183302
0.41731971
0.41641562
0.41562223
0.41495723
0.41439942
0.41401395
0.41366187
0.41359569
679.75847
664.11341
646.86271
628.48027
609.18473
589.1409
568.50958
547.45283
526.12427
504.66581
483.20527
461.85465
440.70923
419.84704
399.32868
379.20032
359.49634
340.24265
321.46147
303.17338
285.39726
268.15052
251.44718
235.2969
219.70556
204.67615
190.20961
176.30456
162.95779
150.16536
137.9224
126.22338
115.06238
104.4333
94.330019
84.746609
75.67749
67.118047
59.064493
51.506994
44.448696
37.896729
31.8491
26.312587
21.300644
16.836363
12.957308
9.7161211
7.1688725
5.3340768
4.1326995
3.3900705
2.9218127
2.6001075
2.3559316
2.1565138
1.9863788
1.8380607
1.7074698
1.5912939
1.4878661
1.3954391
1.3118974
1.2362999
1.1679715
1.1055325
1.0483636
0.99644657
0.94880591
0.90535835
0.86637672
0.83104149
0.79864821
0.76941929
0.74308157
0.71871651
0.69616914
0.6756986
0.6568242
0.63923392
0.62322278
0.60837945
0.59464105
0.5821894
0.57063315
0.55969275
0.54957561
0.54012661
0.53101203
0.52246191
0.51441197
0.50675222
0.49959832
0.49293006
0.48671355
0.48094578
0.47559922
0.47063892
0.46605054
0.46182524
0.45795423
0.45440304
0.45111609
0.44804214
0.44514162
0.44238331
0.43974558
0.43722077
0.43481594
0.43253944
0.43040359
0.42841535
0.42658182
0.42489874
0.42334724
0.42191061
0.42058013
0.41935887
0.4182463
0.41723759
0.41633604
0.41554573
0.41488329
0.41432812
0.41394396
0.41358132
0.41352848
666.57588
650.32194
632.75178
614.23168
594.94438
575.03953
554.6612
533.94951
513.03644
492.04403
471.0828
450.25041
429.63062
409.2926
389.29098
369.6678
350.45479
331.67652
313.35399
295.50648
278.15193
261.30679
244.9848
229.19609
213.94735
199.24249
185.08366
171.47014
158.3999
145.86998
133.87646
122.41477
111.47989
101.06661
91.169711
81.78411
72.905078
64.528817
56.652365
49.267011
42.377441
35.991915
30.109181
24.739135
19.898121
15.613688
11.928516
8.8983675
6.5726863
4.9440229
3.8994469
3.253265
2.8362049
2.5404175
2.3100555
2.1189712
1.9545597
1.8106043
1.6836051
1.5704218
1.4695628
1.3793821
1.2977929
1.223858
1.1569854
1.0958675
1.0397844
0.98882636
0.94205501
0.89928276
0.86088891
0.82614411
0.79423706
0.76539532
0.73944596
0.71546386
0.6932172
0.67299757
0.65439245
0.63701286
0.62118253
0.60653413
0.59293814
0.58061351
0.56920902
0.55839605
0.54839346
0.53907762
0.53007105
0.52161231
0.51365429
0.50606456
0.49897054
0.49235793
0.48618813
0.48046063
0.47515141
0.47022504
0.46566772
0.46147093
0.45762585
0.45409875
0.45083407
0.44778078
0.44489959
0.44215952
0.43953938
0.4370317
0.43464386
0.43238382
0.43026328
0.42828884
0.42646675
0.42479279
0.42324811
0.42181588
0.42048765
0.41926752
0.41815644
0.41715038
0.41625223
0.41546578
0.41480659
0.41425458
0.41387203
0.41351544
0.41345991
651.3544
634.74764
617.08705
598.64217
579.55417
559.95142
539.9604
519.7033
499.29494
478.84155
458.43974
438.17537
418.12274
398.34387
378.88872
359.7964
341.09715
322.81493
304.97015
287.58135
270.66571
254.23896
238.31454
222.9029
208.01144
193.64507
179.80692
166.49707
153.71482
141.45821
129.72433
118.50959
107.80996
97.621194
87.939
78.759234
70.078051
61.892597
54.200298
46.99479
40.282544
34.071638
28.362432
23.168282
18.508727
14.415931
10.937146
8.1287649
6.0279396
4.5967363
3.6932408
3.1301124
2.7565093
2.4830338
2.2650015
2.0816944
1.922815
1.7831705
1.6597756
1.5496163
1.4513457
1.3634288
1.2838269
1.2115759
1.1461623
1.0863866
1.0314031
0.98140411
0.93552038
0.89343422
0.8556227
0.82146866
0.79004638
0.76157512
0.73599759
0.71239194
0.69043617
0.67044941
0.65210344
0.63492872
0.61926552
0.60480585
0.59134409
0.57913345
0.56787383
0.55718307
0.54728668
0.53809816
0.52919702
0.52082345
0.51295245
0.50542863
0.49838926
0.49182802
0.48570116
0.48001006
0.47473459
0.46983908
0.46530977
0.46113853
0.45731653
0.45381083
0.45056601
0.44753126
0.4446676
0.44194434
0.43934067
0.43684923
0.43447761
0.43223326
0.43012724
0.42816577
0.42635429
0.42468865
0.42315004
0.42172158
0.42039507
0.41917568
0.41806581
0.41706221
0.41616735
0.41538465
0.41472862
0.41417968
0.41379875
0.41343576
0.41338982
634.35545
617.64654
600.09148
581.89062
563.1515
543.98074
524.48684
504.77572
484.94758
465.09563
445.30508
425.65221
406.20358
387.01558
368.13445
349.5973
331.43356
313.66706
296.31815
279.40504
262.94448
246.95173
231.44001
216.42004
201.89986
187.8853
174.38011
161.38583
148.90278
136.93008
125.46585
114.50757
104.05224
94.09662
84.637423
75.671482
67.195906
59.208984
51.707826
44.689879
38.1635
32.135163
26.608123
21.599288
17.131776
13.242527
9.9826503
7.4061008
5.5316639
4.2879015
3.5105075
3.0186648
2.6819107
2.4276699
2.2206745
2.0446298
1.8910714
1.7556425
1.6358166
1.5286688
1.432961
1.3472875
1.2696804
1.1991121
1.1351448
1.0767197
1.0228427
0.97380027
0.92882055
0.8874304
0.85019876
0.81664037
0.78571791
0.75762334
0.73241691
0.70919868
0.68754626
0.66779335
0.64971156
0.63275434
0.6172606
0.60299787
0.58967971
0.57758371
0.5664723
0.55591041
0.54612231
0.53706333
0.5282746
0.51998889
0.51220799
0.50475479
0.49777315
0.49126674
0.48518652
0.47953476
0.47429557
0.4694335
0.46493445
0.46079072
0.45699346
0.45351033
0.45028618
0.4472706
0.44442499
0.44171911
0.43913262
0.43665821
0.43430366
0.43207588
0.42998514
0.42803732
0.42623698
0.42458005
0.4230478
0.42162334
0.42029882
0.41908042
0.41797202
0.41697118
0.41607993
0.41530128
0.41464866
0.41410298
0.41372379
0.41336265
0.41331823
615.82511
599.23744
581.95749
564.13948
545.86791
527.23109
508.32104
489.229
470.04238
450.84327
431.70735
412.70297
393.89041
375.32148
357.03957
339.08028
321.47266
304.24068
287.40492
270.98363
254.99343
239.44934
224.36452
209.74992
195.61421
181.964
168.80396
156.13681
143.96395
132.28556
121.1009
110.40852
100.2065
90.492668
81.264791
72.520715
64.258588
56.478113
49.175459
42.352912
36.020998
30.183283
24.847548
20.03408
15.770056
12.097282
9.0695329
6.7340206
5.084494
4.0153816
3.348698
2.9172587
2.6115913
2.3739891
2.1769594
2.0077548
1.8593456
1.7280536
1.6117716
1.5076366
1.4144719
1.3310265
1.255431
1.1865529
1.1240269
1.0669652
1.0142086
0.96612584
0.92206947
0.8813914
0.84474008
0.81178005
0.7813714
0.75365727
0.72881681
0.70599075
0.68464865
0.66512684
0.64730772
0.63057608
0.61524937
0.60118537
0.58801596
0.57603086
0.56506609
0.5546362
0.544955
0.53602375
0.52735155
0.51915305
0.51146156
0.50408076
0.49715664
0.49070525
0.48467246
0.47906031
0.47385737
0.469029
0.46456027
0.46044392
0.45667114
0.45321008
0.450006
0.447009
0.44418091
0.44149208
0.43892267
0.43646536
0.43412802
0.43191695
0.42984156
0.42790733
0.42611806
0.42446967
0.42294359
0.42152298
0.42020039
0.41898296
0.41787609
0.41687809
0.41599058
0.4152161
0.41456698
0.4140246
0.41364725
0.41328533
0.41324505
596.0173
579.72946
562.86405
545.54169
527.83151
509.80763
491.54813
473.1315
454.63403
436.12825
417.6817
399.35606
381.20638
363.28071
345.6201
328.25905
311.22635
294.54627
278.23974
262.32531
246.81966
231.73785
217.09311
202.89669
189.15781
175.8839
163.0806
150.75167
138.89961
127.52571
116.63034
106.21316
96.273403
86.809995
77.821788
69.307681
61.266939
53.700705
46.605006
39.986159
33.856642
28.218329
23.083873
18.476834
14.429031
10.986971
8.20494
6.1174751
4.6869359
3.7766589
3.205194
2.8243134
2.5448154
2.321701
2.1337588
1.9710457
1.8276417
1.700413
1.5876459
1.4865257
1.3958776
1.3146372
1.2410641
1.1738795
1.1127884
1.057096
1.0054725
0.95835123
0.91523186
0.87528149
0.83921015
0.80684578
0.77696609
0.74963908
0.72515894
0.70272827
0.68170508
0.66241499
0.6448566
0.62836074
0.61320069
0.59933697
0.58632465
0.57444883
0.56362906
0.55333624
0.54376223
0.53495709
0.52640724
0.5182967
0.51069469
0.50338983
0.4965245
0.49012946
0.48414627
0.47857528
0.47340961
0.46861624
0.46417888
0.46009068
0.45634294
0.45290419
0.44972019
0.44674169
0.44393102
0.44125932
0.43870725
0.43626745
0.43394778
0.43175387
0.42969421
0.42777385
0.42599581
0.42435606
0.42283618
0.42141946
0.42009892
0.41888262
0.41777745
0.41678251
0.41589897
0.41512883
0.4144834
0.41394443
0.41356902
0.41320903
0.41317024
575.15696
559.31616
542.97721
526.23969
509.16359
491.81253
474.25338
456.55399
438.78115
420.99914
403.26851
385.6452
368.17982
350.91723
333.8965
317.15117
300.70987
284.59714
268.83435
253.44041
238.43229
223.82521
209.63264
195.86618
182.53563
169.64923
157.21356
145.23342
133.71234
122.65275
112.05613
101.92332
92.254664
83.050265
74.310106
66.034181
58.22295
50.878845
43.998777
37.592573
31.673746
26.244377
21.32209
16.933795
13.116446
9.920517
7.397177
5.5608389
4.3381185
3.5685073
3.0773349
2.7383778
2.4809452
2.2705644
2.0909966
1.9344873
1.7959703
1.6727374
1.5634514
1.465352
1.3771916
1.2981296
1.2265857
1.1610983
1.1014403
1.047119
0.99664525
0.95049011
0.90831768
0.8691145
0.83362561
0.80185077
0.77251677
0.74558634
0.72146026
0.69942482
0.67872881
0.65967369
0.6423719
0.62612172
0.61112843
0.59746375
0.58461754
0.57284985
0.56217145
0.55202074
0.54255429
0.53387219
0.52545019
0.51742812
0.5099146
0.50268909
0.49588339
0.48954531
0.48361341
0.47808479
0.47295692
0.46819943
0.46379411
0.45973443
0.4560119
0.45259537
0.44943116
0.44647084
0.44367728
0.44102257
0.43848793
0.4360659
0.43376421
0.43158776
0.42954404
0.42763764
0.42587087
0.4242397
0.42272596
0.42131311
0.41999468
0.41877963
0.41767631
0.41668458
0.41580519
0.41503956
0.41439793
0.41386244
0.41348906
0.41313166
0.41309373
553.44778
538.18318
522.45065
506.36429
489.97627
473.34183
456.51882
439.56635
422.5432
405.50657
388.51097
371.60735
354.84246
338.25836
321.89236
305.77712
289.94104
274.40891
259.20248
244.34108
229.84204
215.72088
201.9914
188.66564
175.75399
163.26549
151.20763
139.58622
128.40583
117.66998
107.3813
97.541786
88.152958
79.216101
70.732399
62.703009
55.129705
48.015681
41.36004
35.176076
29.477111
24.267141
19.56896
15.413223
11.842128
8.9084143
6.6545995
5.0668354
4.0355643
3.3872181
2.9625734
2.6581778
2.4194501
2.220389
2.0486187
1.8980716
1.7643472
1.6450482
1.5392002
1.4441286
1.3584247
1.2815125
1.2119959
1.1482084
1.0899866
1.0370317
0.98772759
0.94254407
0.90132131
0.86288764
0.82798573
0.79678953
0.76801856
0.74149663
0.71771764
0.69607322
0.67571259
0.65689925
0.63984834
0.62385336
0.60902828
0.59555909
0.58288928
0.57123018
0.56068804
0.55068506
0.5413274
0.53276433
0.52447582
0.51654336
0.50911703
0.50197487
0.49523011
0.48894966
0.48307101
0.47758634
0.47249703
0.46777648
0.46340411
0.4593735
0.45567652
0.45228226
0.44913769
0.4461953
0.44341863
0.44078086
0.43826382
0.43585991
0.43357658
0.43141793
0.42939044
0.42749814
0.42574271
0.42412015
0.42261252
0.42120357
0.41988739
0.41867378
0.4175725
0.41658418
0.41570915
0.41494818
0.4143105
0.41377857
0.41340732
0.41305193
0.41301547
531.09157
516.48339
501.41832
486.03218
470.37125
454.48421
438.4218
422.23601
405.97893
389.70174
373.45372
357.28148
341.22833
325.33385
309.6337
294.15967
278.93987
263.99918
249.35969
235.04112
221.06119
207.43578
194.17911
181.30369
168.82053
156.73943
145.0688
133.81541
122.98488
112.58179
102.60991
93.072392
83.971956
75.311105
67.092281
59.317922
51.991337
45.115355
38.693308
32.742103
27.272918
22.293901
17.833121
13.925451
10.617836
7.962098
5.9844976
4.6358554
3.7753532
3.2288822
2.8585745
2.5826256
2.3598982
2.1710284
2.0065888
1.861796
1.7327925
1.6173718
1.5149057
1.4228665
1.3395871
1.2647982
1.1972955
1.1352112
1.0784348
1.026835
0.97872533
0.93451955
0.89424114
0.85660363
0.8222964
0.79166432
0.76347393
0.73737482
0.71393598
0.69267415
0.67265698
0.65409606
0.63728899
0.62155745
0.60690358
0.59362388
0.58114129
0.5695931
0.55918056
0.54933104
0.54008415
0.53163503
0.52348514
0.5156439
0.50830299
0.50124831
0.49456605
0.48834357
0.48252005
0.47708098
0.47203089
0.46734825
0.4630097
0.45900865
0.45533746
0.45196543
0.4488403
0.44591554
0.44315547
0.44053454
0.43803523
0.43564976
0.43338512
0.43124457
0.42923354
0.42735543
0.42561137
0.42399738
0.42249585
0.42109082
0.41977704
0.41856506
0.41746603
0.41648132
0.41561084
0.41485468
0.41422106
0.41369276
0.41332374
0.41297061
0.41293541
508.25475
494.35297
479.99893
465.34762
450.44058
435.32128
420.03481
404.6274
389.14562
373.63554
358.14196
342.70769
327.37302
312.17523
297.14845
282.32353
267.72821
253.38735
239.32324
225.55594
212.10351
198.98226
186.20683
173.79024
161.74412
150.07903
138.80426
127.92751
117.45542
107.39365
97.747079
88.520012
79.716372
71.339912
63.394385
55.883652
48.812935
42.183423
36.004769
30.297476
25.068732
20.333676
16.125286
12.482989
9.4570266
7.0930458
5.3919393
4.2656731
3.5525126
3.0896536
2.763277
2.5108159
2.301947
2.1223751
1.9648868
1.8256621
1.7013292
1.589739
1.4905838
1.4015714
1.3206851
1.2480012
1.1824859
1.1221094
1.0667934
1.0165301
0.96964484
0.92642174
0.8870734
0.85026323
0.81656127
0.78647602
0.75888238
0.73322199
0.71011705
0.6892253
0.66955952
0.65126508
0.63469407
0.61923211
0.60475432
0.59165609
0.57937139
0.56793873
0.55764802
0.54795754
0.53882422
0.53048316
0.5224762
0.51472861
0.50747117
0.5005082
0.49389045
0.48772617
0.48195964
0.47656802
0.47155793
0.46691417
0.46261041
0.45863946
0.45499431
0.45164452
0.44853862
0.44563122
0.44288749
0.44028331
0.43780189
0.43543519
0.43318959
0.43106743
0.4290731
0.42720927
0.42547661
0.42387118
0.42237572
0.42097468
0.41966349
0.41845338
0.41735683
0.41637595
0.4155102
0.41475899
0.41412957
0.41360497
0.41323826
0.41288728
0.41285346
485.07851
471.9144
458.30009
444.40579
430.26904
415.92899
401.42615
386.80208
372.09876
357.35801
342.62078
327.92659
313.31301
298.81525
284.46591
270.29493
256.32952
242.59439
229.11192
215.90239
202.98421
190.37404
178.08695
166.1365
154.53491
143.29349
132.42237
121.93019
111.82456
102.11219
92.799059
83.890635
75.392043
67.308299
59.644503
52.406068
45.600187
39.227403
33.302982
27.849933
22.873823
18.397606
14.458517
11.100575
8.3743254
6.3115154
4.8787492
3.9516122
3.3615198
2.9659602
2.6749234
2.4420158
2.2453334
2.0743554
1.9235064
1.7896767
1.6699812
1.5621819
1.4662542
1.380243
1.3017199
1.2311389
1.1675704
1.1089094
1.0550723
1.00612
0.96049383
0.91825598
0.87981533
0.84386801
0.81078471
0.78122801
0.75424378
0.72903882
0.70626369
0.68572646
0.66641983
0.64840827
0.63206561
0.61687645
0.60258167
0.58965567
0.5775783
0.56626834
0.55609123
0.54656469
0.53754854
0.52930917
0.5214481
0.51379746
0.50662155
0.49975431
0.49320356
0.48709758
0.48138974
0.47604755
0.4710783
0.46647436
0.46220637
0.45826606
0.45464716
0.45131959
0.44823274
0.4453424
0.44261475
0.44002721
0.43756381
0.43521621
0.43298998
0.43088647
0.42890904
0.42705956
0.4253383
0.42374139
0.42225201
0.42085504
0.41954665
0.41833871
0.41724488
0.41626804
0.41540722
0.41466109
0.41403596
0.41351512
0.41315082
0.41280199
0.41276958
461.69015
449.28017
436.42144
423.29543
409.93612
396.379
382.66075
368.81906
354.89212
340.91817
326.93487
312.97887
299.0853
285.28745
271.61648
258.1013
244.76855
231.64264
218.74591
206.09876
193.71984
181.62614
169.83316
158.35494
147.20429
136.39325
125.93275
115.83232
106.10056
96.745185
87.773278
79.19144
71.006009
63.223294
55.84979
48.892594
42.360738
36.25543
30.597021
25.409612
20.700122
16.499414
12.848498
9.7950171
7.3845305
5.62497
4.442911
3.6871169
3.1968029
2.8546465
2.5920627
2.3756483
2.1898628
2.0269242
1.8824544
1.7538547
1.6387691
1.5347279
1.4419421
1.3588747
1.2826886
1.2142297
1.1525569
1.0956229
1.0432819
0.99561012
0.95127923
0.91002674
0.87246597
0.83741939
0.80497045
0.77592507
0.74955613
0.72482329
0.70237796
0.68217835
0.66323811
0.64552622
0.62940518
0.61448857
0.60038594
0.5876228
0.57575966
0.56458216
0.55451092
0.54515185
0.53625714
0.52811313
0.52039909
0.51284973
0.50575375
0.49898574
0.49250513
0.4864575
0.48080988
0.47551923
0.47059182
0.46602855
0.46179736
0.45788829
0.45429585
0.45099047
0.44792248
0.44504892
0.44233711
0.43976611
0.43732086
0.4349927
0.43278617
0.43070155
0.4287412
0.42690613
0.42519625
0.42360783
0.42212454
0.42073175
0.41942643
0.41822096
0.41713014
0.41615757
0.41530184
0.41456092
0.41394019
0.41342316
0.41306133
0.41271468
0.41268369
438.20535
426.55397
414.45573
402.09972
389.51683
376.73928
363.80054
350.73503
337.57776
324.36389
311.12828
297.90503
284.72709
271.62593
258.6313
245.77108
233.0712
220.55568
208.24667
196.1646
184.32826
172.75492
161.46043
150.45931
139.76492
129.38999
119.34622
109.64404
100.29295
91.301692
82.678419
74.430872
66.566614
59.093279
52.018845
45.352251
39.103748
33.277065
27.897761
22.989145
18.562273
14.655616
11.313602
8.5845877
6.5009687
5.0364982
4.0786457
3.4645741
3.0531542
2.7530434
2.5135321
2.311273
2.135399
1.9800604
1.8417481
1.7182241
1.6077047
1.5073901
1.4176779
1.337458
1.2635901
1.1972915
1.1374593
1.0822663
1.0314316
0.98500846
0.94200457
0.90173766
0.86502857
0.83091848
0.799122
0.77057422
0.74481567
0.72057116
0.698462
0.67858392
0.66001611
0.64261858
0.62671451
0.61206663
0.59816748
0.58555907
0.57391308
0.56288014
0.55290874
0.54371842
0.53495002
0.5268958
0.51932763
0.51188487
0.50486789
0.49820175
0.49179509
0.48580594
0.4802198
0.47498287
0.47009846
0.46557668
0.46138333
0.45750613
0.45394035
0.45065711
0.4476078
0.44475075
0.44205454
0.43949999
0.43707302
0.43476461
0.43257808
0.43051257
0.42856946
0.42674882
0.4250503
0.42347033
0.42199314
0.42060469
0.41930272
0.41810009
0.41701258
0.4160445
0.41519405
0.41445843
0.41384218
0.41332901
0.41296973
0.41262525
0.41259574
414.72877
403.83066
392.48859
380.8962
369.08157
357.07414
344.90453
332.60439
320.20598
307.74181
295.24428
282.74521
270.27554
257.86506
245.54211
233.33349
221.26434
209.35817
197.63685
186.12071
174.8286
163.77798
152.98502
142.46464
132.23074
122.29669
112.67494
103.37676
94.412556
85.792073
77.524515
69.618763
62.083619
54.928096
48.161807
41.795786
35.83998
30.304155
25.219009
20.603788
16.477768
12.885865
9.8747035
7.4877117
5.7332779
4.5437627
3.7772051
3.2761764
2.9260169
2.6589776
2.4384236
2.248565
2.0818527
1.933761
1.8014129
1.682829
1.5767829
1.4801611
1.3934969
1.3159907
1.2444374
1.1803387
1.1222985
1.0688574
1.019527
0.97432664
0.93266698
0.89339154
0.85751281
0.82436474
0.79324245
0.76518463
0.74001671
0.71627636
0.69451794
0.67494822
0.65675634
0.63968343
0.62399472
0.60960872
0.59592646
0.58346711
0.5720359
0.56116143
0.55128675
0.54226324
0.53362656
0.52565815
0.51823202
0.51090216
0.50396421
0.49740132
0.49107318
0.48514285
0.4796191
0.47443811
0.46959811
0.46511858
0.46096409
0.45711942
0.4535805
0.45031937
0.44728857
0.44444775
0.44176694
0.43922875
0.43682019
0.43453184
0.4323656
0.4303194
0.42839363
0.42658747
0.42490026
0.4233287
0.42185765
0.42047371
0.41917544
0.41797605
0.41689217
0.41592881
0.41508379
0.41435358
0.41374187
0.41323261
0.41287593
0.41253367
0.41250564
391.35401
381.19599
370.59825
359.7564
348.69604
337.4441
326.02876
314.47922
302.82534
291.09731
279.3253
267.53909
255.76776
244.03943
232.38109
220.81841
209.37568
198.07579
186.94021
175.98908
165.24122
154.71421
144.42446
134.38727
124.61702
115.12767
105.9324
97.043278
88.471625
80.228142
72.323089
64.766484
57.568384
50.739245
44.29053
38.235743
32.58263
27.351981
22.5773
18.271726
14.467498
11.213131
8.5543591
6.52068
5.0850735
4.1389951
3.528148
3.1146551
2.8116466
2.5707294
2.3660385
2.1872933
2.0291718
1.8880355
1.7614778
1.6477253
1.5459765
1.4530213
1.3694353
1.2944842
1.2252718
1.1633794
1.1070971
1.0554071
1.0075684
0.96358202
0.92325526
0.88499066
0.84993661
0.81775419
0.787334
0.75976761
0.73515307
0.71193286
0.69054806
0.67127791
0.65346126
0.63671742
0.62124627
0.60711342
0.59366315
0.5813506
0.57012583
0.5594247
0.54964747
0.54078473
0.53228575
0.52440159
0.51711078
0.50990088
0.50304323
0.49658343
0.4903391
0.48446833
0.47900749
0.47388463
0.46909071
0.46465415
0.46053951
0.45672806
0.45321622
0.44997714
0.44696467
0.44413985
0.44147426
0.43895237
0.43656234
0.43429433
0.43214865
0.43012192
0.42821359
0.42642191
0.42474596
0.42318274
0.4217179
0.4203387
0.4190445
0.41784878
0.41676889
0.41581047
0.41497104
0.41424632
0.4136392
0.41313388
0.41277986
0.41243985
0.41241333
368.16391
358.72679
348.85566
338.74599
328.42118
317.90594
307.22628
296.40926
285.48261
274.47444
263.4129
252.32586
241.24063
230.18375
219.18081
208.25635
197.43372
186.73511
176.18154
165.79282
155.58768
145.58375
135.79762
126.24489
116.94039
107.89865
99.133542
90.6579
82.483932
74.623303
67.087322
59.887155
53.034133
46.540242
40.419034
34.685905
29.349277
24.44021
19.990932
16.01517
12.556347
9.6633797
7.3748601
5.6944608
4.5523981
3.810203
3.3207288
2.9738036
2.7071469
2.4869337
2.295835
2.1273037
1.9773332
1.8429003
1.7219692
1.6129636
1.5152468
1.4259736
1.3455188
1.2729618
1.2061675
1.1464167
1.0918683
1.0419097
0.99555282
0.95280061
0.91375137
0.87653734
0.84232569
0.81107769
0.7813968
0.75433572
0.73022108
0.70753758
0.68655425
0.66757976
0.65013191
0.6337161
0.61846889
0.60458008
0.59137795
0.57921368
0.56818128
0.55766822
0.54799344
0.53928074
0.53092615
0.52312779
0.51596275
0.50888031
0.50210559
0.49574693
0.48959237
0.48378246
0.47838464
0.47332209
0.46857617
0.46418326
0.46010938
0.45633188
0.45284735
0.44963027
0.44663599
0.44382692
0.44117643
0.4386708
0.4362994
0.434052
0.43192711
0.42992002
0.42802915
0.42625194
0.4245872
0.42303227
0.42157371
0.42019952
0.4189098
0.41771823
0.4166427
0.41568945
0.41485575
0.41413658
0.4135341
0.41303274
0.41268142
0.41234372
0.41231873
345.23206
336.49217
327.32533
317.92534
308.31359
298.51287
288.54729
278.44199
268.22282
257.91599
247.54776
237.14418
226.73087
216.3328
205.97418
195.67835
185.4677
175.36365
165.38666
155.55619
145.89078
136.40804
127.12468
118.05659
109.21897
100.6269
92.294886
84.236547
76.464954
68.992744
61.832288
54.995915
48.496279
42.347081
36.564415
31.163805
26.159165
21.590558
17.484149
13.86139
10.773203
8.2641239
6.3547854
5.0114141
4.123882
3.5432487
3.1451074
2.8487756
2.6102817
2.4064329
2.2274093
2.0685178
1.9263386
1.7983746
1.6829091
1.578566
1.4845901
1.399087
1.3217293
1.2514428
1.1872092
1.129455
1.0766046
1.0283408
0.98348303
0.94201693
0.90413816
0.86803539
0.83470856
0.80432109
0.77542724
0.74890057
0.72522378
0.70309339
0.68253681
0.66385847
0.64676697
0.63067492
0.61566189
0.60200902
0.58907114
0.57706017
0.56620196
0.55589032
0.54632677
0.53774888
0.52954608
0.52183844
0.5147873
0.50783985
0.50115197
0.49489075
0.48883239
0.48308539
0.47775025
0.47275013
0.46805441
0.46370581
0.45967349
0.45593068
0.45247372
0.44927863
0.44630238
0.44350887
0.44087339
0.43838401
0.43603133
0.43380476
0.43170088
0.42971355
0.42784016
0.4260774
0.42442379
0.42287709
0.42142493
0.42005605
0.41877128
0.41758437
0.41651358
0.41556573
0.41473789
0.41402432
0.41342649
0.41292912
0.41258053
0.41224521
0.41222178
322.62461
314.55471
306.06619
297.34999
288.4258
279.31472
270.03922
260.62274
251.08938
241.46357
231.76978
222.03231
212.27508
202.52153
192.79447
183.11603
173.50759
163.98978
154.58243
145.30459
136.17454
127.20983
118.42727
109.84294
101.47243
93.33129
85.434679
77.796962
70.432091
63.353694
56.57524
50.110259
43.972779
38.178493
32.746779
27.690614
23.036336
18.829094
15.08599
11.842447
9.1501521
7.0411821
5.5043653
4.4634802
3.7828665
3.3241276
2.9933474
2.7358462
2.5189265
2.3283168
2.1606011
2.01095
1.8762102
1.7544789
1.6443181
1.5445148
1.4541126
1.372449
1.2979877
1.2299602
1.1684416
1.1125022
1.0612899
1.0146776
0.97137681
0.93126239
0.8944153
0.85949199
0.82710441
0.79747109
0.76941755
0.74346828
0.72017437
0.69860972
0.67849263
0.66011471
0.64336302
0.62759072
0.6128248
0.59940141
0.58674224
0.57489264
0.56418948
0.55408967
0.54464855
0.53618718
0.5281439
0.52053494
0.51358449
0.50677894
0.50018291
0.49401398
0.48805835
0.48237726
0.47710408
0.47216848
0.46752537
0.46322167
0.4592316
0.45552423
0.45209513
0.44892205
0.44596371
0.44318557
0.44056506
0.43809196
0.43575811
0.43355254
0.43146984
0.42950241
0.42764644
0.42589809
0.42425554
0.42271702
0.42127139
0.41990817
0.41862884
0.41744714
0.4163815
0.41543928
0.4146174
0.41390947
0.41331631
0.41282292
0.41247711
0.41214424
0.41212238
300.40054
292.97068
285.13164
277.07079
268.80638
260.3581
251.74697
242.99487
234.12425
225.15782
216.11827
207.02817
197.9098
188.78504
179.67533
170.60157
161.58413
152.64279
143.79674
135.06456
126.46428
118.01332
109.72851
101.62616
93.722161
86.032559
78.573116
71.358962
64.404951
57.725754
51.336012
45.250527
39.48478
34.056707
28.98852
24.294007
20.012173
16.185514
12.830883
9.9947901
7.7195879
6.013162
4.8212618
4.0332809
3.510655
3.1407119
2.8611718
2.6305046
2.4293712
2.2530072
2.0959286
1.9546812
1.826969
1.7112294
1.6062134
1.5108582
1.4243045
1.3456978
1.2739066
1.2088055
1.1498442
1.0955761
1.0459547
1.000939
0.95926149
0.92053837
0.8846153
0.85091731
0.81950876
0.79052961
0.76335783
0.73803378
0.71509615
0.69409696
0.67441453
0.65634504
0.63991622
0.62446337
0.6099581
0.59675909
0.58438899
0.5727117
0.56214765
0.55226534
0.54295836
0.53459516
0.52671818
0.51921789
0.51235526
0.50569704
0.49919862
0.49311606
0.48726922
0.48165814
0.47644595
0.47157691
0.46698899
0.46273076
0.45878347
0.45511229
0.45171137
0.44856032
0.44561981
0.44285693
0.44025141
0.43779465
0.4354797
0.43329527
0.43123389
0.42928644
0.42744784
0.4257138
0.42408223
0.42255187
0.42111292
0.41975576
0.41848243
0.4173065
0.41624643
0.41531006
0.41449424
0.41379196
0.41320347
0.41271407
0.41237108
0.41204073
0.41202046
278.6113
271.78978
264.56945
257.13382
249.50005
241.6866
233.71314
225.60009
217.36826
209.03861
200.63211
192.16959
183.67168
175.15877
166.65091
158.16782
149.72884
141.35291
133.05857
124.86393
116.7867
108.84416
101.05319
93.430229
85.991502
78.753512
71.732634
64.944777
58.405747
52.13135
46.13753
40.440521
35.057495
30.009083
25.318203
21.005323
17.1213
13.698017
10.7604
8.3570102
6.5083746
5.184795
4.2894906
3.698045
3.2894851
2.9852371
2.7401101
2.5286919
2.3443369
2.1803324
2.0328896
1.899564
1.7785879
1.6686312
1.5685948
1.4775358
1.3946666
1.3192461
1.2504104
1.1877592
1.1307471
1.078565
1.0308944
0.98720729
0.94713218
0.90980009
0.87480971
0.84232154
0.81189273
0.783529
0.75723913
0.73258073
0.71001655
0.68955242
0.67029399
0.65254634
0.63642406
0.6212965
0.60706401
0.59408455
0.58200645
0.57051592
0.56008256
0.55041623
0.54125407
0.53297503
0.52526786
0.51788662
0.51110162
0.5045934
0.49819877
0.49219708
0.48646375
0.48092801
0.47577581
0.47097528
0.46644527
0.46223293
0.45832878
0.45469459
0.45132218
0.44819325
0.44527051
0.44252283
0.43993237
0.43749207
0.43519607
0.43303286
0.4309929
0.42906553
0.42724418
0.42552434
0.42390366
0.42238145
0.42094938
0.41959871
0.41833196
0.4171624
0.41610835
0.41517804
0.41436835
0.41367173
0.41308789
0.41260248
0.41226233
0.4119346
0.41191595
257.29956
251.0548
244.4219
237.58095
230.54837
223.34153
215.97881
208.47912
200.86163
193.14555
185.35011
177.49445