/*--------------------------------*- C++ -*----------------------------------*\
| =========                 |                                                 |
| \\      /  F ield         | OpenFOAM: The Open Source CFD Toolbox           |
|  \\    /   O peration     | Version:  2406                                  |
|   \\  /    A nd           | Website:  www.openfoam.com                      |
|    \\/     M anipulation  |                                                 |
\*---------------------------------------------------------------------------*/
FoamFile
{
    version     2.0;
    format      ascii;
    arch        "LSB;label=32;scalar=64";
    class       volScalarField;
    location    "0.05";
    object      T;
}
// * * * * * * * * * * * * * * * * * * * * * * * * * * * * * * * * * * * * * //

dimensions      [0 0 0 1 0 0 0];

internalField   nonuniform List<scalar> 
2065
(
292.74976
292.9026
293.2588
292.9523
292.92244
292.89849
292.87929
292.86334
292.84914
292.83538
292.82106
292.80532
292.78784
292.76862
292.74776
292.72632
292.70519
292.68653
292.67389
292.68391
292.74743
292.90188
293.25134
293.63743
293.55278
293.47479
293.40323
293.33655
293.2731
293.21214
293.15383
293.09918
293.04938
293.00537
292.96765
292.93603
292.91001
292.88863
292.87063
292.85464
292.83939
292.82386
292.80719
292.78901
292.76928
292.74807
292.72638
292.70507
292.68624
292.67327
292.68247
292.74495
292.90099
293.24423
293.62514
293.54647
293.47309
293.40534
293.34204
293.28185
293.22389
293.16812
293.11524
293.06624
293.02207
292.98335
292.95015
292.92213
292.8986
292.87852
292.86066
292.84382
292.827
292.80931
292.79036
292.77007
292.74847
292.7265
292.70497
292.68596
292.67266
292.681
292.74233
292.89992
293.23736
293.61414
293.54146
293.47287
293.40871
293.34845
293.2911
293.23582
293.18239
293.13122
293.08312
293.03895
292.9994
292.96476
292.93485
292.90921
292.88702
292.86722
292.8487
292.83049
292.81171
292.79191
292.77099
292.74896
292.72667
292.70491
292.68569
292.67205
292.6795
292.73958
292.89866
293.23079
293.60579
293.53896
293.47457
293.41366
293.35612
293.30125
293.24828
293.19691
293.14732
293.10012
293.05604
293.01581
292.97986
292.94815
292.92045
292.89614
292.87435
292.85407
292.83437
292.81441
292.79369
292.77207
292.74955
292.7269
292.70489
292.68543
292.67145
292.67797
292.73673
292.89718
293.2245
293.6005
293.53848
293.47807
293.42033
293.36532
293.3126
293.26159
293.21195
293.16375
293.11736
293.07342
293.0326
292.99543
292.96204
292.93233
292.9059
292.88207
292.85995
292.83868
292.81743
292.79572
292.77333
292.75025
292.72722
292.70492
292.68518
292.67088
292.67642
292.73378
292.89547
293.21839
293.59866
293.54096
293.48411
293.42918
293.37637
293.32546
293.27604
293.22779
293.18069
293.13498
293.09115
293.04979
293.01148
292.97649
292.94483
292.9163
292.89039
292.86636
292.84344
292.82082
292.79802
292.77478
292.75109
292.72762
292.70501
292.68497
292.67033
292.67487
292.73075
292.89349
293.2123
293.60043
293.54667
293.49303
293.44054
293.38956
293.34009
293.29187
293.24466
293.19836
293.15312
293.1093
293.06741
293.028
292.99149
292.95794
292.92734
292.89934
292.87334
292.84867
292.8246
292.80062
292.77646
292.7521
292.72813
292.70517
292.68481
292.66982
292.67331
292.72767
292.8912
293.20602
293.60633
293.55595
293.505
293.45452
293.40502
293.35664
293.30926
293.26271
293.2169
293.17189
293.12795
293.08549
293.04502
293.00701
292.97165
292.939
292.9089
292.8809
292.85442
292.8288
292.80355
292.7784
292.75328
292.72877
292.70544
292.68472
292.66937
292.67178
292.72455
292.88855
293.19933
293.61572
293.56828
293.51968
293.47096
293.42267
293.37509
293.32824
293.28202
293.23639
293.19137
293.14713
293.10403
293.06251
293.02304
292.98593
292.95128
292.91909
292.88905
292.86069
292.83345
292.80686
292.78063
292.75469
292.72955
292.70583
292.68471
292.66899
292.67028
292.72141
292.88547
293.1919
293.62879
293.5837
293.53703
293.48974
293.44239
293.39535
293.34874
293.30257
293.25683
293.21156
293.16687
293.12304
293.08045
293.03955
293.00072
292.96414
292.92988
292.89778
292.86751
292.83857
292.81055
292.78317
292.75633
292.7305
292.70633
292.6848
292.6687
292.66885
292.71829
292.88192
293.18325
293.64478
293.60169
293.55663
293.51048
293.46384
293.41712
293.37054
293.3242
293.27813
293.2324
293.1871
293.14245
293.09878
293.05649
293.01599
292.97753
292.94124
292.90711
292.87488
292.8442
292.81467
292.78606
292.75825
292.73167
292.70696
292.685
292.66852
292.66751
292.71521
292.87787
293.17339
293.66272
293.6214
293.57774
293.53258
293.4865
293.43996
293.39328
293.3466
293.30006
293.25373
293.20771
293.16218
293.11741
293.07377
293.03166
292.99139
292.95315
292.91699
292.88282
292.85034
292.81924
292.78932
292.76046
292.73308
292.70776
292.68535
292.66847
292.66629
292.7122
292.87329
293.16213
293.68125
293.64158
293.59928
293.55508
293.50955
293.46319
293.41638
293.36935
293.32227
293.27528
293.22849
293.18206
293.13621
293.09128
293.04764
293.00565
292.96553
292.92741
292.89129
292.857
292.82429
292.79299
292.76303
292.73475
292.70876
292.68588
292.66857
292.66523
292.70931
292.86825
293.14168
293.69919
293.66115
293.62021
293.57703
293.53214
293.48606
293.43921
293.39188
293.34432
293.2967
293.24917
293.20186
293.155
293.10887
293.06382
293.02021
292.97831
292.93831
292.9003
292.86419
292.82983
292.79709
292.76597
292.73671
292.71001
292.68662
292.66885
292.66436
292.70657
292.86288
293.12274
293.71527
293.67894
293.63949
293.59747
293.5534
293.50777
293.46105
293.4136
293.36569
293.31756
293.26939
293.22133
293.17357
293.12636
293.08004
293.03495
292.99141
292.94964
292.90979
292.87189
292.83587
292.80166
292.76929
292.73899
292.71153
292.68758
292.66934
292.66375
292.70404
292.85728
293.10502
293.72806
293.69365
293.65592
293.61534
293.57236
293.52749
293.48119
293.43386
293.38585
293.33743
293.2888
293.24015
293.19165
293.14355
293.09613
293.04974
293.00471
292.9613
292.91972
292.88009
292.84241
292.8067
292.77304
292.74164
292.71334
292.68877
292.67007
292.66344
292.7018
292.85153
293.08782
293.73718
293.70493
293.66918
293.63029
293.58867
293.54481
293.4992
293.45227
293.4044
293.35592
293.30707
293.25804
293.20902
293.16023
293.11192
293.06443
293.0181
292.97321
292.93003
292.88874
292.84945
292.81223
292.77724
292.74472
292.71546
292.6902
292.67106
292.66346
292.6999
292.84574
293.07137
293.74116
293.71146
293.67811
293.64135
293.60155
293.55913
293.51459
293.46841
293.421
293.37274
293.32392
293.27475
293.22544
293.17619
293.12723
293.07887
293.03144
292.98527
292.94064
292.89781
292.85697
292.81826
292.78191
292.74823
292.71794
292.69192
292.67231
292.66386
292.69843
292.84001
293.05599
293.74097
293.71408
293.6834
293.64909
293.61139
293.57071
293.52753
293.48235
293.43564
293.38783
293.33926
293.29017
293.24078
293.19129
293.14191
293.09291
293.04462
292.99737
292.95148
292.90724
292.86493
292.82478
292.78708
292.75219
292.72084
292.69397
292.67384
292.66466
292.69747
292.83447
293.04208
293.73591
293.71209
293.68446
293.653
293.61786
293.57936
293.53793
293.49409
293.44836
293.40122
293.35309
293.30426
293.25498
293.20544
293.15585
293.10645
293.05752
293.0094
292.96244
292.91697
292.87331
292.83179
292.79275
292.75663
292.72421
292.69643
292.67569
292.66589
292.69707
292.82926
293.02998
293.72662
293.70592
293.68149
293.65317
293.62097
293.58506
293.5458
293.50368
293.45924
293.41302
293.36551
293.3171
293.26807
293.21864
293.16901
293.11939
293.07004
293.02128
292.97345
292.92693
292.88207
292.83926
292.79893
292.7616
292.7281
292.69935
292.67791
292.6676
292.69732
292.82453
293.01932
293.71369
293.69604
293.67485
293.64982
293.62081
293.58785
293.55116
293.51116
293.46836
293.42334
293.37667
293.32882
293.28015
293.23094
293.18139
293.13171
293.08213
293.03293
292.98444
292.93704
292.89114
292.84718
292.80564
292.76711
292.73256
292.70282
292.68059
292.66988
292.69828
292.82049
293.01015
293.69761
293.68282
293.66476
293.64304
293.61737
293.58762
293.55388
293.5164
293.47565
293.43219
293.38662
293.33951
293.29133
293.24243
293.19306
293.14343
293.09375
293.04428
292.99533
292.94726
292.9005
292.85551
292.81286
292.77322
292.73764
292.70689
292.68378
292.67283
292.69999
292.8173
293.00236
293.67887
293.6667
293.65155
293.633
293.61067
293.58428
293.55374
293.51917
293.48087
293.43937
293.39525
293.34916
293.30164
293.25316
293.20405
293.15456
293.10491
293.05532
293.00607
292.95752
292.91007
292.86424
292.8206
292.77991
292.74333
292.71158
292.68757
292.67642
292.70247
292.815
292.99543
293.65773
293.64788
293.63538
293.61978
293.60066
293.57764
293.55046
293.51908
293.48363
293.44452
293.40228
293.35755
293.31097
293.26309
293.21436
293.16511
293.11558
293.066
293.01662
292.96776
292.91983
292.87331
292.82883
292.7872
292.74962
292.71693
292.69212
292.68064
292.70563
292.81351
292.98848
293.63456
293.62666
293.6165
293.60359
293.58745
293.56766
293.54386
293.51583
293.48354
293.44722
293.40729
293.36436
293.31907
293.27208
293.22393
293.17505
293.12576
293.0763
293.02694
292.97794
292.9297
292.8827
292.83755
292.79509
292.75657
292.72305
292.69751
292.6855
292.70936
292.81265
292.9805
293.60963
293.60338
293.59521
293.58467
293.57124
293.55447
293.53392
293.50926
293.48029
293.44707
293.40987
293.36918
293.32561
293.27986
293.23257
293.18426
293.13536
293.08617
293.03697
292.98801
292.93966
292.89237
292.84673
292.8036
292.76421
292.72992
292.70368
292.69114
292.71371
292.81226
292.97067
293.58328
293.5784
293.5719
293.56337
293.55234
293.53831
293.52079
293.49938
293.47378
293.44384
293.40967
293.37162
293.33021
293.28612
293.24003
293.19257
293.14428
293.09553
293.04665
292.99792
292.94965
292.90227
292.85636
292.81274
292.77265
292.73763
292.71065
292.69758
292.71872
292.81217
292.95852
293.55623
293.55243
293.54728
293.54041
293.5314
293.51976
293.50497
293.48657
293.46418
293.43753
293.40656
293.37144
293.33256
293.29054
293.24605
293.19978
293.15237
293.10428
293.05592
293.00759
292.95961
292.91236
292.86641
292.82252
292.7819
292.74628
292.71864
292.70483
292.7244
292.81205
292.94421
293.52893
293.52593
293.52183
293.51629
293.50894
293.49933
293.48697
293.47133
293.45195
293.42848
293.40072
293.36866
293.33258
293.29296
293.25043
293.20571
293.15948
293.11232
293.0647
293.01699
292.96951
292.92261
292.87683
292.8329
292.79198
292.7559
292.72766
292.71304
292.73092
292.81178
292.92836
293.5023
293.49991
293.4966
293.49209
293.48603
293.47803
293.46762
293.45429
293.43756
293.41701
293.39233
293.36338
293.33025
293.29329
293.25305
293.21021
293.16549
293.11954
293.07292
293.02606
292.9793
292.93299
292.88761
292.84386
292.80287
292.7665
292.7377
292.7224
292.73855
292.81173
292.91174
293.47601
293.47407
293.47137
293.46767
293.46268
293.45603
293.44729
293.436
293.42164
293.40375
293.38196
293.35601
293.32587
293.29171
293.25399
293.2133
293.17038
293.12592
293.08055
293.03477
292.98897
292.94348
292.89874
292.85541
292.81458
292.7781
292.74892
292.7332
292.74725
292.81263
292.89697
293.44996
293.44838
293.44619
293.44316
293.43905
293.43354
293.42623
293.41669
293.40445
293.38899
293.36988
293.34681
293.31962
293.28834
293.2533
293.215
293.17414
293.13144
293.08757
293.04311
292.9985
292.95409
292.91023
292.86756
292.82712
292.79075
292.76146
292.74532
292.7574
292.81538
292.88692
293.42378
293.4225
293.42071
293.41824
293.41487
293.41032
293.40426
293.39629
293.38594
293.37275
293.35619
293.33589
293.3116
293.28327
293.25104
293.21535
293.17679
293.1361
293.09399
293.05109
293.0079
292.96478
292.92206
292.88028
292.84044
292.80436
292.77506
292.7586
292.76877
292.82013
292.88086
293.39748
293.39642
293.39496
293.39295
293.39021
293.38651
293.38153
293.37492
293.36624
293.35504
293.34084
293.3232
293.30178
293.27641
293.24713
293.21424
293.17825
293.13984
293.09975
293.05866
293.01711
292.97551
292.9342
292.89345
292.85444
292.81879
292.78955
292.7726
292.78085
292.82583
292.87426
293.37147
293.37061
293.36942
293.3678
293.36557
293.36253
293.35843
293.35295
293.34571
293.33629
293.32421
293.309
293.29029
293.26785
293.24158
293.21163
293.17842
293.14255
293.10474
293.0657
293.02603
292.98615
292.94638
292.90704
292.86898
292.83391
292.80482
292.7872
292.79337
292.83144
292.86352
293.34561
293.34487
293.34388
293.34253
293.3407
293.33821
293.33485
293.33034
293.32436
293.3165
293.30633
293.29342
293.27729
293.25763
293.23433
293.20741
293.17714
293.14404
293.10877
293.07204
293.03447
292.99651
292.95848
292.92072
292.88378
292.84944
292.82056
292.80213
292.80601
292.8371
292.84896
293.31981
293.31918
293.31835
293.31724
293.31574
293.31372
293.31099
293.30731
293.30239
293.29589
293.2874
293.27651
293.26278
293.24583
293.22543
293.20153
293.1743
293.14413
293.11162
293.07742
293.04216
293.00631
292.9702
292.93409
292.89857
292.86503
292.83646
292.81708
292.81824
292.84359
292.83639
293.29355
293.29302
293.29233
293.29143
293.29023
293.28862
293.28645
293.28351
293.27956
293.2743
293.26735
293.25833
293.24681
293.23239
293.21479
293.19389
293.16973
293.1426
293.11299
293.0815
293.04874
293.01518
292.98113
292.94685
292.91286
292.88048
292.85206
292.83187
292.83034
292.85138
292.82678
293.26733
293.26688
293.26631
293.26558
293.26463
293.26335
293.26164
293.25932
293.2562
293.25199
293.24639
293.23904
293.22954
293.21751
293.20257
293.18453
293.16339
293.1393
293.11266
293.08399
293.05386
293.02272
292.99089
292.95857
292.92617
292.89489
292.86684
292.847
292.84262
292.85898
292.82096
293.24089
293.24049
293.24002
293.23943
293.23867
293.23767
293.23634
293.23455
293.23212
293.22883
293.2244
293.21851
293.2108
293.20089
293.18844
293.17317
293.15497
293.13392
293.11029
293.08451
293.0571
293.02852
292.99904
292.96887
292.93833
292.90839
292.8812
292.86261
292.8542
292.86677
292.81834
293.2148
293.21444
293.21402
293.21352
293.2129
293.21211
293.21107
293.20969
293.20781
293.20526
293.20181
293.19717
293.19102
293.183
293.17278
293.16004
293.14458
293.12643
293.10575
293.08286
293.05818
293.03214
293.0051
292.97725
292.94884
292.92074
292.89503
292.8766
292.86555
292.87551
292.81879
293.18874
293.18841
293.18805
293.18763
293.18713
293.1865
293.1857
293.18464
293.18322
293.18127
293.17861
293.17499
293.17013
293.16371
293.15541
293.14492
293.13201
293.11658
293.09871
293.07861
293.05664
293.03319
293.00858
292.98305
292.95697
292.93113
292.90737
292.88939
292.87811
292.88319
292.82158
293.16387
293.16354
293.16319
293.16279
293.16235
293.16181
293.16116
293.16032
293.15921
293.1577
293.15564
293.15283
293.14902
293.14391
293.13721
293.12861
293.11785
293.10479
293.0894
293.07181
293.05229
293.03121
293.00894
292.98574
292.96199
292.93854
292.91711
292.90051
292.88981
292.88902
292.82657
293.13937
293.13903
293.13868
293.13829
293.13787
293.13739
293.13683
293.13614
293.13525
293.13407
293.13246
293.13027
293.12727
293.12321
293.11781
293.11078
293.10184
293.09078
293.07755
293.06222
293.04502
293.02627
293.00629
292.98538
292.96391
292.94277
292.92357
292.9085
292.89815
292.89225
292.83359
293.11779
293.11739
293.11697
293.11651
293.11603
293.11549
293.11489
293.11418
293.11333
293.11224
293.11082
293.10893
293.10639
293.10296
293.09841
293.09245
293.08481
293.0753
293.06383
293.05041
293.03524
293.01861
293.00088
292.98235
292.96342
292.9448
292.92782
292.91411
292.90346
292.89376
292.84096
293.09591
293.09546
293.09498
293.09446
293.09392
293.09333
293.09268
293.09195
293.09109
293.09004
293.08872
293.08701
293.08476
293.0818
293.07788
293.07277
293.06621
293.058
293.04799
293.03623
293.02288
293.00828
292.99284
292.97698
292.96103
292.94546
292.9311
292.91885
292.90774
292.89596
292.84969
293.07791
293.07734
293.07672
293.07605
293.07533
293.07455
293.0737
293.07276
293.0717
293.07046
293.06899
293.06718
293.06491
293.06203
293.05834
293.05362
293.04764
293.04023
293.03129
293.02084
293.00908
292.99636
292.98322
292.9702
292.95761
292.94558
292.93439
292.92416
292.91317
292.90166
292.86181
293.05743
293.05683
293.05617
293.05546
293.05469
293.05386
293.05295
293.05194
293.05081
293.04953
293.04802
293.04623
293.04405
293.04136
293.03798
293.03376
293.02851
293.02207
293.01435
293.00535
292.99526
292.98446
292.97358
292.96332
292.95419
292.94613
292.93878
292.93141
292.92162
292.911
292.87835
293.04083
293.04018
293.03948
293.03871
293.03788
293.03697
293.03598
293.0349
293.03369
293.03235
293.03082
293.02904
293.02694
293.02441
293.02134
293.01759
293.01301
293.00746
293.00085
292.99324
292.98483
292.97603
292.96739
292.95966
292.95355
292.94914
292.94578
292.942
292.93466
292.9229
292.93601
293.01803
293.01756
293.01705
293.01649
293.01589
293.01524
293.01454
293.0138
293.01298
293.01208
293.01107
293.00991
293.00854
293.00688
293.00486
293.00236
292.99929
292.99554
292.99103
292.98575
292.97983
292.97357
292.96745
292.96208
292.95821
292.95625
292.95572
292.95481
292.94949
292.93409
292.96746
293.00252
293.00218
293.00182
293.00144
293.00104
293.00062
293.00019
292.99974
292.99926
292.99876
292.99822
292.99761
292.9969
292.99604
292.99498
292.99364
292.99195
292.98982
292.9872
292.98403
292.98039
292.97643
292.97244
292.96892
292.96651
292.96565
292.96602
292.96594
292.96064
292.94319
292.97055
292.98033
292.98034
292.98037
292.98042
292.9805
292.98063
292.9808
292.98103
292.98132
292.98169
292.98214
292.98265
292.98322
292.98381
292.98438
292.98487
292.98519
292.98519
292.98473
292.9838
292.98234
292.98038
292.97814
292.97602
292.97458
292.97437
292.97532
292.97595
292.9721
292.96144
293.0216
292.98024
292.98036
292.98052
292.9807
292.98092
292.98117
292.98149
292.98189
292.98238
292.98298
292.98369
292.9845
292.98539
292.98634
292.98726
292.98808
292.9887
292.9891
292.98912
292.98859
292.98758
292.98612
292.98442
292.98283
292.98189
292.98222
292.9842
292.98761
292.99179
293.00089
293.07147
292.96763
292.96816
292.96877
292.96947
292.97027
292.97118
292.97222
292.9734
292.97474
292.97623
292.9779
292.97974
292.98174
292.98388
292.9861
292.9883
292.99036
292.99209
292.99351
292.99455
292.99511
292.99534
292.99546
292.99595
292.99744
293.00057
293.00562
293.01254
293.02053
293.02126
293.06662
292.99166
292.99215
292.9927
292.99333
292.99405
292.99487
292.99581
292.99687
292.99808
292.99943
293.00094
293.0026
293.00439
293.0063
293.00833
293.01041
293.01243
293.01425
293.01559
293.01624
293.01616
293.01561
293.0151
293.01519
293.01612
293.01756
293.01879
293.02011
293.02527
293.02386
293.01134
292.98777
292.98869
292.98972
292.99086
292.99212
292.99351
292.99505
292.99675
292.99862
293.00068
293.00297
293.00553
293.0084
293.01163
293.01524
293.01921
293.02351
293.02784
293.03177
293.03445
293.03548
293.03504
293.03383
293.03268
293.03204
293.03235
293.03355
293.03324
293.03014
293.01264
293.01295
293.7573
293.75823
293.75884
293.75905
293.75948
293.76026
293.76301
293.76906
293.77825
293.79044
293.80514
293.8212
293.83787
293.85462
293.87104
293.88546
293.89671
293.90356
293.90389
293.89811
293.88615
293.8684
293.8459
293.82035
293.79251
293.76356
293.73404
293.70424
293.67422
293.64403
293.61372
293.58361
293.55428
293.52595
293.49903
293.47272
293.44672
293.42065
293.39465
293.36909
293.8454
293.83744
293.82765
293.8194
293.81205
293.80566
293.80135
293.80107
293.80311
293.80753
293.81478
293.82189
293.83174
293.84311
293.85459
293.86484
293.87248
293.87564
293.87342
293.86566
293.85201
293.83381
293.81174
293.78687
293.76027
293.73256
293.70415
293.67517
293.64571
293.61587
293.58597
293.55661
293.52808
293.50088
293.4743
293.44807
293.4218
293.39558
293.36978
293.34421
293.31864
293.29254
293.26654
293.24032
293.21453
293.18873
293.16426
293.14016
293.11921
293.09782
293.08062
293.06039
293.04408
293.02042
293.00433
292.98054
292.97988
292.9649
292.989
292.9822
293.92846
293.89881
293.87069
293.84541
293.82325
293.80527
293.79163
293.78294
293.77857
293.77909
293.78244
293.78968
293.79938
293.81087
293.82225
293.83216
293.83878
293.84078
293.83783
293.82892
293.81563
293.79772
293.77663
293.75307
293.7278
293.70132
293.67386
293.64555
293.61654
293.58715
293.55803
293.52951
293.50221
293.47551
293.44916
293.42277
293.39642
293.37045
293.34472
293.31903
293.29283
293.26672
293.24041
293.21451
293.18863
293.16403
293.13982
293.11869
293.09718
293.07977
293.05949
293.04311
293.01969
293.00377
292.98043
292.97993
292.96559
292.98969
292.98373
293.85365
293.8241
293.79738
293.77362
293.75349
293.73818
293.72788
293.72309
293.72334
293.72703
293.7356
293.74698
293.76039
293.77416
293.787
293.79726
293.8035
293.80527
293.80127
293.79288
293.77951
293.76252
293.74251
293.72016
293.69604
293.67047
293.64366
293.6158
293.58721
293.55857
293.53026
293.50302
293.47632
293.44996
293.42355
293.39713
293.37106
293.34523
293.31945
293.29318
293.267
293.24061
293.21462
293.18865
293.16394
293.13961
293.11832
293.09667
293.07905
293.0587
293.04224
293.01905
293.00328
292.98036
292.98001
292.9663
292.99039
292.98521
293.75224
293.73065
293.71075
293.69307
293.67824
293.66737
293.66097
293.65901
293.66153
293.66795
293.67865
293.69247
293.70832
293.72476
293.74053
293.75421
293.7643
293.77036
293.77096
293.76719
293.75839
293.74552
293.72924
293.71012
293.68869
293.66529
293.64025
293.61379
293.58623
293.55829
293.53036
293.50333
293.47674
293.45047
293.42411
293.39769
293.3716
293.3457
293.31987
293.29357
293.26734
293.24089
293.21482
293.18878
293.16396
293.13952
293.11806
293.09627
293.07844
293.05801
293.04147
293.01849
293.00285
292.98033
292.98012
292.96702
292.99109
292.98663
)
;

boundaryField
{
    Side1
    {
        type            empty;
    }
    Inlet
    {
        type            totalTemperature;
        gamma           1.4;
        T0              uniform 294.31799;
        value           nonuniform List<scalar> 
59
(
294.31799
292.98092
292.98058
292.98021
292.97981
292.97936
292.97885
292.97827
292.97762
292.97687
292.97602
292.97506
292.97396
292.97259
292.97111
292.97073
292.97028
292.96969
292.96904
292.96836
292.96766
292.96699
292.96626
292.96537
292.96431
292.96308
292.96166
292.96004
292.95819
292.95606
292.95363
292.9509
292.9479
292.94479
292.94161
292.93828
292.93499
292.93189
292.92889
292.92607
292.92388
292.92227
292.92098
292.91997
292.91916
292.91854
292.91833
292.91837
292.9186
292.91923
292.92054
292.92195
292.92308
292.92482
292.92887
292.93273
292.93476
292.93441
292.93399
)
;
    }
    Side2
    {
        type            empty;
    }
    Outlet
    {
        type            zeroGradient;
    }
    Botwall
    {
        type            zeroGradient;
    }
    Cyli
    {
        type            zeroGradient;
    }
    procBoundary3to0
    {
        type            processor;
        value           nonuniform List<scalar> 7(293.75613 293.85223 293.85223 293.9571 293.9571 293.88517 293.88517);
    }
    procBoundary3to1
    {
        type            processor;
        value           nonuniform List<scalar> 
62
(
293.72159
293.72402
293.72627
293.72844
293.73087
293.73383
293.73823
293.74512
293.75579
293.7707
293.78973
293.8117
293.83522
293.85888
293.88128
293.90015
293.91403
293.92161
293.92004
293.91207
293.89715
293.87633
293.85083
293.82283
293.79302
293.76259
293.73198
293.70142
293.67091
293.64044
293.61006
293.58008
293.55106
293.52317
293.49671
293.47081
293.44515
293.41938
293.39368
293.36843
293.34373
293.34373
293.31833
293.29235
293.26648
293.24038
293.21471
293.189
293.16465
293.14066
293.11988
293.09861
293.08161
293.06142
293.04516
293.02123
293.00495
292.9807
292.97986
292.96424
292.98831
292.98061
)
;
    }
    procBoundary3to2
    {
        type            processor;
        value           nonuniform List<scalar> 
35
(
292.75192
292.90316
293.26384
292.93733
292.90938
292.88759
292.87056
292.85661
292.84412
292.83176
292.81856
292.80367
292.78683
292.76806
292.74752
292.7263
292.70535
292.68685
292.67451
292.68532
292.68532
293.65071
293.65071
293.55978
293.47733
293.402
293.33155
293.26446
293.20021
293.13925
293.0829
293.03247
292.98884
292.98884
293.77464
)
;
    }
}


// ************************************************************************* //
