/*--------------------------------*- C++ -*----------------------------------*\
| =========                 |                                                 |
| \\      /  F ield         | OpenFOAM: The Open Source CFD Toolbox           |
|  \\    /   O peration     | Version:  2406                                  |
|   \\  /    A nd           | Website:  www.openfoam.com                      |
|    \\/     M anipulation  |                                                 |
\*---------------------------------------------------------------------------*/
FoamFile
{
    version     2.0;
    format      ascii;
    arch        "LSB;label=32;scalar=64";
    class       volScalarField;
    location    "0.01";
    object      rho;
}
// * * * * * * * * * * * * * * * * * * * * * * * * * * * * * * * * * * * * * //

dimensions      [1 -3 0 0 0 0 0];

internalField   nonuniform List<scalar> 
2065
(
1.1808134
1.1818421
1.1829571
1.1840439
1.1850166
1.1799341
1.1810748
1.1823133
1.1838253
1.1849654
1.1787821
1.1802882
1.1815847
1.1830074
1.1775162
1.1781867
1.179909
1.177504
1.1773405
1.1776013
1.1772443
1.1769684
1.175981
1.1741828
1.1727836
1.1892718
1.1914183
1.1929314
1.1941478
1.1941522
1.195224
1.1952717
1.1961048
1.1962376
1.1963028
1.1963994
1.1967485
1.1969765
1.1971495
1.1957299
1.1962479
1.1966999
1.1971049
1.1973972
1.1820172
1.1828501
1.1837012
1.1846543
1.1856097
1.1865223
1.1871322
1.1876171
1.1879232
1.1827384
1.1835577
1.1844132
1.185427
1.1865405
1.1873638
1.1880189
1.1885166
1.1888267
1.1836612
1.1844718
1.1854625
1.186521
1.1875034
1.1883968
1.1890132
1.1894886
1.1897924
1.1846837
1.1856736
1.1866325
1.1875944
1.1886347
1.189385
1.1899751
1.1904665
1.1907772
1.186064
1.1870194
1.1878526
1.1888542
1.1897776
1.1905507
1.1911124
1.1876304
1.1881255
1.1881818
1.1882473
1.1883167
1.1882189
1.1878059
1.1890314
1.1890978
1.1891723
1.1892305
1.1891524
1.1887352
1.1899722
1.1900308
1.1901072
1.1901317
1.1900188
1.1896314
1.1909544
1.1909959
1.1910623
1.1910854
1.1910166
1.1906544
1.1957489
1.1956674
1.1956365
1.1956053
1.1956934
1.1959529
1.1943642
1.1943017
1.1942701
1.1942548
1.1943338
1.1945853
1.1927315
1.1926802
1.1926829
1.192692
1.1927683
1.1930262
1.1910755
1.1910497
1.1910584
1.1910823
1.1911467
1.1913266
1.1891738
1.1891742
1.1892293
1.1892664
1.1893307
1.1895277
1.1873933
1.1874336
1.1874877
1.187536
1.1875943
1.1876777
1.1853829
1.1854333
1.1855395
1.1856013
1.1856616
1.1857595
1.1836814
1.1837808
1.1838645
1.1839313
1.1839929
1.1839367
1.1818455
1.1819318
1.182078
1.1821611
1.182225
1.1821705
1.1804134
1.1805646
1.1806902
1.1807886
1.180842
1.1806386
1.1790375
1.1791777
1.1793458
1.1794178
1.1795204
1.1792875
1.1781436
1.1782635
1.1784266
1.1786219
1.1785301
1.1782499
1.1773474
1.1774911
1.1776553
1.1777595
1.1778624
1.1774531
1.1771462
1.1772842
1.1774269
1.1775111
1.1775424
1.1771327
1.1774355
1.177572
1.1777025
1.177775
1.1777788
1.1772632
1.177855
1.1779866
1.1781318
1.1782099
1.1782472
1.1776515
1.1785858
1.1786991
1.1788416
1.178914
1.1789111
1.1782842
1.1794385
1.1795453
1.1796683
1.1797461
1.1797515
1.1790832
1.1805003
1.1805919
1.1807198
1.1807936
1.1807418
1.1800772
1.1816876
1.1817688
1.1818631
1.1819357
1.1818975
1.1811819
1.1829618
1.1830309
1.1831286
1.1831931
1.1830997
1.1824211
1.1842979
1.184371
1.1844499
1.1845166
1.1844527
1.183733
1.1856571
1.1857092
1.1857767
1.1858404
1.1857289
1.1851519
1.1869492
1.1870217
1.1870999
1.187168
1.1871041
1.1865609
1.1963489
1.196372
1.1964321
1.1962182
1.1958972
1.1956967
1.1956878
1.1957186
1.1957778
1.1932921
1.1936693
1.1939459
1.1939929
1.193994
1.1940803
1.1941855
1.1942792
1.1943596
1.1911959
1.1915588
1.191829
1.1919684
1.1920546
1.1921956
1.1924292
1.1925955
1.1927093
1.1880058
1.1883797
1.1888881
1.1893678
1.1898378
1.1902462
1.1906188
1.1908481
1.1910206
1.1854471
1.1859131
1.1864796
1.1871176
1.1876868
1.1881858
1.1886057
1.1889266
1.1891199
1.1818836
1.1824625
1.1834791
1.184478
1.1853585
1.186032
1.1866488
1.18702
1.1872829
1.1789375
1.1797743
1.1810495
1.1822689
1.1832292
1.1840197
1.1845832
1.1849799
1.1852655
1.1757705
1.1767723
1.1784152
1.1798358
1.1809989
1.1819108
1.1826628
1.183175
1.1835301
1.173092
1.1741958
1.1760747
1.1776764
1.179029
1.1800828
1.180856
1.1813352
1.1816679
1.1704483
1.1719946
1.1742141
1.1759438
1.1772765
1.1784228
1.1792413
1.1797654
1.1801936
1.1692071
1.1705395
1.1724732
1.1738956
1.1755369
1.1768761
1.1778187
1.178429
1.1788438
1.166775
1.1681684
1.1707695
1.1731118
1.1748681
1.1761227
1.1768767
1.1772616
1.1778054
1.1667131
1.1687938
1.1710095
1.1723057
1.1736699
1.1748883
1.1759672
1.1766499
1.1771479
1.1673023
1.1685189
1.1702264
1.1718265
1.1734999
1.1748489
1.175911
1.1765674
1.1769447
1.1666861
1.1683922
1.170682
1.1725805
1.1742099
1.175427
1.1763213
1.1768767
1.1772174
1.1683006
1.1698585
1.1718679
1.1734732
1.1748522
1.1759348
1.1767412
1.1772606
1.1776252
1.1701458
1.1715313
1.1731782
1.1745569
1.1757584
1.1767028
1.1774764
1.1780167
1.1783741
1.1721957
1.1729212
1.1742692
1.1754362
1.1766322
1.1776335
1.1783791
1.1788907
1.1792222
1.1739166
1.1748204
1.1758659
1.1769599
1.1779962
1.1788278
1.1794964
1.1799891
1.1803106
1.1762219
1.1763784
1.1772701
1.1781443
1.1791833
1.1800351
1.1807195
1.1811898
1.1814891
1.1779707
1.1784594
1.1789897
1.1798279
1.1806412
1.1813992
1.1820012
1.1824684
1.1827732
1.1794372
1.1796204
1.180274
1.1810106
1.18196
1.1827064
1.1833631
1.1838222
1.1841106
1.1807713
1.1813139
1.1817662
1.1825634
1.183331
1.1841275
1.1847114
1.1851679
1.1854568
1.1812366
1.1821568
1.1827425
1.1835928
1.1845982
1.1853285
1.1859976
1.1864609
1.186759
1.1908933
1.1933303
1.1943324
1.1952079
1.1959552
1.1963726
1.1864468
1.1896811
1.1906765
1.1917005
1.1923751
1.1929168
1.1819381
1.1855524
1.186605
1.1880157
1.1893905
1.1905435
1.1771926
1.1816559
1.182804
1.1843983
1.1857026
1.1870703
1.1727342
1.1775317
1.1787009
1.1806951
1.1825144
1.1843073
1.1680124
1.1735582
1.1750457
1.1772292
1.1788044
1.180559
1.1640628
1.1698337
1.1712815
1.1736603
1.1753722
1.1774305
1.1594674
1.1660842
1.1677322
1.1703556
1.1719782
1.1740354
1.1567572
1.1629583
1.1646447
1.1675052
1.1692755
1.1714519
1.1514154
1.1610058
1.1622019
1.1645783
1.166184
1.1684255
1.15063
1.1574596
1.1589189
1.1628676
1.1652146
1.1672825
1.1478787
1.1584365
1.1593285
1.1620138
1.1632878
1.1651745
1.1473358
1.1549113
1.1570528
1.1602898
1.1619297
1.1643438
1.1454194
1.1544523
1.1568126
1.1607234
1.1631316
1.1654406
1.1465498
1.1562028
1.158159
1.1616428
1.1635194
1.1651007
1.1482627
1.1580155
1.1595042
1.1623607
1.1641322
1.1662441
1.1523973
1.1599882
1.1610644
1.1642263
1.1665182
1.1684074
1.1560976
1.1629082
1.1642602
1.1673158
1.1694397
1.1709779
1.1605453
1.1657877
1.1675002
1.169909
1.1715905
1.1727311
1.1648305
1.1687667
1.1699427
1.1726292
1.1743402
1.1755168
1.1688127
1.1714994
1.1722312
1.1740133
1.1756858
1.1768214
1.1730894
1.1736511
1.1739137
1.1757962
1.1775039
1.1787844
1.1753397
1.1742588
1.1752386
1.175792
1.1775973
1.1793227
1.1754669
1.1752361
1.1747782
1.1770346
1.177997
1.1796644
1.175951
1.1760583
1.1754101
1.1758181
1.1779431
1.1794107
1.176694
1.1767762
1.1766076
1.1760747
1.1768062
1.1789836
1.1773303
1.1772674
1.1773545
1.177236
1.1766758
1.1778724
1.1777568
1.1777004
1.1777168
1.1778116
1.1776704
1.1774389
1.1779113
1.1778653
1.1777901
1.1778272
1.1779063
1.1777286
1.1777198
1.1776159
1.1775003
1.1774088
1.1773935
1.1774203
1.1772717
1.1770772
1.1768608
1.1766117
1.1763612
1.1762184
1.1768705
1.1765336
1.1761154
1.1756716
1.1750944
1.174614
1.1766563
1.176206
1.1756102
1.1748739
1.1740349
1.1733024
1.1771706
1.1764152
1.1756362
1.1746706
1.1736147
1.1726503
1.1784457
1.1774878
1.1765022
1.1753206
1.174018
1.172753
1.1804714
1.179429
1.1783585
1.1770804
1.1755702
1.1743698
1.1829773
1.1819944
1.1810529
1.180074
1.1790196
1.178098
1.1856148
1.1847326
1.1839787
1.183293
1.1827423
1.1823122
1.1879264
1.1872538
1.1867025
1.1863492
1.1861855
1.1861507
1.1898481
1.1894152
1.189106
1.1889682
1.1890147
1.1892086
1.1914432
1.1911922
1.1909914
1.1909279
1.1910905
1.1913674
1.1925138
1.1924836
1.1924022
1.1924265
1.1925545
1.1928226
1.1933655
1.1935128
1.1934925
1.1935483
1.1936595
1.1940515
1.19389
1.1942699
1.1943435
1.1944599
1.1946724
1.1950142
1.1940066
1.1943605
1.1946737
1.1949903
1.1953478
1.1957494
1.1941722
1.1944934
1.1948443
1.1952315
1.1956064
1.1959459
1.1946037
1.1947755
1.1949856
1.1951882
1.1952811
1.1953191
1.19477
1.1948022
1.1947594
1.1947124
1.1897837
1.1930398
1.19422
1.1954868
1.193177
1.1961643
1.1972391
1.1980718
1.198765
1.1998145
1.1967349
1.1988834
1.1998201
1.2007044
1.2014349
1.2020636
1.2001052
1.2018248
1.2025377
1.2030358
1.2035463
1.2042665
1.2033904
1.204522
1.2051248
1.2055519
1.2057547
1.2059658
1.2065072
1.2070255
1.2073506
1.2076556
1.207975
1.2081664
1.2091453
1.2093303
1.2095669
1.2096226
1.2095947
1.2094909
1.211051
1.2111641
1.2113225
1.2115575
1.2116202
1.2114784
1.2129698
1.2129868
1.2129247
1.2128423
1.212674
1.2124536
1.2143584
1.2142768
1.2142945
1.2142049
1.2140171
1.213697
1.2159206
1.2155229
1.2152307
1.2149368
1.2146452
1.2143772
1.2164661
1.216322
1.2162447
1.2160185
1.2156317
1.2150771
1.2175417
1.2168225
1.2164534
1.2160771
1.2157584
1.2153272
1.217125
1.2167418
1.2164144
1.2160236
1.2156413
1.2151735
1.2166921
1.216365
1.216041
1.2156901
1.2152901
1.2148188
1.2160053
1.2155468
1.2152221
1.2149083
1.2145853
1.214218
1.2145284
1.2144069
1.2142856
1.2140605
1.2136902
1.2133256
1.2130757
1.2128234
1.2126738
1.2124671
1.2122666
1.2121462
1.2108715
1.211019
1.2111509
1.2111699
1.2110044
1.2107107
1.2088694
1.2089437
1.2090016
1.2088498
1.2086065
1.2086506
1.2060353
1.2062732
1.2065802
1.20682
1.20699
1.207085
1.2028791
1.2035585
1.2039363
1.2041115
1.2043037
1.2044927
1.1992393
1.2002716
1.2009138
1.2014818
1.2019556
1.2023561
1.1952722
1.1970294
1.1978752
1.1984247
1.1986685
1.1992858
1.1945925
1.1945187
1.1943556
1.1827914
1.1861445
1.1903855
1.2012382
1.2033503
1.2054298
1.2076431
1.209141
1.2106921
1.2120022
1.2130198
1.2138523
1.2143697
1.2147217
1.2148401
1.2145832
1.2140677
1.213312
1.2123703
1.2113743
1.2097744
1.2085957
1.2067178
1.2051681
1.2032044
1.2012288
1.2025259
1.2043801
1.2060903
1.2079832
1.2095128
1.2108246
1.2118425
1.2127512
1.2134046
1.2138803
1.2141873
1.2142682
1.2140448
1.2136294
1.2129729
1.2121362
1.2112897
1.210098
1.2089431
1.2072968
1.2058921
1.2042259
1.2024929
1.2034483
1.2052763
1.2068257
1.2082624
1.2095875
1.2107091
1.2116276
1.2123807
1.2129278
1.2133193
1.2135965
1.2136776
1.2134592
1.2131448
1.2125584
1.2119064
1.2112
1.2102143
1.2091199
1.2077912
1.2065262
1.2051017
1.2036181
1.2046427
1.2061587
1.2075266
1.2087196
1.2097293
1.2105861
1.2113526
1.2120059
1.2124384
1.2127315
1.212961
1.2130047
1.2128542
1.2125568
1.2121259
1.2116528
1.2110008
1.2101997
1.2093701
1.2083082
1.2072168
1.2060656
1.2048112
1.2053809
1.2067391
1.2078588
1.2088006
1.2096591
1.2103819
1.2109511
1.2114349
1.2118751
1.2121194
1.2122925
1.2123639
1.2121958
1.2119746
1.2116727
1.211256
1.2106697
1.2100649
1.2093695
1.2085283
1.2076225
1.2066046
1.2055279
1.206205
1.2072238
1.2081205
1.2088823
1.2095166
1.2100497
1.2106338
1.2110006
1.2112583
1.211495
1.2116069
1.2116337
1.2116005
1.2113614
1.211102
1.2108039
1.2103962
1.2099075
1.2093769
1.2088197
1.2080696
1.2072332
1.2063488
1.2066787
1.2074885
1.2081589
1.2086528
1.2092856
1.209778
1.2101012
1.2104277
1.2106451
1.2108619
1.210954
1.2109504
1.210904
1.2107765
1.2106533
1.2103816
1.2099829
1.2096692
1.209249
1.208679
1.2080928
1.2075167
1.2067703
1.20715
1.2076301
1.208202
1.2086663
1.2090882
1.2094044
1.2097168
1.2099939
1.2101262
1.2101981
1.2102538
1.2102773
1.210274
1.2101621
1.2100522
1.2098445
1.2095964
1.2093155
1.2089538
1.2086182
1.2082308
1.207835
1.207303
1.2073368
1.2077095
1.2080886
1.2084277
1.2087217
1.2090094
1.2092263
1.2093498
1.2095118
1.2095718
1.2096783
1.2097249
1.2095621
1.2095597
1.2094548
1.2093569
1.2091815
1.2089303
1.2086287
1.2084115
1.2081925
1.2077413
1.207352
1.2074915
1.2076925
1.2079689
1.2082998
1.2085395
1.2086398
1.2087527
1.2088743
1.2089693
1.2090388
1.209068
1.2090514
1.2090799
1.2089969
1.208932
1.2087841
1.2086277
1.2085388
1.2083837
1.2081302
1.2079063
1.2077506
1.2074675
1.2073344
1.2075831
1.2078661
1.2079772
1.2080078
1.2081909
1.2083467
1.2084134
1.2084433
1.2085113
1.2085299
1.2085427
1.208515
1.2084889
1.208426
1.2083737
1.2082312
1.2081367
1.208035
1.2078818
1.2076835
1.2075587
1.2073915
1.2073518
1.2075102
1.2076338
1.207729
1.2078352
1.2078956
1.2078963
1.207962
1.208034
1.208042
1.2080296
1.2080283
1.2080473
1.2079749
1.2079457
1.2078829
1.2078678
1.2078032
1.2076911
1.2075899
1.2074614
1.2073042
1.2071872
1.2072802
1.2072467
1.207365
1.2073979
1.2074522
1.2075209
1.2075681
1.2076047
1.2075968
1.2075853
1.2076415
1.2076245
1.2075721
1.2075589
1.2075052
1.2075211
1.2075095
1.2074094
1.2073403
1.207287
1.2071954
1.2071157
1.2070917
1.2070736
1.2071316
1.2071942
1.2072136
1.207239
1.2072397
1.2072438
1.2072629
1.2072576
1.2072175
1.2071981
1.2071634
1.2071679
1.2071738
1.2071093
1.2070634
1.2070438
1.2070089
1.2069779
1.2069441
1.2068507
1.2068481
1.2068979
1.2069273
1.2069452
1.2069347
1.2069016
1.2068946
1.2068809
1.2068628
1.2068524
1.2068239
1.2068111
1.2068462
1.2068165
1.2067801
1.2067673
1.2067286
1.2066874
1.2066696
1.2066271
1.2065923
1.2066118
1.2066888
1.2066777
1.2066642
1.2066015
1.2065743
1.2065748
1.2065722
1.2066006
1.206572
1.2065675
1.2065696
1.2065434
1.2065157
1.206483
1.2064475
1.2064216
1.2064009
1.2063815
1.2063388
1.206334
1.206296
1.2062508
1.2064192
1.2063882
1.2063577
1.2063536
1.2063581
1.2063647
1.2063434
1.2062901
1.2062774
1.2062437
1.2062153
1.2062059
1.2061885
1.2061503
1.206138
1.2061612
1.2061431
1.2061204
1.206103
1.2060815
1.2060727
1.2060653
1.2061887
1.2061484
1.2061264
1.2061131
1.2060973
1.206054
1.2060201
1.2060153
1.2059953
1.2059873
1.2059778
1.2059515
1.2059151
1.2059104
1.2058924
1.2058672
1.2058454
1.2058266
1.2058336
1.205832
1.2058213
1.205826
1.2058675
1.2058236
1.2058072
1.2057985
1.2057794
1.2057496
1.2057247
1.2056979
1.2056874
1.2056791
1.2056561
1.2056443
1.2056348
1.2056205
1.2056059
1.2056101
1.2055997
1.2055847
1.2055743
1.2055694
1.2055448
1.2055226
1.2056642
1.2056436
1.2056285
1.2055964
1.2055631
1.2055432
1.2055231
1.2055001
1.2054805
1.2054625
1.2054479
1.2054403
1.2054355
1.2054119
1.2053941
1.2053596
1.2053522
1.2053472
1.2053231
1.2053127
1.2053141
1.2053247
1.2053667
1.2053555
1.2053343
1.2053018
1.2052792
1.2052701
1.2052616
1.2052532
1.205231
1.2052086
1.2051934
1.2051893
1.2051928
1.2052035
1.2051886
1.2051864
1.2051731
1.205161
1.2051581
1.205149
1.2051423
1.2051262
1.2052454
1.2052313
1.2052099
1.2052015
1.2052029
1.205188
1.2051685
1.2051518
1.2051376
1.2051276
1.20512
1.2051116
1.2051019
1.2050791
1.2050669
1.205048
1.2050384
1.20504
1.2050263
1.2050101
1.2049974
1.2049937
1.2051051
1.2051002
1.2051053
1.2051016
1.2050822
1.2050657
1.2050553
1.2050444
1.2050413
1.2050374
1.2050285
1.2050172
1.2050194
1.2050325
1.2050304
1.2050255
1.2050171
1.205006
1.2049986
1.2049932
1.2049889
1.2049832
1.2051007
1.2050977
1.2050899
1.2050776
1.2050682
1.2050585
1.205054
1.2050505
1.2050492
1.2050511
1.2050514
1.2050474
1.2050292
1.205013
1.2050029
1.2049937
1.2049865
1.2049788
1.2049739
1.2049664
1.2049581
1.2049541
1.2050757
1.2050745
1.2050734
1.2050755
1.2050801
1.2050895
1.2050894
1.2050869
1.2050754
1.205061
1.2050484
1.2050414
1.2050469
1.2050461
1.2050401
1.2050332
1.2050273
1.2050217
1.2050152
1.2050112
1.2050068
1.2049987
1.2050805
1.2050802
1.2050802
1.2050803
1.2050803
1.2050782
1.2050774
1.2050772
1.2050788
1.2050805
1.2050801
1.2050768
1.2050734
1.2050652
1.2050585
1.2050509
1.2050433
1.2050362
1.2050286
1.2050209
1.2050127
1.2050064
1.2050667
1.2050634
1.2050589
1.2050547
1.2050517
1.2050465
1.2050442
1.2050386
1.205033
1.2050262
1.2050188
1.205014
1.2050082
1.2050047
1.2050012
1.2049989
1.2049958
1.2049927
1.2049902
1.2049875
1.2049855
1.2049841
1.2050547
1.2050538
1.2050544
1.2050546
1.2050538
1.2050547
1.2050534
1.2050539
1.2050531
1.205051
1.2050507
1.2050476
1.2050471
1.2050448
1.2050424
1.2050389
1.2050355
1.2050319
1.2050274
1.2050233
1.2050189
1.2050145
1.2051879
1.2051873
1.2051853
1.2051824
1.2051816
1.2051769
1.2051736
1.2051688
1.2051644
1.2051605
1.2051555
1.2051516
1.2051467
1.2051432
1.2051389
1.2051359
1.2051318
1.2051276
1.2051227
1.2051198
1.2051176
1.2051155
1.2054843
1.2054844
1.2054835
1.2054828
1.2054819
1.2054792
1.2054766
1.2054745
1.2054715
1.2054687
1.2054661
1.2054632
1.2054603
1.2054573
1.2054544
1.205451
1.2054473
1.2054428
1.2054373
1.2054349
1.2054335
1.2054308
1.205657
1.2056571
1.2056569
1.2056557
1.2056544
1.2056519
1.2056497
1.2056468
1.2056437
1.2056402
1.2056362
1.2056322
1.2056275
1.2056232
1.2056185
1.2056142
1.2056096
1.2056062
1.2056012
1.2055925
1.2055854
1.2055814
1.1968102
1.1967651
1.1967702
1.1968812
1.1970969
1.1973896
1.1976545
1.1978085
1.1985724
1.1976615
1.1976027
1.1976523
1.1978205
1.1982196
1.1987424
1.1992283
1.1995799
1.2003234
1.1985662
1.1985849
1.1986902
1.1989212
1.1992704
1.1997318
1.2003265
1.2009083
1.2017124
1.1994664
1.1995062
1.1996374
1.1999122
1.2004608
1.2010929
1.2017005
1.202357
1.2031794
1.2005299
1.2006025
1.2007891
1.2010532
1.2014102
1.2020433
1.2027362
1.2034025
1.2041144
1.2015454
1.2015985
1.2017316
1.2020416
1.2025958
1.2031735
1.2038371
1.2045521
1.2052774
1.202533
1.2026406
1.2027825
1.2030343
1.2034947
1.2040985
1.204684
1.2053
1.2058373
1.2034549
1.2035512
1.2037366
1.204072
1.2044041
1.2048305
1.2053786
1.2060378
1.2065943
1.2042425
1.2043143
1.2044381
1.2047251
1.2051296
1.205582
1.2059033
1.2062971
1.2068156
1.2049494
1.2050303
1.2051781
1.2055228
1.2058488
1.2061088
1.2065319
1.2069427
1.2071813
1.2056054
1.2056925
1.2058067
1.2058942
1.2060338
1.2063745
1.2066358
1.2068375
1.2070802
1.2059668
1.2060444
1.2061329
1.2062884
1.2065068
1.2065752
1.2067511
1.207018
1.2071975
1.2063015
1.2063527
1.2064005
1.2064934
1.206537
1.2066638
1.2069053
1.2069866
1.2070671
1.2063808
1.2064291
1.2064686
1.2064443
1.2065618
1.2067286
1.2068473
1.2069296
1.2070557
1.2064109
1.2063983
1.2064191
1.2065038
1.2065512
1.2065954
1.2066873
1.2067228
1.2067688
1.2063772
1.2063657
1.2063936
1.2064182
1.2065212
1.2065618
1.2065759
1.2066107
1.2066658
1.2062395
1.2062894
1.2063281
1.2063671
1.2063628
1.2063491
1.2063828
1.2063701
1.2064103
1.2061656
1.2061554
1.2061443
1.2061503
1.206151
1.2061639
1.2061805
1.2061885
1.2061964
1.2059243
1.2059303
1.2059331
1.2059264
1.2059174
1.2059062
1.205916
1.2058864
1.2058786
1.2056156
1.2056217
1.2056309
1.2056281
1.2056361
1.2056316
1.2056241
1.2056375
1.205665
1.2053975
1.205399
1.2054066
1.2054131
1.2054218
1.2054067
1.2053919
1.2053882
1.2053759
1.2052368
1.2052333
1.2052293
1.2052301
1.2052065
1.2052162
1.2052336
1.2052351
1.2052443
1.2051273
1.2051233
1.2051192
1.2051172
1.2051372
1.2051421
1.2051193
1.205103
1.2051034
1.2050903
1.2050895
1.2050713
1.2050579
1.2050674
1.2050791
1.2050911
1.2050942
1.2050969
1.205095
1.2050959
1.2051103
1.2051188
1.2050935
1.2050757
1.2050746
1.2050738
1.2050732
1.205078
1.2050774
1.2050775
1.2050732
1.2050753
1.2050768
1.2050763
1.2050762
1.2050784
1.2050956
1.2050933
1.2050914
1.2050895
1.205086
1.2050822
1.205076
1.2050717
1.2050693
1.2050537
1.2050524
1.205052
1.2050519
1.2050539
1.2050538
1.2050547
1.2050556
1.2050552
1.2052023
1.2052016
1.2052002
1.2051988
1.205196
1.2051936
1.2051908
1.205189
1.2051876
1.2054822
1.2054814
1.2054809
1.20548
1.2054794
1.2054788
1.2054783
1.2054776
1.2054782
1.2056625
1.2056614
1.2056603
1.2056592
1.205658
1.2056567
1.2056558
1.2056555
1.2056563
1.1967816
1.1976303
1.1985188
1.1994248
1.200485
1.20149
1.2024555
1.2033836
1.204178
1.2048846
1.2055443
1.2059128
1.2062689
1.2063741
1.2064122
1.2063676
1.2062341
1.2061649
1.2059278
1.2056158
1.2054006
1.2052389
1.2051278
1.2050927
1.2050982
1.2050791
1.205098
1.2050542
1.2052034
1.2054854
1.2056641
1.1966644
1.1975142
1.1984259
1.199379
1.2004142
1.20141
1.2023772
1.2032867
1.204121
1.2048261
1.2055038
1.2058808
1.2062424
1.2063712
1.2064094
1.2063717
1.2062193
1.2061637
1.2059334
1.2056205
1.2054023
1.2052395
1.2051271
1.2050949
1.2051004
1.2050798
1.2051003
1.2050551
1.2052041
1.2054864
1.2056648
1.1966051
1.1974534
1.19837
1.1993563
1.2003715
1.2013447
1.2023124
1.2032358
1.2040821
1.2047757
1.2054825
1.2058684
1.2062261
1.2063656
1.2064053
1.206363
1.2062183
1.2061591
1.2059381
1.2056273
1.2054037
1.20524
1.2051259
1.2050972
1.2051021
1.2050804
1.2051036
1.2050563
1.2052044
1.205487
1.2056651
1.19655
1.1974086
1.198336
1.1993472
1.2003495
1.2013133
1.2022655
1.2032178
1.2040742
1.2047561
1.2054764
1.2058757
1.206234
1.2063856
1.2064237
1.2063772
1.2062271
1.2061559
1.2059487
1.2056401
1.2054116
1.2052425
1.2051282
1.2051011
1.205105
1.2050809
1.2051095
1.2050581
1.2052048
1.2054881
1.2056654
1.1966265
1.1974911
1.198411
1.199449
1.2004118
1.2013811
1.202289
1.2032863
1.204137
1.204808
1.2055586
1.2059737
1.2063072
1.2064528
1.2064838
1.2064365
1.2063064
1.2061623
1.2059748
1.2056805
1.2054485
1.2052557
1.2051494
1.2051098
1.2051178
1.2050843
1.2051195
1.2050619
1.2052077
1.2054928
1.2056661
1.1968544
1.1976878
1.1986004
1.1996083
1.2006615
1.2015309
1.2024966
1.2035314
1.2043753
1.2050486
1.2057951
1.2062109
1.2065418
1.2066702
1.2066715
1.2066314
1.2065052
1.2063169
1.2060933
1.205791
1.2055509
1.205353
1.2052162
1.2051373
1.2051513
1.2051116
1.2051324
1.2050703
1.2052229
1.2055092
1.2056678
)
;

boundaryField
{
    Side1
    {
        type            empty;
    }
    Inlet
    {
        type            calculated;
        value           uniform 1.2020535;
    }
    Side2
    {
        type            empty;
    }
    Outlet
    {
        type            calculated;
        value           nonuniform List<scalar> 0();
    }
    Botwall
    {
        type            calculated;
        value           nonuniform List<scalar> 
59
(
1.1878059
1.1887352
1.1896314
1.1906544
1.1959529
1.1945853
1.1930262
1.1913266
1.1895277
1.1876777
1.1857595
1.1839367
1.1821705
1.1806386
1.1792875
1.1782499
1.1774531
1.1771327
1.1772632
1.1776515
1.1782842
1.1790832
1.1800772
1.1811819
1.1824211
1.183733
1.1851519
1.1865609
1.1968544
1.1976878
1.1986004
1.1996083
1.2006615
1.2015309
1.2024966
1.2035314
1.2043753
1.2050486
1.2057951
1.2062109
1.2065418
1.2066702
1.2066715
1.2066314
1.2065052
1.2063169
1.2060933
1.205791
1.2055509
1.205353
1.2052162
1.2051373
1.2051513
1.2051116
1.2051324
1.2050703
1.2052229
1.2055092
1.2056678
)
;
    }
    Cyli
    {
        type            calculated;
        value           nonuniform List<scalar> 
76
(
1.1908933
1.1864468
1.1819381
1.1771926
1.1727342
1.1680124
1.1640628
1.1594674
1.1567572
1.1514154
1.15063
1.1478787
1.1473358
1.1454194
1.1465498
1.1482627
1.1523973
1.1560976
1.1605453
1.1648305
1.1688127
1.1730894
1.1753397
1.1754669
1.175951
1.176694
1.1773303
1.1777568
1.1779113
1.1777198
1.1772717
1.1768705
1.1766563
1.1771706
1.1784457
1.1804714
1.1829773
1.1856148
1.1879264
1.1898481
1.1914432
1.1925138
1.1933655
1.19389
1.1940066
1.1941722
1.1946037
1.19477
1.1897837
1.193177
1.1967349
1.2001052
1.2033904
1.2065072
1.2091453
1.211051
1.2129698
1.2143584
1.2159206
1.2164661
1.2175417
1.217125
1.2166921
1.2160053
1.2145284
1.2130757
1.2108715
1.2088694
1.2060353
1.2028791
1.1992393
1.1952722
1.1945925
1.1943556
1.1827914
1.1861445
)
;
    }
    procBoundary0to1
    {
        type            processor;
        value           nonuniform List<scalar> 
44
(
1.1867596
1.1867596
1.186698
1.1846559
1.1846559
1.1816079
1.1816079
1.1796079
1.1767101
1.1767101
1.1757696
1.1757696
1.1738991
1.1727053
1.1721358
1.1721358
1.1720346
1.1736863
1.1775857
1.182031
1.1861241
1.1861241
1.189284
1.1914436
1.1929425
1.1929425
1.1941152
1.1915565
1.1918398
1.1885085
1.1892015
1.190235
1.1910756
1.1917064
1.1915565
1.192192
1.1885085
1.1890685
1.1919753
1.1920189
1.1920688
1.1920665
1.1919667
1.1915781
)
;
    }
    procBoundary0to2
    {
        type            processor;
        value           nonuniform List<scalar> 
55
(
1.1950364
1.195402
1.195783
1.196142
1.1965322
1.194671
1.1946471
1.1943202
1.194671
1.1941472
1.1917394
1.1966389
1.1930355
1.1966389
1.1976158
1.1943202
1.19414
1.19414
1.1939905
1.1793884
1.1873496
1.1873496
1.1917394
1.1993378
1.2009687
1.2021742
1.2035879
1.2044876
1.2054033
1.2059958
1.2067116
1.2069979
1.2072256
1.2070979
1.2071154
1.207009
1.207009
1.2067964
1.206547
1.2062617
1.2060238
1.2058
1.2055271
1.2053151
1.2051094
1.2050011
1.2049691
1.204954
1.2049854
1.2050038
1.2049823
1.2050104
1.2051128
1.2054278
1.2055786
)
;
    }
    procBoundary0to3
    {
        type            processor;
        value           nonuniform List<scalar> 7(1.1952657 1.1952657 1.1963119 1.1963119 1.1972021 1.1972021 1.197448);
    }
}


// ************************************************************************* //
