/*--------------------------------*- C++ -*----------------------------------*\
| =========                 |                                                 |
| \\      /  F ield         | OpenFOAM: The Open Source CFD Toolbox           |
|  \\    /   O peration     | Version:  2406                                  |
|   \\  /    A nd           | Website:  www.openfoam.com                      |
|    \\/     M anipulation  |                                                 |
\*---------------------------------------------------------------------------*/
FoamFile
{
    version     2.0;
    format      ascii;
    arch        "LSB;label=32;scalar=64";
    class       volScalarField;
    location    "0.047";
    object      alphat;
}
// * * * * * * * * * * * * * * * * * * * * * * * * * * * * * * * * * * * * * //

dimensions      [1 -1 -1 0 0 0 0];

internalField   nonuniform List<scalar> 
8260
(
0.040029541
0.045397402
0.051707422
0.058834817
0.066617571
0.074883107
0.083411814
0.091907431
0.09996844
0.10701972
0.11225043
0.11453963
0.11236815
0.10383485
0.086889731
0.060624134
0.032101238
0.014955294
0.0096376873
0.0079871481
0.0070749298
0.006505022
0.006038655
0.0056662641
0.0054240839
0.0052552558
0.0051459304
0.005061553
0.0050043091
0.0049651298
0.0049444015
0.047384012
0.052912635
0.058980531
0.065656855
0.072900569
0.080581466
0.088491861
0.096335257
0.10370216
0.11000942
0.11441702
0.11578183
0.11256578
0.10288002
0.084726675
0.057746799
0.029344231
0.0140791
0.0093749868
0.007884305
0.0070138006
0.0064684415
0.0060186045
0.0056547451
0.0054178932
0.0052513137
0.0051434275
0.005060011
0.005003233
0.0049643871
0.0049438932
0.05581013
0.061130547
0.06689408
0.073139212
0.079843114
0.086901581
0.094125041
0.10122547
0.10778879
0.11321793
0.11666006
0.1169468
0.11252292
0.10152054
0.082030273
0.054255793
0.02662196
0.013161845
0.0091795666
0.0078298092
0.0069809895
0.0064487351
0.0060080076
0.0056487921
0.0054147485
0.0052492942
0.0051420926
0.0050591716
0.0050024731
0.0049637391
0.0049433356
0.065417896
0.070306906
0.075626053
0.081354422
0.087453909
0.093820862
0.10027169
0.10652224
0.1121547
0.11656104
0.11887436
0.11790516
0.11208495
0.099578412
0.078615862
0.05006635
0.023803607
0.012359596
0.0090208439
0.0077439294
0.0069254503
0.0064139721
0.0059884316
0.005637745
0.0054088589
0.0052454626
0.0051395047
0.0050575276
0.0050012471
0.0049628444
0.0049427009
0.076203729
0.080494952
0.085244722
0.090340251
0.095729887
0.10130176
0.10686801
0.11214062
0.11669441
0.11991031
0.12090679
0.11847673
0.11104527
0.09682652
0.074261365
0.045092225
0.020966939
0.011584867
0.0088381608
0.0076653527
0.006876828
0.0063837111
0.0059710014
0.0056281674
0.0054039266
0.0052422075
0.0051373634
0.0050561705
0.0050001218
0.00496194
0.0049419778
0.087960762
0.091584034
0.095649766
0.099994175
0.10455358
0.10920578
0.11375349
0.11789898
0.12120508
0.12303933
0.12250602
0.11838377
0.10910311
0.092952819
0.068688644
0.039293038
0.018422387
0.010871645
0.0086687426
0.0075692725
0.0068139238
0.0063434882
0.005947016
0.0056147523
0.0053969535
0.0052375762
0.0051342835
0.0050541994
0.0049986198
0.0049608111
0.0049411533
0.10032078
0.10323456
0.10652769
0.11001765
0.11362944
0.11723047
0.12061237
0.12346457
0.12533491
0.12557544
0.12327678
0.11720814
0.10582608
0.087531825
0.061564107
0.032758179
0.016019329
0.010227876
0.008487618
0.0074720664
0.0067522201
0.0063038677
0.005922382
0.0056012757
0.0053901876
0.005233018
0.0051313164
0.0050522891
0.0049970867
0.0049595985
0.0049402141
0.11267928
0.11485298
0.11730456
0.11985157
0.12240736
0.12482806
0.12689282
0.12827652
0.1285105
0.12693067
0.12261556
0.1143328
0.10060283
0.079996882
0.052542321
0.025848194
0.013825835
0.0097277387
0.0083117997
0.0073614141
0.0066789609
0.0062557794
0.0058915711
0.0055841396
0.0053815457
0.0052271987
0.0051274886
0.0050497873
0.004995179
0.0049581413
0.0049391452
0.12408007
0.12548674
0.12703907
0.12856755
0.12997103
0.13109165
0.13169392
0.13143638
0.12983314
0.12620509
0.11962299
0.1088649
0.092587586
0.069633431
0.041454594
0.020222157
0.012014553
0.0093377513
0.0081227743
0.0072471675
0.0066043817
0.0062060072
0.005858671
0.0055658646
0.005372505
0.0052211664
0.0051235402
0.0050471654
0.0049931324
0.0049565319
0.0049379299
0.13302311
0.13365451
0.13426066
0.13470941
0.13488184
0.13460186
0.13361584
0.13156354
0.1279421
0.12206209
0.11299638
0.099549312
0.080652318
0.055682795
0.028923984
0.015762897
0.010617089
0.0089632485
0.0079306652
0.0071217223
0.0065187854
0.0061475479
0.0058200876
0.00554355
0.0053611747
0.0052138709
0.0051186693
0.0050438629
0.0049906513
0.0049546297
0.0049365476
0.13725063
0.13711901
0.13676727
0.13610413
0.13499364
0.13324323
0.13057861
0.12661935
0.12084992
0.11258451
0.10092359
0.084706138
0.063474932
0.03779951
0.019923788
0.012573469
0.0098109522
0.0086534435
0.0077294841
0.0069921418
0.0064307996
0.0060856625
0.0057795418
0.0055192717
0.0053484104
0.0052061696
0.0051134669
0.0050402571
0.0049879038
0.0049525008
0.0049349721
0.13347389
0.13256001
0.13127446
0.12952227
0.12714672
0.12393078
0.11957635
0.11368757
0.10575517
0.095139743
0.081052816
0.062267172
0.040093344
0.023114247
0.014317561
0.01056521
0.0093353784
0.0082983273
0.0075255795
0.0068469471
0.0063368371
0.0060145905
0.0057333527
0.0054909607
0.0053324819
0.0051970034
0.0051072003
0.0050358383
0.0049846048
0.0049500106
0.0049329323
0.11706562
0.11550949
0.11339793
0.11063644
0.10706439
0.10245014
0.096475028
0.088759335
0.078876236
0.066390036
0.051212243
0.036439503
0.023503931
0.015037103
0.011072854
0.0097549347
0.0087746771
0.0080061273
0.0073072708
0.0067095107
0.0062377463
0.0059374719
0.0056842902
0.005460966
0.0053148184
0.0051870748
0.0051003507
0.0050309952
0.0049809055
0.0049472122
0.0049302533
0.082498117
0.080301551
0.077614515
0.074479608
0.070746904
0.066228506
0.060727326
0.054170223
0.046522765
0.037862574
0.028694858
0.020339992
0.014375277
0.011167214
0.0097102482
0.0090227319
0.0083829876
0.0076320378
0.0070835477
0.0065483426
0.0061390573
0.0058555779
0.0056270839
0.0054270035
0.0052940296
0.0051755048
0.0050920876
0.0050252657
0.0049765638
0.0049439667
0.0049272897
0.04649586
0.045104046
0.043383861
0.04133598
0.038817901
0.035759232
0.032361434
0.02859153
0.024466363
0.020094956
0.01585027
0.012453624
0.010459896
0.0095314464
0.0091201834
0.0084657413
0.0078421849
0.0073405534
0.0068482827
0.0064096202
0.0060276217
0.0057625208
0.0055701496
0.0053914428
0.0052726005
0.0051628894
0.0050827118
0.0050190522
0.0049717753
0.00494032
0.0049240813
0.023027277
0.022530223
0.021794822
0.020861801
0.019702704
0.018316825
0.016774168
0.015113348
0.01338953
0.011719982
0.01025052
0.0092903004
0.0088449279
0.0089083614
0.0081798454
0.0076682529
0.0074418394
0.0069471786
0.0065863083
0.0062198726
0.0059142503
0.0056742374
0.0055082901
0.0053510793
0.0052467901
0.005149237
0.0050712677
0.0050118367
0.0049662731
0.0049361393
0.0049207462
0.012232842
0.012114223
0.011868082
0.011523894
0.011097562
0.010614133
0.010099769
0.0095523128
0.0089591147
0.0085060964
0.0082911456
0.0081509557
0.0082766006
0.0078785579
0.0076567077
0.0073377161
0.0068731459
0.0066206817
0.0062954759
0.0060502794
0.005806666
0.0055753052
0.0054382182
0.0053147
0.005220066
0.0051339393
0.005059117
0.0050036698
0.0049601211
0.0049315172
0.00491702
0.0082730784
0.008245455
0.0081706043
0.0080656137
0.0079295845
0.0077897893
0.0076694408
0.0075588043
0.0075000524
0.0075031463
0.0075973154
0.0074942888
0.0070524045
0.0070340961
0.0069401485
0.0066583061
0.0064570748
0.006209159
0.006034524
0.0058598949
0.00567123
0.0054825796
0.0053717074
0.0052724655
0.0051897963
0.0051169188
0.0050443144
0.0049942368
0.004953176
0.004926347
0.0049125014
0.00697854
0.0069317436
0.0069015714
0.0068849877
0.0068817453
0.0068827113
0.0069032938
0.006871855
0.0068386256
0.0068114741
0.0066965983
0.0065719504
0.0065918982
0.0064037283
0.0063582196
0.0063077752
0.0060405486
0.0059124015
0.0057872619
0.0056690208
0.0055570324
0.0054004595
0.0053045986
0.0052360631
0.005156346
0.0050974602
0.0050297744
0.0049833828
0.0049455141
0.0049207569
0.0049079236
0.0063908548
0.0063881058
0.0063814057
0.0063769617
0.0063908079
0.0064125556
0.006392372
0.006373375
0.006320711
0.0062064901
0.006155101
0.0061028932
0.0060258745
0.0060085841
0.0059248186
0.0058636706
0.0058179665
0.0056988392
0.005620739
0.00550129
0.0054335406
0.0053297009
0.0052417856
0.0051935901
0.0051222202
0.0050749928
0.0050113998
0.0049714846
0.0049375085
0.0049145553
0.0049026484
0.0059639174
0.0059595868
0.0059513551
0.0059312381
0.0058972007
0.0058513458
0.0058429976
0.0058354548
0.0058230292
0.0058133759
0.0058067565
0.0058020846
0.005718588
0.0057324513
0.0057095149
0.0056642907
0.0055785298
0.0054871037
0.0054261833
0.00537781
0.0053575917
0.0052631772
0.0051920746
0.0051524619
0.0050885528
0.0050475914
0.0049955385
0.0049586865
0.0049285642
0.0049079322
0.0048972501
0.0055579575
0.0055586722
0.0055565329
0.0055513963
0.0055462346
0.0055493712
0.0055573645
0.0055586889
0.0055519689
0.0055351278
0.0055105947
0.0054897343
0.0055139465
0.0054463126
0.0054367097
0.0053910298
0.0053631934
0.0052814303
0.0052622084
0.00524455
0.0052499431
0.005215876
0.005124309
0.0051019882
0.0050576637
0.0050181215
0.0049750188
0.0049450399
0.0049191843
0.0049009103
0.0048914628
0.0053415524
0.0053424497
0.0053408408
0.0053368755
0.0053304112
0.0053200904
0.005305061
0.0052909957
0.0052881497
0.0052866679
0.005290306
0.0052937453
0.0052818378
0.0052915275
0.0052598136
0.0052594263
0.0051906876
0.0052098759
0.0051836428
0.0051677187
0.0051440254
0.0051322412
0.0050867597
0.0050528716
0.005023864
0.0049841895
0.0049567108
0.0049321974
0.0049089443
0.0048937129
0.0048852127
0.005139666
0.005140919
0.005140533
0.0051390408
0.0051374348
0.0051362041
0.0051359705
0.0051403973
0.0051460966
0.005147179
0.005144331
0.0051374427
0.0051318215
0.0051241528
0.0051161572
0.005106396
0.005099387
0.0050745156
0.0050761651
0.0050775312
0.0050577102
0.0050677362
0.0050415726
0.0049938365
0.0049842864
0.0049588617
0.0049354142
0.0049167723
0.0048993845
0.0048863938
0.0048794801
0.0050412184
0.0050431763
0.0050436277
0.0050430871
0.0050420819
0.0050406543
0.0050383355
0.0050340352
0.0050290862
0.0050281602
0.0050278082
0.0050303399
0.0050346556
0.0050359931
0.0050391347
0.0050267015
0.0050394825
0.0050234055
0.0050201415
0.0050257211
0.0050087984
0.0049918128
0.0049932544
0.0049638553
0.004945537
0.0049328896
0.0049191904
0.0049040279
0.0048902903
0.0048794677
0.0048732937
0.0049546
0.0049556141
0.0049558305
0.0049556483
0.0049554857
0.0049554669
0.0049556827
0.004956559
0.0049588985
0.0049604722
0.0049601377
0.0049574802
0.0049554194
0.0049565249
0.004957282
0.0049583031
0.004957039
0.004950027
0.0049635566
0.0049425894
0.0049477511
0.0049386158
0.0049403254
0.0049348112
0.0049207544
0.004912113
0.0049054874
0.0048912936
0.0048817731
0.0048734664
0.0048681706
0.0049163733
0.0049172037
0.0049174079
0.004917229
0.0049168344
0.0049161945
0.0049152615
0.0049143826
0.0049140819
0.0049138959
0.0049141235
0.0049149725
0.0049168718
0.0049189947
0.0049216144
0.0049226787
0.0049220177
0.0049184735
0.0049190713
0.0049156617
0.0049161348
0.0049114738
0.0049133069
0.0049156084
0.0049066062
0.0049006832
0.0048942275
0.0048839114
0.0048755027
0.0048678709
0.0048638525
0.0048869755
0.0048873167
0.0048874397
0.0048875184
0.0048877098
0.0048880604
0.0048885877
0.0048893467
0.0048906367
0.0048927263
0.0048951953
0.0048977238
0.0049000955
0.0049016706
0.0049009888
0.0049031888
0.0049023085
0.0049052447
0.0049004089
0.0049039795
0.0049012663
0.0049019074
0.0048983865
0.0048948249
0.0048973904
0.0048905555
0.0048823662
0.0048769671
0.004869654
0.0048645773
0.004862009
0.0048728018
0.0048730579
0.0048732339
0.0048734226
0.0048736896
0.0048740395
0.0048744564
0.0048749232
0.0048754898
0.0048761713
0.0048771508
0.0048783817
0.0048793239
0.0048794918
0.0048802121
0.004881072
0.0048846626
0.0048861165
0.0048884938
0.0048888557
0.0048900512
0.0048902931
0.0048880261
0.0048831904
0.0048815742
0.0048790086
0.0048752293
0.0048708011
0.0048664919
0.0048621044
0.004858119
0.0048661775
0.004866334
0.0048664728
0.0048666408
0.0048668582
0.0048671198
0.0048674157
0.0048677066
0.0048678728
0.0048681125
0.004868652
0.0048697763
0.0048708274
0.0048709552
0.0048707931
0.0048707557
0.0048715122
0.0048716939
0.0048720735
0.0048727767
0.0048738939
0.0048738142
0.004874327
0.0048741963
0.0048734215
0.0048723331
0.0048707892
0.0048681383
0.0048625008
0.0048585033
0.004858542
0.004859456
0.0048595681
0.0048597321
0.0048599541
0.0048602531
0.0048606529
0.004861179
0.0048618536
0.0048626804
0.0048636147
0.0048645337
0.0048657441
0.0048666827
0.0048670537
0.0048669046
0.0048667101
0.004866566
0.004866421
0.0048661991
0.0048672799
0.0048684824
0.0048682926
0.0048683773
0.0048691699
0.0048691125
0.0048681511
0.0048673579
0.0048644613
0.0048625118
0.0048616577
0.0048599829
0.00086294256
0.0018669485
0.0037523211
0.006582753
0.010335444
0.015103526
0.020987379
0.028041011
0.036363802
0.045408157
0.055333124
0.065688637
0.07568851
0.084099273
0.089066554
0.087952833
0.07747259
0.056551698
0.032059032
0.015537666
0.0092317068
0.0072545991
0.0063883688
0.0058711477
0.0055430368
0.0053335738
0.0051975611
0.0050977468
0.0050325193
0.0049865161
0.0049627939
0.0021117367
0.0042688673
0.0071216959
0.010539491
0.014715091
0.019777245
0.025795333
0.033102427
0.041192339
0.050173394
0.059898592
0.069854048
0.079200898
0.086642737
0.090266826
0.087406028
0.07489701
0.052505862
0.028265409
0.014011691
0.008724375
0.0071074289
0.0063283675
0.005839697
0.0055254034
0.0053238051
0.0051921931
0.0050945063
0.0050306764
0.0049854255
0.0049621699
0.0039259918
0.006269393
0.0091605392
0.012782882
0.017280117
0.022748811
0.029299554
0.036816988
0.045132505
0.054247442
0.063890741
0.073519575
0.082257587
0.088758753
0.091066355
0.08650627
0.072103504
0.04862296
0.025329286
0.012578575
0.0083857956
0.0070445965
0.0063017902
0.0058253556
0.0055170788
0.0053190547
0.0051895439
0.0050926508
0.0050294406
0.0049845277
0.0049615493
0.0057134298
0.0082847988
0.011535951
0.015556438
0.020392453
0.026169755
0.032987225
0.040555515
0.048986549
0.058123563
0.067619293
0.076884516
0.084991429
0.090540752
0.091536536
0.085313399
0.069138121
0.044916158
0.0227612
0.011724651
0.0081798416
0.0069670868
0.006261508
0.0058026228
0.005503707
0.0053113221
0.0051851763
0.0050899093
0.0050277913
0.0049835
0.0049608989
0.0074628213
0.010393494
0.013992397
0.018314398
0.023455074
0.029544218
0.036446969
0.044195157
0.052732184
0.061845107
0.071148559
0.080012288
0.087458709
0.092038569
0.091723239
0.083869242
0.066046144
0.041357079
0.020489435
0.010838548
0.0079815462
0.006913466
0.0062356108
0.0057881655
0.0054952673
0.0053063772
0.0051823561
0.0050879621
0.0050264873
0.0049825813
0.0049602041
0.0093135003
0.012545582
0.01642102
0.021018338
0.026501498
0.032803301
0.039886908
0.047789017
0.056385395
0.065429681
0.074501868
0.082930185
0.089689347
0.093284539
0.091661059
0.082206197
0.06287261
0.037950786
0.018499673
0.0102556
0.0078453117
0.0068585432
0.0062045017
0.0057701086
0.0054845357
0.0053000021
0.00517868
0.0050855829
0.0050249699
0.0049815935
0.0049594785
0.011107909
0.014627651
0.018803286
0.023735901
0.02948555
0.035985453
0.043276408
0.05130796
0.05993184
0.068875715
0.077686379
0.085652159
0.091703352
0.094304407
0.091380443
0.080364247
0.059659942
0.034751571
0.016803413
0.0097126533
0.0077216055
0.0068143449
0.0061811499
0.0057567411
0.0054767033
0.0052952638
0.0051759047
0.0050836673
0.00502365
0.0049806676
0.0049587399
0.012843772
0.016681307
0.021171375
0.026449873
0.032412363
0.039134645
0.046603227
0.054736225
0.063361779
0.072180076
0.08070541
0.088188277
0.0935179
0.095122751
0.090912486
0.078387073
0.056451709
0.031802535
0.015396075
0.0093311689
0.0076273894
0.0067722522
0.0061565132
0.0057421586
0.0054680323
0.0052899385
0.0051727466
0.0050815667
0.0050222295
0.0049797076
0.004957992
0.014576071
0.018713077
0.023523614
0.029068986
0.035276075
0.042215949
0.04984543
0.058060612
0.066667372
0.075339925
0.0835619
0.090548223
0.095150379
0.095765985
0.09029712
0.076313837
0.053318968
0.02913675
0.014281085
0.0090333072
0.0075430548
0.0067360265
0.006136485
0.00573044
0.0054611806
0.0052856327
0.0051701367
0.005079753
0.0050209279
0.0049787841
0.0049572378
0.016253189
0.020694213
0.025828403
0.031607922
0.038070716
0.045218537
0.052992686
0.061272268
0.069842653
0.078353599
0.086259803
0.092742774
0.096619487
0.096260211
0.089572034
0.074189372
0.050274861
0.026770202
0.013331652
0.0088031229
0.0074734308
0.0067025592
0.0061168903
0.0057186514
0.005454226
0.0052811824
0.005167398
0.0050778852
0.005019588
0.0049778458
0.0049564779
0.017913162
0.022650054
0.02806422
0.034089057
0.040796573
0.048133885
0.056035538
0.064363291
0.072882849
0.081220769
0.088804532
0.094784346
0.097945793
0.096633689
0.088769144
0.072055652
0.047368545
0.024711707
0.012599277
0.0086215613
0.0074110661
0.0066729929
0.0061003999
0.0057087907
0.0054485166
0.0052774236
0.0051650178
0.0050762104
0.0050183262
0.0049769306
0.0049557128
0.019527835
0.024562681
0.030224841
0.036506563
0.043440649
0.050950181
0.058964756
0.067326664
0.075784357
0.083942472
0.091203069
0.09668695
0.099150382
0.096918654
0.087923095
0.069958625
0.044642383
0.022959976
0.011997674
0.0084771762
0.0073573687
0.0066461211
0.0060850801
0.0056993918
0.0054430657
0.0052737479
0.0051626433
0.0050745507
0.0050170606
0.0049760111
0.0049549424
0.021117924
0.026424299
0.032329213
0.038852059
0.045982031
0.053657265
0.061771465
0.070156489
0.078544915
0.086521196
0.093463805
0.098465511
0.10025424
0.097139921
0.087066371
0.067937384
0.042128592
0.021497382
0.01154403
0.0083627203
0.007309184
0.0066222673
0.0060721448
0.0056914212
0.0054385459
0.0052705861
0.0051605261
0.0050730347
0.0050158528
0.0049751077
0.0049541672
0.022681481
0.028231539
0.034373992
0.041116692
0.048416117
0.056249366
0.064447503
0.072847012
0.081163804
0.088962024
0.095596859
0.10013719
0.10128053
0.097325708
0.086234122
0.066018875
0.039851375
0.020304949
0.011205559
0.0082712083
0.0072668279
0.0066009343
0.0060607022
0.0056841432
0.005434447
0.005267622
0.0051584842
0.0050715701
0.0050146605
0.0049742058
0.0049533871
0.024223585
0.029989523
0.036351784
0.043295245
0.050770041
0.058694185
0.066988471
0.07539632
0.083640589
0.091270873
0.097611654
0.10171667
0.10225542
0.097513436
0.085472146
0.064225498
0.037825581
0.019363612
0.010974255
0.0081991108
0.0072289565
0.0065821981
0.0060513032
0.0056780212
0.0054310889
0.0052650728
0.0051566453
0.0050702232
0.0050135171
0.0049733175
0.0049526013
0.025720503
0.031691088
0.038252066
0.045374151
0.053000869
0.061041951
0.069362461
0.077792039
0.085969104
0.093439279
0.09951652
0.10322045
0.10320248
0.097735577
0.084821517
0.062596605
0.036062808
0.018662022
0.010800614
0.0081397446
0.0071956248
0.0065658151
0.0060435281
0.0056726961
0.0054281982
0.0052627753
0.0051549159
0.0050689466
0.005012402
0.0049724361
0.004951808
0.027119219
0.033293887
0.040040979
0.047326277
0.055086729
0.063226798
0.071595653
0.079994393
0.088117311
0.095469109
0.1013106
0.10466145
0.10414283
0.098021957
0.084318753
0.061195494
0.03461242
0.018069165
0.010623039
0.0080884091
0.007166288
0.0065517411
0.0060375977
0.0056683965
0.0054259153
0.0052608344
0.0051533589
0.0050677739
0.0050113317
0.0049715668
0.0049510073
0.028396546
0.034736594
0.04164705
0.049081484
0.056972233
0.065212803
0.073648469
0.08206111
0.090121202
0.097330334
0.1029883
0.10605036
0.105096
0.098399419
0.083995549
0.060073577
0.033450987
0.017573429
0.010472087
0.0080472796
0.0071409593
0.0065397791
0.0060332691
0.0056649653
0.0054240929
0.0052591654
0.0051519275
0.0050666813
0.0050102961
0.0049707064
0.0049501996
0.02974472
0.036158686
0.043156213
0.050686871
0.058669667
0.066990312
0.075485613
0.083925602
0.091965711
0.099094646
0.10458479
0.10737102
0.10607686
0.098891344
0.083879152
0.059269563
0.032558448
0.017154914
0.010333034
0.0080146722
0.0071195051
0.0065298206
0.0060305657
0.0056625325
0.0054227928
0.0052578162
0.0051506534
0.0050656861
0.0050093045
0.0049698579
0.0049493852
0.03108342
0.03754752
0.044589756
0.052168789
0.060203716
0.068576488
0.077116441
0.085584366
0.093621402
0.10070378
0.10608455
0.10869266
0.10710288
0.099484148
0.083990533
0.058811805
0.03192297
0.016797931
0.010208199
0.0079912019
0.0071020866
0.0065217521
0.0060293183
0.0056610558
0.0054219529
0.0052567456
0.0051495165
0.0050647769
0.0050083523
0.0049690199
0.0049485653
0.032394707
0.038870816
0.045920699
0.053511021
0.061563595
0.069964138
0.078535728
0.087032674
0.095083238
0.10215463
0.1074798
0.1099745
0.10818392
0.10027109
0.084341873
0.058720719
0.031545126
0.016480377
0.010091024
0.0079765587
0.0070889775
0.0065155986
0.0060295019
0.0056606201
0.0054216185
0.0052559763
0.0051485338
0.0050639606
0.0050074434
0.0049681928
0.0049477406
0.033664448
0.040113031
0.047130873
0.054696533
0.062733215
0.071145602
0.079765356
0.088317992
0.096421552
0.10350467
0.10879842
0.11122731
0.1093194
0.10121119
0.084969428
0.059012131
0.031450271
0.01617288
0.0099772947
0.0079712613
0.0070805985
0.0065114161
0.0060306582
0.005660964
0.005421733
0.0052554792
0.0051476905
0.0050632261
0.0050065718
0.0049673734
0.0049469109
0.034904315
0.041256218
0.048185611
0.05568862
0.063721541
0.072161948
0.080821112
0.089410447
0.097537297
0.10465837
0.10998858
0.11243414
0.11050769
0.10231202
0.085863753
0.059713733
0.031620834
0.015835044
0.0098670921
0.0079736638
0.0070771469
0.006509138
0.0060331559
0.0056624124
0.0054221496
0.0052552352
0.0051469768
0.0050625656
0.0050057333
0.0049665599
0.0049460754
0.036109534
0.042262781
0.049003941
0.056355879
0.064298892
0.07270238
0.081366979
0.09000676
0.09822026
0.10544058
0.11087563
0.11341566
0.11155244
0.10336529
0.086807226
0.06056029
0.032064719
0.015408615
0.0097539144
0.0079819498
0.007077968
0.0065083259
0.006036129
0.0056644093
0.0054230938
0.0052551743
0.0051463612
0.0050619637
0.0050049227
0.0049657527
0.004945234
0.0008828155
0.0018058707
0.0035823339
0.0062617361
0.0098304844
0.014316697
0.019873898
0.02661229
0.034667089
0.043524488
0.05333461
0.063680879
0.073813145
0.082561478
0.088125177
0.087904017
0.078548857
0.058455307
0.03374753
0.016140609
0.0093684593
0.0072898745
0.0064024713
0.0058791899
0.0055484614
0.0053369344
0.0051994771
0.0050991646
0.0050334586
0.0049872192
0.0049630587
0.00093597255
0.0018531637
0.0036007845
0.0062064418
0.0096802079
0.014094101
0.019567578
0.026200242
0.034117031
0.042886579
0.052546918
0.062770191
0.072874335
0.081697662
0.087472491
0.087634288
0.078870719
0.059323815
0.03463922
0.016531028
0.009453208
0.0073085675
0.0064099185
0.0058837771
0.0055519376
0.0053392408
0.0052008495
0.0051001639
0.0050341509
0.0049877214
0.0049633344
0.0010005238
0.0019053717
0.003628928
0.006187188
0.009594771
0.01392256
0.019284195
0.025784699
0.03352626
0.042168614
0.051705683
0.06183552
0.071904824
0.080795929
0.086778565
0.087327496
0.079168981
0.060206319
0.035588391
0.016955805
0.0095469802
0.0073301986
0.0064189219
0.0058891354
0.0055557146
0.0053415118
0.0052021213
0.0051011989
0.0050348363
0.0049882817
0.0049636801
0.0010749198
0.0019604166
0.0036558227
0.0061662017
0.009507147
0.013748152
0.018997948
0.025360951
0.032932788
0.041440964
0.050848861
0.060876466
0.07090441
0.079855211
0.086040912
0.086979778
0.079437441
0.061101293
0.036592833
0.017423363
0.0096509244
0.0073497746
0.0064261066
0.0058938173
0.0055596183
0.0053442963
0.0052038426
0.0051023847
0.0050356598
0.0049888477
0.0049641312
0.0011665614
0.0020268454
0.003687889
0.0061485963
0.0094214985
0.013574277
0.018711131
0.024932217
0.032337328
0.040706145
0.04997828
0.059896367
0.069873913
0.078875374
0.085258023
0.086588095
0.079670463
0.062004408
0.037648512
0.017939351
0.0097674176
0.0073788016
0.0064389068
0.0059012645
0.0055643988
0.0053469261
0.0052053015
0.0051035891
0.0050364415
0.004989472
0.0049644699
0.0012764591
0.0020989706
0.0037199916
0.0061293309
0.0093350629
0.013400582
0.01842573
0.024510061
0.031744488
0.039968665
0.049098332
0.058899047
0.068816163
0.077858082
0.08442979
0.086150225
0.079863043
0.062910819
0.038738042
0.018504321
0.0098989154
0.0074001334
0.0064463164
0.0059063675
0.0055688869
0.0053499609
0.0052070829
0.0051049309
0.0050373226
0.0049901386
0.0049647912
0.0014131835
0.0021942309
0.0037674606
0.0061241682
0.0092625449
0.013240427
0.018153225
0.024099039
0.031161556
0.039235455
0.04821354
0.057887476
0.067732346
0.076803954
0.083555504
0.085664015
0.080013065
0.063816114
0.039879839
0.019123737
0.010044577
0.0074279924
0.006457391
0.0059134462
0.0055741202
0.0053532283
0.005209001
0.0051063653
0.0050382558
0.0049908479
0.0049651853
0.0015756813
0.0023076999
0.0038264591
0.0061267724
0.0091970333
0.013086986
0.017887118
0.023694439
0.030594553
0.038501262
0.047320911
0.056859428
0.066618256
0.075711514
0.082632968
0.085125669
0.080118793
0.06470966
0.041099348
0.019802954
0.010209394
0.0074582322
0.0064692623
0.0059210939
0.0055797196
0.0053567099
0.0052110503
0.0051078967
0.0050392467
0.0049916004
0.004965788
0.0017729208
0.0024454914
0.0039097632
0.0061499684
0.0091500594
0.012951328
0.017638363
0.023305396
0.03002625
0.037775061
0.046430824
0.05582527
0.065495272
0.074587977
0.081665777
0.084534193
0.080173693
0.065583297
0.042372187
0.020546172
0.010394676
0.0074910251
0.0064820761
0.0059294955
0.0055857708
0.0053604621
0.0052132624
0.0051095299
0.0050402955
0.0049923975
0.0049664459
0.0020022626
0.0026146652
0.0040162502
0.0061955302
0.0091263318
0.012839541
0.017413348
0.022938491
0.029480547
0.037063682
0.045549347
0.054790607
0.064360697
0.07343689
0.080655531
0.083887682
0.080171912
0.066438031
0.043692521
0.02135778
0.010602588
0.0075271337
0.0064961328
0.0059388129
0.0055923427
0.0053645038
0.0052156327
0.0051112735
0.0050414133
0.0049932431
0.0049671623
0.0022674107
0.0028288598
0.0041641391
0.00627755
0.009136356
0.012760507
0.017220328
0.022602752
0.028975211
0.036384406
0.044684992
0.053761451
0.063212115
0.072261888
0.079604465
0.083185284
0.080108953
0.067260779
0.045059751
0.022244073
0.010836278
0.0075667335
0.0065112044
0.0059489007
0.0055993002
0.0053688199
0.005218187
0.0051131249
0.0050425952
0.0049941369
0.0049678732
0.0025719644
0.0030889115
0.0043606476
0.0064064464
0.009191248
0.012724502
0.017068611
0.022307133
0.028509613
0.035727613
0.043843023
0.052744676
0.062062268
0.071067999
0.078515573
0.082427047
0.079980101
0.068030926
0.046426685
0.023201931
0.0110981
0.0076110081
0.0065287005
0.0059607109
0.0056071929
0.0053736114
0.0052209524
0.0051151057
0.0050438597
0.0049950837
0.0049686099
0.0029100639
0.003399272
0.0046168689
0.0065940103
0.009302583
0.012742973
0.016970143
0.022059988
0.028089325
0.035095369
0.043028853
0.05174747
0.060917929
0.069860353
0.077392566
0.081613917
0.079781912
0.068740827
0.047780003
0.024234898
0.011393158
0.0076604038
0.0065465832
0.0059728131
0.0056151095
0.0053785471
0.005223876
0.0051171848
0.0050451905
0.004996083
0.0049693957
0.0032755091
0.003761671
0.0049345349
0.0068531098
0.0094840061
0.012828778
0.016936758
0.021872901
0.027724657
0.03452983
0.042262144
0.05077959
0.059786327
0.068639813
0.076239668
0.080747746
0.079512139
0.069382506
0.04913362
0.02534551
0.011723469
0.0077165226
0.006569858
0.0059882106
0.0056248577
0.0053843414
0.0052271308
0.005119434
0.005046621
0.0049971406
0.0049702426
0.0036863163
0.0041950523
0.0053419752
0.0072002721
0.0097536995
0.012998628
0.01698171
0.021758755
0.027424812
0.034025776
0.041548295
0.049850112
0.058676564
0.067430306
0.07506379
0.079831547
0.079169528
0.069947868
0.050475781
0.026529373
0.012097649
0.0077804684
0.0065913057
0.0060028854
0.0056339149
0.0053899654
0.0052304217
0.0051217459
0.0050481128
0.0049982531
0.0049711418
0.0041568181
0.004721164
0.0058663036
0.007675571
0.010134351
0.013268243
0.017117178
0.021728766
0.027199024
0.033586635
0.040867267
0.048961422
0.05759625
0.066235839
0.073871828
0.0788695
0.07875409
0.070427599
0.051804996
0.027791945
0.012514821
0.0078545965
0.0066233604
0.0060226211
0.0056459834
0.0053969518
0.0052342811
0.0051243138
0.0050497255
0.0049994233
0.0049720812
0.0047343059
0.0053578683
0.0065049282
0.0082577123
0.010630202
0.01364515
0.017350134
0.021789678
0.027054346
0.033221527
0.040265685
0.048124716
0.05655128
0.065045776
0.072668653
0.07786677
0.0782687
0.07081629
0.053113072
0.029113126
0.01299157
0.0079484956
0.0066509481
0.0060418088
0.0056570494
0.005403544
0.0052379518
0.0051268762
0.0050513794
0.0050006526
0.0049730583
0.0054656288
0.0061298413
0.0072649266
0.0089518008
0.011231179
0.014124505
0.017679518
0.021941765
0.026993382
0.03293374
0.039736443
0.047352807
0.055548749
0.063877791
0.071461097
0.076829331
0.077718599
0.071123001
0.054410571
0.0305495
0.013522388
0.0080567265
0.006691969
0.0060648582
0.0056709755
0.0054114799
0.0052424979
0.0051298254
0.0050531773
0.0050019329
0.0049740725
0.0063880253
0.0070612389
0.008167522
0.0097838785
0.011959015
0.014706168
0.018099306
0.022178417
0.027012762
0.032721074
0.039275471
0.04663523
0.054592435
0.062737205
0.070255321
0.075762808
0.077105656
0.07135118
0.055670656
0.032047588
0.014132826
0.0081863351
0.0067342094
0.0060930135
0.0056861879
0.0054199253
0.0052467286
0.0051326981
0.0050549787
0.0050032835
0.0049751201
0.0075041194
0.0081510743
0.0091955577
0.010713595
0.012755657
0.01536565
0.018592934
0.022484994
0.027101775
0.032574391
0.038873982
0.045959706
0.053678562
0.061626287
0.069056541
0.074672457
0.076432257
0.071488484
0.056868061
0.03359404
0.014807579
0.0083400426
0.0067767835
0.0061168411
0.0057000987
0.0054279289
0.0052518883
0.0051360386
0.0050569556
0.0050046585
0.0049761986
0.0087885891
0.0093760485
0.010324664
0.011716298
0.01361109
0.016069273
0.019130003
0.022836209
0.027240833
0.032478176
0.038523525
0.04534695
0.05280747
0.060543363
0.067854714
0.073560849
0.075703063
0.071539055
0.058001975
0.03523388
0.015584683
0.0085148174
0.0068453721
0.0061565544
0.0057211681
0.0054396259