/*--------------------------------*- C++ -*----------------------------------*\
| =========                 |                                                 |
| \\      /  F ield         | OpenFOAM: The Open Source CFD Toolbox           |
|  \\    /   O peration     | Version:  2406                                  |
|   \\  /    A nd           | Website:  www.openfoam.com                      |
|    \\/     M anipulation  |                                                 |
\*---------------------------------------------------------------------------*/
FoamFile
{
    version     2.0;
    format      ascii;
    arch        "LSB;label=32;scalar=64";
    class       volScalarField;
    location    "0.047";
    object      k;
}
// * * * * * * * * * * * * * * * * * * * * * * * * * * * * * * * * * * * * * //

dimensions      [0 2 -2 0 0 0 0];

internalField   nonuniform List<scalar> 
8260
(
647.83836
626.81905
597.98682
562.55148
521.37851
475.2805
425.40413
373.19644
320.26732
268.07798
217.93681
170.95966
127.99001
89.672502
56.427487
29.033949
10.545498
3.2441432
1.580058
1.1038221
0.85963184
0.72208876
0.61788643
0.54112657
0.49415923
0.46279769
0.44306269
0.42815895
0.41812787
0.41135763
0.40778755
632.32109
608.64038
578.50037
542.91544
502.43305
457.66896
409.55657
359.32616
308.418
258.19792
209.82972
164.39093
122.72247
85.504577
53.167241
26.726472
9.2446373
2.9334592
1.5050024
1.075492
0.84435633
0.7137019
0.61368141
0.5388687
0.49299637
0.46208778
0.44262504
0.42789647
0.41794901
0.41123885
0.40770952
609.46093
584.68844
554.4867
519.55737
480.33513
437.34687
391.37836
343.48453
294.91981
246.92271
200.5801
156.90778
116.737
80.784052
49.509583
24.149004
8.0218922
2.6666177
1.4567332
1.0605031
0.83613996
0.7091856
0.61145316
0.53769795
0.49240194
0.4617188
0.44238905
0.42775155
0.41782537
0.41113758
0.40762382
578.37444
553.68694
524.47808
491.15313
454.00249
413.46345
370.20448
325.13318
279.33863
233.93284
189.93875
148.31553
109.88359
75.396432
45.373657
21.288237
6.8178699
2.421134
1.4074614
1.0366655
0.82228835
0.70126007
0.60736191
0.53554077
0.49129905
0.4610262
0.44193797
0.42747308
0.41762265
0.41099529
0.40752615
539.48464
515.95917
488.53519
457.55841
423.17954
385.72463
345.74027
303.99233
261.41768
219.00862
177.7195
138.45878
102.0373
69.245047
40.693224
18.150033
5.6591815
2.1925895
1.3569749
1.0151014
0.81020591
0.69436002
0.60371307
0.53366749
0.49037287
0.46043479
0.44156191
0.42724097
0.41743831
0.41085291
0.40741485
493.30916
471.79924
446.86143
418.85506
387.8327
354.01391
317.82001
279.87401
240.9646
201.96475
163.75396
127.19007
93.077292
62.238188
35.415312
14.790518
4.6427262
1.9850203
1.3061497
0.98887786
0.79477814
0.68527977
0.59872673
0.53105767
0.48907072
0.45959753
0.44102446
0.42690649
0.41719063
0.41067376
0.40728787
440.66836
421.81464
399.92902
375.38479
348.17268
318.42363
286.44104
252.70825
217.86778
182.66841
147.90469
114.37926
82.895002
54.296962
29.516424
11.346978
3.7390158
1.8011452
1.2541374
0.962634
0.77969848
0.67633813
0.59360374
0.52843492
0.48780734
0.45877132
0.44050473
0.42658083
0.41693905
0.41048226
0.40714318
382.96425
367.12949
348.63903
327.85554
304.7295
279.32074
251.8284
222.60487
192.14994
161.08249
130.09922
99.939409
71.416086
45.377111
23.046161
8.0670552
2.9752343
1.6518371
1.2015813
0.93310035
0.76208801
0.66561567
0.58724294
0.52511628
0.48620187
0.45771998
0.43983712
0.4261562
0.41662493
0.41025108
0.40697845
322.04979
309.31421
294.3002
277.34325
258.36696
237.37429
214.47511
189.9026
164.02024
137.31472
110.37406
83.864618
58.634492
35.514104
16.238159
5.5503685
2.389201
1.5287551
1.1471593
0.90301501
0.74426298
0.65454671
0.58045957
0.52157742
0.48452524
0.45662852
0.43914714
0.42570992
0.41628891
0.40999641
0.40679113
259.94864
250.16872
238.49052
225.21411
210.24726
193.55069
175.15921
155.20103
133.91611
111.666
88.927891
66.285814
44.663359
24.931396
9.7483496
3.7379325
1.9680904
1.4130612
1.0914246
0.87049073
0.72420633
0.6417379
0.57257281
0.51727676
0.4824333
0.45531246
0.4382992
0.42514926
0.41588062
0.40969452
0.406578
198.79787
191.63918
183.01234
173.10751
161.83099
149.12002
134.95397
119.37804
102.53264
84.676187
66.189746
47.559409
29.885033
14.264181
5.4974556
2.6018105
1.7125073
1.3107683
1.0345928
0.83743031
0.70375737
0.62826159
0.56431302
0.51260079
0.48007956
0.45392269
0.43739334
0.42453586
0.41542913
0.40935718
0.40633487
140.65964
135.68454
129.67384
122.70464
114.67711
105.50518
95.128294
83.538577
70.818024
57.168864
42.926811
28.406887
15.26999
6.8654935
3.1934956
1.9820447
1.5362998
1.2020983
0.97764933
0.80124603
0.68238844
0.61306905
0.55500998
0.50717958
0.47715139
0.45227421
0.43630683
0.42378617
0.41488609
0.40896192
0.40603669
87.550451
84.406722
80.537438
75.96054
70.591532
64.346144
57.156801
49.018347
40.029394
30.429083
20.748071
12.648253
6.6990279
3.4365058
2.1384641
1.6888829
1.3544813
1.1106537
0.91812816
0.76755223
0.66011695
0.59675758
0.54518995
0.50145123
0.47390805
0.45049045
0.43512079
0.4229641
0.41427793
0.40851843
0.40565022
41.829459
39.945846
37.700466
35.16078
32.25786
28.920499
25.135873
20.990127
16.621288
12.224687
8.2043792
5.0783434
3.1357302
2.1450594
1.6890344
1.4345649
1.2209248
1.0040404
0.85915154
0.72950726
0.6385101
0.57978889
0.53389341
0.49501918
0.47010712
0.44842153
0.43369611
0.4219947
0.41356447
0.40800384
0.4051962
15.105686
14.398483
13.57299
12.64125
11.542493
10.260648
8.8891959
7.4642676
6.0125304
4.6049495
3.37084
2.448265
1.9167422
1.6390096
1.4388047
1.2459518
1.063754
0.91965953
0.79933953
0.69735412
0.6147167
0.56083376
0.52271782
0.48831216
0.46620226
0.44617311
0.43208136
0.4209462
0.41278037
0.40742679
0.40468861
5.1169791
4.9458718
4.7138795
4.4408416
4.1195336
3.7501496
3.3481358
2.9339047
2.503766
2.1121196
1.7789036
1.5608402
1.4475063
1.3738808
1.1720664
1.0261029
0.94855595
0.82315667
0.7387465
0.65665799
0.59128476
0.54315141
0.51076517
0.48076386
0.46152729
0.44376172
0.43011645
0.41973376
0.41188202
0.40676577
0.40414468
2.0481539
2.0163276
1.9618778
1.8895583
1.8047072
1.7087883
1.6047009
1.4988272
1.3877913
1.3046239
1.2361802
1.1781876
1.1588983
1.0805886
1.0043306
0.90570188
0.80834786
0.74694427
0.6761597
0.62109095
0.56936536
0.52377147
0.49741571
0.47396802
0.45668991
0.44107782
0.4280379
0.41836658
0.41088135
0.40603753
0.40355312
1.1493659
1.1395741
1.1247586
1.1060551
1.0847945
1.067383
1.0508161
1.0265849
1.0045875
0.97938086
0.97950505
0.95797984
0.87926183
0.85116055
0.83477697
0.75984912
0.70934357
0.65979173
0.62092238
0.58220518
0.54298587
0.50587876
0.48486544
0.46621102
0.45125247
0.43812182
0.42551782
0.41679564
0.40975622
0.40522547
0.40287203
0.85861207
0.85309386
0.8485291
0.8434845
0.83705267
0.82664481
0.81607733
0.80471365
0.79689506
0.79199111
0.77431506
0.73717323
0.73253298
0.69859445
0.68767261
0.67938118
0.62081683
0.59633678
0.56910043
0.54383462
0.5203844
0.48998364
0.47232475
0.45955251
0.44526591
0.43476152
0.42306111
0.41499447
0.408521
0.4043526
0.40215539
0.69183451
0.69066693
0.68907793
0.68745282
0.68781023
0.69073448
0.69238906
0.69036123
0.68067126
0.65862767
0.64189882
0.63242026
0.62285386
0.61846423
0.59571807
0.58460875
0.57066044
0.54399758
0.52949707
0.50946887
0.49702428
0.47650687
0.46074107
0.45201084
0.43923619
0.43091991
0.41996727
0.41303266
0.4072453
0.40338803
0.40136765
0.59990621
0.60008913
0.5992562
0.59657131
0.59159183
0.58411711
0.57748254
0.57404564
0.57121875
0.56890955
0.56939621
0.56863733
0.55028884
0.55143102
0.5466064
0.53466163
0.51953889
0.50382334
0.49298561
0.48440161
0.48134427
0.46419499
0.45147829
0.44470579
0.43334779
0.42625052
0.41731876
0.41093487
0.40583101
0.402365
0.40055001
0.51822356
0.51837804
0.51807469
0.51725095
0.51633246
0.51634382
0.51817667
0.51988771
0.51887186
0.51586097
0.51031721
0.50573006
0.51030898
0.49771369
0.49776316
0.48894572
0.48559544
0.47090196
0.46577544
0.46105973
0.46201725
0.45573439
0.43964763
0.43593053
0.42808496
0.42128731
0.41390573
0.40871278
0.40436651
0.40129033
0.39969122
0.47786472
0.47837388
0.47830888
0.47774942
0.47671311
0.4750648
0.47244812
0.46930134
0.46838897
0.46806979
0.46893346
0.46996764
0.46788781
0.46909345
0.4631715
0.46356709
0.45111948
0.453134
0.44929395
0.44700936
0.44311449
0.44126373
0.43290025
0.42737396
0.42236115
0.41558967
0.41087784
0.40665291
0.40277665
0.40020518
0.39880569
0.44162884
0.4419063
0.441878
0.44165281
0.44139151
0.44118178
0.44111538
0.44181314
0.44305132
0.44337078
0.44288412
0.44157571
0.44062026
0.43933076
0.43797683
0.43629349
0.43516809
0.43069582
0.43123757
0.43141688
0.42804071
0.42992075
0.42535301
0.41729116
0.41575906
0.4114044
0.40738654
0.4041985
0.40132149
0.39912436
0.39797297
0.42478999
0.42516756
0.42527275
0.42519353
0.42502717
0.42477735
0.42435674
0.42359063
0.42269055
0.42253231
0.42253107
0.42310072
0.42393936
0.4242023
0.42476909
0.42259938
0.42476111
0.42204286
0.42155768
0.42264652
0.41975237
0.41718628
0.41722728
0.41216039
0.40924358
0.40718731
0.40475707
0.40223366
0.39997079
0.39813773
0.39716076
0.41018335
0.41035985
0.41040031
0.41037484
0.41035769
0.41037054
0.41042622
0.41055908
0.41090686
0.41122058
0.41123686
0.41084795
0.41056449
0.41077092
0.41094108
0.41112868
0.41098685
0.40986757
0.41214307
0.40870611
0.40964074
0.40814089
0.40856002
0.4075049
0.40527672
0.40385495
0.40262962
0.400391
0.39874722
0.3973484
0.39653572
0.40396081
0.40410108
0.40413654
0.40411075
0.40405657
0.40397648
0.40387232
0.4038008
0.40379406
0.40380165
0.4038602
0.40401796
0.40432056
0.40465273
0.4051436
0.4053258
0.40530134
0.40472602
0.40483748
0.40430954
0.40447339
0.40369701
0.40418023
0.40437556
0.40304785
0.4020152
0.40096139
0.39933667
0.39791773
0.3967123
0.39606047
0.3995088
0.39957007
0.39959529
0.39961476
0.39965649
0.39973028
0.39984099
0.3999964
0.40022325
0.40055642
0.40095292
0.4013576
0.40171228
0.40191809
0.4018692
0.40225782
0.40218827
0.40263987
0.40191524
0.40248533
0.40215804
0.40218773
0.40180789
0.40136442
0.40161562
0.40052803
0.39938755
0.39841631
0.39724687
0.39635698
0.39583356
0.39748569
0.39753209
0.39756589
0.39760341
0.39765729
0.3977306
0.39782346
0.397936
0.39807336
0.39823505
0.39842725
0.39864214
0.39882645
0.3989298
0.39905074
0.3992207
0.39969369
0.39988645
0.40017536
0.40023815
0.40053653
0.40061946
0.40025996
0.39973209
0.39950758
0.39911397
0.39847718
0.39772321
0.39690833
0.39620184
0.39572244
0.3966633
0.39669426
0.39672234
0.39675635
0.3968016
0.39685944
0.39693057
0.39701365
0.39710097
0.39720979
0.39735551
0.39756334
0.39777343
0.39789182
0.39793109
0.39797509
0.39809044
0.39816428
0.39825807
0.39840105
0.39856494
0.39857834
0.39863819
0.39864906
0.398547
0.39836329
0.39798907
0.39745847
0.39681484
0.39632827
0.39615549
0.39660139
0.39660764
0.3966191
0.39663533
0.39665705
0.39668553
0.39672251
0.39677055
0.39683365
0.39691876
0.39703947
0.39723207
0.39742863
0.39752161
0.39753182
0.39754795
0.39758564
0.39760955
0.39764789
0.39780451
0.39794345
0.39797137
0.39800813
0.39813469
0.39817298
0.39803013
0.39784784
0.39751165
0.39729904
0.39710509
0.39695698
77.383434
141.47386
223.53874
301.40867
361.09351
397.84011
411.75658
406.56354
386.8364
351.11402
307.94968
260.7832
212.64104
166.01722
122.7642
84.103601
50.904603
24.918169
9.2277458
3.0094584
1.3556191
0.89165142
0.69266699
0.5822806
0.51697209
0.47722545
0.45210998
0.43429974
0.42273648
0.41470004
0.41057679
166.8074
254.14545
324.65007
375.33782
407.66429
421.93575
420.16704
407.04202
377.70805
338.8785
294.7269
247.96476
201.06422
156.0833
114.58206
77.606022
45.967822
21.669798
7.6284006
2.576598
1.244228
0.86019772
0.67983368
0.57593234
0.51359222
0.4754223
0.45115284
0.43374036
0.4224282
0.4145257
0.41048429
248.01457
314.16465
367.44734
405.7089
426.97732
431.93341
423.3699
401.34283
367.73741
327.20498
282.6197
236.38628
190.6396
147.13188
107.19594
71.737633
41.557849
18.90841
6.4794636
2.2404656
1.1795994
0.84669665
0.67413961
0.57303648
0.51199269
0.47454143
0.45067751
0.43342338
0.42222531
0.4143847
0.41039265
317.53286
370.6482
409.83087
433.68671
442.23059
438.02548
422.7036
394.2859
357.9058
316.17735
271.43371
225.80951
181.16161
139.00193
100.48298
66.403188
37.584487
16.532894
5.5386365
2.0184086
1.1292523
0.82872321
0.6654273
0.56844896
0.50943055
0.47311472
0.44990216
0.43295192
0.42195106
0.41422145
0.41029603
369.66881
410.13047
437.2703
450.66849
451.30158
440.95461
418.31581
386.53177
348.2764
305.75317
261.06229
216.1048
172.50706
131.58924
94.35988
61.531445
33.990491
14.447
4.7533212
1.8124404
1.0872975
0.81667282
0.65983323
0.56552919
0.50780933
0.47219939
0.4494001
0.43261934
0.4217367
0.41407709
0.41019176
410.44508
440.92435
458.34256
463.02207
457.52278
440.48103
413.22153
378.77168
339.04659
295.99538
251.49117
207.21791
164.60909
124.8293
88.769515
57.068403
30.736689
12.60243
4.1022951
1.6698257
1.0538674
0.80373906
0.65314088
0.56190537
0.50575877
0.47102507
0.44874964
0.43221164
0.42148562
0.41392096
0.4100822
442.42057
464.32951
473.6828
472.07478
460.29699
437.999
407.66289
371.17838
330.34939
286.9711
242.72812
199.12139
157.42559
118.67737
83.669418
52.986183
27.790825
10.991746
3.5721997
1.544762
1.0253851
0.79359366
0.6481159
0.55921611
0.50425689
0.47014973
0.44825856
0.43188492
0.42126878
0.41377558
0.40997047
467.63857
482.35713
485.20821
478.79279
461.21214
435.11296
402.16085
364.00644
322.32089
278.73947
234.78207
191.79624
150.92545
113.09937
79.027317
49.266654
25.129254
9.6015099
3.1478696
1.4533832
1.0017093
0.78367889
0.64284291
0.55630126
0.50260255
0.46916991
0.44770195
0.43152615
0.4210347
0.41362444
0.40985717
487.89877
496.564
494.51509
482.8893
461.16424
432.0335
396.93789
357.42653
315.05984
271.34169
227.65679
185.22571
145.08338
108.06895
74.83003
45.887649
22.756074
8.4163082
2.817821
1.3813083
0.98111591
0.77531088
0.63855868
0.553954
0.50129093
0.46837601
0.44724272
0.43121744
0.4208212
0.41347967
0.40974283
504.83824
508.36539
502.20332
485.67159
460.75157
429.12771
392.23507
351.58151
308.63923
264.80459
221.35109
179.39372
139.87742
103.56364
71.061644
42.834889
20.626574
7.4166246
2.5473951
1.3243463
0.96335255
0.76748051
0.6343863
0.55160477
0.49996482
0.46755805
0.44676223
0.43089946
0.42060118
0.41333244
0.40962755
519.50985
518.73857
508.39348
488.07185
460.47328
426.68282
388.22927
346.57315
303.109
259.14385
215.86008
174.28465
135.28759
99.564066
67.697161
40.093026
18.733764
6.5839087
2.3395178
1.278503
0.94767672
0.76065944
0.63087892
0.54963667
0.49887288
0.46686622
0.44634562
0.43061512
0.42039468
0.41318925
0.40951142
532.30613
528.05223
513.72552
490.53191
460.58727
424.87578
385.04537
342.47282
298.50281
254.36765
211.17682
169.88349
131.29532
96.062792
64.717266
37.653195
17.06772
5.8995014
2.1723304
1.2412029
0.93390304
0.75442634
0.62763173
0.54776757
0.49783308
0.46619147
0.44593107
0.43033346
0.42018758
0.41304539
0.40939444
544.07358
536.57876
518.99472
493.31412
461.15344
423.84227
382.77214
339.33256
294.84437
250.48005
207.29366
166.1765
127.88971
93.033022
62.098661
35.501994
15.615054
5.3434674
2.0448392
1.210774
0.92165853
0.74894626
0.6248928
0.54618068
0.4969685
0.46561058
0.44556241
0.43007676
0.41999044
0.41290433
0.40927665
555.22377
544.68798
524.4888
496.59618
462.39278
423.7178
381.46964
337.18852
292.15528
247.49414
204.21272
163.17055
125.05663
90.450213
59.82836
33.616793
14.361607
4.8984267
1.9478858
1.1857417
0.91080805
0.74403505
0.62247549
0.54473541
0.49618556
0.4650672
0.44520777
0.42982902
0.419796
0.41276357
0.40915807
566.41935
552.97263
530.50063
500.64398
464.81878
424.45185
381.24258
336.11893
290.48263
245.45751
201.96312
160.85712
122.7869
88.320044
57.910928
31.97548
13.291766
4.549426
1.8776648
1.1652778
0.90115788
0.73974681
0.6204908
0.54351869
0.49554237
0.46459972
0.44488926
0.4296017
0.41960997
0.41262517
0.40903855
578.14041
562.15757
537.55828
505.82421
468.39461
426.6909
382.12112
336.21623
289.8941
244.35398
200.52631
159.21856
121.07996
86.641962
56.347053
30.579743
12.392556
4.285811
1.8238017
1.1482002
0.89262256
0.73599383
0.61885113
0.54246196
0.49498899
0.46417916
0.44459053
0.42938657
0.41942881
0.412488
0.40891779
589.89844
572.14888
545.75248
512.29985
473.29075
430.19947
384.40428
337.3414
290.24273
244.13401
199.86212
158.25791
119.93446
85.416038
55.136143
29.445999
11.669021
4.0715092
1.7741976
1.133695
0.88510652
0.73278211
0.61760075
0.54160737
0.49455058
0.46382383
0.44432241
0.42918946
0.41925532
0.41235289
0.4087958
598.18381
579.92938
552.85115
518.53691
478.5675
434.45093
387.6589
339.61321
291.61253
244.738
199.96316
157.97677
119.35371
84.644517
54.27754
28.580047
11.103077
3.8990891
1.7337163
1.1219635
0.87856695
0.73005459
0.61669101
0.5409248
0.49420003
0.46351867
0.44407662
0.42900623
0.41908776
0.41221933
0.40867264
605.54362
586.3595
558.82689
524.19827
483.8006
439.10344
391.61335
342.79169
293.98551
246.35792
200.90409
158.34559
119.34296
84.332726
53.772674
27.985267
10.679873
3.7609607
1.6992625
1.1126932
0.87297773
0.72779296
0.6161289
0.5404382
0.49394825
0.46327194
0.44385866
0.42883989
0.41892772
0.4120878
0.40854836
614.65815
594.18261
565.78517
530.61071
489.76712
444.57403
396.47367
346.92047
297.30808
248.87287
202.66727
159.47121
119.91908
84.461157
53.62469
27.663392
10.389481
3.6512763
1.6708922
1.1059271
0.86835935
0.72596417
0.61588023
0.54014011
0.49378378
0.46307631
0.44366495
0.42868846
0.41877441
0.41195804
0.40842317
623.654
602.50242
573.5419
537.92625
496.67032
451.02555
402.34693
352.07286
301.62417
252.31686
205.26527
161.30893
121.09816
85.109293
53.837762
27.616649
10.228315
3.563542
1.6472584
1.1016286
0.8647801
0.72457239
0.61591411
0.54004737
0.49371483
0.46293568
0.44349838
0.42855316
0.41862847
0.41183011
0.40829717
632.21238
610.90388
581.8223
546.0551
504.54392
458.5211
409.30519
358.30339
306.98406
256.73083
208.72873
163.88652
122.89348
86.250158
54.43833
27.850529
10.201431
3.4905406
1.6276017
1.0999173
0.86233951
0.72362526
0.61620208
0.54010832
0.49372703
0.46284473
0.44335627
0.42843199
0.41848881
0.41170344
0.40817029
639.94993
618.73557
589.97534
554.53922
513.23571
467.05037
417.35512
365.64159
313.42373
262.14872
213.08873
167.23281
125.3262
87.904207
55.430365
28.387225
10.304178
3.4211668
1.6109233
1.1004246
0.86108571
0.72310376
0.61673728
0.54038996
0.49380845
0.46279958
0.44323662
0.42832355
0.41835466
0.41157769
0.40804243
645.55014
624.61531
596.35279
561.42727
520.53389
474.5437
424.71141
372.56123
319.68378
267.56087
217.5518
170.73667
127.9302
89.72281
56.563323
29.040915
10.523991
3.3411899
1.5961288
1.1024855
0.8608496
0.72290229
0.61736351
0.54077242
0.49397981
0.46278738
0.4431338
0.42822519
0.41822517
0.411453
0.40791361
77.134493
133.53077
209.98302
284.84592
345.1134
385.04227
403.29968
402.085
385.47392
352.46451
311.13734
264.95618
217.09183
170.29389
126.59327
87.345169
53.463776
26.592881
9.9909223
3.1843565
1.3872269
0.89929306
0.69576437
0.5839552
0.51803572
0.47785674
0.4524543
0.43454242
0.42289082
0.41481066
0.41061447
77.531624
130.34117
203.31886
275.97506
335.5203
376.01717
395.74969
396.30383
381.56237
350.60132
310.31606
264.89405
217.64927
171.21492
127.66871
88.42862
54.479085
27.370642
10.401743
3.2956379
1.4064813
0.90333755
0.69743214
0.58493039
0.51872158
0.47828467
0.45269685
0.43471097
0.42300248
0.41488842
0.41065162
78.456459
127.59398
196.55747
266.8239
325.57335
366.59587
387.76878
390.11513
376.9363
347.91299
309.099
264.72829
218.16681
172.13728
128.77114
89.552494
55.537067
28.189666
10.847448
3.4182891
1.427858
0.90805429
0.69942099
0.58604577
0.51945775
0.47871145
0.45292397
0.43488495
0.42311264
0.41497468
0.41070296
79.785913
125.16663
189.94773
257.59375
315.39576
356.83204
379.37078
383.50136
371.97092
344.92016
307.66537
264.42511
218.6235
173.04811
129.89361
90.714315
56.635495
29.055184
11.328555
3.5545075
1.4509921
0.91216574
0.70105527
0.58706314
0.52023247
0.47922271
0.45322624
0.43508424
0.42324523
0.41506205
0.41077096
81.883639
123.49827
183.80243
248.53053
305.12531
346.78775
370.57644
376.45875
366.63507
341.60224
305.98855
263.96953
219.00228
173.93635
131.03009
91.911882
57.771942
29.969107
11.844394
3.7068332
1.4780966
0.91866162
0.70387718
0.58859667
0.52115642
0.47971878
0.45348783
0.43528692
0.42337099
0.41515837
0.4108181
84.577988
122.18009
177.96375
239.55264
294.76051
336.48873
361.40777
368.99463
360.91493
337.94005
304.04538
263.33943
219.28534
174.79004
132.17356
93.142209
58.945373
30.932661
12.385239
3.8731667
1.5064806
0.92299362
0.70558049
0.58972122
0.52205117
0.48028473
0.45380489
0.43551263
0.42351283
0.41526116
0.41085896
88.136687
121.94612
172.91385
231.06694
284.56205
326.08568
351.94094
361.13564
354.79876
333.92359
301.81528
262.51384
219.45401
175.59814
133.31834
94.403681
60.160501
31.947081
12.966332
4.0588506
1.5388558
0.92896927
0.70808337
0.59123306
0.52308018
0.48089427
0.45414642
0.43575351
0.42366304
0.41537044
0.41091342
92.272567
122.24563
168.44156
222.94685
274.47789
315.56785
342.18251
352.891
348.31342
329.52609
299.28343
261.47678
219.48665
176.35233
134.46047
95.694084
61.418006
33.010299
13.608097
4.264778
1.5752519
0.93541172
0.71076511
0.59287005
0.52418097
0.48154412
0.45451172
0.43601057
0.42382226
0.41548614
0.41100281
97.390299
123.23381
164.84419
215.47035
264.71858
305.08081
332.22315
344.30449
341.45049
324.74645
296.42762
260.20491
219.40266
177.03583
135.58598
97.00194
62.713274
34.121697
14.299415
4.4929143
1.6160595
0.94241602
0.71368151
0.59467506
0.52537276
0.48224517
0.45490603
0.43628405
0.4239909
0.41560855
0.41110079
102.95606
125.04337
162.04195
208.67286
255.386
294.72857
322.1419
335.42217
334.23164
319.5804
293.23351
258.67855
219.1583
177.63285
136.68356
98.319385
64.04125
35.290125
15.041569
4.7456404
1.661867
0.95005685
0.71686504
0.59667305
0.52666419
0.48299983
0.45532881
0.43657596
0.42417018
0.41573801
0.41120758
109.08065
127.77071
160.18264
202.69667
246.61347
284.63016
312.03277
326.3035
326.69599
314.03148
289.69194
256.87835
218.70726
178.12507
137.74069
99.638137
65.395841
36.50929
15.840824
5.0262471
1.7134226
0.95849388
0.72032442
0.59885153
0.52803875
0.48380787
0.45578462
0.43688516
0.4243601
0.41587481
0.41131143
115.7399
131.30785
159.34663
197.68281
238.55462
274.92063
302.0007
317.02856
318.89929
308.11367
285.80005
254.79104
218.05399
178.49592
138.74401
100.94924
66.770875
37.76355
16.669845
5.3349642
1.771542
0.96783999
0.72428983
0.60137672
0.52958818
0.48470184
0.45627743
0.43721576
0.42456252
0.41601898
0.41141797
122.37752
135.31521
159.53879
193.70512
231.32727
265.73933
292.19319
307.67842
310.88592
301.86481
281.56541
252.40916
217.18345
178.72777
139.67959
102.24305
68.160353
39.051184
17.524315
5.6749959
1.8372075
0.97833136
0.72842948
0.60399799
0.53115885
0.48562796
0.45680004
0.4375625
0.42477604
0.41617135
0.4115315
128.5166
139.44192
160.2728
190.72127
225.00822
257.20797
282.73816
298.37522
302.70518
295.33994
277.01187
249.7339
216.08378
178.7917
140.53296
103.5094
69.558029
40.368362
18.421521
6.0496933
1.91163
0.99026125
0.73370426
0.60727264
0.53307216
0.48670747
0.45737853
0.43793641
0.4250045
0.41633132
0.41165409
134.36361
143.75668
161.83613
188.65608
219.66765
249.46685
273.77098
289.26511
294.44525
288.61532
272.17477
246.77673
214.75352
178.72018
141.29462
104.73846
70.957179
41.710161
19.360747
6.4601121
1.996225
1.0038005
0.7386832
0.61044137
0.53487362
0.48776326
0.4579684
0.4383223
0.42524294
0.41650021
0.41178406
139.96435
148.62416
164.66056
188.2712
215.65145
242.7328
265.46471
280.51014
286.23633
281.76955
267.10611
243.55943
213.19714
178.49801
141.95552
105.92136
72.351305
43.069059
20.350188
6.9120561
2.0927298
1.0198335
0.74596797
0.61462995
0.53725001
0.48906451
0.45865211
0.43874741
0.42549987
0.41667566
0.4119191
146.23587
154.20342
168.32544
188.80155
212.90487
237.10375
257.95666
272.25686
278.21719
274.89855
261.87105
240.11647
211.42078
178.07412
142.5036
107.05087
73.738253
44.441451
21.393177
7.399798
2.2030338
1.0391744
0.75228214
0.61871302
0.53943798
0.49029598
0.45931135
0.4391763
0.42576194
0.41686101
0.41205851
154.11252
160.96192
172.95984
190.30456
211.16914
232.50327
251.30357
264.61119
270.51857
268.10588
256.54395
236.49148
209.44296
177.47992
142.93367
108.1214
75.118861
45.841295
22.509519
7.9557551
2.330144
1.0623425
0.7616632
0.62362819
0.54220017
0.49177982
0.46011664
0.43966381
0.42604798
0.41705122
0.41220197
164.2857
169.46668
179.19269
193.46887
211.00028
229.09267
245.58772
257.65686
263.25422
261.49117
251.20135
232.73354
207.28774
176.72092
143.24188
109.1256
76.482641
47.271111
23.686951
8.5593507
2.4762663
1.0898337
0.77107084
0.62952172
0.54516933
0.49334279
0.46087322
0.44014406
0.42632921
0.41725228
0.41234862
176.68165
179.87755
186.84709
197.74511
211.62712
226.72862
240.81909
251.44145
256.5087
255.13819
245.91336
228.88981
204.97984
175.80465
143.4258
110.05514
77.818952
48.711574
24.912635
9.2074075
2.6454305
1.1222826
0.78086394
0.63462055
0.5479436
0.49485227
0.46179345
0.44069897
0.42664376
0.41745501
0.41249775
190.90071
191.9232
195.8516
203.14893
213.34113
225.27994
236.90483
245.93884
250.31092
249.09671
240.72928
224.99903
202.54092
174.73265
143.45409
110.89814
79.121084
50.162464
26.190855
9.9308972
2.8412512
1.1609337
0.79600111
0.64292885
0.55203946
0.49700885
0.46273256
0.44124104
0.42694013
0.41766857
0.41264906
206.71917
205.76096
206.54797
210.17034
216.67522
225.26551
234.00124
241.17702
244.66718
243.38217
235.67119
221.08087
199.98238
173.51206
143.38321
111.65136
80.382694
51.620482
27.518387
10.725149
3.0706541
1.2056536
0.80570824
0.64877296
0.55480755
0.49847214
0.46372215
0.44184301
0.42728448
0.41788137
0.41280165
222.45158
219.88562
218.39625
218.54601
221.1657
225.99606
231.92125
237.08253
239.52756
237.96566
230.72483
217.12877
197.29946
172.13719
143.17994
112.30578
81.595764
53.080725
28.892073
11.580601
3.3361092
1.2583656
0.82339859
0.65710807
0.55924281
0.50118247
0.46494901
0.44245274
0.42760028
0.41810117
0.4129543
235.22882
232.49236
229.56664
227.43658
226.82454
228.03877
230.86837
233.71198
234.87234
232.80324
225.84615
213.10663
194.46213
170.57608
142.78122
112.8364
82.746515
54.53575
30.313877
12.525805
3.64594
1.3206849
0.84079726
0.6663967
0.56346581
0.50309053
0.46596545
0.44306589
0.42797885
0.41832295
0.41310533
241.176
239.46561
236.84492
233.88314
231.40782
230.19237
230.22653
230.79023
230.54227
227.79602
220.95799
208.95084
191.42079
168.79114
142.18554
113.22547
83.817595
55.973056
31.772034
13.580403
4.0221395
1.3904546
0.85250555
0.6710211
0.56667449
0.5055414
0.46743925
0.44374996
0.42832564
0.41853858
0.41325284
240.64613
239.90161
238.10723
235.50043
232.64642
230.255
228.79856
227.71061
226.15146
222.72584
215.92368
204.56595
188.10025
166.71989
141.33293
113.38911
84.767481
57.36731
33.256365
14.717472
4.4601281
1.4693792
0.87208218
0.6812055
0.572445
0.50861486
0.46853427
0.44440347
0.42872813
0.41876877
0.41339418
236.48679
237.0858
236.24529
234.30463
231.64029
228.87469
226.24543
223.89876
221.29629
217.3113
210.56091
199.82989
184.41189
164.29428
140.17505
113.33311
85.56536
58.686193
34.731472
15.910125
4.9540017
1.5597595
0.89147266
0.68882626
0.57665551
0.51024664
0.47007447
0.44516727
0.42910325
0.41896979
0.41352639
226.00411
228.4314
229.64474
229.27237
227.47555
224.71277
221.63686
218.7246
215.57985
211.318
204.73532
194.66019
180.29961
161.47694
138.69417
113.08625
86.193992
59.900256
36.169334
17.13867
5.5148443
1.6606411
0.90223453
0.69261738
0.57936454
0.51365697
0.47152215
0.4458762
0.42950436
0.41919819
0.41364596
213.08717
215.76311
217.61006
218.36328
218.0029
216.59427
214.44999
211.87774
208.80951
204.64015
198.40418
189.04943
175.76705
158.25661
136.8469
112.4998
86.606548
60.978547
37.540108
18.36606
6.1042441
1.7721657
0.91234367
0.69769845
0.58454232
0.515552
0.47290075
0.4466885
0.42991364
0.41938051
0.41374872
201.54088
204.05243
206.0156
207.19639
207.52828
207.02673
205.79271
203.89961
201.26163
197.45135
191.70571
183.11492
170.90307
154.68955
134.66393
111.60569
86.783059
61.904718
38.829478
19.585376
6.7304403
1.8984574
0.9244586
0.69948056
0.58714222
0.51776481
0.47483892
0.44742811
0.4302622
0.41957934
0.41383023
193.35778
195.38593
197.01904
198.11376
198.583
198.42224
197.61018
196.14632
193.87001
190.39852
185.10155
177.19266
165.94935
150.94834
132.25299
110.47885
86.751751
62.678456
40.03106
20.792537
7.4171213
2.0423336
0.93749534
0.69914521
0.58935403
0.52098951
0.4758714
0.44828601
0.4306834
0.41975421
0.41388521
189.55596
191.06748
192.20113
192.88959
193.0789
192.70202
191.73657
190.13748
187.76041
184.29473
179.18241
171.72426
161.24128
147.27733
129.78359
109.2304
86.615484
63.332265
41.150121
21.978238
8.1533494
2.2070941
0.95179621
0.69915496
0.5909948
0.52205011
0.47757796
0.44917909
0.43101475
0.41987323
0.41390861
189.26505
190.48584
191.32217
191.70681
191.56745
190.79859
189.33187
187.10819
184.08403
180.0599
174.63373
167.21153
157.14815
143.9483
127.45586
107.98901
86.378314
63.905569
42.211664
23.15134
8.9422716
2.3991444
0.96903905
0.69949037
0.59126306
0.52427301
0.47917199
0.449801
0.43132816
0.42000948
0.41389518
190.95378
191.89064
192.44217
192.59815
192.24042
191.23774
189.49126
186.90703
183.29621
178.48147
172.25085
164.3167
154.1666
141.31254
125.50742
106.91656
86.199366
64.463245
43.249363
24.329264
9.8040289
2.626438
0.99141924
0.69940188
0.59224975
0.52647608
0.47988046
0.45070926
0.43170255
0.42006501
0.41383922
193.07308
194.24192
194.97573
195.22051
194.82022
193.62435
191.50867
188.38175
184.17214
178.79719
172.00475
163.37085
152.71112
139.73733
124.20721
106.1812
86.176462
65.056413
44.292443
25.526598
10.742786
2.8978616
1.0212028
0.69964365
0.59422088
0.5267733
0.48139449
0.45140669
0.43189986
0.42005815
0.4137382
192.53074
193.97523
195.06496
195.71226
195.778
195.04053
193.29495
190.34724
186.02367
180.1574
172.67414
163.5193
152.42785
139.17594
123.64336
105.8938
86.293502
65.72859
45.356242
26.743578
11.736568
3.2250467
1.0605099
0.70175575
0.59439628
0.5271424
0.48200609
0.45144277
0.43191619
0.42001785