/*--------------------------------*- C++ -*----------------------------------*\
| =========                 |                                                 |
| \\      /  F ield         | OpenFOAM: The Open Source CFD Toolbox           |
|  \\    /   O peration     | Version:  2406                                  |
|   \\  /    A nd           | Website:  www.openfoam.com                      |
|    \\/     M anipulation  |                                                 |
\*---------------------------------------------------------------------------*/
FoamFile
{
    version     2.0;
    format      ascii;
    arch        "LSB;label=32;scalar=64";
    class       surfaceScalarField;
    location    "0.047";
    object      phi;
}
// * * * * * * * * * * * * * * * * * * * * * * * * * * * * * * * * * * * * * //

dimensions      [1 0 -1 0 0 0 0];

oriented        oriented;

internalField   nonuniform List<scalar> 
16284
(
0.01050245
-0.014639887
0.015085997
-0.010948532
0.010060191
-0.017189578
0.017631865
0.0095965237
-0.020115131
0.02057882
0.0091146976
-0.023495916
0.023977755
0.0086220112
-0.027401173
0.027893864
0.0081286784
-0.031897558
0.032390878
0.0076464255
-0.03706022
0.037542454
0.0071849535
-0.042979074
0.043440536
0.0067501437
-0.049776799
0.050211557
0.0063442564
-0.057594941
0.058000709
0.0059677785
-0.066561401
0.066937723
0.005616186
-0.076841355
0.077192797
0.0052791941
-0.088600208
0.088937072
0.0049392529
-0.1019633
0.10230315
0.0045677527
-0.11677132
0.11714275
0.0040980391
-0.13266722
0.13313688
0.0035177706
-0.14884646
0.14942665
0.0029973462
-0.166151
0.16667133
0.0026147314
-0.18697833
0.18736087
0.0022924714
-0.21113061
0.21145282
0.0020012393
-0.23864315
0.23893438
0.0017325589
-0.26990008
0.27016875
0.0014858829
-0.30536518
0.30561178
0.0012640841
-0.34561348
0.34583523
0.0010609936
-0.39135172
0.39155472
0.00087209017
-0.44312203
0.44331083
0.00069243849
-0.50185167
0.50203117
0.0005207032
-0.56859393
0.56876543
0.00035131185
-0.64435701
0.64452618
0.00017997543
-0.73066877
0.73083993
-0.8287436
0.82892354
0.011642419
-0.014248895
-0.012033376
0.011203174
-0.016750299
0.010737224
-0.019649155
0.01024836
-0.023007037
0.0097413235
-0.026894135
0.0092252669
-0.031381516
0.0087118976
-0.036546876
0.0082130114
-0.042480218
0.0077349037
-0.049298775
0.0072807773
-0.057140958
0.0068532546
-0.066134051
0.0064491618
-0.076437425
0.0060582008
-0.088209382
0.0056570218
-0.10156221
0.0052147332
-0.1163291
0.004655716
-0.13210826
0.0039776944
-0.14816854
0.0033943414
-0.16556777
0.0029659071
-0.18654999
0.0026013597
-0.21076613
0.0022714483
-0.23831325
0.0019668295
-0.26959546
0.0016868519
-0.30508527
0.0014352958
-0.34536199
0.0012047587
-0.39112128
0.00099021944
-0.44290761
0.0007862179
-0.50164783
0.000591083
-0.56839907
0.00039875393
-0.64416492
0.00020411714
-0.73047432
-0.82853952
0.012781879
-0.013906946
-0.013123793
0.012383157
-0.016351544
0.011940911
-0.019206884
0.011463189
-0.022529303
0.010956472
-0.026387423
0.01042975
-0.030854819
0.0098945761
-0.036011748
0.0093638492
-0.041949554
0.0088460291
-0.048781064
0.0083442885
-0.056639382
0.0078636871
-0.065653634
0.0074022601
-0.07597617
0.0069499192
-0.087757182
0.0064781076
-0.10109049
0.005951438
-0.11580251
0.0052843503
-0.13144124
0.0044970801
-0.14738139
0.003854229
-0.16492506
0.0033750207
-0.18607089
0.0029616458
-0.21035284
0.0025867541
-0.23793837
0.0022400322
-0.26924874
0.0019208803
-0.3047662
0.0016343003
-0.34507547
0.0013715102
-0.3908586
0.0011269912
-0.44266322
0.00089464137
-0.50141567
0.0006723642
-0.5681771
0.00045360095
-0.64394643
0.00023212695
-0.73025305
-0.82830745
0.013937639
-0.013622924
-0.014221634
0.013594835
-0.016008716
0.013197267
-0.018809301
0.012750974
-0.022083009
0.012262633
-0.025899099
0.011740937
-0.030333162
0.0111971
-0.035467976
0.010644076
-0.041396625
0.010092008
-0.048229137
0.0095457627
-0.05609332
0.0090114653
-0.065119532
0.0084885171
-0.075453401
0.0079669969
-0.087235809
0.0074135688
-0.10053716
0.0067854435
-0.11517446
0.0059878157
-0.13064371
0.0050792451
-0.14647295
0.0043769933
-0.16422298
0.0038384257
-0.18553247
0.0033691522
-0.20988367
0.0029432867
-0.23751254
0.0025488801
-0.26885434
0.0021854388
-0.30440284
0.0018593793
-0.34474947
0.0015601391
-0.39055949
0.0012817415
-0.44238497
0.0010173593
-0.5011515
0.00076430962
-0.56792439
0.0005156217
-0.64369804
0.00026371445
-0.73000138
-0.82804382
0.015106282
-0.013405439
-0.015323756
0.014830082
-0.015732509
0.014493478
-0.018472701
0.014098233
-0.021687782
0.013648493
-0.025449396
0.013151063
-0.029835795
0.012615687
-0.03493269
0.012054315
-0.040835378
0.011477793
-0.047652781
0.010893071
-0.055508794
0.01030677
-0.064533433
0.0097193607
-0.074866176
0.0091207579
-0.086637357
0.0084727437
-0.099889254
0.0077208479
-0.11442265
0.0067673843
-0.12969036
0.0057310224
-0.14543675
0.0049698273
-0.16346198
0.0043645751
-0.18492739
0.0038326445
-0.20935188
0.0033496513
-0.2370296
0.0029013005
-0.26840601
0.0024876058
-0.30398922
0.0021166551
-0.34437859
0.0017756904
-0.39021866
0.0014585421
-0.44206798
0.0011575609
-0.50085075
0.00086925809
-0.56763645
0.00058646623
-0.64341557
0.00029977815
-0.72971496
-0.82774416
0.016278204
-0.013261742
-0.016421911
0.016078491
-0.015532816
0.015816847
-0.018211087
0.015490622
-0.021361601
0.015099862
-0.025058699
0.014647766
-0.029383785
0.014141027
-0.034426066
0.013589266
-0.040283765
0.013002632
-0.047066329
0.012389099
-0.054895463
0.01175537
-0.063899909
0.011102249
-0.074213241
0.010418603
-0.085953863
0.0096603301
-0.09913109
0.0087561716
-0.11351858
0.0076193843
-0.12855371
0.0064610306
-0.14427859
0.0056397146
-0.1626409
0.0049602943
-0.18424818
0.0043578225
-0.20874958
0.0038107419
-0.2364826
0.003301413
-0.26789671
0.0028309515
-0.30351884
0.0024092455
-0.34395694
0.0020207747
-0.38983033
0.0016595679
-0.44170695
0.0013170147
-0.50050845
0.00098850996
-0.56730836
0.00066699495
-0.6430944
0.00034069326
-0.72938896
-0.82740363
0.017449336
-0.013196676
-0.017514436
0.017333426
-0.015416949
0.01715804
-0.018035759
0.016915945
-0.021119574
0.016602448
-0.024745287
0.016216137
-0.028997581
0.015759273
-0.033969334
0.01523757
-0.039762221
0.014658635
-0.04648758
0.014029557
-0.054266585
0.01335595
-0.063226501
0.012637526
-0.073494999
0.011860145
-0.085176633
0.010971861
-0.098242919
0.0098788054
-0.11242562
0.0085354464
-0.12721051
0.0072811428
-0.14302452
0.0063930914
-0.16175313
0.0056329016
-0.18348826
0.0049519795
-0.20806887
0.0043336186
-0.23586435
0.0037557686
-0.2673189
0.0032216404
-0.30298479
0.0027426416
-0.343478
0.0023000426
-0.38938788
0.0018886535
-0.44129575
0.0014987886
-0.50011887
0.0011243218
-0.56693433
0.00075878342
-0.64272924
0.00038727652
-0.72901778
-0.82701657
0.018632069
-0.013210544
-0.018618251
0.018602065
-0.015387002
0.01851721
-0.017950973
0.018367442
-0.020969887
0.018143869
-0.02452181
0.017839918
-0.028693744
0.017452212
-0.033581764
0.0169809
-0.039291067
0.016428876
-0.045935733
0.015799809
-0.053637706
0.015095993
-0.062522872
0.014313305
-0.072712484
0.013430537
-0.084294013
0.012386163
-0.097198664
0.011059904
-0.11109947
0.0095049858
-0.12565578
0.0081999188
-0.14171972
0.0072363495
-0.16078988
0.006388873
-0.1826411
0.0056218498
-0.20730211
0.0049244076
-0.23516707
0.004269985
-0.26666455
0.0036650822
-0.30237996
0.0031215718
-0.34293455
0.0026175447
-0.38888401
0.0021491799
-0.44082758
0.0017056017
-0.4996756
0.0012787208
-0.56650793
0.00086318811
-0.64231411
0.00044018719
-0.72859515
-0.82657669
0.019836472
-0.013296827
-0.019750235
0.019888649
-0.015439232
0.01989332
-0.017955707
0.019838088
-0.02091473
0.019710721
-0.024394531
0.01949965
-0.028482778
0.019195373
-0.03327761
0.018791293
-0.038887128
0.018283563
-0.045428159
0.01766957
-0.05302388
0.016945018
-0.061798489
0.016097043
-0.071864671
0.015087704
-0.083284818
0.013851765
-0.095962849
0.012253476
-0.10950131
0.010527684
-0.12393021
0.009219848
-0.14041222
0.0081754689
-0.15974587
0.0072332378
-0.18169924
0.0063741413
-0.20644334
0.0055893574
-0.23438251
0.0048504992
-0.26592577
0.004167828
-0.30169733
0.0035518873
-0.34231867
0.0029784428
-0.38831072
0.0024454766
-0.44029482
0.0019409356
-0.49917138
0.0014543431
-0.56602184
0.00098197891
-0.64184217
0.00050040877
-0.72811398
-0.82607668
0.021073254
-0.01344385
-0.020926262
0.021195991
-0.015562008
0.021281956
-0.018041718
0.02131679
-0.020949619
0.021284068
-0.024361879
0.021167641
-0.028366435
0.020952314
-0.033062383
0.02062441
-0.038559339
0.020171791
-0.04497567
0.019582674
-0.052434905
0.018842116
-0.061058082
0.017922188
-0.070944895
0.016761149
-0.08212392
0.015263734
-0.094465562
0.013385651
-0.10762338
0.011615859
-0.1221607
0.010332644
-0.1391294
0.0092137854
-0.15862744
0.0081683202
-0.18065422
0.0072150513
-0.20549049
0.0063332115
-0.23350097
0.0055032189
-0.26509586
0.0047356552
-0.30092979
0.0040389699
-0.34162205
0.0033876552
-0.38765957
0.0027816955
-0.43968908
0.0022081438
-0.49859817
0.0016538342
-0.56546806
0.0011168438
-0.64130562
0.00056889254
-0.72756649
-0.82550833
0.022342901
-0.013646192
-0.022140573
0.022525362
-0.01574449
0.022677318
-0.018193707
0.022784183
-0.021056528
0.022829271
-0.024407021
0.022793984
-0.028331213
0.022658421
-0.032926897
0.022401732
-0.038302742
0.022001856
-0.044575901
0.021434326
-0.051867499
0.020668509
-0.060292404
0.019650703
-0.06992724
0.018274385
-0.080747751
0.016448035
-0.092639349
0.014464128
-0.10563966
0.012851203
-0.1205481
0.011555931
-0.1378346
0.010329883
-0.15740189
0.0091969996
-0.17952183
0.0081284672
-0.20442246
0.0071602113
-0.2325331
0.0062343645
-0.26417011
0.0053740049
-0.30006942
0.0045884483
-0.34083656
0.0038506814
-0.38692197
0.003162432
-0.43900105
0.0025109968
-0.49794707
0.0018803
-0.56483791
0.001269768
-0.64069556
0.00064688178
-0.7269441
-0.82486214
0.02353665
-0.013879837
-0.023303025
0.023757955
-0.015965821
0.023956015
-0.0183918
0.024114954
-0.021215507
0.024217045
-0.024509159
0.024241895
-0.02835612
0.024165818
-0.032850888
0.023960798
-0.038097803
0.023592823
-0.044208023
0.023019315
-0.05129411
0.022184816
-0.059458049
0.021001937
-0.068744532
0.019365953
-0.079111955
0.017355339
-0.090628918
0.01557198
-0.1038565
0.014150818
-0.1191273
0.012798496
-0.13648281
0.011538282
-0.15614222
0.010312262
-0.17829635
0.0091707936
-0.20328159
0.0080767601
-0.23143959
0.0070347212
-0.26312819
0.006086584
-0.2991212
0.0052050856
-0.33995512
0.0043725984
-0.38608965
0.0035918564
-0.43822054
0.0028528417
-0.49720836
0.002136764
-0.56412237
0.0014427247
-0.64000201
0.00073552092
-0.72623744
-0.8241275
0.024477009
-0.014115763
-0.024241113
0.02470145
-0.016190299
0.024902996
-0.01859339
0.025068801
-0.021381363
0.025181734
-0.02462215
0.025220048
-0.0283945
0.025156158
-0.032787072
0.024953363
-0.037895095
0.02456254
-0.043817305
0.023917064
-0.050648762
0.022933348
-0.058474499
0.021548389
-0.067359788
0.019863792
-0.07742762
0.018250245
-0.089015633
0.016827558
-0.10243405
0.015478362
-0.11777847
0.014155264
-0.13516023
0.012811449
-0.15479896
0.011506586
-0.17699207
0.010252779
-0.20202845
0.0090714906
-0.23025892
0.0079388439
-0.26199571
0.0068827382
-0.29806497
0.0058955543
-0.33896796
0.0049528573
-0.38514711
0.0040731707
-0.43734108
0.0032365995
-0.49637207
0.0024263211
-0.5633126
0.0016379916
-0.6392142
0.0008356622
-0.72543571
-0.82329293
0.024341637
-0.014315237
-0.0241422
0.024529207
-0.016377913
0.024696396
-0.018760628
0.02483905
-0.021524071
0.02494704
-0.024730197
0.024989939
-0.028437459
0.024924706
-0.032721908
0.02470344
-0.03767391
0.024275919
-0.043389883
0.023589412
-0.049962381
0.022627873
-0.057513139
0.02146657
-0.066198735
0.020310239
-0.076271609
0.019226027
-0.087931764
0.018090586
-0.10129889
0.016824709
-0.1165129
0.01548063
-0.13381656
0.014124019
-0.15344279
0.012761995
-0.17563065
0.011447538
-0.20071475
0.010153401
-0.2289654
0.0089027851
-0.26074527
0.0077486544
-0.29691074
0.006659438
-0.33787873
0.0056114874
-0.38409929
0.0046108313
-0.43634064
0.0036647495
-0.49542621
0.0027516555
-0.56239998
0.0018577911
-0.63832088
0.00094754956
-0.72452612
-0.8223467
0.023248615
-0.014559054
-0.02300484
0.023477626
-0.016606979
0.023669705
-0.018952777
0.023794129
-0.021648584
0.023824967
-0.024761146
0.023761024
-0.028373649
0.023603004
-0.032564041
0.023361275
-0.037432355
0.023051725
-0.043080529
0.022653182
-0.049564059
0.022175339
-0.057035547
0.021632701
-0.065656372
0.021016414
-0.075655668
0.02024231
-0.087158061
0.0192511
-0.10030795
0.018078436
-0.11534036
0.016803296
-0.13254167
0.015451056
-0.15209086
0.014054602
-0.17423469
0.012657413
-0.19931831
0.011291916
-0.22760049
0.0099609826
-0.2594145
0.0087080283
-0.29565772
0.0074987836
-0.33666955
0.0063293789
-0.38292996
0.0052151204
-0.43522652
0.0041399075
-0.49435118
0.0031153623
-0.56137589
0.0021043103
-0.6373104
0.0010694054
-0.72349192
-0.82127881
0.020888127
-0.014863761
-0.020583458
0.021221744
-0.016940644
0.021585543
-0.019316636
0.021975272
-0.022038385
0.022363325
-0.025149287
0.022709532
-0.028719969
0.022955823
-0.032810479
0.022996612
-0.037473341
0.022818009
-0.042902175
0.022529848
-0.049276211
0.022263529
-0.056769628
0.021991455
-0.065384794
0.021577795
-0.075242541
0.020966495
-0.086547302
0.020183322
-0.099525034
0.019182693
-0.11433951
0.018008214
-0.13136728
0.016729296
-0.15081224
0.01534573
-0.17285143
0.013922842
-0.19789608
0.012495263
-0.22617344
0.011074579
-0.25799383
0.0097188202
-0.2943019
0.0084134827
-0.33536451
0.0071210334
-0.38163766
0.005875715
-0.43398125
0.0046785466
-0.49315413
0.0035213379
-0.56021914
0.0023772226
-0.63616693
0.0012017321
-0.72231719
-0.82007876
0.019321195
-0.015104931
-0.01908006
0.019581681
-0.017201171
0.019861706
-0.019596707
0.020158996
-0.022335734
0.020477605
-0.025467975
0.020817827
-0.029060293
0.021206718
-0.0331995
0.021707537
-0.037974318
0.022191269
-0.043386106
0.022465006
-0.049550206
0.022386691
-0.056691621
0.022099199
-0.065097696
0.021772023
-0.074915968
0.021375479
-0.086151549
0.02081598
-0.09896611
0.020053759
-0.11357695
0.019065305
-0.13037863
0.017899724
-0.14964708
0.016587005
-0.17153889
0.01515891
-0.19646836
0.01369262
-0.22470749
0.012237699
-0.25653881
0.010813569
-0.2928778
0.0093896408
-0.33394114
0.0079717284
-0.38022012
0.0066053742
-0.43261489
0.0052595522
-0.49180833
0.0039650038
-0.55892507
0.0026838146
-0.63488648
0.0013532526
-0.72098743
-0.81872729
0.019083709
-0.015349009
-0.018839665
0.019346077
-0.01746358
0.019626222
-0.019876903
0.019923874
-0.02263345
0.020241719
-0.025785897
0.020577193
-0.029395862
0.020911451
-0.033533871
0.021218994
-0.038282001
0.021553385
-0.043720666
0.022004939
-0.050001944
0.022421148
-0.057108012
0.022458519
-0.065135276
0.022082132
-0.074539797
0.021607575
-0.085677568
0.021134959
-0.098494318
0.020608997
-0.11305133
0.019854529
-0.12962365
0.018870204
-0.14866304
0.0176888
-0.17035769
0.016331953
-0.1951115
0.01488663
-0.22326237
0.013416172
-0.25506836
0.01193264
-0.29139443
0.010430209
-0.33243953
0.0088768055
-0.37866735
0.0073757432
-0.43111386
0.0059062696
-0.49033871
0.0044541593
-0.55747344
0.0030173615
-0.63345059
0.001518207
-0.71948914
-0.8172109
0.018211968
-0.01557861
-0.01798239
0.018463993
-0.01771563
0.01873818
-0.020151121
0.019033099
-0.022928404
0.019344294
-0.026097135
0.019662659
-0.02971428
0.019973828
-0.033845103
0.020257218
-0.038565467
0.020508136
-0.043971669
0.020676075
-0.050169977
0.020890561
-0.057322605
0.021406174
-0.065650998
0.021831509
-0.074965104
0.021678461
-0.085524258
0.021298803
-0.098115445
0.020900419
-0.11265394
0.020372958
-0.12909602
0.019584112
-0.1478739
0.018587232
-0.16936102
0.017369197
-0.19389345
0.016000566
-0.22189398
0.014581867
-0.25365
0.013061476
-0.28987459
0.011478441
-0.33085742
0.0098267879
-0.37701654
0.0081951804
-0.42948243
0.0065774173
-0.48872062
0.0049750141
-0.55587148
0.0033823825
-0.63185909
0.0017040112
-0.71781172
-0.81550875
0.017880769
-0.0157952
-0.017664172
0.018118381
-0.017953234
0.018377929
-0.020410659
0.018659844
-0.023210308
0.018964564
-0.026401841
0.019293104
-0.030042803
0.019648086
-0.034200063
0.020033059
-0.03895041
0.02044134
-0.044379911
0.020858629
-0.050587218
0.021212831
-0.057676756
0.021325339
-0.065763419
0.021480862
-0.075120631
0.021732441
-0.085775582
0.021503529
-0.097886328
0.021071492
-0.11222275
0.020621034
-0.12864633
0.020023758
-0.1472763
0.01923698
-0.16857412
0.018232147
-0.19288871
0.017013151
-0.22067563
0.015682336
-0.25232011
0.014155598
-0.28834886
0.012516607
-0.32921937
0.010779306
-0.37527992
0.0090132445
-0.42771684
0.0072918725
-0.48699897
0.0055342722
-0.55411421
0.0037606172
-0.63008676
0.0019017815
-0.71595398
-0.81360894
0.016862162
-0.015997017
-0.016660309
0.017085798
-0.018176822
0.017332074
-0.020656879
0.017601438
-0.023479606
0.017893282
-0.026693606
0.01820526
-0.030354686
0.018532031
-0.034526717
0.018865075
-0.039283311
0.019196752
-0.044711411
0.01952402
-0.050914267
0.019861575
-0.058014039
0.020246884
-0.066148428
0.020569929
-0.075443441
0.020976447
-0.086182482
0.021382454
-0.098291301
0.021225598
-0.11206438
0.020779774
-0.12820156
0.020263368
-0.14676045
0.019679362
-0.16799001
0.018878939
-0.19208799
0.017826128
-0.21962335
0.016646518
-0.25114178
0.015140675
-0.28684407
0.013449773
-0.32752951
0.011704389
-0.37353506
0.0098474725
-0.4258606
0.0079920356
-0.48514365
0.0060982352
-0.55222074
0.004160267
-0.62815026
0.00211832
-0.7139133
-0.81149274
0.016375487
-0.016187367
-0.016185045
0.016586731
-0.018387961
0.016820443
-0.020890468
0.017078024
-0.023737044
0.017360745
-0.02697616
0.017669729
-0.030663478
0.018006298
-0.034863065
0.018371934
-0.039648698
0.018765448
-0.045104647
0.019177894
-0.051326409
0.019587425
-0.058423241
0.019964758
-0.066525398
0.020312612
-0.075790715
0.020501176
-0.08636997
0.020768311
-0.098558308
0.021183381
-0.1124798
0.021109949
-0.12812844
0.02052819
-0.14617967
0.019923909
-0.16738684
0.019241422
-0.19140589
0.018352668
-0.21873411
0.017294097
-0.25008407
0.01593798
-0.28548875
0.014263319
-0.32585573
0.01252803
-0.37180043
0.010614289
-0.42394763
0.0086751422
-0.48320539
0.006665794
-0.55021196
0.0045624383
-0.62604842
0.0023410732
-0.71169333
-0.80915387
0.015164279
-0.016361186
-0.014990368
0.015358099
-0.018581674
0.015573189
-0.021105434
0.015810794
-0.023974506
0.016071699
-0.027236901
0.016355931
-0.030947524
0.016662369
-0.035169294
0.016988317
-0.039974416
0.017329986
-0.045446071
0.017684672
-0.051680846
0.018052269
-0.058790604
0.018428786
-0.066901708
0.018796575
-0.076158423
0.01916556
-0.086738987
0.019429367
-0.098822542
0.019511043
-0.11256232
0.019819456
-0.12843622
0.020182871
-0.14654299
0.019814229
-0.16702003
0.019183363
-0.19077751
0.018478794
-0.2180304
0.017609139
-0.24921501
0.016432285
-0.28431223
0.014849961
-0.32427354
0.013172254
-0.37012336
0.011317661
-0.42209391
0.009298237
-0.48118762
0.0071767202
-0.54809141
0.0049481113
-0.62382125
0.0025649222
-0.70931149
-0.80659087
0.014515277
-0.016517741
-0.014358582
0.014689829
-0.018756067
0.014883781
-0.021299206
0.01509854
-0.02418906
0.015335407
-0.027473535
0.015595513
-0.031207366
0.015879718
-0.035453201
0.016188373
-0.04028274
0.016520718
-0.045778056
0.016873309
-0.052033059
0.017238619
-0.059155549
0.017608167
-0.067270974
0.017973836
-0.076523984
0.01830355
-0.087068936
0.018571819
-0.099091134
0.018886641
-0.11287785
0.018993447
-0.1285452
0.019026984
-0.14657803
0.019252099
-0.16724722
0.018999748
-0.19052685
0.018468191
-0.21749924
0.017590399
-0.24833853
0.016540715
-0.28326167
0.015214137
-0.32294609
0.013589877
-0.36849864
0.011800915
-0.42030565
0.0097968647
-0.47918572
0.0076220167
-0.5459178
0.0052894993
-0.62148985
0.0027727983
-0.70679582
-0.80381917
0.013409199
-0.016660642
-0.013266259
0.013569589
-0.018916422
0.013749173
-0.02147876
0.013949765
-0.024389633
0.014173135
-0.027696899
0.014420873
-0.031455122
0.014694217
-0.035726597
0.01499387
-0.040582494
0.015319922
-0.04610428
0.015672003
-0.052385409
0.016049268
-0.059533211
0.016448351
-0.067670616
0.016862828
-0.076939228
0.017300295
-0.087507464
0.01776783
-0.099560269
0.018156849
-0.11326889
0.018547002
-0.12893713
0.018792487
-0.14682616
0.018748252
-0.16720627
0.018752208
-0.190531
0.018231648
-0.21697562
0.017260215
-0.24736373
0.01621834
-0.2822179
0.015139611
-0.3218657
0.013705294
-0.36706301
0.012046659
-0.41864839
0.01012204
-0.47726351
0.0079449
-0.54374155
0.0055502587
-0.61909565
0.0029446437
-0.70419081
-0.80087469
0.012487034
-0.016774335
-0.012373222
0.012614412
-0.019043661
0.012756657
-0.021620849
0.012915078
-0.024547877
0.013090951
-0.027872569
0.013285447
-0.031649388
0.013499523
-0.035940406
0.013733706
-0.040816363
0.01398767
-0.046357867
0.014259497
-0.052656768
0.01454454
-0.059817657
0.014834599
-0.067959896
0.015117201
-0.077220814
0.015371116
-0.087760084
0.015578305
-0.099765909
0.015772126
-0.11346118
0.015887883
-0.12905199
0.015962987
-0.14690157
0.016043634
-0.1672871
0.016063454
-0.19055788
0.016216236
-0.2171353
0.015977265
-0.24711825
0.015422564
-0.28166512
0.014646832
-0.32109216
0.013521826
-0.36594011
0.012019609
-0.41714986
0.010214609
-0.4754609
0.008113364
-0.54164047
0.0057102514
-0.61669242
0.0030560058
-0.70153708
-0.79781886
0.011875865
-0.016875582
-0.011774657
0.011989619
-0.019157463
0.012117269
-0.021748557
0.012260248
-0.024690928
0.012420022
-0.028032431
0.012598002
-0.031827475
0.012795424
-0.036137954
0.013013154
-0.041034241
0.013251494
-0.046596371
0.013510058
-0.052915501
0.013787921
-0.060095676
0.014084239
-0.068256322
0.014398881
-0.077535464
0.014733253
-0.088094283
0.015084089
-0.10011628
0.015433719
-0.11380999
0.015796414
-0.12941352
0.015990493
-0.14709347
0.015980011
-0.16727352
0.015845531
-0.19041784
0.015406289
-0.21669677
0.015105156
-0.24683014
0.014706507
-0.28127305
0.014086742
-0.32047649
0.013197953
-0.36505637
0.011819856
-0.41577541
0.010083277
-0.47372563
0.0080623134
-0.53961948
0.005711086
-0.61434112
0.0030796709
-0.69890666
-0.79474045
0.011593948
-0.016957139
-0.011512593
0.011684706
-0.019248448
0.011785743
-0.021849851
0.011897925
-0.0248034
0.012022182
-0.028157012
0.012159576
-0.031965233
0.012311453
-0.036290238
0.012479671
-0.041202915
0.012666922
-0.046784137
0.012877018
-0.05312619
0.013114858
-0.060334213
0.013385252
-0.068527542
0.013689544
-0.077840693
0.014018848
-0.08842457
0.014356692
-0.10045504
0.01468209
-0.11413607
0.014970459
-0.1297022
0.015320615
-0.14744379
0.015656342
-0.16760901
0.015746667
-0.19050632
0.015686333
-0.21663436
0.015195654
-0.24634045
0.014357904
-0.28043548
0.013405556
-0.3195257
0.01238367
-0.36403816
0.011184554
-0.41457746
0.0096058358
-0.47214534
0.0077066141
-0.53772042
0.0054937211
-0.61212868
0.0029954313
-0.69640999
-0.79174738
0.010347244
-0.017012055
-0.010292486
0.01040904
-0.01931042
0.010478681
-0.021919683
0.010557025
-0.024881953
0.010644942
-0.028245155
0.010743236
-0.032063767
0.010852507
-0.036399761
0.010972938
-0.041323606
0.011103999
-0.046915458
0.011244106
-0.053266543
0.011390358
-0.060480671
0.011538472
-0.068675795
0.0116834
-0.07798569
0.011818794
-0.088559993
0.01194004
-0.1005763
0.012041962
-0.114238
0.012119582
-0.12977977
0.01213561
-0.14745965
0.012102247
-0.16757532
0.012074888
-0.19047916
0.012068296
-0.21662878
0.012234453
-0.24650632
0.012302843
-0.28050331
0.011824048
-0.31904689
0.010941704
-0.36315449
0.0098773217
-0.41351171
0.0085597559
-0.47082963
0.0069078828
-0.53606876
0.004972927
-0.61019266
0.0027228202
-0.69416119
-0.78902755
0.0096259463
-0.017037032
-0.0096008834
0.0096538735
-0.019338249
0.0096844511
-0.021950147
0.0097177014
-0.024915073
0.0097535418
-0.028280845
0.0097917488
-0.032101803
0.0098319262
-0.036439743
0.009873493
-0.041364951
0.0099157132
-0.046957427
0.0099577945
-0.053308342
0.009998966
-0.060521532
0.01003917
-0.068715667
0.010081274
-0.078027458
0.010132167
-0.088610557
0.010196627
-0.10064046
0.010273091
-0.11431423
0.010354168
-0.12986078
0.010444232
-0.14754996
0.010559552
-0.16769151
0.01070322
-0.19062437
0.010809498
-0.21673705
0.010769099
-0.24646913
0.01052018
-0.28025943
0.010111174
-0.31864038
0.009409082
-0.36245225
0.0084591594
-0.41256319
0.0073336548
-0.46970636
0.0059632375
-0.53469609
0.0042914931
-0.60851763
0.002319599
-0.69218941
-0.78671005
0.0095893812
-0.009585328
0.00959397
0.0095996443
0.0096067278
0.0096156221
0.0096268123
0.0096408586
0.0096583625
0.0096798841
0.009705789
0.0097361087
0.0097703609
0.009806707
0.009843437
0.0098736829
0.0098943028
0.0099010955
0.0098824326
0.0098176518
0.0096844203
0.0094606888
0.0091267476
0.0087087957
0.0083078501
0.0078764862
0.007239129
0.0063366759
0.0051706404
0.0037336493
0.0020128883
0.011514146
-0.011268692
0.0088630886
-0.0091086327
0.013316694
-0.014550277
0.012747619
0.014657287
-0.017837182
0.016496478
0.015724746
-0.021461169
0.020393574
0.016652625
-0.025604349
0.024676308
0.017504022
-0.030386408
0.029534839
0.018289517
-0.035879034
0.035093363
0.019027995
-0.042154241
0.04141559
0.019720894
-0.049362113
0.048669057
0.020345543
-0.057615746
0.056990967
0.020883721
-0.06704403
0.066505758
0.02132469
-0.077804622
0.07736359
0.021659577
-0.09007596
0.08974103
0.021876657
-0.10403439
0.10381728
0.021958516
-0.11985673
0.11977487
0.02184415
-0.13756582
0.13768023
0.021469024
-0.15696696
0.15734219
0.020728365
-0.17756795
0.1783087
0.019553175
-0.19816804
0.19934331
0.018305736
-0.21990955
0.22115705
0.017177129
-0.24604136
0.24716992
0.016039538
-0.27661282
0.27775027
0.014837422
-0.31137752
0.31257941
0.013551399
-0.35096025
0.3522461
0.012162146
-0.39607555
0.39746468
0.010641016
-0.4473693
0.44889041
0.0089624853
-0.50574827
0.50742677
0.0070971509
-0.57218471
0.57404981
0.0050090557
-0.64780773
0.64989538
0.0026590489
-0.73408812
0.73643774
-0.83237503
0.83503391
0.012760705
-0.012775545
-0.011253954
0.013777675
-0.015567355
0.014610241
-0.018669878
0.01538186
-0.022232944
0.016142731
-0.026365391
0.01689274
-0.031136597
0.01761483
-0.036601306
0.018302184
-0.042841764
0.018937051
-0.049997132
0.019497985
-0.058176802
0.01997434
-0.067520473
0.020359141
-0.078189482
0.020644667
-0.090361529
0.020819554
-0.10420931
0.020865937
-0.11990311
0.020715027
-0.13741487
0.02031048
-0.15656231
0.019540374
-0.17679775
0.018367557
-0.19699513
0.017191946
-0.21873383
0.016132864
-0.24498232
0.015056346
-0.27553645
0.013918911
-0.31024031
0.012704511
-0.34974602
0.011395519
-0.39476668
0.0099647077
-0.44593852
0.0083884425
-0.50417206
0.0066394842
-0.57043599
0.0046838543
-0.64585255
0.002485847
-0.7318905
-0.82988918
0.012362075
-0.013598414
-0.01153933
0.013085089
-0.016290502
0.013816674
-0.019401604
0.014576082
-0.022992512
0.01533914
-0.027128623
0.01607579
-0.031873428
0.016769911
-0.037295606
0.017417449
-0.043489468
0.018000396
-0.050580223
0.018508033
-0.058684551
0.018933561
-0.067946079
0.019271967
-0.078527941
0.019516394
-0.090605997
0.019656023
-0.10434897
0.019671499
-0.11991858
0.019491896
-0.13723523
0.019068505
-0.15613881
0.018276134
-0.17600531
0.017125615
-0.1958445
0.016030476
-0.21763862
0.015038233
-0.24399012
0.014023288
-0.27452164
0.012952989
-0.30917024
0.011813332
-0.34860653
0.010588389
-0.39354185
0.0092524916
-0.44460265
0.0077838691
-0.5027035
0.0061573608
-0.56880975
0.0043413396
-0.644037
0.0023029756
-0.72985253
-0.82758609
0.011466826
-0.014335884
-0.010729473
0.01222854
-0.017052351
0.012999134
-0.020172346
0.013760994
-0.023754533
0.014497599
-0.027865404
0.015194624
-0.032570634
0.015843723
-0.037944882
0.016439337
-0.044085243
0.016968034
-0.051109057
0.017422644
-0.059139265
0.017798711
-0.068322218
0.018092579
-0.07882186
0.018297922
-0.090811381
0.018403903
-0.10445498
0.018385342
-0.11990001
0.018181021
-0.13703085
0.017747744
-0.15570543
0.016941494
-0.17519899
0.015826527
-0.19472942
0.014811286
-0.21662331
0.013884902
-0.24306377
0.012934325
-0.2735712
0.011934969
-0.30817111
0.010874478
-0.3475462
0.0097385432
-0.39240603
0.0085030737
-0.44336722
0.0071481669
-0.50134867
0.0056508153
-0.56731269
0.0039818259
-0.64236849
0.0021113553
-0.72798244
-0.8254746
0.010558479
-0.015123356
-0.009771099
0.011340891
-0.017834892
0.012107888
-0.02093949
0.012850935
-0.024497745
0.01355823
-0.028572875
0.01421815
-0.033230734
0.014823619
-0.038550525
0.015368601
-0.044630381
0.015844828
-0.051585413
0.016248433
-0.059542966
0.016577171
-0.068651021
0.016828591
-0.079073328
0.016996829
-0.090979659
0.017070861
-0.10452905
0.017020357
-0.1198495
0.01679732
-0.13680775
0.016356255
-0.15526429
0.015542113
-0.17438479
0.014475143
-0.19366233
0.01354153
-0.21568962
0.012681812
-0.24220409
0.011798225
-0.27268774
0.010873034
-0.30724614
0.0098952733
-0.3465686
0.0088523292
-0.39136319
0.0077217956
-0.44223673
0.0064856302
-0.50011259
0.0051230587
-0.56595042
0.003607383
-0.6408533
0.0019117309
-0.72628717
-0.82356274
0.0096152343
-0.015925498
-0.0088132131
0.010397564
-0.018617361
0.011153579
-0.021695659
0.011873798
-0.025218132
0.012546825
-0.029246079
0.013164325
-0.033848413
0.013721545
-0.039107916
0.014214288
-0.045123275
0.014638375
-0.052009622
0.014992389
-0.059897068
0.015275634
-0.068934326
0.015486557
-0.079284297
0.015619755
-0.091112899
0.015664359
-0.10457369
0.015586716
-0.11977185
0.015353315
-0.13657429
0.01490435
-0.15481525
0.014085272
-0.17356567
0.013078213
-0.19265515
0.012225907
-0.21483724
0.011432943
-0.24141114
0.01061847
-0.27187339
0.0097702896
-0.30639818
0.0088785682
-0.34567703
0.00793238
-0.39041711
0.0069110564
-0.44121546
0.0057983772
-0.49900002
0.0045758681
-0.56472824
0.003219375
-0.63949731
0.0017050201
-0.7247732
-0.82185758
0.0086398038
-0.016736261
-0.0078291958
0.0094176251
-0.019395329
0.010154094
-0.022432287
0.010840908
-0.025905117
0.011471066
-0.029876416
0.012039991
-0.034417516
0.012545021
-0.039613114
0.012984315
-0.045562714
0.013356595
-0.052382017
0.013662172
-0.060202726
0.013901475
-0.069173685
0.014073642
-0.079456508
0.014173921
-0.091213221
0.014192286
-0.10459209
0.014094198
-0.11967376
0.013856039
-0.13633608
0.013397908
-0.15435704
0.012579203
-0.17274691
0.011642128
-0.19171795
0.010869722