/*--------------------------------*- C++ -*----------------------------------*\
| =========                 |                                                 |
| \\      /  F ield         | OpenFOAM: The Open Source CFD Toolbox           |
|  \\    /   O peration     | Version:  2406                                  |
|   \\  /    A nd           | Website:  www.openfoam.com                      |
|    \\/     M anipulation  |                                                 |
\*---------------------------------------------------------------------------*/
FoamFile
{
    version     2.0;
    format      ascii;
    arch        "LSB;label=32;scalar=64";
    class       volScalarField;
    location    "0.03";
    object      p;
}
// * * * * * * * * * * * * * * * * * * * * * * * * * * * * * * * * * * * * * //

dimensions      [1 -1 -2 0 0 0 0];

internalField   nonuniform List<scalar> 
8260
(
101064.81
100986.03
100940.71
100885.59
100835.31
100799.11
100779.13
100775.26
100786.52
100810.76
100848.04
100896.26
100952.3
101013.4
101074.68
101138.98
101178.49
101209.86
101235.31
101257.02
101276.35
101293.03
101307.49
101320.09
101331.09
101340.37
101348.11
101354.38
101359.62
101362.81
101364.91
101222.11
101152.86
101085.46
101013.4
100950.56
100902.49
100870.48
100855.19
100855.04
100868.78
100896.42
100936.28
100984.83
101040.13
101093.59
101151.87
101186.75
101218.01
101241.77
101262.07
101280.37
101296.24
101310.05
101322.13
101332.74
101341.7
101349.21
101355.3
101360.41
101363.5
101365.55
101328.46
101265.13
101191.2
101112.51
101043.3
100987.88
100947.48
100923.64
100915.2
100919.43
100939.18
100972.04
101014.69
101065.93
101113.86
101167.54
101197.39
101227.87
101249.35
101267.95
101285.04
101299.96
101313
101324.49
101334.64
101343.25
101350.48
101356.35
101361.31
101364.29
101366.27
101416.02
101356.55
101283.07
101202.67
101129.78
101068.99
101021.79
100989.83
100973.13
100970.01
100982.45
101008.64
101045.78
101093.13
101136.26
101184.8
101210.46
101239.01
101257.97
101274.66
101290.38
101304.2
101316.37
101327.19
101336.81
101345.01
101351.92
101357.56
101362.34
101365.2
101367.1
101491.78
101436.35
101366.32
101287.54
101213.77
101149.97
101097.88
101059.31
101035.19
101025.25
101030.53
101049.93
101081.36
101124.03
101161.97
101203.65
101226.29
101251.52
101267.77
101282.3
101296.45
101309.05
101320.21
101330.25
101339.28
101347.01
101353.56
101358.92
101363.5
101366.22
101368.04
101554.46
101502.93
101438.27
101364.18
101292.65
101228.65
101174.16
101131.16
101101.24
101085.13
101083.69
101096.44
101122.13
101159.31
101191.36
101224.4
101245.08
101265.53
101278.88
101290.98
101303.35
101314.57
101324.58
101333.75
101342.09
101349.3
101355.43
101360.48
101364.82
101367.39
101369.11
101603.81
101556.26
101497.76
101430.83
101364.44
101303
101248.69
101203.66
101169.89
101148.81
101141.51
101148.1
101168.34
101199.2
101224.39
101247.78
101266.57
101281.25
101291.42
101300.84
101311.18
101320.87
101329.56
101337.72
101345.29
101351.9
101357.55
101362.26
101366.33
101368.72
101370.32
101641.3
101598.38
101547.21
101488.62
101429.12
101372.42
101320.63
101275.87
101240.31
101215.8
101203.79
101205.06
101220.39
101243.61
101260.75
101275.33
101290.17
101298.88
101305.52
101312
101320.05
101328.02
101335.22
101342.25
101348.93
101354.86
101359.97
101364.28
101368.03
101370.23
101371.7
101671.34
101632.12
101588.36
101538.79
101487.47
101437.22
101389.88
101347.45
101312.09
101285.82
101270.42
101267.43
101278.34
101292.02
101300.49
101308
101315.46
101318.51
101321.3
101324.6
101330.08
101336.1
101341.67
101347.42
101353.08
101358.22
101362.72
101366.59
101369.97
101371.95
101373.26
101695.88
101662.9
101625.04
101583.99
101541.6
101498.91
101457.38
101418.83
101385.29
101358.8
101341.38
101335.14
101341.26
101344.99
101344.4
101344.18
101342.43
101340.18
101338.79
101338.78
101341.39
101345.17
101348.98
101353.31
101357.81
101362.05
101365.85
101369.21
101372.18
101373.91
101375.03
101715.55
101695.69
101667.47
101634.34
101598.36
101561.73
101525.65
101491.43
101460.64
101435.2
101417.24
101408.67
101408.74
101402.45
101391.61
101381.13
101371.48
101363.75
101358
101354.61
101354.07
101355.33
101357.22
101359.97
101363.19
101366.39
101369.4
101372.2
101374.7
101376.14
101377.04
101743.45
101730
101710.75
101684.66
101655.67
101625.86
101595.98
101566.87
101539.8
101516.63
101499.55
101488.53
101478.16
101460.43
101438.3
101418.36
101402.06
101388.89
101378.96
101372.03
101368.19
101366.67
101366.43
101367.46
101369.26
101371.32
101373.45
101375.59
101377.57
101378.69
101379.34
101787.09
101786.65
101774.98
101752.26
101726.74
101701.22
101676
101651.12
101627.1
101605.02
101585.33
101565.82
101541.35
101511.51
101481.64
101455.26
101433.29
101415.5
101401.49
101391
101383.77
101379.28
101376.67
101375.81
101376.07
101376.9
101378.06
101379.43
101380.83
101381.6
101381.99
101863.14
101848.98
101830.65
101808.7
101786.77
101767.19
101748.77
101728.97
101706.58
101681.69
101653.97
101622.96
101589.19
101554.2
101520.58
101490.52
101464.72
101442.92
101425.16
101411.23
101400.7
101393.25
101388.07
101385.08
101383.68
101383.2
101383.29
101383.8
101384.53
101384.9
101385.03
101893.8
101893.94
101890.94
101884.76
101870.59
101846.88
101820.12
101792.59
101762.66
101730.26
101696.3
101660.81
101624.86
101589.18
101554.94
101523.26
101494.96
101470.25
101449.32
101432.27
101418.73
101408.44
101400.68
101395.41
101392.16
101390.25
101389.17
101388.72
101388.69
101388.61
101388.54
101895.44
101886.68
101874.33
101859.21
101846.18
101836.05
101825.41
101813.14
101793.2
101763.39
101728.06
101690.62
101654.03
101618.69
101584.74
101552.56
101522.94
101496.37
101473.13
101453.49
101437.34
101424.54
101414.43
101406.84
101401.56
101398.07
101395.73
101394.21
101393.33
101392.76
101392.54
101887.06
101879.35
101869.76
101858.64
101846.74
101833.59
101817.06
101796.73
101777.68
101762.33
101742.21
101713.83
101679.71
101644.28
101610.4
101578.44
101548.37
101520.64
101495.96
101474.31
101455.99
101441.09
101428.92
101419.23
101411.85
101406.59
101402.9
101400.27
101398.49
101397.36
101397.06
101858.65
101852.59
101845.32
101836.98
101827.43
101816.38
101803.58
101788.94
101772.71
101754.27
101735.96
101719.8
101697.92
101666.91
101632.82
101600.81
101571.49
101543.28
101517.53
101494.53
101474.42
101457.57
101443.59
101432.16
101422.87
101415.75
101410.63
101406.88
101404.19
101402.45
101402.1
101832.49
101827.6
101821.7
101814.97
101807.28
101798.42
101788.25
101776.65
101763.54
101748.91
101732.07
101712.17
101692.83
101675.92
101650.79
101620.15
101591.14
101563.99
101537.97
101514.09
101492.52
101473.89
101458.13
101445.11
101434.36
101425.55
101418.95
101414.05
101410.45
101408.08
101407.65
101802.07
101798.23
101793.59
101788.31
101782.28
101775.33
101767.34
101758.16
101747.63
101735.6
101722.11
101707.44
101691.08
101674.82
101657.99
101633.26
101606.34
101580.79
101556.22
101532.41
101510.11
101490.07
101472.72
101458.11
101446.15
101436
101427.94
101421.83
101417.31
101414.3
101413.71
101774.85
101771.84
101768.21
101764.08
101759.36
101753.95
101747.72
101740.56
101732.33
101722.88
101711.99
101699.36
101685.38
101669.17
101654.01
101638.76
101614.92
101592.31
101570.38
101547.92
101526.19
101505.86
101487.58
101471.47
101458.22
101446.98
101437.62
101430.27
101424.79
101421.14
101420.25
101745.54
101743.2
101740.38
101737.19
101733.55
101729.35
101724.51
101718.93
101712.5
101705.1
101696.59
101686.86
101675.51
101662.93
101648.96
101636.88
101623.1
101601.87
101580.59
101559.39
101539.16
101520.03
101502.04
101485.15
101470.53
101458.24
101447.83
101439.34
101432.87
101428.59
101427.23
101719.32
101717.53
101715.37
101712.92
101710.13
101706.9
101703.17
101698.85
101693.85
101688.04
101681.29
101673.46
101664.48
101654.23
101642.93
101630.7
101620.11
101608.41
101589.52
101568.38
101548.81
101531.06
101514.19
101497.86
101482.65
101469.44
101458.2
101448.84
101441.49
101436.59
101434.65
101692.55
101691.2
101689.58
101687.75
101685.67
101683.27
101680.5
101677.3
101673.59
101669.32
101664.39
101658.7
101652.11
101644.55
101635.82
101625.64
101614.17
101603.32
101592.89
101577.54
101559.11
101540.5
101523.63
101508.14
101493.83
101480.36
101468.5
101458.57
101450.56
101445.06
101442.52
101669.52
101668.5
101667.28
101665.89
101664.31
101662.49
101660.37
101657.92
101655.1
101651.81
101647.98
101643.54
101638.39
101632.41
101625.5
101617.89
101609.2
101598.32
101586.93
101578.58
101567.58
101550.96
101532.82
101517.04
101503.77
101490.87
101478.78
101468.36
101459.92
101453.95
101450.83
101647.14
101646.39
101645.49
101644.47
101643.3
101641.93
101640.35
101638.52
101636.39
101633.92
101631.06
101627.77
101623.96
101619.57
101614.6
101608.79
101601.87
101594.29
101586.4
101576.09
101566.09
101556.87
101541.91
101526.53
101513.17
101500.65
101488.81
101478.16
101469.48
101463.13
101459.54
101627.93
101627.36
101626.69
101625.94
101625.08
101624.09
101622.95
101621.62
101620.09
101618.3
101616.21
101613.77
101610.92
101607.59
101603.63
101599.03
101594
101588.19
101581.44
101574.23
101565.06
101556.26
101546.97
101534.19
101521.82
101509.39
101498.09
101487.78
101479.03
101472.46
101468.5
101611.77
101611.39
101610.95
101610.44
101609.87
101609.19
101608.41
101607.49
101606.42
101605.17
101603.7
101601.97
101599.94
101597.55
101594.76
101591.46
101587.56
101582.92
101577.27
101571.12
101564.57
101555.55
101546.4
101538
101527.42
101516.82
101506.39
101496.82
101488.28
101481.65
101477.48
101599.65
101599.36
101599.01
101598.61
101598.16
101597.63
101597.02
101596.31
101595.48
101594.5
101593.36
101592.01
101590.41
101588.5
101586.18
101583.37
101580.03
101576.16
101571.86
101566.83
101560.84
101554.66
101549.13
101541.7
101532.03
101523.12
101513.85
101504.92
101496.83
101490.31
101486.13
101588.04
101587.77
101587.46
101587.1
101586.7
101586.22
101585.67
101585.03
101584.29
101583.42
101582.41
101581.23
101579.86
101578.28
101576.49
101574.46
101572.12
101569.38
101566.06
101562.08
101557.47
101552.14
101547.63
101543.15
101535.94
101527.87
101519.69
101511.61
101504.17
101497.99
101494.09
101575.6
101575.45
101575.27
101575.09
101574.88
101574.65
101574.38
101574.06
101573.68
101573.24
101572.7
101572.06
101571.29
101570.36
101569.23
101567.87
101566.25
101564.31
101562.02
101559.34
101556.24
101552.68
101547.54
101541.39
101535.78
101529.41
101522.41
101515.19
101508.33
101502.6
101499.07
100456.59
100442.85
100433.79
100425.21
100415.96
100410.48
100414.99
100431.14
100455.84
100492.87
100541.18
100599.03
100664.77
100735.94
100809.81
100889.92
100959.57
101032.8
101077.98
101124.81
101166.65
101202.03
101232.2
101257.7
101279.17
101296.91
101311.42
101322.87
101331.79
101337.64
101341.35
100468.06
100452.76
100432.9
100416.68
100405.11
100401.96
100410.93
100432.74
100464.71
100507.27
100559.32
100619.42
100686.07
100756.53
100828.83
100905.81
100974.16
101040.97
101081.02
101130.62
101171.58
101206.14
101235.57
101260.44
101281.42
101298.76
101312.95
101324.16
101332.92
101338.65
101342.24
100430.23
100405.55
100382.37
100369.2
100366.04
100372.79
100391.37
100422.06
100461.31
100509.93
100566.75
100630.27
100699.04
100770.17
100842.74
100917.62
100987.27
101048.46
101086.64
101137.04
101176.72
101210.37
101239
101263.24
101283.69
101300.62
101314.5
101325.46
101334.05
101339.67
101343.17
100369.4
100348.36
100332.23
100326.78
100331.51
100346.61
100373.13
100410.61
100456.4
100510.58
100571.77
100638.44
100709.24
100781.3
100855.25
100928.28
100998.73
101055.75
101093.71
101143.45
101181.81
101214.57
101242.42
101266.03
101285.98
101302.5
101316.05
101326.77
101335.19
101340.69
101344.11
100290.03
100276.98
100270.61
100275.91
100291.83
100317.91
100354.17
100399.62
100452.46
100512.23
100577.56
100647.12
100719.72
100792.63
100868.07
100940.06
101009.42
101062.71
101101.16
101149.78
101186.88
101218.75
101245.85
101268.83
101288.28
101304.39
101317.61
101328.09
101336.34
101341.72
101345.07
100195.55
100195.02
100202.81
100222.39
100251.74
100289.85
100336.29
100390.08
100449.91
100515.04
100584.27
100656.5
100730.64
100804.25
100881.04
100952.56
101018.89
101068.92
101108.74
101156
101191.91
101222.91
101249.25
101271.63
101290.57
101306.28
101319.19
101329.42
101337.49
101342.75
101346.04
100087.41
100105.63
100132
100168.36
100212.4
100263.05
100319.86
100382.07
100448.64
100518.8
100591.64
100666.26
100741.71
100815.85
100893.61
100964.8
101028.25
101074.87
101116.41
101162.11
101196.9
101227.04
101252.65
101274.42
101292.87
101308.18
101320.76
101330.75
101338.66
101343.8
101347.01
99977.228
100017.21
100063.46
100116.98
100175.75
100238.74
100305.67
100375.94
100448.78
100523.55
100599.63
100676.34
100752.83
100827.56
100905.74
100976.3
101038.14
101081.15
101124.12
101168.11
101201.85
101231.13
101256.02
101277.19
101295.16
101310.08
101322.35
101332.1
101339.84
101344.85
101347.99
99874.402
99935.577
100000.38
100070.36
100143.32
100217.95
100294.32
100372.03
100450.51
100529.38
100608.28
100686.74
100764.1
100840.27
100917.86
100986.76
101047.74
101088.1
101131.8
101174.02
101206.76
101235.19
101259.37
101279.96
101297.45
101311.97
101323.94
101333.45
101341.01
101345.9
101348.97
99782.756
99864.241
99945.345
100030.72
100116.83
100201.68
100286.36
100370.61
100453.99
100536.33
100617.59
100697.46
100775.64
100853.55
100929.85
100997.06
101056.54
101095.62
101139.36
101179.83
101211.62
101239.21
101262.7
101282.71
101299.73
101313.87
101325.52
101334.8
101342.2
101346.97
101349.96
99706.086
99804.394
99902.271
100000.91
100097.63
100190.67
100282.35
100371.98
100459.31
100544.43
100627.58
100708.6
100788
100867.17
100941.16
101007.21
101064.67
101103.47
101146.78
101185.57
101216.43
101243.19
101266
101285.45
101302
101315.76
101327.11
101336.15
101343.39
101348.03
101350.95
99651.969
99763.808
99873.529
99981.007
100085.08
100185.7
100283.05
100376.51
100466.68
100553.83
100638.44
100720.51
100801.45
100879.1
100950.99
101017.24
101072.51
101111.5
101154.05
101191.22
101221.19
101247.13
101269.27
101288.16
101304.26
101317.64
101328.7
101337.51
101344.58
101349.1
101351.94
99624.638
99744.455
99860.473
99973.156
100082.07
100186.92
100288
100384.76
100476.74
100565.15
100650.79
100733.73
100813.66
100888.42
100961.18
101026.73
101080.32
101119.62
101161.17
101196.81
101225.88
101251.02
101272.51
101290.85
101306.5
101319.52
101330.28
101338.86
101345.77
101350.17
101352.94
99624.754
99747.579
99864.56
99978.268
100088.75
100195.34
100298.42
100397.15
100490.53
100579.31
100664.69
100746.45
100823.62
100897.3
100970.97
101035.58
101088.37
101127.77
101168.14
101202.32
101230.52
101254.87
101275.71
101293.52
101308.71
101321.38
101331.85
101340.22
101346.97
101351.24
101353.95
99639.646
99766.195
99883.382
99996.155
100105.85
100212.22
100315.39
100413.05
100505.64
100592.79
100674.7
100755.38
100834.12
100907.75
100980.39
101044.95
101096.7
101135.96
101174.96
101207.75
101235.08
101258.67
101278.87
101296.15
101310.91
101323.23
101333.42
101341.57
101348.16
101352.32
101354.95
99659.703
99787.645
99906.849
100020.32
100129.05
100233.39
100334.12
100427.02
100514.79
100601.42
100686.49
100767.76
100845.92
100918.3
100989.78
101054.64
101105.16
101144.13
101181.6
101213.1
101239.58
101262.4
101281.98
101298.75
101313.09
101325.06
101334.97
101342.91
101349.35
101353.39
101355.96
99734.153
99841.695
99945.381
100049.29
100152.18
100251.56
100345.24
100438
100530.74
100617.23
100700.83
100781.08
100858
100928.7
100999.13
101064.17
101113.66
101152.21
101188.07
101218.36
101244
101266.09
101285.05
101301.31
101315.24
101326.88
101336.52
101344.25
101350.54
101354.47
101356.97
99871.788
99956.363
100035.32
100117.8
100204.15
100291.51
100377.09
100464.65
100552.82
100635.68
100716.35
100794.74
100870.16
100939.06
101008.39
101073.59
101122.13
101160.17
101194.39
101223.52
101248.35
101269.71
101288.07
101303.84
101317.37
101328.67
101338.05
101345.58
101351.72
101355.54
101357.99
100007.56
100077.02
100137.65
100201.68
100271.21
100344.24
100418.36
100496.82
100578.3
100655.87
100732.78
100808.79
100882.42
100949.48
101017.55
101082.96
101130.53
101167.98
101200.58
101228.6
101252.63
101273.27
101291.05
101306.33
101319.46
101330.45
101339.57
101346.9
101352.9
101356.61
101359
100159.77
100209.88
100249.81
100294.37
100346.21
100403.47
100464.52
100532.74
100606.36
100677.84
100750.12
100823.17
100894.71
100959.98
101026.63
101092.32
101138.81
101175.61
101206.65
101233.58
101256.81
101276.76
101293.95
101308.76
101321.51
101332.19
101341.07
101348.2
101354.07
101357.68
101360.02
100331.63
100358.57
100374.81
100397.25
100429
100468.54
100516.12
100572.8
100636.72
100701.56
100768.39
100837.79
100906.92
100970.55
101035.64
101101.46
101146.86
101182.97
101212.54
101238.39
101260.85
101280.14
101296.77
101311.13
101323.51
101333.9
101342.54
101349.49
101355.23
101358.75
101361.03
100523.1
100522.89
100513.43
100511.41
100520.18
100542.1
100576.03
100618.21
100670.3
100727.92
100788.49
100853.34
100919.52
100981.44
101044.64
101109.94
101154.42
101189.73
101218.14
101243
101264.72
101283.39
101299.5
101313.42
101325.47
101335.58
101343.99
101350.78
101356.38
101359.82
101362.05
100741.5
100713.93
100679.88
100651
100635.77
100636.28
100649.93
100675.74
100713.47
100761.05
100813.61
100872.38
100934.33
100993.79
101054.15
101117.67
101161.11
101195.65
101223.46
101247.45
101268.48
101286.56
101302.17
101315.68
101327.4
101337.24
101345.44
101352.05
101357.54
101360.89
101363.08
100969.59
100929.7
100886.69
100836.54
100792.85
100763.91
100751.2
100754.99
100774.17
100805.61
100846.95
100897.28
100953.17
101009.17
101065.57
101126.09
101167.6
101201.53
101228.99
101252.09
101272.38
101289.83
101304.9
101317.98
101329.35
101338.91
101346.89
101353.33
101358.69
101361.96
101364.1
100495.32
100489.58
100479.98
100470.77
100462.96
100458.5
100460.96
100472.58
100492.29
100523.96
100566.73
100619.22
100679.85
100746.32
100815.23
100889.65
100954.4
101022.02
101072.28
101118.9
101162.23
101198.45
101229.29
101255.32
101277.22
101295.32
101310.11
101321.78
101330.85
101336.8
101340.65
100503.49
100501.81
100493.48
100484.1
100476.25
100472.67
100475.31
100483.56
100501.34
100530.68
100570.94
100621.07
100679.64
100744.63
100812.75
100886.33
100953.11
101018.37
101070.99
101116.46
101159.91
101196.33
101227.46
101253.75
101275.9
101294.2
101309.17
101320.97
101330.14
101336.17
101339.98
100499.16
100497.51
100492.14
100487.2
100483.12
100481.87
100485.66
100494.43
100511.98
100539.86
100578.05
100625.93
100682.32
100745.45
100812.37
100884.4
100951.93
101016.74
101069.5
101114.37
101157.97
101194.51
101225.82
101252.31
101274.64
101293.11
101308.22
101320.15
101329.4
101335.49
101339.1
100494.79
100493.93
100492.11
100490.88
100490.35
100491.77
100497.14
100507.27
100524.89
100551.51
100587.71
100633.24
100687.21
100748.13
100813.35
100883.13
100950.47
101014.81
101067.46
101111.93
101155.8
101192.53
101224.06
101250.76
101273.28
101291.93
101307.2
101319.26
101328.6
101334.77
101338.14
100492.44
100493.81
100494.89
100496.17
100498.08
100501.78
100508.8
100520.19
100537.98
100563.64
100598.09
100641.41
100692.98
100751.58
100814.9
100882.09
100948.84
101012.68
101065.1
101109.25
101153.39
101190.33
101222.1
101249.05
101271.79
101290.64
101306.09
101318.3
101327.74
101334
101337.28
100490.54
100493.94
100497.31
100500.85
100505.07
100510.96
100519.71
100532.36
100550.5
100575.54
100608.55
100649.87
100699.16
100755.44
100816.78
100881.28
100947.26
101010.69
101062.67
101106.48
101150.86
101188
101220.02
101247.22
101270.19
101289.26
101304.9
101317.26
101326.82
101333.17
101336.58
100488.14
100493.18
100498.64
100504.56
100511.21
100519.35
100529.94
100543.92
100562.62
100587.31
100619.15
100658.66
100705.78
100759.78
100819.06
100880.99
100946.21
101008.9
101060.61
101103.65
101148.3
101185.6
101217.86
101245.3
101268.51
101287.8
101303.63
101316.16
101325.84
101332.28
101335.86
100485.79
100492.06
100499.81
100508.08
100517.1
100527.45
100539.89
100555.24
100574.6
100599.15
100630.01
100667.89
100712.95
100764.68
100821.83
100881.6
100945.55
101006.95
101059.02
101100.9
101145.73
101183.16
101215.63
101243.31
101266.75
101286.26
101302.3
101315
101324.8
101331.34
101334.83
100484.49
100493.12
100502.3
100512.41
100523.5
100535.87
100550.03
100566.68
100586.73
100611.22
100641.27
100677.65
100720.72
100770.22
100825.2
100883.09
100944.89
101004.83
101057.52
101098.33
101143.16
101180.67
101213.35
101241.25
101264.91
101284.65
101300.89
101313.77
101323.7
101330.34
101333.56
100485.19
100495.36
100506.3
100518.21
100531.12
100545.2
100560.86
100578.63
100599.28
100623.74
100653.03
100688.01
100729.16
100776.45
100829.2
100885.23
100944.73
101003.02
101055.83
101095.93
101140.6
101178.16
101211
101239.11
101263
101282.96
101299.4
101312.46
101322.53
101329.27
101332.49
100489.21
100499.93
100512.68
100526.26
100540.66
100556.11
100572.92
100591.53
100612.6
100636.93
100665.46
100699.06
100738.34
100783.43
100833.9
100887.96
100945.41
101001.84
101054.05
101093.75
101138.07
101175.62
101208.61
101236.9
101261
101281.18
101297.83
101311.08
101321.28
101328.14
101331.44
100497.96
100510.25
100523.72
100537.94
100553.12
100569.35
100586.82
100605.87
100627.04
100651.03
100678.71
100710.91
100748.32
100791.21
100839.34
100891.31
100946.75
101001.44
101052.52
101091.94
101135.61
101173.08
101206.17
101234.62
101258.92
101279.32
101296.18
101309.62
101319.97
101326.94
101330.36
100512.35
100525.72
100539.42
100553.8
100569.17
100585.57
100603.12
100622.1
100642.97
100666.34
100692.98
100723.7
100759.19
100799.84
100845.59
100895.36
100948.66
101001.17
101051.14
101090.68
101133.25
101170.57
101203.72
101232.29
101256.76
101277.38
101294.45
101308.08
101318.57
101325.67
101329.19
100533.38
100546.35
100560.06
100574.27
100589.28
100605.23
100622.26
100640.62
100660.73
100683.11
100708.46
100737.54
100771.04
100809.4
100852.7
100900.14
100951.15
101001.42
101049.86
101089.72
101131.02
101168.13
101201.27
101229.92
101254.54
101275.36
101292.63
101306.45
101317.1
101324.31
101327.94
100560.57
100572.79
100586.13
100599.65
100613.72
100628.6
100644.5
100661.68
100680.53
100701.53
100725.31
100752.56
100783.95
100819.95
100860.72
100905.71
100954.3
101002.26
101049.06
101089.04
101128.95
101165.78
101198.84
101227.52
101252.26
101273.27
101290.73
101304.74
101315.54
101322.88
101326.59
100594.31
100605.52
100617.72
100629.86
100642.37
100655.61
100669.83
100685.32
100702.45
100721.69
100743.61
100768.83
100797.98
100831.55
100869.71
100912.1
100957.97
101003.48
101048.89
101088.78
101127.08
101163.57
101196.46
101225.11
101249.92
101271.1
101288.75
101302.95
101313.9
101321.37
101325.17
100632.14
100642.24
100653.11
100663.65
100674.33
100685.62
100697.82
100711.27
100726.35
100743.55
100763.36
100786.38
100813.18
100844.22
100879.7
100919.36
100962.04
101005.05
101049.62
101089.02
101125.46
101161.53
101194.17
101222.7
101247.55
101268.88
101286.7
101301.07
101312.18
101319.77
101323.65
100672.54
100681.36
100690.72
100699.59
100708.41
100717.67
100727.73
100738.99
100751.89
100766.87
100784.45
100805.16
100829.53
100857.99
100890.75
100927.56
100966.94
101008
101051.95
101089.73
101124.13
101159.73
101191.99
101220.34
101245.16
101266.61
101284.57
101299.11
101310.37
101318.09
101322.06
100713.67
100720.84
100728.69
100736.04
100743.16
100750.53
100758.59
100767.76
100778.5
100791.29
100806.63
100825.04
100846.98
100872.87
100902.9
100936.88
100973.57
101012.84
101055.06
101090.73
101123.23
101158.23
101189.96
101218.02
101242.77
101264.29
101282.38
101297.07
101308.47
101316.31
101320.37
100753.33
100759.21
100765.68
100771.66
100777.32
100783.08
100789.41
100796.76
100805.59
100816.38
100829.64
100845.83
100865.42
100888.79
100916.14
100947.36
100981.56
101018.22
101057.23
101092.03
101123.09
101157.08
101188.11
101215.81
101240.41
101261.96
101280.14
101294.96
101306.49
101314.45
101318.6
100791.41
100795.92
100800.79
100805.36
100809.75
100814.28
100819.3
100825.25
100832.56
100841.7
100853.14
100867.33
100884.72
100905.69
100930.45
100958.94
100990.52
101024.45
101060.31
101093.9
101123.5
101156.32
101186.49
101213.71
101238.11
101259.62
101277.84
101292.77
101304.43
101312.5
101316.73
100826.34
100829.23
100832.99
100836.49
100839.96
100843.65
100847.83
100852.83
100859.06
100866.93
100876.89
100889.36
100904.78
100923.5
100945.75
100971.56
101000.45
101031.69
101064.8
101096.17
101124.46
101155.97
101185.15
101211.8
101235.91
101257.29
101275.52
101290.52
101302.28
101310.47
101314.78
100859.57
100861.09
100863.39
100865.82
100868.45
100871.51
100875.12
100879.53
100885.03
100892
100900.81
100911.84
100925.51
100942.15
100962.02
100985.21
101011.37
101039.88
101070.13
101099.49
101126.36
101156.12
101184.08
101210.06
101233.84
101254.99
101273.18
101288.22
101300.06
101308.34
101312.73
100888.99
100890.23
100892.07
100893.8
100895.78
100898.44
100901.71
100905.76
100910.79
100917.1
100924.99
100934.8
100946.89
100961.61
100979.23
100999.85
101023.3
101048.98
101075.93
101102.37
101129.04
101157
101183.44
101208.65
101231.92
101252.76
101270.83
101285.87
101297.77
101306.14
101310.59
100916.84
100917.64
100919.13
100921.05
100922.8
100924.79
100927.95
100931.91
100936.68
100942.49
100949.6
100958.33
100968.98
100981.88
100997.33
101015.46
101036.2
101059
101082.79
101107.52
101132.84
101158.52
101183.14
101207.51
101230.17
101250.6
101268.49
101283.49
101295.43
101303.86
101308.36
100944.53
100945.28
100946.45
100947.85
100950.15
100952.96
100955.82
100959.28
100963.53
100968.71
100974.98
100982.6
100991.83
101002.96
101016.27
101031.97
101050.05
101070.11
101091.43
101114.31
101136.93
101159.95
101183.31
101206.97
101228.65
101248.56
101266.17
101281.1
101293.03
101301.51
101306.05
100973.59
100974.62
100976.09
100977.65
100979.12
100981.01
100983.85
100987.23
100991.14
100995.73
101001.17
101007.65
101015.43
101024.78
101035.99
101049.29
101064.75
101082.15
101100.93
101121.13
101140.86
101161.74
101184.69
101207.05
101227.32
101246.64
101263.92
101278.71
101290.61
101299.1
101303.68
101002.68
101003.72
101005.1
101006.63
101008.71
101011.16
101013.7
101016.54
101019.82
101023.63
101028.07
101033.32
101039.6
101047.16
101056.3
101067.24
101080.13
101094.86
101111
101128.4
101145.52
101164.27
101185.92
101207.17
101226.7
101244.98
101261.76
101276.35
101288.16
101296.64
101301.24
101032.56
101033.8
101035.38
101036.84
101038.59
101040.85
101043.23
101045.81
101048.63
101051.73
101055.21
101059.22
101064
101069.8
101076.9
101085.55
101095.94
101108.06
101121.6
101136.37
101150.71
101167.69
101188.18
101207.91
101225.97
101243.49
101259.75
101274.05
101285.72
101294.15
101298.75
101061.58
101062.61
101064.06
101065.92
101068.06
101070.15
101072.3
101074.55
101076.87
101079.3
101081.87
101084.74
101088.1
101092.22
101097.39
101103.87
101111.9
101121.54
101132.57
101144.77
101157.14
101172.23
101190.19
101208.25
101226.02
101242.5
101257.95
101271.84
101283.3
101291.65
101296.22
101089.81
101091.1
101092.68
101094.35
101096.22
101098.15
101100.07
101101.96
101103.79
101105.55
101107.29
101109.12
101111.22
101113.84
101117.25
101121.77
101127.66
101135.04
101143.82
101153.84
101164.53
101177.1
101192.56
101209.47
101226.44
101241.5
101256.38
101269.78
101280.94
101289.15
101293.68
101118.74
101118.97
101119.88
101121.14
101122.52
101123.99
101125.5
101127
101128.36
101129.55
101130.58
101131.55
101132.6
101133.96
101135.91
101138.77
101142.81
101148.23
101155.01
101163.04
101171.91
101182.13
101195.74
101211.14
101227.07
101241.09
101254.94
101267.89
101278.67
101286.68
101291.14
101145.57
101146.65
101147.67
101148.21
101148.74
101149.35
101149.98
101150.57
101151.05
101151.4
101151.6
101151.68
101151.79
101152.1
101152.87
101154.39
101156.94
101160.74
101165.84
101172.12
101179.37
101187.69
101199.63
101213.03
101227.27
101241.15
101253.97
101266.21
101276.5
101284.27
101288.64
101166.49
101165.65
101166.14
101167.58
101169.21
101170.76
101171.41
101171.12
101170.68
101170.2
101169.62
101168.96
101168.31
101167.84
101167.75
101168.3
101169.75
101172.32
101176.09
101180.96
101186.86
101193.55
101203.68
101215.09
101228.06
101241.55
101253.45
101264.76
101274.5
101281.95
101286.18
101187.2
101186.13
101185.19
101184.27
101183.35
101182.61
101182.73
101183.6
101184.38
101184.28
101183.37
101182.38
101181.42
101180.62
101180.14
101180.21
101181.03
101182.81
101185.64
101189.45
101194.24
101199.66
101208.14
101218.17
101229.69
101241.46
101253
101263.52
101272.63
101279.75
101283.82
101201.8
101201.15
101200.55
101199.85
101198.89
101197.6
101196.11
101194.63
101193.25
101192.55
101192.41
101191.89
101191.05
101190.37
101190.02
101190.12
101190.81
101192.23
101194.48
101197.56
101201.43
101205.91
101212.84
101221.55
101231.45
101242.16
101252.89
101262.48
101271
101277.69
101281.58
101205.83
101205.57
101205.31
101205.01
101204.68
101204.27
101203.72
101203
101202.06
101200.97
101199.86
101198.97
101198.47
101198.24
101198.27
101198.65
101199.47
101200.82
101202.76
101205.31
101208.46
101212.16
101217.69
101225.14
101233.8
101243.57
101252.97
101261.57
101269.51
101275.83
101279.5
101206.92
101207
101207
101206.95
101206.89
101206.78
101206.58
101206.36
101206.21
101206.14
101206.1
101205.85
101205.63
101205.8
101206.17
101206.75
101207.67
101208.97
101210.7
101212.83
101215.36
101218.36
101222.73
101229
101236.44
101244.72
101253.07
101261.1
101268.36
101274.21
101277.62
101210.22
101210.52
101210.75
101210.94
101211.15
101211.41
101211.73
101212.13
101212.52
101212.54
101212.22
101212.43
101213.18
101213.86
101214.49
101215.17
101216.02
101217.13
101218.54
101220.22
101222.17
101224.51
101227.88
101233.08
101239.21
101246.19
101253.99
101261.15
101267.53
101272.82
101275.99
101216.74
101216.95
101217.14
101217.32
101217.55
101217.85
101218.21
101218.6
101218.93
101219.55
101220.65
101221.77
101222.55
101223.08
101223.57
101224.1
101224.7
101225.43
101226.37
101227.53
101228.9
101230.61
101233.1
101237.31
101242.4
101248.35
101255.08
101261.17
101266.94
101271.78
101274.63
101227.49
101227.54
101227.65
101227.78
101227.96