/*--------------------------------*- C++ -*----------------------------------*\
| =========                 |                                                 |
| \\      /  F ield         | OpenFOAM: The Open Source CFD Toolbox           |
|  \\    /   O peration     | Version:  2406                                  |
|   \\  /    A nd           | Website:  www.openfoam.com                      |
|    \\/     M anipulation  |                                                 |
\*---------------------------------------------------------------------------*/
FoamFile
{
    version     2.0;
    format      ascii;
    arch        "LSB;label=32;scalar=64";
    class       volVectorField;
    location    "0.03";
    object      U;
}
// * * * * * * * * * * * * * * * * * * * * * * * * * * * * * * * * * * * * * //

dimensions      [0 1 -1 0 0 0 0];

internalField   nonuniform List<vector> 
8260
(
(40.357376 29.190809 0)
(41.740526 27.889385 -2.4665196e-20)
(43.060434 26.589653 2.1313053e-20)
(44.337615 25.286849 -3.645839e-20)
(45.569555 23.941753 1.5460824e-20)
(46.73945 22.572801 -2.6095411e-20)
(47.836399 21.215421 -1.0979295e-20)
(48.849537 19.902072 -1.5146239e-23)
(49.811047 18.658337 5.1154526e-21)
(50.761181 17.486379 0)
(51.648404 16.40161 4.6081733e-20)
(52.492533 15.396866 0)
(53.286189 14.45258 0)
(53.992002 13.534304 -7.0798166e-20)
(54.448678 12.580251 1.8855045e-23)
(54.486851 11.503157 0)
(53.864279 9.98882 0)
(52.962056 8.3439795 6.7689353e-19)
(52.495268 7.1876858 5.6789246e-21)
(52.216904 6.263826 -6.9403137e-19)
(51.974475 5.4500265 -1.2646668e-18)
(51.779241 4.7041315 -1.1374616e-18)
(51.624445 4.0580007 -2.0651906e-18)
(51.496961 3.4676937 1.8440274e-18)
(51.357716 2.9128472 1.6360155e-18)
(51.230008 2.3941949 0)
(51.118928 1.9158182 2.5777498e-18)
(51.035099 1.4694678 2.276324e-18)
(50.963806 1.0472976 4.0199909e-18)
(50.921901 0.6279238 0)
(50.892105 0.21374921 6.240941e-18)
(39.349616 28.41206 2.4161647e-20)
(40.793817 27.236121 -1.7580873e-23)
(42.165972 26.12077 -1.8791304e-20)
(43.500911 24.970813 4.944853e-20)
(44.799816 23.762682 0)
(46.047352 22.513482 2.4623626e-20)
(47.229769 21.252905 4.2231542e-20)
(48.339288 20.011626 2.7058249e-20)
(49.390183 18.815854 -3.0923344e-20)
(50.402123 17.673499 1.3315874e-20)
(51.353611 16.595978 -5.2227297e-20)
(52.249759 15.584557 0)
(53.080641 14.623315 0)
(53.80454 13.682329 1.4574527e-19)
(54.261907 12.674104 -1.5228516e-19)
(54.268515 11.555475 1.8873527e-19)
(53.62659 9.9517512 2.6621675e-24)
(52.775278 8.3139541 -2.1286968e-20)
(52.376928 7.1805162 2.2135067e-20)
(52.131411 6.2614185 -6.6502506e-19)
(51.907505 5.4484828 -9.5088223e-21)
(51.726925 4.7029787 1.1015599e-18)
(51.583856 4.0584609 1.9823861e-18)
(51.46376 3.4682704 -3.4570391e-21)
(51.330088 2.9133064 6.1757903e-21)
(51.207324 2.3941633 -2.730207e-21)
(51.100412 1.9159479 -2.4786994e-18)
(51.019777 1.4695138 -2.1930685e-18)
(50.950753 1.0472509 -3.8805044e-18)
(50.910464 0.62749133 3.4267823e-18)
(50.88165 0.21342144 -6.0478492e-18)
(38.300601 27.359556 -2.0278717e-20)
(39.725159 26.411231 1.8201994e-20)
(41.142662 25.501909 0)
(42.542274 24.527244 -3.0086456e-20)
(43.914454 23.47571 2.6869693e-20)
(45.244367 22.364637 0)
(46.51733 21.219401 -4.1570996e-20)
(47.723469 20.067834 -9.0722423e-21)
(48.86716 18.936092 3.9542152e-20)
(49.957408 17.83559 0)
(50.981914 16.77686 4.892665e-20)
(51.938688 15.766452 0)
(52.815178 14.792069 0)
(53.564097 13.828259 -7.4517311e-20)
(54.030365 12.768775 -5.2388282e-21)
(54.014416 11.599883 -2.0855033e-19)
(53.361631 9.8980693 2.7987424e-19)
(52.581526 8.3016633 -1.3553692e-18)
(52.249466 7.1967854 0)
(52.035649 6.2808512 6.2926021e-19)
(51.831537 5.4665203 0)
(51.666896 4.7183082 -8.0467583e-21)
(51.536811 4.0723467 1.4422866e-20)
(51.425349 3.4796584 -1.2845066e-20)
(51.298471 2.9222961 -1.4540426e-18)
(51.181465 2.400556 0)
(51.0793 1.9208722 0)
(51.002271 1.4730193 1.9810887e-21)
(50.935864 1.0496646 -1.7505371e-21)
(50.897445 0.6288896 -3.1658832e-18)
(50.869753 0.21396944 -4.2683873e-23)
(37.423508 26.167918 6.7521256e-20)
(38.80211 25.441568 -4.6612545e-20)
(40.215317 24.736067 2.9277427e-20)
(41.638504 23.949259 2.7154178e-20)
(43.053309 23.07026 -7.4630079e-20)
(44.441901 22.113802 -2.2519618e-20)
(45.787071 21.1015 2.0203816e-20)
(47.075033 20.057394 -1.799521e-20)
(48.302095 19.005716 1.5989793e-20)
(49.469837 17.960768 0)
(50.566199 16.933835 5.1066593e-20)
(51.58436 15.933631 0)
(52.507844 14.951366 -8.7400698e-20)
(53.28119 13.965467 0)
(53.753776 12.856414 -1.8325092e-19)
(53.710434 11.62533 6.9189387e-21)
(53.053742 9.8242831 4.421662e-23)
(52.364604 8.29314 6.5657052e-19)
(52.103228 7.2100019 -6.4148595e-19)
(51.925071 6.295522 0)
(51.743832 5.4797048 -1.0617166e-18)
(51.597841 4.7289996 -7.4388853e-21)
(51.482924 4.0823356 6.6440774e-21)
(51.381289 3.4878169 -1.511801e-18)
(51.262089 2.928677 0)
(51.151718 2.404786 0)
(51.055092 1.9242149 0)
(50.982238 1.475365 -1.8577808e-18)
(50.91887 1.05125 0)
(50.882592 0.62961328 2.8975487e-18)
(50.856218 0.21418099 5.112916e-18)
(36.731626 24.879576 -1.3935556e-20)
(38.043451 24.352947 0)
(39.415727 23.837305 -2.5412019e-20)
(40.824647 23.237303 2.4244291e-20)
(42.249033 22.53804 2.2772213e-20)
(43.668209 21.748055 4.219224e-20)
(45.062133 20.883603 1.9351627e-20)
(46.413112 19.963705 -1.7616746e-20)
(47.710116 19.008974 -1.5953608e-20)
(48.947028 18.03492 8.6728628e-20)
(50.110051 17.053722 -1.3146198e-20)
(51.187144 16.07438 0)
(52.156376 15.091089 1.738636e-19)
(52.951535 14.084538 -4.6227981e-24)
(53.424288 12.925947 2.1089852e-19)
(53.347698 11.614499 1.4943707e-20)
(52.698686 9.7310568 -3.1968579e-19)
(52.129354 8.2843073 6.1795743e-19)
(51.939143 7.2205936 6.3493121e-19)
(51.799866 6.3093864 2.4031228e-24)
(51.644407 5.4937562 9.6032025e-19)
(51.519386 4.7411247 8.7187001e-19)
(51.421652 4.0943068 6.06763e-21)
(51.331112 3.4978839 1.3726988e-18)
(51.220711 2.9367506 1.220445e-18)
(51.117898 2.4102916 0)
(51.027596 1.9286254 -3.7310814e-21)
(50.959458 1.4785193 1.6911577e-18)
(50.899565 1.0534293 -2.9809503e-18)
(50.865699 0.63075447 -2.6318443e-18)
(50.840826 0.21458685 5.667309e-22)
(36.240016 23.518482 2.2946693e-20)
(37.46675 23.16969 -2.2086491e-20)
(38.77022 22.825814 -2.1876606e-20)
(40.132119 22.402 4.2746294e-20)
(41.53273 21.880038 -4.1117673e-20)
(42.950895 21.260883 0)
(44.365078 20.553761 0)
(45.754603 19.771394 0)
(47.102401 18.929316 3.1468105e-20)
(48.394906 18.041729 3.5404361e-23)
(49.615014 17.120476 -5.3791496e-20)
(50.744802 16.173564 1.1377295e-19)
(51.755345 15.197316 -2.072488e-19)
(52.567074 14.171421 -1.1079066e-19)
(53.030067 12.961402 2.6635677e-20)
(52.916849 11.547593 -1.5872149e-20)
(52.295657 9.6166166 1.8678657e-20)
(51.874402 8.273041 -6.1772531e-19)
(51.754533 7.2264546 -1.7204409e-20)
(51.657812 6.3197591 -4.9651483e-19)
(51.531536 5.5057933 -8.7494655e-19)
(51.430096 4.7515788 -1.5839932e-18)
(51.352017 4.1053936 -1.4188072e-18)
(51.273985 3.5072601 -8.4447542e-25)
(51.173551 2.9443139 8.6538299e-21)
(51.079316 2.4152811 1.951898e-18)
(50.996279 1.9327254 0)
(50.933502 1.4814667 1.5265277e-18)
(50.877625 1.0554666 2.687357e-18)
(50.84646 0.63174932 0)
(50.823324 0.21491374 0)
(35.963994 22.10792 8.808057e-21)
(37.091946 21.919558 -3.6965219e-20)
(38.305178 21.727603 3.7476469e-20)
(39.591874 21.462735 -1.8698996e-20)
(40.936649 21.106709 -1.8418815e-20)
(42.320652 20.653839 0)
(43.722909 20.105862 0)
(45.121371 19.468414 0)
(46.494804 18.750708 -3.0674626e-20)
(47.823426 17.963115 -5.7672183e-20)
(49.085513 17.115048 0)
(50.256657 16.211994 -1.0389726e-19)
(51.299298 15.251178 1.2715187e-19)
(52.118055 14.205024 -3.5935219e-23)
(52.556352 12.939837 1.6984862e-19)
(52.405876 11.397155 3.2993206e-20)
(51.854112 9.4893908 -3.608061e-20)
(51.598671 8.2548912 5.8870215e-19)
(51.547692 7.2252082 0)
(51.497154 6.3253063 4.5060093e-19)
(51.403873 5.515639 8.039744e-19)
(51.328693 4.7607004 1.4295395e-18)
(51.272936 4.1164004 -9.9743874e-21)
(51.208979 3.5167942 8.7682528e-21)
(51.119912 2.9521574 3.3331168e-23)
(51.035423 2.4204942 -1.75393e-18)
(50.960675 1.9371242 0)
(50.903952 1.4847004 2.5526485e-23)
(50.852725 1.0577269 0)
(50.824569 0.63288842 0)
(50.803438 0.21530386 1.8798021e-18)
(35.914391 20.710523 -2.4008841e-23)
(36.9315 20.646567 -2.3259828e-20)
(38.037455 20.577684 8.0095738e-21)
(39.226063 20.446998 1.6325717e-20)
(40.487063 20.236633 1.6401246e-20)
(41.805553 19.935891 0)
(43.162981 19.539719 0)
(44.53787 19.046535 0)
(45.907028 18.458388 0)
(47.246282 17.77973 -2.8443166e-20)
(48.528971 17.015145 2.7315192e-20)
(49.723692 16.165589 0)
(50.782365 15.227376 -2.6358764e-20)
(51.593228 14.152979 2.7236945e-20)
(51.985576 12.829755 -4.7572518e-19)
(51.800763 11.139238 3.3337133e-20)
(51.387006 9.353545 -3.4047786e-20)
(51.300172 8.2249595 -5.0604428e-19)
(51.316607 7.2135125 0)
(51.315835 6.3235194 0)
(51.259656 5.5214639 0)
(51.213821 4.7669523 2.0100865e-20)
(51.183145 4.125913 1.1279229e-18)
(51.134882 3.5253122 5.319197e-25)
(51.058791 2.9592191 -1.7833789e-18)
(50.98545 2.4251807 1.5630915e-18)
(50.920166 1.9412259 1.391048e-18)
(50.87027 1.487813 -2.4461553e-18)
(50.824443 1.0599109 0)
(50.799655 0.63395209 0)
(50.780871 0.21564978 -1.6801906e-18)
(36.078854 19.352904 -6.1637821e-21)
(36.980198 19.378365 2.6142715e-20)
(37.96829 19.403608 -3.4402667e-20)
(39.043034 19.379175 -1.427311e-20)
(40.198952 19.288793 1.4629076e-20)
(41.425395 19.118642 -2.9575083e-20)
(42.707485 18.858329 2.9558666e-20)
(44.02617 18.499837 0)
(45.358542 18.038059 0)
(46.678118 17.47026 0)
(47.95389 16.794083 0)
(49.146911 16.003699 1.078966e-19)
(50.196066 15.091488 -1.3606671e-19)
(50.980491 13.962168 2.8172632e-20)
(51.295299 12.594112 2.4421165e-19)
(51.103774 10.762268 0)
(50.915298 9.2173972 0)
(50.976493 8.1780528 4.5812855e-19)
(51.059753 7.1868702 2.5591215e-20)
(51.111846 6.3115991 -2.2784946e-20)
(51.097095 5.5215568 0)
(51.084473 4.7696402 -5.5566476e-19)
(51.081291 4.1331666 8.8562965e-25)
(51.050289 3.5326328 -8.9703908e-19)
(50.989069 2.9652301 -3.3897481e-23)
(50.92861 2.4294128 -1.4099249e-18)
(50.87414 1.9450723 -1.2349629e-18)
(50.831896 1.4909203 1.0898715e-18)
(50.792288 1.0621029 -1.878285e-21)
(50.771304 0.63502351 8.2856181e-22)
(50.755283 0.21598983 7.308917e-22)
(36.429594 18.052238 0)
(37.219659 18.131291 -4.4493319e-20)
(38.088002 18.222514 4.7797354e-20)
(39.040355 18.276902 0)
(40.075985 18.277693 -7.8879336e-20)
(41.189061 18.211039 2.2478064e-23)
(42.369345 18.062965 5.5085403e-20)
(43.601458 17.820543 2.7730078e-20)
(44.864407 17.47237 0)
(46.13117 17.008176 -2.3847708e-23)
(47.367244 16.417311 -6.5782989e-24)
(48.525226 15.685241 -1.6476331e-19)
(49.527536 14.794392 5.6132918e-20)
(50.247238 13.595766 5.8585733e-20)
(50.46316 12.128952 6.196083e-20)
(50.369801 10.308204 2.4772915e-19)
(50.449912 9.0726555 -5.7012847e-20)
(50.625136 8.1074051 9.1152384e-23)
(50.776607 7.1402529 0)
(50.883317 6.286047 -3.4396615e-19)
(50.914567 5.5131024 -5.5820834e-19)
(50.939804 4.7674747 0)
(50.965976 4.1360338 0)
(50.95388 3.537758 7.8559141e-19)
(50.909477 2.9689834 7.1557512e-19)
(50.863961 2.432609 1.243911e-18)
(50.821887 1.9481036 -8.5765198e-21)
(50.788211 1.4937301 3.7835788e-21)
(50.75565 1.0640803 1.7125684e-18)
(50.738997 0.63594576 0)
(50.72625 0.21624211 1.3301272e-18)
(36.927102 16.802044 -3.0318566e-20)
(37.605788 16.919204 3.4160491e-20)
(38.357393 17.049534 -4.2670218e-20)
(39.187857 17.14891 -4.56552e-20)
(40.097328 17.208309 1.2079219e-20)
(41.084783 17.211572 5.0462177e-20)
(42.144735 17.143891 0)
(43.265841 16.989551 -2.6694353e-20)
(44.429745 16.73187 0)
(45.609879 16.352956 -4.2564087e-23)
(46.768604 15.833069 0)
(47.848406 15.146365 -5.6516664e-20)
(48.751406 14.252013 5.8344247e-20)
(49.343842 12.940727 6.013379e-20)
(49.510442 11.392111 -2.4140992e-19)
(49.6851 9.9145954 -5.1063228e-19)
(49.970903 8.9607673 5.1287129e-20)
(50.255381 7.9569635 -4.1437268e-19)
(50.464346 7.0976163 -2.8632097e-19)
(50.63175 6.232072 -3.6187165e-20)
(50.711694 5.4779411 4.8005939e-19)
(50.77875 4.7591539 4.8160182e-19)
(50.836011 4.1323718 2.4995347e-20)
(50.844755 3.5399658 6.8541002e-19)
(50.818828 2.9695247 0)
(50.790597 2.434536 -2.2071839e-18)
(50.762587 1.949943 -7.6077698e-21)
(50.738592 1.4961787 6.7118155e-21)
(50.713862 1.0657956 4.0134986e-23)
(50.702119 0.6366911 1.3059195e-21)
(50.693204 0.21638527 -1.1806965e-18)
(37.577898 15.553052 0)
(38.136361 15.67427 0)
(38.763886 15.812761 0)
(39.463451 15.934822 0)
(40.238644 16.024479 0)
(41.090533 16.067232 -1.0988927e-19)
(42.016087 16.048525 1.0243327e-19)
(43.006119 15.950985 0)
(44.043349 15.75345 -1.0962271e-19)
(45.100267 15.430578 1.1240278e-19)
(46.133787 14.952471 5.764554e-20)
(47.071459 14.275017 0)
(47.810605 13.312287 1.8195983e-19)
(48.261379 11.965937 -6.0332396e-20)
(48.630127 10.539855 1.6980436e-19)
(49.056468 9.6339529 5.1367253e-20)
(49.51442 8.6610994 -1.8478495e-19)
(49.852749 7.8304283 -3.6934197e-19)
(50.131955 6.9771509 6.1846164e-19)
(50.34859 6.197868 5.1532599e-19)
(50.48836 5.4291622 0)
(50.598503 4.7543824 -2.5124211e-20)
(50.691739 4.1186438 2.2193527e-20)
(50.722227 3.5292646 -6.266802e-19)
(50.7162 2.9654669 0)
(50.707598 2.4344989 1.9549997e-18)
(50.695127 1.9497691 0)
(50.68236 1.4978947 -5.9436435e-21)
(50.666215 1.0670161 -2.6792167e-18)
(50.659965 0.63707019 0)
(50.655392 0.21632269 0)
(38.231965 14.213816 0)
(38.683633 14.310989 0)
(39.199155 14.428134 0)
(39.776464 14.540908 8.8367532e-20)
(40.421327 14.62639 -1.7874717e-19)
(41.137061 14.671661 2.1651751e-19)
(41.921595 14.663038 -1.3486056e-19)
(42.764644 14.581916 2.8292088e-20)
(43.646446 14.403024 1.470034e-19)
(44.537228 14.094479 -7.4500669e-23)
(45.398936 13.61004 -6.1908718e-20)
(46.162932 12.893361 -2.4809728e-19)
(46.747606 11.894099 1.209195e-19)
(47.268006 10.816048 0)
(47.895542 9.9956058 0)
(48.525972 9.1705526 9.2523947e-20)
(49.019856 8.4355159 3.2900213e-19)
(49.437376 7.6166305 7.2930316e-19)
(49.773366 6.8501174 -3.2283573e-19)
(50.04963 6.0793373 -5.7062538e-20)
(50.240453 5.3798556 5.0473332e-20)
(50.401515 4.7114282 -3.7886726e-19)
(50.529483 4.1115456 1.9673479e-20)
(50.585178 3.517935 0)
(50.601107 2.9540365 0)
(50.6138 2.4316623 -8.6468504e-19)
(50.618228 1.9469909 0)
(50.618692 1.4984032 0)
(50.612036 1.0675917 1.187052e-18)
(50.611853 0.63694835 -1.0471718e-18)
(50.611886 0.2160079 -9.2366366e-19)
(38.859565 12.388347 -2.5804441e-23)
(39.223185 12.456929 -1.7774929e-19)
(39.635426 12.54659 9.1107517e-20)
(40.10612 12.62637 0)
(40.635839 12.694947 9.8861715e-24)
(41.219821 12.739265 1.355226e-19)
(41.854862 12.732076 -4.600777e-23)
(42.532844 12.65313 -3.2517697e-20)
(43.235872 12.478015 -3.2965654e-20)
(43.936562 12.184206 -6.5740651e-20)
(44.608359 11.732916 -6.4268843e-20)
(45.244195 11.145234 0)
(45.897958 10.487534 0)
(46.630089 9.9141399 0)
(47.351092 9.3527673 0)
(47.982769 8.7594137 -1.6472382e-19)
(48.547688 8.0613263 -1.4603415e-19)
(49.007864 7.3648853 -2.5864753e-19)
(49.402171 6.6574933 0)
(49.726645 5.9702988 -2.0219427e-19)
(49.975262 5.2902523 0)
(50.183327 4.6655153 3.1539031e-19)
(50.35 4.0734736 0)
(50.4319 3.4986349 0)
(50.473265 2.9356581 0)
(50.507831 2.4239791 0)
(50.53087 1.9416328 0)
(50.546493 1.4963741 -9.2874064e-21)
(50.550728 1.067142 8.192303e-21)
(50.557234 0.63605947 1.8521334e-18)
(50.561681 0.21538457 8.1444178e-19)
(39.341561 10.350055 2.6670703e-23)
(39.569641 10.413661 0)
(39.857157 10.498618 2.0226168e-21)
(40.214657 10.5742 1.1913122e-19)
(40.660318 10.592281 -2.5493309e-19)
(41.147988 10.602147 -3.5931535e-20)
(41.665558 10.557628 -2.1606018e-19)
(42.221388 10.464263 5.6526715e-19)
(42.814207 10.317633 -2.7433504e-19)
(43.421014 10.164813 -6.5970223e-20)
(44.052624 9.9438042 -2.2842514e-23)
(44.721008 9.7055368 5.7537859e-20)
(45.452785 9.4452696 0)
(46.173971 9.1183909 0)
(46.859609 8.7282767 0)
(47.513276 8.2085235 2.9224569e-19)
(48.085624 7.6652243 0)
(48.586338 7.0408187 -2.2904303e-19)
(49.025425 6.4345758 0)
(49.399282 5.785873 0)
(49.693655 5.1858591 0)
(49.946758 4.5895312 -2.4379546e-19)
(50.148259 4.0227568 -3.0731006e-20)
(50.261441 3.4579867 -4.6084447e-19)
(50.330459 2.9165987 2.3910477e-20)
(50.38918 2.4079896 0)
(50.432567 1.9356661 0)
(50.464842 1.4915786 5.2501007e-19)
(50.481763 1.0633529 9.3338927e-19)
(50.495741 0.63469675 -3.1596406e-21)
(50.503856 0.21404039 -2.8147682e-21)
(40.267573 8.0701484 0)
(40.428689 8.1715771 -1.072817e-20)
(40.598485 8.309818 1.0924923e-20)
(40.785465 8.453285 -1.0949243e-20)
(41.000187 8.6550586 -2.0951051e-20)
(41.297141 8.7873683 2.0269401e-20)
(41.658848 8.9196246 -3.8791534e-20)
(42.088987 9.0166171 -3.6366022e-20)
(42.611584 8.8954853 0)
(43.162477 8.8205919 -2.4210552e-19)
(43.784503 8.6701917 5.0008532e-19)
(44.447194 8.614938 -5.1471825e-20)
(45.130793 8.4888651 -9.2696559e-20)
(45.79935 8.278573 1.6468584e-19)
(46.459947 8.0036284 -2.9227102e-19)
(47.085338 7.631292 8.5227253e-24)
(47.672109 7.1744916 -1.14543e-19)
(48.187747 6.6653485 4.04991e-19)
(48.661764 6.1471508 0)
(49.069219 5.5947616 0)
(49.407607 5.0341711 6.9704641e-20)
(49.697173 4.4885623 -6.9991864e-24)
(49.92653 3.9477884 -2.7132744e-20)
(50.070251 3.4073401 -2.3974358e-20)
(50.172105 2.8767037 -3.3769104e-19)
(50.258466 2.3819672 0)
(50.323217 1.921602 0)
(50.373724 1.4840899 -4.5607238e-19)
(50.404666 1.0596456 -1.6346431e-18)
(50.427031 0.63120964 -7.2656549e-19)
(50.437726 0.21323901 0)
(41.03324 6.4844959 0)
(41.204177 6.5592265 1.2004951e-20)
(41.395064 6.6611531 -4.1042246e-19)
(41.607564 6.7664199 4.4239372e-23)
(41.826103 6.888203 3.8184374e-19)
(42.059961 7.0106329 -2.0973377e-20)
(42.31847 7.1087893 3.8938501e-20)
(42.562544 7.2197457 3.5602708e-20)
(42.8071 7.5528278 0)
(43.192649 7.6909174 5.5707229e-20)
(43.718519 7.648791 -4.8592113e-20)
(44.263023 7.5669067 1.7654008e-19)
(44.85776 7.4287992 -3.2234123e-19)
(45.504991 7.3774071 1.4539568e-19)
(46.123124 7.2313924 0)
(46.708059 6.9642593 1.1446585e-19)
(47.291989 6.6423591 2.3743621e-23)
(47.831502 6.233442 -1.7884006e-19)
(48.319898 5.8265746 2.3700605e-19)
(48.754624 5.3313817 6.9718614e-20)
(49.125827 4.8571099 -3.0766748e-19)
(49.440445 4.3603125 -2.1714031e-19)
(49.68971 3.8425877 0)
(49.861626 3.3294911 3.3779111e-19)
(49.998607 2.8255093 2.6067226e-19)
(50.116158 2.3534743 3.2844375e-20)
(50.203983 1.8984428 0)
(50.273553 1.4707554 0)
(50.319179 1.0516198 -5.671363e-21)
(50.35075 0.6274761 4.9687039e-21)
(50.362884 0.21120788 0)
(41.656042 5.5678779 -8.8910594e-19)
(41.760224 5.6458962 8.4230916e-19)
(41.881885 5.7351729 7.8647924e-19)
(42.0261 5.8283786 -7.2550604e-19)
(42.198608 5.9260735 -6.8297115e-19)
(42.407635 6.0296706 6.4638916e-19)
(42.668067 6.1372671 -6.0588119e-19)
(42.992052 6.2342846 5.1528092e-19)
(43.310666 6.3525948 -4.588605e-19)
(43.618537 6.3792495 -5.1365238e-20)
(43.853285 6.6958206 4.0179522e-19)
(44.232295 6.7931822 3.5718397e-19)
(44.727837 6.6031928 -4.1565837e-19)
(45.276569 6.4435452 0)
(45.844175 6.3507147 2.2692962e-19)
(46.388174 6.2496873 -4.0471067e-19)
(46.949042 6.0280588 8.9446151e-20)
(47.508318 5.7563925 0)
(48.005998 5.450715 -2.0914038e-19)
(48.450553 5.0453414 1.3123289e-23)
(48.8517 4.6421219 4.3428147e-19)
(49.184443 4.189455 2.3941181e-19)
(49.447678 3.7128595 4.223106e-20)
(49.643199 3.2248364 -3.7248366e-19)
(49.81351 2.7560489 2.9564132e-19)
(49.964815 2.2987324 2.0278218e-19)
(50.076474 1.8716615 1.2774004e-20)
(50.164209 1.4515536 3.7175504e-19)
(50.224822 1.0400299 6.4579195e-19)
(50.266411 0.6212825 5.5213714e-19)
(50.279209 0.20956897 0)
(42.394628 4.6005903 -6.5326235e-21)
(42.493172 4.6683142 -2.4057502e-20)
(42.605905 4.7463819 -7.232134e-19)
(42.733447 4.8281587 1.3427929e-18)
(42.875744 4.9145475 -1.2341053e-18)
(43.031666 5.0048907 5.7997934e-19)
(43.19778 5.0959493 0)
(43.374077 5.1845464 0)
(43.583439 5.2608701 -2.5688785e-20)
(43.85482 5.3539942 4.5900226e-20)
(44.203877 5.3572216 2.8620123e-19)
(44.514814 5.3424551 -6.1779794e-19)
(44.768124 5.8071869 3.1163965e-19)
(45.191004 5.6978035 0)
(45.68264 5.5084482 0)
(46.187499 5.5115451 0)
(46.674273 5.404909 -1.5783321e-19)
(47.212121 5.2191854 2.0909224e-19)
(47.710135 5.0288566 0)
(48.153705 4.6985795 -1.0855637e-19)
(48.579816 4.3668585 9.5783896e-20)
(48.928199 3.980683 -3.3786608e-19)
(49.20695 3.5425401 1.489826e-19)
(49.425815 3.0994277 -9.857471e-20)
(49.622104 2.6587639 -2.0274274e-19)
(49.804288 2.2416498 -2.043342e-19)
(49.940768 1.8281833 3.3790223e-19)
(50.045929 1.4246559 -2.9797385e-19)
(50.121193 1.0237929 0)
(50.173009 0.61327924 -4.9453898e-19)
(50.186804 0.20726734 0)
(42.977436 3.8998931 7.6357809e-19)
(43.041188 3.957631 2.9802478e-24)
(43.114903 4.0228963 1.0140314e-20)
(43.200954 4.0910847 0)
(43.302567 4.1640208 -1.7190014e-20)
(43.424006 4.2427275 5.0028465e-19)
(43.571432 4.3279668 -4.5227677e-19)
(43.749588 4.4205749 0)
(43.953036 4.5219885 2.2772407e-20)
(44.167546 4.6207899 3.4553672e-19)
(44.388412 4.73384 3.6146522e-20)
(44.681559 4.8501964 -5.1412687e-19)
(45.02834 4.7012082 5.680668e-20)
(45.239084 5.0562862 1.964074e-19)
(45.628032 4.9418696 0)
(46.072965 4.8194579 0)
(46.521264 4.7562088 -6.9187886e-20)
(46.98198 4.6506469 8.6709067e-24)
(47.442103 4.5266859 1.0849716e-19)
(47.870693 4.291099 -2.111798e-23)
(48.308462 4.0406831 -2.5332672e-19)
(48.665797 3.7087673 7.4471607e-20)
(48.961509 3.3285658 6.5687871e-20)
(49.21361 2.939643 2.8958953e-19)
(49.428917 2.5498659 -5.5946914e-24)
(49.633945 2.153255 -2.2523612e-20)
(49.79459 1.7776545 -6.3551072e-19)
(49.918237 1.3886805 -1.7514818e-20)
(50.008096 1.0022156 0)
(50.069455 0.6025612 0)
(50.085731 0.20463952 0)
(43.620111 3.1500962 1.3632844e-18)
(43.679086 3.1984863 1.255429e-18)
(43.746654 3.2530315 -1.1706531e-18)
(43.823644 3.310026 1.0721571e-18)
(43.910856 3.3712015 -9.6582753e-19)
(44.008929 3.4373923 8.7707542e-19)
(44.117306 3.5076925 -8.0400184e-19)
(44.235856 3.5801807 0)
(44.370081 3.6523722 0)
(44.532483 3.7244772 5.5744481e-19)
(44.731041 3.7904685 -4.7976371e-19)
(44.936164 3.8399439 0)
(45.160443 3.9962277 -5.0311038e-20)
(45.480211 3.8796476 0)
(45.694381 4.2235475 0)
(46.048483 4.2524601 -6.6467803e-20)
(46.429884 4.1423373 3.0205279e-19)
(46.828049 4.0638471 -4.3380782e-19)
(47.231342 3.9658737 -9.5656909e-20)
(47.637017 3.8233845 2.5326895e-19)
(48.053106 3.62874 -2.6177086e-23)
(48.401475 3.3796485 -6.5674502e-20)
(48.706889 3.0736246 0)
(48.994688 2.750009 0)
(49.236247 2.4090039 0)
(49.455142 2.058442 0)
(49.637351 1.7053516 3.1512141e-19)
(49.779669 1.3420409 -1.5441358e-20)
(49.884923 0.97278714 -1.3617725e-20)
(49.955214 0.58911079 -6.005589e-21)
(49.976309 0.20121871 3.4432711e-19)
(44.134724 2.6195958 1.2152981e-18)
(44.17239 2.660934 -1.1159217e-18)
(44.215894 2.7068764 8.1030796e-21)
(44.266443 2.7550043 9.6226538e-19)
(44.32572 2.8072861 -8.7152954e-19)
(44.395889 2.8647912 7.8984127e-19)
(44.479725 2.9278368 -1.4234978e-18)
(44.580383 2.9966757 -1.9911428e-20)
(44.699184 3.0715779 5.5273917e-19)
(44.833823 3.1512626 0)
(44.983836 3.2342694 -4.8014218e-19)
(45.166635 3.3237065 2.5098773e-20)
(45.381321 3.3571761 3.7740088e-19)
(45.593222 3.47167 -3.1425529e-19)
(45.874019 3.4058251 2.4299421e-19)
(46.110394 3.4151917 2.3012196e-24)
(46.414663 3.5055961 2.1003407e-19)
(46.753807 3.4659619 -2.3750023e-19)
(47.104485 3.3717666 3.3749732e-19)
(47.482498 3.3163679 -7.4447028e-20)
(47.84537 3.1950292 6.5644844e-20)
(48.165815 3.0008226 1.549934e-23)
(48.463376 2.774755 1.0211568e-19)
(48.767878 2.5206776 0)
(49.043361 2.2531917 -1.5879136e-19)
(49.275518 1.934284 1.4001995e-19)
(49.471949 1.6226838 3.0865495e-20)
(49.629614 1.2839683 -2.7222005e-20)
(49.751688 0.93475912 1.2003561e-20)
(49.830606 0.56997704 3.2294513e-19)
(49.858838 0.19650904 -2.9416611e-19)
(44.705683 2.0430438 2.1824626e-18)
(44.7416 2.0770919 -1.9846145e-18)
(44.782808 2.1146788 -1.4390289e-20)
(44.829871 2.1540462 -6.6150124e-21)
(44.883319 2.1968739 -6.0302282e-21)
(44.943587 2.2439845 1.409149e-18)
(45.011005 2.29537 -4.9598434e-23)
(45.085882 2.3505615 -1.120068e-18)
(45.169185 2.4088376 3.0060886e-24)
(45.26406 2.4696936 0)
(45.37423 2.5325274 -2.4929459e-20)
(45.495329 2.5936834 -4.4223347e-20)
(45.631218 2.6752365 -1.9584362e-20)
(45.807941 2.7161175 2.7718467e-19)
(45.97738 2.8077898 -2.4503646e-19)
(46.177479 2.9235109 2.7057673e-20)
(46.434835 2.8710675 0)
(46.711263 2.8779763 -4.1113268e-20)
(47.024423 2.7773992 -7.3055546e-20)
(47.382389 2.8201962 -6.5288213e-20)
(47.704193 2.7504677 0)
(48.001463 2.6437377 -1.0207338e-19)
(48.278449 2.4646521 0)
(48.564063 2.2665796 0)
(48.859194 2.0565273 1.3996269e-19)
(49.100945 1.8002626 -2.4684653e-19)
(49.306384 1.5147657 1.0884235e-19)
(49.472452 1.2074859 0)
(49.608745 0.88646306 -1.7988939e-19)
(49.696439 0.5477171 -2.8931759e-19)
(49.73332 0.18991893 0)
(45.14105 1.6697752 -1.9428147e-18)
(45.162226 1.697863 3.4431456e-21)
(45.186748 1.728503 1.2766043e-20)
(45.215253 1.7607012 1.5002203e-18)
(45.248615 1.7960115 -1.3611393e-18)
(45.288 1.8352872 -2.1181923e-24)
(45.334957 1.8788235 0)
(45.391579 1.9264556 1.5725336e-24)
(45.459036 1.978658 8.8979618e-19)
(45.537816 2.0361785 -7.7996669e-19)
(45.630279 2.0973674 2.1997446e-20)
(45.739754 2.1628856 1.9506776e-20)
(45.865962 2.2206214 0)
(45.998291 2.2968877 0)
(46.171422 2.3493052 4.8614033e-19)
(46.357548 2.305281 2.3816247e-20)
(46.512376 2.4624453 -3.3699696e-19)
(46.697814 2.5709362 3.6541281e-19)
(46.960335 2.4631208 -2.2214669e-19)
(47.246619 2.3501205 -5.6612969e-20)
(47.564874 2.3183948 0)
(47.895584 2.2937835 -8.9982585e-20)
(48.164101 2.1687474 7.9358135e-20)
(48.422931 2.0239561 -7.4943637e-24)
(48.69443 1.8500953 -6.169943e-20)
(48.933258 1.6382842 1.08795e-19)
(49.143797 1.3930822 -9.5936894e-20)
(49.312298 1.1231134 -1.6922493e-19)
(49.456568 0.82643006 1.8641093e-20)
(49.553716 0.51574195 -2.4682355e-20)
(49.599691 0.18050555 7.2568587e-21)
(45.629498 1.2545168 -1.718565e-18)
(45.651262 1.2772585 -6.0771621e-21)
(45.676366 1.3019362 1.4393089e-18)
(45.705125 1.3279613 0)
(45.737772 1.3565889 -1.2070593e-18)
(45.774371 1.3884246 -8.509276e-21)
(45.814765 1.4235529 2.1934772e-23)
(45.858574 1.462267 1.7663284e-18)
(45.906855 1.5041412 -2.1251823e-23)
(45.961055 1.5481919 -7.0996686e-19)
(46.019752 1.5954294 0)
(46.082763 1.6443266 0)
(46.152765 1.6995507 0)
(46.23956 1.7495049 0)
(46.336175 1.8003977 -2.3815519e-20)
(46.472503 1.9219674 3.3652501e-19)
(46.65928 1.8933808 -2.5997541e-19)
(46.812636 1.9265453 -2.9494449e-19)
(46.974741 2.1303626 1.9841453e-19)
(47.19129 2.1000937 3.015728e-25)
(47.42422 1.9542813 0)
(47.728232 1.9257504 1.5747395e-19)
(48.026977 1.8677037 -1.3942948e-19)
(48.306746 1.8086703 6.1678425e-20)
(48.54804 1.6455619 0)
(48.765686 1.4691574 -1.4387293e-19)
(48.975962 1.2576524 4.229154e-20)
(49.150079 1.0180387 1.86457e-19)
(49.297548 0.75510688 9.8663866e-20)
(49.402875 0.47705114 0)
(49.457647 0.16790212 -2.0471613e-19)
(45.982041 1.0233043 0)
(45.993323 1.041753 2.6950894e-21)
(46.006696 1.0615202 0)
(46.022325 1.0822866 0)
(46.040544 1.1050133 -4.1608901e-21)
(46.061919 1.130167 -1.9260074e-18)
(46.087318 1.1579093 1.7319802e-18)
(46.117892 1.1883812 6.0574752e-21)
(46.154823 1.2218465 1.0812912e-20)
(46.199498 1.2586434 -1.2219946e-18)
(46.254048 1.2990146 2.18758e-18)
(46.320572 1.3438909 -9.6979737e-19)
(46.399128 1.3920165 0)
(46.486089 1.4472864 0)
(46.58856 1.5123111 0)
(46.693246 1.5319631 0)
(46.801763 1.6156888 -1.6339586e-20)
(46.957876 1.637221 2.6003543e-19)
(47.119352 1.5989299 -2.5399938e-20)
(47.21512 1.7365345 -1.5669444e-19)
(47.380049 1.7655657 1.5649217e-19)
(47.596655 1.6411534 -2.7420278e-19)
(47.852073 1.5551137 2.4364061e-19)
(48.135009 1.557701 -1.085607e-19)
(48.389557 1.4382332 1.4384075e-19)
(48.5952 1.2829717 8.4551697e-20)
(48.798832 1.0965437 0)
(48.983836 0.90080997 3.2876243e-20)
(49.132879 0.67154866 -2.1686798e-24)
(49.245289 0.42722264 -1.2788419e-19)
(49.308047 0.15186705 1.804602e-19)
(46.405738 0.71144732 -2.7009696e-18)
(46.4151 0.72549874 2.4370094e-18)
(46.425284 0.74063851 0)
(46.436626 0.75674097 0)
(46.449578 0.77458318 7.3446927e-21)
(46.464682 0.79456731 0)
(46.482534 0.81685278 0)
(46.503758 0.84155453 -1.373388e-18)
(46.529089 0.86876192 1.220729e-18)
(46.559432 0.89852048 -1.2070985e-24)
(46.59594 0.93074862 7.5362694e-21)
(46.640121 0.96498405 0)
(46.693554 1.0012896 0)
(46.756113 1.0384491 0)
(46.820755 1.0724727 0)
(46.897547 1.1297322 0)
(46.986565 1.1687438 -1.4408971e-20)
(47.079127 1.2285121 -1.2738793e-20)
(47.17486 1.3144061 -3.1463517e-19)
(47.315082 1.2234418 6.3184881e-19)
(47.411137 1.3597354 -3.141246e-19)
(47.562698 1.4123681 -3.0465718e-20)
(47.779225 1.2612193 -1.0656951e-19)
(48.001363 1.2733689 9.5735668e-20)
(48.213148 1.1571283 -4.2264518e-20)
(48.433364 1.0670857 -7.4548753e-20)
(48.627724 0.9176579 5.6443522e-24)
(48.814432 0.75778636 5.7976955e-20)
(48.966355 0.57233479 2.5567713e-20)
(49.083736 0.36789222 1.127419e-19)
(49.153175 0.13095493 7.9558876e-20)
(46.640841 0.49455566 -2.3865881e-18)
(46.644941 0.50344951 2.150689e-18)
(46.650083 0.51298579 -1.9441383e-21)
(46.656557 0.52317369 1.8249973e-18)
(46.664723 0.53455093 -1.6632878e-18)
(46.674978 0.54738509 -1.5032858e-18)
(46.68773 0.56178289 1.1221037e-23)
(46.703293 0.57791931 2.4155071e-18)
(46.722182 0.59591009 -1.0776688e-18)
(46.745067 0.61588491 -3.7467832e-21)
(46.772796 0.63798326 -7.5261631e-25)
(46.806557 0.66224591 5.8976211e-21)
(46.847951 0.68811537 0)
(46.898542 0.71491549 9.2360151e-21)
(46.958185 0.74371364 -5.2239336e-19)
(47.016097 0.76567936 4.5417896e-19)
(47.076897 0.79745831 0)
(47.157633 0.79425689 -3.7063815e-19)
(47.236646 0.79063157 2.9727199e-19)
(47.354936 0.85868275 1.7479947e-20)
(47.5003 0.8254211 1.5390636e-20)
(47.612018 0.83285693 2.7055813e-20)
(47.771645 0.95573015 0)
(47.940044 0.8869799 1.690938e-19)
(48.103182 0.84928623 -1.8635572e-19)
(48.298616 0.7960863 -3.2869024e-20)
(48.480993 0.71415057 -5.7963651e-20)
(48.654283 0.5956391 0)
(48.806227 0.46014423 3.962884e-24)
(48.923091 0.29719286 -7.9532947e-20)
(48.99608 0.10686144 6.1002041e-24)
(46.882382 0.30415112 -4.2210382e-18)
(46.888628 0.31068512 9.389073e-22)