/*--------------------------------*- C++ -*----------------------------------*\
| =========                 |                                                 |
| \\      /  F ield         | OpenFOAM: The Open Source CFD Toolbox           |
|  \\    /   O peration     | Version:  2406                                  |
|   \\  /    A nd           | Website:  www.openfoam.com                      |
|    \\/     M anipulation  |                                                 |
\*---------------------------------------------------------------------------*/
FoamFile
{
    version     2.0;
    format      ascii;
    arch        "LSB;label=32;scalar=64";
    class       volScalarField;
    location    "0.083";
    object      alphat;
}
// * * * * * * * * * * * * * * * * * * * * * * * * * * * * * * * * * * * * * //

dimensions      [1 -1 -1 0 0 0 0];

internalField   nonuniform List<scalar> 
8260
(
0.040018183
0.045380208
0.051683246
0.058801125
0.066570982
0.074819196
0.083325743
0.091793761
0.099820454
0.10682731
0.1119956
0.11418859
0.11186254
0.10309062
0.085869444
0.059518621
0.031445005
0.014958296
0.0098390276
0.0081304951
0.0071151904
0.0064039304
0.0059390254
0.0056120187
0.0053843561
0.0052311092
0.0051305209
0.0050532322
0.0050012525
0.0049635885
0.0049443535
0.047369563
0.052892452
0.058953076
0.065619803
0.072850756
0.08051478
0.088403531
0.096219856
0.10355293
0.10981607
0.11416102
0.11542791
0.11205171
0.10211631
0.083672477
0.056621298
0.028715168
0.014058055
0.0095379434
0.0080088504
0.0070441671
0.0063616513
0.0059150029
0.0055977929
0.0053762288
0.005226689
0.0051279775
0.0050515626
0.0050001873
0.0049628511
0.0049438459
0.055792726
0.061107081
0.066863055
0.073098396
0.079789537
0.086831464
0.094033885
0.10110805
0.10763843
0.11302424
0.11640404
0.11659161
0.11200196
0.10073786
0.080943363
0.053123587
0.026050376
0.01314533
0.0093489846
0.0079435889
0.0070059197
0.0063387408
0.0059020522
0.0055900824
0.0053718199
0.0052242986
0.0051265853
0.00505053
0.004999405
0.0049621958
0.0049432849
0.065396124
0.070278629
0.075590141
0.08130863
0.087395405
0.093746157
0.10017664
0.10640191
0.11200261
0.11636683
0.11861866
0.11754956
0.1115584
0.098778393
0.07750236
0.0489529
0.023305435
0.012344431
0.0091492306
0.0078377159
0.0069411612
0.0062989113
0.0058791479
0.0055760642
0.0053636964
0.0052198129
0.0051239126
0.0050487081
0.0049981819
0.0049613084
0.0049426425
0.076175043
0.0804599
0.085201931
0.090287613
0.095664789
0.10122105
0.10676795
0.11201671
0.11654052
0.11971634
0.12065326
0.11812387
0.11051756
0.09601474
0.073132906
0.044031376
0.020576047
0.011569904
0.0089446232
0.0077396603
0.0068830284
0.0062645714
0.0058599833
0.0055643048
0.0053570141
0.0052161681
0.0051217248
0.0050471457
0.0049970432
0.0049604069
0.0049419096
0.087922289
0.091539292
0.095597332
0.099932222
0.10447984
0.10911753
0.11364755
0.11777143
0.12105044
0.12284813
0.12225916
0.11804051
0.10858355
0.092140773
0.06756539
0.038329538
0.018110631
0.010846325
0.0087299358
0.0076180101
0.0068078334
0.0062190836
0.0058340151
0.005548002
0.0053476601
0.0052109808
0.005118576
0.0050449879
0.0049955446
0.0049592943
0.004941073
0.10026864
0.10317655
0.10646239
0.10994368
0.11354503
0.11713353
0.12050047
0.1233347
0.12518267
0.12539265
0.12304547
0.11688729
0.10533153
0.086739784
0.060479466
0.031947656
0.015775792
0.010184864
0.0085086914
0.0074935468
0.006732795
0.0061751723
0.005809492
0.0055323934
0.0053388874
0.0052061337
0.0051155832
0.0050428873
0.0049940097
0.0049580994
0.0049401204
0.11260992
0.11477837
0.11722383
0.11976377
0.12231141
0.12472278
0.12677693
0.12814842
0.12836761
0.12676705
0.12241564
0.11405626
0.10016125
0.079257342
0.05154966
0.025247271
0.013636658
0.0096645794
0.0082774254
0.0073508492
0.0066441971
0.0061225781
0.0057793667
0.0055128744
0.0053278763
0.005199929
0.0051117082
0.0050402462
0.0049921181
0.0049566738
0.0049390346
0.12399131
0.12539389
0.126942
0.12846613
0.1298652
0.13098151
0.13157983
0.13131892
0.12971255
0.1260792
0.11948039
0.10866716
0.092241313
0.068993439
0.040634944
0.019845274
0.011856277
0.0092156817
0.0080357262
0.0072030846
0.0065539231
0.0060705356
0.0057497101
0.0054934187
0.0053170599
0.0051937682
0.0051077676
0.0050375335
0.0049900956
0.0049550987
0.0049377973
0.13291558
0.1335452
0.13415042
0.13459913
0.13477279
0.13449585
0.13351545
0.1314724
0.12786472
0.1220021
0.11294883
0.099478295
0.080455679
0.055200315
0.028380737
0.015512956
0.010478733
0.0088256823
0.0077879525
0.0070428542
0.0064530657
0.006011745
0.00571488
0.0054704446
0.0053041817
0.005186211
0.0051028736
0.0050342604
0.0049876688
0.0049532417
0.0049363832
0.13713331
0.13700263
0.13665484
0.13599758
0.13489558
0.13315732
0.13051013
0.12657594
0.12084209
0.11262416
0.10101387
0.084811145
0.063468999
0.037518016
0.019682184
0.012413348
0.00970321
0.008464223
0.0075377531
0.0068830837
0.0063523077
0.0059540644
0.0056800091
0.0054475373
0.0052912408
0.0051784016
0.0050977125
0.0050308059
0.0049850086
0.0049511595
0.0049347625
0.13336766
0.13245735
0.13117971
0.12943819
0.12707673
0.12387996
0.11955273
0.11370386
0.10582965
0.095294326
0.081293107
0.062544417
0.040207078
0.023043013
0.014162762
0.010458795
0.0091997338
0.0081239857
0.0073099075
0.0067158142
0.0062464999
0.0058930628
0.0056401064
0.0054216091
0.00527611
0.0051689592
0.00509147
0.0050267298
0.004981857
0.0049487315
0.0049324247
0.11696314
0.11540354
0.113292
0.110538
0.10697977
0.10238658
0.096442245
0.088776461
0.078969003
0.066587129
0.051550335
0.036818868
0.023668423
0.01492108
0.010959031
0.0096577295
0.008693879
0.007825577
0.0070812998
0.0065735588
0.0061454651
0.0058305359
0.0056009881
0.0053966023
0.0052606289
0.005159062
0.0050848502
0.0050223891
0.0049783698
0.0049460165
0.004929763
0.082449083
0.080267215
0.077597424
0.074470872
0.0707431
0.066232611
0.06074395
0.054222879
0.046627216
0.038019997
0.028954441
0.020507515
0.014359172
0.01098726
0.0096145484
0.0088885472
0.0082233337
0.00747625
0.0068924798
0.0064219203
0.0060495064
0.005772355
0.0055565352
0.0053697284
0.0052427324
0.0051473888
0.005077168
0.0050173659
0.0049743109
0.0049429087
0.0049268195
0.046423955
0.045028377
0.043301999
0.041242003
0.038704279
0.035631527
0.032249568
0.028494044
0.024390715
0.020054401
0.015912194
0.012507253
0.010352364
0.0093396399
0.0090082418
0.0084305574
0.0077781339
0.007235185
0.0067008675
0.006304261
0.0059596007
0.0057122536
0.0055178446
0.0053435646
0.0052249324
0.0051356502
0.0050690922
0.0050120133
0.0049698613
0.0049394665
0.00492365
0.022965247
0.022468216
0.021729943
0.020791464
0.019622587
0.018226518
0.016680067
0.015013819
0.013290711
0.011649801
0.010284142
0.0093144236
0.0087845268
0.0087103602
0.0081658613
0.0076326122
0.0073105271
0.0068443714
0.0065010835
0.0061493118
0.005876448
0.0056607679
0.0054723007
0.0053152487
0.0052058703
0.005122727
0.0050596281
0.0050058299
0.004964822
0.004935561
0.0049203604
0.012200593
0.012080431
0.011833338
0.011491115
0.011068593
0.010583004
0.010063641
0.0094844029
0.0088710691
0.0084483306
0.0082186385
0.0080878419
0.008230813
0.0077513491
0.0074603502
0.0073264808
0.0069513356
0.0066633158
0.0063209776
0.0060272192
0.0057829335
0.0055989429
0.0054331232
0.005286203
0.0051877301
0.0051094974
0.0050499516
0.0049991428
0.0049592395
0.0049312488
0.0049167614
0.0082664978
0.0082338155
0.008157393
0.0080558367
0.0079358824
0.0077985999
0.007677749
0.0075798399
0.0075224591
0.0075122935
0.0076025673
0.0075865523
0.0072668788
0.0071831814
0.0068472804
0.0066936481
0.0066029473
0.006333873
0.0061180915
0.0058446411
0.0056889598
0.0055378349
0.0053751915
0.0052544471
0.0051681368
0.0050952947
0.0050387365
0.0049907471
0.0049530486
0.0049264232
0.0049124863
0.0069770455
0.0069287478
0.0068973909
0.0068816729
0.006880327
0.0068796083
0.006910198
0.0068758258
0.0068308328
0.0068124553
0.0066350715
0.006535984
0.0065025796
0.0064208062
0.0064141717
0.0063174729
0.0060984862
0.0059630324
0.0058783061
0.0057264942
0.005568172
0.0054527271
0.005323462
0.0052212186
0.0051479039
0.0050789319
0.0050272744
0.0049821106
0.004946003
0.0049210839
0.0049080088
0.0064043825
0.0063990362
0.0063897528
0.006378759
0.006386416
0.0064095033
0.0064051226
0.0063829428
0.0063445182
0.0062225627
0.0061643748
0.0060726416
0.0060379408
0.0059672059
0.0059426212
0.0058301919
0.0058080892
0.0057363174
0.0056554857
0.0055317737
0.0054503312
0.005386517
0.0052553319
0.0051818944
0.0051237973
0.0050629637
0.0050134399
0.004971522
0.0049381554
0.0049152585
0.0049030179
0.0059797197
0.0059756274
0.0059677954
0.0059489343
0.0059162653
0.0058697357
0.0058433233
0.005837055
0.0058229349
0.0058102672
0.0058065467
0.0057800573
0.0056950948
0.0056950763
0.0056291261
0.0056714579
0.0055542461
0.0055049276
0.0054347684
0.0053913464
0.0053473453
0.005285821
0.0052137289
0.0051433105
0.0050980032
0.0050446376
0.0049994145
0.004961037
0.0049293038
0.0049087899
0.0048977801
0.0055705127
0.005570454
0.0055677577
0.0055617371
0.005555708
0.0055576144
0.0055695105
0.0055641128
0.0055576977
0.0055402681
0.005516592
0.0055128211
0.0055010372
0.0054748436
0.0054343163
0.0053797984
0.0053605539
0.0053079368
0.0053032378
0.0052500684
0.0052215541
0.0051957221
0.0051658104
0.0051097195
0.0050659513
0.0050251123
0.0049822429
0.0049474182
0.0049202534
0.004901877
0.0048921128
0.0053505546
0.005351518
0.005350014
0.0053454694
0.0053381355
0.0053262911
0.0053049787
0.0053011056
0.005297772
0.0052953025
0.0052940128
0.0052973313
0.0053194703
0.0052999863
0.0052886063
0.0052320445
0.0052474238
0.0052155504
0.0051853166
0.0051634098
0.0051485138
0.0051056344
0.0051022077
0.0050723877
0.0050384763
0.0050011572
0.0049630941
0.0049341141
0.0049110174
0.0048944753
0.0048862427
0.0051435036
0.0051452178
0.0051450682
0.0051439348
0.0051428791
0.0051435605
0.0051523503
0.0051594489
0.0051634446
0.0051653295
0.0051639569
0.005157588
0.0051442221
0.005153245
0.005135998
0.0051432002
0.0051146579
0.0050752654
0.005082737
0.0050873457
0.0050805317
0.005056647
0.0050333756
0.0050306602
0.0049994734
0.0049702311
0.0049412948
0.0049197121
0.0049005911
0.0048872539
0.0048799372
0.0050365879
0.0050380768
0.0050382053
0.0050375126
0.0050362802
0.0050340944
0.0050295451
0.005026939
0.0050262566
0.0050270263
0.0050290222
0.0050311862
0.0050317851
0.0050303558
0.005038101
0.0050241339
0.0050278151
0.0050196542
0.0050309266
0.0050477395
0.0050341921
0.0050196301
0.0049848373
0.004971027
0.0049552397
0.0049428975
0.0049205736
0.0049070096
0.004891072
0.0048798884
0.0048738036
0.0049531837
0.00495414
0.0049543331
0.0049541763
0.0049541405
0.0049543701
0.0049550299
0.0049561186
0.0049588379
0.004961745
0.004963943
0.004964938
0.0049631078
0.0049578719
0.0049552302
0.0049565264
0.0049567746
0.0049711298
0.004971006
0.0049573735
0.0049591969
0.004953114
0.0049486138
0.0049298759
0.0049226706
0.0049147393
0.0049040423
0.0048931055
0.004882
0.0048733449
0.0048675448
0.0049145529
0.0049153512
0.0049154969
0.0049152407
0.0049147731
0.0049141513
0.0049134158
0.0049133618
0.004913673
0.0049139673
0.0049140344
0.0049136478
0.0049143767
0.0049155756
0.0049175374
0.0049188533
0.0049190539
0.0049213763
0.004920902
0.0049150444
0.0049151727
0.0049109393
0.0049130065
0.004908811
0.0049034444
0.0048977136
0.0048939161
0.0048823616
0.0048749897
0.0048678128
0.0048637733
0.0048865008
0.004886802
0.0048868856
0.0048869305
0.0048870823
0.0048873809
0.004887832
0.0048884875
0.0048892794
0.0048902149
0.0048914662
0.004893747
0.004897055
0.004900283
0.0049015451
0.0049015161
0.0048998837
0.0048999022
0.0048987593
0.0048985893
0.0048974095
0.0048965482
0.0048949771
0.0048952276
0.0048924362
0.0048882399
0.0048818372
0.004876096
0.0048696022
0.0048645456
0.0048619613
0.0048731691
0.0048733962
0.0048735384
0.0048736948
0.0048739344
0.0048742653
0.0048746781
0.0048751996
0.0048757727
0.0048764339
0.0048772996
0.0048785723
0.0048802005
0.0048810766
0.0048815731
0.0048830341
0.0048856775
0.0048868261
0.0048875366
0.0048890056
0.0048878931
0.0048890295
0.0048846577
0.0048824589
0.0048825062
0.0048785711
0.004875025
0.0048707295
0.0048664562
0.0048621534
0.0048580938
0.0048662978
0.0048664775
0.0048666391
0.0048668321
0.0048670744
0.0048673635
0.0048676743
0.0048678708
0.004868055
0.0048683042
0.0048687138
0.0048697794
0.0048709745
0.004871205
0.0048710255
0.0048711588
0.0048714628
0.004872216
0.0048730936
0.0048740209
0.0048746123
0.0048733376
0.0048757792
0.0048741208
0.0048737789
0.0048725685
0.0048707802
0.004868145
0.0048624851
0.0048584577
0.0048586202
0.004859321
0.0048594557
0.0048596271
0.0048598546
0.0048601535
0.0048605338
0.0048610071
0.004861589
0.0048623044
0.0048631858
0.0048642458
0.004865587
0.0048666132
0.0048669431
0.0048667317
0.0048665223
0.0048663529
0.0048664224
0.0048663202
0.0048663702
0.00486927
0.004867921
0.0048688834
0.0048695733
0.0048690979
0.0048684891
0.0048674118
0.0048644377
0.0048625518
0.0048617195
0.0048599495
0.00084362684
0.0018300508
0.0036868703
0.0064931334
0.010220696
0.014960422
0.020807898
0.027819186
0.036121713
0.04513325
0.055025706
0.065358756
0.075350322
0.083772733
0.088776919
0.087737505
0.077372079
0.05653107
0.032077701
0.015640626
0.0092640438
0.0073343013
0.0065015517
0.0059547519
0.0055794434
0.0053456349
0.0051965042
0.0050978231
0.0050304581
0.0049863284
0.004963112
0.002064512
0.0041904728
0.0070349942
0.010434957
0.014586212
0.019621346
0.025610952
0.032878916
0.040943753
0.049894281
0.059591711
0.069528055
0.078868636
0.086322505
0.089982871
0.087196658
0.074798691
0.052477378
0.028278844
0.01389875
0.0087709093
0.0071823544
0.0064326994
0.0059142314
0.0055566662
0.0053335998
0.0051901789
0.0050942946
0.0050285347
0.0049851647
0.0049625886
0.0038646568
0.0061992378
0.0090750319
0.01267352
0.017143499
0.022582457
0.0291002
0.036593622
0.044880663
0.053966599
0.063584858
0.073196444
0.081928905
0.088441364
0.090783483
0.086297167
0.072001432
0.048590284
0.025337835
0.012736268
0.0084230084
0.0071147603
0.0064000369
0.0058944997
0.0055454305
0.0053271638
0.005186596
0.0050920362
0.0050271851
0.0049841909
0.0049619122
0.0056598089
0.0082130129
0.0114411
0.015437235
0.020249133
0.025995017
0.032792382
0.04033201
0.048733631
0.057842774
0.067314782
0.076563357
0.084664281
0.090223149
0.091250826
0.08510013
0.06902789
0.044871089
0.022770704
0.011670892
0.0082221816
0.0070288857
0.0063493057
0.0058630506
0.0055274717
0.0053173236
0.0051813196
0.0050889938
0.0050254705
0.004983091
0.0049611713
0.0073972014
0.010308741
0.013889031
0.018191122
0.023308732
0.02937154
0.036250339
0.043970377
0.052478945
0.061564986
0.070845223
0.079691941
0.087130841
0.091717358
0.09143029
0.083648268
0.06592281
0.041299042
0.020503153
0.01095366
0.0080228257
0.0069665954
0.0063149344
0.0058422516
0.0055157879
0.0053106594
0.0051776206
0.0050866819
0.0050240821
0.0049820944
0.004960442
0.0092474758
0.012463098
0.016320083
0.020895766
0.026353625
0.032633969
0.039690261
0.047564216
0.056132683
0.065150451
0.074199163
0.082609191
0.089358189
0.09295592
0.091356029
0.081972557
0.06273285
0.037883477
0.018522053
0.010263514
0.0078885929
0.0069020865
0.0062735761
0.0058164283
0.0055010329
0.005302358
0.0051730916
0.0050839822
0.0050225099
0.0049810327
0.0049597213
0.011039886
0.01454251
0.018699535
0.02360947
0.029338223
0.035814489
0.043079331
0.051083629
0.059680009
0.068597241
0.077383482
0.085328788
0.091366017
0.093964156
0.091057897
0.080113298
0.059504384
0.034679261
0.016835319
0.009790735
0.0077639242
0.0068472851
0.0062406029
0.0057964926
0.0054898916
0.0052959179
0.0051694955
0.0050817176
0.0050211282
0.0049800319
0.0049589879
0.01277592
0.016596646
0.021068011
0.0263253
0.032266544
0.038964552
0.046407171
0.054513078
0.063111049
0.071902058
0.080401334
0.087860609
0.093171231
0.094766159
0.090566022
0.078109956
0.056276541
0.031726995
0.015443587
0.0093929109
0.0076699281
0.0067944355
0.0062056531
0.0057748076
0.0054775757
0.0052888002
0.0051655455
0.0050792858
0.0050196643
0.0049789996
0.0049582317
0.014509645
0.01862935
0.023420499
0.028946055
0.035131268
0.042047155
0.049650903
0.05783903
0.066417838
0.075061993
0.083255592
0.09021425
0.094791067
0.095388055
0.089919566
0.076001701
0.05311312
0.029060965
0.014300595
0.0091119052
0.0075837352
0.0067468311
0.0061755027
0.0057566422
0.0054674771
0.0052828395
0.005162178
0.0050771269
0.005018318
0.0049780042
0.0049574643
0.016185873
0.020610433
0.025726601
0.031486655
0.0379278
0.045051818
0.052800302
0.061052674
0.069594437
0.078075411
0.08595025
0.092400537
0.096244326
0.095856439
0.089157751
0.07383994
0.05004404
0.026698192
0.013399131
0.0088926048
0.0075124316
0.0067021651
0.0061455743
0.00573829
0.0054571542
0.0052767094
0.0051587121
0.0050749194
0.0050169449
0.0049769968
0.0049566876
0.017847207
0.022568055
0.027965285
0.033970513
0.040656499
0.047969964
0.055845932
0.064146156
0.072636148
0.08094209
0.08849088
0.094432096
0.097551944
0.096200246
0.088313572
0.071666472
0.047113227
0.024646007
0.012650105
0.0087197333
0.0074472603
0.0066613081
0.0061188486
0.0057222714
0.0054483042
0.0052713637
0.005155641
0.0050728969
0.0050156508
0.0049760142
0.0049559047
0.01946541
0.024484295
0.030129484
0.036391955
0.043304129
0.050789837
0.058778615
0.067112535
0.075539489
0.083663259
0.090884768
0.096323308
0.098735426
0.096451882
0.087422395
0.06952383
0.044365164
0.0229012
0.012075159
0.0085856596
0.0073909496
0.0066235382
0.0060933063
0.0057067946
0.0054396815
0.005266114
0.0051526079
0.0050708889
0.0050143596
0.0049750303
0.0049551169
0.021060328
0.026350793
0.032238434
0.038742121
0.045849516
0.05350131
0.061589476
0.069946015
0.078302343
0.086241674
0.0931408
0.098089764
0.099816481
0.096636578
0.086518427
0.067453309
0.041831963
0.021446615
0.011630632
0.0084786111
0.0073397908
0.0065890652
0.0060702633
0.0056930485
0.0054321153
0.0052614491
0.0051498705
0.0050690187
0.0050131272
0.0049740651
0.0049543241
0.022629003
0.02816312
0.03428777
0.041011025
0.04828936
0.056098738
0.064270336
0.072640949
0.080924201
0.088682682
0.095269586
0.099749184
0.10081898
0.096784117
0.085635217
0.065484776
0.0395382
0.020261213
0.011315703
0.008394355
0.0072949661
0.0065576295
0.0060488326
0.0056801734
0.0054249681
0.0052570135
0.0051472437
0.0050671972
0.0050119137
0.0049731045
0.0049535268
0.024171437
0.029923648
0.036269269
0.04319407
0.050648139
0.058549044
0.066816584
0.075195447
0.083404792
0.09099223
0.097280275
0.10131679
0.10177018
0.096932606
0.084819199
0.063640621
0.037498827
0.019324076
0.011083723
0.0083270688
0.0072549948
0.0065292768
0.0060295988
0.0056687174
0.0054186303
0.0052530502
0.0051448603
0.005065489
0.0050107493
0.0049721604
0.0049527241
0.025669496
0.031628073
0.038173685
0.045278025
0.052884704
0.060903408
0.06919825
0.077596072
0.085737731
0.093162282
0.099182202
0.10280967
0.1026946
0.097115687
0.084112923
0.061956291
0.035724105
0.018622335
0.010914909
0.0082719861
0.007220388
0.0065038908
0.0060121712
0.0056582679
0.0054127748
0.0052493745
0.0051426245
0.0050638479
0.0050096145
0.0049712259
0.0049519139
0.027071851
0.033234108
0.039967361
0.04723594
0.054976983
0.063095359
0.071439488
0.079807133
0.087890361
0.095194981
0.10097552
0.10424189
0.10361458
0.097364695
0.083554751
0.060496422
0.034260261
0.018033149
0.010740831
0.0082239476
0.0071905612
0.0064814811
0.0059967959
0.0056490642
0.0054075781
0.005246101
0.0051406019
0.005062308
0.0050085237
0.0049703063
0.0049510959
0.028359712
0.034685945
0.041582442
0.049000585
0.056872037
0.065089604
0.073499487
0.08188117
0.089903382
0.097063289
0.10265308
0.10562493
0.10455091
0.097708094
0.083178116
0.059313504
0.033083002
0.017542505
0.010594279
0.0081857198
0.0071656479
0.006461989
0.0059832869
0.0056409032
0.0054028765
0.0052431326
0.0051387424
0.0050608463
0.0050074668
0.0049693985
0.0049502704
0.02971118
0.036114187
0.043098136
0.050612901
0.058577084
0.066875861
0.075345549
0.083754198
0.091755414
0.098833979
0.10425474
0.10694661
0.10551909
0.098170876
0.083011901
0.058446583
0.032170811
0.017131163
0.010460403
0.0081555124
0.0071454101
0.0064454314
0.0059717375
0.0056338809
0.0053987521
0.0052405217
0.0051370771
0.0050594815
0.0050064519
0.0049685059
0.0049494401
0.031054709
0.037508522
0.044538464
0.05210245
0.060119387
0.068470969
0.076986038
0.085422802
0.093420433
0.10045178
0.10576178
0.10827003
0.10653911
0.09873956
0.083078597
0.057924852
0.031509668
0.016783647
0.010341952
0.0081341415
0.0071299226
0.0064318301
0.005962075
0.0056279084
0.0053951383
0.0052382217
0.005135581
0.0050582036
0.0050054741
0.004967627
0.0049486071
0.032370502
0.038837488
0.045876073
0.053452333
0.061487706
0.069867688
0.078414993
0.086881712
0.094893168
0.10191337
0.10716732
0.109559
0.10762042
0.099513429
0.083394152
0.057770114
0.031097125
0.016478576
0.010233
0.0081211251
0.0071192954
0.0064212997
0.0059543721
0.0056230391
0.0053920869
0.0052362583
0.0051342672
0.0050570215
0.0050045365
0.0049667623
0.0049477694
0.033644181
0.040084862
0.047092631
0.054645342
0.062665774
0.071058366
0.079653903
0.088176941
0.096242558
0.10327675
0.10850051
0.1108251
0.10876326
0.10044641
0.083991417
0.058005156
0.030948638
0.016187491
0.01013018
0.008116849
0.0071137668
0.0064139538
0.0059486175
0.0056192298
0.0053895694
0.0052346017
0.0051331148
0.0050559258
0.0050036328
0.0049659087
0.0049469201
0.03488821
0.041233445
0.04815403
0.055645458
0.063663459
0.072084394
0.080719722
0.089280366
0.097371083
0.10444477
0.10970752
0.11205045
0.10996677
0.10155017
0.084864975
0.058658292
0.031051304
0.015861236
0.010031776
0.0081193932
0.0071133051
0.0064097474
0.0059447299
0.0056164234
0.0053875687
0.0052332339
0.0051321099
0.0050549109
0.0050027584
0.0049650647
0.0049460567
0.036096299
0.042242977
0.048976022
0.056317697
0.064247062
0.07263255
0.081274379
0.089886158
0.098064702
0.10523933
0.11060962
0.11305014
0.11103031
0.10261356
0.085797547
0.05947347
0.031447604
0.015432565
0.0099372763
0.0081281455
0.007115491
0.0064082259
0.0059423628
0.0056144062
0.0053859759
0.0052320894
0.0051312159
0.0050539636
0.0050019078
0.0049642313
0.0049451919
0.00086480746
0.0017684169
0.0035165219
0.0061711484
0.0097123134
0.014168055
0.019688222
0.026383637
0.034418229
0.043239707
0.053021263
0.063345249
0.073469601
0.082231729
0.087835626
0.087692027
0.078454611
0.058450833
0.033780136
0.016183418
0.0093997025
0.0073765788
0.0065237486
0.0059688605
0.0055878182
0.005350753
0.0051993427
0.0050996124
0.005031514
0.0049870878
0.0049633955
0.00091720209
0.0018143249
0.0035342118
0.0061131073
0.0095575529
0.013939582
0.019375525
0.025963411
0.033857094
0.042589733
0.052221393
0.062423103
0.07252413
0.081363965
0.087182265
0.087424816
0.078783423
0.059337313
0.03468337
0.01655606
0.009485048
0.0074010797
0.0065376764
0.0059783116
0.0055936595
0.005353987
0.0052011883
0.0051007981
0.0050322563
0.0049876592
0.0049636835
0.00098165226
0.0018654035
0.0035601802
0.0060892499
0.0094652992
0.013758804
0.019081143
0.025534993
0.033252495
0.041860335
0.051368982
0.061479627
0.071546826
0.080457242
0.08648682
0.087119972
0.079088496
0.060237631
0.035644467
0.016977058
0.0095774985
0.0074276693
0.0065522271
0.0059877744
0.0055993652
0.0053579502
0.0052033681
0.0051021976
0.0050330691
0.0049882394
0.0049640601
0.0010595065
0.0019213636
0.0035852132
0.0060635244
0.0093698328
0.013573935
0.018782978
0.025104949
0.032644217
0.041119766
0.050499313
0.060510015
0.070537312
0.079510463
0.085746862
0.086773725
0.079363708
0.061147607
0.036662551
0.017445476
0.009685228
0.0074548687
0.0065675736
0.0059987271
0.0056063224
0.0053612669
0.0052053434
0.0051034798
0.005033916
0.0049888921
0.0049644848
0.0011529212
0.001986835
0.0036122916
0.0060375125
0.009273436
0.013387173
0.018482151
0.024663246
0.032031932
0.040369473
0.049613626
0.059516424
0.069496132
0.078523467
0.084961039
0.086383366
0.079604629
0.062068788
0.037735489
0.017964562
0.0098022074
0.0074867023
0.0065836803
0.0060087726
0.0056123679
0.0053660019
0.0052079289
0.0051051336
0.0050348601
0.0049895755
0.0049648764
0.0012671101
0.002060357
0.0036443811
0.0060142982
0.0091785261
0.013200794
0.018180717
0.024219012
0.031417992
0.039612701
0.048715254
0.058502948
0.068425925
0.077498112
0.084129802
0.085947549
0.079805275
0.062994986
0.038849889
0.018536076
0.0099400161
0.0075178588
0.0066010444
0.0060215247
0.0056205275
0.0053705361
0.0052104941
0.0051067888
0.0050358625
0.0049903037
0.0049651999
0.0014067362
0.0021566899
0.0036839248
0.0059947955
0.0090867355
0.013017567
0.01788271
0.023781843
0.03080638
0.038854757
0.047807945
0.057472273
0.067327763
0.076434402
0.083251364
0.085462412
0.079956995
0.063911489
0.040012078
0.019166246
0.010095805
0.0075523001
0.0066186484
0.006033719
0.0056283687
0.0053753924
0.0052132521
0.0051085574
0.0050369293
0.0049910778
0.004965583
0.0015763874
0.0022683874
0.0037367679
0.0059843515
0.0090024858
0.012841184
0.017590938
0.023349723
0.030202357
0.03809359
0.046891633
0.056423566
0.066197924
0.07532906
0.082320319
0.084919758
0.080063562
0.064815907
0.041255299
0.019860968
0.010265229
0.0075890913
0.0066366782
0.0060466116
0.0056366532
0.0053805458
0.0052161697
0.0051104414
0.0050380734
0.0049918986
0.0049661363
0.0017842217
0.0024054416
0.0038077504
0.0059873152
0.0089296123
0.012675552
0.017309855
0.022928683
0.029616285
0.037338881
0.045973916
0.055365006
0.065050938
0.074190209
0.081343074
0.084322972
0.080118304
0.065700293
0.042556441
0.020625587
0.010463419
0.0076286538
0.0066555374
0.006059772
0.0056454071
0.0053860614
0.0052193215
0.0051124545
0.0050392888
0.0049927645
0.0049669359
0.0020321031
0.0025783607
0.0039012484
0.0060063386
0.0088709915
0.012524356
0.017043624
0.022521383
0.029029447
0.036592141
0.045059713
0.054302081
0.063895605
0.073021833
0.080321276
0.083670398
0.080116291
0.066565729
0.043908755
0.021465849
0.010681071
0.0076711264
0.0066743285
0.0060737375
0.0056546694
0.0053919033
0.0052226374
0.0051145911
0.0050405972
0.0049936807
0.0049677075
0.0023295608
0.0027944191
0.0040232947
0.0060491303
0.0088333479
0.012393306
0.01679746
0.022133183
0.028466448
0.035858489
0.044154783
0.053239886
0.062720732
0.071827243
0.079257281
0.082961473
0.080053352
0.067399994
0.045310854
0.022389344
0.010931834
0.0077173207
0.0066944533
0.0060876896
0.0056643443
0.0053981243
0.0052262411
0.0051168793
0.0050419844
0.0049946453
0.0049684265
0.0026744733
0.0030566905
0.0041921427
0.0061215525
0.0088206394
0.012287058
0.01657697
0.021771883
0.027941568
0.035159131
0.043268565
0.052185531
0.061541201
0.070611515
0.078154326
0.082196607
0.07992521
0.068182836
0.046717755
0.02339394
0.011211459
0.0077670154
0.0067134401
0.0061024828
0.0056747109
0.0054047287
0.005230017
0.0051192895
0.0050434803
0.0049956679
0.0049691616
0.0030601939
0.0033670606
0.0043972818
0.0062325151
0.0088423064
0.012213807
0.016389905
0.021445139
0.027451458
0.034475939
0.042405655
0.051146333
0.060363949
0.069379637
0.077016449
0.081377201
0.079728909
0.068906904
0.048114946
0.024485013
0.01152961
0.0078224973
0.0067347196
0.0061169397
0.0056851641
0.0054116126
0.0052341178
0.005121882
0.0050450617
0.00499674
0.0049699877
0.003480189
0.0037275587
0.0046545105
0.006390215
0.0089073399
0.012182593
0.016245077
0.021161553
0.027002115
0.033819353
0.041571553
0.050130147
0.059196262
0.068129526
0.075848289
0.080505729
0.079462789
0.069564635
0.049516015
0.025663163
0.011887131
0.0078809052
0.0067534898
0.0061320306
0.0056968128
0.0054190687
0.0052384405
0.0051245786
0.0050467637
0.004997877
0.0049708836
0.0039176655
0.0041323094
0.0049735934
0.0066081695
0.009028518
0.012205564
0.016154907
0.020931554
0.026607262
0.033233531
0.040804086
0.049152459
0.058050469
0.066902584
0.074659443
0.079586178
0.07912626
0.070148245
0.05090879
0.026931682
0.012291263
0.0079509593
0.0067750621
0.006146606
0.0057076871
0.0054264518
0.0052430556
0.0051275043
0.005048562
0.004999062
0.0049718336
0.0043655285
0.0045815776
0.0053695696
0.006912639
0.0092337235
0.012306594
0.016138498
0.020771924
0.026276808
0.032709366
0.040060248
0.048215365
0.056935586
0.065685975
0.073457214
0.078623745
0.078719925
0.070649835
0.052287304
0.028270473
0.012744915
0.008018979
0.0067944384
0.0061612546
0.0057207506
0.0054349236
0.0052480569
0.0051304904
0.0050504823
0.0050003176
0.0049728282
0.0048111931
0.005054034
0.0058167464
0.0072882931
0.0095207064
0.012492951
0.016207415
0.020696786
0.026023569
0.032256872
0.039376017
0.047330651
0.055860834
0.064479161
0.072248755
0.077624829
0.078246436
0.071063564
0.053645237
0.029723844
0.013255867
0.0081119453
0.0068139084
0.006175378
0.0057316562
0.0054426077
0.0052531555
0.0051337711
0.0050525205
0.005001619
0.0049738612
0.0052769389
0.0055826055
0.0063599101
0.0077927969
0.0099363014
0.01280083
0.01638907
0.020727776
0.025866236
0.031896516
0.038799282
0.046542611
0.054844571
0.063305547
0.071044266
0.076597197
0.077710931
0.071392735
0.05498136
0.031259262
0.013830918
0.0082112084
0.0068354834
0.0061888653
0.0057456522
0.0054523041
0.0052589813
0.0051370377
0.0050546618
0.0050029971
0.0049749303
0.0057997794
0.0061893152
0.0070117491
0.0084218738
0.01049302
0.013250058
0.016704451
0.020883808
0.025822735
0.031641657
0.038312009
0.045790576
0.053886212
0.062174517
0.06985211
0.075549004
0.077117387
0.071642432
0.05628548
0.032808297
0.014463121
0.0083235883
0.0068535724
0.0062019637
0.0057569912
0.0054604416
0.0052644955
0.005140672
0.0050569592
0.0050044221
0.0049760362
0.0064566857
0.0069337459
0.0078073393
0.0092068161
0.011220302
0.013861272
0.017170025
0.021178472
0.025907121
0.03150385
0.037928301
0.045139584
0.052999362
0.061094429
0.068675084
0.074486987
0.076469084
0.071800701
0.057514704
0.034422572
0.015183816
0.0084753678
0.0068714973
0.0062134631
0.005769841
0.005471126
0.0052711909
0.0051442201
0.0050593128
0.0050059271
0.0049771761
0.007334266
0.0078853059
0.0087981536
0.010182742
0.012119141
0.014636024
0.017789597
0.02161568
0.026128205
0.031490242
0.037659847
0.04460948
0.052217321
0.060082902
0.067555928
0.073424142
0.07577237
0.071869211
0.058663761
0.036110693
0.01598154
0.0086129949
0.0069005597
0.0062258916
0.0057835443
0.0054808001