/*--------------------------------*- C++ -*----------------------------------*\
| =========                 |                                                 |
| \\      /  F ield         | OpenFOAM: The Open Source CFD Toolbox           |
|  \\    /   O peration     | Version:  2406                                  |
|   \\  /    A nd           | Website:  www.openfoam.com                      |
|    \\/     M anipulation  |                                                 |
\*---------------------------------------------------------------------------*/
FoamFile
{
    version     2.0;
    format      ascii;
    arch        "LSB;label=32;scalar=64";
    class       volVectorField;
    location    "0.083";
    object      U;
}
// * * * * * * * * * * * * * * * * * * * * * * * * * * * * * * * * * * * * * //

dimensions      [0 1 -1 0 0 0 0];

internalField   nonuniform List<vector> 
8260
(
(40.172726 29.025712 0)
(41.552029 27.735497 -2.4736587e-20)
(42.867244 26.445494 2.1375218e-20)
(44.140141 25.15243 -3.656499e-20)
(45.36804 23.817395 1.5506365e-20)
(46.532984 22.458324 -2.6173087e-20)
(47.624223 21.111603 -1.0956283e-20)
(48.63301 19.810114 -1.4641936e-23)
(49.594588 18.578091 4.946051e-21)
(50.548801 17.415828 0)
(51.440897 16.338285 4.62388e-20)
(52.292455 15.337181 0)
(53.096365 14.39308 0)
(53.819689 13.468418 -7.1302568e-20)
(54.297001 12.506327 1.8798132e-23)
(54.353129 11.41464 0)
(53.741667 9.8932858 0)
(52.845631 8.2485846 6.8248668e-19)
(52.380824 7.0935789 5.6963066e-21)
(52.110896 6.1751325 -6.9455001e-19)
(51.89101 5.3465177 -1.2685648e-18)
(51.699246 4.6131034 -1.1443249e-18)
(51.509217 3.9510791 -2.0750104e-18)
(51.349261 3.3514263 1.8549444e-18)
(51.226024 2.8147297 1.6473408e-18)
(51.112764 2.3330839 0)
(51.012601 1.876689 2.5896454e-18)
(50.925154 1.4511911 2.2850702e-18)
(50.852055 1.0374958 4.0332917e-18)
(50.806507 0.62699251 0)
(50.771333 0.21488663 6.2598267e-18)
(39.174763 28.251358 2.4229324e-20)
(40.613646 27.083572 -1.7450525e-23)
(41.980686 25.976363 -1.8844769e-20)
(43.310607 24.834766 4.9590161e-20)
(44.604578 23.635386 0)
(45.846912 22.395304 2.4695761e-20)
(47.023934 21.144737 4.2356472e-20)
(48.129259 19.914623 2.7139806e-20)
(49.179192 18.730063 -3.1017436e-20)
(50.193291 17.597132 1.3357522e-20)
(51.148427 16.526597 -5.2400668e-20)
(52.050831 15.518716 0)
(52.890982 14.557364 0)
(53.631537 13.610378 1.4676414e-19)
(54.108926 12.593504 -1.5397412e-19)
(54.132416 11.459688 1.9184603e-19)
(53.503845 9.8497474 2.6538205e-24)
(52.659015 8.2130469 -2.1463182e-20)
(52.262787 7.0817801 2.222487e-20)
(52.025247 6.1696857 -6.6607313e-19)
(51.824054 5.3427348 -9.5436237e-21)
(51.646477 4.6107316 1.1083729e-18)
(51.467234 3.9501286 1.9920796e-18)
(51.316074 3.3513675 -3.4776496e-21)
(51.199865 2.8152044 6.2184471e-21)
(51.091491 2.3340655 -2.7466487e-21)
(50.994947 1.8771964 -2.4903222e-18)
(50.910317 1.4516246 -2.201726e-18)
(50.839246 1.0375685 -3.8937875e-18)
(50.795187 0.62671861 3.4378498e-18)
(50.760901 0.2146278 -6.0667683e-18)
(38.13437 27.20162 -2.0334728e-20)
(39.55339 26.259827 1.8252921e-20)
(40.96538 25.357236 0)
(42.359535 24.389705 -3.0171933e-20)
(43.72628 23.345833 2.6946287e-20)
(45.050633 22.243034 0)
(46.318082 21.106986 -4.1692639e-20)
(47.519709 19.96567 -9.0990364e-21)
(48.661355 18.844384 3.9660676e-20)
(49.752126 17.752885 0)
(50.778881 16.700849 4.9085342e-20)
(51.74048 15.693848 0)
(52.624999 14.719082 0)
(53.389407 13.749461 -7.5024435e-20)
(53.875068 12.680802 -5.2959896e-21)
(53.876516 11.496329 -2.1188731e-19)
(53.238606 9.7882864 2.8403213e-19)
(52.465686 8.195223 -1.3661517e-18)
(52.135834 7.0928848 0)
(51.929212 6.1858138 6.3085107e-19)
(51.748029 5.3584685 0)
(51.586478 4.6250457 -8.0945521e-21)
(51.419511 3.9629288 1.4492158e-20)
(51.278047 3.3621703 -1.2918012e-20)
(51.169785 2.8239521 -1.4633499e-18)
(51.067093 2.3413455 0)
(50.974763 1.8823623 0)
(50.893388 1.4554652 1.9888942e-21)
(50.824649 1.0400736 -1.7566902e-21)
(50.782309 0.62826625 -3.176524e-18)
(50.748963 0.21526018 -4.322128e-23)
(37.265138 26.012186 6.7704954e-20)
(38.638128 25.291091 -4.6741195e-20)
(40.045638 24.591143 2.9358707e-20)
(41.463127 23.810383 2.7230297e-20)
(42.872218 22.938069 -7.4841058e-20)
(44.25503 21.98901 -2.2583771e-20)
(45.594527 20.984978 2.0261954e-20)
(46.877588 19.950062 -1.8047487e-20)
(48.101591 18.907859 1.6036755e-20)
(49.268416 17.87131 0)
(50.365563 16.850708 5.1227084e-20)
(51.386994 15.853722 0)
(52.317159 14.870793 -8.7791385e-20)
(53.104657 13.879123 0)
(53.595921 12.760402 -1.8519521e-19)
(53.570379 11.51355 7.0242097e-21)
(52.930527 9.7058462 4.4666027e-23)
(52.249548 8.1808162 6.6157551e-19)
(51.990407 7.1005556 -6.4496329e-19)
(51.81866 6.1972265 0)
(51.660523 5.3692494 -1.0663811e-18)
(51.51726 4.6346644 -7.4813014e-21)
(51.364476 3.9716745 6.6754343e-21)
(51.23432 3.3696886 -1.52e-18)
(51.135279 2.830188 0)
(51.039092 2.3467818 0)
(50.951613 1.8860959 0)
(50.873984 1.4582609 -1.8650899e-18)
(50.807976 1.0418026 0)
(50.767608 0.62916927 2.9076088e-18)
(50.735423 0.21556734 5.1303394e-18)
(36.580479 24.725882 -1.3973295e-20)
(37.88673 24.203404 0)
(39.25327 23.692272 -2.548201e-20)
(40.656411 23.097328 2.4311274e-20)
(42.07495 22.403803 2.2835669e-20)
(43.488212 21.620292 4.2311297e-20)
(44.876306 20.763106 1.9406593e-20)
(46.222005 19.851246 -1.766705e-20)
(47.515023 18.904862 -1.5999411e-20)
(48.749622 17.938415 8.6980898e-20)
(49.911892 16.963064 -1.3186451e-20)
(50.990556 15.986657 0)
(51.964947 15.002382 1.7459766e-19)
(52.772746 13.990005 -4.6480838e-24)
(53.26338 12.82124 2.1303814e-19)
(53.205117 11.494129 1.5156661e-20)
(52.575406 9.6037023 -3.2328353e-19)
(52.015529 8.1658509 6.2248081e-19)
(51.827429 7.1053105 6.3861403e-19)
(51.693677 6.2078341 2.3209931e-24)
(51.561452 5.3808668 9.6474433e-19)
(51.438704 4.6460042 8.7664369e-19)
(51.302064 3.9824682 6.0957312e-21)
(51.184621 3.3792409 1.3798326e-18)
(51.096022 2.838212 1.2272633e-18)
(51.007222 2.3537444 0)
(50.925288 1.8909715 -3.7471321e-21)
(50.851909 1.4619282 1.6978018e-18)
(50.789033 1.0441532 -2.9918496e-18)
(50.750889 0.6305033 -2.6412235e-18)
(50.719961 0.21608908 5.6872131e-22)
(36.09518 23.366317 2.3008518e-20)
(37.316684 23.021113 -2.2146392e-20)
(38.614557 22.680917 -2.1936514e-20)
(39.97073 22.261263 4.2863809e-20)
(41.36546 21.744105 -4.1231819e-20)
(42.777623 21.130438 0)
(44.185822 20.429488 0)
(45.569707 19.653939 0)
(46.912706 18.818989 3.1555941e-20)
(48.201605 17.938059 3.500629e-23)
(49.419409 17.022016 -5.3946274e-20)
(50.54897 16.077641 1.1412861e-19)
(51.562969 15.10004 -2.0805206e-19)
(52.385652 14.068229 -1.1142433e-19)
(52.865609 12.847489 2.688765e-20)
(52.771415 11.417664 -1.607379e-20)
(52.173199 9.4826025 1.8856552e-20)
(51.762101 8.148242 -6.221264e-19)
(51.644378 7.1053134 -1.730848e-20)
(51.552244 6.2152633 -4.9874782e-19)
(51.449248 5.390528 -8.7909275e-19)
(51.349309 4.6560244 -1.5923235e-18)
(51.231028 3.9923253 -1.4252553e-18)
(51.128001 3.3882257 -8.1950907e-25)
(51.051302 2.845889 8.6995334e-21)
(50.970885 2.3605399 1.9612935e-18)
(50.895306 1.8956871 0)
(50.826744 1.4654952 1.5325175e-18)
(50.767487 1.0464181 2.6973252e-18)
(50.731847 0.63171732 0)
(50.702444 0.21655135 0)
(35.824209 21.956382 8.6855184e-21)
(36.947639 21.772182 -3.7065626e-20)
(38.155707 21.583496 3.7578631e-20)
(39.436834 21.321904 -1.8750385e-20)
(40.775736 20.969667 -1.8469365e-20)
(42.153678 20.521181 0)
(43.549819 19.978172 0)
(44.942328 19.346244 0)
(46.310278 18.634377 -3.0757235e-20)
(47.634148 17.852364 -5.7825299e-20)
(48.892411 17.008728 0)
(50.061449 16.107699 -1.0418758e-19)
(51.105646 15.145135 1.2758287e-19)
(51.933481 14.093047 -3.5707419e-23)
(52.387698 12.816593 1.7129757e-19)
(52.257707 11.258001 3.3353946e-20)
(51.732833 9.3506037 -3.6383363e-20)
(51.487949 8.1239324 5.9285186e-19)
(51.439639 7.0986109 0)
(51.392648 6.2184947 4.5277525e-19)
(51.322658 5.3981957 8.0783669e-19)
(51.247969 4.6653423 1.4367666e-18)
(51.150495 4.0021239 -1.0018503e-20)
(51.063728 3.397672 8.8105914e-21)
(51.000486 2.8541578 3.3541094e-23)
(50.929547 2.3679538 -1.7620435e-18)
(50.861231 1.9008779 0)
(50.798115 1.4694531 2.5475605e-23)
(50.743017 1.0489661 0)
(50.710167 0.63309951 0)
(50.682494 0.21710639 1.8867013e-18)
(35.779162 20.565011 -2.3925426e-23)
(36.791937 20.502948 -2.332293e-20)
(37.892979 20.435826 8.0313055e-21)
(39.07623 20.307226 1.6370012e-20)
(40.3315 20.0994 1.6445794e-20)
(41.644011 19.801739 0)
(42.995316 19.409197 0)
(44.364067 18.920163 0)
(45.72723 18.336522 0)
(47.060771 17.662293 -2.8511826e-20)
(48.338202 16.90127 2.7378204e-20)
(49.528901 16.053166 0)
(50.587045 15.112901 -2.6429997e-20)
(51.404953 14.03282 2.7350724e-20)
(51.812099 12.697988 -4.7923646e-19)
(51.650104 10.992972 3.3632189e-20)
(51.267418 9.2126325 -3.4302084e-20)
(51.190706 8.0887846 -5.0955369e-19)
(51.211123 7.0825545 0)
(51.212914 6.215508 0)
(51.180098 5.4022713 0)
(51.133307 4.6725639 2.0198166e-20)
(51.059217 4.0105293 1.1328625e-18)
(50.990899 3.4065253 5.1373129e-25)
(50.942801 2.8621541 -1.7919093e-18)
(50.882524 2.3752935 1.5700823e-18)
(50.822456 1.9060284 1.3967353e-18)
(50.765516 1.4734174 -2.4557332e-18)
(50.715209 1.0515221 0)
(50.685439 0.63443992 0)
(50.659886 0.21764975 -1.6864504e-18)
(35.946113 19.211802 -6.1738714e-21)
(36.843473 19.238174 2.621121e-20)
(37.826975 19.264298 -3.4494865e-20)
(38.896732 19.240954 -1.4311194e-20)
(40.047272 19.152002 1.4667518e-20)
(41.268028 18.98373 -2.9651593e-20)
(42.544182 18.725769 2.9632883e-20)
(43.856738 18.370113 0)
(45.182823 17.911563 0)
(46.495954 17.347075 0)
(47.76518 16.67362 0)
(48.952294 15.884214 1.080664e-19)
(49.998725 14.97003 -1.3630674e-19)
(50.788203 13.835942 2.8261564e-20)
(51.116553 12.456617 2.4562999e-19)
(50.953307 10.615413 0)
(50.796911 9.0765807 0)
(50.868153 8.0388066 4.6115303e-19)
(50.957051 7.0536922 2.5745607e-20)
(51.010869 6.2040786 -2.2900809e-20)
(51.019702 5.4014337 0)
(51.003973 4.6770143 -5.5827083e-19)
(50.955914 4.017162 8.8886157e-25)
(50.908633 3.414765 -9.0112389e-19)
(50.877418 2.869963 -3.3867978e-23)
(50.829055 2.3826679 -1.4160552e-18)
(50.778269 1.9112831 -1.2399573e-18)
(50.72837 1.4775033 1.0941352e-18)
(50.68359 1.0541861 -1.8854494e-21)
(50.657196 0.63583082 8.3169698e-22)
(50.634151 0.21823124 7.3364553e-22)
(36.297461 17.915818 0)
(37.08397 17.995063 -4.460216e-20)
(37.948154 18.08641 4.7920796e-20)
(38.895958 18.141037 0)
(39.926654 18.142305 -7.9074691e-20)
(41.03447 18.076492 2.2276621e-23)
(42.209176 17.929673 5.5209867e-20)
(43.435376 17.688969 2.7787795e-20)
(44.691997 17.342955 0)
(45.951858 16.881174 -2.3655479e-23)
(47.180346 16.292448 -6.7238216e-24)
(48.33072 15.561327 -1.6485694e-19)
(49.328244 14.669611 5.6167078e-20)
(50.051313 13.468644 5.8708629e-20)
(50.279459 11.995495 6.2266124e-20)
(50.222135 10.166593 2.4913559e-19)
(50.33186 8.9345345 -5.7362849e-20)
(50.518254 7.9692147 9.0335829e-23)
(50.676882 7.0083972 0)
(50.784487 6.1814336 -3.4547223e-19)
(50.839304 5.3935518 -5.6047309e-19)
(50.858329 4.6770555 0)
(50.838905 4.0206581 0)
(50.815694 3.4213982 7.8908203e-19)
(50.80322 2.87683 7.1876111e-19)
(50.768149 2.3894904 1.2491943e-18)
(50.727759 1.9162734 -8.6108982e-21)
(50.685933 1.4814083 3.7983778e-21)
(50.647564 1.0567556 1.7191381e-18)
(50.624894 0.63713881 0)
(50.604869 0.21877712 1.3351876e-18)
(36.794451 16.670725 -3.0285678e-20)
(37.469767 16.787839 3.4239938e-20)
(38.217573 16.917624 -4.2770604e-20)
(39.043908 17.016631 -4.5759075e-20)
(39.948937 17.075846 1.210526e-20)
(40.93166 17.079268 5.0564408e-20)
(41.986549 17.012155 0)
(43.102176 16.858863 -2.6736508e-20)
(44.260005 16.602758 0)
(45.433162 16.225896 -4.1938842e-23)
(46.583736 15.708238 0)
(47.654809 15.02359 -5.64754e-20)
(48.551682 14.131662 5.8313019e-20)
(49.146993 12.822579 6.022231e-20)
(49.325992 11.274947 -2.4239065e-19)
(49.53868 9.7906763 -5.1331354e-19)
(49.850986 8.8312784 5.1573089e-20)
(50.151193 7.8271869 -4.1672801e-19)
(50.368469 6.971632 -2.878904e-19)
(50.534692 6.1402106 -3.6485086e-20)
(50.638432 5.3569253 4.8245039e-19)
(50.694462 4.6709565 4.8322044e-19)
(50.70627 4.0198779 2.5164687e-20)
(50.710415 3.4256732 6.8931264e-19)
(50.718761 2.8822879 0)
(50.698627 2.3954329 -2.2163813e-18)
(50.669965 1.9209342 -7.6380606e-21)
(50.637364 1.4850183 6.7380419e-21)
(50.606447 1.0591852 4.0124658e-23)
(50.587976 0.63837011 1.3109358e-21)
(50.571414 0.21928082 -1.18522e-18)
(37.442028 15.428204 0)
(37.996969 15.549332 0)
(38.621021 15.687228 0)
(39.317325 15.808676 0)
(40.089184 15.898003 0)
(40.937459 15.940857 -1.1004732e-19)
(41.85898 15.922704 1.0255494e-19)
(42.844462 15.82628 0)
(43.876452 15.630585 -1.096595e-19)
(44.927131 15.31044 1.1236016e-19)
(45.953115 14.836169 5.7570408e-20)
(46.882469 14.164487 0)
(47.615198 13.21143 1.8180333e-19)
(48.06745 11.87354 -6.0447377e-20)
(48.448211 10.45375 1.7068761e-19)
(48.90488 9.531367 5.1677308e-20)
(49.391426 8.5481164 -1.8571191e-19)
(49.752042 7.7191359 -3.7123717e-19)
(50.041606 6.8669122 6.2161409e-19)
(50.259742 6.0906336 5.1777718e-19)
(50.411243 5.3560289 0)
(50.510968 4.6465887 -2.5181696e-20)
(50.556214 4.0085402 2.2280783e-20)
(50.590872 3.4260587 -6.3040437e-19)
(50.622305 2.885195 0)
(50.619244 2.3995761 1.961831e-18)
(50.60401 1.9249049 0)
(50.581778 1.4879057 -5.966847e-21)
(50.559498 1.0612331 -2.689578e-18)
(50.545905 0.63937996 0)
(50.533166 0.2196571 0)
(38.101562 14.087116 0)
(38.549995 14.190782 0)
(39.062253 14.307943 0)
(39.636205 14.421391 8.846123e-20)
(40.277439 14.508546 -1.7891393e-19)
(40.989183 14.556011 2.166814e-19)
(41.76951 14.549814 -1.3492691e-19)
(42.608354 14.471519 2.8295257e-20)
(43.485959 14.296263 1.4694166e-19)
(44.372279 13.992977 -7.3494602e-23)
(45.228871 13.517053 -6.1803239e-20)
(45.986968 12.814029 -2.4773227e-19)
(46.563278 11.831589 1.2101834e-19)
(47.078074 10.762973 0)
(47.714389 9.9316856 0)
(48.361498 9.108239 9.2977145e-20)
(48.887692 8.3523939 3.3048207e-19)
(49.337425 7.5348644 7.3266669e-19)
(49.689809 6.7640598 -3.2435075e-19)
(49.966402 6.0137872 -5.7321702e-20)
(50.166918 5.2867556 5.0691333e-20)
(50.303718 4.6408473 -3.8044125e-19)
(50.388165 3.9859017 1.9753857e-20)
(50.455747 3.4210332 0)
(50.512371 2.8882516 0)
(50.528968 2.3974624 -8.6754738e-19)
(50.529208 1.9279616 0)
(50.518448 1.4896498 0)
(50.506026 1.0627591 1.1916555e-18)
(50.49821 0.64006519 -1.0512262e-18)
(50.489451 0.21985915 -9.2723701e-19)
(38.707867 12.325759 -2.2356834e-23)
(39.075598 12.384406 -1.7772657e-19)
(39.489802 12.473456 9.1104758e-20)
(39.960466 12.552545 0)
(40.488813 12.618698 9.8052255e-24)
(41.070652 12.661326 1.3548565e-19)
(41.703353 12.653624 -4.5892929e-23)
(42.379396 12.575769 -3.2514797e-20)
(43.081449 12.403056 -3.2951435e-20)
(43.782832 12.115388 -6.5693505e-20)
(44.454368 11.679793 -6.4230304e-20)
(45.086461 11.107515 0)
(45.72421 10.456718 0)
(46.447051 9.903215 0)
(47.166511 9.3360189 0)
(47.810317 8.7329017 -1.6545978e-19)
(48.403269 8.0148771 -1.4664428e-19)
(48.901361 7.3226516 -2.597438e-19)
(49.320707 6.6046973 0)
(49.652321 5.9171442 -2.030606e-19)
(49.900513 5.2406987 0)
(50.080641 4.5825008 3.166702e-19)
(50.201238 3.9672277 0)
(50.305056 3.4082981 0)
(50.388287 2.8837729 0)
(50.427391 2.392902 0)
(50.444813 1.9293709 0)
(50.447016 1.4894666 -9.3242106e-21)
(50.445448 1.0635383 8.2262223e-21)
(50.444445 0.64014023 1.859467e-18)
(50.439673 0.21979724 8.1765799e-19)
(39.20533 10.295575 2.6373349e-23)
(39.431724 10.361141 0)
(39.717846 10.448687 2.2304777e-21)
(40.073858 10.527719 1.2713736e-19)
(40.517724 10.551382 -2.6426174e-19)
(41.003103 10.562609 -3.5983701e-20)
(41.520224 10.522096 -2.1649128e-19)
(42.076807 10.434352 5.665791e-19)
(42.672771 10.293785 -2.7471607e-19)
(43.284866 10.146379 -6.6101451e-20)
(43.910763 9.9388765 -2.2586921e-23)
(44.566646 9.6884556 5.7706082e-20)
(45.281877 9.4386313 0)
(45.996456 9.1475257 0)
(46.678483 8.7460152 0)
(47.339226 8.2361477 2.934117e-19)
(47.929974 7.6703404 0)
(48.464987 7.0490288 -2.299457e-19)
(48.932732 6.4179577 0)
(49.320856 5.7811158 0)
(49.620383 5.136866 0)
(49.838314 4.5373426 -2.4476583e-19)
(50.000549 3.9232493 -3.0854158e-20)
(50.140738 3.3853428 -4.6271793e-19)
(50.251622 2.8681237 2.4007092e-20)
(50.313274 2.3914668 0)
(50.350097 1.9252253 0)
(50.367448 1.4850354 5.2690776e-19)
(50.377247 1.0633359 9.3678647e-19)
(50.384166 0.63930821 -3.1722536e-21)
(50.383295 0.21943751 -2.8255449e-21)
(40.131889 8.0312909 0)
(40.293651 8.1335533 -1.0742475e-20)
(40.464864 8.2725115 1.0943558e-20)
(40.653876 8.4165593 -1.0970653e-20)
(40.870037 8.6191534 -2.1001526e-20)
(41.169035 8.7516512 2.0316236e-20)
(41.531546 8.887793 -3.8920875e-20)
(41.962974 8.9908181 -3.6499351e-20)
(42.491466 8.886348 0)
(43.051346 8.8094354 -2.4298946e-19)
(43.655336 8.7077035 5.0075731e-19)
(44.285295 8.5955581 -5.1609881e-20)
(44.961298 8.4896948 -9.3107364e-20)
(45.618528 8.3191918 1.6535606e-19)
(46.274371 8.0376104 -2.9337883e-19)
(46.91495 7.6971729 8.2765139e-24)
(47.515356 7.2300357 -1.1498787e-19)
(48.053458 6.7278842 4.0656166e-19)
(48.545907 6.1659469 0)
(48.970841 5.6062497 0)
(49.321028 5.0288194 6.9979192e-20)
(49.584139 4.4396332 -7.0284391e-24)
(49.786062 3.8716894 -2.7240466e-20)
(49.965064 3.3503991 -2.4068676e-20)
(50.102285 2.8477917 -3.3903982e-19)
(50.187593 2.3747373 0)
(50.244167 1.9154656 0)
(50.278758 1.4840609 -4.5785201e-19)
(50.300968 1.0589099 -1.6410144e-18)
(50.316914 0.63795353 -7.2934129e-19)
(50.319848 0.21831541 0)
(40.903166 6.4679042 0)
(41.073235 6.5431262 1.2096036e-20)
(41.264089 6.6437939 -4.1111487e-19)
(41.476318 6.7496083 4.3556582e-23)
(41.695444 6.8720257 3.8266082e-19)
(41.930757 6.9985907 -2.1014392e-20)
(42.197332 7.0973758 3.9057785e-20)
(42.454656 7.2013828 3.5731724e-20)
(42.695011 7.5423499 0)
(43.087931 7.6808308 5.6122187e-20)
(43.613366 7.6534378 -4.8745348e-20)
(44.15389 7.5854206 1.7710951e-19)
(44.751746 7.4515807 -3.2527845e-19)
(45.36066 7.4177815 1.4656307e-19)
(45.944653 7.2586185 0)
(46.548046 7.029336 1.1489261e-19)
(47.141307 6.7262753 2.3385401e-23)
(47.688997 6.3456836 -1.795166e-19)
(48.181054 5.8732894 2.378953e-19)
(48.618128 5.3740608 6.9989728e-20)
(49.007607 4.8531111 -3.0886386e-19)
(49.311318 4.3353812 -2.1798426e-19)
(49.558893 3.7867019 0)
(49.778914 3.2999653 3.3913578e-19)
(49.94062 2.8114248 2.6170455e-19)
(50.048642 2.3529858 3.2973652e-20)
(50.126162 1.9046578 0)
(50.179835 1.4720052 0)
(50.216143 1.0527418 -5.6932201e-21)
(50.241946 0.63576682 4.9880907e-21)
(50.248975 0.21719879 0)
(41.524201 5.5412827 -8.8947106e-19)
(41.629188 5.6187759 8.430894e-19)
(41.751628 5.7073908 7.8762627e-19)
(41.896553 5.7995736 -7.2680204e-19)
(42.069257 5.8957232 -6.8434948e-19)
(42.277103 5.9966435 6.4787256e-19)
(42.534192 6.0999624 -6.0744779e-19)
(42.855377 6.1933649 5.1674033e-19)
(43.188948 6.2861102 -4.6175675e-19)
(43.491127 6.351464 -5.170422e-20)
(43.784869 6.47867 4.0312562e-19)
(44.162342 6.7292063 3.5831278e-19)
(44.660278 6.5774819 -4.1866069e-19)
(45.207069 6.4379813 0)
(45.733838 6.4279011 2.2933459e-19)
(46.256629 6.2890975 -4.0621046e-19)
(46.825533 6.0939074 8.977957e-20)
(47.370071 5.8806638 0)
(47.858169 5.5091925 -2.0992527e-19)
(48.285646 5.0955693 1.2957845e-23)
(48.687917 4.6477902 4.3596924e-19)
(49.026835 4.162837 2.4034125e-19)
(49.31413 3.6806389 4.239705e-20)
(49.5786 3.2304457 -3.7395399e-19)
(49.765014 2.7674 2.9680281e-19)
(49.895923 2.3176666 2.0357713e-19)
(49.995093 1.877245 1.2823913e-20)
(50.069686 1.4589776 3.7320643e-19)
(50.122149 1.0442311 6.483135e-19)
(50.158548 0.6296433 5.542933e-19)
(50.170281 0.21593807 0)
(42.264733 4.6219368 -6.5350474e-21)
(42.363706 4.6905514 -2.4076432e-20)
(42.477079 4.7697086 -7.2418548e-19)
(42.605427 4.8532152 1.3451824e-18)
(42.748671 4.9422071 -1.2367541e-18)
(42.905894 5.0365879 5.8141777e-19)
(43.0735 5.1342108 0)
(43.249484 5.2333368 0)
(43.452845 5.3299772 -2.5775733e-20)
(43.716389 5.4132108 4.6069426e-20)
(44.042828 5.5315058 2.8734209e-19)
(44.403378 5.4479986 -6.2032333e-19)
(44.680523 5.8573911 3.1409638e-19)
(45.125093 5.6423814 0)
(45.607146 5.5696601 0)
(46.076387 5.5210774 0)
(46.587129 5.3997207 -1.5844158e-19)
(47.09959 5.30608 2.0990988e-19)
(47.571041 5.0632139 0)
(47.99826 4.7547462 -1.0897981e-19)
(48.392176 4.3717384 9.6156901e-20)
(48.740373 3.9680287 -3.3918231e-19)
(49.057327 3.5321361 1.4956779e-19)
(49.359905 3.1319975 -9.8963516e-20)
(49.575623 2.6952533 -2.0353489e-19)
(49.730003 2.2715432 -2.0513272e-19)
(49.851603 1.8467243 3.3922083e-19)
(49.948141 1.4338314 -2.9913733e-19)
(50.017977 1.0282665 0)
(50.065958 0.62397474 -4.9647199e-19)
(50.08322 0.21340882 0)
(42.850813 3.906889 7.6346068e-19)
(42.91571 3.9644931 2.9033712e-24)
(42.990799 4.0294368 1.0152449e-20)
(43.078584 4.0969829 0)
(43.182516 4.168686 -1.7232094e-20)
(43.306984 4.2452204 5.0165348e-19)
(43.458168 4.3267676 -4.5358021e-19)
(43.641938 4.4133706 0)
(43.854855 4.5039316 2.2847274e-20)
(44.084023 4.5994512 3.4675574e-19)
(44.312304 4.6715441 3.628241e-20)
(44.561955 4.795821 -5.1614285e-19)
(44.88113 4.6995517 5.723508e-20)
(45.143687 5.0114707 1.9718048e-19)
(45.555135 4.8791846 0)
(45.969099 4.859558 0)
(46.419704 4.6924712 -6.9179334e-20)
(46.891446 4.6728323 1.0155207e-23)
(47.322358 4.5189594 1.0892089e-19)
(47.752134 4.3423204 -2.0378565e-23)
(48.133493 4.0686576 -2.5431968e-19)
(48.478301 3.7120374 7.476228e-20)
(48.810926 3.3588058 6.594533e-20)
(49.129984 3.0009142 2.907213e-19)
(49.372469 2.6046201 -5.8097097e-24)
(49.554119 2.2027218 -2.2611511e-20)
(49.698366 1.7946124 -6.3799031e-19)
(49.815968 1.4026133 -1.7583292e-20)
(49.90274 1.00837 0)
(49.963357 0.6123246 0)
(49.987257 0.21018498 0)
(43.501142 3.2068639 1.3631348e-18)
(43.560054 3.2566461 1.2557725e-18)
(43.627587 3.3129446 -1.1717207e-18)
(43.704535 3.3722454 1.0737131e-18)
(43.791625 3.4363686 -9.6768492e-19)
(43.889388 3.5062839 8.7921987e-19)
(43.997487 3.5815306 -8.0636153e-19)
(44.115293 3.6605023 0)
(44.246933 3.7413599 0)
(44.403955 3.8211844 5.5937031e-19)
(44.600904 3.9049351 -4.8146725e-19)
(44.823076 3.9760314 0)
(45.055212 4.0823425 -5.0498884e-20)
(45.325401 4.0986469 0)
(45.597373 4.2282337 0)
(45.934349 4.3523607 -6.8144748e-20)
(46.291899 4.1913681 2.9806258e-19)
(46.682909 4.0126886 -4.2989693e-19)
(47.107948 3.9308153 -9.5572984e-20)
(47.532521 3.8698989 2.5426198e-19)
(47.903211 3.6861825 -2.5805909e-23)
(48.249831 3.4406798 -6.5929693e-20)
(48.602428 3.1467006 0)
(48.909048 2.8385476 0)
(49.163238 2.4763665 0)
(49.371455 2.1124641 0)
(49.536529 1.7337989 3.1635154e-19)
(49.673684 1.3543475 -1.5501787e-20)
(49.777013 0.97851832 -1.3671015e-20)
(49.849841 0.59777644 -6.0290661e-21)
(49.881575 0.20589951 3.4567312e-19)
(44.03264 2.6322845 1.2163308e-18)
(44.071472 2.6735398 -1.1172775e-18)
(44.116344 2.7193984 8.1172153e-21)
(44.16851 2.7673041 9.6437449e-19)
(44.229717 2.8190394 -8.7375784e-19)
(44.302207 2.8755037 7.9207034e-19)
(44.388758 2.9367131 -1.4277983e-18)
(44.492824 3.0026403 -1.997592e-20)
(44.616465 3.0731941 5.5459877e-19)
(44.757792 3.1477918 0)
(44.913608 3.2234718 -4.8183081e-19)
(45.094204 3.2954721 2.5186538e-20)
(45.301529 3.3662524 3.7876007e-19)
(45.518342 3.4044956 -3.1541623e-19)
(45.743625 3.5219026 2.4404375e-19)
(46.027007 3.3473183 1.9615006e-24)
(46.268616 3.7375509 2.1285506e-19)
(46.566283 3.5564003 -2.322153e-19)
(46.930063 3.3872731 3.311449e-19)
(47.321765 3.3626125 -7.4354261e-20)
(47.686861 3.2564604 6.590003e-20)
(48.048865 3.1202916 1.6540131e-23)
(48.425204 2.9161748 1.0251151e-19)
(48.712466 2.6410457 0)
(48.955854 2.3194193 -1.5940818e-19)
(49.1814 1.9919137 1.4056545e-19)
(49.366583 1.6473413 3.0986017e-20)
(49.521654 1.2963074 -2.7328495e-20)
(49.640754 0.94105387 1.205052e-20)
(49.725137 0.57752495 3.2420936e-19)
(49.765209 0.19912664 -2.9531645e-19)
(44.596397 2.0965663 2.1858891e-18)
(44.630768 2.1315355 -1.988163e-18)
(44.670178 2.1702362 -1.4422008e-20)
(44.715148 2.2109473 -6.6319029e-21)
(44.766161 2.2553429 -6.0473954e-21)
(44.823568 2.3042608 1.4135209e-18)
(44.88765 2.3578086 -4.8683364e-23)
(44.95849 2.4156233 -1.1238831e-18)
(45.036939 2.4770116 2.99182e-24)
(45.126741 2.5412366 0)
(45.233973 2.6075619 -2.5018963e-20)
(45.36207 2.6775539 -4.4383297e-20)
(45.519258 2.7393097 -1.9655601e-20)
(45.709335 2.8234219 2.7820835e-19)
(45.904293 2.8466438 -2.4595901e-19)
(46.093754 3.0286772 2.7160007e-20)
(46.347764 2.8579877 0)
(46.552668 3.1605797 -4.1512257e-20)
(46.855039 2.9994356 -7.205826e-20)
(47.173648 2.8968799 -6.471219e-20)
(47.515668 2.7815164 0)
(47.869761 2.7637113 -1.0246949e-19)
(48.237576 2.6183941 0)
(48.5216 2.4169516 0)
(48.750192 2.1363374 1.4050726e-19)
(48.983226 1.8439554 -2.4780924e-19)
(49.187008 1.5403445 1.0926802e-19)
(49.361216 1.2225601 0)
(49.494169 0.89046275 -1.8059387e-19)
(49.589421 0.54959492 -2.9045031e-19)
(49.637868 0.19101988 0)
(45.066641 1.6651495 -1.947971e-18)
(45.087762 1.6934021 3.4527229e-21)
(45.112193 1.7243606 1.280424e-20)
(45.140614 1.7568927 1.5049703e-18)
(45.173986 1.7924754 -1.3656149e-18)
(45.213605 1.8319093 -2.0993051e-24)
(45.261074 1.875401 0)
(45.318325 1.9230759 1.5641427e-24)
(45.387392 1.9751567 8.9303191e-19)
(45.469341 2.0317298 -7.8272599e-19)
(45.563616 2.0924978 2.2076354e-20)
(45.669117 2.1550044 1.9577814e-20)
(45.784533 2.222079 0)
(45.917212 2.271719 0)
(46.079321 2.3335994 4.8797493e-19)
(46.249242 2.3292121 2.3907828e-20)
(46.422953 2.4440105 -3.3712642e-19)
(46.674541 2.2558295 3.7277732e-19)
(46.872913 2.5562283 -2.2411177e-19)
(47.118122 2.5029429 -5.6426334e-20)
(47.41994 2.3749196 0)
(47.734363 2.4140312 -9.0312655e-20)
(48.011927 2.2654598 7.9557119e-20)
(48.297694 2.1210115 -8.4107889e-24)
(48.547061 1.9165039 -6.1940461e-20)
(48.78743 1.6684524 1.0922019e-19)
(49.001948 1.4060246 -9.6312427e-20)
(49.193317 1.1271443 -1.6988781e-19)
(49.339496 0.83075959 1.871392e-20)
(49.443707 0.5150002 -2.4779052e-20)
(49.500179 0.17902233 7.2852835e-21)
(45.533579 1.2461037 -1.7244762e-18)
(45.553515 1.2684808 -6.0986587e-21)
(45.57642 1.2928269 1.444488e-18)
(45.602651 1.3184966 0)
(45.632585 1.3467149 -1.2115108e-18)
(45.666564 1.378106 -8.5409558e-21)
(45.704862 1.4128433 2.2010283e-23)
(45.74766 1.450971 1.7730793e-18)
(45.795238 1.4924274 -2.1553398e-23)
(45.848758 1.5369785 -7.1263361e-19)
(45.910914 1.5842912 0)
(45.9854 1.634826 0)
(46.074909 1.6872514 0)
(46.178822 1.7499472 0)
(46.301878 1.8107933 -2.3907448e-20)
(46.451358 1.8955142 3.3782535e-19)
(46.61164 1.926993 -2.6018519e-19)
(46.776919 2.0741469 -2.9582274e-19)
(46.954297 2.0580607 2.0122635e-19)
(47.120021 2.1759801 -3.0275193e-25)
(47.371326 2.0810568 0)
(47.630522 2.012317 1.5924254e-19)
(47.860597 1.9306975 -1.4029557e-19)
(48.096598 1.7740991 6.1842425e-20)
(48.359183 1.6518152 0)
(48.608974 1.4620873 -1.4443673e-19)
(48.828095 1.252214 4.2457449e-20)
(49.022556 1.0116019 1.8718771e-19)
(49.179943 0.75384227 9.905048e-20)
(49.290548 0.4708181 0)
(49.353332 0.16477036 -2.0551825e-19)
(45.895891 0.96733111 0)
(45.905745 0.98464774 2.7053367e-21)
(45.917143 1.0033739 0)
(45.930462 1.023205 0)
(45.946286 1.0450986 -4.1793762e-21)
(45.965475 1.0695311 -1.9348399e-18)
(45.98919 1.0966192 1.7401415e-18)
(46.018759 1.126321 6.0862513e-21)
(46.054891 1.1590715 1.0865014e-20)
(46.098612 1.1952809 -1.2280551e-18)
(46.151762 1.2347899 2.1984668e-18)
(46.215667 1.2773307 -9.7459057e-19)
(46.291525 1.3226608 0)
(46.379208 1.3661682 0)
(46.475856 1.4067169 0)
(46.580509 1.430274 0)
(46.701662 1.4832919 -1.6436506e-20)
(46.850267 1.4322826 2.6105302e-19)
(46.986841 1.5005813 -2.5609033e-20)
(47.179892 1.3718715 -1.580138e-19)
(47.368222 1.5532958 1.592459e-19)
(47.581397 1.4901577 -2.8078911e-19)
(47.789045 1.4950348 2.476607e-19)
(47.995255 1.4346644 -1.0919364e-19)
(48.223859 1.3500686 1.4440635e-19)
(48.460446 1.2263729 8.488355e-20)
(48.675094 1.0765558 0)
(48.858681 0.88164145 3.3005184e-20)
(49.01905 0.66471853 -2.2146799e-24)
(49.132466 0.42019219 -1.283857e-19)
(49.198597 0.14624809 1.811669e-19)
(46.257435 0.66696396 -2.709918e-18)
(46.269936 0.6799501 2.4457402e-18)
(46.284018 0.69388941 0)
(46.29973 0.70874178 0)
(46.317075 0.7252713 7.3761372e-21)
(46.336018 0.74385627 0)
(46.35657 0.76464823 0)
(46.379059 0.78781784 -1.3797813e-18)
(46.404655 0.81311174 1.2265079e-18)
(46.43396 0.84027501 -1.2105588e-24)
(46.466084 0.86932059 7.5729541e-21)
(46.499938 0.89964515 0)
(46.535063 0.92996738 0)
(46.573807 0.96024791 0)
(46.623142 0.99250407 0)
(46.693651 1.0322206 0)
(46.786983 1.0575949 -1.4491869e-20)
(46.90489 1.1240153 -1.278901e-20)
(47.060277 1.123804 -3.158737e-19)
(47.200309 1.2225795 6.3685204e-19)
(47.354616 1.1906665 -3.1217899e-19)
(47.52084 1.1173566 -3.0577316e-20)
(47.728163 1.1283602 -1.0837532e-19)
(47.934074 1.13756 9.6272172e-20)
(48.136049 1.092363 -4.2438982e-20)
(48.331609 1.0063415 -7.4841325e-20)
(48.530538 0.89200943 5.7764414e-24)
(48.70399 0.74214628 5.8204305e-20)
(48.85674 0.56345476 2.5668046e-20)
(48.971372 0.35968812 1.1318392e-19)
(49.038767 0.12654377 7.9870969e-20)
(46.504316 0.54495839 -2.3926313e-18)
(46.510515 0.55469041 2.1560252e-18)
(46.51782 0.56500663 -1.9489178e-21)
(46.526417 0.57597747 1.8296649e-18)
(46.536562 0.58814032 -1.6676997e-18)
(46.548571 0.60178139 -1.5074046e-18)
(46.562792 0.61707073 1.1713413e-23)
(46.579561 0.63421283 2.4224817e-18)
(46.599227 0.65346604 -1.0808381e-18)
(46.62233 0.67510944 -3.7579626e-21)
(46.649755 0.69947326 -7.6048314e-25)
(46.682756 0.72706201 5.9156881e-21)
(46.722724 0.75902241 0)
(46.770975 0.7964657 9.2681074e-21)
(46.827623 0.84012403 -5.2441516e-19)
(46.893466 0.87972796 4.5593952e-19)
(46.965361 0.92488618 0)
(47.041829 0.95559005 -3.7208187e-19)
(47.141663 0.9817438 2.9842924e-19)
(47.250956 0.96291185 1.7548211e-20)
(47.345067 1.0417286 1.5313822e-20)
(47.483894 1.0301272 2.7005439e-20)
(47.639569 0.92337756 0)
(47.827582 0.88283542 1.6880996e-19)
(48.025279 0.87438309 -1.8681542e-19)
(48.202649 0.79710773 -3.2997948e-20)
(48.382089 0.70648935 -5.8190715e-20)
(48.549358 0.59665886 0)
(48.693971 0.45391076 4.1292543e-24)
(48.809701 0.29101205 -7.9845104e-20)
(48.878204 0.10252506 6.4220474e-24)
(46.77748 0.33876143 -4.2315929e-18)