/*--------------------------------*- C++ -*----------------------------------*\
| =========                 |                                                 |
| \\      /  F ield         | OpenFOAM: The Open Source CFD Toolbox           |
|  \\    /   O peration     | Version:  2406                                  |
|   \\  /    A nd           | Website:  www.openfoam.com                      |
|    \\/     M anipulation  |                                                 |
\*---------------------------------------------------------------------------*/
FoamFile
{
    version     2.0;
    format      ascii;
    arch        "LSB;label=32;scalar=64";
    class       volScalarField;
    location    "0.011";
    object      Ma;
}
// * * * * * * * * * * * * * * * * * * * * * * * * * * * * * * * * * * * * * //

dimensions      [0 0 0 0 0 0 0];

internalField   nonuniform List<scalar> 
35803
(
0.15724522
0.15830178
0.15932774
0.1603896
0.16143187
0.16244197
0.16340627
0.16432865
0.16537618
0.16664176
0.16816388
0.16972599
0.17141317
0.17319261
0.17500589
0.17648371
0.17698991
0.17547853
0.17167465
0.16861579
0.1669375
0.16570517
0.1644861
0.16314495
0.16142312
0.16079581
0.15948144
0.15895229
0.15785278
0.1573724
0.1502454
0.15436603
0.15554097
0.15679367
0.15806617
0.1593374
0.16059531
0.16183203
0.16305729
0.16436437
0.16583373
0.16747844
0.1691768
0.17097055
0.17282415
0.17467832
0.17615329
0.17659429
0.17496586
0.17115899
0.16827634
0.16671115
0.16552969
0.16434255
0.16302572
0.16130771
0.16070343
0.15941271
0.15891486
0.15780936
0.15734332
0.1502349
0.15065992
0.15204265
0.15360045
0.15517995
0.15675673
0.15832442
0.15987704
0.16142528
0.16302199
0.16473443
0.16656663
0.16843507
0.17036305
0.17231394
0.1742276
0.17571583
0.17610956
0.17437245
0.17059553
0.16791968
0.166467
0.16533904
0.16418877
0.16290283
0.16115889
0.16058754
0.15934004
0.15886785
0.15776814
0.15731211
0.15022468
0.14685164
0.14843483
0.15024419
0.15210661
0.15398159
0.15585873
0.15773037
0.15959829
0.16149477
0.1634653
0.16551288
0.16756985
0.16964807
0.17170905
0.17368823
0.17518652
0.17552316
0.17366687
0.169948
0.1675116
0.16618215
0.16511523
0.16400719
0.16275415
0.1609689
0.1604511
0.15927492
0.15880818
0.15772762
0.15727657
0.15020937
0.14305198
0.14481051
0.14682077
0.1489231
0.15106909
0.15323958
0.15542092
0.15760479
0.15980326
0.16203991
0.16431429
0.16657303
0.16881473
0.17099681
0.17304629
0.17454894
0.17481194
0.17282416
0.16920807
0.16705315
0.16585553
0.16485801
0.16379952
0.16258325
0.16079431
0.16031437
0.15922591
0.15873876
0.15768076
0.1572357
0.15018912
0.13936711
0.14125947
0.14341918
0.14570971
0.14808323
0.1505131
0.15297794
0.15545882
0.15794912
0.16045196
0.16295898
0.16542756
0.16784236
0.17015413
0.17227715
0.17377654
0.17394445
0.17181788
0.16837093
0.16653651
0.1654804
0.16456117
0.16356011
0.16238367
0.16063335
0.16017727
0.15915853
0.15865723
0.15761121
0.15718876
0.15016261
0.13592264
0.13789785
0.14015221
0.14257364
0.14511873
0.14775643
0.15045895
0.15319844
0.1559531
0.15870803
0.16144402
0.16412197
0.16671279
0.16915744
0.17135239
0.17283615
0.17288039
0.17061354
0.16743971
0.16595453
0.16505027
0.16421964
0.16328475
0.16215307
0.16047886
0.16003007
0.15903625
0.15856388
0.15753057
0.15713464
0.15012899
0.13282002
0.13485873
0.13716148
0.13965188
0.14229995
0.14507601
0.14794996
0.15088863
0.15385956
0.15683318
0.15977819
0.16265194
0.16541101
0.1679826
0.17023854
0.171687
0.17156806
0.16916255
0.16642751
0.16529722
0.16455723
0.16382776
0.1629673
0.16188651
0.16031792
0.15986763
0.15890747
0.15845495
0.15743605
0.15707137
0.1500887
0.13031292
0.1323437
0.13462428
0.13710512
0.13977007
0.1425962
0.1455554
0.14861306
0.15173048
0.15486734
0.15798059
0.16101908
0.16392362
0.16660285
0.16889541
0.17027432
0.16993554
0.16745094
0.16535219
0.16455437
0.16399246
0.16337984
0.16260185
0.16157956
0.16014327
0.15969646
0.15877152
0.15832964
0.15732811
0.1569957
0.15004447
0.12852727
0.13047102
0.13265526
0.13504844
0.13764451
0.14042881
0.14337834
0.146461
0.14963698
0.15286024
0.15607843
0.15922963
0.16223732
0.16498592
0.16727008
0.16851345
0.16788843
0.16553232
0.16421478
0.16371759
0.16334693
0.16286863
0.16218228
0.16122692
0.15989329
0.15948792
0.15862468
0.15818685
0.15720696
0.15690171
0.15000237
0.12745719
0.1292678
0.13130526
0.13354918
0.13600172
0.13865763
0.14150223
0.14450992
0.14764487
0.15086075
0.15409973
0.15728933
0.16033413
0.163087
0.16528117
0.16627654
0.165317
0.16351806
0.16299276
0.16277952
0.16261187
0.16228403
0.16170145
0.160824
0.15959139
0.15921478
0.15845553
0.15802182
0.15707104
0.15680251
0.14996053
0.12706097
0.12869994
0.13055596
0.13260855
0.13485902
0.13731061
0.13996144
0.14279697
0.14578946
0.14889619
0.1520571
0.15518995
0.15817782
0.16083085
0.16279346
0.16335885
0.16233103
0.16158718
0.16166983
0.16173601
0.16177895
0.16161402
0.16114945
0.16036644
0.15924423
0.15890787
0.15825635
0.15782987
0.15691311
0.15669168
0.14991769
0.1273518
0.12873551
0.13032312
0.13210861
0.13409619
0.1362869
0.1386808
0.14127118
0.14403714
0.14693971
0.14991763
0.15287827
0.1556771
0.15806207
0.15955376
0.15964008
0.15940936
0.15971855
0.16024821
0.16059084
0.16084879
0.16084484
0.16051415
0.15984836
0.15884216
0.15854306
0.15802463
0.15760766
0.15672825
0.15655551
0.14987357
0.12794935
0.1291039
0.13042801
0.13191683
0.1335882
0.13546084
0.13754179
0.13982437
0.1422852
0.1448821
0.14754688
0.15016981
0.15257455
0.15447181
0.15543807
0.15581154
0.15684063
0.15790709
0.15874027
0.15934898
0.15981184
0.15998461
0.15978684
0.15926003
0.15838651
0.15812536
0.15774003
0.1573489
0.1565097
0.15639528
0.14982645
0.12848233
0.12940309
0.13048946
0.1317331
0.1331298
0.13468449
0.13640529
0.13829436
0.14033799
0.14250008
0.14471653
0.14686669
0.1487699
0.15019108
0.1513506
0.15297358
0.15471897
0.15605484
0.15717129
0.15803766
0.15870366
0.15902437
0.15897663
0.15859083
0.15786995
0.15765324
0.15740239
0.15705131
0.15625147
0.15620779
0.14977258
0.12838636
0.12898143
0.12972764
0.13065205
0.1317773
0.13309086
0.13454817
0.13618071
0.13789257
0.13966401
0.14144663
0.1432417
0.14502928
0.14679403
0.14886621
0.15090508
0.1526905
0.15424185
0.15556711
0.15667704
0.15753649
0.15800961
0.15808272
0.15784394
0.15728522
0.15713553
0.15701643
0.15671091
0.15595267
0.15598708
0.14970353
0.12937059
0.12981234
0.13031939
0.13089419
0.13156442
0.13239394
0.13341706
0.13463596
0.13603237
0.1375194
0.13910418
0.14084824
0.14272511
0.14483257
0.14710972
0.14906983
0.15088803
0.15250758
0.15399752
0.15529925
0.15633059
0.15693514
0.1571284
0.15704256
0.15662724
0.15656341
0.15657445
0.15632051
0.15561291
0.15572741
0.1495834
0.1313546
0.13175893
0.13222037
0.13273811
0.13330913
0.1339221
0.13454903
0.1351788
0.13591122
0.13696629
0.13829729
0.1398458
0.14146433
0.14332617
0.1453178
0.14745829
0.1493075
0.15094878
0.15251149
0.15394256
0.15507856
0.15579212
0.15614773
0.15620057
0.15589423
0.15593556
0.15608246
0.15588192
0.15523116
0.15542503
0.14956185
0.13265856
0.13295635
0.13330823
0.13372674
0.13422894
0.1348405
0.13558955
0.13646467
0.13732369
0.13814513
0.13906954
0.13998685
0.14113238
0.14265832
0.14424101
0.14593508
0.14779069
0.14957395
0.1511752
0.15262449
0.15379893
0.15459914
0.15514623
0.15531182
0.15510134
0.15525179
0.15553724
0.15540316
0.15480357
0.15506921
0.14943201
0.13520101
0.13541851
0.13566769
0.13594976
0.13626592
0.1366155
0.13699989
0.13743364
0.13795851
0.1386207
0.1394616
0.14059219
0.14174563
0.14263816
0.14379194
0.14510052
0.14657564
0.14828321
0.14996615
0.15142516
0.15259866
0.15340546
0.15411264
0.15438327
0.15426988
0.15452073
0.15494797
0.15488475
0.15433053
0.15467441
0.14939928
0.13677298
0.13694307
0.13714392
0.13738097
0.13766315
0.13800149
0.13840698
0.13888594
0.13943491
0.1400418
0.14068561
0.14132191
0.14202977
0.14300141
0.14387452
0.1448472
0.14595946
0.14732429
0.1488277
0.15034152
0.15161964
0.15232658
0.15308331
0.15347848
0.15342971
0.15377764
0.1543217
0.15432858
0.15382276
0.15429495
0.1492722
0.1391286
0.13924745
0.13938368
0.13953828
0.13971215
0.13990563
0.14011984
0.14035875
0.14063287
0.14096298
0.1413833
0.14194089
0.14261156
0.14327091
0.14415421
0.14503766
0.14580067
0.1468243
0.14791566
0.149252
0.1507287
0.15150028
0.1521804
0.1526249
0.15263586
0.15300849
0.15365699
0.15374986
0.15329261
0.15385511
0.14921969
0.14059471
0.14068443
0.1407907
0.14091694
0.14106758
0.14124813
0.14146504
0.14172466
0.14203087
0.14238137
0.14276346
0.1431514
0.14355317
0.1440593
0.14457972
0.14515779
0.14605894
0.14671716
0.14745926
0.14841492
0.1495669
0.15069649
0.15143306
0.15183144
0.15187507
0.15224543
0.15293115
0.15313566
0.15272942
0.15310997
0.14916809
0.14278449
0.14284363
0.14291026
0.14298412
0.1430656
0.14315504
0.14325273
0.1433597
0.14347978
0.14362262
0.14380766
0.14406789
0.14441701
0.1448035
0.14526813
0.14580955
0.14627102
0.14689233
0.14735211
0.14805471
0.14884854
0.1497453
0.15057446
0.15105153
0.15109837
0.1514858
0.15216973
0.15246122
0.15212032
0.15266741
0.14910305
0.14403209
0.14407772
0.1441325
0.14419851
0.14427864
0.14437639
0.14449599
0.14464204
0.14481827
0.14502406
0.14524989
0.14547467
0.14568645
0.14591062
0.14612238
0.14631187
0.14665499
0.14699321
0.14761781
0.14803464
0.14857258
0.14927623
0.1497824
0.15022067
0.15032378
0.1507099
0.15142157
0.15174496
0.15146621
0.15197087
0.14893114
0.14574461
0.14576878
0.14579626
0.14582729
0.14586216
0.14590109
0.1459439
0.14598977
0.14603776
0.14608963
0.14615169
0.14623528
0.1463523
0.14650499
0.14671705
0.14698391
0.14720646
0.14756097
0.14787529
0.14829062
0.1486749
0.14916399
0.14940839
0.1497543
0.14971397
0.14990113
0.15074179
0.15105396
0.150847
0.15134098
0.14883818
0.14671114
0.14672316
0.14673801
0.14675604
0.14677793
0.14680457
0.14683729
0.14687827
0.14693147
0.14700347
0.14709396
0.14719426
0.14729206
0.14738069
0.14745901
0.14756263
0.14772989
0.14788981
0.14811069
0.14838516
0.14877369
0.14914978
0.14921958
0.14949841
0.1493745
0.14918852
0.1501167
0.15041078
0.15028127
0.15077872
0.14878447
0.14794487
0.14794839
0.1479522
0.14795621
0.14796077
0.1479663
0.14797319
0.14798139
0.14798926
0.14799188
0.14798901
0.14798422
0.1479868
0.14800791
0.14804669
0.14810211
0.14818063
0.14831315
0.14847672
0.14870987
0.14881435
0.14894146
0.14894548
0.14929235
0.14915048
0.14861745
0.14948842
0.1498008
0.14973314
0.15018571
0.14872224
0.14864498
0.14864679
0.14864799
0.14864703
0.14864444
0.14864128
0.14863832
0.14863651
0.14863685
0.14863946
0.14864242
0.14864371
0.14864157
0.14863796
0.1486369
0.14864388
0.14866277
0.14869763
0.14876041
0.14886757
0.14886665
0.14889711
0.14874519
0.14888311
0.14880699
0.14811728
0.14885573
0.14932663
0.14930524
0.14962605
0.1486242
0.14897877
0.14897536
0.14897155
0.14896663
0.14895941
0.14895098
0.14894246
0.14893455
0.14892814
0.1489235
0.14892029
0.14891629
0.14890838
0.1488945
0.14887564
0.14885577
0.14884179
0.14883389
0.14885575
0.14891563
0.14888405
0.14900388
0.1486806
0.14869949
0.14862613
0.14786602
0.14854151
0.14905483
0.14898743
0.14922381
0.14839012
0.14913868
0.14912929
0.14911914
0.14910878
0.14909884
0.14908988
0.14908245
0.14907702
0.14907385
0.14907296
0.14907435
0.14907825
0.14908484
0.14909316
0.14910156
0.14910986
0.14911771
0.14912223
0.14914661
0.14918247
0.14914627
0.14933557
0.14907481
0.14880148
0.14878399
0.14807514
0.14852028
0.1489899
0.14888903
0.14903084
0.14815456
0.016938826
0.032005632
0.058377093
0.091762613
0.11756022
0.13328721
0.14272394
0.14925289
0.15449157
0.15906145
0.16318887
0.16698313
0.17049873
0.17376248
0.17678185
0.17949559
0.18185531
0.18336973
0.18359275
0.18134862
0.1763781
0.17246163
0.16988031
0.16743276
0.16516614
0.16383113
0.16214338
0.16093531
0.15978316
0.15849517
0.15061884
0.025850653
0.047762602
0.080221181
0.11020756
0.1286331
0.13913857
0.14602664
0.15143099
0.15612149
0.16035614
0.1642403
0.16784012
0.17119213
0.17431645
0.1772132
0.17981777
0.18206311
0.1834408
0.18350932
0.1810679
0.1760531
0.1722548
0.16973689
0.16731853
0.16507657
0.16376164
0.16208379
0.16089087
0.15974268
0.15847565
0.15059095
0.037777498
0.065222684
0.09728813
0.12032212
0.1337889
0.14206592
0.14804588
0.15300766
0.15741173
0.16142394
0.16512386
0.1685663
0.17178137
0.17478675
0.17757746
0.18008626
0.18222746
0.18348331
0.18341364
0.1807952
0.17575375
0.17207011
0.16960652
0.16721447
0.1649931
0.16369595
0.16202729
0.16084792
0.15970282
0.15845036
0.15056463
0.053586735
0.084671708
0.11172874
0.12843347
0.13821278
0.1447733
0.1499702
0.15451604
0.15864456
0.16244338
0.16596714
0.16925851
0.17234214
0.17523345
0.17792213
0.18033774
0.18237438
0.18351005
0.18330919
0.18051214
0.17545592
0.17188656
0.16947414
0.16710808
0.16490788
0.16362904
0.16196992
0.16080459
0.15966295
0.15841978
0.15054026
0.073316862
0.1025091
0.12244843
0.13413138
0.14151353
0.14702387
0.15170578
0.15593191
0.15982002
0.16342109
0.1667772
0.1699228
0.17287925
0.17566011
0.17824964
0.18057382
0.18250572
0.18352751
0.18319548
0.18021786
0.17516059
0.17170705
0.16934303
0.16700263
0.16482307
0.16356231
0.16191275
0.16076134
0.15962304
0.15838665
0.15051724
0.093605089
0.11614833
0.12990163
0.13829957
0.14420486
0.14902706
0.15332125
0.15727426
0.16094204
0.1643568
0.16755211
0.1705568
0.17339033
0.17606448
0.17855793
0.18079277
0.18262113
0.18353397
0.1830687
0.17991377
0.17486901
0.17153137
0.16921283
0.1668976
0.16473826
0.16349544
0.1618555
0.16071803
0.15958305
0.15835464
0.15049486
0.10995239
0.12569945
0.13515833
0.14152262
0.14650664
0.15085308
0.15483854
0.15855036
0.16201318
0.16525089
0.16829123
0.17115965
0.17387459
0.17644587
0.17884645
0.18099429
0.18272125
0.18352979
0.1829276
0.1796008
0.1745822
0.17135948
0.16908359
0.16679318
0.16465362
0.16342858
0.16179827
0.16067473
0.159543
0.15832529
0.15047843
0.12161287
0.13218
0.13901325
0.14416945
0.14856216
0.15255469
0.1562779
0.15976853
0.16303753
0.16610529
0.16899553
0.171732
0.17433253
0.17680466
0.17911554
0.18117885
0.18280758
0.1835175
0.18277083
0.17927994
0.17430091
0.17119113
0.16895528
0.16668936
0.16456912
0.1633617
0.16174106
0.16063142
0.15950292
0.15829778
0.1504614
0.12932732
0.13671146
0.14204873
0.14647646
0.15045756
0.15416354
0.15765208
0.16093466
0.16401837
0.16692156
0.16966587
0.17227446
0.17476459
0.17714116
0.17936545
0.18134688
0.18288037
0.18349478
0.18259947
0.17895086
0.17402588
0.17102607
0.16882786
0.16658617
0.1644848
0.16329484
0.16168388
0.16058813
0.1594628
0.15827167
0.1504456
0.13460439
0.14017068
0.14462935
0.14857731
0.15224201
0.15569939
0.15896973
0.16205332
0.16495792
0.16770071
0.17030281
0.17278744
0.17517104
0.17745555
0.17959637
0.18149873
0.18293915
0.18345794
0.18241293
0.1786153
0.17375777
0.17086404
0.16870132
0.16648363
0.16440068
0.16322801
0.16162677
0.16054487
0.15942266
0.15824667
0.15043102
0.13851188
0.14303639
0.14694469
0.15054458
0.15394513
0.15717538
0.160237
0.16312779
0.16585765
0.16844341
0.17090679
0.17327126
0.17555212
0.17774802
0.1798085
0.1816346
0.18298322
0.18340826
0.18221233
0.17827579
0.17349694
0.17070478
0.16857565
0.16638176
0.16431678
0.16316124
0.16156973
0.16050165
0.15938252
0.15822253
0.15041756
0.14168087
0.14557687
0.14910286
0.15242242
0.15558633
0.15860054
0.1614584
0.16416053
0.16671862
0.16915017
0.17147818
0.17372623
0.17590806
0.17801872
0.18000203
0.18175421
0.18301203
0.18334584
0.18199835
0.17793518
0.17324341
0.17054805
0.16845083
0.16628058
0.16423313
0.16309453
0.16151277
0.1604585
0.15934239
0.158199
0.1504051
0.14446462
0.14793765
0.15116516
0.15423833
0.15717864
0.15998101
0.16263742
0.16515323
0.16754144
0.16982133
0.17201729
0.17415258
0.17623903
0.17826783
0.18017712
0.18185711
0.18302664
0.18327169
0.18177233
0.17759419
0.1729971
0.17039362
0.16832689
0.16618011
0.16414974
0.16302792
0.16145593
0.16041542
0.15930227
0.1581761
0.15039358
0.14704978
0.15020069
0.15316946
0.15601044
0.15873071
0.16132094
0.1637765
0.16610668
0.16832641
0.17045714
0.17252433
0.17455051
0.17654521
0.17849549
0.18033394
0.18194354
0.1830275
0.18318608
0.18153514
0.17725368
0.17275789
0.1702413
0.16820381
0.16608039
0.16406662
0.16296143
0.1613992
0.16037244
0.15926219
0.15815434
0.15038292
0.14954138
0.15241474
0.15513927
0.15775013
0.16024785
0.16262296
0.16487678
0.16702116
0.16907363
0.17105772
0.17299948
0.1749202
0.17682676
0.17870185
0.18047263
0.18201323
0.18301412
0.1830897
0.1812873
0.1769147
0.17252561
0.17009091
0.16808162
0.16598141
0.16398381
0.16289506
0.16134263
0.16032956
0.15922215
0.15813335
0.15037308
0.15199809
0.15460845
0.15708874
0.15946406
0.16173269
0.16388848
0.16593845
0.16789653
0.16978301
0.17162311
0.17344283
0.17526176
0.1770838
0.17888705
0.18059332
0.18206547
0.1829867
0.1829836
0.18102908
0.17657853
0.17230002
0.16994228
0.16796032
0.16588323
0.16390132
0.16282886
0.16128621
0.16028681
0.15918216
0.15811237
0.15036396
0.15445398
0.15679864
0.15902564
0.16115514
0.16318592
0.16511762
0.16696099
0.16873229
0.1704543
0.17215323
0.17385441
0.17557528
0.17731646
0.17905122
0.18069605
0.18209975
0.18294443
0.18286801
0.18076115
0.17624588
0.17208084
0.16979527
0.16783994
0.16578584
0.16381916
0.16276285
0.16122998
0.16024419
0.15914224
0.15809127
0.15035549
0.15692828
0.15899363
0.16095243
0.16282303
0.16460665
0.16630913
0.16794326
0.16952767
0.17108711
0.17264795
0.17423422
0.17586085
0.17752483
0.1791945
0.18078036
0.18211526
0.18289113
0.18274275
0.1804844
0.17591723
0.17186781
0.16964979
0.16772049
0.16568928
0.16373735
0.16269704
0.16117395
0.16020172
0.15910239
0.15806986
0.15034764
0.15942867
0.16119423
0.16286686
0.16446452
0.16599234
0.16746073
0.16888357
0.17028164
0.17168089
0.17310702
0.1745822
0.17611849
0.17770901
0.17931701
0.1808458
0.18211551
0.1828323
0.18260792
0.1801996
0.17559329
0.17166067
0.16950571
0.167602
0.16559357
0.16365591
0.16263146
0.16111814
0.1601594
0.15906261
0.1580482
0.15034041
0.16195085
0.16339377
0.16476213
0.16607388
0.16733881
0.16856925
0.16977985
0.17099298
0.17223499
0.17353015
0.17489824
0.17634823
0.17786909
0.17941894
0.18089338
0.18210373
0.18276386
0.18246403
0.1799076
0.17527465
0.17145915
0.16936297
0.16748448
0.16549874
0.16357487
0.16256616
0.16106258
0.16011723
0.15902293
0.15802645
0.15033381
0.16447859
0.16557851
0.16662729
0.16764336
0.16864039
0.16963086
0.17062968
0.17166028
0.17274866
0.17391697
0.17518222
0.17655007
0.17800517
0.1795003
0.18092365
0.18208031
0.1826873
0.18230922
0.17960915
0.17496179
0.17126297
0.16922151
0.16736795
0.1654048
0.16349423
0.16250114
0.16100729
0.16007525
0.15898333
0.15800467
0.15032786
0.16698559
0.16772875
0.16844803
0.16916337
0.16989043
0.17064115
0.17143036
0.17228197
0.17322103
0.17426705
0.17543395
0.17672402
0.17811729
0.17956054
0.18093643
0.18204493
0.18260321
0.1821434
0.17930492
0.17465512
0.17107182
0.16908127
0.16725244
0.16531179
0.16341402
0.16243643
0.16095233
0.16003352
0.15894381
0.15798285
0.15032257
0.16943884
0.16981979
0.17020804
0.17062336
0.17108165
0.17159523
0.17217894
0.17285638
0.17365118
0.17457992
0.17565327
0.17687007
0.17820537
0.17959961
0.18093424
0.18199769
0.18251025
0.18196623
0.17899574
0.17435494
0.17088542
0.16894223
0.16713796
0.16521972
0.16333426
0.16237207
0.16089775
0.15999208
0.15890443
0.15796099
0.15031795
0.1718015
0.17182396
0.171891
0.1720125
0.17220636
0.17248767
0.17287231
0.17338176
0.17403812
0.1748551
0.17583998
0.17698805
0.17826858
0.17961813
0.18091692
0.18193795
0.1824065
0.18177651
0.17868269
0.17406157
0.17070348
0.16880437
0.16702454
0.16512861
0.16325497
0.16230807
0.16084353
0.15995083
0.15886519
0.15793908
0.15031403
0.1740432
0.17372334
0.17348017
0.17331811
0.17325606
0.17331313
0.17350719
0.17385621
0.1743808
0.17509214
0.17599383
0.17707712
0.17830529
0.17961802
0.1808837
0.18186565
0.18229272
0.18157675
0.17836702
0.17377525
0.17052571
0.16866769
0.16691219
0.16503851
0.16317617
0.16224445
0.16078951
0.15990951
0.15882596
0.15791712
0.15031081
0.17613467
0.17549742
0.17495769
0.17452641
0.17422237
0.1740677
0.17408089
0.17427751
0.17467815
0.17529058
0.17611385
0.1771338
0.1783162
0.17960046
0.18083439
0.18178085
0.18216851
0.18136691
0.17804983
0.17349614
0.17035183
0.1685322
0.16680093
0.16494942
0.16309789
0.16218122
0.16073566
0.15986803
0.15878652
0.15789512
0.15030833
0.17804622
0.17711978
0.17630798
0.17562678
0.17509899
0.17474689
0.17458912
0.17464487
0.17492864
0.17544932
0.17619704
0.17715825
0.1783079
0.17956443
0.18076925
0.18168366
0.18203388
0.18114817
0.17773268
0.17322432
0.17018162
0.16839792
0.16669077
0.16486138
0.16302013
0.16211842
0.16068212
0.15982655
0.15874679
0.15787299
0.15030657
0.17975516
0.17857287
0.17751767
0.17661029
0.17587841
0.17534581
0.17503201
0.17495539
0.17513035
0.17556453
0.17623976
0.17715815
0.17827873
0.17950808
0.18068838
0.18157424
0.18188907
0.18092159
0.17741682
0.17295978
0.17001482
0.16826488
0.16658173
0.16477442
0.16294291
0.16205603
0.16062873
0.15978506
0.15870681
0.15785088
0.15030521
0.18124385
0.17984221
0.17857507
0.17746835
0.17655461
0.17586045
0.17540513
0.17520587
0.1752782
0.17562758
0.17624881
0.17713523
0.17822528
0.17943168
0.18059184
0.18145283
0.1817344
0.18068812
0.17710329
0.17270239
0.1698512
0.16813311
0.16647381
0.16468851
0.16286633
0.16199405
0.16057518
0.15974355
0.15866688
0.15782885
0.15030407
0.18249729
0.18091521
0.17947014
0.17819354
0.17712172
0.17628417
0.17570149
0.17538846
0.17536117
0.17564646
0.17623425
0.17708629
0.17814757
0.17933536
0.18047968
0.18131967
0.18157025
0.1804487
0.17679299
0.17245197
0.1696906
0.16800264
0.16636704
0.16460372
0.16279041
0.16193247
0.16052096
0.1597019
0.15862778
0.15780692
0.15030308
0.18350102
0.18177856
0.18019194
0.17877722
0.17757168
0.17660435
0.17590016
0.17548321
0.17539141
0.17563958
0.17619124
0.17700769
0.1780456
0.17921909
0.18035193
0.18117482
0.18139703
0.18020425
0.17648662
0.17220836
0.16953288
0.16787352
0.16626142
0.16452006
0.16271513
0.1618713
0.16046585
0.15966014
0.15859031
0.157785
0.15030218
0.18423697
0.18241298
0.18071989
0.17919467
0.17787657
0.17679627
0.1759954
0.17551851
0.17539265
0.17560219
0.1761122
0.17689966
0.17791923
0.17908278
0.18020858
0.1810175
0.18121485
0.17995572
0.17618476
0.17197147
0.16937787
0.16774578
0.16615698
0.16443754
0.16264053
0.16181055
0.16041037
0.15961829
0.15855446
0.15776288
0.15030129
0.18467063
0.18278462
0.18102425
0.17942355
0.17802657
0.17687274
0.17602587
0.1755188
0.17535639
0.17552265
0.17599777
0.17676221
0.17776834
0.17892635
0.18004955
0.18085162
0.18102448
0.17970403
0.17588775
0.17174114
0.16922542
0.16761949
0.16605372
0.16435618
0.16256662
0.16175024
0.16035486
0.15957596
0.15851523
0.15774054
0.15030034
0.18488016
0.18296198
0.18116273
0.17951925
0.17807502
0.17689003
0.17602169
0.17547314
0.17526824
0.17539799
0.1758478
0.17659522
0.17759286
0.17874975
0.17987495
0.18067365
0.18082679
0.17945
0.17559594
0.17151716
0.16907545
0.16749468
0.16595165
0.16427598
0.16249343
0.16169038
0.16029781
0.15953159
0.15846099
0.1577186
0.15029918
0.18497248
0.18303815
0.18121634
0.17954931
0.17808023
0.17687191
0.17595758
0.17536102
0.17512226
0.17522805
0.17566181
0.17639849
0.17739273
0.17855295
0.17968514
0.18048623
0.18062195
0.17919438
0.17530964
0.17129942
0.16892783
0.16737139
0.16585081
0.16419695
0.162421
0.16163097
0.16023661
0.1594838
0.15839228
0.1576968
0.15029759
0.18486588
0.18296222
0.1811494
0.17947928
0.17800214
0.17676497
0.17580529
0.17517785
0.17491926
0.17501252
0.17543922
0.17617183
0.1771679
0.17833589
0.17948012
0.18028865
0.18041078
0.17893788
0.17502911
0.17108778
0.16878249
0.16724969
0.1657512
0.1641191
0.16234937
0.16157203
0.1601714
0.15943329
0.15833767
0.15767381
0.15029532
0.18441751
0.18260843
0.18085768
0.17922625
0.17776759
0.17652894
0.17555974
0.17492242
0.17465912
0.17475044
0.17517951
0.17591506
0.1769183
0.17809852
0.17925987
0.18008109
0.18019394
0.17868113
0.17475456
0.1708821
0.16863935
0.1671296
0.16565286
0.16404244
0.16227854
0.16151361
0.16010728
0.15938279
0.15829662
0.15765455
0.15029282
0.18366327
0.18198145
0.1803321
0.1787781
0.17737321
0.17616837
0.1752185
0.17459305
0.17434016
0.17444089
0.17488218
0.17562801
0.1766439
0.17784082
0.17902437
0.17986388
0.17997204
0.17842478
0.17448618
0.17068217
0.16849836
0.16701116
0.16555581
0.16396695
0.16220851
0.16145579
0.16004985
0.15933562
0.15826162
0.15763242
0.15029033
0.18267346
0.18113117
0.1796038
0.17815327
0.17683027
0.17568704
0.17478086
0.17418807
0.17396082
0.17408306
0.17454676
0.17531054
0.1763447
0.17756277
0.17877362
0.17963721
0.17974565
0.17816943
0.17422412
0.17048783
0.16835949
0.16689443
0.16546008
0.16389265
0.16213924
0.16139857
0.15999729
0.15929494
0.15822771
0.15760892
0.15028796
0.18146915
0.18007743
0.17868738
0.17736106
0.17614403
0.17508673
0.17424673
0.1737066
0.1735196
0.17367623
0.17417277
0.17496249
0.1760207
0.1772644
0.17850759
0.17940121
0.17951532
0.17791566
0.17396847
0.17029891
0.16822273
0.16677944
0.16536572
0.16381956
0.16207072
0.16134194
0.15994639
0.15925881
0.15819418
0.15758577
0.15028574
0.18005112
0.17882293
0.17758662
0.17640463
0.17531646
0.17436837
0.1736166
0.17314845
0.17301496
0.17321974
0.17375981
0.17458369
0.17567194
0.17694577
0.17822623
0.17915592
0.17928159
0.17766408
0.17371932
0.17011526
0.16808809
0.16666622
0.16527277
0.16374768
0.16200298
0.1612858
0.15989679
0.15922415
0.15816095
0.1575643
0.15028363
0.1784074
0.17736031
0.1762988
0.1752837
0.17434798
0.1735324
0.17289147
0.17251377
0.17244535
0.17271303
0.17330745
0.17417399
0.17529845
0.17660697
0.17792953
0.1789013
0.17904502
0.17741528
0.17347672
0.16993676
0.16795556
0.16655482
0.16518127
0.16367705
0.16193604
0.16123012
0.15984815
0.15919062
0.15812778
0.15754323
0.15028154
0.1765208
0.1756782
0.17481852
0.1739965
0.17323833
0.17257906
0.17207302
0.17180146
0.17181022
0.17215574
0.17281537
0.17373322
0.17490033
0.17624815
0.1776175
0.17863727
0.17880592
0.17716984
0.17324073
0.16976326
0.16782517
0.16644524
0.16509125
0.16360765
0.16186992
0.1611749
0.15980044
0.15915793
0.15809438
0.15752173
0.15027937
0.17438129
0.17377001
0.17314298
0.17254258
0.17198798
0.17150969
0.17116192
0.17100943
0.17111144
0.17154746
0.17228322
0.17326126
0.17447769
0.17586958
0.17729024
0.17836372
0.17856367
0.17692819
0.17301132
0.16959457
0.16769685
0.16633745
0.1650027
0.1635395
0.16180469
0.16112019
0.15975382
0.15912599
0.1580606
0.15750002
0.15027699
0.17199874
0.17164291
0.17127774
0.17092639
0.17059981
0.17032843
0.17015718
0.17013804
0.17035134
0.17088819
0.17171068
0.17275792
0.17403064
0.17547152
0.17694792
0.17808041
0.17831898
0.17669079
0.17278833
0.16943039
0.16757053
0.16623142
0.16491564
0.16347263
0.16174051
0.16106612
0.15970858
0.1590948
0.15802686
0.1574782
0.15027423
0.16940496
0.16932041
0.16923952
0.16915853
0.16908284
0.1690389
0.1690556
0.16918894
0.16953106
0.17017859
0.17109718
0.17222259
0.17355886
0.17505397
0.17659056
0.17778691
0.17807165
0.17645849
0.17257176
0.16927079
0.16744647
0.16612742
0.16483036
0.16340725
0.1616778
0.16101303
0.15966488
0.1590644
0.15799426
0.15745654
0.15027086
0.16663316
0.1668253
0.16704337
0.16724851
0.16743879
0.1676316
0.16785368
0.16815912
0.16864445
0.16941541
0.17043975
0.17165246
0.17306017
0.17461538
0.17621695
0.17748217
0.17782166
0.17623309
0.17236285
0.16911715
0.16732579
0.16602627
0.1647475
0.16334372
0.16161737
0.16096134
0.1596223
0.15903476
0.15796323
0.15743526
0.15026657
0.16368132
0.16414182
0.16466716
0.16517359
0.16564226
0.16608733
0.16653524
0.16703106
0.16766845
0.16858473
0.16973115
0.17104182
0.17253006
0.17415235
0.17582392
0.17716448
0.17756869
0.17601723
0.17216507
0.16897192
0.16720974
0.1659286
0.16466736
0.16328207
0.1615592
0.16091079
0.15957935
0.15900562
0.15793106
0.15741439
0.15026101
0.16059673
0.16119545
0.16196409
0.1627719
0.16355088
0.16429164
0.16500562
0.16572112
0.16652384
0.16762165
0.16892897
0.17035754
0.17194125
0.17364222
0.17539279
0.1768211
0.17730848
0.17581081
0.1719853
0.16883454
0.16709629
0.1658323
0.16458804
0.16322113
0.16150005
0.16085885
0.15953362
0.15897746
0.15789296
0.15739351
0.15025375
0.014722169
0.027715692
0.052139048
0.085328666
0.11290672
0.1304739
0.14100873
0.14807102
0.15357317
0.15830138
0.16255067
0.1664486
0.17005757
0.17340604
0.17650328
0.17928818
0.18172085
0.18332094
0.18365864
0.18153879
0.17661079
0.17261741
0.16999277
0.16752231
0.16524026
0.16389013
0.16219375
0.16097423
0.15982001
0.15851986
0.15064176
0.01689586
0.030029725
0.053142626
0.084623692
0.11200524
0.12983821
0.14059078
0.14776644
0.15331043
0.15805381
0.16231578
0.16623379
0.16987075
0.1732516
0.1763824
0.17919997
0.18166161
0.18329638
0.18368944
0.18163651
0.17674784
0.17271248
0.17006467
0.16758023
0.16529293
0.1639346
0.16223264
0.16100487
0.15984811
0.15853669
0.15066794
0.018512733
0.031498384
0.053575881
0.083718156
0.11097237
0.12905568
0.14003309
0.14734499
0.15295465
0.15773175
0.16202076
0.16596951
0.16964276
0.17306299
0.17623352
0.17908957
0.18158561
0.18326815
0.18371305
0.18174341
0.17689611
0.17281234
0.17013738
0.16763836
0.16534576
0.16397956
0.16227206
0.16103626
0.15987706
0.15855193
0.1506979
0.019840471
0.032516455
0.053603353
0.08256365
0.10971051
0.12812824
0.13939627
0.14687946
0.15257386
0.15739427
0.16171468
0.16569558
0.1694055
0.1728654
0.17607611
0.17897158
0.18150273
0.18323484
0.183735
0.18184984
0.177048
0.17291725
0.17021345
0.1676993
0.16540066
0.16402609
0.16231274
0.16106872
0.15990722
0.15856668
0.15072805
0.02112041
0.033532195
0.053677375
0.081436694
0.10837705
0.12714494
0.13873297
0.14640335
0.15219091
0.15705792
0.16140987
0.16542142
0.16916614
0.17266422
0.17591414
0.17884882
0.181415
0.18319663
0.18375446
0.18195281
0.17719948
0.17302424
0.17029109
0.16776172
0.16545669
0.16407351
0.16235417
0.16110183
0.15993805
0.15858204
0.15075423
0.022372122
0.034543078
0.05384839
0.080449605
0.10707676
0.12615677
0.13806321
0.14592513
0.15181009
0.15672564
0.16110879
0.1651493
0.16892676
0.17246126
0.17574916
0.17872246
0.18132336
0.18315406
0.1837703
0.18205134
0.17734916
0.17313164
0.17036873
0.16782428
0.16551293
0.16412118
0.16239591
0.16113526
0.15996917
0.15859781
0.15076089
0.023556
0.035508607
0.054071213