/*--------------------------------*- C++ -*----------------------------------*\
| =========                 |                                                 |
| \\      /  F ield         | OpenFOAM: The Open Source CFD Toolbox           |
|  \\    /   O peration     | Version:  2406                                  |
|   \\  /    A nd           | Website:  www.openfoam.com                      |
|    \\/     M anipulation  |                                                 |
\*---------------------------------------------------------------------------*/
FoamFile
{
    version     2.0;
    format      ascii;
    arch        "LSB;label=32;scalar=64";
    class       volScalarField;
    location    "0.056";
    object      Ma;
}
// * * * * * * * * * * * * * * * * * * * * * * * * * * * * * * * * * * * * * //

dimensions      [0 0 0 0 0 0 0];

internalField   nonuniform List<scalar> 
8260
(
0.14445072
0.14559539
0.1467828
0.14804268
0.14930536
0.15054949
0.15178336
0.15299831
0.15428666
0.15573715
0.15719966
0.1587001
0.16018376
0.1615098
0.16217102
0.16161977
0.15899239
0.15559488
0.1537889
0.15273305
0.15185556
0.15109915
0.15045775
0.14988136
0.14932535
0.14887303
0.14852069
0.148228
0.1479952
0.14785271
0.14775384
0.14074582
0.14224623
0.1438484
0.14546936
0.14707798
0.14866034
0.1502148
0.15174559
0.15330287
0.15492852
0.1565544
0.15817604
0.15973551
0.1610836
0.16170019
0.16102631
0.15829078
0.15504514
0.15344866
0.15248848
0.15166654
0.15094864
0.15033615
0.1497813
0.14924378
0.14880732
0.14846746
0.14818386
0.14795736
0.14781941
0.14772329
0.1364781
0.13832512
0.14036589
0.14240487
0.14440885
0.14637036
0.14828492
0.15015408
0.15200715
0.15386508
0.15568798
0.15745964
0.15911963
0.16050744
0.16110311
0.16032731
0.15750236
0.15448361
0.15309057
0.15221995
0.15145656
0.15077999
0.15019944
0.14966915
0.14915248
0.14873324
0.14840716
0.14813374
0.14791434
0.14778157
0.14768852
0.13239045
0.13452646
0.13689625
0.13928378
0.14164029
0.1439521
0.14620888
0.14840359
0.15054829
0.15265244
0.15468216
0.15661368
0.15838148
0.1598069
0.16037447
0.15947518
0.15658077
0.15385842
0.15267913
0.15190848
0.1512121
0.15058372
0.15004062
0.14953873
0.14904659
0.14864772
0.1483378
0.14807625
0.14786517
0.14773838
0.14764897
0.12860495
0.13094924
0.13354575
0.13619705
0.13884406
0.14146059
0.14402663
0.14652456
0.14894913
0.1512965
0.15353421
0.15562896
0.15750661
0.15896291
0.1594845
0.15843384
0.15551476
0.15318201
0.15221686
0.1515549
0.15093426
0.15036024
0.14985988
0.14939046
0.14892653
0.14855063
0.14825905
0.14801092
0.14780933
0.14768927
0.14760399
0.12522255
0.12769371
0.13042287
0.13324632
0.13610404
0.13895919
0.14178154
0.14454238
0.14722015
0.1497955
0.15223235
0.15448553
0.15646831
0.15794215
0.15838877
0.15716433
0.15430264
0.15244993
0.15169567
0.15115227
0.15061718
0.15010442
0.14965295
0.14922071
0.14878945
0.14843981
0.14816925
0.14793647
0.14774583
0.14763334
0.14755286
0.12234946
0.12487729
0.12765142
0.1305507
0.13352488
0.13653315
0.13953778
0.14250034
0.14538493
0.14815643
0.15076919
0.15316348
0.15523514
0.15670072
0.15702946
0.15561639
0.15297639
0.15165782
0.15111012
0.15069486
0.15025645
0.14981258
0.14941661
0.14902697
0.14863362
0.14831387
0.14806711
0.14785177
0.14767376
0.14756967
0.14749477
0.12014707
0.1226272
0.12534855
0.12822319
0.13121183
0.13427486
0.13737104
0.14045513
0.14347985
0.14639535
0.14914223
0.15164266
0.15376877
0.15518168
0.15533501
0.15373652
0.15157711
0.15079818
0.15045351
0.15017652
0.14984606
0.14947989
0.14914646
0.14880524
0.14845607
0.14817076
0.14795078
0.14775531
0.14759191
0.14749713
0.14742885
0.11864506
0.12099492
0.12358008
0.12633937
0.12924554
0.13226315
0.13535162
0.13846323
0.14154349
0.14453021
0.14734824
0.14989722
0.15201606
0.15331031
0.153217
0.15153104
0.15016952
0.14986266
0.14971994
0.1495915
0.14937987
0.14910198
0.14883852
0.14855191
0.14825393
0.14800852
0.14781846
0.1476455
0.14749889
0.14741446
0.14735407
0.11781682
0.11997971
0.12236863
0.1249396
0.12767506
0.13054976
0.13352852
0.1365656
0.13960337
0.14257015
0.14537435
0.1478876
0.14990072
0.15096925
0.15054438
0.14918644
0.14877979
0.14884043
0.14890542
0.14893395
0.14885116
0.14867405
0.14848882
0.14826347
0.14802365
0.14782443
0.14766796
0.14752033
0.14739288
0.14732015
0.14726915
0.11756303
0.1195014
0.12165126
0.12397794
0.12647426
0.12912318
0.13189922
0.13476218
0.13765398
0.14049503
0.1431763
0.14553342
0.1472876
0.14794211
0.14736674
0.14702877
0.14736678
0.14773025
0.14800967
0.14819945
0.14825088
0.14819079
0.14809359
0.14793722
0.14776172
0.14761517
0.14749687
0.14737748
0.14727182
0.14721257
0.14717244
0.11785245
0.1194883
0.12132995
0.12334942
0.12554047
0.12789272
0.13038622
0.13298333
0.13562277
0.13821377
0.1406223
0.14262927
0.14391533
0.14421116
0.14436342
0.14510126
0.14592922
0.14653926
0.14702398
0.147376
0.14757916
0.14764279
0.14764796
0.14756993
0.14746448
0.14737678
0.14730222
0.14721441
0.14713355
0.14708994
0.1470618
0.11820505
0.11953606
0.12106212
0.12275363
0.12460355
0.12660902
0.12875356
0.13099554
0.13326299
0.13545391
0.13743606
0.13899718
0.13991124
0.140689
0.14200938
0.14337011
0.14443094
0.14528065
0.14595703
0.14646954
0.1468214
0.1470276
0.14714495
0.1471558
0.14712917
0.14710557
0.14708063
0.14702891
0.14697626
0.14695044
0.14693469
0.11820385
0.11927327
0.1204961
0.12187214
0.12340118
0.1250603
0.12681766
0.12863769
0.13045493
0.13218821
0.133752
0.13516622
0.13662893
0.1384108
0.14015592
0.14165791
0.14295425
0.14398235
0.14483324
0.14548872
0.14599153
0.14633816
0.1465729
0.14669292
0.14675376
0.14679875
0.14682878
0.14681929
0.14679872
0.14679229
0.14678835
0.11794016
0.11863421
0.11951339
0.12058324
0.12186052
0.12323876
0.12466889
0.1261813
0.12777892
0.12943108
0.1311025
0.13280232
0.13474388
0.13666799
0.13840686
0.14004829
0.14149146
0.14268308
0.14367905
0.14447295
0.14510633
0.14558385
0.14593557
0.14617114
0.14633872
0.14645604
0.14654528
0.14658405
0.1466004
0.14661396
0.14662019
0.11911245
0.11963849
0.12021374
0.12084442
0.12158742
0.12252917
0.12365898
0.12496333
0.12643868
0.1280406
0.12977008
0.13150275
0.1332689
0.13501399
0.13673521
0.13842526
0.14001779
0.1413646
0.14250001
0.14343854
0.1442065
0.14478918
0.14524282
0.14559588
0.14588032
0.14608149
0.14623142
0.1463217
0.14638037
0.14641424
0.1464282
0.12051871
0.12104634
0.12164866
0.1223133
0.12300755
0.12375207
0.12457831
0.12540434
0.1262919
0.12754208
0.12907548
0.13072724
0.13231067
0.13383622
0.13538052
0.13693154
0.13850837
0.140008
0.1412736
0.14236626
0.14329763
0.14398599
0.14451943
0.1449766
0.1453839
0.14567786
0.14589025
0.14603124
0.14613629
0.14619209
0.14621132
0.12190385
0.1222399
0.12263065
0.1230878
0.12362708
0.12426891
0.12504966
0.12600517
0.12699301
0.12786998
0.12883794
0.13010992
0.13160837
0.13317224
0.13463202
0.13602685
0.13736477
0.1387545
0.14005554
0.14123914
0.14234362
0.14317902
0.14379173
0.14434403
0.14485499
0.14524156
0.14552192
0.14571258
0.14586435
0.14594632
0.14596937
0.12365649
0.12396405
0.12431665
0.12471411
0.12515625
0.12564057
0.12615784
0.12670177
0.12731811
0.12808411
0.12894069
0.129881
0.13101416
0.13236139
0.13396203
0.13545657
0.13670891
0.1379478
0.13910141
0.14020934
0.14136002
0.14234597
0.14306728
0.14371945
0.14430261
0.14476788
0.14512417
0.14536419
0.14556097
0.14567513
0.1457026
0.12514009
0.12534275
0.12557651
0.12584725
0.12616552
0.12654423
0.12700014
0.12754781
0.12817833
0.12886184
0.12956844
0.13022889
0.13093141
0.13197115
0.13312675
0.13446781
0.13594634
0.13735525
0.13852561
0.13951764
0.14051803
0.14152601
0.14232893
0.14309173
0.14374601
0.1442579
0.1446902
0.14498719
0.14522385
0.14537559
0.14541144
0.12682496
0.12700825
0.12721829
0.12745668
0.12772576
0.12802727
0.12835969
0.12872171
0.12912587
0.12960223
0.13018398
0.13089539
0.13161635
0.13217775
0.13291284
0.13394349
0.13508105
0.13634349
0.1377988
0.13897257
0.13993951
0.14082893
0.14159755
0.14244859
0.14318689
0.14372637
0.14421982
0.14458214
0.14485418
0.1450445
0.14509641
0.12824954
0.1283701
0.12850929
0.12867045
0.12885912
0.12908204
0.1293475
0.12966505
0.1300387
0.13046144
0.13092643
0.13144676
0.13209634
0.13281367
0.13338026
0.13395623
0.13481471
0.13576114
0.13687991
0.13816391
0.13935361
0.14027607
0.14095758
0.14180255
0.14262148
0.14320123
0.14372039
0.1441489
0.14445592
0.14468058
0.14475703
0.12981521
0.12992518
0.13005128
0.13019498
0.13035809
0.13054208
0.13074804
0.13097671
0.13123037
0.13151758
0.1318492
0.13221983
0.13260577
0.13310595
0.13382712
0.13448273
0.13505388
0.13563937
0.13649071
0.13745408
0.13852597
0.1396899
0.14045896
0.14122762
0.14204759
0.14269009
0.14320495
0.14368817
0.14403207
0.1442845
0.14439179
0.1310727
0.13113794
0.13121336
0.13130078
0.13140299
0.13152362
0.13166733
0.1318399
0.13204557
0.13228841
0.13257427
0.13291215
0.13330924
0.13370314
0.13410585
0.1346691
0.13532661
0.13590918
0.13642341
0.13718099
0.13799494
0.13897002
0.14000119
0.14077125
0.14146521
0.14216398
0.14268841
0.14319548
0.14358317
0.1438593
0.14399916
0.13246953
0.13253346
0.13260692
0.13269072
0.13278559
0.13289177
0.13300897
0.13313712
0.13328062
0.13344403
0.13362671
0.13382821
0.13405398
0.13434094
0.13467089
0.13500697
0.1354511
0.13609655
0.13667974
0.13716208
0.13776993
0.13847033
0.13944636
0.14031769
0.14088963
0.14159289
0.14216709
0.14268206
0.14311113
0.14341022
0.1435784
0.13347922
0.13351147
0.1335492
0.13359298
0.1336441
0.13370464
0.13377768
0.13386705
0.13397635
0.13410975
0.13427415
0.13447784
0.13472457
0.13500201
0.13531068
0.13565273
0.13597756
0.13634951
0.13680733
0.13730336
0.13771061
0.13824665
0.13900706
0.13975247
0.14036127
0.14101825
0.14164513
0.14217132
0.14262505
0.14294405
0.14313308
0.13466125
0.1346884
0.13471831
0.13475193
0.13479054
0.13483569
0.13488909
0.13495259
0.13502816
0.13511787
0.13522405
0.13534956
0.1354982
0.13567465
0.1358816
0.13610689
0.13635928
0.13665338
0.13692943
0.13731605
0.13774861
0.13821581
0.13879949
0.13933738
0.139965
0.14054828
0.14116138
0.14168203
0.14213691
0.14247076
0.14267165
0.13531462
0.13532899
0.13534652
0.13536796
0.13539419
0.13542621
0.13546505
0.13551181
0.13556764
0.13563377
0.13571165
0.13580315
0.13591128
0.13604193
0.13620163
0.13637792
0.13657223
0.1368005
0.1371232
0.13743139
0.13786005
0.13830396
0.13869252
0.13913069
0.13971779
0.140211
0.14073882
0.14123187
0.14166162
0.14200122
0.14220648
0.13601683
0.13603716
0.13605982
0.13608492
0.13611259
0.13614301
0.13617647
0.13621346
0.13625469
0.13630092
0.13635254
0.13640907
0.13646975
0.13654261
0.1366415
0.13677883
0.13695694
0.13716947
0.13741897
0.13770359
0.13798777
0.13828546
0.13860558
0.13899218
0.13943453
0.13990998
0.14036612
0.14081995
0.14122308
0.1415507
0.14175502
0.13648662
0.13649578
0.13650681
0.13652029
0.13653693
0.13655753
0.13658293
0.136614
0.1366517
0.13669728
0.1367526
0.13682058
0.13690377
0.13699591
0.13709354
0.13720371
0.13733087
0.13747888
0.1376496
0.13784626
0.13807863
0.13831879
0.13859753
0.13891768
0.13928021
0.13968416
0.14009949
0.14051016
0.1408877
0.14119652
0.14138904
0.13684496
0.1368537
0.13686422
0.13687681
0.13689183
0.13690973
0.13693093
0.13695594
0.13698536
0.13701988
0.13706026
0.13710777
0.13716618
0.13723694
0.13731462
0.13740299
0.13750555
0.13762536
0.13776789
0.13793773
0.13813775
0.13837191
0.13862337
0.13889745
0.13922265
0.1395863
0.13997273
0.14036049
0.14072219
0.14102084
0.14120656
0.079302706
0.095582852
0.10649188
0.11467463
0.12144509
0.1275973
0.13325113
0.13806836
0.14278755
0.14719064
0.15123379
0.15491769
0.15825546
0.16122758
0.16379707
0.16577874
0.16674976
0.16632925
0.1636447
0.15969193
0.15701933
0.15526246
0.1539299
0.15281886
0.1518152
0.15097063
0.15027731
0.14973607
0.14932153
0.14905059
0.14887121
0.10111075
0.10940855
0.11580365
0.12138002
0.12677874
0.13198953
0.13686284
0.14134764
0.14560326
0.14953426
0.15314423
0.15645096
0.15946455
0.16215458
0.16447176
0.16617192
0.1668394
0.16609098
0.16306433
0.15917923
0.15671522
0.15505468
0.15377014
0.15268767
0.1517053
0.15087991
0.15020302
0.14967371
0.14926782
0.14900246
0.14883008
0.10757707
0.11366218
0.11946954
0.12506052
0.13038847
0.13534078
0.1398653
0.14399908
0.14784741
0.15139384
0.15466155
0.1576704
0.16042447
0.16288488
0.16499242
0.16644625
0.16685494
0.16580485
0.16249607
0.1587601
0.15646462
0.15486807
0.15361962
0.1525622
0.15159975
0.15079205
0.15013039
0.14961212
0.14921439
0.14895439
0.14879007
0.11364242
0.11944439
0.12487068
0.12989966
0.13457648
0.13890396
0.1428769
0.14653891
0.14995192
0.15311495
0.15605147
0.15877726
0.16128696
0.16353152
0.16543582
0.1666351
0.16681271
0.1654539
0.16193118
0.15835189
0.15620513
0.15467324
0.15346338
0.15243224
0.15149064
0.15070161
0.15005604
0.1495494
0.14916023
0.14890587
0.14874529
0.12022023
0.12533646
0.13003614
0.13439655
0.13846199
0.14222339
0.14568705
0.14889517
0.1518922
0.15469161
0.15731692
0.15977835
0.16205978
0.16410099
0.16580243
0.16676354
0.16673178
0.16506033
0.16135596
0.15796893
0.15595842
0.15448391
0.15330941
0.15230347
0.15138234
0.15061158
0.14998177
0.14948649
0.14910577
0.14885704
0.14870015
0.1271488
0.13131948
0.13520436
0.13884125
0.14223979
0.14539644
0.14833091
0.15107666
0.15366777
0.1561214
0.15845547
0.16067144
0.16274093
0.16459183
0.16609399
0.16683694
0.16661967
0.16461553
0.16078565
0.15760821
0.15571576
0.15429492
0.1531547
0.15217372
0.15127308
0.15052067
0.14990676
0.14942293
0.14905077
0.14880781
0.1486543
0.13403683
0.13725242
0.14027814
0.1431353
0.14583087
0.1483729
0.15077816
0.15307065
0.15527437
0.15740329
0.15946687
0.16145635
0.16333051
0.16500583
0.16631846
0.16687467
0.16645064
0.16411945
0.16022797
0.15726857
0.15547937
0.15410839
0.15300083
0.1520443
0.15116396
0.15042971
0.14983156
0.14935906
0.14899541
0.14875825
0.14860801
0.14093062
0.14309169
0.14517635
0.14721074
0.14919665
0.15112961
0.15301753
0.15487423
0.15671263
0.15853919
0.1603533
0.16213515
0.16383097
0.16534675
0.16648364
0.16687237
0.16622785
0.16357891
0.15969226
0.15694741
0.15524716
0.15392334
0.15284724
0.15191482
0.15105464
0.15033844
0.14975601
0.1492948
0.14893967
0.14870837
0.14856152
0.14747158
0.14857739
0.14974287
0.15098515
0.15229085
0.1536399
0.15503631
0.15648315
0.15798207
0.15953027
0.16111647
0.16270972
0.16424401
0.16561083
0.16657608
0.16681992
0.16594885
0.16300744
0.15918446
0.15664178
0.15501923
0.1537401
0.15269432
0.15178567
0.15094549
0.15024717
0.14968032
0.1492303
0.14888362
0.1486582
0.14851471
0.15341083
0.15355604
0.15389933
0.15441085
0.15507803
0.15588261
0.15682422
0.1578934
0.15908176
0.16037719
0.16175769
0.16318158
0.16457067
0.16579267
0.16660596
0.16672541
0.16561894
0.16242639
0.15870631
0.15634917
0.15479493
0.15355849
0.15254207
0.15165689
0.15083652
0.1501559
0.14960451
0.14916559
0.14882731
0.14860778
0.14846771
0.15869407
0.15799554
0.15759143
0.15743558
0.15752049
0.15783823
0.1583717
0.15910094
0.16001067
0.16108058
0.16227813
0.16355145
0.16480885
0.16588783
0.16657614
0.16659078
0.16524601
0.16184548
0.15825654
0.15606709
0.15457418
0.15337857
0.15239069
0.15152868
0.15072791
0.1500648
0.1495287
0.14910075
0.14877079
0.14855714
0.14842047
0.16319879
0.16179754
0.1607457
0.16001425
0.15960005
0.15949496
0.15966699
0.16010089
0.16076737
0.16164068
0.16267808
0.16381805
0.16495242
0.16591018
0.16651275
0.16641653
0.16483968
0.16127165
0.15783322
0.15579373
0.1543568
0.15320033
0.15224029
0.15140116
0.15061979
0.14997395
0.14945295
0.14903586
0.1487141
0.14850632
0.14837304
0.16680069
0.16486075
0.16330663
0.16212246
0.16130312
0.16083597
0.16070595
0.16088594
0.16134698
0.16205449
0.16295435
0.16397544
0.16501001
0.16588833
0.16641245
0.16620314
0.16440631
0.16071223
0.15743397
0.15552768
0.15414278
0.15302385
0.15209105
0.15127448
0.15051229
0.14988347
0.14937737
0.148971
0.1486573
0.14845535
0.1483254
0.16944321
0.16713978
0.16524233
0.16373187
0.16260536
0.16185724
0.16147841
0.1614459
0.16173415
0.16230304
0.16309209
0.16402932
0.16501063
0.1658226
0.16626183
0.16593956
0.16395051
0.16016981
0.15705632
0.15526784
0.15393213
0.15284923
0.15194315
0.1511488
0.15040557
0.14979349
0.14930203
0.14890623
0.14860044
0.14840425
0.14827761
0.17119943
0.16863465
0.16651071
0.16478678
0.16345191
0.16250176
0.16193451
0.16174442
0.16191014
0.16238839
0.16312235
0.16401756
0.16494898
0.16570182
0.16606652
0.16563527
0.16347488
0.15964718
0.15669806
0.15501358
0.15372491
0.1526766
0.1517968
0.15102429
0.15029974
0.1497041
0.14922702
0.14884163
0.14854358
0.14835307
0.14822965
0.17225083
0.16952703
0.16723235
0.16535125
0.16387531
0.16279541
0.1621064
0.16183816
0.16195425
0.16238106
0.16306984
0.16392618
0.16481258
0.1655241
0.16582972
0.1653
0.16298906
0.15914644
0.15635717
0.15476452
0.1535212
0.15250612
0.15165217
0.15090112
0.1501949
0.1496154
0.14915241
0.14877726
0.14848676
0.14830184
0.14818154
0.17270108
0.16996451
0.167589
0.16561186
0.16404675
0.16289137
0.16214161
0.1618242
0.16189071
0.16226612
0.16290509
0.16373156
0.16459913
0.16528995
0.16555245
0.16493432
0.16250169
0.15866847
0.15603097
0.15452032
0.15332102
0.1523379
0.15150937
0.15077936
0.15009119
0.14952749
0.14907829
0.1487132
0.14843005
0.14825058
0.14813329
0.17190617
0.16949135
0.16730734
0.16542151
0.16388512
0.16273019
0.1619766
0.16162729
0.16164601
0.16199314
0.16261528
0.16343566
0.16430784
0.16500031
0.16523769
0.16454739
0.16201857
0.15821305
0.15571757
0.15428076
0.15312429
0.152172
0.15136851
0.15065914
0.14998872
0.14944047
0.14900474
0.14864953
0.14837351
0.14819935
0.14808493
0.17002691
0.16797019
0.16611437
0.16449571
0.16315264
0.16212592
0.16145486
0.16115056
0.16119399
0.16156058
0.16219953
0.16303914
0.1639383
0.16465622
0.1648883
0.16414487
0.16154495
0.15778016
0.15541537
0.15404562
0.15293101
0.15200862
0.15122977
0.15054064
0.14988768
0.1493545
0.14893189
0.14858635
0.14831724
0.1481482
0.14803648
0.1674419
0.16575746
0.16425665
0.16296375
0.16189791
0.16109289
0.1605936
0.16040683
0.16053436
0.16096854
0.1616584
0.16254248
0.16349046
0.16425832
0.16450708
0.16373201
0.16108452
0.157369
0.15512292
0.15381519
0.15274166
0.15184833
0.15109366
0.15042429
0.14978842
0.14926982
0.14885992
0.14852378
0.1482613
0.14809715
0.14798796
0.16410828
0.16289341
0.1618256
0.16092324
0.16019734
0.15968535
0.15942314
0.1594089
0.15967303
0.1602185
0.16099323
0.16194715
0.16296488
0.16380725
0.16409657
0.16331576
0.16064065
0.15698034
0.15484102
0.15359104
0.15255766
0.15169237
0.15096107
0.15031074
0.1496914
0.14918672
0.14878898
0.14846189
0.14820574
0.14804618
0.14793935
0.16000934
0.15936065
0.15882806
0.15840132
0.15809175
0.15793332
0.15794626
0.15816149
0.15861494
0.15931075
0.16020307
0.16125269
0.16236062
0.16330207
0.16365884
0.16290162
0.16021801
0.15662032
0.15457331
0.15337559
0.15238069
0.15154191
0.15083268
0.15020041
0.1495968
0.14910524
0.14871902
0.14840059
0.14815044
0.14799523
0.1478906
0.15507914
0.15504943
0.15515909
0.15532347
0.15552452
0.15578397
0.15614106
0.15664267
0.15734131
0.15823098
0.15927627
0.1604504
0.1616705
0.1627368
0.16319208
0.16249534
0.15982733
0.15629624
0.15432248
0.15316863
0.15220984
0.1513959
0.15070743
0.15009235
0.14950379
0.14902475
0.1486496
0.14833959
0.14809521
0.14794421
0.14784165
0.14945535
0.14977815
0.15045417
0.15127097
0.15210855
0.15293458
0.15378034
0.15466807
0.15570777
0.15687704
0.15813592
0.1594806
0.1608469
0.16207418
0.16267439
0.16209437
0.15948047
0.15600231
0.15407827
0.15296076
0.15203734
0.15124845
0.15058106
0.14998373
0.14941046
0.1489441
0.14858011
0.14827864
0.14804001
0.14789326
0.14779259
0.073344198
0.09112018
0.10287608
0.11168607
0.11889895
0.12526455
0.13112071
0.13633161
0.14125416
0.14586385
0.15011924
0.15400504
0.15752658
0.16066464
0.16338285
0.16553045
0.16667962
0.16644118
0.16395465
0.16001246
0.15723252
0.15542441
0.1540609
0.152927
0.15190544
0.15104543
0.15033885
0.14978776
0.14936586
0.1490899
0.14890491
0.07244553
0.090999258
0.10273435
0.11146136
0.11860568
0.12487801
0.13062431
0.13583805
0.14073898
0.14535627
0.1496526
0.15359928
0.15718863
0.16039527
0.1631734
0.16538981
0.16659469
0.16646033
0.1640923
0.16017012
0.15734078
0.15551402
0.15413875
0.15299471
0.15196471
0.15109668
0.15038247
0.14982551
0.14939912
0.14911987
0.14893602
0.07227621
0.091066348
0.1028197
0.11137757
0.11833262
0.12445706
0.13008075
0.13524312
0.14012008
0.14474989
0.14909288
0.15310864
0.15677621
0.16006311
0.16291515
0.16521415
0.16650055
0.16646071
0.16424403
0.16034177
0.15745033
0.1556012
0.15421464
0.15306138
0.15202402
0.15114878
0.15042745
0.14986492
0.14943422
0.14915167
0.14896617
0.072013599
0.090939504
0.1027401
0.11117349
0.1179934
0.12399777
0.12951688
0.13462942
0.13948577
0.14412442
0.14850816
0.15258874
0.15633304
0.15970118
0.16263147
0.16501609
0.16639571
0.16645633
0.16439557
0.16052957
0.15757299
0.15569754
0.15429785
0.15313407
0.1520885
0.15120537
0.15047627
0.14990763
0.14947214
0.1491859
0.14900838
0.071504774
0.090544605
0.1024563
0.11085395
0.11761454
0.12353226
0.12896318
0.13402937
0.13886208
0.14350085
0.14791484
0.15205163
0.15586746
0.15931469
0.16232465
0.16479419
0.16627459
0.16644493
0.16453996
0.16072782
0.15770675
0.15580291
0.15438881
0.15321333
0.15215866
0.15126681
0.15052918
0.14995381
0.149513
0.14922266
0.14904032
0.070943195
0.089944418
0.10204547
0.11050462
0.11723146
0.12307792
0.12843067
0.13344881
0.13825254
0.14288307
0.147317
0.15150068
0.15538163
0.15890446
0.1619938
0.16454486
0.16613501
0.16642256
0.16467514
0.16093018
0.1578473
0.15591405
0.15448518
0.15329749
0.1522333
0.1513323
0.15058567
0.15000314
0.14955664
0.14926194
0.14907563
0.070461575
0.089300538
0.10158453
0.11012162
0.1168324
0.12262158
0.12790725
0.13287796
0.13765009
0.14226717
0.14671301
0.15093518
0.15487483
0.15846925
0.16163661
0.16426436
0.16597398
0.16638711
0.16480358
0.16113572
0.15799259
0.15602888
0.15458529
0.15338529
0.15231156
0.15140135
0.15064544
0.15005549
0.14960302
0.14930375
0.1491074
0.070075149
0.08858173
0.10101366
0.10965598
0.11638287
0.12213924
0.12737525
0.13230509
0.13704735
0.14164914
0.14610131
0.15035476
0.15434676
0.15800827
0.16125138
0.16395226
0.16577956
0.16633406
0.16491568
0.16134906
0.15814244
0.15614697
0.1546887
0.15347635
0.1523932
0.15147374
0.15070844
0.15011088
0.14965224
0.14934823
0.14915575
0.069663812
0.08773268
0.100292
0.10907032
0.11585254
0.12160826
0.12681786
0.13171909
0.13643739
0.14102503
0.14548025
0.14975904
0.15379728
0.15752108
0.16083713
0.16361113
0.1655544
0.16625904
0.16500784
0.16156428
0.15829694
0.15626831
0.15479541
0.15357073
0.15247829
0.1515497
0.15077488
0.15016952
0.14970448
0.14939553
0.1492016
0.069227049
0.086740564
0.09939427
0.10833758
0.11521679
0.12100846
0.12621923
0.1311088
0.13581292
0.1403906
0.14484794
0.14914758
0.15322641
0.1570075
0.16039327
0.16324205
0.16529725
0.16615688
0.16508599
0.16177799
0.15845603
0.15639274
0.15490538
0.15366843
0.15256692
0.15162933
0.15084492
0.15023158
0.14975991
0.14944579
0.14925254
0.068749272
0.085598439
0.098308707
0.10744223
0.11445765
0.12032282
0.12556493
0.13046345
0.13516622
0.13974086
0.14420175
0.14851936
0.15263388
0.15646732
0.15991936
0.16284405
0.16500546
0.1660135
0.16514061
0.16199148
0.15861934
0.15651978
0.15501826
0.15376931
0.15265906
0.15171268
0.15091868
0.1502972
0.14981869
0.14949917
0.14930244
0.068209022
0.084310134
0.097018346
0.10636295
0.11355928
0.11953826
0.12484375
0.1297742
0.13449081
0.1390713
0.14353903
0.14787316
0.15201923
0.1559003
0.15941495
0.16241579
0.16468226
0.16584227
0.16516355
0.16219315
0.15878609
0.15664873
0.15513355
0.15387296
0.15275451
0.15179968
0.15099619
0.15036649
0.14988095
0.14955584
0.14935427
0.067561608
0.082864174
0.095523772
0.10509773
0.11251478
0.11864795
0.12404931
0.12903545
0.13378215
0.13837844
0.14285733
0.14720767
0.15138188
0.15530613
0.1588797
0.16195621
0.16432748
0.16563872
0.1651563
0.16237234
0.15895512
0.15677844
0.15525039
0.15397907
0.152853
0.15189025
0.15107748
0.15043953
0.1499468
0.14961593
0.14940923
0.066790019
0.081283625
0.093842007
0.10365327
0.11132749
0.11765341
0.12318193
0.12824648
0.13303865
0.13766043
0.14215512
0.14652179
0.15072124
0.15468447
0.15831323
0.16146435
0.16393943
0.16539207
0.16511509
0.16253799
0.15912596
0.15690826
0.15536802
0.15408667
0.15295423
0.1519841
0.15116247
0.15051636
0.15001634
0.14967962
0.14946824
0.065918196
0.079615471
0.09201083
0.1020529
0.11001582
0.11656809
0.1222506
0.12741265
0.13226292
0.13691765
0.14143177
0.14581481
0.15003671
0.15403479
0.15771504
0.16093917
0.16351719
0.16510003
0.16502763
0.162684
0.15929659
0.1570361
0.15548535
0.15419583
0.15305763
0.15208117
0.15125119
0.15059702
0.15008967
0.14974701
0.1495318
0.064979576
0.077923362
0.090101994
0.10034438
0.10861027
0.1154153
0.12127239
0.12654525
0.13146156
0.13615337
0.14068819
0.14508644
0.14932769
0.15335644
0.15708426
0.16037922
0.16305951
0.16476755
0.16488787
0.16280036
0.15946705
0.15716226
0.15560086
0.1543043
0.15316302
0.15218079
0.15134333
0.1506815
0.15016688
0.14981825
0.14959957
0.064149384
0.076350765
0.088229156
0.098606989
0.10716236
0.11422767
0.1202695
0.12565911
0.13064358
0.1353722
0.13992615
0.14433668
0.14859328
0.15264833
0.15641938
0.15978157
0.16255948
0.16439093
0.16470091
0.16287855
0.15963027
0.15728197
0.15571429
0.15441349
0.1532691
0.15228316
0.15143903
0.1507698
0.150248
0.14989339
0.14967105
0.063541753
0.075036415
0.086531467
0.09693719
0.10572851
0.11303963
0.11926381
0.12476821
0.12981723
0.13457801
0.13914633
0.14356465
0.14783197
0.15190845
0.15571775
0.15914101
0.16200373
0.16397186
0.16449668
0.16292969
0.15979377
0.1573976
0.15582146
0.15451882
0.15337639
0.1523868
0.15153749
0.15086175
0.15033312
0.14997259
0.1497463
0.063369611
0.074149634
0.085166183
0.095455984
0.10438168
0.11189061
0.11827561
0.12388247
0.12898661
0.13377161
0.13834737
0.14276775
0.14704079
0.15113383
0.15497611
0.15845292
0.16138715
0.16346516
0.16421215
0.16293981
0.15993806
0.15750072
0.15592529
0.15462305
0.1534816
0.15249249
0.15163914
0.15095735
0.15042211
0.15005581
0.14982554
0.063708999
0.073844017
0.084277571
0.094280728
0.10319038
0.11080814
0.11731027
0.1229979
0.12814467
0.13294547
0.13752241
0.14194024
0.1462148
0.15032043
0.15419125
0.15771654
0.16072154
0.16292807
0.16390247
0.16291271
0.16005012
0.15759586
0.15601734
0.15472161
0.1535876
0.15259781
0.15174257
0.15105611
0.15051508
0.1501432
0.14990907
0.064740571
0.074148793
0.083962585
0.093497313
0.10220483
0.10980247
0.11635413
0.12209263
0.12726968
0.1320811
0.13665672
0.1410706
0.1453457
0.14946261
0.15335984
0.15693146
0.16000928
0.16233948
0.16352067
0.16282403
0.16015479
0.15767443
0.15610123
0.15481126
0.15368673
0.15270354
0.15184809
0.15115814
0.15061166
0.15023462
0.14999675
0.066443442
0.075096977
0.084154046
0.093105969
0.10145099
0.10888895
0.11540006
0.12114398
0.12633386
0.1311526
0.13572952
0.14014332
0.14442254
0.14855277
0.15247763
0.15609579
0.15924781
0.16169746
0.16307073
0.16264944
0.16024556
0.15773793
0.15617354
0.15490143
0.15378626
0.15280795
0.15195496
0.15126247
0.15071206
0.15033014
0.15008878
0.068653252
0.076537754
0.084786052
0.093043695
0.10088165
0.10802598
0.11440476
0.12010786
0.12529633
0.1301254
0.13471372
0.13913869
0.14343217
0.14758293
0.15153968
0.155207
0.15843499
0.16100376
0.16256903
0.16242462
0.16027522
0.15778706
0.15622029
0.15496166
0.15387471
0.15290887
0.15206065
0.1513693
0.15081548
0.15042954
0.15018491
0.071090242
0.078162333
0.085579454
0.093064341
0.10031811
0.1070955
0.11328995
0.11892784
0.12411357
0.12896561
0.13358363
0.13803815
0.14236124
0.14654465
0.15054157
0.15426302
0.15756937
0.160257
0.16201173
0.16217622
0.16026337
0.15778671
0.15624686
0.15503628
0.15395577
0.15300855
0.15216919
0.15147732
0.15092229
0.15053268
0.15028526
0.073438188
0.079699075
0.086298891
0.093035948
0.099691833
0.10606542
0.11204028
0.11759295
0.12277413
0.12766096
0.13232763
0.13683233
0.14120341
0.14543395
0.14948119
0.15326289
0.15664934
0.15945073
0.16137695
0.16187912
0.16021106
0.15779374
0.15626865
0.15507476
0.15403589
0.15310053
0.15227079
0.15158632
0.15103118
0.15063935
0.15038946
0.07539642
0.080909144
0.086768975
0.092839934
0.09894038
0.10491977
0.1106648
0.11612173
0.12129577
0.12622445
0.13095386
0.13552593
0.13996172
0.14425378
0.14836165
0.1522092
0.1556764
0.15858549
0.16066347
0.16141134
0.16011898
0.15781657
0.15626922
0.15506976
0.15407158
0.15318706
0.15237608
0.15169557
0.15114253
0.15074896
0.15049729
0.076793245
0.081654967
0.086868038
0.092365575
0.097999696
0.10364006
0.10917738
0.11454405
0.11971326
0.12468803
0.12948872
0.1341395
0.13865195
0.14301579
0.14719235
0.15111034
0.15465875
0.15767304
0.15990154
0.16090938
0.16000388
0.15779948
0.15622483
0.15507121
0.15413804
0.15326833
0.152473
0.15180327
0.15125483
0.15086153
0.15060857
0.077580206
0.081894995
0.086604957
0.091619497
0.09685917
0.10221776
0.10758661
0.11288219
0.11805636
0.12308551
0.12796567
0.13270328
0.13730001
0.14174174
0.14599092
0.14998085
0.15360889
0.15672384
0.15909732
0.16034819
0.15980492
0.15771978
0.15613355
0.1550883
0.15418054
0.15333561
0.152563
0.15191046
0.15136799
0.15097574
0.1507224
0.077816004
0.081715795
0.085991913
0.090609312
0.095519767
0.10064503
0.10588623
0.11114511
0.11634629
0.12144559
0.12641817
0.13125201
0.13593873
0.14046085
0.14478212
0.14884078
0.15254258
0.1557494
0.15825484
0.15971908
0.15947477
0.1576098
0.15610191
0.1550847
0.15417774
0.15338781
0.15265863
0.15201323
0.15148053
0.1510919
0.15083902
0.077629052
0.081162492
0.085086289
0.089388992
0.094036362
0.098968448
0.10410312
0.10934558
0.11460106
0.11979381
0.12487623
0.12981917
0.13460284
0.13920628
0.14359562
0.14771523
0.15148018
0.15476561
0.15738601
0.15904238
0.15915178
0.15751345
0.1560423
0.15502851
0.1541878
0.15344168
0.15272527
0.15211332
0.15159258
0.15120817
0.1509566
0.077265965
0.080524167
0.084170747
0.088206222
0.092618345
0.0973678
0.10239012
0.10759842
0.11289428
0.11818154
0.1233819
0.12844223
0.13332802
0.1380123
0.14246301
0.14663195
0.15044504
0.15379169
0.1565069
0.15832604
0.15872565
0.15736404
0.15590915
0.1549529
0.15419758
0.15346848
0.15280615
0.15220893