/*--------------------------------*- C++ -*----------------------------------*\
| =========                 |                                                 |
| \\      /  F ield         | OpenFOAM: The Open Source CFD Toolbox           |
|  \\    /   O peration     | Version:  2406                                  |
|   \\  /    A nd           | Website:  www.openfoam.com                      |
|    \\/     M anipulation  |                                                 |
\*---------------------------------------------------------------------------*/
FoamFile
{
    version     2.0;
    format      ascii;
    arch        "LSB;label=32;scalar=64";
    class       volScalarField;
    location    "0.09";
    object      alphat;
}
// * * * * * * * * * * * * * * * * * * * * * * * * * * * * * * * * * * * * * //

dimensions      [1 -1 -1 0 0 0 0];

internalField   nonuniform List<scalar> 
2065
(
0.0015735441
0.0018695085
0.00216653
0.0024640788
0.0027555144
0.00082971231
0.00098588
0.0011736232
0.0013858881
0.0016123139
0.0005961458
0.00069884438
0.00082487869
0.00098663095
0.00097592181
0.0011632863
0.0013495583
0.001854681
0.0021297924
0.0023988259
0.0028486149
0.0032385846
0.0037190518
0.0044399423
0.0050272569
0.0055943325
0.0051421149
0.0045569171
0.0038442332
0.0044087466
0.0030171462
0.0035282267
0.0020985267
0.0025193471
0.0029113107
0.001185944
0.0014863903
0.0018026649
0.0021270298
0.0005789108
0.00073387058
0.00093615863
0.0011908991
0.0014643581
0.0037155755
0.0063140101
0.0099898828
0.014249267
0.018137479
0.020536894
0.020722944
0.019079134
0.016473285
0.0039505446
0.0065732055
0.010152818
0.014247259
0.017951309
0.020185345
0.020272782
0.018612252
0.016005511
0.0041939174
0.0068213968
0.010330918
0.014277967
0.017792128
0.019820539
0.019809824
0.018126854
0.015539341
0.0044447069
0.0070606281
0.010490334
0.014287831
0.017609518
0.019439916
0.019333074
0.017628488
0.015073866
0.0046956167
0.00728358
0.010626616
0.014273082
0.017403761
0.01904401
0.018842129
0.0049507951
0.013466361
0.010301203
0.0071035405
0.0041052039
0.0016027031
0.00018755587
0.013087658
0.010010892
0.0068981697
0.0039868269
0.0015617232
0.00018418934
0.012692394
0.0097059267
0.006688169
0.0038703196
0.0015183114
0.00018050529
0.012299953
0.0094049049
0.0064850138
0.0037595823
0.0014802992
0.00017653418
0.040019274
0.028596761
0.017648186
0.0084009515
0.0022682131
0.00010863857
0.036254322
0.025662929
0.015725122
0.0074992499
0.0020804958
0.00011217982
0.032875213
0.023152845
0.014176156
0.0068251331
0.0019592686
0.00011429135
0.029902818
0.021021688
0.012908183
0.006286011
0.0018520125
0.00011540759
0.027304046
0.019206016
0.011856775
0.0058571409
0.0017876642
0.0001163066
0.025002755
0.01760375
0.01091197
0.0054367152
0.0016808268
0.0001164995
0.022955548
0.016185759
0.010078919
0.0050739696
0.001607394
0.00011606098
0.021139323
0.014931772
0.0093386942
0.0047402948
0.0015217848
0.00011554437
0.019541226
0.013837409
0.0087006362
0.0044641085
0.0014673682
0.00011499447
0.018140373
0.012885678
0.0081457733
0.0042160911
0.0014044615
0.00011466837
0.016916314
0.012056365
0.0076696043
0.0040143539
0.0013666132
0.00011469454
0.015887213
0.011347939
0.0072473966
0.0038184137
0.0013136411
0.0001151457
0.0150529
0.010787008
0.006920791
0.0036727795
0.0012803033
0.00011610368
0.014343486
0.010314551
0.0066492209
0.0035540248
0.0012548773
0.00011755603
0.013796426
0.0099653427
0.0064579491
0.0034726039
0.0012400801
0.00011983877
0.013390434
0.009715005
0.0063306363
0.0034358158
0.0012361372
0.00012299729
0.013104434
0.0095497412
0.0062646813
0.003419606
0.0012423886
0.00012704886
0.012932598
0.009478229
0.0062527054
0.0034395481
0.0012622685
0.00013206113
0.012855239
0.0094625377
0.0062736385
0.0034728153
0.0012873197
0.00013802714
0.012871645
0.0095365097
0.0063694903
0.0035565355
0.0013313561
0.00014506167
0.012939038
0.0096345186
0.0064648827
0.0036299589
0.0013712513
0.00015310172
0.013113182
0.0098542167
0.0066816009
0.0037921618
0.0014458542
0.00016233656
0.013255688
0.0099994278
0.0067956107
0.0038640688
0.0014834986
0.00017243154
0.013766638
0.010543961
0.0072854157
0.0042143338
0.0016362485
0.00018456443
0.043279881
0.051794702
0.060911583
0.069275792
0.074896411
0.075819768
0.071169055
0.062253096
0.051316892
0.040443946
0.04876527
0.057642427
0.065664843
0.070866258
0.07137602
0.066499275
0.0576396
0.04699592
0.037814037
0.04583315
0.054377316
0.062014443
0.066800062
0.066925255
0.0619345
0.053207986
0.042971545
0.035328586
0.043005766
0.051170435
0.058392834
0.062766326
0.062564683
0.057537917
0.049044884
0.0393087
0.032985095
0.040285134
0.048040032
0.054833687
0.058811905
0.058352366
0.053362212
0.045191281
0.036013601
0.030803509
0.037684721
0.045000155
0.051370264
0.054976234
0.054331606
0.049442082
0.041653252
0.033052402
0.028718079
0.035233884
0.042084133
0.04801801
0.051295527
0.05053518
0.04579438
0.038420149
0.030387609
0.026740621
0.032888071
0.039347593
0.044833078
0.047789683
0.046978003
0.042429177
0.035485336
0.028002586
0.024898813
0.030671366
0.036753999
0.041889831
0.044542861
0.043661197
0.039336306
0.03283652
0.025879972
0.023135981
0.028575118
0.034294085
0.039129637
0.041595606
0.040682802
0.036549509
0.030455256
0.023995067
0.021582591
0.026667702
0.032030937
0.036556289
0.03888159
0.038021506
0.034122577
0.028394361
0.02235572
0.020192791
0.024959202
0.029979439
0.034215359
0.036392561
0.035607832
0.031987118
0.026634725
0.020977095
0.018831205
0.023303018
0.028047269
0.032074207
0.034163268
0.033451087
0.030081011
0.025104922
0.019820087
0.017495815
0.021720139
0.026230875
0.030100626
0.032156236
0.03156528
0.028453769
0.023794365
0.018829059
0.016241969
0.020243065
0.024551537
0.028312288
0.030375288
0.02993032
0.02708063
0.022730407
0.018045279
0.015048187
0.018855743
0.022994699
0.026693736
0.028801114
0.028523964
0.025930603
0.021883013
0.017443388
0.013889782
0.01752715
0.021534224
0.02519846
0.02739515
0.027309897
0.024971467
0.021214149
0.016993854
0.012731134
0.016220226
0.020127991
0.023785547
0.026121645
0.026253616
0.024173914
0.02069925
0.016682555
0.01154761
0.014911754
0.018750646
0.02242416
0.024946236
0.025323352
0.023509606
0.020310053
0.016484948
0.010272957
0.013518331
0.017315136
0.021051308
0.023798279
0.024479847
0.022948712
0.020023881
0.016395751
0.0089530054
0.012138174
0.015917266
0.019726352
0.022679826
0.02370562
0.022469063
0.019811289
0.016373139
0.0073629014
0.010393462
0.014188686
0.018184359
0.021420385
0.022903344
0.0220264
0.019647274
0.016434295
0.0060965483
0.0091131513
0.012880126
0.01695371
0.020372249
0.022106668
0.021627283
0.019522097
0.016504411
0.0036536276
0.0063352891
0.010137112
0.014524997
0.018506317
0.021031831
0.021226339
0.019520338
0.016869012
0.00039610671
0.0035716666
0.0094665146
0.016961506
0.025444498
0.034619681
0.0003760416
0.0033265278
0.0087797947
0.015741734
0.023663996
0.03227359
0.00035746664
0.0030942635
0.0081564396
0.014635657
0.022036066
0.030072867
0.00034052889
0.002877318
0.0075828876
0.013608814
0.020513694
0.028033613
0.00032517544
0.0026794879
0.0070576869
0.012661767
0.019092068
0.026103131
0.00031120903
0.0024924339
0.006564148
0.011775547
0.017764595
0.024308208
0.00029888525
0.0023291548
0.006133074
0.01097917
0.016545924
0.022634338
0.00028773008
0.0021354232
0.0056727972
0.010185837
0.015369875
0.021040565
0.00027800207
0.0019986501
0.0053144266
0.0095087089
0.014316966
0.019577934
0.00026886719
0.0018012474
0.0048465984
0.0087434549
0.013232978
0.018146248
0.00026114294
0.0016799747
0.0045434919
0.0082038423
0.012388834
0.016944078
0.00025525008
0.0016285944
0.0043333609
0.0077389561
0.01163059
0.015864661
0.00024987641
0.0015343827
0.0040980089
0.0072744612
0.0108836
0.014803737
0.00024493034
0.0013457487
0.0037167749
0.0066910146
0.010065226
0.013722243
0.00023976429
0.0012099705
0.0034002196
0.006156874
0.0092968492
0.012704038
0.00023482454
0.0010915836
0.0031029763
0.0056420603
0.0085532445
0.011724439
0.00023088526
0.00096881846
0.0028019107
0.0051335042
0.0078208776
0.010764644
0.0002239535
0.00084914291
0.0024927421
0.0046059175
0.0070700287
0.0097894978
0.00021446725
0.00071197221
0.0021549093
0.0040462375
0.0062822308
0.0087776627
0.0002008104
0.00057091315
0.0017694453
0.0034150557
0.0054121654
0.0076721484
0.00018528245
0.0004097802
0.0012944677
0.0026988537
0.0044366744
0.0064670731
0.00015070628
0.00027342151
0.00077120555
0.0018690065
0.0033694443
0.0051154114
8.4199002e-05
0.00014964974
0.00036661861
0.0010245247
0.0021615272
0.0036919687
2.3418542e-05
7.8455706e-05
0.000174814
0.00045546057
0.0011695012
0.0021872472
2.2043305e-05
8.0722818e-05
0.00011693451
0.00019872173
0.00047224257
0.0011845152
2.5189164e-05
0.00020396096
0.00031090247
0.00027320823
0.00029172044
0.00064899498
2.3874179e-05
0.00022330161
0.00050722111
0.00059604671
0.00053488783
0.00052871459
2.5965352e-05
0.00024608452
0.00064308694
0.00094603907
0.0010401337
0.00083306568
3.1614134e-05
0.00025928145
0.00074904393
0.0012477983
0.0015795597
0.0016569731
3.7329662e-05
0.00034869126
0.00093159491
0.0015639812
0.0021200673
0.0024923603
4.3160232e-05
0.00043991188
0.0011521002
0.0019245542
0.0026380294
0.0032163207
4.9109465e-05
0.00053844003
0.0013809049
0.0022932089
0.0031385545
0.0038434674
5.4587445e-05
0.00061771472
0.0015959929
0.0026440963
0.003600495
0.0043895638
5.8642692e-05
0.00068578024
0.0017831349
0.002947542
0.0039923469
0.0048377305
6.1457429e-05
0.00073957026
0.0019272398
0.0031802487
0.0042903915
0.0051743302
6.2454614e-05
0.00077312493
0.0020209446
0.0033314365
0.0044801992
0.0053863724
6.2290877e-05
0.00078807775
0.0020601488
0.0033890621
0.0045506101
0.0054641164
6.2041451e-05
0.00078507182
0.0020502908
0.003360215
0.0045080664
0.0054157238
5.6985226e-05
0.00074362354
0.0019515624
0.0032174002
0.0043358566
0.0052293731
5.3806787e-05
0.00069133735
0.0018109105
0.0029942963
0.0040532841
0.0049147057
4.9682578e-05
0.00062536816
0.0016325591
0.0027026161
0.0036737253
0.0044795987
4.3954393e-05
0.00054102706
0.0014129196
0.0023470439
0.0032072901
0.0039325396
3.7236082e-05
0.0004521363
0.0011769354
0.001957075
0.0026805475
0.0032902936
3.0785044e-05
0.00034917048
0.00093440097
0.0015610955
0.0021286797
0.0025760715
2.4585091e-05
0.00025306265
0.00071218956
0.0011937881
0.0015766378
0.0017921225
1.8960521e-05
0.00019276328
0.00056911821
0.00089823285
0.0010443758
0.00098565984
1.474573e-05
0.00017975145
0.000473676
0.00061212224
0.0006323858
0.00048926461
1.1968582e-05
0.00012983922
0.00025918234
0.00027868283
0.00039857144
0.0033689381
0.0089247153
0.01602088
0.00040070614
0.0034624448
0.009207168
0.016556658
0.024936173
0.034068745
0.00040213319
0.0035433647
0.0094571512
0.017040669
0.025703179
0.035161612
0.00040312305
0.0036211684
0.0096904528
0.017482338
0.026393509
0.036135288
0.00040364735
0.0036927777
0.0099058464
0.017883743
0.027007189
0.036996367
0.00040386984
0.0037604626
0.0101073
0.018251807
0.027558259
0.037748384
0.0004039714
0.0038265541
0.01029668
0.018586321
0.028046563
0.03839672
0.00040351007
0.0038900415
0.010466295
0.018877058
0.028460906
0.038937523
0.000400054
0.0039306055
0.010588092
0.019100489
0.028790774
0.039371696
0.0003975895
0.0039700565
0.01069269
0.019282035
0.029050802
0.039711052
0.00039447574
0.0040064381
0.010783542
0.019425991
0.029251155
0.039961659
0.00039082048
0.0040338863
0.010848917
0.019530781
0.029390734
0.040123712
0.00038842178
0.0040580762
0.010907896
0.019611431
0.029475332
0.040197451
0.00039171565
0.0040801784
0.0109684
0.019659934
0.029491904
0.04017198
0.0003846273
0.0040696449
0.010907493
0.019577335
0.029387881
0.040028181
0.00038666638
0.0040430067
0.010838082
0.01946232
0.029223048
0.039797713
0.00038997234
0.0040166826
0.010771276
0.019339975
0.029030039
0.039512966
0.00039372797
0.0039867204
0.010694687
0.019204449
0.028812141
0.039186057
0.0003970829
0.0039553065
0.01061078
0.019051379
0.028570083
0.038819914
0.00040043133
0.0039284737
0.010533991
0.018894281
0.028304725
0.038412452
0.00040457602
0.0038955868
0.010439292
0.01870698
0.027992001
0.037933385
0.00040645821
0.0038496522
0.010306383
0.018461666
0.02760751
0.037355865
0.00040752069
0.003787018
0.010130273
0.018154741
0.027155421
0.036711612
0.00040959282
0.0037965228
0.010122424
0.018052489
0.026905336
0.036305944
9.2937055e-06
6.3686452e-05
9.6217923e-06
0.00039301264
0.00039603861
0.0032764647
0.044419275
0.04530243
0.046401573
0.047391712
0.048231667
0.048966721
0.049622832
0.05020327
0.05069898
0.051088549
0.051341276
0.051448628
0.051406702
0.051218953
0.050886435
0.050410869
0.049789088
0.049013914
0.048083413
0.046994724
0.045738039
0.044301318
0.042676052
0.052214224
0.053997674
0.055718315
0.057208872
0.05849642
0.059649237
0.060676336
0.061576165
0.062334551
0.062924139
0.063323337
0.063532086
0.063536174
0.063333383
0.062924461
0.062307421
0.061480734
0.060448754
0.05920478
0.057736025
0.056035695
0.054084792
0.051837506
0.061180619
0.063683165
0.065936361
0.067891671
0.069625278
0.071181925
0.07256921
0.073779289
0.074795265
0.075587679
0.076145248
0.076467617
0.076537125
0.0763471
0.075896073
0.075181863
0.07420294
0.072951487
0.071440561
0.0696511
0.067565711
0.065158471
0.062366098
0.071121429
0.074179081
0.076891851
0.079288325
0.081441932
0.083375262
0.08510051
0.086606433
0.08787041
0.088866994
0.089591919
0.090042381
0.090199287
0.090053265
0.089599902
0.088835579
0.087758484
0.08636214
0.084638671
0.08260159
0.080216633
0.077447689
0.074223305
0.081783891
0.085263306
0.088372156
0.091163096
0.093680922
0.095953586
0.097984406
0.099759887
0.10125375
0.10244885
0.10334582
0.10393957
0.10420941
0.10414521
0.10374001
0.10298788
0.10188381
0.1004208
0.0985905
0.096391554
0.093806903
0.090791067
0.087276585
0.092802615
0.096593818
0.10003302
0.10314066
0.10596266
0.10851729
0.1108016
0.1128038
0.11450134
0.11588032
0.11694861
0.11769991
0.11811074
0.1181719
0.11787438
0.11720998
0.11617063
0.11474696
0.11292697
0.11069357
0.10803703
0.10491679
0.10127074
0.10369271
0.10769875
0.11135362
0.11468658
0.11772231
0.12047118
0.1229342
0.12510331
0.12696383
0.12850354
0.12973789
0.13065715
0.13123957
0.13147553
0.13135438
0.13086527
0.12999664
0.12873543
0.12706599
0.12496675
0.12241089
0.11936796
0.11578289
0.11377963
0.11785931
0.12158316
0.12499327
0.12810374
0.13092772
0.13347027
0.13572675
0.13769268
0.13935949
0.14074801
0.14184322
0.14262933
0.14309604
0.1432313
0.14302135
0.14245048
0.14150068
0.14015101
0.13837546
0.13614047
0.13340434
0.13012369
0.12202665
0.12595265
0.12952971
0.13281548
0.13582317
0.13857166
0.14106498
0.14330641
0.14529901
0.14704553
0.14856621
0.14984221
0.15086611
0.15162755
0.15211307
0.15230576
0.15218517
0.15172718
0.15090377
0.14968202
0.148022
0.1458758
0.14319526
0.1267804
0.13024747
0.13339849
0.13630444
0.13898108
0.14145527
0.14372906
0.14582149
0.14773594
0.1494994
0.15111524
0.15257659
0.15387845
0.15501106
0.1559597
0.15670431
0.15721929
0.15747331
0.15742935
0.15704455
0.15626934
0.1550477
0.15332553
0.12550703
0.12809752
0.13045038
0.13263885
0.13468819
0.13663422
0.13848083
0.14025855
0.14198224
0.14368338
0.14536139
0.14701874
0.14865221
0.15025252
0.15180392
0.15328362
0.15466111
0.15589749
0.15694528
0.15774869
0.15824449
0.15836425
0.15804145
0.11410311
0.11529328
0.11639099
0.11746504
0.1185606
0.11971734
0.12093766
0.12224741
0.12368728
0.12526738
0.1270006
0.1288919
0.13093938
0.13313436
0.13546092
0.13789512
0.14040393
0.14294345
0.14545702
0.14787417
0.15011297
0.15208873
0.15372519
0.086372821
0.085685238
0.085092865
0.084708131
0.084576013
0.084743092
0.085183536
0.085952849
0.087063481
0.088539662
0.09038762
0.09260996
0.095203707
0.098158871
0.10145912
0.10508225
0.10899978
0.11317438
0.11755402
0.12206317
0.12659372
0.1310054
0.05044194
0.049063437
0.048113725
0.047540143
0.047290935
0.04733712
0.047632855
0.048200205
0.049033366
0.050118123
0.051465952
0.053100399
0.055046632
0.057325505
0.059957454
0.062963391
0.066369688
0.070211932
0.07453551
0.07939172
0.084818716
0.090753086
0.023531671
0.023067983
0.022816278
0.022706158
0.022730044
0.022864607
0.023104688
0.023457261
0.023931938
0.024537618
0.025286362
0.026192636
0.027272399
0.028541165
0.030017526
0.031711165
0.033641525
0.035837996
0.038343636
0.041231606
0.044673498
0.049005394
0.011083234
0.011284785
0.011425428
0.011559679
0.011708397
0.011869192
0.012044129
0.012239443
0.012463742
0.012726936
0.013039778
0.013413636
0.013858046
0.014381815
0.014997436
0.015712411
0.016544919
0.017517198
0.01865926
0.020010387
0.021641485
0.02368017
0.0070054091
0.0073398828
0.0075813526
0.0077762745
0.0079448154
0.0080900299
0.0082149304
0.0083248655
0.0084264706
0.0085273256
0.0086358291
0.0087611631
0.0089072172
0.0090750256
0.0092520863
0.00946001
0.0097102819
0.010012543
0.0103823
0.010847281
0.011440148
0.012204728
0.0060137895
0.0063697895
0.0066431422
0.0068584047
0.0070315481
0.0071655113
0.0072625649
0.0073275635
0.0073664736
0.0073854936
0.0073904993
0.0073910257
0.0073887685
0.0073870072
0.0073950106
0.0074149439
0.0074472701
0.0074921689
0.0075534623
0.0076670644
0.0078453637
0.0080890773
0.0057816586
0.00612094
0.0063608608
0.0065313404
0.0066569245
0.006748876
0.0068142643
0.0068596351
0.0068908341
0.0069135004
0.0069287812
0.0069284445
0.0069184913
0.0069101067
0.0069085199
0.0069162356
0.0069339645
0.0069593951
0.0069842499
0.0069846734
0.0069503826
0.0069154451
0.0053459196
0.0055926295
0.0057700637
0.0059024214
0.0060057531
0.0060821736
0.0061323918
0.0061590812
0.0061678712
0.0061650466
0.0061555235
0.0061468258
0.0061423396
0.0061428125
0.0061478922
0.0061574038
0.0061708156
0.0061882392
0.0062129505
0.0062477756
0.0062927332
0.006341235
0.0051654695
0.0054062912
0.0055781007
0.0056997785
0.00578643
0.0058445936
0.0058818525
0.0059043821
0.00591503
0.0059162492
0.0059134742
0.0059097535
0.0059069552
0.0059062493
0.0059084716
0.0059146736
0.00592432
0.0059353981
0.0059408978
0.005937641
0.0059305207
0.005931916
0.0049259408
0.0050998977
0.0052191453
0.0053035232
0.005365273
0.0054065519
0.0054314945
0.0054445913
0.0054504868
0.0054528553
0.0054535342
0.0054535486
0.0054534689
0.0054534555
0.0054536893
0.0054560039
0.0054608871
0.0054686953
0.0054805685
0.0054966553
0.0055137402
0.0055288018
0.0048335476
0.0049999805
0.0051187956
0.0051982058
0.0052474278
0.005277888
0.0052961241
0.0053065146
0.0053120983
0.0053149349
0.0053164266
0.0053175399
0.0053188495
0.0053205659
0.0053220578
0.0053210341
0.0053187553
0.0053166194
0.0053135431
0.0053102773
0.0053090702
0.0053119913
0.0047737225
0.004895128
0.0049730412
0.0050229015
0.0050561652
0.0050773553
0.0050899306
0.0050967451
0.0050999793
0.0051011574
0.005101298
0.0051011024
0.0051009854
0.00510144
0.0051029806
0.0051057862
0.0051078165
0.0051078619
0.0051073465
0.0051070661
0.0051076224
0.0051094886
0.0047412953
0.0048500268
0.0049228843
0.0049685903
0.0049952661
0.0050104671
0.0050186783
0.0050228085
0.0050247126
0.0050254794
0.0050257009
0.0050256782
0.0050253887
0.0050246788
0.0050233564
0.0050212894
0.0050188822
0.0050166648
0.0050147834
0.0050134072
0.0050127456
0.0050127171
0.004742884
0.0048244894
0.0048770287
0.0049089739
0.004927413
0.0049373664
0.0049422818
0.0049444353
0.0049452162
0.0049453893
0.0049452953
0.0049449917
0.0049446217
0.004944241
0.0049438487
0.004943413
0.0049429521
0.0049425462
0.0049422216
0.0049420518
0.0049421398
0.0049424067
0.0047774244
0.0048351541
0.0048695555
0.0048884968
0.0048983225
0.0049032345
0.0049055709
0.0049065818
0.0049069505
0.004907049
0.0049070875
0.0049071461
0.0049072291
0.0049073193
0.0049073869
0.0049073834
0.004907321
0.0049072537
0.004907227
0.0049072797
0.0049074437
0.004907666
0.004807813
0.0048469594
0.0048673019
0.0048775318
0.0048824829
0.0048849082
0.0048860672
0.0048865735
0.0048867447
0.0048867553
0.0048866701
0.0048865282
0.0048863762
0.0048862056
0.0048860361
0.004885907
0.0048858243
0.0048857871
0.0048858124
0.0048859169
0.004886099
0.0048862983
0.0048441181
0.0048604273
0.0048686615
0.0048728855
0.0048753461
0.00487673
0.0048774949
0.0048779358
0.0048781741
0.0048782864
0.0048783247
0.0048783151
0.0048782671
0.004878199
0.0048781348
0.0048780858
0.0048780633
0.0048780765
0.004878131
0.0048782178
0.0048783081
0.0048783798
0.004859529
0.0048660677
0.0048696257
0.0048715639
0.0048725833
0.0048730779
0.0048732822
0.0048733193
0.004873308
0.0048733003
0.0048733094
0.0048733324
0.0048733581
0.0048733826
0.0048734065
0.0048734293
0.0048734604
0.0048735179
0.004873614
0.0048737366
0.0048738349
0.0048738499
0.0048704855
0.0048719153
0.0048724421
0.0048727161
0.004872856
0.0048729263
0.0048729591
0.0048729744
0.0048729816
0.0048729838
0.0048729842
0.0048729786
0.0048729607
0.0048729396
0.0048729229
0.0048729122
0.0048729063
0.0048728995
0.0048728795
0.0048728255
0.0048727938
0.0048727637
0.054093648
0.065254486
0.074462449
0.0793082
0.078664844
0.073286321
0.065070754
0.056223533
0.048447582
0.054559044
0.066239569
0.076186189
0.082013692
0.082574703
0.07845904
0.071434303
0.063480692
0.055921036
0.055041965
0.067210748
0.077918176
0.0848064
0.086665764
0.083919098
0.078154744
0.071187966
0.0642628
0.055355166
0.068029528
0.079535177
0.087559831
0.090820714
0.08956822
0.085199927
0.079398369
0.073406409
0.055249826
0.068483255
0.080850103
0.090098169
0.094876974
0.095263811
0.092460668
0.088015631
0.083196797
0.054405831
0.068262709
0.081572718
0.092147414
0.098574596
0.10075947
0.099703156
0.096807214
0.093313034
0.052338977
0.066888964
0.081245541
0.093275455
0.10150261
0.10565708
0.10652935
0.10535702
0.10330463
0.048167945
0.063535521
0.079104743
0.092776161
0.10299854
0.10931977
0.11230874
0.11302755
0.11251828
0.040456693
0.056812784
0.073855417
0.089457002
0.10195332
0.11069044
0.1159921
0.11874099
0.11991436
0.027136505
0.04455796
0.063440073
0.081392017
0.096569866
0.10804351
0.11593518
0.12094551
0.12394294
0.010989049
0.025126384
0.044660973
0.065298112
0.083842906
0.098589772
0.10948258
0.1170439
0.12207911
0.003044426
0.0088882371
0.021166729
0.039510482
0.059520987
0.077647114
0.092115584
0.10275537
0.11019276
0.00077352092
0.0023828645
0.0072340953
0.016434605
0.030232139
0.046305715
0.061036469
0.073063459
0.082227426
0.00058643887
0.0010662461
0.0023201976
0.0057818269
0.012026381
0.020431637
0.029757094
0.038879937
0.046805915
0.00058985771
0.00096696836
0.0015913598
0.0027778582
0.0049256041
0.0084439483
0.012853968
0.017288268
0.021344338
0.00060356226
0.0010044124
0.0015958074
0.0023542134
0.003386525
0.0049575488
0.0066079429
0.0083454184
0.009969899
0.00062268292
0.0010046526
0.0016126405
0.0024427539
0.003288726
0.0041070189
0.004985858
0.0058001285
0.0064747007
0.00063899204
0.0010420786
0.0016168284
0.0023466712
0.0032495689
0.0041573553
0.0048680533
0.0053609073
0.0056985146
0.00067357522
0.0010640857
0.0016557044
0.002413324
0.0031813227
0.0039121573
0.0045944378
0.0051403034
0.0054775397
0.00070100013
0.0011086298
0.0016680234
0.0023592716
0.0031439157
0.003889001
0.0044798639
0.004888069
0.0051255965
0.00075137274
0.0011645356
0.0017444992
0.0024378847
0.0031353726
0.003767877
0.0042993122
0.0046971719
0.0049421865
0.0007797119
0.0012016509
0.001763004
0.0024323611
0.0031277967
0.0037466783
0.0042267373
0.0045592634
0.0047541591
0.0008363429
0.0012724802
0.0018569172
0.0025269958
0.0031809784
0.0037414996
0.0041776696
0.0044824064
0.0046680852
0.00089441201
0.0013512103
0.0019443389
0.0026176658
0.0032752539
0.0038226998
0.0042191036
0.0044825531
0.0046394518
0.00098051203
0.0014642535
0.0020783465
0.002750432
0.0033749897
0.0038772005
0.0042385823
0.004476154
0.0046191611
0.0010491122
0.0015560483
0.002187817
0.0028688316
0.0034926181
0.0039809267
0.0043152564
0.0045234473
0.0046439647
0.0012292034
0.0017891962
0.0024633778
0.0031534362
0.0037447058
0.0041728337
0.0044469814
0.0046099336
0.0047022716
0.001357303
0.0019549944
0.0026554502
0.0033473569
0.0039154348
0.0043079796
0.0045458314
0.0046793086
0.0047512379
0.0017813693
0.0024791471
0.003221262
0.0038615744
0.0043097351
0.0045738208
0.0047133916
0.0047834651
0.0048180499
0.0022202262
0.0029687858
0.0036857931
0.0042274771
0.0045554104
0.0047228915
0.0047998058
0.0048334643
0.0048486653
0.0036647074
0.0041735594
0.0045104277
0.0046999522
0.0047940996
0.004837127
0.0048559348
0.0048641002
0.0048677793
0.042484639
0.042592922
0.042807602
0.04284233
0.042413663
0.041203489
0.038748087
0.034140722
0.025990069
0.013265742
0.0038660779
0.00076519937
0.00034792423
0.00033237329
0.00033774452
0.00034466049
0.00036228569
0.00037165055
0.00040286178
0.00042059466
0.00045858555
0.0004798445
0.0005218521
0.00055859461
0.00061978287
0.00066660019
0.0007935326
0.00088278191
0.0011857267
0.0015350839
0.0029577857
0.030631381
0.030483257
0.030550628
0.030427537
0.029808546
0.028383399
0.025742479
0.021013816
0.012901333
0.0042638504
0.00085460364
0.00019599258
0.00016673085
0.00016563391
0.00016843003
0.0001731418
0.00018320245
0.00019066694
0.0002095577
0.00022177634
0.00024538665
0.00025933514
0.00028541196
0.0003051476
0.00034209802
0.00036874157
0.00044327924
0.00049511682
0.00067016392
0.0009031516
0.0019777944
0.019154038
0.018817048
0.018813969
0.018601161
0.017894592
0.016385424
0.013759214
0.0091652964
0.0034909296
0.00077564406
0.00010428469
6.5865806e-05
6.4787386e-05
6.464404e-05
6.5806015e-05
6.8683608e-05
7.3443032e-05
7.7814659e-05
8.6106895e-05
9.310498e-05
0.00010450813
0.00011256768
0.00012481896
0.00013438313
0.00015148858
0.00016493493
0.0001986945
0.00022452742
0.0003013364
0.00042117626
0.00099085438
0.0092587228
0.0088832372
0.008834457
0.0085591624
0.0078938192
0.0065224211
0.0041884201
0.0016194918
0.00035303469
4.4230134e-05
1.7717305e-05
1.6842891e-05
1.6676307e-05
1.6627161e-05
1.6755878e-05
1.7236932e-05
1.7995923e-05
1.9500815e-05
2.1426077e-05
2.4330754e-05
2.7051348e-05
3.098804e-05
3.4045135e-05
3.8533551e-05
4.3229721e-05
4.9384679e-05
5.9437307e-05
6.9765699e-05
9.2474523e-05
0.00013234409
0.0003069618
0.0025191108
0.0022976567
0.0022151968
0.0019017665
0.0014658041
0.00078463083
0.00033386808
7.3439482e-05
1.2108501e-05
7.0046869e-06
6.5175183e-06
6.1970894e-06
5.891279e-06
5.5538811e-06
5.190787e-06
4.7984112e-06
4.3373496e-06
3.9884028e-06
3.6151314e-06
3.363159e-06
3.2411983e-06
3.2596813e-06
3.3907897e-06
3.6188917e-06
4.2426937e-06
5.1498565e-06
6.6579218e-06
8.5988419e-06
1.2484839e-05
1.9695771e-05
4.267728e-05
9.8407569e-05
8.3587522e-05
6.8328259e-05
4.9102123e-05
3.0503654e-05
1.5814891e-05
1.0672788e-05
9.6207649e-06
9.8384114e-06
1.0132781e-05
1.0310752e-05
1.0331972e-05
1.0171664e-05
9.8326298e-06
9.0554089e-06
7.4910372e-06
6.8618088e-06
5.693728e-06
4.457508e-06
3.410073e-06
2.5512314e-06
1.8342787e-06
1.3300984e-06
8.757174e-07
4.7122879e-07
2.9421213e-07
2.1449622e-07
1.6939191e-07
1.7916932e-07
3.6220478e-07
1.2454625e-06
)
;

boundaryField
{
    Side1
    {
        type            empty;
    }
    Inlet
    {
        type            calculated;
        value           uniform 0.0048550522;
    }
    Side2
    {
        type            empty;
    }
    Outlet
    {
        type            zeroGradient;
    }
    Botwall
    {
        type            compressible::alphatWallFunction;
        value           nonuniform List<scalar> 
59
(
2.0848647e-05
2.029213e-05
1.9681783e-05
1.9023953e-05
7.6092614e-06
8.2168028e-06
8.5819864e-06
8.7728666e-06
8.9350765e-06
8.965292e-06
8.9002935e-06
8.811546e-06
8.7247976e-06
8.6688097e-06
8.6789319e-06
8.7543762e-06
8.9197706e-06
9.1663683e-06
9.5530159e-06
1.0087448e-05
1.0771333e-05
1.1615419e-05
1.2617623e-05
1.3796026e-05
1.5138912e-05
1.6676276e-05
1.8351174e-05
2.0356359e-05
5.8495422e-06
3.2729553e-06
5.6251978e-07
0
0
0
0
0
0
0
0
0
0
0
0
0
0
0
0
0
0
0
0
0
0
0
0
0
0
0
0
)
;
    }
    Cyli
    {
        type            compressible::alphatWallFunction;
        value           nonuniform List<scalar> 
76
(
5.4177761e-05
5.1059307e-05
4.8158612e-05
4.5501543e-05
4.308286e-05
4.0873157e-05
3.8916943e-05
3.7139643e-05
3.5578531e-05
3.4126552e-05
3.2866177e-05
3.1899177e-05
3.1047212e-05
3.024575e-05
2.9400629e-05
2.8590903e-05
2.7942569e-05
2.6806099e-05
2.525027e-05
2.300403e-05
2.0444814e-05
1.4697519e-05
3.3738189e-06
0
0
0
0
0
0
0
0
0
0
0
0
0
0
0
0
0
0
0
0
0
0
0
0
0
5.4569384e-05
5.4897332e-05
5.5115267e-05
5.5265358e-05
5.5343301e-05
5.5374557e-05
5.5387186e-05
5.5312683e-05
5.4774085e-05
5.4389264e-05
5.3903607e-05
5.3333834e-05
5.2959785e-05
5.3472637e-05
5.2368259e-05
5.2686832e-05
5.3202151e-05
5.3787509e-05
5.4310545e-05
5.483247e-05
5.5477815e-05
5.5772149e-05
5.5939917e-05
5.6264053e-05
0
0
5.3711988e-05
5.4179228e-05
)
;
    }
    procBoundary0to1
    {
        type            processor;
        value           nonuniform List<scalar> 
44
(
0.0030527828
0.0030527828
0.0018629941
0.0011917042
0.0011917042
0.0015670162
0.0015670162
0.0026801641
0.0035686599
0.0035686599
0.0041940302
0.0041940302
0.00494844
0.0055301281
0.0054937016
0.0054937016
0.005840056
0.0060581506
0.0061398465
0.0060947591
0.0059122512
0.0059122512
0.0061143413
0.0056949268
0.0051315801
0.0051315801
0.0048789445
0.017120055
0.014606618
0.0075045422
0.01075077
0.014240704
0.017176236
0.018639191
0.017120055
0.018339926
0.0075045422
0.0052164143
0.011907471
0.0091036591
0.006281394
0.0036475322
0.0014393248
0.00017230544
)
;
    }
    procBoundary0to2
    {
        type            processor;
        value           nonuniform List<scalar> 
55
(
0.00046610714
0.00055400477
0.00066483025
0.00080440001
0.00097057531
0.00034825222
0.00037792161
0.00010037469
0.00034825222
0.00015670627
0.008648883
0.024114318
0.015512852
0.024114318
0.032989518
0.00010037469
4.7959676e-05
4.7959676e-05
5.2521767e-05
0.00038939339
0.003180785
0.003180785
0.008648883
0.041017412
0.049311887
0.059141805
0.070456832
0.083165215
0.09701574
0.11159069
0.12624054
0.13993224
0.151048
0.15720222
0.15491831
0.13517831
0.13517831
0.097054027
0.054332982
0.026286609
0.01320429
0.0084202529
0.006935905
0.0063812408
0.0059426594
0.0055410081
0.00531685
0.0051111874
0.0050123599
0.0049422557
0.0049075997
0.0048863544
0.0048784005
0.0048737889
0.0048727355
)
;
    }