/*--------------------------------*- C++ -*----------------------------------*\
| =========                 |                                                 |
| \\      /  F ield         | OpenFOAM: The Open Source CFD Toolbox           |
|  \\    /   O peration     | Version:  2406                                  |
|   \\  /    A nd           | Website:  www.openfoam.com                      |
|    \\/     M anipulation  |                                                 |
\*---------------------------------------------------------------------------*/
FoamFile
{
    version     2.0;
    format      ascii;
    arch        "LSB;label=32;scalar=64";
    class       volScalarField;
    location    "0.096";
    object      omega;
}
// * * * * * * * * * * * * * * * * * * * * * * * * * * * * * * * * * * * * * //

dimensions      [0 0 -1 0 0 0 0];

internalField   nonuniform List<scalar> 
8260
(
19410.502
16546.862
13852.827
11446.616
9364.3957
7591.1072
6098.278
4854.9898
3830.8335
2996.0324
2323.0284
1786.6604
1363.9806
1034.3557
777.68423
573.6021
394.33157
262.19945
200.47665
169.10623
148.94178
133.86889
123.60188
115.62431
110.18605
106.20171
103.5016
101.68114
100.41497
99.599976
99.165844
16026.432
13805.078
11763.68
9910.2866
8254.742
6799.1686
5538.6334
4462.9781
3558.5695
2808.7716
2195.3353
1700.3113
1306.045
995.77612
751.6697
554.50692
378.46704
252.21143
196.59625
167.25665
147.8715
133.20754
123.14038
115.30776
109.9836
106.08262
103.43224
101.6409
100.39204
99.585591
99.158187
13125.723
11489.377
9950.0634
8520.6583
7211.1099
6029.1541
4979.4065
4062.6278
3275.6536
2611.283
2059.1299
1607.4059
1243.3043
953.77389
723.23929
533.53591
362.37682
245.57678
194.53814
166.27402
147.30593
132.85696
122.89508
115.1364
109.87069
106.01589
103.39122
101.61411
100.37532
99.573043
99.149198
10633.684
9466.7355
8330.9092
7246.73
6227.0917
5283.1741
4424.1627
3656.5363
2983.4435
2404.1708
1914.468
1507.7144
1175.4148
907.9622
691.96411
510.06615
344.9649
237.85404
191.582
164.66622
146.32351
132.22764
122.44689
114.82345
109.66162
105.89217
103.31677
101.56956
100.34937
99.555807
99.137954
8519.3915
7709.7095
6888.8109
6083.6858
5306.2154
4567.9094
3879.3733
3249.5658
2685.0301
2189.1757
1762.1647
1401.4915
1102.3327
858.13095
657.4628
483.38727
325.75113
230.26017
188.77932
163.14916
145.40308
131.64834
122.0448
114.55109
109.48085
105.78761
103.25331
101.52966
100.32531
99.538391
99.125131
6751.818
6199.1877
5618.7521
5034.4695
4455.4933
3891.5717
3352.5259
2847.5472
2384.4186
1968.7435
1603.5348
1289.3079
1024.1913
804.13787
619.28534
452.82021
305.00632
222.64313
185.54204
161.25242
144.20491
130.87317
121.49656
114.17737
109.22918
105.64081
103.16445
101.47568
100.29379
99.516728
99.110368
5289.8877
4918.698
4517.0953
4103.0331
3682.576
3262.8376
2851.6386
2456.9688
2086.3178
1745.9555
1440.3777
1172.0516
941.29924
745.8711
576.79056
417.77316
283.51578
215.26685
182.17026
159.24137
142.92877
130.0541
120.92804
113.80305
108.97803
105.49765
103.07776
101.42166
100.26171
99.493527
99.093592
4093.8771
3849.0156
3577.3
3290.9944
2993.5795
2689.611
2384.5829
2084.6098
1795.9533
1524.4506
1274.9623
1050.9314
854.13439
683.17699
528.94118
377.88895
262.55908
208.09977
178.39054
156.86667
141.3838
129.04555
120.21936
113.33657
108.6622
105.31592
102.96758
101.35424
100.22233
99.465704
99.074437
3126.9159
2968.7181
2789.1847
2596.2628
2391.6166
2177.7786
1958.1593
1736.9125
1518.6764
1308.2022
1109.9085
927.39808
763.24018
615.65307
474.07115
334.19476
243.79558
201.11673
174.29222
154.24929
139.67106
127.93079
119.44352
112.84312
108.3318
105.1276
102.85387
101.28364
100.18056
99.435024
99.052608
2354.5455
2254.7488
2139.2282
2012.8563
1876.1917
1730.3858
1577.2471
1419.235
1259.3781
1101.0959
947.89409
802.91289
668.84453
542.14897
410.15996
290.75445
228.23704
194.01927
169.66909
151.20941
137.65056
126.60244
118.51102
112.25371
107.93991
104.89869
102.71569
101.19868
100.13065
99.398753
99.027645
1745.2255
1683.8526
1611.9309
1531.8366
1443.568
1347.4655
1244.2568
1135.122
1021.7385
906.24775
791.06819
678.39077
570.13132
458.79205
338.50539
255.41468
215.57061
186.53953
164.58028
147.82441
135.37782
125.11292
117.47089
111.61371
107.52852
104.65418
102.56976
101.10778
100.07617
99.358254
98.999067
1269.662
1233.1808
1190.0096
1141.1627
1086.3264
1025.3275
958.18289
885.18555
807.01012
724.7413
639.72761
552.43828
462.33525
362.85954
275.73821
232.33454
203.36926
178.24013
159.01485
143.87653
132.78391
123.37913
116.25969
110.8632
107.05594
104.36505
102.3976
101.00095
100.01133
99.311158
98.966033
900.61554
880.07181
855.35242
826.80309
793.93806
756.28232
713.45157
665.20857
611.58406
552.864
489.67247
420.90947
345.94131
278.74516
239.23183
213.99755
190.14606
170.13715
152.7929
139.85957
129.78351
121.39819
114.94362
110.04927
106.55051
104.05797
102.2148
100.88655
99.939179
99.259061
98.922931
609.66424
598.09131
583.91755
567.40557
547.95032
524.74529
497.39974
465.68591
429.48633
388.37656
344.7731
300.58124
262.10015
233.09898
214.01406
194.99986
177.7982
160.42669
146.33298
135.1589
126.61673
119.24765
113.42965
109.14792
105.96885
103.71139
102.0045
100.75484
99.854928
99.200108
98.872787
389.49665
382.71134
375.02796
366.54082
356.32889
343.75643
328.95526
312.48058
293.94621
273.85275
254.23944
234.19566
217.92502
206.71185
191.18572
178.09128
163.3616
151.41658
139.50826
130.82223
123.13456
116.88521
111.93662
108.22059
105.34679
103.3435
101.78583
100.6156
99.763522
99.136306
98.817163
265.84641
262.57065
258.61951
254.45799
249.89342
244.64136
238.40244
231.69003
222.90077
214.39536
205.76319
197.85854
191.49772
180.8996
170.17499
160.63739
151.79258
141.68365
133.01916
125.82529
119.79904
114.69512
110.24268
107.28087
104.6981
102.93031
101.54581
100.45818
99.661363
99.065928
98.757307
200.31618
199.12553
197.74142
196.08433
194.41413
192.36265
189.73629
187.21993
184.47203
182.20643
175.94144
169.28626
164.45957
158.23125
151.95664
147.55757
140.50745
134.27363
127.10232
121.69857
116.44311
112.43074
108.88929
106.31657
104.03221
102.50978
101.30009
100.3068
99.552489
98.989605
98.694965
166.45689
165.64616
165.00646
164.35131
163.75637
163.86319
163.78613
162.27966
160.00418
155.62049
153.72357
153.2405
149.59658
142.80047
137.63644
134.03917
132.52753
127.69279
122.78403
117.33586
113.49715
110.63328
107.415
105.34586
103.40809
102.07267
101.03394
100.14144
99.43293
98.906393
98.628803
147.88234
147.92419
147.78259
147.28884
146.31612
144.48301
142.23581
140.90869
140.20387
139.87094
139.14388
135.61232
133.81253
131.27215
128.62312
125.15016
122.93826
121.94937
119.08921
114.84188
111.23537
108.57255
106.24466
104.39909
102.85549
101.68223
100.76326
99.975598
99.312399
98.814702
98.554566
130.37287
130.22114
130.07157
129.87066
129.69091
129.89863
130.74682
130.78499
130.04644
128.26992
125.8311
125.24603
124.49679
123.51172
122.97024
119.83192
117.10562
114.87383
114.4761
112.12846
109.24051
107.10449
105.15185
103.54262
102.29665
101.33164
100.48662
99.781702
99.178919
98.717751
98.476105
121.2211
121.34496
121.3421
121.20438
120.87725
120.25914
119.1015
118.47534
118.04375
117.59307
117.63097
116.80909
115.04195
114.5346
114.00002
114.86832
112.96262
110.48046
109.28905
109.04232
107.72405
105.74472
104.40249
102.76092
101.8494
101.00382
100.24437
99.59753
99.039256
98.613677
98.391226
112.64927
112.66277
112.62949
112.53806
112.42092
112.31238
112.40755
112.58359
112.41169
111.91784
111.03103
110.35955
110.25672
109.81641
109.09453
108.67344
108.55718
107.63891
106.34033
105.49222
105.89594
104.87919
103.5487
102.18639
101.44716
100.64116
100.01662
99.393602
98.889024
98.506931
98.304759
108.30971
108.38426
108.38297
108.32116
108.19961
108.01763
107.68262
107.17999
106.98595
106.89647
106.82305
106.85641
106.6851
106.47002
106.41021
105.47115
105.35559
105.46643
104.55547
103.66854
103.33865
103.43372
102.9572
101.74778
100.98806
100.37515
99.814545
99.198915
98.731325
98.399426
98.218137
103.82078
103.84904
103.84327
103.81106
103.76995
103.73925
103.7809
103.99586
104.12595
104.21582
104.33234
104.35528
104.35895
104.15131
103.61293
103.62691
103.29618
103.03429
103.01983
102.41841
101.86117
101.76799
101.91659
101.2513
100.68207
100.02434
99.494925
98.984724
98.585126
98.294263
98.132546
101.57324
101.62403
101.63541
101.61894
101.58177
101.52219
101.4292
101.31227
101.29957
101.33699
101.39642
101.45957
101.49144
101.54283
101.53148
101.41666
101.4582
101.0523
101.2246
101.51516
101.10036
100.6327
100.46802
100.57752
100.15563
99.558436
99.202864
98.800315
98.439474
98.195082
98.056112
99.703649
99.723026
99.726895
99.725455
99.729358
99.742778
99.766964
99.801843
99.87295
99.957005
100.04216
100.11785
100.18319
100.13055
100.14881
100.01729
99.927692
100.08475
99.971238
99.940186
100.13421
99.996642
99.550792
99.58058
99.420721
99.231191
98.850493
98.579934
98.307332
98.113168
98.008556
98.908692
98.924918
98.927495
98.923927
98.922681
98.927113
98.937186
98.951799
98.969102
98.988533
99.00807
99.024465
99.036907
99.057139
99.078921
99.128338
99.211029
99.20192
99.279194
99.139354
99.210234
99.260478
99.053319
99.010615
98.895471
98.814404
98.61029
98.402949
98.21757
98.067927
97.982421
98.419893
98.428919
98.433971
98.43868
98.445897
98.455904
98.468323
98.483142
98.500818
98.522344
98.549662
98.585492
98.62961
98.670435
98.698338
98.702087
98.706855
98.742461
98.762639
98.767989
98.789778
98.75783
98.710608
98.661221
98.628216
98.563296
98.444195
98.30984
98.171736
98.049002
97.967967
98.235598
98.241114
98.244878
98.248941
98.254761
98.26249
98.271945
98.283175
98.296736
98.314028
98.337544
98.369792
98.410792
98.445063
98.464319
98.474881
98.492457
98.51668
98.535335
98.548949
98.550274
98.537195
98.520334
98.494915
98.490834
98.440231
98.369357
98.270348
98.156324
98.059347
98.023212
98.164385
98.169123
98.173494
98.17836
98.184422
98.191705
98.200188
98.210084
98.222042
98.237469
98.259249
98.292269
98.336628
98.371301
98.388287
98.393132
98.398873
98.415679
98.43142
98.451277
98.456206
98.460788
98.456976
98.439219
98.442435
98.405132
98.34644
98.267966
98.217637
98.17579
98.130112
98.283041
98.281695
98.280684
98.279918
98.279418
98.279289
98.279678
98.280862
98.283232
98.287339
98.29446
98.307924
98.333453
98.357605
98.366348
98.375764
98.388322
98.397329
98.415701
98.425152
98.438033
98.45001
98.455329
98.447317
98.445831
98.424318
98.39083
98.36121
98.34366
98.309986
98.305109
106341.48
90206.005
71119.198
54710.285
41766.582
31505.943
23476.476
17353.718
12735.579
9259.4746
6666.2577
4756.7922
3367.6441
2367.6779
1654.4604
1149.0809
790.28405
529.43074
343.94254
229.35699
172.83848
145.80166
130.78165
121.1311
114.0779
108.7904
105.10811
102.67341
101.04923
100.01392
99.486878
94301.903
71224.372
54463.723
42544.124
33107.959
25504.875
19479.636
14710.159
10972.713
8085.0681
5892.0377
4252.4377
3042.7694
2160.6045
1523.7212
1067.0326
738.20674
495.73424
322.1325
217.41248
167.77277
143.62774
129.7211
120.48745
113.6725
108.53375
104.96205
102.59469
101.00721
99.992095
99.478535
75458.468
59790.883
47858.385
37890.097
29515.385
22689.517
17272.732
13034.836
9746.125
7217.4733
5295.3132
3850.8962
2777.4204
1988.0068
1412.9864
996.65144
693.244
467.00822
305.06102
210.39278
165.44263
142.64813
129.24296
120.18513
113.47772
108.40568
104.88199
102.54706
100.97808
99.974619
99.466731
66195.163
53325.892
42377.831
33271.759
25890.238
19988.666
15308.054
11618.823
8735.2208
6506.6556
4803.88
3516.8489
2554.088
1841.0526
1317.6836
935.47484
653.83079
441.8767
289.96083
203.16399
162.35646
141.20959
128.4969
119.69114
113.15654
108.19527
104.76011
102.47967
100.94051
99.954291
99.45346
59023.176
47038.752
37259.236
29345.191
22953.046
17811.558
13703.06
10447.054
7893.1274
5911.5267
4390.0206
3233.5499
2363.1819
1714.3905
1234.8527
881.81703
618.94303
419.19555
276.26545
197.24334
160.26011
140.27751
128.01529
119.36316
112.94301
108.05423
104.67539
102.43008
100.91028
99.936339
99.441925
52443.688
41837.412
33239.167
26246.481
20579.215
16014.795
12362.282
9463.1951
7183.4576
5407.7689
4037.8438
2991.0193
2198.6719
1604.4855
1162.4529
834.44165
587.88911
398.35718
263.952
192.00476
158.10105
139.20496
127.43313
118.95575
112.6732
107.87495
104.5704
102.3706
100.87567
99.916909
99.431035
47342.476
37751.543
29975.723
23679.03
18596.776
14508.238
11235.363
8634.0061
6582.8927
4979.3336
3736.6939
2782.4334
2056.3342
1508.7969
1098.9794
792.54201
560.14142
379.33464
252.98662
187.57586
156.41774
138.39291
126.99158
118.6363
112.46112
107.73402
104.48691
102.3216
100.84539
99.898862
99.419244
43229.424
34355.509
27247.327
21535.954
16940.672
13246.012
10288.114
7934.1108
6073.5499
4614.1083
3478.5987
2602.6811
1932.9799
1425.3828
1043.2678
755.46161
535.22966
362.00618
243.31669
183.78153
154.84361
137.56525
126.52305
118.28991
112.22696
107.57764
104.39478
102.26821
100.81307
99.880096
99.406628
39701.474
31499.751
24974.292
19750.627
15555.535
12186.917
9490.581
7342.4943
5641.0773
4302.4993
3257.274
2447.7343
1826.0881
1352.7059
994.46786
722.66208
512.99474
346.30912
234.88418
180.5787
153.54708
136.88848
126.13652
117.99488
112.02612
107.44423
104.3158
102.2213
100.78345
99.862159
99.393624
36811.016
29139.842
23084.478
18259
14394.43
11297.082
8818.5963
6842.2604
5273.9145
4036.7625
3067.6395
2314.33
1733.6109
1289.5153
951.88669
693.81314
493.04371
332.1544
227.6114
177.8722
152.3884
136.24285
125.75403
117.6972
111.8199
107.30698
104.23425
102.17292
100.75312
99.843921
99.380433
34345.096
27149.637
21496.38
17006.756
13420.07
10549.476
8252.7387
6419.7454
4962.6682
3810.58
2905.5349
2199.7854
1653.8543
1234.7729
914.85534
668.54527
475.16237
319.47135
221.40335
175.60083
151.41825
135.69766
125.42465
117.43367
111.63536
107.18515
104.1614
102.12885
100.72462
99.826212
99.367129
32266.585
25475.239
20162.668
15956.251
12603.428
9922.3223
7777.3132
6063.8497
4699.6787
3618.7745
2767.5331
2101.8767
1585.4013
1187.6625
882.81405
646.5539
459.2383
308.19603
216.1656
173.70086
150.57831
135.20014
125.11155
117.17881
111.45398
107.06537
104.08907
102.08486
100.69616
99.808429
99.353721
30492.661
24059.541
19041.081
15076.123
11920.139
9397.8964
7379.524
5765.5639
4478.7047
3457.1027
2650.8057
2018.7537
1527.0983
1147.3682
855.2454
627.59525
445.12585
298.27706
211.80171
172.12486
149.88086
134.7788
124.83656
116.94995
111.28908
106.95721
104.02303
102.04396
100.66909
99.791011
99.340223
28975.581
22861.605
18098.814
14340.786
11351.303
8962.1365
7049.0109
5517.5589
4294.6904
3322.1641
2553.079
1948.9946
1477.9481
1113.1832
831.72593
611.37563
432.70533
289.66972
208.21878
170.83055
149.29891
134.41007
124.58232
116.73515
111.13197
106.85398
103.95907
102.00392
100.64248
99.773635
99.326635
27682.188
21853.132
17313.309
13732.123
10883.001
8604.4747
6778.0991
5314.3483
4143.7753
3211.457
2472.6909
1891.3583
1437.14
1084.6805
812.02509
597.58659
421.85073
282.32016
205.33491
169.78573
148.83268
134.1053
124.35876
116.54259
110.98916
106.76034
103.90011
101.96631
100.61706
99.756559
99.312933
26612.239
21026.241
16674.907
13240.791
10506.732
8318.197
6561.7654
5152.3225
4023.2524
3122.6888
2408.0538
1844.7548
1404.0383
1061.4719
795.93004
586.15213
412.47554
276.19061
203.05983
168.96397
148.46829
133.85389
124.15833
116.36669
110.85658
106.67286
103.84397
101.92994
100.59237
99.739635
99.299081
25769.265
20378.812
16177.592
12859.787
10216.037
8097.5226
6395.1781
5027.3023
3930.1181
3053.7032
2357.6343
1808.3684
1378.1132
1043.2372
783.25162
577.10929
404.60906
271.23189
201.25744
168.34488
148.20272
133.66002
123.98609
116.21114
110.7373
106.59374
103.79212
101.89561
100.56876
99.722969
99.285073
25000.628
19823.324
15770.777
12559.317
9992.8726
7931.2459
6271.1621
4934.6528
3861.4056
3003.0106
2320.535
1781.5517
1358.9587
1029.7238
773.82576
570.3633
398.29787
267.31443
199.91936
167.91239
148.02802
133.51866
123.83946
116.07331
110.62931
106.52122
103.74347
101.86274
100.546
99.706491
99.270899
24188.203
19276.875
15399.019
12304.282
9816.1268
7807.2852
6183.2233
4871.4891
3815.4752
2969.4615
2296.0684
1763.8366
1346.2763
1020.7467
767.52985
565.8447
393.57209
264.36302
198.99515
167.65373
147.94096
133.43111
123.72152
115.95499
110.53391
106.45629
103.69874
101.83173
100.52428
99.690265
99.256559
23528.827
18834.993
15105.518
12111.612
9690.802
7725.9465
6130.1657
4836.1533
3791.2215
2952.3345
2283.7449
1754.9195
1339.8725
1016.1816
764.28539
563.48628
390.45622
262.31115
198.46297
167.56067
147.93932
133.39556
123.63234
115.85553
110.45023
106.39819
103.65746
101.80233
100.50348
99.674258
99.242104
22943.071
18473.97
14886.087
11982.08
9617.7038
7687.1833
6111.4515
4828.0561
3788.1134
2951.2635
2283.3306
1754.6488
1339.6359
1015.9731
764.06222
563.23192
388.9793
261.11049
198.30472
167.62595
148.02502
133.41071
123.57493
115.77658
110.37895
106.34744
103.61999
101.77474
100.48368
99.658477
99.227598
22419.927
18178.919
14732.075
11912.078
9596.1043
7690.4091
6124.6305
4843.9273
3803.0714
2964.4363
2294.1515
1762.8866
1345.5453
1020.1205
766.87702
565.10987
389.12556
260.74971
198.48756
167.87427
148.19269
133.4923
123.55088
115.71836
110.3195
106.30352
103.58597
101.74873
100.46471
99.642851
99.212945
21931.644
17933.148
14634.031
11897.082
9620.3774
7729.9346
6167.7006
4885.3178
3839.9767
2994.56
2317.3025
1779.9444
1357.6767
1028.6643
772.78283
569.21225
390.93868
261.07215
199.06132
168.27889
148.45243
133.6154
123.55596
115.68011
110.27091
106.26596
103.55515
101.72418
100.44648
99.627336
99.197749
21428.476
17706.763
14572.84
11922.781
9683.7928
7804.9031
6240.2118
4948.439
3891.6384
3034.972
2347.6618
1801.9797
1373.2276
1039.4766
780.1296
574.20861
393.77711
262.04154
199.81264
168.73871
148.72752
133.75406
123.58055
115.65789
110.23055
106.23337
103.52682
101.7008
100.42887
99.61196
99.181688
103661.56
88057.671
69999.843
54379.638
42001.484
32198.533
24306.904
18101.88
13324.048
9705.3388
6992.5768
4988.1831
3527.0923
2474.7482
1724.6845
1194.1595
818.65459
546.64017
353.90323
233.79006
174.3854
146.41564
131.06133
121.32432
114.20892
108.88239
105.16859
102.71003
101.07163
100.02744
99.490352
98333.069
83749.698
67430.264
53174.38
41485.05
31955.304
24237.411
18133.435
13409.234
9802.6132
7081.6631
5061.0606
3582.5952
2514.8798
1752.5178
1212.7578
830.82379
554.4517
359.06555
236.38361
175.33455
146.79611
131.2203
121.4376
114.28796
108.9427
105.20773
102.73394
101.0866
100.03735
99.493558
93026.291
79768.332
64694.94
51589.349
40634.606
31558.23
24114.32
18152.257
13488.997
9898.8579
7172.2117
5136.3916
3640.6291
2557.1927
1782.0417
1232.571
843.79451
562.74293
364.56463
239.20333
176.3687
147.20468
131.40541
121.56688
114.37647
109.00422
105.25141
102.76091
101.10321
100.04712
99.498568
88081.82
76057.888
62064.977
49993.415
39751.244
31129.822
23965.786
18152.449
13561.068
9992.7417
7263.4149
5213.7471
3701.0202
2601.653
1813.2851
1253.6503
857.60024
571.55771
370.39948
242.26128
177.50527
147.65046
131.56797
121.68032
114.45813
109.07105
105.29342
102.78665
101.1195
100.05843
99.504994
83298.481
72615.371
59571.234
48404.662
38836.853
30667.34
23789.843
18140.765
13623.864
10082.847
7354.3841
5292.6573
3763.5691
2648.2136
1846.2736
1276.0489
872.27443
580.99816
376.56036
245.56013
178.76392
148.16146
131.82356
121.84669
114.56737
109.14191
105.34471
102.81836
101.1388
100.07009
99.510384
78642.404
69386.173
57197.285
46827.109
37892.853
30169.198
23583.886
18108.444
13674.869
10167.437
7443.9959
5372.4914
3827.981
2696.7763
1881.009
1299.8103
887.87001
591.09779
382.90739
249.09783
180.11566
148.68276
131.99919
121.96927
114.65782
109.21644
105.39616
102.85004
101.15829
100.08247
99.513322
74020.125
66322.902
54948.785
45267.276
36918.5
29630.752
23342.217
18047.57
13710.463
10244.441
7531.0796
5452.663
3894.0226
2747.2962
1917.5321
1325.0042
904.48917
601.88225
389.57983
252.88288
181.60054
149.27711
132.23673
122.1206
114.7626
109.29501
105.45056
102.88356
101.17881
100.09558
99.517021
69488.216
63331.046
52786.923
43720.702
35914.869
29052.394
23064.537
17960.397
13728.556
10312.997
7615.1399
5532.9186
3961.612
2799.7934
1955.9127
1351.7031
922.19327
613.39373
396.93897
256.93304
183.21811
149.9267
132.49395
122.28124
114.87201
109.37695
105.50775
102.91867
101.20035
100.10941
99.524761
65058.93
60412.143
50712.427
42195.859
34885.315
28432.208
22746.591
17841.905
13724.904
10369.938
7694.0265
5611.9225
4030.0171
2853.9191
1996.0143
1379.8629
941.00668
625.67372
404.8359
261.25539
184.98084
150.63513
132.76698
122.44493
114.9835
109.46371
105.5681
102.95571
101.22296
100.12387
99.537883
60790.289
57462.411
48693.934
40684.926
33829.029
27768.562
22385.562
17689.9
13704.194
10413.471
7766.0115
5688.5637
4098.6279
2909.3967
2037.7445
1409.4774
960.95867
638.85593
413.27124
265.86866
186.90098
151.41018
133.06732
122.62293
115.10143
109.55399
105.63129
102.99429
101.24663
100.13905
99.549803
56767.304
54505.241
46710.047
39185.188
32746.582
27060.411
21978.692
17500.162
13654.546
10440.424
7829.049
5761.5549
4166.7082
2965.8631
2080.9661
1440.5236
982.0632
652.94371
422.34517
270.80558
188.9923
152.25239
133.38499
122.80058
115.2165
109.65012
105.69793
103.03482
101.27143
100.15489
99.559559
52955.164
51527.28
44726.201
37693.979
31639.097
26306.883
21523.04
17268.061
13570.699
10442.402
7880.296
5829.3681
4233.3917
3022.8748
2125.4927
1472.9552
1004.3301
667.8418
431.71586
276.03313
191.2702
153.17074
133.74054
122.99914
115.34363
109.74993
105.76705
103.07677
101.29723
100.17152
99.569122
49477.573
48535.779
42640.249
36152.334
30487.021
25501.305
21014.484
16990.029
13453.348
10428.842
7918.4924
5890.4384
4297.6851
3079.8967
2171.0827
1506.6979
1027.763
683.59436
441.35931
281.59387
193.73383
154.1598
134.11581
123.19486
115.45681
109.85544
105.83973
103.12051
101.32421
100.18878
99.580255
46302.191
45556.606
40479.096
34565.99
29288.906
24641.322
20450.224
16663.032
13299.128
10390.3
7940.9993
5942.9994
4358.4788
3136.3088
2217.4357
1541.6458
1052.3531
700.22355
451.54027
287.50089
196.40697
155.23727
134.54329
123.41181
115.59465
109.96572
105.91404
103.16575
101.35206
100.20688
99.59276
43374.234
42556.682
38203.569
32883.153
28022.294
23719.301
19826.755
16283.86
13103.043
10316.864
7940.4928
5984.6911
4414.4918
3191.4086
2264.2132
1577.6625
1078.0749
717.7384
462.29432
293.81122
199.2803
156.37799
134.99366
123.63764
115.70311
110.07783
105.99164
103.21227
101.38112
100.22546
99.605858
40648.397
39590.539
35810.88
31093.668
26676.853
22729.808
19141.589
15850.542
12863.233
10212.88
7926.465
6014.8603
4464.5678
3244.4307
2311.011
1614.5803
1104.8864
736.13622
473.72202
300.37214
202.40157
157.64004
135.51528
123.85713
115.85127
110.19839
106.06977
103.26109
101.41095
100.24481
99.619192
37978.715
36620.303
33278.636
29174.628
25239.355
21669.442
18394.887
15363.396
12579.305
10076.447
7889.2219
6031.4149
4507.5168
3294.5913
2357.3837
1652.2071
1132.7451
755.42447
485.94853
307.70195
205.70089
158.93935
136.05924
124.1356
115.96665
110.31034
106.15024
103.30996
101.44177
100.26441
99.632502
35249.705
33639.784
30688.554
27167.883
23729.777
20548.979
17593.646
14826.659
12252.882
9906.1729
7824.2526
6030.2435
4541.8906
3341.0951
2402.8779
1690.3359
1161.6223
775.7014
499.13623
315.59159
209.33198
160.41861
136.69443
124.33606
116.11307
110.43714
106.23082
103.36307
101.47353
100.28481
99.645656
32361.882
30659.243
28086.579
25118.511
22173.03
19385.289
16750.474
14248.959
11888.951
9704.7099
7737.201
6018.9005
4567.7965
3383.3533
2447.0569
1728.7366
1191.4177
797.04182
513.35158
323.36099
213.0163
161.91519
137.3464
124.67536
116.26908
110.54199
106.31174
103.41369
101.50538
100.30519
99.658526
29442.314
27804.714
25608.152
23136.58
20639.896
18221.134
15891.63
13646.458
11497.014
9477.1309
7629.3384
5991.0079
4584.56
3420.9005
2489.5259
1767.151
1221.9829
819.2953
528.35721
331.73341
217.23891
163.60211
138.09484
124.88937
116.38825
110.66364
106.39431
103.47124
101.53906
100.32607
99.670948
26682.031
25205.172
23354.344
21300.543
19188.522
17096.522
15045.126
13038.398
11089.525
9230.6448
7503.6785
5947.7397
4591.8231
3453.4449
2529.9764
1805.3542
1253.1994
842.45093
544.22145
340.89237
221.45753
165.30174
138.86327
125.21462
116.60482
110.7664
106.47313
103.52244
101.57048
100.34624
99.68274
24219.686
22941.765
21391.33
19667.844
17867.147
16050.083
14240.076
12445.76
10680.827
8974.2572
7365.2898
5892.9726
4590.1847
3480.8708
2568.1899
1843.1512
1284.9542
866.46828
560.90698
350.66916
226.21399
167.31017
139.71699
125.5786
116.71136
110.86387
106.55687
103.58257
101.60588
100.36654
99.69372
22106.883
21032.844
19731.897
18267.384
16710.358
15113.143
13501.876
11888.463
10285.609
8717.9736
7220.4983
5830.659
4583.6746
3503.9748
2604.1527
1880.3871
1317.1433
891.30878
578.3823
360.74914
231.52465
169.31209
140.612
125.77976
116.94112
110.98586
106.62956
103.63339
101.63488
100.38522
99.703692
20380.61
19482.42
18379.712
17113.961
15740.682
14309.529
12852.205
11384.538
9917.8323
8471.8066
7075.7965
5763.951
4570.6511
3523.1135
2637.9467
1916.9766
1349.6858
916.96498
596.76429
371.65853
236.5481
171.25764
141.39278
126.31649
117.0879
111.04694
106.71026
103.69226
101.67103
100.40356
99.712428
18993.642
18245.508
17305.595
16198.324
14966.193
13657.552
12311.803
10951.932
9591.2707
8245.591
6937.6782
5696.7051
4554.5104
3539.0829
2669.7439
1952.8557
1382.4859
943.40557
616.1429
383.90745
242.2524
173.75652
142.59535
126.57743
117.27597
111.18472
106.77542
103.74303
101.69588
100.41879
99.719641
17867.079
17249.671
16451.468
15481.89
14369.14
13156.871
11890.264
10603.643
9318.0692
8048.4894
6812.2688
5632.6274
4537.1647
3552.6752
2699.695
1987.9357
1415.4139
970.51893
636.38006
397.10581
248.43362
175.80536
143.08254
126.91053
117.55644
111.25293
106.8452
103.79616
101.72875
100.43318
99.724933
16918.785
16416.801
15745.002
14901.425
13900.417
12776.222
11574.676
10339.746
9103.6402
7886.6315
6704.3391
5574.7165
4520.1242
3564.4211
2727.8396
2022.031
1448.2411
998.15011
657.38489
411.07324
254.97584
177.97921
144.21097
127.67081
117.6823
111.35619
106.90913
103.84208
101.74782
100.44378
99.727972
16052.947
15658.91
15105.912
14383.149
13493.568
12460.611
11325.757
10137.722
8938.936
7758.3886
6614.9612
5524.394
4504.405
3574.8624
2754.1477
2054.8838
1480.7008
1026.0994
679.05053
425.85523
262.17036
180.5844
145.29076
127.92829
117.96945
111.50463
106.95936
103.8817
101.77201
100.45258
99.728167
15169.244
14878.34
14441.823
13841.372
13070.361
12141.672
11088.491
9958.0167
8798.8715
7649.9316
6537.2093
5478.0259
4487.4776
3581.7568
2777.1862
2085.6911
1512.3466
1054.075
701.17953
441.21685
269.43381
182.69547
146.07131
128.59439
118.28884
111.54823
107.01263
103.91264
101.78329
100.45606
99.725282
14212.955
14008.165
13679.059
13200.874
12556.975
11748.143
10797.115
9745.3311
8642.4313
7534.5282
6455.5306
5427.193
4464.7201
3581.7258
2795.6441
2113.579
1542.5561
1081.7311
723.6157
457.19609
277.29514
185.0624
147.08274
129.03871
118.43042
111.64134
107.06148
103.93646
101.79238
100.45495
99.718448
13197.458
13049.986
12799.908
12422.743
11898.538
11218.083
10389.854
9443.226
8424.0981
7379.9661
6349.6799
5360.7552
4431.4576
3575.8642
2807.9657
2137.2066
1570.4436
1108.5175
746.11204
473.78322
286.22694
188.02045
148.21053
129.53174
118.83415
111.81787
107.09389
103.94173
101.79126
100.45007
99.70766
12135.967
12024.498
11830.532
11530.951
11105.727
10542.423
9841.7391
9020.8482
8112.542
7158.2548
6198.4565
5264.4233
4378.3545
3556.7315
2808.9551
2154.4536
1595.0016
1133.9492
768.39109
490.80597
295.99318
191.37788
149.3681
130.41119
119.15721
111.82873
107.1305
103.93648
101.78662
100.4419
99.691775
11064.506
10970.196
10812.037
10570.111
10226.26
9766.5453
9185.9206
8492.1901
7707.124
6862.3425
5992.9125
5130.378
4299.4579
3518.9185
2803.1392
2165.9541
1615.9084
1157.6954
790.32155
508.29198
306.73471
195.00365
150.65875
131.01614
119.20153
111.85732
107.13224
103.91787
101.7761
100.42172
99.671168
10047.637
9958.9591
9821.6008
9619.6032
9337.8367
8963.045
8487.2361
7911.2379
7246.8388
6515.4177
5744.7504
4963.4201
4196.4662
3464.5274
2784.8598
2168.6362
1632.2743
1179.4174
811.82604
526.32754
318.76611
199.53572
152.07918
131.21826
119.2889
111.85908
107.09755
103.89282
101.75447
100.40521
99.644789
9151.2645
9062.9535
8936.7787
8760.7437
8522.9241
8211.8905
7818.9309
7340.7034
6781.1382
6153.3409
5477.7877
4777.9562
4077.305
3396.8872
2754.8754
2166.3854
1644.8633
1199.1301
832.77702
544.75394
331.92436
204.65831
153.17043
131.2251
119.29666
111.7898
107.08505
103.83528
101.73627
100.36769
99.613248
8428.6915
8339.0945
8218.3596
8057.8364
7848.2611
7580.235
7245.4834
6838.8367
6360.7431
5818.1323
5224.0748
4596.903
3957.3314
3325.8222
2721.0827
2159.5748
1654.5394
1217.1601
853.0404
563.15353
345.50345
210.09952
153.70324
131.13778
119.22131
111.71734
107.03885
103.77739
101.70443
100.34245
99.576118
7891.8706
7803.6589
7687.9591
7538.5199
7347.8131
7108.1129
6812.1354
6454.6418
6033.7108
5552.1449
5018.6943
4447.6489
3856.8849
3265.642
2692.6055
2154.7788
1664.2
1234.6255
872.79674
581.1677
358.73589
215.01096
153.89964
130.73542
118.9665
111.61433
106.91612
103.73245
101.66206
100.29001
99.533887
7487.7203
7407.9912
7303.523
7169.0618
6997.7303
6782.1993
6515.6574
6192.7826
5810.7217
5370.59
4878.6718
4346.6178
3790.3181
3227.9151
2677.6067
2155.8734
1676.5015
1253.1926
892.92316
599.23667
371.94289
219.97295
154.0704
130.30855
118.77305
111.50662
106.84808
103.6666
101.60808
100.25317
99.486991
7115.2473
7049.3234
6961.8953
6848.1016
6701.5789
6515.1998
6281.5221
5993.946
5648.3969
5244.6195
4786.9702
4285.2157
3754.1846
3211.8009
2676.5004
2164.2556
1694.1058
1274.6367
914.67293
618.44337
386.34982
226.29622
154.50343
130.2244
118.72664
111.46934
106.79899
103.62807
101.56832
100.19587
99.435039
6715.3279
6665.0601
6596.4929
6504.8067
6384.1798
6228.0912
6029.5372
5781.5302
5478.131
5116.1611
4697.3163
4229.0866
3724.4935
3201.2103
2679.9246
2181.2748
1716.3381
1298.9442
938.35072
639.25184
402.64738
234.76216
155.75586
130.42197
118.80195
111.4895
106.7839