/*--------------------------------*- C++ -*----------------------------------*\
| =========                 |                                                 |
| \\      /  F ield         | OpenFOAM: The Open Source CFD Toolbox           |
|  \\    /   O peration     | Version:  2406                                  |
|   \\  /    A nd           | Website:  www.openfoam.com                      |
|    \\/     M anipulation  |                                                 |
\*---------------------------------------------------------------------------*/
FoamFile
{
    version     2.0;
    format      ascii;
    arch        "LSB;label=32;scalar=64";
    class       surfaceScalarField;
    location    "0.096";
    object      phi;
}
// * * * * * * * * * * * * * * * * * * * * * * * * * * * * * * * * * * * * * //

dimensions      [1 0 -1 0 0 0 0];

oriented        oriented;

internalField   nonuniform List<scalar> 
16284
(
0.01048703
-0.014623488
0.015068744
-0.01093227
0.010045744
-0.017170471
0.017611772
0.0095831851
-0.020093103
0.020555673
0.0091025784
-0.023470609
0.023951221
0.0086111567
-0.027372178
0.027863599
0.008119181
-0.031864284
0.032356245
0.0076385674
-0.037022031
0.037502615
0.0071789631
-0.042935795
0.043395352
0.0067461051
-0.049729157
0.050161953
0.0063422544
-0.057543879
0.057947659
0.0059679653
-0.06650788
0.0668821
0.0056187853
-0.07678698
0.077136102
0.0052845344
-0.088546706
0.088880909
0.0049476623
-0.1019116
0.10224843
0.0045793305
-0.116718
0.1170863
0.0041127439
-0.13261358
0.13308016
0.0035355173
-0.14880439
0.14938163
0.0030149431
-0.16612689
0.16664745
0.0026288677
-0.18700221
0.18738827
0.0023009679
-0.21120757
0.21153543
0.0020047851
-0.23877184
0.23906797
0.0017368705
-0.2699992
0.27026708
0.0014903355
-0.30536835
0.30561486
0.0012649603
-0.34541391
0.34563929
0.0010578014
-0.39089164
0.39109885
0.00086819951
-0.44267317
0.44286282
0.0006902978
-0.50147812
0.50165609
0.00051974682
-0.56826908
0.56843964
0.00035170896
-0.64410824
0.64427625
0.00018092558
-0.73040425
0.73057502
-0.82837843
0.82855938
0.011624442
-0.014233418
-0.012014498
0.011186288
-0.016732305
0.010721507
-0.019628316
0.010233906
-0.022983012
0.0097282328
-0.026866518
0.0092137111
-0.031349788
0.0087021584
-0.03651052
0.0082053577
-0.042439054
0.0077294483
-0.049253321
0.0072776154
-0.057092125
0.006852558
-0.066082896
0.0064511973
-0.07638568
0.0060633819
-0.08815894
0.0056657715
-0.10151402
0.0052271723
-0.11627944
0.0046718698
-0.13205828
0.0039974842
-0.14813001
0.0034139754
-0.16554341
0.002981515
-0.18656977
0.0026104411
-0.21083654
0.0022743686
-0.23843582
0.0019703401
-0.26969521
0.0016906983
-0.30508873
0.0014351252
-0.34515833
0.0012003713
-0.39065682
0.00098530946
-0.44245805
0.00078351937
-0.50127626
0.00058989252
-0.56807545
0.00039917611
-0.64391756
0.00020520103
-0.7302103
-0.82817322
0.012760983
-0.013892475
-0.013101921
0.012363356
-0.016334676
0.011922334
-0.019187298
0.011445963
-0.022506654
0.010940742
-0.026361322
0.010415728
-0.030824813
0.0098825522
-0.035977397
0.0093541148
-0.041910686
0.0088387516
-0.048738039
0.0083395788
-0.056593035
0.0078617467
-0.06560514
0.0074034065
-0.0759274
0.006954662
-0.087710244
0.0064869619
-0.10104636
0.0059645497
-0.11575707
0.0053017701
-0.13139552
0.0045187709
-0.14734703
0.0038758422
-0.16490053
0.0033918987
-0.18608586
0.0029710119
-0.2104157
0.0025885045
-0.23805336
0.0022421778
-0.26934892
0.001923677
-0.30477026
0.0016326574
-0.3448673
0.0013656085
-0.3903897
0.0011207812
-0.44221316
0.00089121845
-0.50104661
0.00067087049
-0.56785511
0.00045403838
-0.64370076
0.00023336259
-0.72998964
-0.82793984
0.013913128
-0.013609525
-0.014196086
0.013571488
-0.015993048
0.013175232
-0.01879106
0.012730415
-0.022061864
0.012243736
-0.025874681
0.011723937
-0.030305066
0.011182294
-0.03543582
0.010631765
-0.041360235
0.010082407
-0.048188769
0.0095390251
-0.05604974
0.0090078241
-0.065074016
0.0084883483
-0.075407984
0.0079709117
-0.087192852
0.007422157
-0.10049764
0.0067988659
-0.11513382
0.0060061343
-0.13060281
0.0051025333
-0.14644347
0.0044004662
-0.16419853
0.0038564075
-0.18554184
0.0033785459
-0.20993788
0.0029433048
-0.23761818
0.0025490067
-0.26895466
0.0021865767
-0.30440785
0.00185558
-0.34453629
0.0015522717
-0.39008631
0.0012738833
-0.4419347
0.001013012
-0.50078564
0.0007624454
-0.56760455
0.00051607133
-0.64345443
0.00026510915
-0.72973871
-0.82767472
0.015077367
-0.013393189
-0.015293728
0.014802428
-0.015718137
0.014467261
-0.018455927
0.01407365
-0.021668296
0.013625766
-0.025426848
0.013130445
-0.029809808
0.012597472
-0.034902923
0.01203881
-0.040801659
0.01146525
-0.047615299
0.01088369
-0.055468267
0.010300821
-0.064491221
0.0097172862
-0.074824503
0.0091232648
-0.086598871
0.0084804559
-0.099854874
0.0077339193
-0.11438734
0.0067859313
-0.12965487
0.0057552915
-0.1454129
0.0049946601
-0.16343799
0.004383059
-0.1849303
0.0038413459
-0.20939623
0.0033469725
-0.23712386
0.0028984982
-0.26850623
0.0024862326
-0.30399561
0.0021097654
-0.34415981
0.0017653057
-0.38974175
0.0014485944
-0.44161791
0.0011520217
-0.50048897
0.00086694116
-0.56731949
0.00058692049
-0.64317446
0.00030134788
-0.72945316
-0.82737336
0.016243899
-0.013250734
-0.016386395
0.016045605
-0.015519888
0.015785576
-0.018195949
0.015461186
-0.021343963
0.015072499
-0.025038226
0.014622737
-0.02936012
0.014118625
-0.034398893
0.013569794
-0.040252917
0.012986366
-0.04703196
0.012376279
-0.054858262
0.011746307
-0.063861316
0.011097448
-0.074175691
0.010418839
-0.085920297
0.0096661719
-0.099102251
0.0087676341
-0.11348887
0.0076370439
-0.12852435
0.0064852841
-0.14426125
0.0056648799
-0.16261771
0.0049782589
-0.18424375
0.0043647722
-0.20878279
0.0038041156
-0.23656326
0.0032945798
-0.26799673
0.0028259297
-0.30352699
0.0023979823
-0.34373186
0.00200717
-0.38935083
0.0016469849
-0.44125764
0.0013099428
-0.50015182
0.00098565424
-0.56699522
0.0006674468
-0.64285631
0.00034244315
-0.72912819
-0.82703091
0.017408704
-0.013187006
-0.017472487
0.017294332
-0.015405575
0.017120763
-0.018022442
0.016880718
-0.021103983
0.016569504
-0.024727083
0.016185736
-0.028976431
0.015731706
-0.033944947
0.015213139
-0.039734437
0.014637627
-0.046456532
0.014012238
-0.054232946
0.013342659
-0.063191793
0.01262881
-0.073461877
0.011856772
-0.08514829
0.010974182
-0.098219714
0.0098865074
-0.11240129
0.0085502826
-0.12718825
0.0073033826
-0.14301451
0.0064166976
-0.16173119
0.005648609
-0.18347575
0.0049554075
-0.20808964
0.0043212611
-0.23592917
0.0037435459
-0.26741905
0.0032113899
-0.30299486
0.0027252777
-0.34324573
0.0022823164
-0.38890774
0.0018727623
-0.440848
0.0014897462
-0.4997687
0.0011208376
-0.56662635
0.00075922676
-0.64249476
0.00038920561
-0.72875821
-0.8266417
0.018584485
-0.013202291
-0.018569259
0.018556128
-0.015377279
0.018473115
-0.017939494
0.018325436
-0.020956373
0.018104232
-0.024505953
0.017802951
-0.028675226
0.017418226
-0.033560301
0.016950202
-0.03926649
0.016401752
-0.045908153
0.015776525
-0.053607777
0.01507688
-0.062492187
0.014298889
-0.07268391
0.013421414
-0.084270844
0.012382177
-0.097180546
0.011060385
-0.11107962
0.0095138363
-0.12564188
0.0082166555
-0.14171756
0.0072551428
-0.16076989
0.0063995139
-0.18262023
0.0056190157
-0.20730919
0.0049039526
-0.23521416
0.0042507575
-0.26676589
0.0036474246
-0.30239154
0.0030958868
-0.34269418
0.0025945119
-0.38840623
0.0021291659
-0.44038257
0.0016940433
-0.49933347
0.001274516
-0.56620688
0.00086362604
-0.64208395
0.00044227327
-0.7283369
-0.82619944
0.01978046
-0.013289955
-0.019692842
0.01983428
-0.015431146
0.019840831
-0.017946096
0.019787736
-0.020903335
0.019662805
-0.024381082
0.019454482
-0.028466966
0.019153259
-0.033259143
0.018752524
-0.038865816
0.018248389
-0.045404071
0.017638204
-0.05299763
0.016917699
-0.061771702
0.01607413
-0.071840352
0.015069275
-0.083266026
0.013836706
-0.095948072
0.012241786
-0.10948487
0.010525299
-0.12392565
0.0092253147
-0.14041788
0.0081841708
-0.15972899
0.0072343863
-0.18167057
0.0063609222
-0.20643577
0.0055576425
-0.23441091
0.0048221546
-0.26603044
0.0041398338
-0.30170924
0.0035151409
-0.34206947
0.0029484913
-0.38783944
0.0024203842
-0.43985438
0.0019262093
-0.4988392
0.0014493055
-0.56573006
0.00098243339
-0.64161716
0.00050260426
-0.72785712
-0.82569685
0.021007023
-0.013438241
-0.020858761
0.021131238
-0.015555387
0.021219022
-0.018033911
0.021256014
-0.020940362
0.021225741
-0.024350848
0.021112032
-0.0283533
0.020899682
-0.033046836
0.020574979
-0.038541153
0.02012572
-0.044954845
0.019540024
-0.052411953
0.018802864
-0.061034548
0.017886205
-0.070923702
0.016727483
-0.082107359
0.01522995
-0.09445067
0.01335454
-0.10760969
0.011593832
-0.12216526
0.010318706
-0.1391431
0.0092042183
-0.15861479
0.0081530798
-0.18061958
0.0071858088
-0.20546853
0.0062860524
-0.23351119
0.005462593
-0.26520702
0.0046938211
-0.30094047
0.0039879072
-0.34136354
0.0033485002
-0.3871999
0.002750492
-0.43925629
0.0021895314
-0.49827818
0.0016477909
-0.56518844
0.0011173593
-0.64108681
0.00057110892
-0.72731093
-0.82512576
0.022264501
-0.013641931
-0.022060814
0.022448455
-0.015739346
0.022602053
-0.018187519
0.022710747
-0.021049071
0.022757893
-0.024398012
0.022724899
-0.028320329
0.022591831
-0.032913794
0.022337764
-0.03828711
0.021940495
-0.044557593
0.021375332
-0.051846796
0.020611251
-0.060270465
0.019593873
-0.069906337
0.018215273
-0.080728835
0.016384906
-0.092620468
0.014403691
-0.10562875
0.012797132
-0.12055909
0.011510172
-0.13785654
0.010291546
-0.15739646
0.0091576976
-0.17948586
0.0080762473
-0.20438712
0.0070894857
-0.23252447
0.0061764411
-0.26429405
0.0053147015
-0.30007873
0.0045193547
-0.34056819
0.0037989759
-0.38647943
0.0031241495
-0.4385814
0.0024878116
-0.49764182
0.0018729573
-0.56457375
0.0012703894
-0.64048433
0.00064895844
-0.72668956
-0.82447684
0.023441694
-0.013876615
-0.023207005
0.023664204
-0.015961856
0.023863587
-0.018386903
0.024023956
-0.021209447
0.024127582
-0.02450165
0.024154049
-0.028346813
0.024079594
-0.032839357
0.023876037
-0.038083572
0.023509063
-0.044190634
0.022935607
-0.051273345
0.022099253
-0.059434111
0.020910939
-0.068718047
0.019266387
-0.079084369
0.017252365
-0.090606615
0.015469439
-0.10384613
0.014049449
-0.11913951
0.012706192
-0.1365137
0.011454903
-0.15614546
0.010232062
-0.17826315
0.0090845765
-0.20323965
0.007982375
-0.23142232
0.0069538646
-0.26326568
0.006002474
-0.29912736
0.0051139715
-0.33967971
0.0043034007
-0.38566881
0.0035455662
-0.43782355
0.0028246433
-0.49692094
0.0021276599
-0.56387698
0.0014434345
-0.6398002
0.00073726906
-0.72598346
-0.82373963
0.024360673
-0.014112907
-0.024124376
0.024585541
-0.016186722
0.024787527
-0.01858889
0.024953764
-0.021375692
0.025067083
-0.024614983
0.02510565
-0.0283854
0.025041697
-0.03277543
0.024838197
-0.0378801
0.024445443
-0.043797905
0.02379588
-0.0506238
0.02280469
-0.058442929
0.021408935
-0.06732232
0.019714156
-0.077389664
0.018090323
-0.088982923
0.016660716
-0.10241681
0.015315413
-0.11779461
0.013997742
-0.13519643
0.012666316
-0.15481434
0.011373513
-0.17697049
0.010122043
-0.2019882
0.0089452044
-0.23024554
0.0078265862
-0.26214726
0.0067593669
-0.29806024
0.0057764243
-0.33869683
0.0048660754
-0.38475843
0.0040184473
-0.43697605
0.003203844
-0.49610643
0.0024148761
-0.56308828
0.0016386085
-0.63902403
0.00083725148
-0.72518218
-0.82290246
0.024197259
-0.014311913
-0.023998251
0.024384328
-0.016373801
0.024550911
-0.018755489
0.024692749
-0.021517559
0.024799495
-0.02472177
0.024840578
-0.028426534
0.02477274
-0.03270765
0.024547907
-0.037655334
0.024115662
-0.04336573
0.023422795
-0.049930998
0.022451825
-0.057472004
0.021281377
-0.06615191
0.020112528
-0.076220895
0.018999706
-0.087870215
0.017839972
-0.10125726
0.016577779
-0.11653269
0.015243251
-0.13386222
0.01389937
-0.1534708
0.01255814
-0.17562951
0.01125844
-0.20068857
0.0099763812
-0.22896354
0.0087482682
-0.26091937
0.0076002335
-0.29691239
0.0065146497
-0.3376114
0.0054969293
-0.38374078
0.0045406987
-0.43602006
0.0036259418
-0.49519185
0.0027376085
-0.56220025
0.001857826
-0.63814435
0.00094985543
-0.72427429
-0.82195273
0.023088172
-0.01455445
-0.022845624
0.02331573
-0.016601346
0.023506072
-0.018945811
0.02362837
-0.021639831
0.023656569
-0.024749942
0.023589442
-0.028359389
0.023427153
-0.032545363
0.023179254
-0.037407467
0.022860256
-0.043046801
0.022449075
-0.049519928
0.021961128
-0.056984176
0.02141206
-0.065602955
0.020775168
-0.07558412
0.01995588
-0.087051038
0.018929703
-0.10023116
0.017755641
-0.11535865
0.01648129
-0.13258789
0.015136123
-0.15212585
0.013774583
-0.17426836
0.012407348
-0.1993216
0.011073995
-0.22763032
0.0097694652
-0.25961507
0.0084956292
-0.29563874
0.0073097451
-0.33642575
0.0061935464
-0.38262483
0.0051282649
-0.43495515
0.0041024599
-0.49416629
0.0030961148
-0.56119421
0.0021020436
-0.63715039
0.0010760268
-0.72324837
-0.82087688
0.020732756
-0.014856867
-0.020430338
0.021063858
-0.016932448
0.021424729
-0.019306683
0.021811102
-0.02202621
0.022195752
-0.025134604
0.022538612
-0.02870226
0.022782172
-0.032788932
0.022820685
-0.037445976
0.022638409
-0.042864545
0.022340402
-0.049222002
0.022053795
-0.056697673
0.021743356
-0.065292597
0.021311424
-0.075152215
0.020689794
-0.086429518
0.019870555
-0.099412069
0.018835894
-0.11432388
0.017635072
-0.13138673
0.016340735
-0.15083127
0.014991725
-0.17291965
0.013618873
-0.19794925
0.012217541
-0.2262293
0.010826245
-0.25822408
0.0094858245
-0.29429862
0.008186308
-0.33512647
0.0069530974
-0.38139196
0.0057688109
-0.43377148
0.0046229341
-0.49302074
0.0035013272
-0.56007292
0.0023750426
-0.63602422
0.001216675
-0.72209012
-0.81966045
0.01919178
-0.015095856
-0.018952793
0.019450045
-0.017190721
0.019727958
-0.019584614
0.020023177
-0.022321455
0.020339552
-0.025451015
0.020677188
-0.029039944
0.021063627
-0.033175439
0.021563719
-0.037946165
0.022050704
-0.043351625
0.022329835
-0.0495011
0.022254412
-0.056622107
0.02196058
-0.064998543
0.021604565
-0.074795734
0.02119875
-0.08602375
0.020628182
-0.098842008
0.019790913
-0.11348672
0.018728698
-0.13032408
0.017508284
-0.14960996
0.016200621
-0.17161158
0.014810291
-0.19655937
0.013393552
-0.22481323
0.011955734
-0.25678679
0.010509693
-0.29285303
0.0091205401
-0.33373766
0.0077871907
-0.38005914
0.0064792928
-0.43246439
0.0052031065
-0.49174501
0.003943939
-0.55881411
0.0026758186
-0.63475622
0.0013723977
-0.72078685
-0.81828837
0.018973713
-0.015338343
-0.018731259
0.019234148
-0.017451201
0.019511933
-0.019862462
0.019806938
-0.022616548
0.020121773
-0.02576597
0.020453678
-0.029372011
0.02078268
-0.033504654
0.021081726
-0.038245469
0.021407722
-0.04367791
0.021863824
-0.049957525
0.022300769
-0.057059307
0.022373718
-0.065071353
0.022053624
-0.074474599
0.021621639
-0.085590596
0.021110226
-0.098330446
0.02049331
-0.11286995
0.019656219
-0.12948671
0.018591863
-0.14854435
0.017363061
-0.17038145
0.016021516
-0.19521755
0.014585464
-0.22337791
0.013095443
-0.25529766
0.01159994
-0.29135826
0.010110738
-0.33224903
0.0086781933
-0.37862736
0.007247911
-0.43103511
0.0058309652
-0.49032871
0.0044304138
-0.55741398
0.0030133636
-0.63333935
0.0015446114
-0.71931826
-0.81674413
0.018149867
-0.015569132
-0.01791917
0.018403489
-0.017704935
0.018679932
-0.02013906
0.018978009
-0.022914834
0.019293685
-0.02608193
0.019618545
-0.029697258
0.019939392
-0.033826016
0.020237395
-0.038544136
0.02050615
-0.043947474
0.020688687
-0.050140925
0.020916485
-0.057287737
0.021443234
-0.065597876
0.021890726
-0.074921916
0.021856072
-0.085555715
0.021521632
-0.097993194
0.020995623
-0.11234214
0.020355206
-0.12884603
0.019542108
-0.14772994
0.018456479
-0.16929403
0.017162856
-0.19392276
0.01573958
-0.2219546
0.014240176
-0.25379913
0.012704202
-0.28982336
0.011151967
-0.3306977
0.00961961
-0.37709599
0.0080725015
-0.4294891
0.0065150507
-0.48877219
0.0049524441
-0.55585197
0.0033726419
-0.63175981
0.0017323371
-0.7176781
-0.81501218
0.017842
-0.015786422
-0.017624775
0.018080568
-0.017943594
0.018341578
-0.020400202
0.018625672
-0.02319911
0.018933555
-0.026390067
0.019266741
-0.030030796
0.019628782
-0.034188529
0.020024687
-0.038940659
0.020450461
-0.044373971
0.02089642
-0.050587548
0.021295285
-0.05768679
0.021495127
-0.065796905
0.021719656
-0.075143228
0.021974541
-0.085805998
0.02184642
-0.097863263
0.021426962
-0.11192355
0.020897076
-0.12831726
0.020219874
-0.14705087
0.019345707
-0.16841682
0.018216205
-0.19279182
0.016861319
-0.22059896
0.015348909
-0.25228664
0.01380096
-0.28827602
0.012203518
-0.32910124
0.01058847
-0.37548221
0.0089245709
-0.42782627
0.0072292269
-0.48707803
0.0055100877
-0.55413369
0.0037611887
-0.6300113
0.0019351417
-0.71585212
-0.8130774
0.016846751
-0.015987452
-0.016645482
0.017069533
-0.018166088
0.017314547
-0.020644851
0.017582089
-0.023466184
0.017871325
-0.026678709
0.018179536
-0.030338256
0.018500701
-0.034508769
0.018824972
-0.039263846
0.019142075
-0.044689934
0.019444809
-0.050889403
0.019741544
-0.057983533
0.020049417
-0.066106502
0.02027913
-0.075376343
0.020505686
-0.086033841
0.020999153
-0.098353705
0.02128354
-0.11220695
0.021046562
-0.12808107
0.02057945
-0.14658512
0.019898366
-0.1677367
0.018993039
-0.19188647
0.017824463
-0.21943003
0.016398524
-0.25085956
0.014842514
-0.28671897
0.013245382
-0.32750416
0.011565801
-0.37380378
0.0097955385
-0.42605704
0.0079656568
-0.48524944
0.0060804721
-0.55224956
0.0041579525
-0.62808931
0.002148175
-0.71384228
-0.81092953
0.016432596
-0.016178141
-0.016241758
0.016644262
-0.018377555
0.016878469
-0.020878796
0.017136638
-0.023724013
0.017420085
-0.026961709
0.017730027
-0.030647607
0.018067865
-0.034845836
0.018435075
-0.039630061
0.018830485
-0.04508412
0.019245429
-0.05130297
0.019657747
-0.058394602
0.020037123
-0.066485355
0.020396443
-0.075736733
0.020639563
-0.086280868
0.020595814
-0.098315092
0.020703997
-0.11231466
0.020848719
-0.12822416
0.020529046
-0.14627095
0.020069016
-0.16728174
0.019426146
-0.1912449
0.018517436
-0.2185206
0.017269957
-0.24961061
0.015804184
-0.28525043
0.014225199
-0.32592309
0.012479387
-0.37205815
0.010629064
-0.42420756
0.0086896269
-0.48331115
0.0066624397
-0.55022338
0.0045633618
-0.62599078
0.0023663157
-0.71164502
-0.80856345
0.015291119
-0.016356121
-0.01511314
0.015489521
-0.018575956
0.015709701
-0.021098964
0.01595292
-0.023967207
0.016219951
-0.02722869
0.016510719
-0.030938295
0.016823889
-0.035158881
0.017156522
-0.03996251
0.017504087
-0.04543144
0.017863485
-0.051662077
0.018235815
-0.058766672
0.018623096
-0.066872587
0.019010248
-0.076124396
0.019456025
-0.086728189
0.019980549
-0.098842289
0.020278727
-0.1126156
0.02049499
-0.12844254
0.02054725
-0.14632488
0.020042098
-0.1667806
0.019381076
-0.19058757
0.018665887
-0.21780653
0.017795802
-0.24874011
0.016575896
-0.28402817
0.01508972
-0.32443342
0.01332563
-0.3702927
0.01139848
-0.42228029
0.0093476049
-0.48126085
0.0072008247
-0.54807736
0.0049510368
-0.62374151
0.0025784485
-0.70927208
-0.80598507
0.014756027
-0.01651756
-0.014594647
0.014935989
-0.018755982
0.015136303
-0.021299349
0.015358592
-0.024189576
0.015604411
-0.027474599
0.01587516
-0.031209144
0.016171992
-0.03545583
0.016495919
-0.040286579
0.016848515
-0.045784223
0.017229851
-0.052043676
0.017635983
-0.059173195
0.018059355
-0.067296557
0.018487734
-0.076553676
0.018845444
-0.087087059
0.019105776
-0.09910422
0.01929047
-0.11280221
0.019241652
-0.12839434
0.019366604
-0.14644894
0.019603412
-0.16701685
0.019228838
-0.19021367
0.018596876
-0.21717574
0.017872822
-0.24801837
0.016993293
-0.28315
0.015686634
-0.32312552
0.013952999
-0.36855747
0.011993845
-0.42031984
0.0099001715
-0.47916677
0.0076821496
-0.54585968
0.005304956
-0.62136466
0.0027720675
-0.70673875
-0.80321269
0.013317523
-0.016657806
-0.013177325
0.013474286
-0.018912792
0.013648952
-0.021474068
0.013842977
-0.024383657
0.014057745
-0.027689429
0.014294197
-0.031445667
0.014552566
-0.035714286
0.014831834
-0.040565949
0.01512984
-0.046082349
0.015442736
-0.052356697
0.015765236
-0.059495818
0.016091496
-0.067622916
0.016418878
-0.076881102
0.016778142
-0.087446302
0.017166792
-0.09949257
0.017616953
-0.11325175
0.018181478
-0.1289586
0.018556938
-0.14682384
0.018793583
-0.16725209
0.019029927
-0.19044616
0.018636758
-0.21677592
0.017799845
-0.24718016
0.01690779
-0.28226423
0.01576425
-0.32198683
0.014186805
-0.36698287
0.012360857
-0.41849411
0.010262139
-0.477067
0.0080118517
-0.54360922
0.0055737137
-0.61892654
0.0029237284
-0.70408821
-0.80028817
0.01281491
-0.016776508
-0.012696164
0.012947772
-0.019045595
0.01309618
-0.021622386
0.013261401
-0.02454875
0.013444662
-0.027872509
0.013647473
-0.031648226
0.013871829
-0.035938294
0.01412039
-0.040814032
0.01439552
-0.046356837
0.014699465
-0.052659793
0.015034159
-0.059829414
0.015399633
-0.067987012
0.01578913
-0.077268959
0.016170916
-0.087826332
0.016523765
-0.099843902
0.016792776
-0.11351986
0.016928732
-0.1290947
0.016949167
-0.1468455
0.01673216
-0.16703431
0.016646016
-0.19036136
0.016962804
-0.21709822
0.016990093
-0.24720515
0.016260902
-0.28152949
0.015232498
-0.32095798
0.013915452
-0.36567263
0.012291129
-0.41687547
0.010354513
-0.47513143
0.0081540086
-0.54140836
0.0057177244
-0.61648998
0.0030137967
-0.70138376
-0.79727323
0.011434781
-0.016874263
-0.011336987
0.011545163
-0.019155929
0.011669433
-0.021746598
0.011808985
-0.024688233
0.011965033
-0.028028472
0.012138645
-0.031821737
0.012330453
-0.036129978
0.012540268
-0.041023698
0.012766782
-0.046583172
0.013007084
-0.052899882
0.013256111
-0.060078191
0.013506957
-0.068237569
0.013753066
-0.077514733
0.013993522
-0.088066367
0.014229031
-0.1000789
0.014481379
-0.11377178
0.014780558
-0.12939357
0.015177924
-0.14724338
0.015705038
-0.16756441
0.01596018
-0.19061882
0.015734636
-0.21687625
0.0155088
-0.24698427
0.015109819
-0.28113263
0.014148502
-0.31999816
0.013114769
-0.36463287
0.011768313
-0.4155296
0.01007086
-0.47343802
0.0080193988
-0.53935698
0.0056806902
-0.61415118
0.0030188931
-0.69872242
-0.79425363
0.011342321
-0.016948721
-0.011268219
0.011425113
-0.019239133
0.011517717
-0.021839676
0.011621337
-0.024792401
0.011737505
-0.028145263
0.011867875
-0.031952813
0.012014269
-0.036277163
0.012178736
-0.041189037
0.012363661
-0.046769031
0.012571911
-0.053109093
0.012806943
-0.060314151
0.013072338
-0.068503767
0.013370631
-0.077813593
0.013699516
-0.088395482
0.014045783
-0.1004249
0.014378595
-0.1141038
0.014629104
-0.12964287
0.01469168
-0.14730419
0.01459953
-0.1674707
0.014416393
-0.19043477
0.014171562
-0.21662973
0.013717838
-0.24653405
0.013305623
-0.28072573
0.012806073
-0.31950269
0.012020622
-0.36385095
0.010846591
-0.41435295
0.0094362106
-0.47202726
0.0076177095
-0.53753644
0.00542728
-0.61196082
0.0029038568
-0.69620125
-0.79135016
0.010340563
-0.017005415
-0.010284248
0.010403903
-0.019302912
0.010474858
-0.021911141
0.010554085
-0.02487222
0.010642178
-0.028234043
0.010739603
-0.032051037
0.010846611
-0.036385089
0.01096306
-0.041306535
0.011088178
-0.046895334
0.011220221
-0.05324245
0.01135609
-0.060451443
0.01149133
-0.068640493
0.011621192
-0.07794493
0.011739665
-0.088515305
0.011841451
-0.10052782
0.011923899
-0.11418701
0.012015229
-0.12973464
0.012141486
-0.14743079
0.012239464
-0.16756854
0.012324405
-0.19051963
0.012359993
-0.21666535
0.01226552
-0.2464371
0.011873697
-0.28033216
0.01138141
-0.31900931
0.010681768
-0.36314673
0.0097489981
-0.41341958
0.0084569104
-0.47073144
0.0068656537
-0.53594091
0.0049125808
-0.61000656
0.0026482877
-0.69393752
-0.78870226
0.0098636714
-0.017032161
-0.0098369895
0.0098933952
-0.01933272
0.0099260655
-0.021943925
0.0099617974
-0.024908104
0.010000634
-0.028273083
0.010042532
-0.032093203
0.01008735
-0.036430261
0.010134879
-0.041354525
0.010184911
-0.046945957
0.010237367
-0.053295658
0.010292435
-0.060507444
0.010350625
-0.068699813
0.010413794
-0.078009424
0.010489484
-0.088592495
0.010584702
-0.10062467
0.010693741
-0.11429778
0.010798501
-0.12984109
0.010885073
-0.14751888
0.010947465
-0.16763225
0.010962332
-0.19053532
0.010919932
-0.216623
0.010825714
-0.2463427
0.010606036
-0.28011131
0.010118747
-0.31851941
0.0093852199
-0.36241081
0.008476496
-0.41250585
0.0073421742
-0.46959279
0.0059487499
-0.5345502
0.0042752321
-0.60833347
0.0022948216
-0.69195456
-0.78640769
0.0096032263
-0.0095980279
0.0096091099
0.0096161921
0.0096247702
0.0096351999
0.0096479044
0.0096633663
0.0096821052
0.009704612
0.0097312226
0.0097619181
0.0097960651
0.0098315252
0.0098651385
0.0098874616
0.0098974231
0.0098921985
0.009864702
0.0098050512
0.0096924429
0.0095008655
0.0091998838
0.0088353523
0.0084489804
0.007950481
0.0072610825
0.0063365734
0.005157749
0.0037159462
0.0019978229
0.011415521
-0.011180026
0.0087368423
-0.0089723716
0.013250618
-0.014468933
0.012633832
0.014611114
-0.017757723
0.016397287
0.015690578
-0.021376772
0.020297336
0.01662973
-0.025512812
0.024573633
0.017494169
-0.030287278
0.029422801
0.018292853
-0.035775998
0.034977264
0.019043232
-0.042051165
0.041300724
0.019746086
-0.049261132
0.048558211
0.020378544
-0.057519622
0.056887097
0.020922175
-0.066955629
0.066411928
0.021366148
-0.077726317
0.077282268
0.021701697
-0.090009435
0.089673795
0.021917356
-0.10398066
0.1037649
0.021996101
-0.11981626
0.11973742
0.021877728
-0.13754534
0.13766365
0.021500725
-0.15696963
0.15734663
0.020761786
-0.17761561
0.17835453
0.019587333
-0.19829068
0.19946513
0.018337054
-0.220046
0.2212963
0.017208863
-0.24607843
0.24720663
0.016078395
-0.27654108
0.27767155
0.014880212
-0.31138013
0.31257831
0.013586195
-0.35090692
0.35220096
0.01218166
-0.39588638
0.39729096
0.010650471
-0.44708904
0.44862027
0.0089667533
-0.50544479
0.50712851
0.0070987337
-0.57190006
0.57376802
0.005010255
-0.64756342
0.64965183
0.0026595054
-0.73384232
0.73619307
-0.83204292
0.83470248
0.012710724
-0.0127118
-0.011178965
0.013744781
-0.015502982
0.014587908
-0.018600842
0.015367883
-0.022156762
0.016136813
-0.026281778
0.016896562
-0.031047073
0.017628693
-0.036508182
0.018324974
-0.042747503
0.018967342
-0.04990356
0.019534168
-0.058086507
0.02001454
-0.067436065
0.020401336
-0.078113188
0.020686876
-0.090295068
0.020859937
-0.10415383
0.020902653
-0.11985907
0.020748014
-0.13739077
0.020341755
-0.15656336
0.01957328
-0.17684714
0.01840107
-0.19711847
0.017222922
-0.21886789
0.016165664
-0.24502116
0.015096675
-0.2754721
0.013962162
-0.31024562
0.012739072
-0.3496838
0.011414448
-0.3945617
0.0099738259
-0.44564838
0.0083925569
-0.50386353
0.006641031
-0.5701486
0.0046850909
-0.64560753
0.0024864081
-0.73164364
-0.82955639
0.012342169
-0.01354541
-0.011508561
0.013071814
-0.016232641
0.013808766
-0.019337816
0.014574305
-0.022922328
0.015344574
-0.027052087
0.016088985
-0.031791537
0.016790725
-0.037209977
0.017445003
-0.043401835
0.018033748
-0.050492357
0.018545938
-0.058598751
0.018974477
-0.067864662
0.019314195
-0.07845298
0.019558234
-0.090539199
0.019695887
-0.10429159
0.019708327
-0.1198716
0.019525138
-0.13720764
0.019099217
-0.15613744
0.018308291
-0.17605623
0.017157932
-0.1959681
0.016061251
-0.21777121
0.015071998
-0.2440319
0.014064677
-0.27446479
0.012996403
-0.30917735
0.011847659
-0.34853502
0.010606906
-0.39332089
0.0092613638
-0.44430281
0.0077878715
-0.50239005
0.0061589017
-0.56851968
0.0043426476
-0.64379133
0.0023034703
-0.72960446
-0.82725279
0.011461896
-0.014285993
-0.010721336
0.012227179
-0.016997949
0.013002156
-0.020112826
0.013769098
-0.023689309
0.014511373
-0.027794408
0.015214337
-0.032494553
0.015869196
-0.037864889
0.016470059
-0.044002747
0.017003326
-0.05102567
0.017461494
-0.059056964
0.017839829
-0.06824305
0.018134525
-0.078747745
0.018339232
-0.090743995
0.018443206
-0.10439566
0.018421697
-0.11985017
0.018213493
-0.13699948
0.017777515
-0.15570145
0.016972478
-0.17525121
0.015857588
-0.19485319
0.014841756
-0.21675537
0.013919356
-0.24310951
0.012976505
-0.27352195
0.011978318
-0.30817918
0.010908395
-0.34746507
0.0097565294
-0.39216897
0.0085116399
-0.44305788
0.0071520337
-0.50103045
0.0056523489
-0.56702005
0.0039832079
-0.64212224
0.0021118048
-0.72773306
-0.8251409
0.010563107
-0.01507616
-0.0097729952
0.01134881
-0.017783691
0.012119306
-0.020883363
0.012866155
-0.024436201
0.013577684
-0.028505986
0.014242124
-0.033159043
0.014852091
-0.038474904
0.015401277
-0.044551976
0.015881173
-0.051505604
0.016287605
-0.059463434
0.016618079
-0.068573571
0.016870009
-0.078999742
0.017037479
-0.090911554
0.017109455
-0.10446774
0.01705561
-0.11979641
0.016828351
-0.13677226
0.016385227
-0.15525832
0.015571999
-0.174438
0.014504874
-0.19378603
0.013571558
-0.21582205
0.01271673
-0.24225469
0.011840872
-0.27264612
0.010916018
-0.30725433
0.0099286421
-0.34647766
0.0088697702
-0.39111003
0.0077300629
-0.44191814
0.0064893728
-0.49978978
0.0051245971
-0.56565531
0.0036088318
-0.64060652
0.0019122881
-0.72603651
-0.82322856
0.0096275903
-0.015880651
-0.0088231359
0.010412206
-0.018568343
0.011170581
-0.021641781
0.011893577
-0.025159245
0.01256987
-0.029182329
0.013190938
-0.03378016
0.0137518
-0.03903581
0.014247992
-0.045048205
0.014675089
-0.05193273
0.0150314
-0.059819776
0.015316021
-0.068858235
0.01552727
-0.079211055
0.015659664
-0.091044034
0.015702122
-0.10451029
0.015620333
-0.11971469
0.015381352
-0.1365333
0.014931178
-0.15480813
0.014114295
-0.17362112
0.01310679
-0.1927785
0.012255377
-0.21497063
0.011468061
-0.24146739
0.010661266
-0.27183936
0.0098126677
-0.30640574
0.0089112667
-0.34557622
0.0079492447
-0.39014795
0.0069190121
-0.44088787
0.0058019951
-0.49867277
0.0045774166
-0.56443077
0.0032208858
-0.63925003
0.0017057476
-0.72452138
-0.82152278
0.0086569815
-0.01669295
-0.0078446932
0.0094361102
-0.019347506
0.010174231
-0.022379945
0.010863271
-0.025848336
0.01149613
-0.02981524
0.012068041
-0.034352121
0.012576139
-0.039543949
0.013018341
-0.045490436
0.013393152
-0.052307564
0.013700657
-0.060127304
0.013941109
-0.069098725
0.014113532
-0.07938354
0.014213061
-0.091143647
0.014229208
-0.10452653
0.014126358
-0.11961191
0.013884241
-0.13629118
0.013426389
-0.15435025
0.012607747
-0.17280249
0.011669508
-0.19184022
0.010898411
-0.21419955