/*--------------------------------*- C++ -*----------------------------------*\
| =========                 |                                                 |
| \\      /  F ield         | OpenFOAM: The Open Source CFD Toolbox           |
|  \\    /   O peration     | Version:  2406                                  |
|   \\  /    A nd           | Website:  www.openfoam.com                      |
|    \\/     M anipulation  |                                                 |
\*---------------------------------------------------------------------------*/
FoamFile
{
    version     2.0;
    format      ascii;
    arch        "LSB;label=32;scalar=64";
    class       volVectorField;
    location    "0.096";
    object      U;
}
// * * * * * * * * * * * * * * * * * * * * * * * * * * * * * * * * * * * * * //

dimensions      [0 1 -1 0 0 0 0];

internalField   nonuniform List<vector> 
8260
(
(40.18139 29.050814 0)
(41.560293 27.760023 -2.4744662e-20)
(42.87567 26.46994 2.1382215e-20)
(44.149004 25.176941 -3.6577059e-20)
(45.377656 23.842044 1.5511485e-20)
(46.543908 22.48326 -2.6181753e-20)
(47.636589 21.136813 -1.0936032e-20)
(48.64732 19.835809 -1.4604666e-23)
(49.611456 18.604597 4.907214e-21)
(50.568855 17.443532 0)
(51.463601 16.368355 4.6242561e-20)
(52.316751 15.371598 0)
(53.120215 14.434226 0)
(53.838036 13.520146 -7.1061807e-20)
(54.307034 12.570469 1.8685139e-23)
(54.360763 11.493996 0)
(53.755258 9.9927978 0)
(52.862138 8.3577569 6.816469e-19)
(52.400703 7.2051019 5.7111738e-21)
(52.131328 6.2926278 -6.9399018e-19)
(51.918792 5.4493091 -1.2625688e-18)
(51.721637 4.7153979 -1.1376076e-18)
(51.536641 4.0298249 -2.0635368e-18)
(51.35943 3.4183762 1.8478314e-18)
(51.207283 2.8536949 1.6425955e-18)
(51.092697 2.3483172 0)
(50.995777 1.8870101 2.5881254e-18)
(50.915371 1.4523103 2.2844006e-18)
(50.84765 1.0412762 4.0332434e-18)
(50.804382 0.62798357 0)
(50.767268 0.215937 5.6217324e-18)
(39.182859 28.277318 2.4237559e-20)
(40.621781 27.109705 -1.745204e-23)
(41.989119 26.002595 -1.8851214e-20)
(43.319646 24.861164 4.9607358e-20)
(44.614522 23.661996 0)
(45.858139 22.422167 2.4704569e-20)
(47.0368 21.171892 4.2371818e-20)
(48.144232 19.942272 2.7149685e-20)
(49.196839 18.758544 -3.1028501e-20)
(50.214117 17.626925 1.3361699e-20)
(51.172204 16.558814 -5.2409827e-20)
(52.07659 15.555408 0)
(52.916645 14.601186 0)
(53.652005 13.66513 1.4629246e-19)
(54.121277 12.661895 -1.5286242e-19)
(54.142974 11.544667 1.8946009e-19)
(53.5196 9.9558129 2.6348958e-24)
(52.676424 8.3271399 -2.1413797e-20)
(52.283262 7.197438 2.225239e-20)
(52.045455 6.2904037 -6.64976e-19)
(51.851113 5.4466564 -9.4952028e-21)
(51.667994 4.7129722 1.1018405e-18)
(51.493365 4.02774 1.981503e-18)
(51.324823 3.4164672 -3.4650387e-21)
(51.179649 2.8528861 6.2013479e-21)
(51.070759 2.3479052 -2.7424655e-21)
(50.977876 1.8869927 -2.4889175e-18)
(50.900447 1.4523666 -2.2010942e-18)
(50.834861 1.0412149 -3.8937361e-18)
(50.793037 0.62766983 3.4377595e-18)
(50.758244 0.21562736 -6.0667753e-18)
(38.142317 27.229395 -2.0341738e-20)
(39.561517 26.287916 1.825924e-20)
(40.973869 25.385488 0)
(42.36865 24.418168 -3.0182791e-20)
(43.73634 23.374545 2.6956239e-20)
(45.062023 22.272024 0)
(46.331212 21.136318 -4.1709008e-20)
(47.53508 19.99554 -9.1027373e-21)
(48.679564 18.875137 3.9676986e-20)
(49.773714 17.785061 0)
(50.803859 16.735551 4.9099051e-20)
(51.76804 15.733186 0)
(52.653072 14.765966 0)
(53.412879 13.807757 -7.4799599e-20)
(53.890676 12.753901 -5.2588457e-21)
(53.89045 11.587556 -2.0935934e-19)
(53.256682 9.9013482 2.8090159e-19)
(52.483745 8.3142083 -1.36227e-18)
(52.156657 7.2128585 0)
(51.948732 6.3097028 6.2943419e-19)
(51.774027 5.4630465 0)
(51.606931 4.7267788 -8.0526354e-21)
(51.444271 4.039152 1.4427902e-20)
(51.285643 3.425198 -1.2879824e-20)
(51.148197 2.8604842 -1.4601416e-18)
(51.045631 2.3537399 0)
(50.957383 1.8916215 0)
(50.883381 1.4558207 1.9884536e-21)
(50.820269 1.0435605 -1.7566791e-21)
(50.780121 0.62918398 -3.1764622e-18)
(50.746112 0.21627607 -4.2729876e-23)
(37.27308 26.04214 6.7728707e-20)
(38.646344 25.321381 -4.6757806e-20)
(40.054277 24.621623 2.9369399e-20)
(41.472428 23.841101 2.724054e-20)
(42.88249 22.969071 -7.4870174e-20)
(44.266662 22.020341 -2.2592974e-20)
(45.607972 21.016724 2.0270609e-20)
(46.8934 19.982415 -1.8055683e-20)
(48.120425 18.941167 1.6044382e-20)
(49.29091 17.906155 0)
(50.391939 16.888221 5.1247868e-20)
(51.416651 15.896065 0)
(52.348052 14.921118 -8.7729155e-20)
(53.131691 13.941438 0)
(53.615474 12.838659 -1.8395716e-19)
(53.588347 11.611748 6.9461866e-21)
(52.951161 9.8258773 4.4005754e-23)
(52.268012 8.3046752 6.5958918e-19)
(52.011347 7.224581 -6.4416215e-19)
(51.837281 6.3240591 0)
(51.685136 5.4742624 -1.0616399e-18)
(51.53642 4.7356718 -7.4477223e-21)
(51.387558 4.0462665 6.6510405e-21)
(51.240405 3.4301406 -1.5163786e-18)
(51.112048 2.8652913 0)
(51.01682 2.3574485 0)
(50.93393 1.8947024 0)
(50.863859 1.4581836 -1.8647784e-18)
(50.80362 1.0450995 0)
(50.765384 0.63005035 2.9075684e-18)
(50.732758 0.21657247 5.1303451e-18)
(36.588526 24.758138 -1.397829e-20)
(37.895133 24.236014 0)
(39.262163 23.725109 -2.5491667e-20)
(40.666009 23.13044 2.4320835e-20)
(42.085553 22.437252 2.2845091e-20)
(43.500215 21.654147 4.2329855e-20)
(44.8902 20.797475 1.9415762e-20)
(46.2384 19.886327 -1.7676094e-20)
(47.534645 18.941004 -1.6008353e-20)
(48.773234 17.976231 8.7032329e-20)
(49.939955 17.003722 -1.3193874e-20)
(51.022734 16.032374 0)
(51.999266 15.056536 1.7452657e-19)
(52.804144 14.056783 -4.5720533e-24)
(53.287857 12.9051 2.1172178e-19)
(53.227906 11.600109 1.5006648e-20)
(52.598589 9.7299036 -3.2094526e-19)
(52.034343 8.2942888 6.2055053e-19)
(51.848413 7.2329593 6.3726341e-19)
(51.711038 6.3370665 2.3638421e-24)
(51.584227 5.4855338 9.6083278e-19)
(51.456299 4.7455033 8.7327423e-19)
(51.323166 4.0548812 6.0776171e-21)
(51.189103 3.4364116 1.3772151e-18)
(51.071071 2.8716497 1.2256072e-18)
(50.984071 2.3624191 0)
(50.907284 1.8988221 -3.7462237e-21)
(50.841651 1.4613905 1.697593e-18)
(50.784705 1.0472242 -2.9918545e-18)
(50.748628 0.6313548 -2.6411986e-18)
(50.71721 0.21708947 5.6872179e-22)
(36.103533 23.400976 2.3016961e-20)
(37.325421 23.05607 -2.2154783e-20)
(38.623837 22.71614 -2.1945228e-20)
(39.980765 22.296822 4.2881771e-20)
(41.376548 21.78008 -4.1250248e-20)
(42.790168 21.166929 0)
(44.200344 20.466629 0)
(45.586868 19.691939 0)
(46.933321 18.858201 3.157701e-20)
(48.226584 17.979111 3.5007031e-23)
(49.449487 17.066111 -5.3988155e-20)
(50.584137 16.127055 1.1420149e-19)
(51.601389 15.158344 -2.0805215e-19)
(52.422308 14.139774 -1.1122451e-19)
(52.89613 12.937207 2.6741034e-20)
(52.799708 11.531843 -1.5939522e-20)
(52.198549 9.6133555 1.8751436e-20)
(51.7813 8.2806134 -6.201379e-19)
(51.665067 7.2356736 -1.7261419e-20)
(51.567875 6.3459459 -4.972106e-19)
(51.469567 5.4938866 -8.7590044e-19)
(51.365044 4.7531537 -1.5871542e-18)
(51.249762 4.0620961 -1.4218601e-18)
(51.130608 3.441288 -8.2196295e-25)
(51.024455 2.8773521 8.6903637e-21)
(50.946769 2.3669041 1.9602206e-18)
(50.876978 1.9026415 0)
(50.816354 1.4644735 1.5323828e-18)
(50.763195 1.0492204 2.697336e-18)
(50.729552 0.63254493 0)
(50.699723 0.21753785 0)
(35.833114 21.993327 8.7034459e-21)
(36.956929 21.809334 -3.708049e-20)
(38.165574 21.620945 3.7594657e-20)
(39.447513 21.359796 -1.8758977e-20)
(40.787534 21.008108 -1.8478583e-20)
(42.167004 20.560298 0)
(43.565213 20.018124 0)
(44.960501 19.387252 0)
(46.332142 18.676794 -3.0782669e-20)
(47.660795 17.89682 -5.7880737e-20)
(48.9249 17.056444 0)
(50.100168 16.161 -1.0429734e-19)
(51.148982 15.207727 1.2765472e-19)
(51.976477 14.169359 -3.5810363e-23)
(52.425586 12.911953 1.7052945e-19)
(52.29211 11.379942 3.3134685e-20)
(51.759793 9.4831415 -3.6224715e-20)
(51.507651 8.2588253 5.9094535e-19)
(51.459847 7.230049 0)
(51.406011 6.3490693 4.5139888e-19)
(51.33973 5.4987509 8.0525646e-19)
(51.261554 4.7587227 1.4328851e-18)
(51.166448 4.0686046 -9.9995544e-21)
(51.06414 3.4455368 8.8003439e-21)
(50.971589 2.8832474 3.3383603e-23)
(50.904359 2.3716539 -1.7613293e-18)
(50.842579 1.9067705 0)
(50.787595 1.4679423 2.5414181e-23)
(50.738757 1.0514501 0)
(50.707841 0.63391393 0)
(50.679737 0.21807511 1.8867057e-18)
(35.788869 20.603389 -2.3923681e-23)
(36.80209 20.541734 -2.3333301e-20)
(37.903773 20.475096 8.035173e-21)
(39.087899 20.347116 1.6378645e-20)
(40.344356 20.140036 1.6455441e-20)
(41.658465 19.843271 0)
(43.011921 19.451799 0)
(44.383579 18.964061 0)
(45.750672 18.38206 0)
(47.089453 17.710082 -2.8548217e-20)
(48.373562 16.952523 2.7419361e-20)
(49.571812 16.110224 0)
(50.636206 15.179474 -2.6465435e-20)
(51.455437 14.113229 2.7347881e-20)
(51.858664 12.79768 -4.7765151e-19)
(51.691069 11.119887 3.3472007e-20)
(51.295384 9.3436566 -3.417897e-20)
(51.210863 8.2235285 -5.0789846e-19)
(51.23056 7.2124182 0)
(51.223405 6.3436369 0)
(51.193096 5.497958 0)
(51.144515 4.7603478 2.0153373e-20)
(51.072012 4.0730544 1.1312131e-18)
(50.98858 3.4479524 5.1591726e-25)
(50.911644 2.888335 -1.7908829e-18)
(50.856123 2.3759421 1.5696214e-18)
(50.803513 1.9106471 1.3966237e-18)
(50.754915 1.4714311 -2.4556372e-18)
(50.710983 1.0536312 0)
(50.683085 0.63525163 0)
(50.657097 0.21859331 -1.6864546e-18)
(35.957011 19.251194 -6.1777773e-21)
(36.854902 19.278096 2.6225274e-20)
(37.839131 19.304864 -3.4515068e-20)
(38.90984 19.28232 -1.4320521e-20)
(40.061645 19.194316 1.4678331e-20)
(41.284063 19.027166 -2.9676704e-20)
(42.562432 18.770515 2.9662191e-20)
(43.878 18.416393 0)
(45.208238 17.959696 0)
(46.527083 17.397628 0)
(47.803905 16.727753 0)
(49.000058 15.944199 1.0833465e-19)
(50.054606 15.039315 -1.3663338e-19)
(50.847142 13.91839 2.8289774e-20)
(51.172621 12.557071 2.4510284e-19)
(50.999445 10.740939 0)
(50.825629 9.201101 0)
(50.889431 8.1689219 4.596481e-19)
(50.975374 7.1778777 2.5664339e-20)
(51.018008 6.3263578 -2.2841307e-20)
(51.028184 5.4893676 0)
(51.012721 4.756653 -5.5728502e-19)
(50.965277 4.0748829 8.8905281e-25)
(50.903008 3.4484122 -9.0051351e-19)
(50.843932 2.89244 -3.3695163e-23)
(50.801333 2.3798679 -1.415763e-18)
(50.759125 1.9143577 -1.2398966e-18)
(50.717795 1.4750737 1.0941102e-18)
(50.67942 1.0558602 -1.8854626e-21)
(50.654812 0.63665129 8.3169571e-22)
(50.631293 0.21914341 7.3364683e-22)
(36.309916 17.955313 0)
(37.097165 18.035036 -4.4627664e-20)
(37.962242 18.127173 4.7953872e-20)
(38.9111 18.182834 0)
(39.94312 18.185248 -7.9153359e-20)
(41.052621 18.120755 2.2283478e-23)
(42.229562 17.975421 5.5284301e-20)
(43.458835 17.73639 2.7832598e-20)
(44.719795 17.392311 0)
(45.985827 16.932943 -2.3641357e-23)
(47.222853 16.347657 -6.4634718e-24)
(48.383818 15.621972 -1.6545745e-19)
(49.391364 14.738338 5.6375634e-20)
(50.118942 13.548155 5.883335e-20)
(50.345378 12.089693 6.2182691e-20)
(50.270635 10.280386 2.4850921e-19)
(50.361345 9.0466636 -5.7195937e-20)
(50.539966 8.0876522 9.0726049e-23)
(50.692951 7.1206011 0)
(50.787918 6.293051 -3.4558734e-19)
(50.843495 5.4698514 -5.6072175e-19)
(50.864698 4.7453541 0)
(50.844723 4.0724505 0)
(50.806412 3.446133 7.8868634e-19)
(50.76766 2.8943844 7.1855645e-19)
(50.739152 2.3829141 1.2490203e-18)
(50.70859 1.9174537 -8.6106764e-21)
(50.675563 1.4785655 3.7983326e-21)
(50.643515 1.0579334 1.7191493e-18)
(50.622475 0.63797705 0)
(50.601913 0.21965523 1.3351909e-18)
(36.808411 16.708996 -3.0176202e-20)
(37.484609 16.826877 3.4270618e-20)
(38.23359 16.957518 -4.2815417e-20)
(39.061253 17.057491 -4.5816648e-20)
(39.967749 17.11784 1.2122453e-20)
(40.952218 17.122489 5.0646773e-20)
(42.009366 17.056705 0)
(43.128102 16.904878 -2.6796792e-20)
(44.290391 16.650419 0)
(45.470061 16.275522 -4.2275417e-23)
(46.629927 15.760568 0)
(47.712843 15.079829 -5.6764474e-20)
(48.621225 14.192579 5.8604529e-20)
(49.221926 12.889676 6.0387007e-20)
(49.398574 11.352893 -2.4228884e-19)
(49.589213 9.8766592 -5.1229057e-19)
(49.883523 8.9212458 5.1438892e-20)
(50.17215 7.9241853 -4.1563597e-19)
(50.381015 7.0637597 -2.871902e-19)
(50.535139 6.2166405 -3.641897e-20)
(50.637804 5.43227 4.8172432e-19)
(50.698579 4.7241846 4.8261513e-19)
(50.708774 4.063889 2.5145861e-20)
(50.697657 3.4409321 6.8906512e-19)
(50.681774 2.8930426 0)
(50.668764 2.384972 -2.2161855e-18)
(50.650965 1.9197802 -7.637987e-21)
(50.627421 1.4817456 6.7380244e-21)
(50.602604 1.0598036 3.998753e-23)
(50.585526 0.639232 1.3109389e-21)
(50.56837 0.22013008 -1.1852229e-18)
(37.459355 15.463301 0)
(38.015879 15.58449 0)
(38.641214 15.723003 0)
(39.338477 15.845298 0)
(40.111301 15.935411 0)
(40.960869 15.978992 -1.1030365e-19)
(41.884299 15.96157 1.0282783e-19)
(42.87261 15.8659 0)
(43.908803 15.670941 -1.1006977e-19)
(44.965746 15.351475 1.1287735e-19)
(46.000857 14.877827 5.7898269e-20)
(46.942133 14.205858 0)
(47.687417 13.249919 1.8277946e-19)
(48.146953 11.911776 -6.0580535e-20)
(48.522941 10.497027 1.705589e-19)
(48.961292 9.5827321 5.1577897e-20)
(49.428568 8.6061815 -1.8535297e-19)
(49.773421 7.7811177 -3.7050409e-19)
(50.049701 6.9275091 6.2046733e-19)
(50.255282 6.1511062 5.1707382e-19)
(50.40685 5.4004089 0)
(50.513328 4.6809973 -2.5163278e-20)
(50.556201 4.0403658 2.2272192e-20)
(50.575155 3.432186 -6.3025154e-19)
(50.584596 2.8866357 0)
(50.589364 2.3854845 1.962923e-18)
(50.585224 1.9208955 0)
(50.57249 1.4840741 -5.9668715e-21)
(50.555921 1.0612103 -2.6895944e-18)
(50.543456 0.64026904 0)
(50.530136 0.22049673 0)
(38.112488 14.126083 0)
(38.56267 14.223031 0)
(39.076574 14.339993 0)
(39.652234 14.452768 8.8689703e-20)
(40.295424 14.538448 -1.794108e-19)
(41.009573 14.584264 2.173389e-19)
(41.792775 14.576617 -1.3538504e-19)
(42.634912 14.497046 2.8405452e-20)
(43.516444 14.320402 1.4761397e-19)
(44.407965 14.014913 -7.3740786e-23)
(45.272018 13.53469 -6.2185611e-20)
(46.040402 12.82245 -2.492343e-19)
(46.63206 11.829146 1.2146494e-19)
(47.158709 10.757788 0)
(47.789363 9.930798 0)
(48.426089 9.1081085 9.2845256e-20)
(48.93409 8.3603899 3.3006776e-19)
(49.36314 7.5503211 7.3169242e-19)
(49.696519 6.7817744 -3.2395076e-19)
(49.959062 6.0307751 -5.7269969e-20)
(50.157661 5.3082555 5.0654738e-20)
(50.303784 4.6543375 -3.8026706e-19)
(50.386471 4.000562 1.9749541e-20)
(50.437269 3.4185781 0)
(50.474453 2.8745699 0)
(50.499953 2.3834699 -8.6702412e-19)
(50.510487 1.9205579 0)
(50.509893 1.4850105 0)
(50.502742 1.0619403 1.1916625e-18)
(50.495852 0.64099712 -1.0512285e-18)
(50.48665 0.22072696 -9.2723869e-19)
(38.738594 12.303646 -2.5594275e-23)
(39.101321 12.372089 -1.7835904e-19)
(39.512619 12.461507 9.1427637e-20)
(39.982418 12.541163 0)
(40.511371 12.609546 9.8162179e-24)
(41.094872 12.654403 1.3603011e-19)
(41.729775 12.6482 -4.5488326e-23)
(42.408036 12.570819 -3.2650224e-20)
(43.111913 12.397982 -3.3106147e-20)
(43.814344 12.10722 -6.6037487e-20)
(44.489164 11.659958 -6.4581558e-20)
(45.128887 11.072628 0)
(45.787728 10.417988 0)
(46.518024 9.844866 0)
(47.235307 9.272441 0)
(47.877546 8.6716089 -1.6533268e-19)
(48.459753 7.965872 -1.4655035e-19)
(48.93862 7.28118 -2.5955907e-19)
(49.333552 6.5705499 0)
(49.647348 5.8945483 -2.0296299e-19)
(49.889579 5.222093 0)
(50.07846 4.5672035 3.1659404e-19)
(50.197207 3.9613998 0)
(50.283473 3.3947011 0)
(50.350406 2.8650872 0)
(50.399396 2.3748671 0)
(50.426361 1.9149317 0)
(50.438879 1.4838848 -9.3218688e-21)
(50.442485 1.0615822 8.2254747e-21)
(50.442362 0.64118805 1.8594711e-18)
(50.437469 0.22074322 8.1765945e-19)
(39.218907 10.273829 2.6209007e-23)
(39.446794 10.337815 0)
(39.733699 10.422305 1.9273106e-21)
(40.09067 10.497136 1.1691025e-19)
(40.53591 10.514784 -2.5311888e-19)
(41.024174 10.524672 -3.6050874e-20)
(41.542543 10.480083 -2.1682144e-19)
(42.099199 10.386556 5.6734906e-19)
(42.692803 10.239485 -2.7538094e-19)
(43.300755 10.086293 -6.6247334e-20)
(43.934259 9.8635101 -2.2700718e-23)
(44.610251 9.628264 5.7785228e-20)
(45.345535 9.3668019 0)
(46.056717 9.0332887 0)
(46.736541 8.6294066 0)
(47.398529 8.1059063 2.9341833e-19)
(47.988594 7.552871 0)
(48.512705 6.9420803 -2.2990896e-19)
(48.959556 6.3275132 0)
(49.329256 5.7096108 0)
(49.61449 5.0811224 0)
(49.837353 4.4946667 -2.447476e-19)
(49.993514 3.8983844 -3.0853898e-20)
(50.115176 3.3464633 -4.627067e-19)
(50.21295 2.8444904 2.4007188e-20)
(50.287079 2.3623917 0)
(50.332451 1.9135727 0)
(50.359193 1.4787294 5.2706483e-19)
(50.374646 1.0590839 9.3702756e-19)
(50.382616 0.64062231 -3.1724224e-21)
(50.382135 0.22049934 -2.8255229e-21)
(40.141034 8.008057 0)
(40.30215 8.1090724 -1.0755131e-20)
(40.472027 8.2467285 1.0954015e-20)
(40.659265 8.3895426 -1.098009e-20)
(40.874354 8.5902845 -2.1014757e-20)
(41.171738 8.7220433 2.0334805e-20)
(41.53426 8.8533735 -3.8920663e-20)
(41.965194 8.9491389 -3.6491743e-20)
(42.487516 8.8276705 0)
(43.037161 8.7522489 -2.4303688e-19)
(43.658295 8.5952472 5.0168726e-19)
(44.324297 8.5342351 -5.1607786e-20)
(45.008313 8.396306 -9.2770461e-20)
(45.669932 8.1784485 1.6539329e-19)
(46.336396 7.9101786 -2.9350347e-19)
(46.977815 7.5319474 8.4278884e-24)
(47.56979 7.0633765 -1.1500415e-19)
(48.100554 6.5626272 4.0658166e-19)
(48.584305 6.0241385 0)
(49.001326 5.490886 0)
(49.331561 4.9373914 6.9981713e-20)
(49.593426 4.3645479 -6.8815299e-24)
(49.780641 3.8274398 -2.7241816e-20)
(49.934259 3.3005421 -2.4069488e-20)
(50.062555 2.8069953 -3.3904817e-19)
(50.163141 2.3439811 0)
(50.229324 1.8978385 0)
(50.271033 1.4738388 -4.5785781e-19)
(50.298636 1.0563655 -1.6410222e-18)
(50.316096 0.63949825 -7.2939855e-19)
(50.320212 0.21939472 0)
(40.902731 6.4357536 0)
(41.074115 6.5099349 1.1876971e-20)
(41.264914 6.6124722 -4.1143893e-19)
(41.477513 6.7176066 4.3614991e-23)
(41.696678 6.838636 3.829826e-19)
(41.93144 6.9604599 -2.1040301e-20)
(42.190588 7.0586815 3.9066648e-20)
(42.435308 7.169266 3.5724717e-20)
(42.679931 7.5012861 0)
(43.062582 7.6421807 5.5968753e-20)
(43.58611 7.5936726 -4.8746118e-20)
(44.127244 7.5161423 1.7703867e-19)
(44.71937 7.3795764 -3.2158803e-19)
(45.348655 7.2637225 1.4562737e-19)
(45.998974 7.1726753 0)
(46.623172 6.9068778 1.1493798e-19)
(47.203044 6.5700645 2.2813371e-23)
(47.733392 6.1522198 -1.7956505e-19)
(48.222486 5.6942434 2.3795714e-19)
(48.667212 5.2266613 7.0001363e-20)
(49.042576 4.7345559 -3.0890308e-19)
(49.34209 4.2395094 -2.1800457e-19)
(49.563283 3.7242135 0)
(49.746317 3.2286374 3.3914598e-19)
(49.902177 2.7640688 2.6171414e-19)
(50.026986 2.3153587 3.2974505e-20)
(50.115944 1.8831546 0)
(50.174476 1.463163 0)
(50.214259 1.0486475 -5.6932572e-21)
(50.241989 0.63567339 4.9880975e-21)
(50.251144 0.21882359 0)
(41.520088 5.5398613 -8.9059e-19)
(41.624871 5.6176129 8.4396927e-19)
(41.747382 5.7063857 7.8831996e-19)
(41.892652 5.7990551 -7.2741761e-19)
(42.066301 5.8961607 -6.8492435e-19)
(42.276522 5.9989781 6.483546e-19)
(42.53797 6.1055559 -6.0781349e-19)
(42.862151 6.2022221 5.1700307e-19)
(43.181299 6.3190261 -4.606628e-19)
(43.490018 6.3394557 -5.1604284e-20)
(43.7209 6.661836 4.0342506e-19)
(44.098792 6.7623332 3.5865688e-19)
(44.600864 6.5868376 -4.1600682e-19)
(45.154603 6.4434297 0)
(45.705989 6.3647192 2.2823516e-19)
(46.281969 6.2192488 -4.0451844e-19)
(46.868958 6.0043281 8.9805489e-20)
(47.411536 5.726046 0)
(47.901097 5.3416995 -2.0996331e-19)
(48.338751 4.9311845 1.3021824e-23)
(48.738697 4.5185669 4.3602869e-19)
(49.080181 4.0620962 2.4036657e-19)
(49.335806 3.6093598 4.2400351e-20)
(49.55181 3.1439474 -3.7396829e-19)
(49.735015 2.7046503 2.9681505e-19)
(49.879923 2.2764786 2.0358259e-19)
(49.990961 1.8571447 1.2824119e-20)
(50.068054 1.4468178 3.7320985e-19)
(50.121186 1.0400461 6.4831577e-19)
(50.159304 0.63087148 5.5429386e-19)
(50.174195 0.21665402 0)
(42.257258 4.5907019 -6.5435378e-21)
(42.356412 4.6586835 -2.4101784e-20)
(42.469766 4.7369441 -7.2484064e-19)
(42.598086 4.8190183 1.3463528e-18)
(42.741367 4.9058471 -1.2376378e-18)
(42.898135 4.9967203 5.8168589e-19)
(43.064864 5.0885318 0)
(43.242076 5.1782616 0)
(43.452716 5.2558175 -2.5780306e-20)
(43.725565 5.3519865 4.6075002e-20)
(44.076728 5.3575299 2.873223e-19)
(44.38609 5.3626036 -6.2019181e-19)
(44.659088 5.7776078 3.1286999e-19)
(45.100944 5.7160127 0)
(45.555286 5.6164619 0)
(46.010697 5.5071537 0)
(46.525337 5.3525735 -1.5781057e-19)
(47.092012 5.2407408 2.0991552e-19)
(47.61239 4.9803095 0)
(48.043734 4.6294778 -1.0898836e-19)
(48.434366 4.2467682 9.6166681e-20)
(48.799502 3.8653861 -3.3921329e-19)
(49.096918 3.4558452 1.4957682e-19)
(49.346056 3.0442314 -9.8966402e-20)
(49.559709 2.6326058 -2.0354339e-19)
(49.723075 2.2247344 -2.0513785e-19)
(49.853013 1.8240005 3.39226e-19)
(49.950489 1.4245236 -2.9913965e-19)
(50.018656 1.0238935 0)
(50.06715 0.62231104 -4.9647242e-19)
(50.088466 0.21456238 0)
(42.845004 3.9113561 7.6425797e-19)
(42.909993 3.969588 2.9570523e-24)
(42.985213 4.0353862 1.0154513e-20)
(43.072981 4.1042872 0)
(43.176517 4.1781311 -1.7225656e-20)
(43.300206 4.2580347 5.0153621e-19)
(43.450278 4.3448847 -4.5357458e-19)
(43.631283 4.4396184 0)
(43.837892 4.5441096 2.2848347e-20)
(44.056055 4.647028 3.4671248e-19)
(44.280322 4.7673927 3.6273269e-20)
(44.574413 4.8741153 -5.1601642e-19)
(44.907694 4.7825014 5.7026908e-20)
(45.149233 5.062766 1.9715371e-19)
(45.511119 4.9964563 0)
(45.897817 4.9172358 0)
(46.344917 4.745076 -6.8742265e-20)
(46.813194 4.6763224 1.0216497e-23)
(47.322157 4.5295621 1.0892488e-19)
(47.783623 4.3060366 -2.0162541e-23)
(48.163199 3.9843757 -2.5433029e-19)
(48.519625 3.6307726 7.4766849e-20)
(48.843598 3.2777224 6.5947985e-20)
(49.128286 2.9133446 2.9073005e-19)
(49.37575 2.5437206 -5.6743229e-24)
(49.555926 2.1592939 -2.2611898e-20)
(49.703379 1.7739875 -6.3799795e-19)
(49.820989 1.3926393 -1.7583381e-20)
(49.905793 1.00458 0)
(49.96472 0.61157713 0)
(49.993052 0.21036795 0)
(43.492155 3.171817 1.3642511e-18)
(43.552393 3.2205022 1.2567604e-18)
(43.621498 3.2753465 -1.1725316e-18)
(43.700369 3.3326991 1.0743708e-18)
(43.789873 3.3942381 -9.6816225e-19)
(43.890635 3.460689 8.7948174e-19)
(44.002444 3.5311784 -8.0648006e-19)
(44.125414 3.6037811 0)
(44.264335 3.6757222 0)
(44.430382 3.747273 5.5946881e-19)
(44.630329 3.8105586 -4.8157123e-19)
(44.836122 3.855309 0)
(45.050728 3.9944007 -5.0504852e-20)
(45.342078 3.9569437 0)
(45.59989 4.0233787 0)
(45.899506 4.3007463 -6.8101119e-20)
(46.274371 4.1731344 2.9733825e-19)
(46.67381 4.0800627 -4.3173141e-19)
(47.076376 3.9880874 -9.6030853e-20)
(47.532193 3.890018 2.5426082e-19)
(47.938693 3.6828117 -2.5135082e-23)
(48.274877 3.3946387 -6.5931547e-20)
(48.598546 3.0663099 0)
(48.904334 2.7561608 0)
(49.180617 2.4330846 0)
(49.381141 2.0785764 0)
(49.54545 1.7141113 3.1635405e-19)
(49.679598 1.3474955 -1.5501839e-20)
(49.781663 0.97571902 -1.367102e-20)
(49.851657 0.59572055 -6.0290626e-21)
(49.887167 0.20566036 3.4567283e-19)
(44.009323 2.6569567 1.216434e-18)
(44.047414 2.6988607 -1.1173375e-18)
(44.091484 2.7454379 8.117579e-21)
(44.142775 2.7943164 9.644091e-19)
(44.203027 2.8473834 -8.7382676e-19)
(44.274534 2.9057111 7.922016e-19)
(44.360054 2.969576 -1.4280829e-18)
(44.462396 3.0391396 -1.9978761e-20)
(44.58274 3.1146454 5.5469356e-19)
(44.719022 3.1947307 0)
(44.870816 3.2778777 -4.8194255e-19)
(45.053738 3.3697471 2.5192586e-20)
(45.266225 3.4091838 3.7884352e-19)
(45.455224 3.5122756 -3.1547006e-19)
(45.720605 3.5638194 2.4406104e-19)
(46.029914 3.3967289 1.6352076e-24)
(46.276006 3.6932055 2.1285052e-19)
(46.589447 3.5534151 -2.3305922e-19)
(46.938178 3.4296047 3.3449214e-19)
(47.305507 3.4020164 -7.4574125e-20)
(47.713482 3.2994637 6.588929e-20)
(48.071851 3.1303818 1.5569008e-23)
(48.388566 2.8436779 1.0251173e-19)
(48.692798 2.582138 0)
(48.978392 2.2837031 -1.5941077e-19)
(49.201011 1.9753612 1.405669e-19)
(49.381232 1.63583 3.0986152e-20)
(49.527709 1.2925095 -2.7328527e-20)
(49.645991 0.9386644 1.2050523e-20)
(49.727819 0.57603844 3.242093e-19)
(49.770214 0.19820258 -2.9531606e-19)
(44.593211 2.0893499 2.1848133e-18)
(44.62913 2.1244184 -1.9872856e-18)
(44.670385 2.1632293 -1.4416638e-20)
(44.717563 2.204012 -6.6298235e-21)
(44.771242 2.2483914 -6.0457555e-21)
(44.831875 2.2971455 1.4131603e-18)
(44.899854 2.3502592 -4.9397983e-23)
(44.975548 2.4072616 -1.1237767e-18)
(45.059673 2.4674538 2.8990241e-24)
(45.15506 2.5301834 0)
(45.26473 2.5952091 -2.5019302e-20)
(45.384332 2.6580846 -4.4385424e-20)
(45.520048 2.7445883 -1.9657152e-20)
(45.710098 2.7853702 2.7822716e-19)
(45.880941 2.8864596 -2.4596882e-19)
(46.088487 3.0127879 2.7160779e-20)
(46.352403 2.953155 0)
(46.569673 3.1792231 -4.1510828e-20)
(46.851987 3.0067569 -7.2428466e-20)
(47.160085 2.9147945 -6.4756366e-20)
(47.490709 2.8049904 0)
(47.860933 2.772957 -1.0235995e-19)
(48.20665 2.603846 0)
(48.511134 2.3903275 0)
(48.779263 2.1167227 1.4050805e-19)
(49.010565 1.8465212 -2.4781007e-19)
(49.208958 1.5394598 1.0926791e-19)
(49.368747 1.2184971 0)
(49.499936 0.89017142 -1.8059379e-19)
(49.593013 0.54903263 -2.9045026e-19)
(49.641848 0.18972409 0)
(45.05019 1.7029073 -1.9471877e-18)
(45.070995 1.7316832 3.451406e-21)
(45.095087 1.7631998 1.2800432e-20)
(45.123128 1.7963757 1.5046338e-18)
(45.156056 1.832708 -1.3654066e-18)
(45.195137 1.8730093 -2.0821865e-24)
(45.242031 1.9174764 0)
(45.298863 1.9657864 1.544809e-24)
(45.366629 2.0189715 8.9298263e-19)
(45.447485 2.0769531 -7.827074e-19)
(45.543767 2.1392202 2.20752e-20)
(45.659343 2.2071334 1.9576148e-20)
(45.792597 2.2673716 0)
(45.929199 2.3535918 0)
(46.100588 2.3775818 4.879631e-19)
(46.244535 2.4239357 2.3908261e-20)
(46.407126 2.4987054 -3.3828826e-19)
(46.650326 2.3307224 3.7314152e-19)
(46.848586 2.6068251 -2.2571175e-19)
(47.092046 2.5203835 -5.6333393e-20)
(47.369075 2.3992689 0)
(47.666642 2.3441768 -8.9623599e-20)
(48.019946 2.2910798 7.9667359e-20)
(48.342113 2.1741255 -8.0183604e-24)
(48.58853 1.9248881 -6.1939641e-20)
(48.814125 1.6823931 1.0921992e-19)
(49.027575 1.4155556 -9.6312084e-20)
(49.203509 1.1333229 -1.6988755e-19)
(49.344275 0.83035426 1.8713784e-20)
(49.447586 0.51570702 -2.4779041e-20)
(49.502641 0.17779214 7.285276e-21)
(45.54417 1.2530383 -1.7237454e-18)
(45.564697 1.2755932 -6.0963511e-21)
(45.588231 1.3001489 1.4440532e-18)
(45.615076 1.3260088 0)
(45.645458 1.354378 -1.2113136e-18)
(45.679386 1.3858595 -8.5400431e-21)
(45.716756 1.4205782 2.1904407e-23)
(45.757742 1.4589048 1.7728413e-18)
(45.804875 1.4997642 -2.1397419e-23)
(45.859669 1.5430958 -7.126019e-19)
(45.923096 1.5885168 0)
(45.995693 1.6341264 0)
(46.079265 1.6856362 0)
(46.180977 1.7241054 0)
(46.290361 1.796265 -2.390691e-20)
(46.438919 1.8455653 3.3781973e-19)
(46.583806 1.9033352 -2.6096264e-19)
(46.728431 2.0434042 -2.9609009e-19)
(46.93342 1.9904995 2.0252214e-19)
(47.098904 2.1564306 3.0140788e-25)
(47.320602 2.1330218 0)
(47.565631 1.9871786 1.5652301e-19)
(47.857497 1.9321372 -1.4042925e-19)
(48.160592 1.8791527 6.1919015e-20)
(48.400477 1.6911124 0)
(48.626668 1.4970797 -1.4443601e-19)
(48.841116 1.2668941 4.2457191e-20)
(49.031538 1.0232065 1.8718723e-19)
(49.181262 0.75703331 9.9050334e-20)
(49.29315 0.47182036 0)
(49.354163 0.16416295 -2.0551824e-19)
(45.889568 0.98765341 0)
(45.89871 1.0051245 2.705319e-21)
(45.909498 1.0239853 0)
(45.922562 1.0439109 0)
(45.938818 1.0656968 -4.1782504e-21)
(45.958653 1.0900526 -1.9339999e-18)
(45.982939 1.1171397 1.7391701e-18)
(46.012783 1.1471392 6.0827725e-21)
(46.049099 1.1804075 1.0858327e-20)
(46.092907 1.217168 -1.2271852e-18)
(46.145558 1.2577101 2.1970183e-18)
(46.20885 1.3032874 -9.7413644e-19)
(46.284932 1.3527552 0)
(46.377907 1.4068706 0)
(46.488996 1.4473581 0)
(46.604953 1.4994674 0)
(46.734223 1.5291426 -1.6435462e-20)
(46.856137 1.5323414 2.6105025e-19)
(46.97287 1.5974865 -2.5607703e-20)
(47.177083 1.4725489 -1.5714023e-19)
(47.351675 1.5596244 1.5709693e-19)
(47.537582 1.6734808 -2.7806745e-19)
(47.761992 1.5545884 2.4759878e-19)
(47.993645 1.5106441 -1.0919268e-19)
(48.221415 1.4177783 1.4440482e-19)
(48.458412 1.2746199 8.4882935e-20)
(48.662617 1.0929164 0)
(48.858119 0.89399783 3.3005137e-20)
(49.016022 0.66906121 -2.2120689e-24)
(49.132518 0.42006224 -1.2838572e-19)
(49.198235 0.14612518 1.8116683e-19)
(46.273253 0.67058044 -2.7100918e-18)
(46.284875 0.68373862 2.4458631e-18)
(46.297734 0.6979075 0)
(46.311659 0.71301698 0)
(46.326505 0.72997132 7.3745512e-21)
(46.343036 0.74892139 0)
(46.361964 0.77002289 0)
(46.383955 0.79332977 -1.3790944e-18)
(46.409668 0.81882518 1.2258488e-18)
(46.439787 0.8464579 -1.1868163e-24)
(46.475022 0.87601786 7.5686497e-21)
(46.515929 0.90612958 0)
(46.561507 0.93462493 0)
(46.606892 0.96485144 0)
(46.658551 0.99988466 0)
(46.72827 1.0260862 0)
(46.824624 1.0671656 -1.4491606e-20)
(46.959307 1.1073839 -1.2788662e-20)
(47.07952 1.1526772 -3.1587076e-19)
(47.200302 1.253832 6.3685055e-19)
(47.374341 1.2645214 -3.0849799e-19)
(47.545615 1.1986067 -3.0692402e-20)
(47.709897 1.2602916 -1.0917177e-19)
(47.888273 1.1570749 9.6271309e-20)
(48.087746 1.1073006 -4.2438922e-20)
(48.312062 1.0259864 -7.4841156e-20)
(48.508683 0.90135253 5.7149201e-24)
(48.694509 0.74270047 5.8204345e-20)
(48.853056 0.56657186 2.5668056e-20)
(48.969312 0.3588346 1.1318392e-19)
(49.037492 0.12613766 7.9871005e-20)
(46.507316 0.52419816 -2.3934705e-18)
(46.513307 0.53351829 2.1568046e-18)
(46.520444 0.54341547 -1.9496085e-21)
(46.528942 0.55396151 1.8303048e-18)
(46.539059 0.56570686 -1.6682861e-18)
(46.551037 0.57896318 -1.5079444e-18)
(46.565141 0.59390232 1.1152983e-23)
(46.58169 0.61071064 2.4233954e-18)
(46.601086 0.62962449 -1.0812655e-18)
(46.623829 0.65089528 -3.7595426e-21)
(46.650523 0.67474034 -7.4736594e-25)
(46.681871 0.70161318 5.9185146e-21)
(46.718842 0.73315725 0)
(46.765553 0.76856307 9.2718324e-21)
(46.823878 0.80449798 -5.2442054e-19)
(46.89145 0.84386392 4.5594344e-19)
(46.959045 0.88351861 0)
(47.038087 0.9090063 -3.7208348e-19)
(47.155586 0.90300292 2.9843007e-19)
(47.255918 0.89647834 1.754824e-20)
(47.364133 0.94647135 1.5313776e-20)
(47.518633 0.88558308 2.6806228e-20)
(47.670257 0.86598037 0)
(47.827636 0.85299656 1.6975601e-19)
(48.009555 0.84246279 -1.8711796e-19)
(48.189142 0.76404221 -3.2997993e-20)
(48.376427 0.70110077 -5.8190881e-20)
(48.543234 0.58850131 0)
(48.693181 0.45184738 4.1179602e-24)
(48.807933 0.29009335 -7.984514e-20)
(48.876561 0.10158045 6.4598842e-24)
(46.772055 0.32341211 -4.2327667e-18)