/*--------------------------------*- C++ -*----------------------------------*\
| =========                 |                                                 |
| \\      /  F ield         | OpenFOAM: The Open Source CFD Toolbox           |
|  \\    /   O peration     | Version:  2406                                  |
|   \\  /    A nd           | Website:  www.openfoam.com                      |
|    \\/     M anipulation  |                                                 |
\*---------------------------------------------------------------------------*/
FoamFile
{
    version     2.0;
    format      ascii;
    arch        "LSB;label=32;scalar=64";
    class       volScalarField;
    location    "0.041";
    object      omega;
}
// * * * * * * * * * * * * * * * * * * * * * * * * * * * * * * * * * * * * * //

dimensions      [0 0 -1 0 0 0 0];

internalField   nonuniform List<scalar> 
35803
(
21858.202
19405.872
16982.19
14673.088
12521.673
10552.729
8780.5334
7210.9142
5843.1122
4672.2022
3687.4307
2873.4256
2212.113
1683.9383
1268.8031
946.87841
697.18416
491.09686
320.65705
223.24418
177.70474
151.75081
136.39517
123.86761
114.24932
108.77991
105.73051
102.0266
100.67327
98.062211
97.080289
19103.575
17071.224
15083.185
13168.184
11353.423
9662.2182
8113.0368
6718.746
5486.7213
4418.6845
3510.1488
2751.2608
2129.1077
1628.2865
1231.9612
922.73214
681.07505
479.377
311.79239
218.99712
175.78836
150.59312
135.6765
123.45497
113.90118
108.56762
105.68329
101.98043
100.64627
98.064761
97.083276
16481.477
14864.8
13261.547
11694.443
10185.04
8754.1229
7420.7577
6201.0027
5106.9257
4145.3199
3316.913
2616.9859
2037.2691
1566.3843
1190.8053
895.64647
662.94164
466.17526
302.7988
215.98154
174.63897
149.84169
135.19704
123.21776
113.64824
108.37284
105.6604
101.94878
100.62923
98.077681
97.08681
14016.717
12769.356
11508.775
10253.838
9023.0752
7835.2286
6708.6862
5660.4628
4704.9548
3852.369
3107.5218
2470.1189
1936.0438
1497.7204
1144.9087
865.26472
642.43982
450.9267
293.079
212.31282
172.94095
148.70714
134.47076
122.81888
113.3609
108.17003
105.62959
101.90534
100.60153
98.086751
97.090853
11747.955
10809.825
9843.3855
8862.5002
7881.8825
6917.4201
5985.664
5102.9678
4284.2879
3541.6443
2882.7386
2310.7855
1825.2386
1421.9836
1093.9458
831.26405
619.17962
433.08255
282.3609
208.46845
171.22619
147.55735
133.75525
122.43828
113.08667
108.00772
105.60652
101.86518
100.57591
98.101995
97.095681
9699.1546
9011.4207
8288.5697
7540.9746
6779.0773
6015.1082
5262.732
4536.3444
3850.0273
3216.1781
2644.1378
2139.6283
1704.9602
1339.0148
1037.6545
793.32656
592.6946
412.41142
270.70389
204.3209
169.20588
146.15837
132.87926
121.9401
112.74277
107.82316
105.57663
101.81435
100.54476
98.116837
97.1017
7882.5751
7392.1197
6864.7226
6309.623
5733.3146
5144.2394
4552.6434
3970.1121
3408.778
2880.2123
2394.1914
1957.8965
1575.684
1248.8485
975.85311
751.13683
562.40861
388.65482
258.30766
199.94866
167.01033
144.62879
131.9413
121.41637
112.43733
107.60849
105.54647
101.76473
100.51516
98.136972
97.108796
6302.146
5960.9895
5586.547
5185.7981
4762.2437
4321.0759
3869.2348
3415.2189
2968.6073
2539.273
2136.389
1767.5714
1438.3597
1151.7852
908.47453
704.38741
527.57577
361.55901
245.57407
195.31885
164.5084
142.8594
130.84924
120.83912
112.12339
107.35288
105.50398
101.71228
100.48148
98.158854
97.116702
4953.0868
4722.0347
4463.7624
4182.9599
3881.0783
3560.8361
3226.3958
2883.387
2538.7076
2200.0598
1875.2502
1571.4359
1294.4927
1048.4566
835.58212
652.7531
487.25622
331.28956
233.08627
190.4279
161.7281
140.91509
129.66159
120.24755
111.80892
107.0938
105.45727
101.66661
100.44749
98.186235
97.126189
3825.0746
3673
3500.1592
3309.4431
3101.0743
2876.1144
2636.6715
2386.0366
2128.6774
1870.0396
1616.1417
1373.0229
1146.1522
939.84649
757.38928
595.67312
440.17774
299.14551
221.32824
185.22199
158.56216
138.74175
128.33577
119.4849
111.43503
106.82969
105.38826
101.61595
100.40626
98.216675
97.13742
2901.2872
2804.289
2692.2666
2566.9108
2427.8453
2275.1796
2109.6813
1932.947
1747.4938
1556.7419
1364.8492
1176.3813
995.84941
827.206
674.08458
531.83009
384.99778
267.76353
210.47608
179.64995
154.99535
136.40568
126.90865
118.36777
110.99094
106.56852
105.26623
101.55368
100.35656
98.25174
97.150588
2159.8877
2100.2309
2030.1863
1950.6901
1861.1706
1761.3008
1651.1056
1531.0951
1402.3916
1266.8128
1126.8615
985.56915
846.17278
711.74578
585.20865
457.87328
324.72108
241.44088
200.286
173.61323
150.96073
133.90492
125.28221
117.31039
110.44813
106.24508
105.03864
101.47913
100.29734
98.286679
97.16401
1576.2778
1540.7439
1498.6198
1450.2361
1394.9593
1332.2615
1261.803
1183.4889
1097.5699
1004.7483
906.23456
803.67463
698.91956
593.76054
487.61149
370.10879
271.51516
221.49599
189.95103
167.05446
146.56974
131.30725
123.49012
115.92277
109.81741
105.8339
104.70465
101.36244
100.22858
98.306424
97.180275
1122.5724
1102.2473
1077.9514
1049.7384
1017.1029
979.51752
936.46846
887.51201
832.36426
770.98484
703.61914
630.66758
552.68742
469.91295
377.48045
284.11829
236.64624
204.63401
179.13639
160.16759
141.70711
128.61522
121.47262
114.62583
109.08386
105.33574
104.28872
101.2051
100.13882
98.314484
97.19919
769.94155
758.74474
745.30505
729.54544
711.02665
689.27426
663.81161
634.07692
599.49211
559.50963
513.89616
462.48717
405.03891
342.3654
280.935
235.04976
211.70899
188.23598
168.95437
152.44319
137.0427
125.64688
119.16058
113.1161
108.28558
104.80927
103.90106
101.06215
100.04865
98.31646
97.220789
496.20382
489.87123
482.5456
474.17674
464.2393
452.04276
437.08722
418.88194
397.05885
371.36757
343.16511
315.19272
285.52657
256.29806
228.46865
206.19809
190.5265
172.78041
156.74347
144.85151
131.89404
122.42901
116.71464
111.7545
107.43617
104.33158
103.68479
100.93869
99.966229
98.315419
97.245423
319.23479
315.94231
312.03572
307.53438
302.27831
295.9515
288.80106
280.33895
269.68001
257.29436
245.3731
232.90469
220.13762
209.88335
199.64342
180.90379
166.80722
155.62389
146.92885
136.84346
127.17622
118.82869
114.33488
110.1513
106.51479
103.77238
103.42519
100.81589
99.8677
98.310312
97.273469
223.29256
222.19471
220.89654
219.23402
217.0652
214.16225
210.42047
206.69537
202.14703
196.60029
193.05165
187.17472
181.64915
175.20865
169.74456
159.01058
149.68807
143.25628
135.81359
129.75046
121.21623
115.51207
112.28881
108.48492
105.53814
103.19999
102.85314
100.65239
99.77911
98.2879
97.304659
175.79797
175.17981
174.47428
173.68636
172.82594
172.10631
171.14237
169.00929
166.68963
163.30877
161.25733
159.07438
155.17973
150.44202
145.08473
143.08909
136.71602
131.23757
128.44897
122.64517
116.87605
112.76456
109.5984
106.81498
104.56489
102.65539
102.18932
100.43293
99.612951
98.23417
97.338446
151.98299
151.42696
150.72251
149.67623
148.21501
146.45325
145.1492
144.14306
143.50584
144.10633
143.76533
142.44353
138.35579
137.0284
132.36979
128.3928
127.05839
124.3307
119.97726
117.1788
112.42287
109.37565
107.55869
105.37884
103.51199
102.13902
101.62887
100.03781
99.337114
98.209174
97.369655
131.76353
131.53894
131.42325
131.48324
131.73982
131.97744
132.03051
131.81357
131.04284
129.1641
126.56316
125.48555
124.44022
123.91221
123.65228
120.51189
118.12221
115.24405
114.79436
112.93265
108.73411
107.04926
105.68962
104.01733
102.57613
101.62639
101.05546
99.580722
98.945511
98.214735
97.423366
120.6505
120.42821
120.11735
119.57899
118.85346
118.29927
117.87766
117.51779
117.19718
116.91262
117.09548
117.11242
116.70416
114.21209
113.65256
111.7489
112.07909
110.41408
108.98689
107.85321
106.62718
104.2965
103.64611
103.18592
101.58776
101.14108
100.51861
99.186272
98.728665
98.30349
97.433084
111.16352
111.12585
111.10262
111.15149
111.28533
111.39907
111.47189
111.4647
111.34408
110.97298
110.06066
109.25715
108.80533
108.56193
108.26528
107.90333
106.47332
106.42973
105.94216
105.04924
104.34515
102.17824
102.49056
101.98253
101.00903
100.56913
99.908186
98.980617
98.616547
98.34377
97.489081
106.03381
105.97886
105.87753
105.70335
105.50601
105.37544
105.28602
105.22185
105.17769
105.13862
105.09643
105.13279
105.12245
104.82705
104.04597
103.84108
103.44919
102.87259
103.25468
102.4013
101.94893
100.98454
100.68472
100.9322
100.39749
99.894892
99.514552
98.84389
98.546999
98.160048
97.517635
102.18266
102.18584
102.1931
102.22654
102.30317
102.41175
102.54023
102.67042
102.76856
102.7648
102.61725
102.21696
101.76629
101.53753
101.64838
101.29305
101.56087
101.09358
100.80506
100.8705
100.67349
100.02952
99.675313
99.536777
99.618578
99.405703
99.095215
98.632587
98.44611
98.130414
97.585521
100.11992
100.10766
100.08652
100.05803
100.03005
100.00592
99.986416
99.968753
99.949709
99.929219
99.907822
99.883067
99.855461
99.900318
99.746578
99.860813
99.629924
99.781685
99.555444
100.03033
99.653132
99.18312
99.037814
98.699765
98.804789
98.802054
98.691449
98.329002
98.355746
98.093652
97.740297
98.924565
98.920261
98.909711
98.894591
98.87976
98.867767
98.861838
98.864649
98.878367
98.895581
98.898227
98.870258
98.810671
98.780736
98.74427
98.758905
98.739214
98.759631
98.727437
98.954156
98.751629
98.450234
98.413134
98.329017
98.391874
98.518516
98.448211
98.187557
98.249271
98.011295
97.816899
98.421443
98.416816
98.407496
98.395573
98.384007
98.374643
98.369255
98.371963
98.384633
98.401563
98.415339
98.418345
98.416855
98.415719
98.404993
98.405302
98.400581
98.420278
98.462736
98.600012
98.515059
98.27007
98.221258
98.209581
98.255005
98.388408
98.334978
98.138069
98.186979
98.025479
97.978956
98.214136
98.208605
98.202763
98.196537
98.191128
98.188828
98.192244
98.203659
98.224139
98.250865
98.271339
98.281432
98.290949
98.289945
98.287319
98.284427
98.296015
98.316569
98.387932
98.555303
98.480224
98.267518
98.227515
98.185873
98.236827
98.334841
98.296474
98.14019
98.185952
98.092049
98.062651
98.248819
98.24793
98.247346
98.246714
98.245875
98.244414
98.241737
98.237372
98.231206
98.227646
98.225495
98.225403
98.228525
98.231388
98.233896
98.242652
98.262032
98.295772
98.380617
98.545771
98.43844
98.339258
98.352896
98.313719
98.323357
98.32887
98.31977
98.247919
98.234438
98.247945
98.226152
98.385007
98.382621
98.379384
98.375651
98.372035
98.369002
98.366757
98.365177
98.363962
98.36303
98.362314
98.361568
98.360706
98.35996
98.359821
98.361375
98.365154
98.371752
98.385357
98.387649
98.358819
98.368476
98.386169
98.356953
98.351907
98.368647
98.367683
98.337818
98.334251
98.34153
98.339653
58766.443
85264.74
104138.98
100608.1
84815.625
60035.587
42800.599
31312.259
23134.427
17038.755
12437.433
8970.9455
6387.8118
4493.0309
3124.5529
2150.7145
1466.8562
988.88931
655.23718
424.56509
272.49058
194.47465
159.62777
137.33104
122.2351
113.68415
107.76795
102.93482
101.21338
98.047065
96.981785
78694.846
107421.33
110213.64
99303.205
71426.594
50632.877
37472.349
28227.88
21218.085
15797.663
11621.351
8434.3403
6039.1377
4269.7851
2983.8152
2063.3867
1413.426
956.37418
635.58376
412.52255
265.74755
191.49863
158.28731
136.56662
121.82407
113.47268
107.6466
102.90208
101.21017
98.037405
96.981571
103996.08
118779.08
111805.19
87896.104
62057.883
45458.375
34302.854
26078.529
19720.006
14761.007
10912.487
7957.2233
5724.2275
4065.7924
2854.0348
1982.2549
1363.4781
925.79497
617.03655
401.189
259.78866
189.29425
157.36587
136.04096
121.54433
113.32447
107.5589
102.88299
101.20515
98.027499
96.981251
125903.01
122723.94
106120.09
75326.98
54687.375
41264.877
31635.809
24238.187
18421.328
13849.444
10280.269
7526.8736
5437.435
3878.4409
2733.9676
1906.715
1316.7117
896.99581
599.52068
390.48366
254.26325
187.14674
156.3724
135.44628
121.22438
113.15703
107.45887
102.85855
101.19975
98.018027
96.980939
135357.3
122862.38
90305.117
65169.464
49080.542
37859.634
29341.675
22616.007
17266.028
13032.03
9708.9733
7135.3724
5174.7522
3705.7058
2622.5897
1836.2488
1272.8604
869.83894
582.97715
380.31905
249.03307
185.12603
155.44408
134.89411
120.93402
113.00673
107.36837
102.83659
101.19219
98.008633
96.980682
138194.53
106783.54
77080.431
57811.155
44732.194
34993.768
27324.964
21166.728
16226.45
12291.819
9189.004
6777.3121
4933.2082
3545.996
2519.0623
1770.4187
1231.6945
844.20317
567.33073
370.63496
244.06714
183.22301
154.54149
134.34535
120.64528
112.85818
107.27749
102.81335
101.18287
97.999529
96.980466
124936.1
90351.342
67426.38
52224.417
41155.541
32508.185
25531.331
19863.785
15285.421
11617.932
8713.7305
6448.6786
4710.4792
3398.0151
2422.6798
1708.8477
1193.0126
819.9832
552.51038
361.39296
239.35575
181.4318
153.67378
133.81431
120.36924
112.71854
107.19142
102.79054
101.1716
97.990682
96.980259
103821.56
77645.049
60277.503
47793.666
38126.871
30323.762
23927.012
18688.09
14430.373
11002.445
8278.1141
6146.3055
4504.6749
3260.6789
2332.8383
1651.2068
1156.6365
797.07794
538.45269
352.56741
234.89199
179.7456
152.83581
133.29548
120.10063
112.58482
107.10817
102.76734
101.15879
97.98219
96.980052
89053.807
69068.719
54920.611
44149.881
35505.021
28385.232
22485.968
17623.912
13651.232
10439.145
7878.0762
5867.588
4314.2128
3133.0624
2249.0135
1597.2064
1122.4079
775.39547
525.09154
344.1402
230.66904
178.15737
152.02712
132.79081
119.84085
112.45847
107.02929
102.74423
101.14501
97.974069
96.979893
78101.419
62330.219
50491.314
41026.595
33200.281
26654.026
21187.303
16658.042
12939.858
9922.8804
7510.1766
5610.319
4137.7388
3014.3636
2170.7451
1546.5893
1090.1857
754.87227
512.36771
336.0953
226.68071
176.66033
151.24612
132.29939
119.58823
112.33864
106.95442
102.72101
101.13112
97.966352
96.979873
70028.737
57143.19
46862.65
38339.378
31161.538
25101.465
20013.673
15779.374
12289.423
9449.1808
7171.4387
5372.5908
3974.0746
2903.878
2097.6246
1499.1253
1059.8428
735.45035
500.23365
328.41487
222.92082
175.2476
150.49194
131.82147
119.34232
112.22527
106.88389
102.69782
101.11806
97.959037
96.980015
64046.839
52969.519
43767.344
35976.052
29341.087
23703.637
18950.369
14978.45
11694.018
9014.1085
6859.2525
5152.7312
3822.1826
2800.9805
2029.2865
1454.6074
1031.2681
717.07111
488.63742
321.08116
219.38249
173.91225
149.76382
131.35691
119.10205
112.11753
106.81756
102.6746
101.10652
97.952156
96.98033
59292.257
49449.807
41069.463
33879.267
27708.938
22442.053
17984.822
14247.241
11148.507
8614.1744
6571.3099
4949.2602
3681.1401
2705.112
1965.4023
1412.8483
1004.366
699.68698
477.53634
314.07975
216.05782
172.64777
149.06131
130.90584
118.86664
112.01454
106.75543
102.65142
101.09686
97.945764
96.980835
55367.301
46422.473
38695.24
32009.262
26241.208
21300.731
17106.259
13578.979
10648.318
8246.2664
6305.5567
4760.8585
3550.1214
2615.7695
1905.6743
1373.6779
979.04425
683.25132
466.92071
307.3997
212.93848
171.44811
148.38412
130.46843
118.63531
111.91501
106.69715
102.62843
101.08914
97.939792
96.981547
52021.868
43776.281
36589.086
30334.248
24917.911
20265.98
16305.57
12967.726
10189.346
7907.6037
6060.1578
4586.3437
3428.3832
2532.4981
1849.8321
1336.9405
955.21567
667.72141
456.78022
301.03229
210.01568
170.30754
147.73211
130.04495
118.40747
111.81743
106.64221
102.60601
101.08303
97.934124
96.982479
49120.64
41443.418
34711.677
28829.25
23722.266
19326.067
15574.94
12408.187
9767.9218
7595.7005
5833.4688
4424.6524
3315.2542
2454.8851
1797.6291
1302.4931
932.80403
653.0583
447.10195
294.97018
207.28032
169.22079
147.10523
129.63578
118.18272
111.72007
106.58989
102.58478
101.07795
97.928896
96.983642
46579.331
39374.821
33031.724
27473.703
22639.753
18470.837
14907.646
11895.64
9380.7669
7308.3324
5624.0121
4274.8252
3210.1263
2382.5548
1748.8399
1270.2043
911.74113
639.22613
437.87093
289.20765
204.7231
168.18301
146.50341
129.24138
117.96087
111.6212
106.5393
102.56542
101.07354
97.924425
96.985042
44338.908
37532.4
31523.702
26250.095
21657.853
17691.641
14297.773
11425.888
9024.957
7043.5055
5430.4576
4135.9944
3112.4472
2315.1647
1703.2577
1239.9578
891.96247
626.19352
429.07017
283.74065
202.33481
167.18989
145.92651
128.86218
117.74195
111.51927
106.48956
102.54847
101.06969
97.920646
96.986682
42353.794
35885.088
30166.344
25143.435
20765.778
16981.044
13740.084
10995.193
8697.8771
6799.4295
5251.6058
4007.3744
3021.7145
2252.402
1660.6925
1211.6401
873.40763
613.93247
420.68198
278.56545
200.10647
166.2376
145.37419
128.49861
117.52621
111.41315
106.43986
102.53397
101.06637
97.917499
96.988565
40585.638
34406.946
28941.854
24140.752
19954.216
16332.627
13229.913
10600.218
8397.1864
6574.495
5086.3736
3888.2529
2937.471
2193.9803
1620.969
1185.1409
856.00883
602.41606
412.68894
273.67736
198.02932
165.32284
144.84587
128.15099
117.31407
111.30237
106.3896
102.52123
101.06346
97.914928
96.99069
39004.293
33076.675
27835.012
23230.89
19215.203
15740.7
12763.106
10237.983
8120.7863
6367.2532
4933.782
3777.9833
2859.2998
2139.6382
1583.9264
1160.366
839.69793
591.61642
405.07434
269.07042
196.09489
164.4429
144.34068
127.81947
117.10616
111.1872
106.33841
102.50917
101.06067
97.912918
96.993051
37584.198
31876.278
26832.709
22404.194
18541.837
15200.208
12335.962
9905.8246
7866.7938
6176.3988
4792.9454
3675.9786
2786.8212
2089.1364
1549.4289
1137.229
824.41986
581.50372
397.82169
264.73804
194.29503
163.59559
143.8574
127.50405
116.9032
111.0687
106.28637
102.49691
101.05682
97.911459
96.995637
36304.531
30790.657
25923.591
21652.272
17928.088
14706.652
11945.178
9601.3586
7633.5174
6000.7549
4663.0624
3581.7057
2719.6887
2042.2547
1517.3389
1115.6524
810.12393
572.05368
390.91463
260.67354
192.62198
162.77932
143.39454
127.20453
116.70601
110.94844
106.23411
102.48389
101.05156
97.910535
96.998434
35147.462
29806.806
25097.825
20967.857
17368.582
14256.029
11587.808
9322.4485
7419.4364
5839.2599
4543.4073
3494.6805
2657.5863
1998.8004
1487.5185
1095.5617
796.77205
563.22507
384.34052
256.86966
191.06836
161.99299
142.95037
126.92057
116.51543
110.82822
106.18249
102.46977
101.04532
97.910125
97.001422
34097.915
28913.472
24346.832
20344.57
16858.527
13844.779
11261.216
9067.1775
7223.1835
5690.9555
4433.3232
3414.4639
2600.2274
1958.5887
1459.8599
1076.8882
784.33241
554.98651
378.09234
253.31864
189.62726
161.23594
142.52308
126.65178
116.3322
110.70968
106.13216
102.45455
101.03768
97.910161
97.004583
33143.073
28100.327
23663.069
19776.816
16393.68
13469.69
10963.034
8833.8284
7043.5286
5554.9773
4332.2157
3340.6561
2547.3682
1921.4417
1434.2602
1059.5693
772.7726
547.31198
372.16678
250.01303
188.2922
160.50794
142.11088
126.39778
116.1569
110.59412
106.08363
102.43816
101.02775
97.911135
97.0079
32271.514
27358.96
23040.015
19259.669
15970.266
13127.884
10691.138
8620.8624
6879.367
5430.5466
4239.5454
3272.915
2498.7651
1887.2151
1410.6245
1043.5472
762.05972
540.17617
366.5617
246.94552
187.05718
159.80904
141.71221
126.15827
115.98989
110.48229
106.03727
102.42089
101.01521
97.91257
97.011359
31473.508
26681.826
22471.851
18788.663
15584.878
12816.835
10443.632
8426.8906
6729.7051
5316.9607
4154.8422
3210.9048
2454.1835
1855.7695
1388.8658
1028.769
752.16152
533.55364
361.27441
244.10854
185.91664
159.13955
141.32583
125.93314
115.83136
110.37435
105.99356
102.40351
101.00116
97.914547
97.014921
30740.542
26062.264
21953.421
18359.808
15234.479
12534.259
10218.876
8250.6546
6593.6479
5213.6119
4077.7098
3154.3084
2413.4337
1826.9772
1368.9052
1015.1863
743.04727
527.42084
356.30186
241.49406
184.86533
158.49982
140.95106
125.72236
115.68171
110.26974
105.95283
102.38641
100.98491
97.916861
97.018542
30065.263
25494.427
21480.181
17969.565
14916.363
12278.119
10015.305
8091.0159
6470.4199
5120.0026
4007.7319
3102.8794
2376.3392
1800.7233
1350.6708
1002.7549
734.68834
521.75637
351.64143
239.09376
183.89858
157.89012
140.58785
125.52639
115.54088
110.16785
105.91522
102.36985
100.96828
97.919561
97.022184
29441.411
24973.269
21048.173
17614.825
14628.117
12046.585
9831.6292
7947.1978
6359.4264
5035.5848
3944.5201
3056.3744
2342.74
1776.9042
1334.098
991.43469
727.0585
516.54107
347.29134
236.9016
183.01
157.3106
140.23674
125.34541
115.40865
110.06833
105.88096
102.35349
100.95237
97.922577
97.025819
28863.845
24494.593
20654.084
17293.058
14367.813
11838.242
9666.8368
7818.5078
6260.005
4959.8551
3887.7712
3014.5711
2312.4923
1755.4268
1319.1282
981.18969
720.13417
511.75793
343.26005
234.90515
182.18844
156.76143
139.89861
125.17951
115.28485
109.97082
105.85008
102.33702
100.93607
97.925933
97.029406
28332.424
24057.569
20296.769
17003.118
14134.536
11652.254
9520.1091
7703.8915
6171.4754
4892.4273
3837.1961
2977.2739
2285.4675
1736.2079
1305.7094
971.98749
713.89448
507.39285
339.55454
233.08713
181.43408
156.24264
139.57472
125.02851
115.16938
109.87523
105.82233
102.32034
100.91891
97.929628
97.032929
27853.129
23665.214
19977.391
16744.947
13927.721
11487.763
9390.3739
7602.5702
6093.3423
4832.9236
3792.5414
2944.3106
2261.5513
1719.1733
1293.7951
963.80205
708.32182
503.43504
336.17384
231.43886
180.74462
155.75404
139.26646
124.89184
115.0621
109.78184
105.79757
102.30344
100.90112
97.933667
97.036404
27423.884
23316.048
19694.488
16517.028
13745.243
11342.984
9276.4957
7513.9527
6025.1166
4781.0161
3753.5823
2915.5302
2240.6431
1704.2574
1283.3438
956.60824
703.40177
499.8762
333.11456
229.95336
180.11872
155.29531
138.97508
124.76854
114.9631
109.69124
105.77569
102.28636
100.88289
97.938051
97.039802
27023.323
22996.167
19439.151
16313.795
13584.053
11216.211
9177.6018
7437.3836
5966.3737
4736.4155
3720.1247
2890.8009
2222.6556
1691.403
1274.3195
950.38266
699.12275
496.7107
330.37242
228.6245
179.55502
154.86607
138.70152
124.65731
114.8725
109.60425
105.75651
102.2691
100.86457
97.942802
97.043077
26633.316
22692.37
19202.636
16130.04
13441.686
11106.108
9092.7438
7372.289
5916.7434
4698.8723
3692.0019
2870.0108
2207.5133
1680.5613
1266.6916
945.10831
695.4765
493.93537
327.9428
227.44663
179.05252
154.46589
138.44625
124.55674
114.7902
109.52173
105.73989
102.25163
100.84655
97.947936
97.046177
26263.304
22408.726
18986.025
15965.297
13316.783
11011.533
9021.1727
7318.1774
5875.9059
4668.1732
3669.0724
2853.0671
2195.1542
1671.6905
1260.4341
940.77046
692.45701
491.54943
325.82119
226.4147
178.6104
154.09439
138.20916
124.46545
114.71584
109.4444
105.72571
102.23387
100.82908
97.953457
97.049113
25917.507
22147.34
18789.936
15819.332
13208.757
10931.815
8962.3222
7274.6443
5843.5919
4644.1397
3651.2201
2839.8933
2185.5285
1664.7572
1255.5256
937.35733
690.06048
489.55437
324.00334
225.5241
178.2281
153.75127
137.98964
124.38236
114.64899
109.37267
105.71388
102.21565
100.81232
97.959375
97.05203
25596.103
21908.532
18614.443
15691.936
13117.229
10866.502
8915.772
7241.3662
5819.5817
4626.6271
3638.3535
2830.4306
2178.5973
1659.736
1251.9492
934.86006
688.28538
487.95374
322.48546
224.77075
177.90526
153.43635
137.78663
124.30675
114.58925
109.30661
105.70435
102.19686
100.7964
97.965739
97.054752
25297.187
21691.213
18458.93
15582.679
13041.836
10815.253
8881.2099
7218.0923
5803.703
4615.5241
3630.4048
2824.637
2174.3333
1656.6082
1249.6928
933.27233
687.13215
486.75324
321.26425
224.15095
177.64177
153.14963
137.59884
124.23822
114.53645
109.24579
105.69715
102.17763
100.78134
97.972595
97.057261
25018.229
21493.664
18322.348
15490.933
12982.18
10777.791
8858.4099
7204.636
5795.8265
4610.7524
3627.3297
2822.4878
2172.7213
1655.3626
1248.7482
932.59051
686.60279
485.96104
320.337
223.66148
177.43774
152.89127
137.42495
124.17657
114.49072
109.18944
105.6924
102.15841
100.76703
97.97996
97.059715
24756.508
21313.98
18203.479
15415.976
12937.849
10753.889
8847.2261
7200.8642
5795.8672
4612.1258
3628.9387
2823.8359
2173.662
1655.9372
1249.0768
932.78973
686.68928
485.58826
319.70162
223.29939
177.29346
152.66156
137.26377
124.1216
114.4524
109.1368
105.69045
102.13987
100.75325
97.987904
97.062095
24509.258
21150.276
18101.12
15357.089
12908.432
10743.371
8847.5959
7206.139
5802.9571
4619.5661
3635.5222
2828.9882
2177.3696
1658.4629
1250.755
933.92189
687.42771
485.63841
319.35641
223.06174
177.2093
152.46081
137.1144
124.07298
114.42194
109.08717
105.69155
102.12269
100.73979
97.996489
97.064434
24273.818
21000.787
18014.189
15313.634
12893.576
10745.901
8858.4052
7220.6462
5818.5666
4633.6623
3647.0459
2837.8047
2183.7526
1662.8848
1253.7474
935.96039
688.80973
486.1558
319.30022
222.94523
177.1856
152.28944
136.97645
124.03033
114.39972
109.04045
105.69544
102.1072
100.7266
98.005779
97.066778
24047.364
20863.815
17941.781
15285.077
12893.215
10760.615
8880.5619
7245.7949
5842.2236
4654.0806
3663.501
2850.3341
2192.8452
1669.2254
1258.0654
938.90961
690.84405
487.1448
319.52007
222.94658
177.22089
152.1484
136.85047
123.99353
114.38602
108.99758
105.70135
102.09296
100.71387
98.015805
97.069178
23825.676
20737.256
17883.088
15271.05
12906.03
10787.648
8915.2171
7280.7301
5873.8903
4680.9193
3684.9573
2866.636
2204.693
1677.5157
1263.7251
942.7754
693.54006
488.63583
320.05201
223.03496
177.32778
152.04
136.73822
123.96295
114.37942
108.95854
105.70835
102.07873
100.70213
98.026379
97.071687
23600.076
20617.331
17836.806
15271.542
12932.346
10828.124
8961.0732
7325.4456
5913.6634
4714.2751
3711.4985
2886.78
2219.3498
1687.7929
1270.7462
947.56403
696.90641
490.66537
320.88192
223.26956
177.48647
151.96702
136.64118
123.93887
114.37263
108.91884
105.71585
102.06329
100.69171
98.03737
97.074356
23352.558
20495.848
17798.466
15282.916
12970.447
10877.921
9012.9057
7374.4276
5956.8792
4750.5419
3740.4413
2908.8213
2235.4349
1699.0842
1278.4302
952.74083
700.48613
492.83408
321.75173
223.56281
177.64925
151.92632
136.55703
123.92056
114.34814
108.86799
105.72295
102.046
100.68244
98.048847
97.077224
51030.663
75246.37
99436.91
98487.017
84473.248
61130.909
43883.408
32076.314
23696.472
17464.836
12759.975
9208.8752
6557.194
4609.616
3202.3458
2201.1396
1498.6705
1008.6162
667.17784
431.77524
276.07593
195.75787
160.19006
137.66522
122.4251
113.79358
107.83078
102.93867
101.21018
98.05389
96.981398
49175.448
70529.251
94092.953
96401.643
83237.957
60914.837
43908.312
32179.04
23808.417
17573.653
12858.776
9292.4901
6622.9719
4658.4756
3236.9917
2224.7366
1514.1482
1018.5401
673.38136
435.83402
278.3353
196.62216
160.58368
137.90209
122.56564
113.8772
107.87635
102.93798
101.20337
98.057212
96.980694
47586.868
66766.469
89040.268
93595.642
81679.056
60521.63
43902.155
32267.326
23913.121
17678.179
12954.905
9374.6104
6688.159
4707.2199
3271.7255
2248.4808
1529.7675
1028.5656
679.66548
439.92875
280.64518
197.51379
160.98463
138.1399
122.7099
113.96407
107.92217
102.93674
101.19594
98.060666
96.979902
46133.157
63588.141
84458.309
90743.896
80133.979
60089.958
43875.264
32340.706
24009.897
17777.981
13048.112
9455.099
6752.6547
4755.7894
3306.5168
2272.358
1545.5224
1038.6927
686.02778
444.04505
282.99017
198.431
161.39477
138.38018
122.85937
114.05477
107.96861
102.93567
101.18843
98.064259
96.979012
44829.026
60844.04
80289.558
87858.589
78582.903
59622.444
43816.28
32398.079
24098.049
17872.684
13138.194
9533.8302
6816.3731
4804.1333
3341.3386
2296.3556
1561.4073
1048.9193
692.46705
448.17062
285.3636
199.36844
161.81103
138.6206
123.0128
114.14849
108.01525
102.93469
101.18072
98.067975
96.977975
43670.753
58439.435
76511.169
84965.824
77019.542
59115.437
43725.601
32438.705
24177.027
17961.969
13224.986
9610.6994
6879.2406
4852.2069
3376.1671
2320.4619
1577.4173
1059.2451
698.98241
452.28729
287.76428
200.32387
162.23122
138.85938
123.16917
114.24463
108.06174
102.93374
101.17277
98.071802
96.976759
42647.542
56312.673
73087.062
82099.408
75410.802
58588.067
43607.007
32461.995
24246.365
18045.575
13308.336
9685.6086
6941.1881
4899.9672
3410.979
2344.6658
1593.5474
1069.6686
705.57311
456.39317
290.1927
201.29747
162.65481
139.09611
123.32823
114.34296
108.10795
102.93284
101.16462
98.075732
96.975347
41749.99
54421.91
69983.812
79287.996
73760.793
58036.511
43461.129
32464.276
24305.561
18123.293
13388.092
9758.4577
7002.1453
4947.3708
3445.7503
2368.9556
1609.7926
1080.1882
712.23854
460.48583
292.64901
202.28977
163.08173
139.33098
123.49005
114.44342
108.15391
102.93195
101.15631
98.079756
96.973707
40968.857
52736.785
67169.826
76558.734
72078.308
57462.255
43289.344
32454.602
24354.514
18194.84
13464.091
9829.1437
7062.0404
4994.3729
3480.4563
2393.3189
1626.1475
1090.8023
718.97847
464.56289
295.13308
203.30105
163.51177
139.5643
123.65466
114.5459
108.19959
102.93105
101.14786
98.08386
96.971798
40291.76
51230.73
64612.162
73910.802
70326.854
56880.825
43093.581
32428.372
24392.873
18259.908
13536.167
9897.5611
7120.8009
5040.9272
3515.0715
2417.743
1642.6062
1101.509
725.79322
468.62276
297.64473
204.33142
163.94455
139.79646
123.82197
114.65023
108.24496
102.93005
101.13929
98.088024
96.969592
39706.286
49881.806
62286.189
71362.462
68589.172
56280.994
42874.78
32381.634
24420.159
18318.243
13604.155
9963.6031
7178.3545
5086.9869
3549.5693
2442.2147
1659.163
1112.3066
732.68402
472.6634
300.18349
205.381
164.37967
140.02798
123.9918
114.75617
108.28994
102.92878
101.13066
98.092228
96.967079
39201.024
48670.9
60166.14
68902.991
66732.863
55604.1
42630.031
32317.339
24435.919
18369.596
13667.887
10027.161
7234.6281
5132.5052
3583.9227
2466.7201
1675.8113
1123.1927
739.65353
476.69304
302.7484
206.44991
164.81677
140.25952
124.16391
114.86346
108.33436
102.92704
101.12206
98.096451
96.964257
38765.864
47582.323
58229.793
66556.144
64970.782
54864.868
42357.75
32235.2
24438.49
18413.721
13727.206
10088.126
7289.5482
5177.4345
3618.1041
2491.245
1692.5447
1134.1647
746.7062
480.72518
305.33818
207.53833
165.25561
140.49188
124.33803
114.97185
108.37809
102.92469
101.11367
98.100674
96.961126
38392.292
46603.488
56462.172
64352.255
63380.519
54084.105
42057.977
32135.381
24432.479
18450.579
13781.967
10146.391
7343.0402
5221.7268
3652.0855
2515.7749
1709.3562
1145.2192
753.82952
484.78244
307.95191
208.64635
165.69605
140.72596
124.51384
115.08109
108.42078
102.92165
101.10568
98.104881
96.95769
38071.869
45722.576
54849.55
62296.011
61885.237
53273.515
41731.53
32017.945
24415.536
18479.993
13832.029
10201.852
7395.0294
5265.3336
3685.8384
2540.2948
1726.2389
1156.3537
761.00278
488.90104
310.58872
209.77409
166.13812
140.96266
124.69101
115.19097
108.462
102.91799