/*--------------------------------*- C++ -*----------------------------------*\
| =========                 |                                                 |
| \\      /  F ield         | OpenFOAM: The Open Source CFD Toolbox           |
|  \\    /   O peration     | Version:  2406                                  |
|   \\  /    A nd           | Website:  www.openfoam.com                      |
|    \\/     M anipulation  |                                                 |
\*---------------------------------------------------------------------------*/
FoamFile
{
    version     2.0;
    format      ascii;
    arch        "LSB;label=32;scalar=64";
    class       surfaceScalarField;
    location    "0.041";
    object      phi;
}
// * * * * * * * * * * * * * * * * * * * * * * * * * * * * * * * * * * * * * //

dimensions      [1 0 -1 0 0 0 0];

oriented        oriented;

internalField   nonuniform List<scalar> 
71073
(
0.008623953
-0.01166862
0.011939462
-0.0088943297
0.0083575998
-0.013770607
0.014037131
0.0080684805
-0.016230995
0.016520376
0.0077534673
-0.019119856
0.019435275
0.0074167317
-0.022510651
0.022847963
0.0070650826
-0.026479801
0.026832109
0.0067067103
-0.031112142
0.031471173
0.006350916
-0.036508429
0.036864846
0.0060059376
-0.042803721
0.043149143
0.005674673
-0.050177478
0.050508847
0.0053585572
-0.05881739
0.059133188
0.0050596921
-0.068898069
0.069196177
0.0047767257
-0.080669568
0.080951491
0.0045043537
-0.094405278
0.094676405
0.0042335107
-0.11040472
0.11067418
0.0039485545
-0.12878223
0.12906583
0.0036125169
-0.14930863
0.149644
0.0031544985
-0.17111922
0.17157838
0.0026499949
-0.19365507
0.19416341
0.0022589269
-0.21981326
0.22020911
0.0019453665
-0.25092639
0.25124189
0.0016584704
-0.28679709
0.28708179
0.0013902193
-0.32731149
0.32757731
0.0011527533
-0.37498085
0.37521951
0.00094570373
-0.42669337
0.42690348
0.0007573745
-0.48818417
0.48837321
0.00057682476
-0.5562433
0.55641529
0.00041371028
-0.63846916
0.63862488
0.00023430153
-0.72924662
0.72942119
7.5264108e-05
-0.83758086
0.83774079
-0.91743078
0.91746525
0.0097559749
-0.011417697
-0.010004789
0.0094741254
-0.013487226
0.0091660889
-0.015921708
0.0088321108
-0.018784721
0.0084736498
-0.02215107
0.0080957539
-0.026100873
0.0077065868
-0.030722106
0.0073164672
-0.03611757
0.006934912
-0.042421547
0.0065633458
-0.049805742
0.0062037874
-0.058458135
0.0058604249
-0.068555533
0.0055330317
-0.080343361
0.0052163638
-0.094090043
0.0048995697
-0.11008953
0.0045615825
-0.12844582
0.0041616717
-0.14890953
0.0036237819
-0.17057999
0.003040254
-0.19306715
0.0025955553
-0.21936306
0.0022367347
-0.25056532
0.0019064301
-0.28646929
0.0015988002
-0.32700667
0.0013239901
-0.37470488
0.0010874112
-0.42645318
0.00087001277
-0.48796599
0.00066307762
-0.5560455
0.00047511135
-0.63828976
0.00026928855
-0.72904743
8.4878801e-05
-0.83739642
-0.91739487
0.010948293
-0.011181494
-0.011182863
0.010672767
-0.013210296
0.010362251
-0.015609896
0.01001977
-0.018440973
0.0096475102
-0.021777578
0.0092499662
-0.025702204
0.0088350857
-0.030306305
0.0084137847
-0.035695526
0.0079953083
-0.042002495
0.0075827162
-0.049392881
0.0071773587
-0.05805302
0.0067857864
-0.068164889
0.0064087104
-0.079967633
0.0060412816
-0.093724261
0.00567086
-0.10972098
0.0052703076
-0.12804713
0.0047922814
-0.1484325
0.0041593551
-0.16994551
0.0034888426
-0.1923916
0.0029861768
-0.21885409
0.0025758326
-0.25015233
0.0021951275
-0.28609143
0.001842395
-0.32665722
0.0015228155
-0.37438462
0.001252366
-0.42617863
0.0010004945
-0.4877135
0.00076318128
-0.55581761
0.00054605221
-0.63808256
0.00030948927
-0.72881977
9.5916906e-05
-0.83718399
-0.91727131
0.012211358
-0.010964208
-0.012428052
0.011953496
-0.012951713
0.011654587
-0.015310138
0.011316379
-0.018101779
0.010941267
-0.021401398
0.010533558
-0.025293437
0.010100712
-0.029872536
0.0096532925
-0.035247318
0.0092007161
-0.041549361
0.008747665
-0.048939648
0.0082960515
-0.057601779
0.0078533217
-0.067723212
0.0074214443
-0.079537289
0.0069962071
-0.093300924
0.0065631821
-0.10929013
0.006088667
-0.12757478
0.0055148898
-0.14785993
0.0047684037
-0.16919726
0.0040023551
-0.1916198
0.0034356786
-0.21828015
0.0029659942
-0.24967955
0.0025267789
-0.28565544
0.0021230075
-0.32625727
0.0017505447
-0.37401237
0.0014423723
-0.42586594
0.0011499753
-0.48742069
0.00087848281
-0.55555579
0.00062732865
-0.63784292
0.00035567957
-0.72855981
0.0001073755
-0.83693833
-0.91721876
0.013541371
-0.010774127
-0.013731362
0.013310498
-0.012720574
0.013035524
-0.015034693
0.012715533
-0.017781094
0.01235151
-0.021036497
0.011946714
-0.024887662
0.011507436
-0.0294323
0.011042995
-0.03478204
0.010562776
-0.041068575
0.010072747
-0.048449502
0.0095762327
-0.057105761
0.0090808734
-0.067229041
0.0085897701
-0.079047935
0.0080994245
-0.092812778
0.0075935405
-0.10878679
0.0070314908
-0.12701528
0.0063405496
-0.14717039
0.0054583398
-0.16831303
0.0045893268
-0.19074421
0.0039521251
-0.21763461
0.0034149305
-0.2491387
0.0029083285
-0.2851525
0.0024470896
-0.32580044
0.0020121437
-0.3735788
0.0016626581
-0.42551165
0.0013224428
-0.48708022
0.0010115947
-0.55525475
0.00072074753
-0.63756548
0.00040874272
-0.7282628
0.0001198478
-0.836654
-0.91715953
0.014925262
-0.010620458
-0.015078817
0.014731678
-0.012526752
0.014493036
-0.014795623
0.014206021
-0.017493423
0.013869263
-0.020698861
0.013483763
-0.024501128
0.01305355
-0.02900102
0.012585788
-0.034313333
0.012088898
-0.040571055
0.011569556
-0.047930056
0.011032465
-0.056569253
0.010485304
-0.066683219
0.0099319331
-0.078496565
0.0093693699
-0.092252772
0.008779046
-0.10819946
0.0081132122
-0.12635244
0.0072790885
-0.14633789
0.0062360246
-0.16726765
0.0052604951
-0.18976118
0.0045446263
-0.21690913
0.0039308143
-0.24852058
0.0033468531
-0.28457267
0.0028208976
-0.3252796
0.0023123227
-0.3730722
0.0019172468
-0.42511206
0.0015215313
-0.48668386
0.0011649136
-0.55490772
0.00082806645
-0.63724427
0.0004696611
-0.72792315
0.00013301797
-0.83632457
-0.9170977
0.016346902
-0.010512244
-0.016454801
0.016201323
-0.012380701
0.01601188
-0.014605518
0.01577338
-0.017254037
0.015481637
-0.020406013
0.015134393
-0.024152624
0.014732288
-0.028597627
0.014279252
-0.033859168
0.013781492
-0.040072549
0.01324528
-0.047393714
0.012676018
-0.056000649
0.012081068
-0.066089782
0.011464525
-0.077882325
0.010823264
-0.091614503
0.010135216
-0.10751494
0.0093457945
-0.12556651
0.0083364991
-0.14533046
0.0071058631
-0.16603457
0.0060282195
-0.18867499
0.0052231055
-0.21609292
0.0045225589
-0.24781492
0.0038506955
-0.28390549
0.0032519344
-0.32468678
0.002657995
-0.37248025
0.0022104439
-0.42466078
0.0017509785
-0.4862232
0.0013415228
-0.55450698
0.00095143688
-0.63687241
0.00053935612
-0.72753407
0.00014950337
-0.83594571
-0.91686824
0.017787541
-0.010457516
-0.017841707
0.01770146
-0.012293779
0.017575699
-0.014478643
0.017402353
-0.017079393
0.017174175
-0.020176357
0.016885369
-0.023862215
0.016532572
-0.028243245
0.016115543
-0.033440778
0.015636944
-0.039593063
0.015101044
-0.04685765
0.014512591
-0.055412943
0.013877771
-0.065456696
0.013199954
-0.077207188
0.012474521
-0.090892598
0.011672502
-0.1067171
0.010734953
-0.12463305
0.0095123975
-0.14411002
0.008070517
-0.16458979
0.006905172
-0.18749981
0.0059983034
-0.21517323
0.0051994597
-0.24701003
0.0044289397
-0.28314029
0.0037485518
-0.32401324
0.0030588461
-0.37179214
0.0025481508
-0.42414715
0.0020150421
-0.48568815
0.0015450399
-0.55404241
0.0010932998
-0.63644172
0.00061955274
-0.72708847
0.00016736838
-0.83551079
-0.9167985
0.019260146
-0.010461783
-0.019254977
0.019239929
-0.012272369
0.019185808
-0.014423093
0.019088369
-0.016980274
0.0189377
-0.020023809
0.018724458
-0.023647007
0.01844087
-0.02795777
0.018081647
-0.033079979
0.017644469
-0.039154889
0.017129612
-0.046342644
0.016539087
-0.054823316
0.015876295
-0.064795946
0.015142178
-0.07647624
0.014328439
-0.090083059
0.01339723
-0.10579087
0.012272741
-0.12351335
0.010784945
-0.14262461
0.0091354034
-0.16293686
0.007901752
-0.18625484
0.0068816111
-0.21413822
0.0059709959
-0.24609228
0.0050916091
-0.28226699
0.004318026
-0.32324752
0.0035243172
-0.37099966
0.0029378515
-0.42355828
0.002318048
-0.48506539
0.0017806021
-0.55350302
0.0012562221
-0.63594061
0.00071178336
-0.72657902
0.00018747467
-0.83501217
-0.91672617
0.020788113
-0.010522968
-0.020725639
0.020833331
-0.012316045
0.02085218
-0.014440126
0.020834207
-0.016960232
0.020767915
-0.019955297
0.02064115
-0.023517999
0.020441808
-0.027756351
0.020159063
-0.032795569
0.019784421
-0.038779279
0.019312154
-0.04587038
0.018738932
-0.054251288
0.018062867
-0.064122384
0.017279588
-0.075696782
0.016373173
-0.089181699
0.015289973
-0.10471362
0.013926572
-0.12215555
0.012128455
-0.14082919
0.010317711
-0.16112216
0.0090236024
-0.18494759
0.0078836346
-0.21298095
0.006846477
-0.24504675
0.0058491858
-0.2812767
0.0049677778
-0.3223751
0.0040618999
-0.37009474
0.0033858606
-0.42288036
0.0026639835
-0.48433839
0.0020550724
-0.55288176
0.0014424656
-0.63534955
0.00081772724
-0.72599945
0.0002095639
-0.83443746
-0.91664909
0.022382009
-0.010634427
-0.022268936
0.022486653
-0.012418819
0.022575226
-0.014526587
0.022636204
-0.017018928
0.022656253
-0.019973023
0.022620802
-0.023480305
0.022514018
-0.027647594
0.022319947
-0.032600049
0.022023675
-0.038482365
0.021612113
-0.045459261
0.021074045
-0.053714974
0.020398965
-0.063450513
0.019572651
-0.074875179
0.018564502
-0.088179703
0.017290599
-0.10344686
0.01561044
-0.12048195
0.01351139
-0.13873316
0.011644433
-0.15925043
0.010276286
-0.18356399
0.0090111573
-0.21169565
0.0078349006
-0.24386078
0.0067119229
-0.28016184
0.0057066865
-0.32138005
0.0046807611
-0.36906899
0.0038990974
-0.42209705
0.0030579411
-0.48348865
0.0023760132
-0.55217436
0.0016546224
-0.63464419
0.00093972109
-0.72534557
0.00024166966
-0.8337681
-0.91624405
0.024063075
-0.010795685
-0.023900037
0.024222223
-0.012575841
0.024370203
-0.014672259
0.024498543
-0.017145073
0.024594569
-0.020067091
0.024642012
-0.023526008
0.024622646
-0.027626879
0.02451667
-0.032493358
0.024303205
-0.038269083
0.023960937
-0.045118327
0.023468272
-0.053225023
0.02280179
-0.062788297
0.021930261
-0.074009578
0.020796589
-0.087053593
0.019260329
-0.10191919
0.017173972
-0.11840325
0.014925047
-0.13648752
0.01313581
-0.1574551
0.011665647
-0.18207534
0.01026254
-0.21026899
0.0089470123
-0.24253413
0.0076888528
-0.27891332
0.0065423246
-0.32024502
0.0053903696
-0.36791588
0.0044855941
-0.42119036
0.0035095433
-0.48250074
0.0027464481
-0.55136033
0.0018979634
-0.63380204
0.0010797927
-0.72461464
0.00027767675
-0.83296389
-0.91615312
0.02575889
-0.010999657
-0.025553708
0.025966426
-0.012782454
0.026166753
-0.014872034
0.026349726
-0.01732765
0.026504669
-0.020221628
0.026617251
-0.023638416
0.026669329
-0.027679216
0.026638703
-0.032463613
0.026499089
-0.038131193
0.026220358
-0.044842412
0.025768378
-0.052777205
0.02510139
-0.062127065
0.024158987
-0.07307474
0.022835428
-0.085739392
0.020949119
-0.10004319
0.018550689
-0.11601366
0.016437668
-0.13437765
0.014750725
-0.15575981
0.013157884
-0.18045997
0.011655071
-0.20873857
0.010161539
-0.24102833
0.008768686
-0.27753234
0.0074794526
-0.31896846
0.0061990649
-0.36663209
0.0051551503
-0.42014373
0.0040336427
-0.48136742
0.0031664849
-0.55041136
0.0021815104
-0.63281163
0.0012387017
-0.72378089
0.00031798063
-0.83197973
-0.91605149
0.027208686
-0.011216986
-0.026990677
0.02743507
-0.013008235
0.027665207
-0.015101722
0.027890263
-0.017552501
0.028095933
-0.020427475
0.028265699
-0.02380891
0.028379801
-0.027794759
0.028412483
-0.032498602
0.028330611
-0.038052645
0.028093099
-0.044609396
0.027649916
-0.052339919
0.0269333
-0.061418037
0.025840709
-0.071991733
0.024230773
-0.084140918
0.022122795
-0.097947363
0.019924889
-0.11382565
0.018021182
-0.13247606
0.016367954
-0.15409452
0.014779967
-0.17884383
0.01316243
-0.20708878
0.011548401
-0.23940163
0.0099692221
-0.27596828
0.008516557
-0.31752936
0.0071150926
-0.36522302
0.0059165228
-0.41894129
0.0046420744
-0.48008731
0.0036417853
-0.54930962
0.0025089879
-0.63167336
0.0014194794
-0.72279958
0.00036445009
-0.83080437
-0.9159294
0.028185893
-0.011415824
-0.027987685
0.02838752
-0.013210746
0.028588605
-0.015304004
0.028787092
-0.017752582
0.028978057
-0.020620658
0.029145691
-0.023979605
0.029265795
-0.027918791
0.029306341
-0.032543963
0.029226353
-0.037978442
0.028969512
-0.044359395
0.02846443
-0.051842917
0.027622917
-0.060586118
0.026356876
-0.07073727
0.024691567
-0.082489015
0.02292407
-0.096193562
0.021323502
-0.11223496
0.019780931
-0.13093267
0.018168359
-0.15246389
0.016470379
-0.17711013
0.01476525
-0.20534651
0.013022018
-0.2376469
0.01129252
-0.27425898
0.0096557827
-0.31590653
0.0081411433
-0.36369273
0.0067696506
-0.4175623
0.0053407612
-0.47866252
0.0041789418
-0.54806127
0.0028806478
-0.63037741
0.0016258266
-0.72162784
0.00041719032
-0.82946839
-0.9157751
0.02768474
-0.011627948
-0.027474991
0.027896925
-0.013425805
0.028100399
-0.015510927
0.028279087
-0.01793532
0.028417033
-0.020763221
0.028505707
-0.024073489
0.028536106
-0.027955296
0.028495663
-0.032510834
0.028367698
-0.037859042
0.028095185
-0.044096623
0.027617932
-0.051376457
0.026919626
-0.059899438
0.026014494
-0.06984526
0.025010652
-0.081499548
0.023977926
-0.095174233
0.022813909
-0.11107782
0.021398692
-0.12951005
0.019834403
-0.15087225
0.018182554
-0.17541328
0.016411071
-0.20353322
0.014611683
-0.23584059
0.012751762
-0.27242766
0.010932785
-0.31410154
0.0092760123
-0.36200587
0.0077019965
-0.41596648
0.0061343234
-0.47710302
0.0047836259
-0.54667758
0.0032982776
-0.6289096
0.0018594325
-0.72022156
0.0004745939
-0.82801188
-0.91560143
0.025616496
-0.01190342
-0.025345046
0.025916418
-0.013730266
0.026243307
-0.015842937
0.026590828
-0.018288791
0.026940456
-0.021119669
0.027261774
-0.024402373
0.027505817
-0.028207946
0.027605286
-0.032619706
0.02751898
-0.037782917
0.027273128
-0.043861944
0.026901454
-0.051016283
0.026504711
-0.059515168
0.026094272
-0.069450709
0.025626924
-0.081045619
0.024946018
-0.094502279
0.024018306
-0.11014861
0.022876373
-0.12834811
0.021488884
-0.14944397
0.01987985
-0.17374971
0.018120286
-0.20173074
0.016208498
-0.23393134
0.014253382
-0.27051314
0.012348285
-0.3122137
0.010512818
-0.36012065
0.0087390762
-0.41413307
0.0070241583
-0.47538397
0.0054620228
-0.54515626
0.0037695327
-0.62725798
0.0021232081
-0.71855487
0.00053302017
-0.82644
-0.91543602
0.022936216
-0.012139922
-0.022705546
0.023194969
-0.013995273
0.023484897
-0.016139469
0.02380879
-0.018619624
0.024172674
-0.021490945
0.024581926
-0.024819501
0.025049158
-0.028683385
0.025595356
-0.033174064
0.026153398
-0.038348684
0.026640187
-0.044354141
0.026926087
-0.05129313
0.026812
-0.059404895
0.026416424
-0.069085804
0.025977713
-0.08061618
0.025502985
-0.094024775
0.02494186
-0.10956979
0.024070507
-0.12743749
0.022883338
-0.14819885
0.021444183
-0.17224941
0.019750802
-0.20000118
0.017890222
-0.23209031
0.015881837
-0.26856186
0.013816937
-0.31017593
0.011840255
-0.3580848
0.0098901406
-0.41207408
0.0080111999
-0.47347396
0.0062161535
-0.54347507
0.0042948671
-0.62541999
0.0024157658
-0.71664239
0.00058517146
-0.82469817
-0.91530351
0.022605899
-0.012356145
-0.022393224
0.022841448
-0.014234644
0.023101223
-0.016403264
0.023386053
-0.0189086
0.023696328
-0.02180537
0.024030924
-0.025158093
0.024386496
-0.029042653
0.024754089
-0.033544966
0.025152277
-0.038749611
0.025585913
-0.044791026
0.026163812
-0.051887051
0.026790361
-0.060032732
0.02706719
-0.069323363
0.026757887
-0.080281847
0.026185754
-0.09342079
0.025622224
-0.10896111
0.025029175
-0.12678249
0.024133896
-0.1472318
0.02286809
-0.17092531
0.021323048
-0.19844013
0.019472047
-0.23028321
0.017422721
-0.26658578
0.015367853
-0.30816264
0.013272598
-0.35595233
0.011123921
-0.40980566
0.0090835448
-0.47136166
0.0070496032
-0.54158142
0.0048834604
-0.62333901
0.0027442371
-0.71448737
0.0006468738
-0.82270066
-0.91413985
0.021822571
-0.012567026
-0.021607903
0.022063296
-0.014470824
0.02233177
-0.016666238
0.022628641
-0.019198842
0.022952851
-0.022121621
0.023300463
-0.025496169
0.023663631
-0.0293943
0.024033565
-0.033900882
0.024421785
-0.039120662
0.024829405
-0.045177505
0.025169082
-0.052200072
0.025550807
-0.060381662
0.026222408
-0.069958978
0.026911964
-0.080921916
0.026956086
-0.093398833
0.026332274
-0.10826068
0.02563643
-0.12600826
0.02492039
-0.14644846
0.023964102
-0.16993303
0.022650473
-0.19714462
0.020960307
-0.22866214
0.019000925
-0.26470408
0.016951613
-0.30615986
0.014739052
-0.35374075
0.012420256
-0.40741317
0.010189066
-0.46900389
0.0079565571
-0.53931098
0.0055506996
-0.62089085
0.0031289268
-0.71205741
0.00087254766
-0.82049893
-0.91406904
0.021360863
-0.012748523
-0.021167775
0.021578041
-0.014674746
0.021821431
-0.016894465
0.022093216
-0.019453294
0.022395755
-0.022404356
0.02273175
-0.025809537
0.02310419
-0.029740917
0.023515001
-0.034282254
0.023958285
-0.039530467
0.024417208
-0.04559843
0.024880608
-0.052619968
0.025302773
-0.06075456
0.025597081
-0.070197423
0.0259643
-0.081232776
0.02661325
-0.093994206
0.026787911
-0.10837593
0.026240878
-0.12541061
0.025467731
-0.14564988
0.024640989
-0.16911584
0.023631028
-0.19618731
0.022232019
-0.22734096
0.020424295
-0.26295485
0.018426227
-0.30418941
0.01622694
-0.35156915
0.013763406
-0.40494727
0.011346487
-0.46647465
0.0089151119
-0.53665577
0.0062915407
-0.61810816
0.0035911972
-0.70934963
0.00076523265
-0.81767847
-0.91396683
0.020440892
-0.012925822
-0.02025607
0.020648967
-0.014874359
0.020882318
-0.017118358
0.02114284
-0.019703253
0.021431881
-0.022681623
0.021749758
-0.026114339
0.022095333
-0.030072032
0.022465897
-0.034636907
0.022857964
-0.039905095
0.023268057
-0.045989541
0.023691362
-0.053023257
0.024117636
-0.061160139
0.024512621
-0.070571956
0.024732653
-0.081433535
0.024815451
-0.094062603
0.025406379
-0.10896319
0.025915195
-0.12593058
0.025583252
-0.14534904
0.024922914
-0.16850148
0.024119826
-0.19544339
0.023110153
-0.22638083
0.021687659
-0.26154605
0.019849996
-0.30234616
0.017559754
-0.34931152
0.015046848
-0.4024913
0.01249725
-0.46393216
0.0098874057
-0.53395475
0.0070737199
-0.6151949
0.0040850274
-0.70634124
0.00037460156
-0.81397547
-0.91235412
0.019545631
-0.013091412
-0.019384142
0.019728953
-0.015062473
0.019936764
-0.017331778
0.020171912
-0.019944966
0.020437423
-0.022954828
0.020736492
-0.02642244
0.021072314
-0.030418489
0.021447707
-0.035024861
0.021864203
-0.040336498
0.02232052
-0.046463643
0.022810101
-0.053534178
0.023320303
-0.061696084
0.023841838
-0.07112461
0.024406306
-0.082035195
0.024979509
-0.094678963
0.025168721
-0.10920108
0.025277221
-0.12608433
0.025602227
-0.14570362
0.025181026
-0.16808979
0.024411476
-0.1946602
0.02346955
-0.22540251
0.022474266
-0.26049387
0.020851819
-0.30068576
0.018728971
-0.34723151
0.016256858
-0.40012035
0.013575251
-0.46134797
0.010829799
-0.53132894
0.0077713262
-0.61212996
0.0045196549
-0.70305188
0.00066578167
-0.8101432
-0.9105383
0.018273408
-0.013250248
-0.018119476
0.018447992
-0.015242733
0.018645378
-0.017535735
0.018867587
-0.020174807
0.019116364
-0.023212495
0.019392928
-0.026709387
0.019697653
-0.030735376
0.020029725
-0.035371214
0.020387178
-0.040710741
0.020767269
-0.046863462
0.021167519
-0.053957491
0.021586411
-0.062141626
0.022017693
-0.071586012
0.022431787
-0.082482183
0.022773128
-0.095053934
0.023208099
-0.10966629
0.023553422
-0.12644998
0.023821616
-0.14597398
0.024302949
-0.16855349
0.024065501
-0.19435835
0.02341019
-0.22462756
0.022617094
-0.25956378
0.021332178
-0.29928592
0.019375653
-0.34524072
0.017075606
-0.39790288
0.014457489
-0.45883048
0.011636214
-0.5286934
0.0084267432
-0.60903568
0.0049378472
-0.69961178
0.0012526526
-0.80665167
-0.91053393
0.017185777
-0.013380997
-0.017052654
0.017337108
-0.01539138
0.017508877
-0.017704485
0.017703576
-0.020366145
0.017924087
-0.023429307
0.01817387
-0.026955159
0.018457241
-0.031014475
0.018779574
-0.035689107
0.019146716
-0.041073429
0.019563038
-0.047275538
0.020028113
-0.054418699
0.020534383
-0.062644522
0.021067685
-0.072116418
0.021613733
-0.083025447
0.022160526
-0.095597265
0.022564176
-0.11006527
0.022940515
-0.12682311
0.023121504
-0.1461643
0.02311956
-0.16857069
0.023243709
-0.19445677
0.022941688
-0.22421105
0.022219919
-0.25874048
0.02111208
-0.29801957
0.019472352
-0.34339558
0.017359479
-0.39566416
0.014873285
-0.45628535
0.01218753
-0.52611168
0.0089968238
-0.60595863
0.0053274172
-0.69597419
0.00070076873
-0.80209756
-0.90829906
0.01578406
-0.013498846
-0.015662762
0.015921823
-0.015525236
0.016077797
-0.017856039
0.016253669
-0.020537027
0.016450916
-0.023620924
0.016670577
-0.027168468
0.016913003
-0.031249718
0.017177728
-0.035945669
0.017463747
-0.041350077
0.017771476
-0.047572316
0.018102711
-0.054736995
0.018462459
-0.062988825
0.018858764
-0.072494312
0.019297641
-0.0834429
0.01977268
-0.096048715
0.020304256
-0.11057236
0.020813863
-0.12730544
0.021271028
-0.14657847
0.021599068
-0.16882874
0.021539302
-0.1943485
0.021419273
-0.22416103
0.020814783
-0.25824241
0.019791996
-0.29703032
0.018546299
-0.342045
0.0168431
-0.39382167
0.01480572
-0.45418591
0.012327536
-0.52363545
0.0093329551
-0.60298779
0.0060166093
-0.69280659
0.0027503822
-0.79899505
-0.90758315
0.014298562
-0.013583576
-0.014209947
0.014399852
-0.015621923
0.014515579
-0.017966297
0.014647691
-0.020662619
0.014798305
-0.02376375
0.014969601
-0.027330454
0.015163581
-0.031432572
0.015381675
-0.036150509
0.015624258
-0.041576956
0.015889569
-0.047819139
0.016174955
-0.055000988
0.016474558
-0.063264331
0.01677654
-0.072770029
0.017062259
-0.08370114
0.017310447
-0.096269565
0.017488601
-0.11072518
0.017585322
-0.12738192
0.017575813
-0.14655799
0.017428914
-0.16869354
0.017337696
-0.19429956
0.017136127
-0.22396501
0.017113229
-0.25816131
0.01725063
-0.29714959
0.016798029
-0.34164906
0.015805362
-0.39284676
0.014191776
-0.45252898
0.012172872
-0.52146885
0.0094623027
-0.60034172
0.0063580446
-0.6899875
0.0032194085
-0.79612863
-0.9067927
0.01359664
-0.013653361
-0.013524892
0.013678352
-0.01570129
0.013771192
-0.018056312
0.01387654
-0.020764536
0.01399594
-0.023878939
0.014131032
-0.027460319
0.014283361
-0.031578349
0.014453652
-0.036312605
0.014640578
-0.041753768
0.014838803
-0.048004955
0.015041588
-0.055188617
0.015245508
-0.063449996
0.015453161
-0.072956221
0.01567434
-0.083898026
0.015924315
-0.09649415
0.016215773
-0.11099333
0.016539291
-0.12768619
0.016927293
-0.14693179
0.017340872
-0.16910077
0.017801605
-0.19476923
0.018115222
-0.22429593
0.01771298
-0.2577893
0.016865464
-0.29633452
0.015976884
-0.34072317
0.015009111
-0.39173684
0.013497251
-0.45088295
0.011706774
-0.51960425
0.0093983688
-0.59820586
0.0068403968
-0.68776707
0.003414687
-0.79322814
-0.90594252
0.011974834
-0.013685852
-0.011935715
0.012019792
-0.015738466
0.012071584
-0.018098978
0.012131253
-0.020813514
0.012200026
-0.023935223
0.01227949
-0.027525316
0.012372162
-0.031654268
0.012482089
-0.03640308
0.012615708
-0.041865088
0.012784314
-0.048148346
0.013000814
-0.05537686
0.01327373
-0.063691165
0.013607601
-0.073254065
0.014002291
-0.084251538
0.014451784
-0.09689739
0.014938894
-0.11143036
0.015426028
-0.12811925
0.015856704
-0.14730273
0.016139107
-0.16933258
0.01615294
-0.19478371
0.015842145
-0.22399729
0.015514862
-0.25738092
0.014866615
-0.29555226
0.013963849
-0.33968397
0.013160984
-0.39082001
0.011932717
-0.44960947
0.010285711
-0.51802486
0.0082871846
-0.59618651
0.0060129714
-0.68559838
0.0028468839
-0.79056112
-0.90551141
0.011108554
-0.013695758
-0.011092711
0.01112618
-0.015748976
0.01114562
-0.018109883
0.01116699
-0.020824635
0.01119045
-0.023946367
0.011216148
-0.027536214
0.011244089
-0.031664461
0.011273981
-0.036411795
0.011304578
-0.041870674
0.011332364
-0.048147196
0.011350634
-0.055363115
0.011350533
-0.063658733
0.01132127
-0.073196357
0.011253736
-0.084163798
0.011146314
-0.096778875
0.011010855
-0.11128839
0.01087557
-0.12797426
0.010773919
-0.14717836
0.010734721
-0.16924842
0.010782106
-0.19475892
0.01084663
-0.22401703
0.010882466
-0.25747602
0.011076875
-0.29574938
0.011143388
-0.33969617
0.010790042
-0.39056142
0.0093871486
-0.44837569
0.0078181315
-0.51672779
0.0062830768
-0.59490548
0.0048216295
-0.68434902
0.0021884944
-0.78834588
-0.90475928
0.0073503958
-0.0073829489
0.0073132345
0.0072708085
0.007222673
0.0071682782
0.0071069155
0.0070376898
0.0069596218
0.0068719462
0.0067743683
0.0066673826
0.006552151
0.0064297553
0.0063000118
0.0061595249
0.0060044609
0.0058312024
0.0056174594
0.0053573667
0.0048965377
0.0041961733
0.0035777242
0.0031625397
0.0031620498
0.00346654
0.0044374632
0.0044099766
0.003747773
0.0028071531
0.00025226943
0.0018842236
-0.001886654
0.0012288157
-0.0012263392
0.0031563326
-0.0041934152
0.0029213496
0.0051754917
-0.0084517916
0.0064326716
0.007275815
-0.014132694
0.012032403
0.0088003733
-0.019713657
0.018189117
0.0097379032
-0.02499077
0.024053243
0.010326346
-0.030405626
0.029817157
0.010746258
-0.03638593
0.035965958
0.011085345
-0.043214497
0.042875314
0.011375543
-0.051098077
0.050807741
0.011626353
-0.060230817
0.059979799
0.011839104
-0.070826751
0.070613676
0.012011333
-0.083127046
0.082954326
0.012139097
-0.097405498
0.097277097
0.012215675
-0.11397088
0.11389371
0.012232366
-0.13312216
0.13310529
0.012167906
-0.1551965
0.15526173
0.01197944
-0.18010057
0.18029111
0.011601677
-0.2075907
0.20797188
0.010944784
-0.23605913
0.23671854
0.010134644
-0.26462797
0.26543803
0.0093789739
-0.29796992
0.29872329
0.0086364563
-0.3375265
0.33826713
0.0078475134
-0.38405522
0.38484431
0.0070008453
-0.43484323
0.43569114
0.0061008013
-0.49539461
0.49629628
0.0051212786
-0.56303908
0.5640193
0.0040451732
-0.64513416
0.64621577
0.0028242048
-0.73626709
0.73748581
0.001440773
-0.84295293
0.8443262
-0.91722247
0.91862048
0.0025423425
-0.0028431415
-0.0015858131
0.0042250849
-0.0058761268
0.0063855209
-0.010612206
0.0081124498
-0.01585961
0.0091761308
-0.020777335
0.0098144229
-0.025629077
0.010254704
-0.030845952
0.010606713
-0.036738019
0.010910543
-0.043518442
0.011177913
-0.051365606
0.011411298
-0.060464435
0.011609311
-0.071025118
0.011768578
-0.083286839
0.011884897
-0.097522479
0.011951398
-0.11403799
0.011959142
-0.13313004
0.011884889
-0.15512141
0.011688601
-0.17990209
0.011304748
-0.20720337
0.010644721
-0.23539658
0.0098482831
-0.26383168
0.0091137426
-0.29723775
0.0083895746
-0.33680425
0.0076201655
-0.38328562
0.0067954866
-0.43401722
0.0059199297
-0.4945174
0.0049675989
-0.56208577
0.0039221596
-0.64408275
0.0027365142
-0.73508352
0.0013950052
-0.84162107
-0.91586941
0.003315448
-0.0041208549
-0.0020376965
0.005246173
-0.007806826
0.0071494657
-0.012515484
0.0084303418
-0.017140485
0.009207516
-0.021554525
0.0097149976
-0.026136597
0.010097549
-0.031228572
0.010419315
-0.037059887
0.010702868
-0.043802131
0.010954189
-0.051617108
0.011173783
-0.060684288
0.011359368
-0.07121109
0.011507338
-0.083435369
0.011613531
-0.097629356
0.011671092
-0.11409615
0.011670899
-0.13312995
0.011587878
-0.15503748
0.011385765
-0.17969764
0.010997625
-0.20681173
0.010336304
-0.23473272
0.0095552148
-0.26305079
0.0088419623
-0.29652693
0.0081362388
-0.33610047
0.0073868054
-0.38253596
0.0065845729
-0.43321356
0.0057339756
-0.49366513
0.0048094908
-0.56115997
0.0037955313
-0.64306235
0.0026462083
-0.73393614
0.00134788
-0.84033184
-0.91456434
0.0042639496
-0.0057362134
-0.0026485556
0.0061889614
-0.0097318163
0.0076813967
-0.014007915
0.0086012418
-0.018060343
0.0091739142
-0.02212723
0.0095835243
-0.026546266
0.0099190348
-0.031564174
0.010214293
-0.037355268
0.01047932
-0.044067314
0.010715682
-0.051853674
0.010922171
-0.060891063
0.011095813
-0.071385152
0.011232894
-0.083573043
0.011329329
-0.097726495
0.011378278
-0.1141457
0.011370397
-0.13312213
0.011279079
-0.15494517
0.011072283
-0.17948841
0.010680295
-0.20641619
0.01001849
-0.23406833
0.0092541644
-0.26228673
0.0085624044
-0.29583767
0.0078754287
-0.33541546
0.0071465713
-0.38180683
0.0063674681
-0.43243294
0.005542581
-0.49283854
0.0046467911
-0.56026249
0.0036652826
-0.64207392
0.0025533909
-0.73282608
0.0012994419
-0.83908642
-0.91330893
0.0052796898
-0.0075391179
-0.0034767596
0.0069009269
-0.011353045
0.0079660715
-0.015073071
0.0086199312
-0.018714235
0.0090635098
-0.022570863
0.0094129382
-0.026895776
0.0097169746
-0.031868324
0.0099918154
-0.037630255
0.010240874
-0.044316552
0.010463542
-0.05207657
0.010657595
-0.061085431
0.010819716
-0.071547725
0.010946234
-0.083700185
0.01103319
-0.097814175
0.011073764
-0.11418687
0.011058385
-0.13310679
0.010959548
-0.15484527
0.010748804
-0.17927516
0.010352792
-0.20601656
0.009691598
-0.23340452
0.0089454676
-0.26154092
0.0082754134
-0.29517019
0.0076075455
-0.33474958
0.0068998688
-0.38109884
0.0061445444
-0.431676
0.0053460491
-0.49203831
0.0044797295
-0.55939405
0.0035315668
-0.64111835
0.0024581576
-0.73175441
0.0012497385
-0.83788594
-0.91210459
0.0061250864
-0.0091863464
-0.0044778519
0.0073216836
-0.012549656
0.0080611054
-0.015812526
0.008542652
-0.019195833
0.008905616
-0.022933902
0.0092152216
-0.027205485
0.0094957204
-0.032148959
0.0097534697
-0.037888173
0.0099882468
-0.044551531
0.010198171
-0.052286746
0.010380346
-0.061267949
0.010531325
-0.07169919
0.010647596
-0.08381711
0.010725346
-0.097892664
0.010757792
-0.11421991
0.010735191
-0.13308418
0.010629596
-0.15473855
0.010415498
-0.17905848
0.010015427
-0.20561281
0.0093560333
-0.23274248
0.0086294762
-0.26081474
0.0079812564
-0.2945246
0.0073328552
-0.33410319
0.0066469407
-0.38041255
0.0059160196
-0.43094335
0.0051445702
-0.49126509
0.0043084685
-0.55855534
0.003394511
-0.6401965
0.0023606053
-0.73072219
0.0011988237
-0.8367315
-0.91095252
0.006684655
-0.010441251
-0.0054297555
0.007500281
-0.013365311
0.0080231154
-0.016335411
0.0084001321
-0.019572921
0.0087129026
-0.023246769
0.0089951098
-0.027487818
0.0092572482
-0.032411257
0.0095002764
-0.038131392
0.0097220891
-0.044773569
0.009920012
-0.052484947
0.010090775
-0.061439086
0.010230962
-0.071839895
0.010337291
-0.083924122
0.010406109
-0.097962237