/*--------------------------------*- C++ -*----------------------------------*\
| =========                 |                                                 |
| \\      /  F ield         | OpenFOAM: The Open Source CFD Toolbox           |
|  \\    /   O peration     | Version:  2406                                  |
|   \\  /    A nd           | Website:  www.openfoam.com                      |
|    \\/     M anipulation  |                                                 |
\*---------------------------------------------------------------------------*/
FoamFile
{
    version     2.0;
    format      ascii;
    arch        "LSB;label=32;scalar=64";
    class       volScalarField;
    location    "0.041";
    object      T;
}
// * * * * * * * * * * * * * * * * * * * * * * * * * * * * * * * * * * * * * //

dimensions      [0 0 0 1 0 0 0];

internalField   nonuniform List<scalar> 
35803
(
292.4734
292.47767
292.48291
292.49229
292.50546
292.52123
292.53843
292.55573
292.5716
292.58448
292.5927
292.59453
292.58905
292.57537
292.55394
292.52489
292.49453
292.4858
292.55358
292.64461
292.69302
292.71933
292.74116
292.75704
292.79239
292.81254
292.83982
292.8529
292.88371
292.88325
293.07896
292.52971
292.52856
292.53039
292.53594
292.54444
292.55524
292.56752
292.58013
292.59151
292.60059
292.6056
292.60484
292.59722
292.58184
292.55898
292.52906
292.49876
292.49187
292.56387
292.65156
292.69727
292.72259
292.74386
292.7591
292.79469
292.81401
292.84012
292.8537
292.88446
292.88359
293.07898
292.59504
292.58977
292.58699
292.58749
292.59055
292.59574
292.60245
292.60964
292.61613
292.62073
292.62205
292.61812
292.60785
292.59033
292.56563
292.53449
292.50384
292.49953
292.57588
292.6591
292.70189
292.72613
292.74679
292.76143
292.79726
292.81573
292.84056
292.85453
292.88531
292.88386
293.07873
292.66351
292.65514
292.64826
292.64391
292.64167
292.64127
292.64231
292.64399
292.64528
292.64497
292.64184
292.63417
292.62077
292.60068
292.57377
292.54102
292.51013
292.50931
292.58985
292.66753
292.70717
292.73025
292.75019
292.76436
292.79989
292.81758
292.84109
292.85532
292.88622
292.88417
293.07982
292.73419
292.72305
292.71265
292.70399
292.69683
292.69108
292.6865
292.68256
292.67837
292.67284
292.66483
292.65294
292.63594
292.61287
292.5834
292.54886
292.51792
292.52192
292.60608
292.6769
292.7132
292.73502
292.75408
292.76777
292.80281
292.81916
292.84159
292.85608
292.88718
292.88463
293.07931
292.80717
292.79354
292.78007
292.76758
292.75594
292.74513
292.73508
292.72545
292.71557
292.70454
292.69133
292.67477
292.65371
292.6272
292.59478
292.55829
292.52755
292.53826
292.62469
292.68727
292.72007
292.74053
292.75852
292.77159
292.80603
292.82071
292.84206
292.85681
292.88821
292.88529
293.07887
292.88148
292.86592
292.84995
292.83419
292.81858
292.80314
292.78791
292.7727
292.75707
292.74034
292.72165
292.70003
292.67446
292.64405
292.60826
292.56973
292.53973
292.55951
292.64563
292.69871
292.7279
292.7469
292.76354
292.77548
292.80912
292.82296
292.84263
292.85758
292.88933
292.88622
293.07886
292.95559
292.93888
292.92114
292.90276
292.88378
292.86428
292.84433
292.82388
292.80266
292.78022
292.7559
292.72894
292.69847
292.66374
292.6242
292.58367
292.55561
292.58711
292.66847
292.71137
292.7368
292.75425
292.76921
292.7793
292.81167
292.82567
292.84344
292.85846
292.89051
292.88763
293.08064
293.02778
293.0104
292.99152
292.97132
292.9498
292.92705
292.90314
292.87805
292.85169
292.82378
292.7939
292.7615
292.7259
292.68655
292.64304
292.60069
292.57708
292.62106
292.69243
292.72541
292.74696
292.76268
292.7756
292.78457
292.81383
292.82878
292.84501
292.85961
292.89172
292.88919
293.08032
293.09598
293.07848
293.05908
293.03784
293.01469
292.98963
292.96267
292.93382
292.90304
292.87022
292.83514
292.79746
292.75675
292.71266
292.6652
292.62184
292.60731
292.66172
292.71694
292.74101
292.75859
292.7723
292.78284
292.79062
292.81671
292.83231
292.84817
292.86115
292.89269
292.89026
293.07987
293.15878
293.14154
293.12221
293.10062
293.0766
293.05006
293.02097
292.98932
292.95508
292.91821
292.87864
292.83621
292.79074
292.74216
292.69125
292.64939
292.6511
292.70713
292.74187
292.75834
292.77195
292.7832
292.79105
292.79764
292.8206
292.83644
292.85247
292.8633
292.89328
292.8914
293.07915
293.21471
293.19754
293.1783
293.15682
293.13269
293.10559
293.07544
293.04215
293.00565
292.96593
292.92296
292.87673
292.82729
292.77503
292.72272
292.68911
292.71097
292.75138
292.76751
292.77757
292.78732
292.79546
292.80038
292.80569
292.82537
292.84145
292.85761
292.86615
292.89351
292.89332
293.08043
293.26108
293.24481
293.22617
293.20493
293.18092
293.15395
293.12371
293.08995
293.0525
293.01127
292.96624
292.91754
292.86556
292.81198
292.7651
292.75244
292.77767
292.79172
292.7943
292.79877
292.80461
292.80932
292.81099
292.81482
292.83106
292.84711
292.86368
292.86943
292.89327
292.89713
293.07955
293.29495
293.27976
293.26249
293.2427
293.2199
293.19384
293.16428
293.13095
293.09363
293.05222
293.00677
292.95782
292.90702
292.85947
292.83172
292.83727
292.83767
292.82821
292.82275
292.82224
292.82395
292.82457
292.82319
292.82507
292.8378
292.85332
292.87093
292.8736
292.89334
292.90278
293.07841
293.3135
293.29938
293.28324
293.265
293.24431
293.22048
293.19306
293.16194
293.12705
293.08837
293.04629
293.00262
292.96207
292.93354
292.92264
292.90903
292.88326
292.86404
292.85293
292.84771
292.84487
292.84123
292.83718
292.83645
292.84568
292.85999
292.87906
292.87873
292.89503
292.90931
293.07715
293.31797
293.305
293.28987
293.27246
293.25307
293.23214
293.20952
293.18466
293.15728
293.12734
293.09576
293.06508
293.03842
293.01594
292.98929
292.95546
292.92366
292.89979
292.8847
292.87491
292.86723
292.85934
292.85233
292.84924
292.85505
292.86732
292.88652
292.88389
292.89828
292.91522
293.07574
293.32883
293.32115
293.3124
293.30208
293.28896
293.27188
293.25082
293.22616
293.20012
293.17499
293.14935
293.12214
293.0928
293.05842
293.02287
292.99221
292.96114
292.93494
292.91632
292.90282
292.89058
292.87798
292.86833
292.86392
292.86657
292.87553
292.89278
292.88953
292.90375
292.91938
293.07384
293.29771
293.29113
293.28384
293.27603
293.26809
293.26051
293.25336
293.24593
293.23424
293.2143
293.18676
293.15289
293.1193
293.08478
293.0516
293.02164
292.99389
292.96771
292.94682
292.93003
292.91346
292.89664
292.88514
292.88019
292.881
292.88546
292.89765
292.89482
292.91037
292.92194
293.07169
293.27587
293.27046
293.26408
293.2565
293.24742
293.23645
293.22335
293.20886
293.1949
293.18226
293.17262
293.16387
293.14078
293.10872
293.07751
293.04847
293.02196
292.99779
292.9752
292.95494
292.93441
292.91475
292.90202
292.89709
292.89773
292.89736
292.90192
292.90032
292.9176
292.92429
293.06947
293.23517
293.23223
293.22883
293.22496
293.2206
293.21575
293.21022
293.20359
293.19536
293.18469
293.16929
293.15111
293.14062
293.1311
293.10554
293.07534
293.05067
293.02572
292.99998
292.97566
292.95268
292.93182
292.91834
292.91342
292.91439
292.91209
292.90966
292.90876
292.92521
292.9284
293.07243
293.22599
293.22344
293.22042
293.21675
293.21227
293.20681
293.2003
293.19269
293.18399
293.17434
293.16472
293.1546
293.13981
293.12494
293.1181
293.09987
293.07405
293.04819
293.02006
292.99151
292.96725
292.94828
292.93466
292.92851
292.92968
292.92841
292.92654
292.92303
292.93417
292.93508
293.06949
293.20107
293.19926
293.19723
293.19492
293.19229
293.18932
293.18596
293.18209
293.1775
293.1718
293.16408
293.1538
293.14218
293.12853
293.1108
293.09997
293.08559
293.06024
293.03163
293.00351
292.98029
292.96486
292.94992
292.94252
292.94265
292.94245
292.94468
292.93879
292.94396
292.94676
293.06293
293.17954
293.17793
293.17602
293.17374
293.17098
293.16765
293.16363
293.1588
293.15309
293.14657
293.13949
293.13214
293.12402
293.1146
293.10358
293.08643
293.06973
293.05808
293.03625
293.01204
292.99278
292.97965
292.96483
292.95424
292.9536
292.95251
292.95595
292.95282
292.95568
292.95873
293.06508
293.129
293.128
293.12686
293.12558
293.12416
293.12259
293.12087
293.11899
293.11684
293.11425
293.11079
293.10588
293.09927
293.0911
293.08123
293.072
293.06255
293.04801
293.04117
293.02525
293.00639
292.9922
292.98036
292.96686
292.96303
292.96165
292.96375
292.96523
292.96866
292.96771
293.06449
293.10422
293.10342
293.10244
293.10124
293.09979
293.09801
293.09586
293.09327
293.09018
293.08657
293.08252
293.07828
293.07408
293.06982
293.06536
293.05892
293.05126
293.04445
293.03511
293.0286
293.01393
293.00381
292.99519
292.98495
292.97575
292.97231
292.97106
292.97549
292.98152
292.97817
293.05599
293.07092
293.07044
293.06988
293.06921
293.06843
293.06752
293.06647
293.06529
293.06404
293.06272
293.06126
293.05944
293.05693
293.05361
293.04956
293.0455
293.04036
293.03388
293.0261
293.01756
293.01509
293.00878
293.0016
292.99692
292.99188
292.98683
292.98238
292.98818
292.99584
292.99667
293.06696
293.05635
293.05606
293.0557
293.05525
293.0547
293.05404
293.05324
293.05227
293.05105
293.04945
293.0475
293.04546
293.04355
293.0419
293.0403
293.03806
293.03505
293.03178
293.02687
293.02315
293.0138
293.00421
293.00341
293.00254
292.99845
292.99298
292.99271
293.00069
293.00649
293.00677
293.06579
293.03354
293.03349
293.03345
293.03341
293.03336
293.03332
293.03328
293.03326
293.03332
293.03359
293.0341
293.03473
293.03525
293.03535
293.03491
293.03413
293.03266
293.02993
293.02577
293.01954
293.01409
293.00725
293.00283
293.00049
293.0025
293.00386
293.00434
293.00707
293.00919
293.00642
293.0579
293.01937
293.01935
293.01938
293.01949
293.01969
293.01996
293.0203
293.02067
293.02105
293.02138
293.02161
293.02174
293.02189
293.02218
293.02243
293.02239
293.02185
293.02074
293.01883
293.0172
293.01748
293.01743
293.01444
293.01711
293.01785
293.01968
293.01428
293.01093
293.01589
293.0058
293.0429
293.00928
293.00924
293.0092
293.00918
293.00917
293.00919
293.00921
293.00925
293.00931
293.00937
293.00945
293.00952
293.00957
293.00955
293.0095
293.00967
293.01044
293.01201
293.01347
293.01197
293.00665
293.00962
293.02006
293.03204
293.03258
293.02959
293.02289
293.0255
293.02886
293.02503
293.03245
292.99712
292.99742
292.99775
292.9981
292.99847
292.99888
292.9993
292.99974
293.00021
293.0007
293.00123
293.00179
293.00235
293.0029
293.00351
293.00425
293.00511
293.00574
293.00655
293.00518
293.01033
293.02224
293.03455
293.04076
293.03925
293.04191
293.04018
293.03843
293.03572
293.04207
293.03137
293.05706
293.14002
293.25304
293.31262
293.27492
293.18121
293.06832
292.96387
292.87541
292.80085
292.737
292.68145
292.63256
292.58886
292.54823
292.50968
292.46957
292.43017
292.38957
292.39695
292.47623
292.57021
292.63033
292.67591
292.731
292.76577
292.79969
292.81643
292.83272
292.85434
293.07886
293.10523
293.19737
293.27194
293.26614
293.20935
293.11865
293.01892
292.92744
292.84815
292.77972
292.72013
292.66781
292.62152
292.57989
292.54089
292.50361
292.46438
292.42608
292.38799
292.39893
292.48294
292.57529
292.63347
292.67817
292.73253
292.76675
292.80068
292.81691
292.83337
292.85473
293.07873
293.16894
293.25918
293.28888
293.25499
293.17666
293.07832
292.98293
292.89862
292.8253
292.76135
292.70516
292.65563
292.61165
292.5719
292.53436
292.4982
292.45974
292.42231
292.38674
292.40127
292.48972
292.58013
292.63639
292.68026
292.73392
292.76765
292.80159
292.81734
292.83403
292.85521
293.07902
293.24654
293.30212
293.28944
293.22684
293.13449
293.038
292.95011
292.87268
292.80451
292.74442
292.69129
292.64432
292.6025
292.56448
292.52831
292.49317
292.45543
292.4188
292.38578
292.40402
292.49661
292.58486
292.63927
292.68234
292.73532
292.76857
292.80246
292.81774
292.83467
292.85568
293.07928
293.31396
293.31544
293.26828
293.1852
293.09058
293.00071
292.92031
292.84872
292.78495
292.72828
292.67799
292.63348
292.59372
292.55737
292.52251
292.48835
292.45137
292.41551
292.38511
292.40725
292.5036
292.58947
292.64209
292.68438
292.73672
292.76949
292.80329
292.81811
292.83529
292.85617
293.07957
293.3397
293.3014
293.22863
293.13888
293.04905
292.9669
292.89298
292.82627
292.76632
292.71278
292.66522
292.62308
292.58532
292.55057
292.51698
292.48375
292.44755
292.41249
292.38467
292.41097
292.51064
292.59394
292.64484
292.68639
292.73811
292.7704
292.80407
292.81844
292.83588
292.85667
293.07994
293.33252
293.26518
293.18197
293.09409
293.01149
292.93628
292.86764
292.80504
292.7485
292.6979
292.65296
292.61312
292.5773
292.54411
292.51174
292.4794
292.44399
292.40972
292.38442
292.41521
292.51765
292.59826
292.64752
292.68836
292.73951
292.77132
292.80479
292.81873
292.83643
292.85718
293.08042
293.30095
293.21884
293.13469
293.05317
292.97767
292.90808
292.84375
292.78475
292.73137
292.68359
292.64122
292.60362
292.56967
292.53797
292.50678
292.4753
292.4407
292.40717
292.38433
292.41989
292.52459
292.60243
292.65015
292.69031
292.74092
292.77225
292.80547
292.81899
292.83691
292.85771
293.08101
293.25388
293.1702
293.09113
293.01646
292.94673
292.88158
292.82093
292.76523
292.71483
292.66982
292.62996
292.59455
292.56243
292.53217
292.50211
292.47145
292.43765
292.40486
292.38445
292.42492
292.53142
292.60646
292.65272
292.69223
292.74234
292.77319
292.8061
292.8192
292.83735
292.85827
293.08161
293.20271
293.12444
293.05181
292.9829
292.91771
292.85625
292.79892
292.74633
292.69885
292.65657
292.61918
292.58591
292.55556
292.5267
292.49773
292.46784
292.43482
292.40284
292.38488
292.43023
292.53815
292.61035
292.65523
292.69412
292.74378
292.77414
292.8067
292.81938
292.83773
292.85886
293.08215
293.15458
293.08304
293.01591
292.95145
292.88993
292.83173
292.77753
292.72798
292.68339
292.64382
292.60887
292.5777
292.54908
292.52156
292.49364
292.46447
292.43224
292.40107
292.38561
292.43586
292.54477
292.61412
292.6577
292.696
292.74523
292.77511
292.8073
292.81952
292.83808
292.85949
293.08267
293.11099
293.04508
292.98218
292.92127
292.86291
292.80778
292.75665
292.71011
292.66843
292.63157
292.59903
292.56991
292.54296
292.51674
292.48982
292.46133
292.42991
292.39951
292.38665
292.44182
292.55125
292.61777
292.66012
292.69786
292.74672
292.77612
292.80791
292.81963
292.8384
292.86017
293.08316
293.07089
293.00921
292.94963
292.89174
292.83633
292.78423
292.7362
292.6927
292.65395
292.61979
292.58965
292.56254
292.53722
292.51225
292.48629
292.45844
292.42787
292.39817
292.38801
292.4481
292.55759
292.6213
292.66251
292.69972
292.74822
292.77715
292.80857
292.81971
292.83871
292.86094
293.08363
293.03272
292.97426
292.9175
292.86244
292.80998
292.76098
292.71611
292.67573
292.63995
292.6085
292.58072
292.55559
292.53185
292.50809
292.48304
292.4558
292.42606
292.39712
292.38969
292.45466
292.56376
292.62474
292.66488
292.70156
292.74974
292.77824
292.80929
292.81978
292.83903
292.86181
293.08407
292.99506
292.93935
292.88528
292.83309
292.78372
292.73797
292.69638
292.6592
292.62643
292.5977
292.57226
292.54906
292.52685
292.50425
292.48008
292.45339
292.42446
292.39643
292.39163
292.46146
292.56974
292.62807
292.66722
292.70339
292.75128
292.77937
292.81011
292.81986
292.83938
292.86277
293.08447
292.9569
292.90389
292.85264
292.80353
292.75747
292.71517
292.67699
292.64311
292.61339
292.58738
292.56425
292.54294
292.52222
292.50073
292.47738
292.45122
292.42312
292.39607
292.39381
292.46847
292.57554
292.63133
292.66954
292.70521
292.75283
292.78055
292.81104
292.81996
292.83978
292.86374
293.08482
292.91756
292.86747
292.81935
292.77365
292.7312
292.69256
292.65796
292.62747
292.60085
292.57755
292.55671
292.53725
292.51796
292.49754
292.47497
292.44931
292.42199
292.39598
292.39622
292.47565
292.58113
292.63451
292.67185
292.70704
292.75439
292.78179
292.8121
292.82014
292.84025
292.86465
293.08511
292.8766
292.82987
292.78533
292.74344
292.70492
292.67016
292.63931
292.6123
292.58881
292.56821
292.54963
292.53197
292.51407
292.49468
292.47283
292.4477
292.42106
292.39609
292.39885
292.48296
292.58653
292.63763
292.67415
292.70885
292.75593
292.78307
292.8133
292.82044
292.8408
292.86548
293.08532
292.83374
292.79096
292.75053
292.7129
292.67865
292.64802
292.62107
292.59763
292.57728
292.55938
292.54301
292.52711
292.51055
292.49214
292.47099
292.44638
292.42032
292.39634
292.40178
292.49037
292.59173
292.64069
292.67645
292.71066
292.75747
292.7844
292.81463
292.8209
292.84145
292.86628
293.08544
292.78891
292.75077
292.71503
292.68212
292.65247
292.6262
292.60328
292.58346
292.56629
292.55106
292.53686
292.52267
292.5074
292.48993
292.46943
292.44534
292.41978
292.39673
292.40505
292.4978
292.59673
292.6437
292.67875
292.71246
292.75898
292.78576
292.81608
292.82152
292.84219
292.86706
293.0855
292.7422
292.70943
292.67898
292.65123
292.62647
292.60476
292.58599
292.56985
292.55584
292.54326
292.53119
292.51866
292.50462
292.48802
292.46814
292.44458
292.41938
292.39731
292.40865
292.5052
292.60154
292.64667
292.68105
292.71426
292.76045
292.78713
292.81762
292.82231
292.84306
292.8678
293.08546
292.69396
292.66722
292.64261
292.6204
292.60079
292.58379
292.56925
292.55682
292.54596
292.53598
292.526
292.51507
292.50221
292.48643
292.46719
292.44408
292.41919
292.39805
292.41259
292.51253
292.60616
292.64961
292.68335
292.71604
292.76188
292.7885
292.81921
292.82324
292.84408
292.86845
293.08536
292.64472
292.62454
292.60621
292.58984
292.57556
292.56337
292.55312
292.54439
292.53667
292.52925
292.52129
292.5119
292.50017
292.48519
292.46654
292.4438
292.41925
292.39896
292.41684
292.51974
292.61061
292.65251
292.68565
292.71782
292.76326
292.78984
292.82083
292.82429
292.8453
292.86898
293.0852
292.59513
292.5819
292.57014
292.55976
292.55093
292.54362
292.53767
292.53262
292.52797
292.52306
292.51706
292.50915
292.49847
292.48432
292.46617
292.44375
292.41952
292.40004
292.42141
292.5268
292.61489
292.65539
292.68795
292.71958
292.76459
292.79116
292.8224
292.82543
292.84672
292.86939
293.085
292.54604
292.53994
292.53468
292.53039
292.52706
292.52464
292.52295
292.52154
292.51991
292.51744
292.51333
292.50682
292.49717
292.48381
292.46605
292.44394
292.41998
292.4013
292.42627
292.53368
292.61902
292.65824
292.69024
292.72132
292.76587
292.79242
292.82391
292.82661
292.84833
292.86967
293.08475
292.49799
292.49893
292.50024
292.502
292.50415
292.50657
292.50903
292.51117
292.51249
292.51238
292.51006
292.50489
292.49633
292.48361
292.46621
292.44436
292.42062
292.40273
292.43137
292.54037
292.623
292.66108
292.69252
292.72305
292.76709
292.79361
292.82536
292.82782
292.85012
292.86986
293.08446
292.45168
292.45945
292.46719
292.47485
292.48233
292.48947
292.49601
292.50158
292.50572
292.50787
292.50726
292.50352
292.49591
292.48369
292.46665
292.44503
292.42146
292.40436
292.4367
292.54686
292.62685
292.66388
292.69478
292.72475
292.76827
292.79474
292.82673
292.82906
292.85213
292.87001
293.08412
292.40773
292.42198
292.43586
292.44918
292.46178
292.47346
292.48392
292.49278
292.4996
292.50389
292.50503
292.50266
292.49578
292.48409
292.46738
292.44594
292.4225
292.4062
292.44218
292.55311
292.63057
292.66667
292.69702
292.72643
292.76941
292.79578
292.82802
292.83033
292.85418
292.87015
293.08375
292.36664
292.38692
292.40655
292.42521
292.44265
292.45864
292.4728
292.48476
292.49413
292.50054
292.50348
292.50221
292.49603
292.48482
292.46839
292.44709
292.42375
292.40824
292.44777
292.55914
292.63417
292.66943
292.69924
292.72809
292.77051
292.79674
292.82923
292.83162
292.85613
292.87036
293.08335
292.32881
292.35461
292.37954
292.40313
292.42507
292.44504
292.46262
292.4775
292.48946
292.49809
292.5025
292.50209
292.49665
292.48587
292.46969
292.44851
292.42525
292.41046
292.45345
292.56495
292.63766
292.67216
292.70142
292.72973
292.77159
292.79761
292.83036
292.83295
292.85784
292.87065
293.08296
292.29457
292.32531
292.35501
292.38305
292.40907
292.43267
292.45341
292.47128
292.48597
292.49635
292.50192
292.50242
292.49765
292.48725
292.47126
292.45018
292.42698
292.41287
292.45919
292.57051
292.64104
292.67486
292.70359
292.73134
292.77264
292.79841
292.83143
292.8343
292.85943
292.87098
293.08261
292.26437
292.29939
292.33321
292.3651
292.39481
292.42189
292.44582
292.46659
292.48324
292.49501
292.50186
292.50323
292.49902
292.48895
292.47312
292.45212
292.42896
292.41547
292.46494
292.57583
292.64434
292.67752
292.70573
292.73292
292.77368
292.79914
292.83242
292.83568
292.86096
292.87138
293.08235
292.23968
292.2781
292.31517
292.35022
292.38309
292.41326
292.44012
292.4629
292.481
292.49426
292.5023
292.50449
292.50079
292.49098
292.47526
292.4543
292.43115
292.41825
292.47066
292.58095
292.64756
292.68016
292.70785
292.73448
292.77469
292.7998
292.83336
292.83707
292.86243
292.87187
293.08209
292.2213
292.26209
292.30154
292.33905
292.37427
292.40678
292.43553
292.45979
292.4795
292.49413
292.50323
292.50618
292.50292
292.49333
292.47767
292.45675
292.43357
292.42122
292.47633
292.58588
292.65072
292.68277
292.70995
292.73602
292.77568
292.80042
292.83424
292.83845
292.86384
292.87243
293.0818
292.20751
292.25007
292.29123
292.33052
292.36747
292.40134
292.43152
292.45754
292.47877
292.49463
292.50467
292.5083
292.50544
292.496
292.48036
292.45942
292.4362
292.42438
292.48194
292.59062
292.65381
292.68535
292.71203
292.73752
292.77665
292.801
292.83507
292.83982
292.86522
292.87307
293.08156
292.19607
292.23904
292.28141
292.32234
292.36094
292.39649
292.42854
292.45622
292.47881
292.49574
292.50663
292.51086
292.50833
292.49899
292.48333
292.46229
292.43905
292.42772
292.48745
292.59518
292.65683
292.68789
292.7141
292.739
292.7776
292.80156
292.83584
292.84115
292.8666
292.87377
293.08143
292.18687
292.2302
292.27343
292.31569
292.35587
292.39313
292.42678
292.45589
292.47963
292.4975
292.50911
292.51387
292.51161
292.50232
292.48657
292.46538
292.4421
292.43124
292.49287
292.59956
292.65978
292.6904
292.71616
292.74045
292.77853
292.80213
292.83656
292.84243
292.868
292.87454
293.08137
292.18288
292.22547
292.2688
292.31172
292.35298
292.3915
292.42636
292.45659
292.48127
292.4999
292.51213
292.51732
292.51527
292.50597
292.49009
292.46868
292.44535
292.43493
292.49818
292.60378
292.66266
292.69287
292.71821
292.74188
292.77946
292.80272
292.83724
292.84364
292.86941
292.87538
293.08127
292.1832
292.22474
292.26767
292.31069
292.35244
292.39169
292.42734
292.45836
292.48373
292.50297
292.51569
292.52121
292.51931
292.50994
292.49388
292.47219
292.4488
292.43878
292.50337
292.60784
292.66547
292.6953
292.72025
292.74327
292.78038
292.80334
292.83785
292.84478
292.87082
292.87626
293.08067
292.18733
292.22786
292.2701
292.31272
292.35438
292.39379
292.42979
292.46125
292.48703
292.50671
292.51978
292.52556
292.52373
292.51425
292.49796
292.47592
292.45242
292.44278
292.50844
292.61174
292.66821
292.69769
292.72227
292.74464
292.78131
292.804
292.83841
292.84584
292.87221
292.87704
293.08123
292.19579
292.23516
292.27631
292.31794
292.35886
292.39785
292.43372
292.46526
292.49118
292.51112
292.5244
292.53034
292.52853
292.51889
292.50232
292.47985
292.45619
292.44689
292.51339
292.61551
292.67089
292.70003
292.72427
292.74599
292.78225
292.80472
292.8389
292.84683
292.87358
292.87791
293.08134
292.20961
292.24714
292.28648
292.3264
292.36589
292.40384
292.43913
292.47038
292.49619
292.51621
292.52956
292.53556
292.53371
292.52386
292.50697
292.48399
292.46011
292.45112
292.5182
292.61914
292.67351
292.70233
292.72625
292.74731
292.78323
292.80549
292.8393
292.84776
292.87492
292.87877
293.08143
292.22938
292.26398
292.30053
292.33794
292.37531
292.41169
292.44596
292.47656
292.50208
292.52197
292.53525
292.54122
292.53925
292.52915
292.5119
292.48835
292.46414
292.45543
292.52289
292.62264
292.67607
292.70457
292.7282
292.74861
292.78427
292.80633
292.83962
292.84861
292.87622
292.87959
293.0815
292.25457
292.2851
292.31797
292.35216
292.38689
292.42126
292.45411
292.48379
292.50886
292.52841
292.54147
292.5473
292.54516
292.53476
292.51711
292.49292
292.46828
292.45981
292.52744
292.62601
292.67859
292.70678
292.73013
292.74988
292.78537
292.80721
292.83983
292.84941
292.87749
292.88035
293.08153
292.2835
292.30926
292.33793
292.36854
292.40031
292.4324
292.4635
292.49205
292.51651
292.53553
292.54821
292.55379
292.55142
292.54069
292.5226
292.49773
292.47249
292.46423
292.53186
292.62928
292.68106
292.70894
292.73203
292.75113
292.78656
292.80815
292.83996
292.85011
292.87871
292.88105
293.08153
292.31398
292.33506
292.35954
292.38656
292.41535
292.4449
292.47403
292.50131
292.52495
292.54331
292.55546
292.56069
292.55802
292.54691
292.52835
292.50275
292.47678
292.46867
292.53616
292.63244
292.68349
292.71108
292.73391
292.75236
292.78782
292.80911
292.84001
292.85076
292.87989
292.88166
293.08147
292.34445
292.36155
292.38222
292.40587
292.43166
292.45861
292.48571
292.51145
292.53399
292.55163
292.56316
292.56793
292.56489
292.55339
292.53433
292.50799
292.48112
292.47312
292.54035
292.6355
292.6859
292.71317
292.73575
292.75355
292.78906
292.81006
292.83997
292.85134
292.88098
292.88218
293.08135
292.37534
292.38894
292.40584
292.42614
292.44898
292.47336
292.49822
292.52219
292.54331
292.56021
292.57118
292.57543
292.57198
292.56006
292.54048
292.51341
292.48552
292.47752
292.54444
292.6384
292.68822
292.7152
292.73753
292.75469
292.79015
292.81093
292.83988
292.85188
292.88198
292.88262
293.08113
292.4111
292.42109
292.43318
292.44923
292.46857
292.48998
292.51222
292.53394
292.55347
292.56922
292.57969
292.58336
292.57944
292.56705
292.54689
292.51908
292.48999
292.48163
292.54812
292.64091
292.69034
292.7171
292.73923
292.75577
292.79111
292.81171
292.83981
292.85238
292.88286
292.88296
293.08075
293.02745
293.09624
293.2022
293.28756
293.27697
293.19414
293.0826
292.97681
292.88628
292.80994
292.74474
292.68809
292.6382
292.59359
292.55221
292.513
292.47262
292.43267
292.39131
292.39628
292.47198
292.56698
292.6282
292.67442
292.73012
292.7652
292.79894
292.81612
292.83221
292.85413
293.07723
293.01966
293.07861
293.16818
293.25518
293.25962
293.18658
293.08258
292.98004
292.89058
292.81452
292.74935
292.69255
292.64231
292.59719
292.55531
292.51553
292.47486
292.43431
292.39286
292.39554
292.46879
292.5647
292.62668
292.67342
292.7296
292.76486
292.7983
292.81586
292.83177
292.85402
293.07733
293.0146
293.06903
293.15159
293.23831
293.25181
293.18639
293.08649
292.98547
292.8962
292.81994
292.7545
292.69737
292.64668
292.60102
292.55859
292.51823
292.47722
292.43607
292.39435
292.39471
292.46535
292.56212
292.62497
292.67226
292.72898
292.76445
292.79759
292.81555
292.83132
292.8539
293.0776
293.0098
293.06024
293.1379
293.2259
293.24701
293.18748
293.09049
292.99056
292.90144
292.82501
292.75934
292.70195
292.65091
292.60477
292.56184
292.52094
292.4796
292.43792
292.3959
292.39403
292.46199
292.55947
292.6232
292.67102
292.72829
292.76402
292.79683
292.81522
292.83087
292.85378
293.07792
293.00538
293.05206
293.12489
293.21307
293.24216
293.18802
293.09397
292.99525
292.90639
292.82986
292.76403
292.70643
292.65507
292.6085
292.56511
292.5237
292.48203
292.43985
292.39755
292.39348
292.45873
292.55682
292.62142
292.66976
292.72758
292.76358
292.79605
292.81486
292.83045
292.85369
293.07828
293.00161
293.04493
293.11308
293.19948
293.23577
293.18793
293.09713
292.99976
292.91123
292.83465
292.76867
292.71088
292.65923
292.61227
292.56843
292.52652
292.48452
292.44187
292.39929
292.39303
292.45555
292.55418
292.61965
292.6685
292.72685
292.76313
292.79526
292.81449
292.83007
292.8536
293.07866
292.99846
293.03884
293.10265
293.18625
293.22861
293.18742
293.10016
293.00421
292.91605
292.83944
292.77331
292.71533
292.66341
292.61607
292.5718
292.52942
292.48708
292.44396
292.40112
292.39269
292.45243
292.55152
292.61788
292.66722
292.7261
292.76269
292.79447
292.8141
292.82971
292.85353
293.07903
292.99594
293.03369
293.0935
293.17382
293.22103
293.18658
293.10306
293.00863
292.92087
292.84424
292.77796
292.7198
292.66762
292.61992
292.57524
292.5324
292.4897
292.44614
292.40305
292.39247
292.44938
292.54886
292.61611
292.66593
292.72532
292.76222
292.79369
292.81368
292.82939
292.85347
293.07941
292.99404
293.02942
293.08554
293.16235
293.21319
293.18541
293.10584
293.01302
292.92571
292.84905
292.78263
292.72428
292.67186
292.62382
292.57874
292.53545
292.4924
292.4484
292.40507
292.39236
292.4464
292.54619
292.61434
292.66463
292.72451
292.76174
292.7929
292.81324
292.8291
292.8534
293.0798
292.99275
293.02601
293.07873
293.15187
293.20506
293.18383
293.1085
293.01739
292.93056
292.85391
292.78733
292.72879
292.67613
292.62776
292.5823
292.53858
292.49517
292.45074
292.40719
292.39237
292.4435
292.5435
292.61257
292.66331
292.72367
292.76124
292.79211
292.81278
292.82884
292.85332
293.08024
292.99208
293.02342
293.073
293.14243
293.19702
293.18188
293.11104
293.02175
292.93547
292.85882
292.79209
292.73335
292.68045
292.63176
292.58593
292.54178
292.49801
292.45317
292.4094
292.39251
292.44068
292.54081
292.6108
292.66198
292.7228
292.76071
292.79133
292.81229
292.8286
292.85322
293.08075
292.992
293.02162
293.06832
293.1341
293.18936
293.17975
293.11348
293.02612
292.94043
292.86381
292.79691
292.73796
292.68481
292.63582
292.58961
292.54505
292.50092
292.45568
292.41169
292.3928
292.43795
292.53811
292.60902
292.66065
292.72189
292.76017
292.79055
292.81178
292.82839
292.8531
293.08135
292.9925
293.02057
293.06461
293.12689
293.18222
293.17756
293.11584
293.03052
292.94547
292.86888
292.8018
292.74263
292.68924
292.63993
292.59337
292.54841
292.5039
292.45827
292.41405
292.39323
292.43533
292.5354
292.60725
292.6593
292.72096
292.75961
292.78978
292.81125
292.82819
292.85297
293.08205
292.99356
293.02022
293.06183
293.12082
293.17569
293.17552
293.11814
293.03495
292.9506
292.87406
292.80679
292.74738
292.69373
292.64412
292.5972
292.55183
292.50696
292.46092
292.41645
292.39381
292.43281
292.53269
292.60547
292.65795
292.72
292.75904
292.78902
292.81069
292.82801
292.85281
293.08289
292.99515
293.02054
293.05994
293.11584
293.16987
293.17369
293.12042
293.03944
292.95583
292.87935
292.81188
292.75222
292.6983
292.64837
292.6011
292.55533
292.51009
292.46364
292.4189
292.3945
292.4304
292.52997
292.60369
292.65658
292.71902
292.75845
292.78828
292.81012