/*--------------------------------*- C++ -*----------------------------------*\
| =========                 |                                                 |
| \\      /  F ield         | OpenFOAM: The Open Source CFD Toolbox           |
|  \\    /   O peration     | Version:  2406                                  |
|   \\  /    A nd           | Website:  www.openfoam.com                      |
|    \\/     M anipulation  |                                                 |
\*---------------------------------------------------------------------------*/
FoamFile
{
    version     2.0;
    format      ascii;
    arch        "LSB;label=32;scalar=64";
    class       volScalarField;
    location    "0.00105933";
    object      k;
}
// * * * * * * * * * * * * * * * * * * * * * * * * * * * * * * * * * * * * * //

dimensions      [0 2 -2 0 0 0 0];

internalField   nonuniform List<scalar> 
8951
(
864.06124
845.73529
820.72941
788.77878
749.62667
703.17818
649.77889
590.30676
526.15998
459.11672
391.03785
323.68634
258.68609
197.45755
141.25052
90.816208
48.365652
17.689256
4.4256202
1.5866118
0.95455448
0.70668483
0.59890485
0.52991399
0.48116997
0.45044888
0.4295021
0.41464523
0.40719051
0.39782523
0.39365148
850.05782
829.32328
802.57795
769.69954
730.36053
684.40996
632.09323
574.13684
511.7876
446.73944
380.69811
315.22532
251.87999
192.06009
137.04403
87.595318
46.120006
16.361426
4.0784511
1.527914
0.93534003
0.69828898
0.59478157
0.52794851
0.48025375
0.44998685
0.42928386
0.41462008
0.40723278
0.39779078
0.39363039
829.95072
807.65986
779.90949
746.59989
707.45945
662.34975
611.45378
555.38088
495.22614
432.50289
368.76444
305.44597
244.0141
185.8263
132.18334
83.907723
43.474263
14.881161
3.7448448
1.4752745
0.92485167
0.69356007
0.59244539
0.52688444
0.47976483
0.44975146
0.42917997
0.41463218
0.40733723
0.3977736
0.39360533
801.78183
778.67454
750.748
717.80372
679.5734
635.92881
587.01634
533.35194
475.88306
415.92443
354.87437
294.06374
234.86274
178.5789
126.52936
79.647231
40.380284
13.263428
3.4134634
1.4228727
0.90881574
0.68567929
0.58837425
0.52501739
0.47889788
0.44932808
0.42898965
0.41463693
0.40740667
0.39774673
0.39358557
764.77301
741.70823
714.40263
682.605
646.0327
604.54751
558.25722
507.59031
453.3454
396.64583
338.7338
280.83541
224.22493
170.15433
119.95167
74.674608
36.790818
11.52551
3.0814319
1.3706003
0.89322378
0.67826429
0.5845191
0.5232689
0.47810291
0.44894646
0.42881315
0.41463808
0.40751289
0.39772386
0.39357338
718.50687
696.33765
670.44115
640.5447
606.36298
567.741
524.73804
477.68838
427.24099
374.33284
320.04884
265.50713
211.88475
160.37294
112.30926
68.87504
32.664818
9.7065896
2.7533132
1.3174554
0.87466942
0.6690107
0.57952583
0.52097941
0.47704906
0.44844956
0.42857461
0.41462928
0.40760788
0.39769659
0.39356935
662.98588
642.54342
618.76402
591.45687
560.33989
525.23966
486.15889
443.32976
397.25085
348.67742
298.53345
247.82073
197.61465
149.04102
103.45086
62.152175
27.988924
7.934388
2.4380302
1.2611587
0.85509468
0.65937169
0.57417715
0.51854533
0.47594502
0.4479471
0.4283212
0.41461302
0.40773072
0.39767418
0.39356486
598.87553
580.79622
559.74289
535.60743
508.12039
477.09351
442.47204
404.38589
363.1876
319.45691
273.9519
227.5434
181.19596
135.96505
93.22372
54.414376
22.811357
6.3429462
2.1448976
1.2030887
0.83308354
0.64820716
0.56771939
0.51558357
0.47458934
0.44733789
0.4280069
0.41458357
0.40784851
0.39765332
0.39356139
527.68886
512.3596
494.43327
473.85453
450.37062
423.78118
393.98127
361.00788
325.07788
286.60364
246.17276
204.50756
162.44789
120.97325
81.490471
45.59369
17.30455
4.901685
1.8775852
1.1417979
0.80962732
0.63637174
0.5605486
0.51229735
0.47308965
0.4466525
0.42765392
0.41452659
0.40797746
0.39763971
0.39355166
451.61256
439.15786
424.49759
407.60679
388.25005
366.22142
341.37828
313.68048
283.22504
250.26838
215.22665
178.65886
141.26583
103.94827
68.158331
35.695711
11.853532
3.6645182
1.6428737
1.0783122
0.7840251
0.6232101
0.55212044
0.50838482
0.47126876
0.44577195
0.42722713
0.41442713
0.40809157
0.39763417
0.39354883
373.06918
363.40432
351.92244
338.61756
323.27719
305.70008
285.71953
263.23654
238.24856
210.87385
181.36509
150.11244
117.67293
84.880921
53.233667
24.937611
7.7283766
2.7224613
1.4569596
1.0122508
0.75693103
0.60955544
0.5427458
0.50394923
0.46916085
0.4447079
0.42673027
0.41429655
0.40819551
0.39763066
0.39355207
294.63549
287.51234
278.94801
268.9396
257.30299
243.85341
228.41939
210.86358
191.10711
169.15465
145.11428
119.21385
91.888606
63.96289
36.937511
14.130443
4.7307651
2.0483711
1.3051099
0.94508694
0.72777488
0.59515253
0.53211227
0.4987
0.46657663
0.44343905
0.42615884
0.41417408
0.40829554
0.3976311
0.39355474
218.92066
213.91417
207.85894
200.72223
192.33989
182.5417
171.16255
158.04817
143.0734
126.16459
107.31677
86.603178
64.427862
41.751487
20.068395
7.1825022
2.890583
1.6093081
1.1665454
0.87956833
0.6971077
0.58082528
0.52086977
0.49272463
0.4635628
0.44196682
0.4255179
0.41405341
0.40840206
0.39765568
0.39355621
148.1437
144.79667
140.74025
135.93586
130.25415
123.54609
115.64507
106.38554
95.621854
83.247916
69.199273
53.305192
36.325501
20.093316
8.7767203
3.6148884
1.9384831
1.3877466
1.0420452
0.8170708
0.66505672
0.56577476
0.50937195
0.48582411
0.46001464
0.44018008
0.42481888
0.41389331
0.40851626
0.39772093
0.39355522
84.327836
82.309961
79.85004
76.905453
73.363383
69.101514
63.988961
57.889163
50.689861
42.366652
33.084503
23.731848
14.964867
7.9525315
3.7993074
2.0885382
1.4927868
1.1471406
0.93690637
0.7528551
0.63360211
0.55027744
0.49901238
0.47826616
0.45606846
0.43814735
0.42407254
0.4136967
0.40861201
0.39784983
0.39355337
35.597356
34.61035
33.450864
32.091029
30.447788
28.427027
25.968064
23.058996
19.697809
15.976722
12.084337
8.513355
5.544598
3.3633023
2.1131722
1.5344887
1.2153297
1.0155254
0.8316265
0.69459846
0.5997306
0.53243657
0.49010251
0.47004245
0.45166998
0.43585138
0.423252
0.41349579
0.40867978
0.39808518
0.39354032
11.623126
11.3319
10.975178
10.546286
10.026947
9.3947493
8.6326888
7.7216946
6.6800624
5.5466739
4.3812753
3.3159286
2.4362547
1.8482012
1.5325514
1.2591516
1.048292
0.85842238
0.74247816
0.64111296
0.57077179
0.51455579
0.48247024
0.46176597
0.44702634
0.433359
0.42233603
0.4132749
0.40878906
0.39847295
0.39350374
3.7429919
3.7009631
3.6314384
3.5320547
3.400679
3.2367148
3.046012
2.8204184
2.5652359
2.2866214
1.9911752
1.6993273
1.4412191
1.2992418
1.2434803
1.0804412
0.89742186
0.75238477
0.65814233
0.60478412
0.53714562
0.50029613
0.4732327
0.4539217
0.44215359
0.43082225
0.42127678
0.41298014
0.40900161
0.39910996
0.39352347
1.5354408
1.5356839
1.5303126
1.5179603
1.4979191
1.4691319
1.4303075
1.3873817
1.3424944
1.2967586
1.2428906
1.1787497
1.0919821
0.99875945
0.92613214
0.87680933
0.79168461
0.67475096
0.61170909
0.56006133
0.51731263
0.48816174
0.46255096
0.44731482
0.43721221
0.42833371
0.42010128
0.41254401
0.40911254
0.39966614
0.39354792
0.92685503
0.93012325
0.93317981
0.93552347
0.9375797
0.9393174
0.94034971
0.94488217
0.95329098
0.96664357
0.97543504
0.95341543
0.89202279
0.82888457
0.75801098
0.70673899
0.66016533
0.60362301
0.5616657
0.52260119
0.4987654
0.47190778
0.45313938
0.44048427
0.43243298
0.42584557
0.41894117
0.41171266
0.4091434
0.40031351
0.39358301
0.73034329
0.73357853
0.73830312
0.74480034
0.75322365
0.76317532
0.77297536
0.77793549
0.77444485
0.76230397
0.74986825
0.7472929
0.73019338
0.69933318
0.65424354
0.61559249
0.57760886
0.56182545
0.51644179
0.49926327
0.47631379
0.45650574
0.44341797
0.43450387
0.4270273
0.42295046
0.41780527
0.41082238
0.40893895
0.40082012
0.39362691
0.62225465
0.62368603
0.62545899
0.62731701
0.62921105
0.63107617
0.63273031
0.63372117
0.63328777
0.63024305
0.6214715
0.61112567
0.60280011
0.58180038
0.56306768
0.54474294
0.52378305
0.51219477
0.49124258
0.46742831
0.45256221
0.44286078
0.43167101
0.4255122
0.42110705
0.41919701
0.41603504
0.41023123
0.40869078
0.40127909
0.39387085
0.55743398
0.55928675
0.56131271
0.56331011
0.56532177
0.56728537
0.56883121
0.56892408
0.5663073
0.55900287
0.54603402
0.53060512
0.51766128
0.50655646
0.49267512
0.4784154
0.46538759
0.46040645
0.45780102
0.44530663
0.43788237
0.42606316
0.41995893
0.41636588
0.41436422
0.41419512
0.41363065
0.40977804
0.4083894
0.40150207
0.3941612
0.50693125
0.50796033
0.50887698
0.50944351
0.50952964
0.50900134
0.50753103
0.50487158
0.50145296
0.49722449
0.49153057
0.48404869
0.47478226
0.46488237
0.45489632
0.44504609
0.43847796
0.43409059
0.43146122
0.42758539
0.42124664
0.41594231
0.41249869
0.40966537
0.40836547
0.4090529
0.41073922
0.40954932
0.40734107
0.40155003
0.39435011
0.46804309
0.46847217
0.46875447
0.4688492
0.46882664
0.46870896
0.46844653
0.46797837
0.46706119
0.46522586
0.46164307
0.45632375
0.44957738
0.44188193
0.43426858
0.42751905
0.42505375
0.42245266
0.42042978
0.41716721
0.41303653
0.4100468
0.40775775
0.40596259
0.40533294
0.40571116
0.40695447
0.40828231
0.40580814
0.40093645
0.39503992
0.44033025
0.44028914
0.44017882
0.44008465
0.44015115
0.44043721
0.44092109
0.44137118
0.4414164
0.44071067
0.4386529
0.43535244
0.43119347
0.426787
0.42212582
0.41849329
0.41697365
0.4172701
0.41542675
0.41249759
0.40896804
0.40646608
0.40496701
0.40392192
0.40339902
0.40407375
0.40500435
0.40580625
0.40544769
0.40115585
0.39616648
0.42070828
0.42120757
0.42167219
0.42218704
0.42282374
0.42355165
0.42427161
0.42481071
0.42480938
0.42394789
0.42161401
0.41805791
0.41444699
0.41151756
0.41022575
0.40989848
0.40971648
0.40943053
0.40951216
0.40821421
0.40592382
0.40431369
0.40348339
0.40287862
0.4026132
0.40346999
0.40444561
0.40522974
0.40775084
0.40659986
0.39890288
0.40722163
0.40734679
0.40741775
0.40750176
0.40760351
0.40767663
0.40766817
0.40754389
0.40723346
0.40665536
0.40579105
0.40484048
0.4039535
0.40332137
0.40288129
0.40272378
0.40291312
0.40272439
0.40235509
0.40198998
0.40154555
0.40166832
0.40205351
0.40236298
0.40255177
0.40433361
0.40591441
0.40842712
0.41447841
0.41744255
0.40556663
0.40104653
0.4010365
0.40104911
0.40107983
0.40110442
0.4010868
0.40100853
0.40087954
0.40072306
0.40054022
0.40033267
0.40016662
0.39991649
0.39983173
0.40006828
0.40024785
0.40042497
0.40014177
0.39995815
0.40004878
0.400209
0.4008942
0.40173224
0.40267543
0.4037511
0.40600298
0.40796951
0.41094178
0.41670258
0.42094479
0.40958604
0.39909023
0.39907565
0.3990813
0.39910398
0.39911691
0.39908017
0.39897488
0.39882724
0.39868676
0.39858243
0.39851716
0.39849361
0.39853281
0.39855362
0.39868202
0.39880771
0.39882031
0.39879625
0.39887632
0.39925152
0.39977421
0.40075692
0.40176796
0.40261549
0.40327763
0.40483163
0.40801856
0.40926289
0.41132347
0.41715757
0.40788169
0.39903876
0.3990219
0.39899396
0.39894758
0.39887771
0.39878568
0.39868066
0.398579
0.39849091
0.39840936
0.39832081
0.39822729
0.39816116
0.39817865
0.39823562
0.39822573
0.39826373
0.39836728
0.39848904
0.39878396
0.3988676
0.39860464
0.39845037
0.39854589
0.39861115
0.39936219
0.40026239
0.39968226
0.39940175
0.40077977
0.39964718
237.65936
277.72811
341.46209
409.61984
469.94711
515.4914
542.79972
551.2098
544.22906
518.63462
475.49804
421.74459
360.64579
296.00253
231.5167
170.3899
114.91102
67.311582
31.250178
10.262394
2.7855654
1.1218903
0.73890775
0.58585395
0.50820257
0.45942046
0.42876015
0.4129115
0.40392104
0.40229093
0.39734692
261.82927
322.77553
388.75161
449.31896
499.1692
534.7803
553.78909
556.15084
544.85845
514.4944
469.29203
414.49174
353.19031
288.98079
225.3358
165.24583
110.83005
64.302474
29.36667
9.4217651
2.5830535
1.0806222
0.72720985
0.58159265
0.50637487
0.45868499
0.42854868
0.41269867
0.40404842
0.40152135
0.3969821
295.07302
358.05531
420.64751
476.06277
519.76871
548.87459
561.8013
559.68543
544.14798
509.84576
463.00567
407.36588
345.96387
282.22179
219.40686
160.31827
106.92175
61.433588
27.587555
8.6756616
2.4036766
1.0457958
0.72043606
0.57908481
0.50531
0.45830848
0.42844123
0.41256038
0.40416559
0.4009721
0.39661841
332.20491
394.15594
451.91634
500.92662
537.97052
560.77833
568.26345
562.73911
542.24513
504.97669
456.72506
400.39322
338.96945
275.7183
213.71886
155.59599
103.17608
58.69469
25.91708
8.0041889
2.2435616
1.0151279
0.712659
0.5760132
0.50395277
0.45780392
0.42832171
0.41242054
0.40429949
0.40063847
0.39627388
369.66186
428.09096
480.23449
522.97178
553.80039
570.84855
573.67173
564.58982
539.40736
499.97012
450.48481
393.58275
332.20395
269.46199
208.26236
151.07078
99.587671
56.079867
24.354173
7.3905325
2.1001063
0.98783182
0.70589133
0.57334747
0.50277826
0.45739467
0.42823465
0.41231843
0.40444585
0.40037886
0.3959467
405.84973
459.41122
505.77701
542.53715
567.59122
579.36764
578.25762
565.23323
536.18579
494.90409
444.31405
386.94528
325.66726
263.44704
203.02965
146.73544
96.149201
53.584208
22.895409
6.8261465
1.971611
0.96355673
0.6993532
0.57067933
0.50157372
0.45697687
0.42815732
0.41223704
0.40459825
0.40018088
0.39563821
439.47869
487.89086
528.68778
559.8589
579.58496
586.60401
582.17024
564.94058
532.76315
489.81264
438.23678
380.49169
319.36024
257.66875
198.01396
142.58306
92.852389
51.203994
21.534069
6.3063608
1.8567101
0.94235828
0.69326843
0.56817519
0.5004332
0.45659896
0.42809998
0.41219377
0.40475131
0.40002852
0.39535358
470.34372
513.66648
549.19484
575.1751
590.00402
592.83378
585.34372
563.64817
529.16289
484.72442
432.27522
374.23212
313.28393
252.12301
193.20911
138.60701
89.690628
48.934643
20.250523
5.8284614
1.7541328
0.92306812
0.68749565
0.56575801
0.49931204
0.45623743
0.42805598
0.41217251
0.40489832
0.3999417
0.39509441
498.43569
536.90976
567.52338
588.70683
599.03609
598.26111
587.12447
561.91149
525.4693
479.67124
426.44977
368.17575
307.43932
246.80612
188.60942
134.801
86.658046
46.770237
19.032835
5.3907891
1.6627311
0.90563682
0.68204771
0.56345577
0.49822919
0.45590209
0.42802865
0.41216358
0.40503317
0.39990299
0.39486447
523.90591
557.84391
583.90372
600.66548
606.89224
603.04559
587.95562
559.98896
521.72286
474.68024
420.77885
362.33078
301.82716
241.71465
184.20958
131.15917
83.749627
44.704081
17.873461
4.9917848
1.5814259
0.88980597
0.67688255
0.56125098
0.49717442
0.45558605
0.42801233
0.41216239
0.40515049
0.39988453
0.39465603
546.96769
576.70038
598.55525
611.24953
613.83073
607.1268
588.19058
557.89745
517.9504
469.77743
415.27914
356.70435
296.44797
236.84532
180.00465
127.67592
80.958388
42.72977
16.775451
4.6295818
1.5092081
0.87539093
0.67198401
0.55914646
0.49615148
0.45528936
0.4280045
0.41217815
0.40524543
0.39987399
0.39446051
567.85187
593.70246
611.67901
620.62398
620.05524
610.15878
588.04644
555.6792
514.18517
464.98793
409.96556
351.30258
291.30193
232.19498
175.98995
124.34601
78.27745
40.844177
15.74174
4.3071976
1.445154
0.86222493
0.66733053
0.55713622
0.49515798
0.45500757
0.42800261
0.41221369
0.40531321
0.39986461
0.39430533
586.78383
609.05824
623.45979
628.94833
625.67338
612.32893
587.6568
553.37671
510.46032
460.33487
404.85117
346.1306
286.38887
227.76055
172.16117
121.16503
75.709373
39.045886
14.773284
4.0170572
1.3883102
0.85016621
0.66290639
0.55521852
0.49419495
0.45473724
0.42801516
0.41226167
0.40535508
0.39984993
0.39418696
603.97436
622.96027
634.07432
636.45761
630.52971
613.97828
587.07215
551.02968
506.80733
455.83913
399.94738
341.19262
281.70838
223.53905
168.51429
118.1293
73.256248
37.332601
13.869389
3.7552411
1.3378566
0.83909783
0.65869663
0.55338997
0.49326236
0.45447351
0.42803645
0.41231846
0.40538456
0.39982794
0.3940736
619.62116
635.5833
643.66568
643.31478
634.64238
615.27634
586.34855
548.6788
503.25541
451.51928
395.26398
336.49205
277.25974
219.5276
165.04559
115.23539
70.914691
35.717626
13.027912
3.5191591
1.2930792
0.82889906
0.65468885
0.55164818
0.49236131
0.4542116
0.42806476
0.41238285
0.40541188
0.39979202
0.39399611
633.90838
647.08828
652.36015
649.66134
638.0406
616.33751
585.5392
546.36204
499.8309
447.39165
390.80939
332.03158
273.04203
215.72345
161.75166
112.4801
68.682209
34.203069
12.245787
3.3067067
1.2533458
0.81946507
0.65087254
0.54999057
0.49149292
0.45394671
0.42810139
0.41245388
0.40544485
0.39973659
0.39394262
647.00939
657.63291
660.34759
655.38447
641.01494
617.22548
584.69054
544.11366
496.55723
443.47052
386.59073
327.81328
269.0542
212.12395
158.6295
109.86295
66.556158
32.767223
11.520168
3.1159978
1.2180937
0.81071831
0.64723864
0.5484149
0.49065879
0.45367494
0.42814336
0.412531
0.40548817
0.39966393
0.39391723
659.08061
667.34678
667.75439
660.53681
643.70086
617.99932
583.84509
541.96436
493.45507
439.76832
382.61404
323.83873
265.29501
208.72659
155.67641
107.38413
64.533701
31.395102
10.848981
2.9452715
1.1868205
0.80258934
0.64377931
0.54691893
0.48986056
0.45339367
0.4281902
0.41261334
0.40553728
0.39957378
0.39391282
670.26218
676.33053
674.73805
665.13382
646.2129
618.71004
583.04048
539.94128
490.54257
436.29581
378.8844
320.10904
261.76318
205.52887
152.88962
105.04056
62.61223
30.086725
10.230346
2.7928555
1.159081
0.7950182
0.6404878
0.54550052
0.48909994
0.45310224
0.42824002
0.41270003
0.40558695
0.39946848
0.39391934
680.68916
684.72524
681.25939
669.38357
648.58556
619.39904
582.30971
538.06838
487.83559
433.06226
375.40606
316.62502
258.45734
202.52835
150.26621
102.82801
60.789499
28.843753
9.6620324
2.657167
1.1344793
0.78795319
0.63735823
0.54415754
0.48837834
0.4528022
0.42829094
0.41279029
0.40563645
0.39935244
0.39394324
690.47888
692.62988
687.35466
673.3965
650.86708
620.10439
581.68179
536.36681
485.34794
430.07565
372.18259
313.38723
255.37615
199.72267
147.80388
100.74355
59.063566
27.666722
9.1415294
2.5367256
1.11267
0.78134984
0.63438546
0.54288782
0.48769677
0.45249736
0.42834118
0.41288374
0.40568492
0.39923324
0.39398289
699.72204
700.12531
693.08019
677.25022
653.10125
620.85964
581.18165
534.85534
483.09167
427.34276
369.21696
310.39604
252.51833
197.10961
145.5053
98.785145
57.43286
26.555341
8.6662426
2.430161
1.0933526
0.7751702
0.63156492
0.54168915
0.48705557
0.45219349
0.42838902
0.41298035
0.40573015
0.39911906
0.39403101
708.49125
707.32482
698.47936
681.0032
655.31833
621.69614
580.83379
533.54813
481.07736
424.86933
366.5117
307.65178
249.88267
194.68658
143.36568
96.952222
55.896079
25.508756
8.2338852
2.3362135
1.0762802
0.76938209
0.62889241
0.54055926
0.48645436
0.45189769
0.42843321
0.41308026
0.40576928
0.39901285
0.39408929
716.86905
714.22639
703.67092
684.67283
657.55143
622.64062
580.65903
532.45794
479.31344
422.6602
364.06897
305.15475
247.46817
192.45677
141.37613
95.243025
54.451997
24.525748
7.8416131
2.2537258
1.0612771
0.76395853
0.62636398
0.53949583
0.48589198
0.45161747
0.42847307
0.41318343
0.40579913
0.3989124
0.39415689
724.91339
720.8565
708.71723
688.29439
659.82742
623.70954
580.67094
531.59858
477.80693
420.71916
361.89078
302.90505
245.27723
190.41701
139.53659
93.651303
53.099524
23.604851
7.4866006
2.1816523
1.0482991
0.75887708
0.62397583
0.53849657
0.48536658
0.45135982
0.42850861
0.41328947
0.40581175
0.39881638
0.39422885
732.66839
727.25524
713.65698
691.89786
662.16824
624.90526
580.8531
530.98075
476.56537
419.04953
359.98046
300.90904
243.31021
188.55981
137.8462
92.171401
51.837386
22.744501
7.1666048
2.1190352
1.0368073
0.75411919
0.62172423
0.53755922
0.48487584
0.4511303
0.42854041
0.41339756
0.4058142
0.39872437
0.39430276
740.17003
733.4531
718.52112
695.50778
664.59567
626.25546
581.2235
530.61815
475.59686
417.66548
358.35048
299.16792
241.56164
186.88585
136.30439
90.803684
50.664248
21.943121
6.8795625
2.064995
1.0267094
0.74967136
0.61960547
0.53668165
0.48441721
0.45093229
0.42856958
0.41350628
0.40581017
0.39863635
0.39437803
747.45195
739.47802
723.32984
699.14367
667.12968
627.7833
581.86379
530.53752
474.94077
416.5914
357.00633
297.67383
240.02905
185.39513
134.91096
89.550217
49.578349
21.199019
6.623481
2.0186469
1.0178646
0.74552179
0.61761574
0.53586189
0.48398822
0.45076664
0.42859748
0.41361366
0.40579798
0.39855454
0.39445366
754.54365
745.3591
728.08994
702.81967
669.78849
629.51421
582.78787
530.73237
474.62315
415.83293
355.93587
296.4263
238.71373
184.08783
133.66605
88.412407
48.578185
20.510374
6.3964215
1.9788974
1.0097324
0.74162288
0.61575119
0.53509815
0.4835867
0.4506319
0.42862453
0.41371789
0.40578062
0.39847772
0.3945187
761.53394
751.22883
732.91268
706.63251
672.65146
631.51511
584.02019
531.2673
474.60053
415.36201
355.13417
295.42697
237.61587
182.96434
132.57004
87.39112
47.663058
19.877723
6.1972722
1.9432311
1.0019229
0.73797043
0.61400807
0.53438888
0.48321103
0.45052482
0.42865115
0.41381629
0.40576545
0.39840878
0.3945716
768.67561
757.31423
738.00694
710.76074
675.84388
633.84156
585.58934
532.12633
474.81677
415.15697
354.60148
294.67495
236.73589
182.02526
131.62352
86.486899
46.834525
19.302258
6.018635
1.9106334
0.99458827
0.73455493
0.61238263
0.53373276
0.48286023
0.45044086
0.42867731
0.41390592
0.40576229
0.39834864
0.39460748
776.06403
763.66504
743.37228
715.18068
679.37254
636.48062
587.41585
533.2417
475.3337
415.22191
354.33705
294.17028
236.07442
181.27137
130.82722
85.700169
46.094082
18.783074
5.8576514
1.8806857
0.98769637
0.73137028
0.61087105
0.53312865
0.48253392
0.45037487
0.42870308
0.41398389
0.40576667
0.39829969
0.39462258
783.44122
770.09548
748.83323
719.69816
683.00566
639.29045
589.44414
534.62123
476.15832
415.55601
354.34155
293.91362
235.63222
180.70363
130.18204
85.031373
45.442884
18.318597
5.7126178
1.8532734
0.98126984
0.72840939
0.60946959
0.53257559
0.4822323
0.45032169
0.42872863
0.41404725
0.40578557
0.39827163
0.3946161
789.86366
775.90666
753.93791
724.04399
686.57375
642.16808
591.6768
536.25561
477.26251
416.20677
354.59925
293.90557
235.41024
180.32316
129.68906
84.481042
44.882743
17.907027
5.5821889
1.8281659
0.97530784
0.72566619
0.60817454
0.53207273
0.48195596
0.45027668
0.42875448
0.41408246
0.40581535
0.39824145
0.394591
795.4694
781.00906
758.54633
728.14159
690.12837
645.15416
594.10745
538.1445
478.6479
417.14244
355.15499
294.13641
235.40932
180.13124
129.34958
84.04982
44.415947
17.546639
5.465174
1.8048998
0.96981376
0.7231346
0.60698223
0.53161925
0.48170574
0.45023636
0.4287815
0.4140986
0.40585068
0.39819872
0.39455333
801.20727
786.0586
763.0462
732.17755
693.71651
648.27321
596.74464
540.2912
480.3174
418.3647
355.9842
294.63366
235.62636
180.12921
129.16512
83.73851
44.044761
17.235839
5.3604724
1.783393
0.96479423
0.72080894
0.60588902
0.53121434
0.48148254
0.45019883
0.42881083
0.41410688
0.40589435
0.39815694
0.39451346
807.0296
791.15647
767.56941
736.25064
697.39337
651.55117
599.60021
542.7003
482.27378
419.87612
357.08836
295.38358
236.07348
180.31784
129.13742
83.54815
43.7717
16.973219
5.2670098
1.7635069
0.9602558
0.71868374
0.60489134
0.53085709
0.48128717
0.45016379
0.42884354
0.41411183
0.40594719
0.39811437
0.3943327
812.7739
796.25151
772.13961
740.41047
701.20077
655.01121
602.68555
545.37666
484.51962
421.6792
358.4696
296.38786
236.74606
180.70099
129.2672
83.479977
43.598622
16.757687
5.1837016
1.7451187
0.95620845
0.71675391
0.60398568
0.53054655
0.48112025
0.45013212
0.42888017
0.41411509
0.40600883
0.39807149
0.39427801
818.33138
801.29323
776.75375
744.68021
705.16603
658.67217
606.01084
548.32522
487.05694
423.77633
360.13035
297.64862
237.64585
181.27925
129.55947
83.529506
43.526693
16.588637
5.1094109
1.7281049
0.95266618
0.71501483
0.60316866
0.53028173
0.48098215
0.45010525
0.42892042
0.41411939
0.40608334
0.3980315
0.39423505
823.70449
806.28868
781.42446
749.07799
709.30839
662.54863
609.58472
551.55097
489.88652
426.16981
362.07352
299.16828
238.77489
182.05443
130.01499
83.711539
43.555199
16.466065
5.0429036
1.712341
0.94964915
0.71346262
0.60243712
0.53006166
0.48087302
0.45008528
0.4289634
0.41413157
0.40616827
0.39799232
0.39394812
828.99016
811.29614
786.18369
753.62258
713.6415
666.65061
613.41396
555.05883
493.01078
428.86
364.30235
300.94962
240.13547
183.02856
130.63603
84.020131
43.691009
16.390797
4.9827825
1.6976974
0.94718588
0.71209425
0.60178824
0.52988544
0.48079277
0.45007478
0.42900797
0.41414981
0.40625485
0.39795842
0.39379406
834.30842
816.37813
791.0592
758.32452
718.17071
670.98215
617.50289
558.85186
496.43323
431.84765
366.81988
302.99595
241.73032
184.20383
131.42514
84.457062
43.932469
16.364481
4.92739
1.6840357
0.94531576
0.71090748
0.6012195
0.52975219
0.48074122
0.4500752
0.42905322
0.41417477
0.40634714
0.39792854
0.39376068
839.71513
821.55001
796.04595
763.17281
722.88823
675.53974
621.85356
562.93131
500.15552
435.13607
369.62916
305.31068
243.56233
185.58252
132.38495
85.024216
44.281204
16.386851
4.8746512
1.6712026
0.94409137
0.70990004
0.60072838
0.52966083
0.48071811
0.45008326
0.42909919
0.41420822
0.40644597
0.39790272
0.39374719
845.16119
826.75388
801.09076
768.12708
727.77031
680.31305
626.46504
567.29779
504.17914
438.72866
372.73342
307.89751
245.6349
187.16728
133.5183
85.7235
44.738682
16.468165
4.82204
1.6590081
0.94357954
0.70906862
0.60031197
0.52960994
0.48072112
0.45011188
0.42914692
0.41425075
0.40654684
0.39788058
0.39373651
850.48106
831.85976
806.09842
773.12209
732.78069
685.29193
631.33345
571.95229
508.50462
442.62956
376.13696
310.76091
247.95203
188.96106
134.8283
86.556823
45.306122
16.609405
4.7659993
1.6472347
0.94375534
0.70840984
0.59996792
0.5295982
0.48074762
0.450152
0.429198
0.41430224
0.40665089
0.397862
0.39372542
855.4373
836.70401
810.96237
778.09035
737.87974
690.46565
636.45891
576.89425
513.13717
446.84382
379.84467
313.90577
250.51821
190.96719
136.31829
87.52793
45.983976
16.814828
4.7072899
1.6356813
0.94509179
0.70793077
0.59969826
0.52961472
0.48081197
0.45020139
0.4292539
0.41436206
0.40675736
0.39784646
0.39371335
859.79915
841.14089
815.611
782.99593
743.04566
695.81401
641.83673
582.12889
518.08371
451.37657
383.86119
317.33684
253.33803
193.1891
137.99142
88.645708
46.771583
17.086405
4.6503442
1.6241381
0.94735933
0.70765363
0.59951356
0.52967319
0.48089713
0.45026308
0.42931529
0.41442874
0.40686511
0.39783449
0.39370024
863.35148
845.04464
819.98008
787.80895
748.2575
701.31611
647.45192
587.65416
523.34378
456.2284
388.18861
321.05735
256.41536
195.62979
139.8499
89.916506
47.667225
17.429293
4.5961813
1.6131722
0.95014714
0.70759707
0.5994227
0.52977337
0.48099584
0.45032895
0.42938079
0.41449951
0.40697346
0.39782614
0.39368564
865.7817
847.88739
823.40049
791.79949
752.77209
706.24903
652.62934
592.8601
528.37647
460.93135
392.43541
324.74537
259.4894
198.07931
141.72235
91.209979
48.544507
17.77126
4.5449252
1.6028868
0.95276127
0.70766654
0.59939709
0.52988835
0.48109594
0.45039359
0.42944653
0.41457101
0.40708028
0.39782135
0.39367
241.64456
278.03133
337.1538
401.98537
461.0092
507.0201
535.69396
546.19262
540.77955
517.33767
476.01825
423.36455
362.93046
298.56642
234.04278
172.69701
116.89343
68.88198
32.275572
10.706786
2.8426296
1.1332288
0.74253273
0.58724539
0.50876531
0.4595522
0.42873856
0.41303878
0.40383852
0.40308558
0.39765852
245.94682
280.40912
337.80648
400.41259
457.26765
501.95316
530.06392
540.87562
536.0915
513.49079
473.65374
421.85326
362.13176
298.32368
234.20021
173.10503
117.42635
69.454474
32.731111
10.927507
2.889759
1.1410069
0.74482172
0.58815748
0.50909752
0.45956857
0.42867817
0.41314516
0.40378773
0.40350615
0.39799908
250.3107
283.81236
338.62057
398.75837
453.59665
496.9966
524.58018
535.60537
531.33196
509.43493
470.78803
420.03398
361.16447
298.00615
234.32454
173.48887
117.94196
70.015925
33.1819
11.151469
2.9352405
1.1486245
0.74711289
0.58906898
0.50942161
0.45958203
0.42861005
0.41326226
0.40374913
0.40389968
0.39837493
254.06901
286.96146
339.35348
397.12476
450.01474
492.16547
519.22674
530.37438
526.51405
505.38821
467.87968
418.16099
360.14554
297.64374
234.4134
173.84707
118.43955
70.566037
33.623712
11.377561
2.980826
1.1562373
0.7494165
0.58998517
0.50974139
0.45959388
0.42854009
0.41338768
0.40372359
0.40431728
0.39874864
257.24268
289.89758
340.10689
395.57596
446.56382
487.47129
513.99617
525.18928
521.72437
501.3477
464.92999
416.23403
359.07406
297.23548
234.46575
174.17878
118.91844
71.103884
34.057224
11.605394
3.0270159
1.1638936
0.75172257
0.59089972
0.51005387
0.45959937
0.42846645
0.41351738
0.40370974
0.40474994
0.39904233
260.13718
292.64384
340.91003
394.14889
443.27174
482.92923
508.89274
520.06346
516.96875
497.31607
461.944
414.25581
357.9511
296.78161
234.48122
174.48353
119.37804
71.628109
34.482689
11.834729
3.0739928
1.1716028
0.75402254
0.59180657
0.51035632
0.4595988
0.42838808
0.41364665
0.40370503
0.40519196
0.39919384
262.73516
295.23348
341.77898
392.86763
440.15576
478.55603
503.92522
515.01167
512.25561
493.29791
458.92775
412.22996
356.77846
296.28293
234.46311
174.76106
119.8179
72.137471
34.899576
12.065275
3.1218129
1.1793724
0.75631371
0.59270284
0.51064795
0.45959208
0.4283047
0.41377098
0.40370617
0.40563689
0.39921511
265.03011
297.70783
342.72247
391.73201
437.23583
474.36952
499.10387
510.04777
507.59337
489.29808
455.88701
410.16014
355.55805
295.74027
234.40918
175.01112
120.23771
72.630638
35.307157
12.2966
3.1704831
1.1871953
0.75859505
0.5935868
0.51092865
0.4595719
0.4282164
0.41388585
0.40370913
0.40607889
0.39916537
267.26518
300.22207
343.84028
390.84332
434.55721
470.39078
494.43961
505.18458
502.99019
485.32151
452.82719
408.04998
354.29182
295.15445
234.3168
175.23349
120.63731
73.107268
35.704711
12.528034
3.2199906
1.1950738
0.76086474
0.59445667
0.5111982
0.45953842
0.42812337
0.41398658
0.40370934
0.40651079
0.39897076
269.60133
302.84737
345.13966
390.23402
432.12508
466.63138
489.94142
500.43379
498.45402
481.37338
449.75358
405.9031
352.98173
294.52635
234.18855
175.42801
121.01661
73.568028
36.091516
12.758399
3.2703103
1.2029978
0.76312035
0.5953106
0.51145614
0.45949131
0.42802591
0.4140683
0.40370185
0.40692568
0.39871272
272.23909
305.67531
346.62354
389.83286
429.91906
463.09316
485.61631
495.806
493.99283
477.45899
446.67135
403.72309
351.62975
293.85688
234.02465
175.59455
121.37548
74.013523
36.466636
12.991774
3.3214356
1.2109622
0.76535851
0.59614697
0.51170203
0.45942893
0.42792435
0.41412575
0.40368157
0.40731548