/*--------------------------------*- C++ -*----------------------------------*\
| =========                 |                                                 |
| \\      /  F ield         | OpenFOAM: The Open Source CFD Toolbox           |
|  \\    /   O peration     | Version:  2406                                  |
|   \\  /    A nd           | Website:  www.openfoam.com                      |
|    \\/     M anipulation  |                                                 |
\*---------------------------------------------------------------------------*/
FoamFile
{
    version     2.0;
    format      ascii;
    arch        "LSB;label=32;scalar=64";
    class       volScalarField;
    location    "0.00105933";
    object      omega;
}
// * * * * * * * * * * * * * * * * * * * * * * * * * * * * * * * * * * * * * //

dimensions      [0 0 -1 0 0 0 0];

internalField   nonuniform List<scalar> 
8951
(
22088.09
19615.15
17168.819
14837.053
12663.452
10673.244
8880.8223
7292.1789
5906.7764
4720.4573
3722.9176
2898.682
2229.228
1694.3206
1273.2018
942.72359
684.30713
463.23712
285.11344
194.87918
153.71102
131.99215
121.21361
113.75596
108.19805
104.55837
102.00734
100.16255
99.219033
98.037311
97.524903
19312.775
17261.623
15254.011
13319.668
11485.657
9775.6634
8208.486
6797.1231
5548.9226
4466.6354
3546.2776
2777.8877
2148.0458
1640.703
1238.4868
920.54219
669.61892
451.31151
276.72316
191.43748
152.22575
131.17727
120.78201
113.53749
108.09133
104.50299
101.97997
100.15878
99.22364
98.033339
97.521678
16668.721
15035.291
13415.362
11831.81
10305.952
8858.8094
7509.7603
6275.0194
5166.7033
4192.4067
3353.3907
2644.8689
2058.078
1581.0017
1199.6659
895.78953
652.7983
437.73373
269.20903
189.37913
151.38439
130.71943
120.53703
113.41872
108.03415
104.4748
101.96716
100.16017
99.237834
98.03139
97.517942
14178.087
12917.25
11643.194
10374.738
9130.3912
7929.0712
6789.4078
5728.5626
4761.0746
3897.6888
3143.7134
2498.8243
1958.4508
1514.3849
1155.9867
867.793
633.27717
422.15791
261.06188
186.5408
150.05534
129.9516
120.10745
113.21045
107.93307
104.42361
101.94346
100.16079
99.246087
98.028337
97.514886
11880.423
10932.601
9956.0902
8964.817
7973.6269
6998.5975
6056.4854
5163.7792
4335.5799
3584.2755
2917.9557
2339.8209
1848.9077
1440.4765
1107.0535
835.94217
610.5901
404.18274
252.06492
183.65764
148.75513
129.22414
119.69962
113.01473
107.84013
104.37752
101.92166
100.16097
99.260032
98.025541
97.512883
9802.208
9108.2193
8378.3048
7623.3385
6853.8672
6082.279
5322.3993
4588.7326
3895.4729
3255.2555
2677.6852
2168.4593
1729.4981
1359.0528
1052.5428
799.79274
584.13777
383.44667
242.40485
180.40633
147.18577
128.31255
119.1697
112.75841
107.71704
104.31731
101.89208
100.1599
99.271915
98.022124
97.512097
7957.6306
7463.2541
6931.441
6371.7128
5790.6388
5196.7676
4600.4447
4013.3222
3447.6013
2914.9873
2425.4022
1985.966
1600.649
1270.0883
992.21533
759.00062
553.17861
359.73865
232.27296
176.91637
145.51194
127.3542
118.59923
112.48495
107.58783
104.25651
101.86079
100.15796
99.287644
98.019114
97.511535
6351.588
6008.3856
5631.694
5228.6169
4802.7114
4359.2285
3905.1475
3448.9891
3000.3575
2569.1792
2164.6707
1794.3293
1463.2791
1173.8331
925.93926
713.14626
516.79267
333.18191
221.97438
173.0569
143.60377
126.2378
117.90775
112.15177
107.42914
104.18285
101.82191
100.15435
99.302671
98.016218
97.510639
4980.7096
4749.0129
4490.1169
4208.7366
3906.3687
3585.7631
3251.0906
2907.9731
2563.298
2224.7604
1900.1282
1596.3702
1318.8808
1070.8721
853.69212
661.59773
473.8874
304.36013
211.776
168.84765
141.54262
125.04108
117.13466
111.78065
107.25323
104.1002
101.7783
100.14725
99.318993
98.014239
97.509078
3834.9663
3683.2385
3510.9238
3320.8848
3113.3759
2889.476
2651.2929
2402.1022
2146.3461
1889.431
1637.2815
1395.6815
1169.5213
962.13029
775.4835
603.19288
423.27249
274.73661
201.82645
164.20479
139.25507
123.69966
116.22073
111.3377
107.03944
103.99392
101.7255
100.13454
99.333492
98.013384
97.508528
2897.2823
2801.2851
2690.5619
2566.7371
2429.4509
2278.8192
2115.6078
1941.4065
1758.7172
1570.9193
1382.0536
1196.3774
1017.7058
848.77091
691.07437
535.54263
365.71461
247.21228
192.07735
159.15776
136.78824
122.28903
115.19459
110.83303
106.7913
103.86505
101.66384
100.11761
99.346447
98.01259
97.510405
2145.6934
2087.3775
2019.0602
1941.5808
1854.3725
1757.1061
1649.8091
1533.0022
1407.8143
1276.0384
1140.0594
1002.5722
865.99117
731.84888
599.10072
453.95885
306.89181
223.96231
182.2398
153.74121
134.07115
120.7864
114.02064
110.23339
106.48643
103.71098
101.59273
100.10133
99.35893
98.012289
97.511129
1555.4657
1521.4197
1481.2447
1435.0535
1382.249
1322.3334
1254.9931
1180.1622
1098.1152
1009.5424
915.53773
817.41754
716.07058
611.14207
494.44272
358.64413
256.27925
204.93006
172.28865
148.12844
131.12852
119.26862
112.76287
109.54622
106.12946
103.53209
101.51273
100.08545
99.372123
98.01382
97.510926
1099.3779
1080.4425
1057.991
1031.8794
1001.6256
966.72774
926.68916
881.10374
829.72886
772.52875
709.61151
641.07328
566.38195
481.57117
375.15988
275.20941
220.92231
188.39416
162.16818
142.4715
127.96928
117.65994
111.46078
108.74795
105.70766
103.31462
101.42524
100.06537
99.386634
98.019755
97.509406
749.46492
739.58961
727.89143
714.0946
697.75141
678.39369
655.5222
628.57714
597.0119
560.37401
517.88641
469.59213
414.68718
346.25439
276.65719
227.61663
197.92828
171.23594
152.77618
136.38353
124.78255
115.9775
110.26612
107.86582
105.23583
103.06624
101.33182
100.0413
99.399571
98.034114
97.508688
482.82994
477.83286
472.20217
465.58871
457.44053
447.05174
433.87314
417.61757
397.75741
374.37338
348.49606
321.02073
292.12964
259.97401
225.62525
199.11218
175.98831
157.52071
143.58417
130.90678
121.30523
114.02384
109.22686
106.89867
104.70686
102.78449
101.22935
100.01613
99.409997
98.062209
97.507967
313.73222
311.39279
308.75402
305.6944
302.10243
297.82771
292.68306
285.92861
277.20621
266.35309
253.91196
240.10826
225.67025
214.66135
198.95458
177.94163
160.7223
146.94092
135.58702
125.59453
118.21461
112.01366
108.32519
105.91372
104.14367
102.47687
101.11515
99.987528
99.426672
98.113011
97.505354
222.8329
222.43231
222.04704
221.50365
220.64454
219.47897
218.38473
216.79746
214.30965
210.38772
205.72689
198.03474
188.67865
183.83295
177.21741
164.9623
150.9715
136.68541
127.56616
121.88641
114.58389
110.38404
107.24172
104.9709
103.54838
102.16213
100.98283
99.948923
99.455355
98.195005
97.513498
176.33793
176.58731
177.09512
177.99976
179.31525
180.29828
180.24251
180.02251
179.61622
178.63039
177.76467
174.54994
167.73039
158.45282
153.61589
148.09179
139.31936
128.75795
122.4647
117.16488
112.28737
108.96929
105.97658
104.16573
102.94023
101.85231
100.83551
99.892543
99.469796
98.268185
97.518964
151.96084
152.02062
152.03342
151.87442
151.61949
151.74931
152.21253
153.16643
155.43784
159.16299
159.03345
156.10371
150.23325
144.50431
137.16329
132.12073
128.15429
122.32997
117.28206
112.86672
110.19844
107.10311
104.85896
103.33263
102.35046
101.54301
100.69074
99.787114
99.473489
98.351311
97.521678
134.23732
134.52665
134.9493
135.6005
136.5712
137.65194
138.59827
139.01349
138.35506
136.51894
135.41658
135.12656
133.82829
131.02028
127.1551
123.66696
118.91931
116.58957
112.16468
110.214
107.61311
105.2622
103.68842
102.59891
101.68552
101.18491
100.5512
99.679762
99.446392
98.42006
97.527211
124.44469
124.57759
124.68241
124.67752
124.56627
124.50331
124.56884
124.68218
124.67561
124.44805
123.78046
123.01364
121.99996
119.20974
117.06122
115.01928
113.14843
112.08851
109.3968
106.57202
104.79206
103.60513
102.26112
101.50033
100.95745
100.72214
100.33395
99.608064
99.415608
98.48205
97.543969
116.37477
116.54491
116.75464
116.99841
117.29663
117.63083
117.92421
118.04959
117.84227
117.13134
115.78062
113.8158
112.32972
111.52897
109.71896
108.0227
106.31567
105.69472
105.4143
103.89011
102.98395
101.55862
100.80531
100.36431
100.11972
100.10406
100.03842
99.555064
99.378318
98.509195
97.564229
111.3034
111.43905
111.55929
111.6317
111.63513
111.5551
111.34748
110.98572
110.51399
109.99972
109.3207
108.43833
107.3468
106.18318
105.02575
103.80363
103.01466
102.49604
102.18798
101.7355
100.94324
100.29004
99.865018
99.523742
99.373626
99.466477
99.685109
99.531185
99.2543
98.514398
97.59687
106.59112
106.64808
106.6884
106.70762
106.71355
106.70928
106.69074
106.64896
106.55402
106.32949
105.88047
105.20969
104.36701
103.40797
102.46322
101.63307
101.34951
101.04754
100.81363
100.41591
99.908413
99.545062
99.26739
99.06245
98.999453
99.048947
99.21253
99.3895
99.070509
98.4388
97.652186
103.26123
103.25495
103.23916
103.22437
103.22869
103.25777
103.31049
103.35706
103.35323
103.25567
102.99322
102.59171
102.086
101.51261
100.9551
100.50451
100.33502
100.39216
100.1807
99.831113
99.391052
99.086408
98.921766
98.808707
98.749594
98.843735
98.960578
99.070582
99.026599
98.469217
97.849216
100.80704
100.86976
100.92733
100.99047
101.06786
101.15587
101.24242
101.30514
101.2988
101.18334
100.88566
100.44544
100.01046
99.67953
99.501971
99.452844
99.44287
99.415186
99.4137
99.27422
98.997283
98.818088
98.745989
98.68348
98.645355
98.768252
98.886703
99.000896
99.307976
99.15357
98.211362
99.208261
99.22196
99.228933
99.238505
99.251856
99.263575
99.267428
99.260199
99.236174
99.18486
99.09764
98.989596
98.873401
98.798119
98.749559
98.736219
98.749374
98.718871
98.677264
98.635065
98.571933
98.563928
98.597921
98.624094
98.639478
98.88628
99.055489
99.402566
100.17619
100.54901
99.045218
98.578831
98.577586
98.579376
98.583796
98.588105
98.587844
98.581223
98.56938
98.555476
98.539557
98.520931
98.504881
98.476057
98.464093
98.489756
98.502158
98.515953
98.483294
98.458692
98.461036
98.460872
98.521859
98.601665
98.743885
98.892012
99.170815
99.443231
99.788775
100.47923
101.01629
99.597283
98.401429
98.399931
98.401231
98.404765
98.407272
98.404036
98.393048
98.377175
98.362817
98.353091
98.347497
98.345807
98.351807
98.357555
98.375655
98.39756
98.392412
98.378431
98.386132
98.434832
98.504593
98.609674
98.727942
98.84272
98.933311
99.125651
99.518505
99.687527
99.943899
100.65023
99.499368
98.573333
98.571791
98.569027
98.563943
98.555569
98.543537
98.528569
98.512612
98.497594
98.483534
98.469554
98.456548
98.447857
98.447134
98.45109
98.450037
98.45195
98.455873
98.466795
98.500787
98.524635
98.520354
98.509937
98.491605
98.497952
98.588914
98.721834
98.618252
98.596063
98.776163
98.635893
135058.02
104225.26
77985.036
59599.164
46515.754
36724.306
28986.59
22680.623
17531.208
13362.629
10026.835
7399.8248
5370.732
3834.0272
2693.3458
1862.4875
1266.0009
844.24824
547.96945
339.86072
214.47414
159.84459
134.47639
119.75575
111.29901
105.62634
101.90471
99.948868
98.818645
98.591678
98.069335
115713.91
84512.567
65361.02
52035.434
41999.739
33819.6
26965.804
21229.438
16485.373
12612.723
9495.6298
7030.8621
5119.9916
3667.5509
2585.3341
1793.9642
1223.3644
818.2348
532.00152
330.07933
209.4293
157.73747
133.56541
119.32121
111.09236
105.53849
101.87908
99.921492
98.834391
98.506464
98.016076
97483.043
75312.377
60052.919
48564.372
39379.13
31762.931
25369.248
20016.56
15581.433
11949.988
9019.2359
6696.4189
4890.813
3514.3637
2485.4261
1730.3384
1183.6484
793.99434
517.00923
321.04254
205.34888
156.33264
133.00301
119.06325
110.97496
105.49454
101.86588
99.902808
98.848011
98.4504
97.962482
85983.757
68378.839
55489.569
45350.082
36982.644
29925.928
23955.005
18938.877
14771.544
11351.014
8585.6377
6390.0613
4679.6284
3372.4192
2392.3838
1670.8115
1146.3068
771.12559
502.8383
312.54967
201.53622
154.85315
132.34768
118.74539
110.82152
105.43489
101.8513
99.884369
98.864421
98.408371
97.911159
76989.195
62718.346
51657.887
42558.431
34853.869
28276.307
22679.281
17963.145
14034.831
10803.794
8187.9902
6107.9278
4484.296
3240.5544
2305.5852
1615.0556
1111.1796
749.54235
489.48422
304.49291
197.92542
153.48884
131.76038
118.46746
110.68956
105.38664
101.84063
99.87049
98.882377
98.371364
97.862118
70314.411
58283.592
48445.684
40105.255
32940.395
26779.557
21517.286
17071.554
13359.389
10300.835
7821.5918
5847.1676
4303.1458
3117.8227
2224.5067
1562.7886
1078.1132
729.17236
476.92377
296.80845
194.52332
152.18884
131.18183
118.18821
110.55342
105.3372
101.83122
99.859209
98.901055
98.341851
97.815723
65160.95
54590.524
45636.368
37907.361
31206.229
25414.805
20453.953
16252.914
12737.444
9836.903
7482.955
5605.5627
4134.8258
3003.4314
2148.698
1513.7611
1046.9623
709.95584
465.09928
289.46303
191.32656
150.96105
130.63248
117.92467
110.42447
105.29244
101.82427
99.852659
98.919791
98.319577
97.772729
60967.941
51416.344
43146.659
35927.665
29629.664
24167.313
19478.255
15499.045
12163.307
9408.0103
7169.333
5381.3136
3978.2086
2896.7027
2077.7656
1467.7499
1017.601
691.82845
453.80679
282.44683
188.32798
149.79742
130.10317
117.66933
110.29738
105.24954
101.81915
99.84945
98.937803
98.305545
97.73326
57428.755
48634.911
40920.022
34136.148
28192.293
23024.764
18581.081
14803.423
11632.527
9010.9288
6878.4651
5172.914
3832.3328
2797.0481
2011.3616
1424.5542
989.9166
674.71697
442.91695
275.76521
185.51841
148.69478
129.59613
117.42512
110.17444
105.2097
101.81602
99.848118
98.954357
98.298692
97.697814
54363.991
46167.486
38916.385
32509.119
26878.84
21976.404
17754.752
14160.78
11141.369
8642.9237
6608.4308
4979.0726
3696.3639
2703.9494
1949.1758
1383.9926
963.8082
658.54333
432.34204
269.42355
182.88791
147.64894
129.10925
117.19044
110.05447
105.17212
101.81423
99.84777
98.96875
98.295165
97.665505
51669.501
43961.505
37105.263
31027.142
25676.393
21012.939
16992.642
13566.613
10686.559
8301.6164
6357.5625
4798.6619
3569.5671
2616.9458
1890.929
1345.8995
939.16801
643.23341
422.12057
263.41894
180.42696
146.6564
128.64228
116.96567
109.93792
105.13683
101.81342
99.849246
98.980352
98.293146
97.635122
49278.407
41978.507
35462.255
29674.009
24573.882
20126.272
16288.97
13016.961
10265.189
7984.9059
6124.3888
4630.6839
3451.288
2535.624
1836.3689
1310.1235
915.89475
628.73996
412.29245
257.74118
178.12658
145.71376
128.19431
116.75031
109.82453
105.10334
101.81344
99.853382
98.988537
98.291441
97.61041
47142.475
40187.877
33967.112
28436
23561.454
19309.281
15638.793
12508.287
9874.6506
7690.9164
5907.5969
4474.2461
3340.9391
2459.6106
1785.2661
1276.5288
893.95026
615.03133
402.87819
252.37737
175.97828
144.81791
127.76479
116.54427
109.71444
105.07125
101.81554
99.859199
98.99337
98.289231
97.590994
45224.248
38564.725
32602.857
27301.417
22630.469
18555.687
15037.776
12037.389
9512.5939
7417.9608
5706.0064
4328.5445
3237.9894
2388.5668
1737.412
1244.9937
873.29754
602.07095
393.88241
247.3143
173.9739
143.96601
127.35311
116.34727
109.60763
105.04003
101.81843
99.86624
98.996605
98.286396
97.57293
43492.849
37088.278
31355.126
26260.028
21773.363
17860.012
14482.024
11601.37
9176.8923
7164.5148
5518.5495
4192.8506
3141.9565
2322.1837
1692.6156
1215.4059
853.87102
589.95517
385.29451
242.54169
172.10544
143.15545
126.95877
116.15912
109.50426
105.00909
101.82232
99.874214
98.999683
98.282134
97.559814
41923.242
35741.249
30211.713
25302.878
20983.464
17217.447
13968.024
11197.602
8865.6187
6929.1955
5344.2567
4066.5019
3052.4008
2260.1794
1650.7024
1187.6623
835.6145
578.69241
377.09547
238.05173
170.36513
142.38388
126.5813
115.97961
109.40446
104.97788
101.82721
99.883013
99.003593
98.275748
97.550603
40494.764
34508.996
29162.183
24422.038
20254.844
16623.768
13492.592
10823.7
8577.0222
6710.7454
5182.2451
3948.8941
2968.9204
2202.2956
1611.5129
1161.6817
818.47326
568.08575
369.27037
233.83694
168.74552
141.64921
126.22026
115.80856
109.30842
104.9459
101.83277
99.892547
99.008875
98.267155
97.545578
39190.11
33379.033
28197.36
23610.568
19582.322
16075.173
13052.836
10477.497
8309.5107
6508.019
5031.7091
3839.4749
2891.1476
2148.2953
1574.9012
1137.3925
802.39379
557.992
361.81425
229.8888
167.23947
140.94959
125.87525
115.64577
109.21635
104.9128
101.83895
99.9027
99.014923
98.256459
97.544007
37994.66
32340.635
27309.216
22862.349
18961.322
15568.229
12646.134
10157.023
8061.6342
6319.9715
4891.9126
3737.739
2818.7447
2097.9603
1540.7314
1114.7108
787.32692
548.40053
354.72568
226.19752
165.8402
140.28341
125.54588
115.49108
109.12846
104.87845
101.84552
99.913372
99.021069
98.243788
97.544476
36895.918
31384.706
26490.621
22171.929
18387.829
15099.817
12270.099
9860.4879
7832.0716
6145.649
4762.1828
3643.2236
2751.4022
2051.0894
1508.8762
1093.5515
773.22878
539.31771
347.99976
222.75307
164.54124
139.64927
125.23179
115.34429
109.04493
104.84299
101.85226
99.924471
99.027213
98.22968
97.547638
35883.329
30503.234
25735.266
21534.477
17858.251
14667.109
11922.564
9586.2625
7619.6185
5984.1804
4641.9042
3555.5049
2688.8355
2007.4971
1479.2203
1073.8406
760.06004
530.74145
341.6285
219.54589
163.33651
139.04599
124.93263
115.20522
108.96591
104.80681
101.85895
99.935963
99.033224
98.215107
97.553226
34947.765
29688.95
25037.619
20945.799
17369.286
14267.527
11601.551
9332.8682
7423.1771
5834.7694
4530.5137
3474.1947
2630.7837
1967.0123
1451.6819
1055.5135
747.78598
522.66398
335.6033
216.56686
162.22023
138.4726
124.64803
115.07366
108.89146
104.77059
101.86538
99.947866
99.03882
98.201204
97.560393
34081.228
28935.893
24393.038
20402.167
16917.865
13898.743
11305.289
9098.939
7241.7483
5696.6885
4427.4966
3398.9381
2577.0072
1929.4749
1426.1484
1038.5177
736.37574
515.07397
329.91649
213.80702
161.18704
137.92828
124.37764
114.94941
108.82157
104.73515
101.8714
99.960214
99.043602
98.1884
97.569101
33276.972
28238.563
23797.091
19900.104
16501.354
13558.687
11032.173
8883.2391
7074.414
5569.2733
4332.3831
3329.4104
2527.2872
1894.7666
1402.4911
1022.7969
725.80083
507.95826
324.5616
211.25749
160.23193
137.4124
124.12109
114.83224
108.75613
104.70139
101.87691
99.973023
99.047149
98.176309
97.579098
32529.105
27592.116
23245.883
19436.567
16117.335
13245.456
10780.721
8684.6723
6920.3368
5451.915
4244.7438
3265.3146
2481.4487
1862.7475
1380.634
1008.2724
716.0354
501.30293
319.53327
208.90956
159.35034
136.92445
123.87803
114.72195
108.69495
104.67018
101.88189
99.986257
99.04842
98.164618
97.58997
31832.477
26992.291
22735.965
19008.797
15763.605
12957.318
10549.597
8502.2317
6778.7667
5344.0598
4164.1976
3206.4263
2439.3029
1833.264
1360.5015
994.87156
707.05387
495.09453
314.82689
206.7548
158.53792
136.46401
123.64808
114.61831
108.63778
104.64223
101.88639
99.999819
99.048578
98.153311
97.601343
31182.495
26435.271
22264.226
18614.283
15438.151
12692.69
10337.595
8335.019
6649.0336
5245.2829
4090.4721
3152.4861
2400.6565
1806.2143
1342.0253
982.55873
698.83147
489.32067
310.4382
204.78509
157.79062
136.03073
123.43088
114.52111
108.58433
104.618
101.89056
100.01353
99.047791
98.142455
97.612511
30574.965
25917.597
21827.854
18250.758
15139.18
12450.134
10143.62
8182.3231
6530.7752
5155.2894
4023.2577
3103.2243
2365.3587
1781.501
1325.1438
971.30964
691.34154
483.96873
306.36285
202.99263
157.10501
135.62427
123.22607
114.43016
108.53432
104.59767
101.89453
100.02714
99.045748
98.132309
97.623822
30006.171
25436.165
21424.291
17916.162
14865.119
12228.544
9966.922
8043.5961
6423.6324
5073.7001
3962.187
3058.458
2333.2705
1759.0353
1309.8019
961.09885
684.56046
479.02544
302.5961
201.37461
156.47339
135.24427
123.03331
114.34529
108.4875
104.5811
101.89837
100.04042
99.043092
98.122691
97.633718
29475.191
24990.159
21052.777
17609.824
14615.366
12027.477
9807.1526
7918.368
6326.779
4999.9692
3906.9815
3017.9935
2304.2664
1738.7371
1295.9501
951.90003
678.47137
474.47871
299.15388
199.90043
155.89003
134.89026
122.85226
114.26636
108.44366
104.56794
101.90213
100.05302
99.040635
98.113964
97.641925
28986.096
24582.516
20715.417
17333.03
14390.349
11846.637
9663.7633
7805.7739
6239.5479
4933.5898
3857.3717
2981.6525
2278.2346
1720.5347
1283.544
943.68689
673.06159
470.32203
296.03027
198.56668
155.35451
134.56158
122.68264
114.19321
108.40269
104.55768
101.9058
100.06458
99.039823
98.106226
97.647779
28542.195
24214.469
20412.01
17084.999
14189.478
11685.147
9535.3464
7704.913
6161.5741
4874.3052
3813.1273
2949.2811
2255.0745
1704.3637
1272.5435
936.43444
668.31807
466.55361
293.21333
197.36712
154.8655
134.25712
122.52416
114.12574
108.36451
104.54969
101.90939
100.07473
99.039988
98.099808
97.650763
28139.013
23881.938
20138.438
16861.813
14009.147
11540.696
9420.6434
7615.2518
6092.445
4821.8527
3774.0552
2920.7451
2234.6967
1690.167
1262.9131
930.11971
664.2285
463.17387
290.69207
196.29742
154.42254
133.97546
122.37655
114.06384
108.32915
104.54334
101.91291
100.08319
99.041892
98.095959
97.650751
27753.067
23569.753
19885.899
16657.953
13845.492
11410.967
9318.8491
7536.1934
6031.7953
4775.9959
3739.9871
2895.927
2217.0225
1677.894
1254.6214
924.72204
660.78744
460.18395
288.45733
195.3538
154.02518
133.71522
122.23952
114.00743
108.29666
104.53805
101.91643
100.0887
99.045391
98.09176
97.64813
27368.697
23265.922
19646.288
16469.322
13697.434
11295.336
9229.2324
7467.2726
5979.3154
4736.5251
3710.7768
2874.7251
2201.9831
1667.5007
1247.6413
920.22312
657.99472
457.58556
286.50136
194.53281
153.67306
133.47533
122.11278
113.95641
108.26715
104.53336
101.92001
100.09128
99.049637
98.085965
97.643644
27004.916
22979.747
19423.244
16296.617
13564.395
11193.263
9151.3229
7408.1272
5934.7455
4703.2585
3686.2991
2857.0526
2189.5196
1658.949
1241.95
916.60706
655.85114
455.37979
284.81728
193.83129
153.36581
133.2551
121.99602
113.91072
108.24071
104.529
101.92379
100.09254
99.05488
98.080295
97.638938
26661.933
22713.149
19218.21
16140.361
13446.257
11104.427
9084.7893
7358.4729
5897.8711
4676.0443
3666.4472
2842.8377
2179.5822
1652.2071
1237.5286
913.86083
654.36041
453.56653
283.39885
193.24661
153.10317
133.05408
121.88891
113.87025
108.21745
104.5249
101.9279
100.09333
99.061301
98.074609
97.61583
26336.715
22465.352
19031.248
16000.735
13343.005
11028.628
9029.3871
7318.0872
5868.5181
4654.7595
3651.135
2832.0209
2172.131
1647.2484
1234.362
911.97396
653.5225
452.14533
282.24016
192.77654
152.88513
132.87193
121.79112
113.83494
108.19747
104.52114
101.93241
100.09388
99.068811
98.068958
97.609053
26027.191
22235.448
18862.011
15877.659
13254.563
10965.716
8984.9323
7286.8006
5846.5472
4639.3079
3640.2966
2824.5571
2167.1346
1644.0521
1232.439
910.93798
653.33226
451.11737
281.33569
192.41912
152.71187
132.70829
121.70236
113.80467
108.18081
104.51787
101.9373
100.0948
99.07798
98.063698
97.603879
25733.505
22023.332
18710.317
15770.991
13180.813
10915.558
8951.2834
7264.49
5831.8469
4629.6187
3633.8877
2820.4153
2164.571
1642.603
1231.7519
910.7472
653.78638
450.48661
280.68047
192.17273
152.58377
132.56289
121.62232
113.77933
108.16752
104.51539
101.94248
100.0965
99.088575
98.058525
97.56676
25457.455
21829.443
18576.149
15680.558
13121.587
10878.02
8928.3286
7251.0726
5824.3482
4625.6352
3631.884
2819.5788
2164.4286
1642.8665
1232.2438
911.37808
654.88184
450.2598
280.27023
192.03599
152.50141
132.43549
121.55073
113.75882
108.15756
104.51396
101.94781
100.09878
99.099424
98.054044
97.546604
25200.633
21653.847
18459.254
15606.026
13076.625
10852.939
8915.9752
7246.4931
5824.0323
4627.1722
3634.0557
2821.8167
2166.6077
1644.8896
1234.0307
912.87105
656.61807
450.41527
280.10101
192.00776
152.46558
132.32591
121.48734
113.74301
108.1509
104.51382
101.95318
100.10189
99.111029
98.050142
97.542133
24962.557
21495.424
18358.73
15546.728
13045.519
10840.113
8914.1896
7250.306
5830.1993
4634.1022
3640.7762
2827.6287
2171.3129
1648.6513
1237.0478
915.20269
658.99443
451.0389
280.15071
192.07155
152.47248
132.23388
121.43189
113.73174
108.14745
104.51457
101.95859
100.10601
99.123494
98.046857
97.540199
24739.862
21351.564
18272.871
15501.608
13027.693
10839.39
8922.1016
7262.13
5843.8196
4647.2522
3652.0458
2836.7702
2178.4613
1654.1581
1241.303
918.37439
662.00916
452.09195
280.46078
192.27379
152.53747
132.15938
121.38407
113.72484
108.1471
104.51743
101.96416
100.11122
99.1362
98.044071
97.538597
24526.58
21218.543
18199.442
15469.363
13022.575
10849.604
8939.681
7283.5434
5865.1008
4666.149
3667.8062
2849.293
2188.0819
1661.4258
1246.8074
922.38907
665.66351
453.59638
281.0173
192.56206
152.6448
132.10193
121.34365
113.72217
108.14879
104.5219
101.97006
100.11752
99.149259
98.041574
97.536911
24315.308
21092.378
18136.319
15448.839
13029.139
10870.965
8968.6383
7314.3392
5893.6865
4690.9243
3688.1337
2865.2571
2200.216
1670.4778
1253.5767
927.2609
669.95507
455.57444
281.79527
192.95795
152.8049
132.06225
121.31089
113.72317
108.15554
104.52756
101.97651
100.12486
99.162597
98.039414
97.535061
24098.609
20969.76
18082.22
15439.794
13047.085
10903.771
9008.8087
7354.1092
5929.7692
4721.7015
3713.1261
2884.7357
2214.915
1681.3437
1261.6285
933.03406
674.8743
458.05344
282.81629
193.464
153.02138
132.04273
121.28697
113.72806
108.16517
104.5347
101.98364
100.1331
99.176136
98.037943
97.533033
23867.852
20847.67
18036.424
15442.318
13076.745
10948.578
9059.1395
7403.0532
5973.49
4758.6119
3742.8898
2907.8104
2232.238
1694.0583
1270.9792
939.73982
680.40432
461.07027
284.11234
194.08697
153.30129
132.0446
121.27292
113.73853
108.17672
104.54309
101.99135
100.14199
99.189861
98.037038
97.530808
23608.927
20720.768
17996.337
15454.392
13116.973
11001.168
9114.2456
7455.4594
6020.0838
4797.908
3774.5961
2932.392
2250.6553
1707.4879
1280.7415
946.67986
685.7709
464.00523
285.26513
194.59745
153.55254
132.05806
121.26583
113.75056
108.18834
104.55097
101.99922
100.15114
99.203536
98.036618
97.528298
131260.32
101890.45
76685.927
59060.327
46372.029
36780.892
29153.117
22896.604
17755.201
13568.591
10201.367
7538.1935
5475.4792
3910.4221
2746.4837
1897.8638
1288.6564
858.1307
556.26473
344.81993
216.54302
160.59717
134.78109
119.89284
111.35667
105.63636
101.90022
99.966139
98.806595
98.703722
98.118533
124614.17
96641.163
73652.365
57416.597
45485.29
36270.108
28831.147
22706.332
17655.628
13527.624
10194.861
7550.8189
5495.2737
3930.2261
2763.0797
1910.3389
1297.3806
863.87508
559.91126
347.36997
217.78305
161.10631
134.99363
119.98816
111.39351
105.63761
101.89152
99.980386
98.800059
98.768172
98.165407
117115.52
91611.333
70618.576
55559.697
44331.174
35543.518
28386.034
22449.198
17522.392
13471.47
10182.866
7560.7523
5513.5028
3949.1983
2779.2795
1922.6517
1306.0461
869.60947
563.54455
349.94082
219.04696
161.62157
135.20657
120.08366
111.42969
105.63875
101.88287
99.995812
98.795064
98.821311
98.215163
110109.34
86868.009
67706.476
53748.987
43186.589
34814.665
27933.686
22183.941
17381.723
13409.335
10166.559
7567.8865
5530.0873
3967.2837
2795.0482
1934.7817
1314.6427
875.3297
567.13056
352.52002
220.33031
162.14392
135.42101
120.17991
111.46565
105.63988
101.87429
100.01211
98.791666
98.875261
98.262785
103546.74
82394.592
64910.036
51979.183
42050.316
34082.853
27474.12
21910.659
17233.693
13341.259
10145.934
7572.1669
5544.9823
3984.4461
2810.3605
1946.7127
1323.1613
881.02792
570.67742
355.10279
221.62819
162.67102
135.63568
120.27603
111.50087
105.64031
101.86537
100.02874
98.789649
98.928456
98.297577
97370.198
78151.711
62215.98
50246.396
40922.061
33348.13
27007.671
21629.652
17078.515
13267.365
10121.038
7573.5599
5558.1615
4000.6583
2825.1958
1958.4309
1331.5931
886.69313
574.18855
357.68587
222.9385
163.20121
135.84953
120.37119
111.53492
105.64005
101.85585
100.04512
98.788665
98.985333
98.312386
91526.369
74103.07
59610.291
48546.794
39801.311
32610.836
26534.856
21341.333
16916.47
13187.816
10091.954
7572.3732
5569.6168
4015.8982
2839.5355
1969.9232
1339.9296
892.315
577.66015
360.2657
224.26074
163.73397
136.06218
120.46503
111.56765
105.63872
101.84565
100.06068
98.788281
99.04525
98.309404
85965.761
70222.448
57081.355
46875.477
38687.66
31871.556
26056.322
21046.18
16747.876
13102.794
10058.76
7568.5061
5579.3298
4030.146
2853.3624
1981.1773
1348.1634
897.88233
581.08682
362.83727
225.59459
164.26908
136.27353
120.55735
111.59905
105.63558
101.83478
100.07482
98.787984
99.099183
98.295919
80660.279
66496.928
54621.77
45231.246
37581.392
31131.296
25572.864
20744.736
16573.081
13012.496
10021.534
7561.5897
5587.2829
4043.3838
2866.6601
1992.1811
1356.2881
903.39022
584.46351
365.39261
226.93938
164.80631
136.48344
120.648
111.62912
105.63094
101.8233
100.08694
98.787202
99.148993
98.264072
75604.148
62929.188
52238.471
43623.545
36486.642
30391.705
25085.42
20437.612
16392.473
12917.141
9980.3784
7551.9176
5593.4699
4055.5958
2879.4134
2002.9233
1364.2978
908.84084
587.78529
367.91654
228.29467
165.3453
136.69177
120.73686
111.65787
105.62464
101.81128
100.09641
98.78533
99.196891
98.224025
70796.543
59517.005
49930.58
42050.864
35404.837
29654.185
24595.004
20125.478
16206.473
12816.969
9935.4098
7539.5281
5597.8868
4066.7685
2891.608
2013.393
1372.1867
914.23601
591.04576
370.47367
229.6604
165.88571
136.89824
120.82379
111.68527
105.61654
101.79879
100.10281
98.78175
99.24185
98.17779
66251.387
56266.28
47702.211
40511.624
34337.522
28920.252
24102.736
19809.064
16015.536
12712.237
9886.7559
7524.4674
5600.5307
4076.8906
2903.2306
2023.5798
1379.9485
919.57494
594.23064
373.02055
231.03666
166.42711
137.10277
120.90874
111.7113
105.60652
101.78589
100.10516
98.775796
99.282673
98.12831
61983.401
53192.394
45567.535
39014.482
33288.113
28191.832
23609.848
19489.155
15820.149
12603.223
9834.5562
7506.7906
5601.3972
4085.954
2914.2691
2033.4737
1387.5767
924.85356
597.31376
375.55475
232.42406
166.96867
137.3048
120.99166
111.73594
105.59451
101.77263
100.10462
98.767476
99.317929
98.078022
57995.772
50299.215
43520.377
37562.5
32259.152
27470.91
23117.633
19166.576
15620.822
12490.221
9778.9611
7486.5644
5600.6753
4093.9582
2924.7125
2043.0652
1395.0651
930.06615
600.33338
378.07027
233.8231
167.51123
137.50467
121.07264
111.75915
105.58045
101.75902
100.10021
98.757384
99.346012
98.028639
54316.601
47597.714
41570.228
36160.328
31253.524
26759.481
22627.416
18842.18
15418.087
12373.538
9720.1304
7463.8555
5598.315
4100.8957
2934.5507
2052.3454
1402.4076
935.20705
603.32655
380.54817
235.23353
168.05019
137.70104
121.1517
111.7809
105.56432
101.74506
100.08814
98.746099