/*--------------------------------*- C++ -*----------------------------------*\
| =========                 |                                                 |
| \\      /  F ield         | OpenFOAM: The Open Source CFD Toolbox           |
|  \\    /   O peration     | Version:  2406                                  |
|   \\  /    A nd           | Website:  www.openfoam.com                      |
|    \\/     M anipulation  |                                                 |
\*---------------------------------------------------------------------------*/
FoamFile
{
    version     2.0;
    format      ascii;
    arch        "LSB;label=32;scalar=64";
    class       volScalarField;
    location    "0.041";
    object      omega;
}
// * * * * * * * * * * * * * * * * * * * * * * * * * * * * * * * * * * * * * //

dimensions      [0 0 -1 0 0 0 0];

internalField   nonuniform List<scalar> 
8260
(
19430.642
16564.492
13867.962
11459.32
9374.9007
7599.6974
6105.2247
4860.5135
3835.1488
2999.415
2325.8019
1789.1855
1366.6639
1037.6149
781.90092
578.8841
399.03291
264.09776
199.0069
165.95442
144.35459
130.50554
121.06213
113.73233
108.85127
105.55901
103.33169
101.60663
100.43816
99.604913
99.164474
16042.842
13819.527
11776.207
9920.9766
8263.7223
6806.607
5544.707
4467.8375
3562.3701
2811.7348
2197.7476
1702.5045
1308.401
998.69907
755.52352
559.33856
382.57078
253.5799
194.71989
163.79942
143.00454
129.64736
120.56124
113.41852
108.68657
105.46733
103.28042
101.57361
100.41705
99.591672
99.156092
13138.759
11501.001
9960.2563
8529.4631
7218.5958
6035.4145
4984.5475
4066.7469
3278.8617
2613.7534
2061.1059
1609.1863
1245.245
956.26092
726.62239
537.80296
365.82811
246.5074
192.38259
162.63975
142.28502
129.17513
120.28872
113.2466
108.59777
105.41754
103.25254
101.55498
100.40237
99.580794
99.146892
10643.7
9475.8124
8338.9522
7253.7477
6233.1111
5288.2383
4428.3259
3659.8554
2985.9936
2406.083
1915.9413
1509.0114
1176.8618
909.918
694.75718
513.59649
347.58414
238.20997
188.95375
160.75181
141.06656
128.3495
119.80219
112.93573
108.4348
105.32407
103.19937
101.5196
100.37846
99.56509
99.136399
8526.7989
7716.5043
6894.883
6089.0206
5310.8113
4571.7759
3882.5288
3252.0362
2686.8611
2190.4598
1763.057
1402.2145
1103.178
859.41518
659.47769
485.91601
327.31991
229.97017
185.75378
159.03959
139.99192
127.64201
119.38792
112.67581
108.29996
105.2466
103.15512
101.49056
100.35673
99.549623
99.124436
6756.9996
6203.9765
5623.0478
5038.2458
4458.7325
3894.2627
3354.6641
2849.1357
2385.4776
1969.3297
1603.7591
1289.3479
1024.2961
804.56127
620.25501
453.99835
305.31162
221.60305
182.06367
156.92914
138.61536
126.70936
118.82854
112.31853
108.11096
105.13675
103.09175
101.44907
100.32764
99.529924
99.110777
5293.2124
4921.7657
4519.825
4105.398
3684.5523
3264.4039
2852.7766
2457.6644
2086.5676
1745.7813
1439.8443
1171.2862
940.49737
745.19532
576.36168
417.17447
282.36694
213.40441
178.3044
154.80479
137.26113
125.80942
118.28711
111.97887
107.93171
105.03187
103.03052
101.4096
100.29825
99.509018
99.095199
4095.6608
3850.6259
3578.6768
3292.1133
2994.4154
2690.1378
2384.7727
2084.4331
1795.3834
1523.4728
1273.591
1049.2347
852.24209
681.123
526.67176
375.04704
259.8403
205.3843
174.17755
152.3766
135.684
124.73814
117.62561
111.5594
107.7052
104.89818
102.95149
101.35897
100.2617
99.483603
99.077451
3127.47
2969.1447
2789.4468
2596.3381
2391.4796
2177.3995
1957.5013
1735.9309
1517.3192
1306.415
1107.6477
924.66036
760.08025
611.93534
469.46905
328.83431
239.51589
197.59019
169.86392
149.8501
134.1036
123.6735
116.95558
111.14346
107.4787
104.76284
102.86967
101.30742
100.22294
99.455679
99.057257
2354.2203
2254.3146
2138.6684
2012.1505
1875.3135
1729.3005
1575.9089
1417.5834
1257.3348
1098.5619
944.75607
799.07846
664.30487
536.56288
402.81187
283.05377
222.578
189.8783
165.21095
147.03197
132.36311
122.4769
116.17203
110.65795
107.20663
104.59806
102.76836
101.24403
100.17609
99.422401
99.03427
1744.3946
1682.916
1610.8858
1530.6646
1442.2428
1345.9482
1242.4925
1133.0342
1019.2215
903.15359
787.19689
673.53478
564.3088
451.40629
328.65174
246.02864
208.83376
182.19117
160.39428
144.08002
130.63118
121.29149
115.36507
110.17346
106.92814
104.42631
102.65991
101.17653
100.12494
99.385251
99.008031
1268.7635
1232.1825
1188.92
1139.9595
1084.9791
1023.7931
956.40022
883.06768
804.43035
721.50927
635.54805
546.95425
455.90977
354.40315
265.14315
222.21865
196.19063
173.93329
155.67275
140.87556
128.71212
120.04191
114.45695
109.63054
106.60198
104.22293
102.52999
101.09459
100.06414
99.341601
98.977908
900.22287
879.59001
854.8048
826.16785
793.18498
755.36805
712.31488
663.76359
609.70251
550.34555
486.07628
415.80283
340.62071
272.42239
229.28879
204.58031
183.59361
166.44769
150.54892
137.8481
126.79199
118.7512
113.57285
109.09044
106.26348
104.0126
102.39184
101.00513
99.997421
99.292698
98.939361
610.48854
598.86519
584.67989
568.13578
548.62247
525.32003
497.827
465.89361
429.36678
387.75531
342.98832
298.96509
260.70558
229.02107
206.89001
187.99858
173.16695
157.76526
145.29749
134.35965
124.93287
117.52478
112.58817
108.50609
105.87416
103.77435
102.23297
100.89914
99.919869
99.235914
98.890675
391.34682
384.54395
376.87985
368.39704
358.16797
345.55147
330.68704
314.14697
295.54244
275.37739
255.20139
235.4126
219.18565
205.28989
188.55074
174.86812
161.58556
150.28636
139.85917
130.94898
122.77109
116.39915
111.71273
107.90179
105.50057
103.53558
102.0632
100.78454
99.834999
99.172493
98.834311
267.80429
264.53766
260.61725
256.47653
251.88905
246.61618
240.37288
233.70721
225.02043
216.72853
208.37999
201.38746
196.06961
185.07701
172.37264
160.37273
152.56498
142.09849
134.2454
126.92718
120.8486
115.18646
110.68582
107.30122
105.08668
103.279
101.86464
100.65262
99.737145
99.10015
98.771954
201.98159
200.78267
199.40513
197.77177
196.10855
194.0858
191.4825
189.02196
186.50239
184.60121
179.41125
173.92177
168.43215
165.05707
158.36506
149.16733
141.52134
135.05386
129.20839
123.37597
118.06137
113.86995
109.7609
106.75462
104.70154
102.99437
101.66562
100.50566
99.627434
99.020899
98.70595
167.78116
166.91271
166.23954
165.57388
165.11612
165.32737
165.2698
163.76377
161.49866
157.36215
155.33537
153.86399
149.78839
145.41282
144.64046
138.29638
133.19596
127.62486
123.90469
119.12143
115.67406
112.47928
108.51247
106.18007
104.26578
102.68326
101.4294
100.33231
99.506393
98.932235
98.634126
148.7757
148.80149
148.6326
148.07341
146.98447
145.09729
142.77054
141.44518
140.7483
140.40642
139.62621
135.4044
133.91038
131.41035
129.63162
129.86411
125.4907
122.0223
118.72431
115.8222
112.93651
110.63644
107.35697
105.55148
103.8394
102.33652
101.17697
100.15734
99.366286
98.836194
98.555181
130.8528
130.67525
130.49708
130.26264
130.03282
130.14864
130.89963
130.97892
130.23055
128.38425
126.17788
125.37441
124.95085
124.27696
121.00943
119.87215
119.13028
117.00077
114.51185
111.58697
110.30134
109.05133
106.12053
104.71801
103.32942
101.99407
100.87658
99.94218
99.214512
98.731545
98.471855
121.51256
121.62975
121.62176
121.478
121.14737
120.54012
119.37709
118.70476
118.34296
118.17373
118.61292
118.55985
116.43868
116.41337
115.58386
114.51236
112.39107
112.06649
111.00113
108.90206
108.014
106.76615
105.27341
103.86086
102.75959
101.58153
100.56404
99.727003
99.053531
98.620413
98.386365
112.45597
112.47413
112.4481
112.3666
112.26071
112.17589
112.32655
112.62423
112.52569
112.17161
111.48211
110.94422
111.61204
110.37568
110.46886
108.68157
109.01404
107.35969
107.12836
106.50938
105.51393
104.71209
104.13073
102.97962
102.06651
101.14159
100.1845
99.461955
98.89453
98.502495
98.295705
107.87942
107.97668
107.99647
107.95199
107.85056
107.69235
107.42303
106.94231
106.80519
106.75731
106.70131
106.83301
106.57421
106.6151
106.3302
105.53473
105.31164
104.89618
104.29568
103.96805
103.91923
102.84379
102.73586
102.05701
101.38084
100.58856
99.794373
99.224895
98.721822
98.385678
98.207984
103.5258
103.57035
103.57792
103.56111
103.53897
103.5219
103.53113
103.72154
103.87363
103.94892
103.99047
103.92602
103.89308
103.86966
103.30676
103.49556
102.78667
102.20538
102.45988
102.46274
102.29654
101.83116
101.36163
101.13419
100.48247
99.976126
99.382946
98.949735
98.552448
98.274037
98.122959
101.41831
101.47278
101.4924
101.48726
101.47035
101.43571
101.36615
101.23764
101.18514
101.18216
101.19822
101.23558
101.26097
101.24961
101.46001
101.15703
101.42815
101.13985
101.35255
101.59124
101.23769
101.00644
100.34584
99.96833
99.664021
99.440184
99.020201
98.715188
98.410788
98.171845
98.052733
99.707332
99.73013
99.736944
99.736796
99.73992
99.748783
99.761415
99.776048
99.805617
99.8459
99.897022
99.934717
99.922324
99.823741
99.800159
99.843865
99.911222
100.11541
99.997304
99.763045
99.791991
99.697326
99.595368
99.334544
99.15337
98.964841
98.758438
98.505064
98.286873
98.102928
98.00792
98.959854
98.979825
98.986463
98.98483
98.980133
98.974018
98.968833
98.969544
98.976251
98.984523
98.991171
98.997959
99.014176
99.044907
99.100155
99.136069
99.19305
99.163124
99.146898
99.033424
99.059935
98.986463
99.004255
98.977461
98.84577
98.719443
98.595554
98.390886
98.214308
98.065094
97.984058
98.469109
98.47718
98.480198
98.482
98.485935
98.493082
98.503922
98.519245
98.54006
98.567047
98.600198
98.642059
98.696589
98.750373
98.783769
98.780212
98.757886
98.760946
98.748024
98.740751
98.773608
98.737652
98.739444
98.70874
98.680697
98.573704
98.456079
98.318101
98.173753
98.050567
97.971239
98.257703
98.262281
98.265059
98.268325
98.274058
98.283121
98.296112
98.31369
98.336324
98.363566
98.392857
98.423477
98.45153
98.470693
98.482972
98.495766
98.517389
98.521866
98.543947
98.558988
98.624155
98.607166
98.597078
98.540807
98.532954
98.465761
98.382757
98.279582
98.159913
98.069547
98.027409
98.167809
98.17149
98.174911
98.179339
98.185763
98.194725
98.20667
98.22208
98.24136
98.264361
98.288984
98.317034
98.345167
98.36548
98.374958
98.381311
98.392136
98.396956
98.411437
98.416116
98.453009
98.45115
98.448223
98.466003
98.45523
98.42032
98.355312
98.272426
98.222193
98.178982
98.131747
98.276001
98.275555
98.2754
98.275307
98.275073
98.274478
98.273326
98.271671
98.270252
98.271624
98.282424
98.305149
98.331128
98.343401
98.34722
98.351075
98.358644
98.36282
98.374466
98.376359
98.402621
98.411222
98.404335
98.444061
98.436537
98.426319
98.391935
98.362252
98.344653
98.309713
98.304973
106615.11
89962.035
70700.242
54363.971
41502.016
31303.352
23327.362
17250.156
12665.291
9213.2809
6637.1197
4739.0539
3357.058
2361.277
1650.2923
1145.7753
787.03308
526.83864
343.64451
231.86409
177.21551
149.64843
132.58533
120.86858
112.70022
107.75755
104.53141
102.42684
100.97309
99.980236
99.462881
93716.214
70635.067
54146.561
42319.515
32930.209
25368.303
19376.906
14636.328
10921.61
8051.1069
5870.3451
4239.002
3034.5658
2155.4985
1520.2711
1064.1494
735.31389
493.54325
322.33277
220.25832
172.09825
147.18655
131.16851
120.04366
112.24586
107.51535
104.40476
102.35822
100.93604
99.959722
99.454814
74982.755
59529.022
47662.241
37715.907
29369.287
22576.881
17190.914
12977.554
9707.0995
7191.6905
5278.7893
3840.5574
2771.0129
1983.9456
1410.1771
994.20294
690.75365
465.2075
305.74626
213.42688
169.69838
146.03193
130.49038
119.64692
112.02495
107.39135
104.33776
102.31753
100.91173
99.943414
99.444641
66021.349
53144.341
42201.462
33123.504
25776.029
19904.485
15247.428
11576.062
8705.9181
6487.1862
4791.3082
3508.9095
2549.1197
1837.8781
1315.4639
933.46079
651.76923
440.56072
291.06967
206.33105
166.43637
144.28234
129.4161
119.01001
111.67181
107.1953
104.23378
102.25893
100.87918
99.924369
99.43346
58802.802
46850.997
37113.936
29235.607
22870.703
17750.31
13658.378
10415.338
7871.3019
5896.949
4380.5463
3227.5325
2359.4125
1712.0015
1233.1979
880.24098
617.34681
418.4027
277.73397
200.45603
164.11378
143.0766
128.68873
118.58817
111.44273
107.06573
104.16409
102.21631
100.8539
99.907634
99.421945
52297.966
41719.949
33144.186
26170.401
20520.062
15970.185
12329.609
9439.9897
7167.4462
5397.0281
4030.8378
2986.5772
2195.9307
1602.8148
1161.3538
833.32403
586.78355
398.09169
265.71601
195.18828
161.68239
141.68952
127.81558
118.06671
111.1542
106.90225
104.07661
102.16475
100.82447
99.889478
99.410176
47244.116
37666.131
29905.2
23623.273
18554.073
14476.273
11212.037
8617.4273
6571.4232
4971.6245
3731.6801
2779.3069
2054.4962
1507.7995
1098.4368
791.89316
559.52637
379.55656
254.97687
190.65071
159.66784
140.56327
127.12107
117.66109
110.93593
106.77733
104.00931
102.1225
100.79927
99.872662
99.398246
43159.343
34295.499
27198.632
21497.722
16911.347
13224.021
10272.046
7922.6727
6065.6351
4608.812
3475.2124
2600.6721
1931.9514
1425.0287
1043.291
755.35118
535.1547
362.70402
245.46355
186.67506
157.7259
139.41082
126.3894
117.22193
110.69492
106.63873
103.93469
102.07631
100.77218
99.855174
99.386177
39658.22
31461.211
24942.66
19725.693
15536.368
12172.548
9480.0902
7335.0423
5635.9574
4299.139
3255.2332
2446.689
1825.7967
1352.9738
995.07739
723.15608
513.60372
347.44811
237.11111
183.22232
156.01451
138.40529
125.76252
116.85074
110.49606
106.52391
103.87266
102.03585
100.74767
99.838515
99.373993
36782.902
29115.976
23065.397
18244.1
14383.01
11288.539
8812.3983
6837.9088
5271.0038
4034.968
3066.7221
2314.1245
1733.9967
1290.3856
953.08754
694.89922
494.25676
333.67993
229.84107
180.20429
154.41054
137.43094
125.14526
116.47642
110.29237
106.40587
103.80881
101.99415
100.72248
99.82161
99.3617
34332.416
27138.591
21487.32
16999.557
13414.531
10545.382
8249.8448
6417.8109
4961.5111
3810.0597
2905.562
2200.3154
1654.8624
1236.2225
916.63839
670.21089
476.98475
321.32267
223.56533
177.56865
152.96196
136.55597
124.5997
116.14661
110.11609
106.30379
103.75347
101.9563
100.69897
99.805266
99.349306
32263.972
25472.943
20160.663
15954.645
12602.267
9921.6075
7776.9598
6063.8025
4699.9159
3619.2942
2768.3571
2103.0487
1586.9773
1189.6646
885.16446
648.81908
461.64837
310.30863
218.19638
175.26294
151.62205
135.73261
124.08339
115.82736
109.9436
106.20377
103.69911
101.91866
100.67541
99.788915
99.336815
30496.532
24063.346
19044.143
15078.626
11922.259
9399.7385
7381.1289
5766.9917
4480.048
3458.4695
2652.3021
2020.4858
1529.1923
1149.8879
858.13918
630.45779
448.0957
300.5856
213.64614
173.2503
150.40564
134.9873
123.62306
115.54082
109.7908
106.11551
103.651
101.88391
100.65304
99.77299
99.32423
28985.091
22869.87
18105.549
14346.298
11355.863
8965.9184
7052.1296
5520.1496
4296.9271
3324.2276
2555.1505
1951.229
1480.5076
1116.1786
835.1406
614.81827
436.19692
292.10823
209.83202
171.50037
149.29525
134.29946
123.1994
115.27077
109.64596
106.03188
103.60519
101.85016
100.63095
99.757186
99.311557
27698.462
21865.394
17323.081
13740.055
10889.502
8609.7969
6782.4271
5317.9046
4146.7721
3214.1283
2475.2549
1894.0277
1440.1028
1088.1012
815.92481
601.57486
425.81308
284.82772
206.67973
169.99246
148.29677
133.67848
122.8234
115.02738
109.51683
105.95766
103.5643
101.8188
100.60981
99.741759
99.298775
26636.835
21043.21
16688.005
13251.202
10515.101
8324.9335
6567.1721
5156.7032
4026.8873
3125.8675
2411.0175
1847.7667
1407.3342
1065.2558
800.26463
590.65968
416.85309
278.71675
204.10621
168.7112
147.40507
133.11466
122.48585
114.80299
109.39766
105.88916
103.52625
101.78886
100.58918
99.726563
99.285849
25799.161
20399.871
16193.599
12872.328
10225.987
8105.4426
6401.4689
5032.3288
3934.2343
3057.2481
2360.8957
1811.6367
1381.6633
1047.3107
787.95423
582.08768
409.34181
273.72912
201.99615
167.64596
146.62398
132.61044
122.19059
114.60219
109.29215
105.8286
103.49229
101.76106
100.56937
99.711702
99.272782
25018.771
19842.093
15786.882
12572.583
10003.592
7939.829
6277.989
4940.1189
3865.8566
3006.8096
2323.9953
1784.989
1362.6786
1034.0033
778.81402
575.74219
403.31794
269.74986
200.34715
166.78917
145.95316
132.16083
121.93268
114.42145
109.19751
105.77404
103.46131
101.73493
100.55017
99.697104
99.25958
24214.151
19297.349
15415.816
12318.007
9827.2424
7816.2098
6190.3189
4877.2092
3820.1375
2973.41
2299.6342
1767.3579
1350.0779
1025.1406
772.70852
571.5381
398.80621
266.71576
199.11878
166.13515
145.39553
131.76646
121.7129
114.26296
109.11551
105.72643
103.43393
101.71085
100.53176
99.682824
99.246251
23553.654
18855.684
15122.558
12125.575
9702.1442
7735.0702
6137.3719
4841.9749
3795.9886
2956.3412
2287.332
1758.4411
1343.6668
1020.5928
769.54953
569.39467
395.82765
264.57073
198.29538
165.68118
144.95338
131.42654
121.52889
114.12559
109.04498
105.68485
103.40962
101.68861
100.51404
99.668816
99.232809
22968.204
18494.703
14903.177
11996.121
9629.1488
7696.434
6118.7612
4833.8737
3792.8898
2955.2491
2286.8619
1758.0927
1343.3364
1020.3046
769.30288
569.24613
394.40946
263.27614
197.86376
165.42977
144.6321
131.1444
121.38137
114.01096
108.98692
105.64974
103.38866
101.66839
100.4971
99.655083
99.219273
22444.488
18199.37
14749.004
11926.031
9607.5063
7699.652
6132.017
4849.7674
3807.796
2968.3076
2297.5237
1766.1353
1349.069
1024.2805
771.98378
571.09243
394.53992
262.83123
197.83051
165.38807
144.43737
130.92326
121.26962
113.91874
108.94062
105.62047
103.37063
101.64999
100.48082
99.641549
99.205638
21955.397
17953.076
14650.628
11910.819
9631.66
7739.1047
6175.0784
4891.1534
3844.6088
2998.3029
2320.4975
1782.9674
1360.9526
1032.5678
777.65234
575.00311
396.19983
263.10951
198.04911
165.48499
144.36911
130.76364
121.19145
113.84801
108.90544
105.59655
103.35526
101.63326
100.46509
99.628168
99.191891
21451.214
17726.041
14589.021
11936.278
9694.9165
7813.9759
6247.5361
4954.2582
3896.2163
3038.6162
2350.7106
1804.8059
1376.2492
1043.1022
784.72691
579.82007
398.91572
264.05934
198.6016
165.7404
144.39001
130.65667
121.13915
113.79434
108.87873
105.57654
103.34179
101.61794
100.44983
99.614943
99.178042
103926.6
87804.558
69587.221
54026.945
41711.069
31968.298
24133.345
17979.567
13240.797
9650.5502
6958.06
4967.2468
3514.6739
2467.2955
1719.8683
1190.4001
815.05073
543.70255
353.25037
236.12122
178.82093
150.41505
133.05744
121.14832
112.85896
107.85439
104.58368
102.45827
100.99182
99.992906
99.466097
98542.766
83511.236
67036.422
52810.089
41182.234
31712.912
24052.886
17999.043
13317.215
9741.9433
7043.4525
5037.9367
3568.9399
2506.7337
1747.2848
1208.7114
826.98154
551.26484
358.19112
238.58346
179.78545
150.88152
133.35847
121.3318
112.96739
107.91613
104.6178
102.47913
101.00479
100.00206
99.469115
93294.49
79482.524
64292.861
51210.466
40312.12
31295.96
23912.01
18001.924
13387.019
9831.5923
7129.8628
5110.8305
3625.6114
2548.2976
1776.3699
1228.2304
839.71285
559.31493
363.47034
241.25174
180.82694
151.37624
133.66933
121.51724
113.07456
107.98792
104.65591
102.50202
101.01837
100.01144
99.474073
88313.078
75757.503
61661.589
49598.54
39405.716
30844.992
23744.417
17992.314
13448.424
9918.1099
7216.4356
5185.4776
3684.5063
2591.9507
1807.1525
1249.0091
853.27368
567.92978
369.07612
244.1337
181.92753
151.88449
134.00283
121.72613
113.20336
108.05326
104.69375
102.52539
101.03331
100.02184
99.480789
83533.145
72266.279
59129.803
47979.067
38461.607
30356.006
23546.769
17964.014
13499.11
9999.9615
7302.2357
5261.3909
3745.4231
2637.6478
1839.6589
1271.0995
867.68319
577.14833
374.95743
247.26191
183.16587
152.4468
134.3419
121.92935
113.32179
108.13858
104.73873
102.55221
101.04904
100.03279
99.486221
78845.738
69021.342
56740.07
46379.345
37490.114
29830.152
23316.21
17909.24
13535.938
10075.207
7386.0807
5337.9345
3808.076
2685.2965
1873.8897
1294.5384
883.01677
587.01683
380.97024
250.53377
184.42872
153.01798
134.72136
122.17034
113.47333
108.22312
104.78529
102.58031
101.066
100.04445
99.489034
74236.338
65843.681
54396.7
44752.744
36463.428
29249.765
23041.922
17824.577
13554.349
10141.476
7466.7257
5414.4905
3872.2109
2734.8437
1909.8923
1319.4174
899.49237
597.67731
387.48184
254.08784
185.79766
153.60919
135.09693
122.41125
113.62424
108.31281
104.83514
102.61033
101.08393
100.05679
99.492832
69763.949
62718.774
52128.332
43134.347
35405.503
28628.382
22730.631
17712.16
13552.76
10198.478
7543.8307
5490.8159
3937.743
2786.3363
1947.7976
1345.89
917.08427
609.09324
394.70916
257.89401
187.26071
154.22349
135.48487
122.66299
113.7849
108.40809
104.88801
102.64222
101.10292
100.06983
99.500923
65465.127
59627.037
49889.241
41501.213
34302.991
27955.286
22373.596
17566.279
13535.868
10243.444
7615.2153
5565.6101
4003.9835
2839.4371
1987.4407
1373.8521
935.82363
621.33397
402.43476
261.96509
188.82365
154.85303
135.88176
122.9292
113.95692
108.50929
104.94489
102.67647
101.12294
100.0835
99.513648
61303.822
56521.032
47671.457
39855.187
33156.021
27228.007
21967.271
17382.85
13492.645
10273.588
7679.1672
5637.8301
4070.3717
2893.9007
2028.7486
1403.3085
955.73906
634.52048
410.71653
266.32505
190.49578
155.50372
136.28903
123.20555
114.13748
108.61588
105.00479
102.71273
101.14411
100.09789
99.525109
57373.121
53318.655
45372.394
38157.034
31952.634
26441.641
21507.757
17157.286
13416.937
10283.397
7733.5645
5706.3
4136.2544
2949.4141
2071.612
1434.251
976.85282
648.60429
419.65477
271.00912
192.28248
156.1714
136.70419
123.49789
114.33397
108.7308
105.07005
102.75198
101.16638
100.11291
99.535399
53639.199
50124.874
43031.589
36413.771
30693.941
25595.295
20992.684
16886.637
13309.515
10275.519
7776.8906
5769.7799
4200.8978
3005.6066
2115.8831
1466.6535
999.1844
663.54959
428.93041
275.99023
194.20034
156.84664
137.11865
123.79835
114.53317
108.84882
105.13774
102.79311
101.18986
100.12876
99.545701
50044.489
46866.382
40622.803
34617.621
29378.615
24688.754
20421.129
16569.281
13168.812
10249.037
7807.7228
5827.0158
4263.4999
3062.0476
2161.3743
1500.4679
1022.7486
679.40174
438.52749
281.31056
196.23724
157.56442
137.55491
124.1144
114.75802
108.98094
105.21303
102.83812
101.21455
100.14532
99.55727
46546.011
43514.476
38086.807
32733.187
27996.335
23721.063
19793.487
16204.617
12991.952
10193.536
7822.9789
5876.6134
4323.2093
3118.2565
2207.8575
1535.6215
1047.5497
696.18585
448.71331
286.99392
198.43082
158.25415
137.95077
124.43327
114.97279
109.10957
105.28911
102.88426
101.24046
100.16277
99.569641
43111.024
40179.054
35495.92
30797.593
26565.721
22702.929
19115.588
15794.945
12778.942
10112.118
7820.4451
5917.1805
4379.1498
3173.7187
2255.0747
1572.0187
1073.5786
713.91621
459.51548
293.07142
200.75991
159.03865
138.41995
124.77019
115.22912
109.26362
105.37624
102.93549
101.26795
100.18088
99.58248
39722.324
36912.601
32904.024
28849.499
25113.064
21651.357
18397.887
15345.864
12532.273
10006.295
7806.1358
5948.5198
4430.5804
3227.9116
2302.7486
1609.5461
1100.8158
732.59216
471.08662
299.4543
203.30086
159.79371
138.77348
125.09123
115.45896
109.4019
105.46152
102.9864
101.29655
100.1997
99.595604
36407.565
33799.83
30401.463
26937.522
23668.27
20588.484
17655.553
14866.547
12256.645
9877.0599
7773.0471
5969.6931
4476.8705
3280.3296
2350.5707
1648.0775
1129.2557
752.23919
483.52433
306.56652
205.98477
160.58203
139.25814
125.45132
115.743
109.58073
105.56166
103.04381
101.32738
100.21919
99.608939
33298.639
30962.219
28098.892
25136.753
22279.389
19545.281
16909.054
14369.802
11959.131
9727.3108
7723.1208
5980.4356
4517.5594
3330.527
2398.2394
1687.4754
1158.9012
772.98628
497.01014
314.19618
208.99679
161.6176
139.61977
125.75288
115.99858
109.73087
105.65796
103.09922
101.35906
100.23908
99.622428
30524.968
28488.468
26055.404
23502.649
20991.849
18555.612
16181.88
13870.982
11648.866
9561.7777
7659.0482
5979.4798
4552.1475
3378.101
2445.4492
1727.5645
1189.6565
794.88157
511.44512
321.82068
212.06659
162.25904
140.00294
126.12254
116.28869
109.92784
105.76967
103.1623
101.3937
100.2599
99.636027
28146.673
26403.965
24314.846
22081.38
19843.742
17649.07
15496.822
13386.246
11336.239
9386.565
7584.586
5972.824
4581.1795
3422.7931
2491.8966
1768.1324
1221.3891
817.77631
526.72752
330.13492
215.73923
163.65558
140.50267
126.43362
116.59666
110.10269
105.88141
103.22352
101.42877
100.28039
99.649581
26177.977
24700.127
22888.75
20898.845
18864.538
16852.154
14874.784
12931.069
11031.8
9208.1388
7502.6555
5957.4923
4604.6881
3464.4163
2537.2843
1808.9346
1253.9746
841.65143
542.89297
339.25965
219.5118
164.62465
140.74696
126.71417
116.85344
110.29684
105.9994
103.29128
101.46664
100.30224
99.662962
24564.239
23324.452
21749.504
19955.029
18070.625
16186.09
14334.696
12519.696
10745.335
9032.5387
7416.2089
5935.0183
4622.7664
3502.7109
2581.3016
1849.737
1287.2731
866.45355
559.89901
349.00742
223.82576
165.61807
141.21643
127.12759
117.2279
110.52229
106.13485
103.36199
101.50506
100.3228
99.67596
23198.78
22179.642
20825.271
19211.574
17453.453
15658.354
13888.735
12163.468
10485.169
8865.065
7328.3058
5907.6779
4635.7871
3537.4511
2623.5854
1890.2489
1321.1191
892.12236
577.73812
359.2068
229.03213
167.93029
141.72984
127.30162
117.4482
110.69987
106.25516
103.43134
101.54388
100.34521
99.688375
21979.199
21159.669
20016.214
18586.63
16959.61
15245.756
13533.203
11866.083
10256.02
8709.155
7240.8396
5876.0386
4643.5791
3568.2204
2663.6511
1930.0835
1355.3024
918.59434
596.50061
370.29514
234.1327
169.38924
141.9894
127.62879
117.80517
110.97567
106.42073
103.51256
101.58582
100.36555
99.699838
20821.247
20177.854
19229.348
17985.362
16504.997
14887.351
13234.024
11613.063
10053.147
8563.4252
7152.9017
5838.5682
4643.41
3593.6495
2700.6771
1968.7308
1389.5492
945.78759
616.18836
382.72937
239.80189
171.06661
142.58524
127.97992
118.10138
111.18407
106.55288
103.57907
101.62373
100.38701
99.710063
19633.817
19146.635
18378.237
17319.242
16003.513
14510.373
12939.069
11372.894
9860.1375
8419.9995
7060.9251
5794.3621
4638.3397
3613.6584
2734.0411
2005.601
1423.4592
973.53058
636.88736
396.32392
246.45204
173.40075
143.10986
128.08367
118.28795
111.423
106.72648
103.66359
101.66898
100.40666
99.718587
18349.432
17992.908
17391.22
16516.655
15380.607
14040.782
12584.537
11099.49
9648.4241
8263.122
6956.667
5738.7531
4623.5145
3625.1722
2762.0105
2039.7845
1456.5688
1001.5497
658.35361
410.83134
253.75238
175.61769
143.41518
128.3763
118.69028
111.74033
106.88913
103.74075
101.70646
100.42375
99.725001
16983.037
16709.533
16234.536
15526.159
14576.856
13416.212
12111.794
10745.586
9385.2771
8072.6313
6828.269
5663.9092
4591.5444
3624.5875
2782.9455
2070.2882
1488.2885
1029.5357
680.45901
426.27175
261.8073
178.50819
144.22606
128.79593
118.89695
111.90351
107.02482
103.81854
101.74642
100.44181
99.728733
15551.681
15331.641
14949.404
14373.749
13591.733
12617.334
11493.357
10281.349
9044.9217
7830.1018
6664.4951
5564.4254
4543.4122
3616.0192
2796.9294
2096.376
1517.9726
1057.1015
702.9712
442.4255
270.08992
181.59569
145.01494
128.84238
119.03185
112.20849
107.21531
103.91899
101.78601
100.45284
99.729198
14093.492
13905.733
13593.361
13128.404
12494.964
11695.35
10754.104
9714.2128
8625.1121
7530.1758
6460.3248
5436.3647
4474.7823
3591.7789
2799.189
2116.4948
1544.9048
1083.8226
725.64142
459.17734
278.92544
184.74025
145.69476
128.95877
119.46961
112.44177
107.34145
103.99009
101.81866
100.46547
99.725839
12690.059
12523.275
12263.624
11887.699
11379.643
10734.638
9963.4031
9091.4196
8153.9544
7187.5927
6222.7431
5282.7696
4386.7155
3552.1355
2795.1289
2131.2971
1568.7959
1109.3407
748.20953
476.39478
288.58814
188.12463
146.63974
129.39988
119.58743
112.51074
107.47746
104.06752
101.85155
100.47045
99.717867
11428.809
11276.997
11056.23
10748.091
10338.414
9819.0361
9191.1238
8467.1361
7670.0988
6827.7509
5967.4186
5112.9404
4284.854
3502.09
2782.7981
2140.7186
1589.5594
1133.426
770.4156
493.85443
298.83731
191.75347
147.72004
129.66045
119.67166
112.72542
107.64946
104.1479
101.88461
100.46967
99.704924
10379.962
10238.895
10044.852
9783.97
9444.2034
9016.4221
8497.1889
7891.6109
7212.87
6479.9498
5715.0878
4940.6758
4177.6456
3445.5201
2762.7464
2145.4642
1607.5032
1156.0892
792.14982
511.42267
309.63097
195.59663
148.86661
129.88256
119.9363
112.84187
107.69945
104.19313
101.897
100.46439
99.685981
9574.0661
9440.3321
9263.5024
9033.6435
8740.7728
8376.1238
7934.3124
7415.2462
6825.4453
6178.1711
5491.191
4784.2264
4077.4367
3390.4065
2741.653
2148.0824
1623.7268
1177.7713
813.59872
529.23334
321.19488
200.08055
150.24816
130.39178
119.97703
112.821
107.72097
104.20942
101.89595
100.45441
99.661111
9008.1026
8883.1484
8719.978
8511.3869
8248.9165
7924.7182
7532.8043
7070.7537
6541.2841
5953.2571
5321.1961
4663.3484
3999.1124
3347.5331
2726.5609
2152.6818
1640.1483
1199.3237
835.20268
547.58214
333.84788
205.08728
152.00192
130.91959
119.92909
112.78358
107.7292
104.20058
101.88787
100.43195
99.629222
8585.3815
8476.762
8333.309
8148.4514
7914.0289
7622.3441
7267.1341
6844.937
6356.6829
5808.8566
5213.799
4588.3944
3952.0105
3324.1511
2723.0867
2162.0136
1658.3176
1221.5303
857.24409
566.56571
347.61584
210.95662
153.64098
131.11718
119.86078
112.65551
107.67845
104.16483
101.8614
100.40042
99.59068
8183.7528
8097.6093
7981.2296
7828.0068
7629.3787
7376.4318
7061.4087
6679.2942
6229.3173
5716.1037
5150.4733
4548.8433
3931.1125
3317.5536
2726.6611
2176.5696
1678.9643
1244.5563
879.56942
585.81014
361.9068
217.12732
154.75097
131.109
119.7222
112.33767
107.58834
104.11481
101.81664
100.36665
99.545447
7734.1582
7671.0906
7582.3514
7461.3346
7300.1007
7089.9926
6822.2676
6489.4339
6087.2736
5617.2158
5087.5534
4513.3779
3914.7364
3314.5726
2736.3362
2194.2734
1700.8309
1267.6429
901.49707
604.5086
375.64649
222.77349
155.34771
130.96323
119.32265
112.07309
107.40145
103.97256
101.74695
100.30579
99.493277
7224.9999
7181.0493
7116.3238
7024.0998
6896.7842
6725.9721
6503.0196
6220.0299
5871.3949
5455.4876
4976.4047
4445.2364
3879.668
3301.8457
2736.1272
2205.7893
1719.916
1289.5027
922.58267
622.61173
388.92962
228.28552
155.73443
130.54583
118.76926
111.73344
107.10246
103.82519
101.6659
100.23635
99.436202
6683.5925
6648.8768
6597.8031
6524.4496
6422.203
6283.4462
6099.9465
5863.6286
5567.8576
5209.1198
4788.7767
4314.38
3800.0265
3263.5349
2723.2561
2205.3802
1731.9268
1307.8214
942.51687
640.70285
402.89378
234.92648
156.40238
130.32421
118.41415
111.41573
106.85002
103.68656
101.57896
100.17735