/*--------------------------------*- C++ -*----------------------------------*\
| =========                 |                                                 |
| \\      /  F ield         | OpenFOAM: The Open Source CFD Toolbox           |
|  \\    /   O peration     | Version:  2406                                  |
|   \\  /    A nd           | Website:  www.openfoam.com                      |
|    \\/     M anipulation  |                                                 |
\*---------------------------------------------------------------------------*/
FoamFile
{
    version     2.0;
    format      ascii;
    arch        "LSB;label=32;scalar=64";
    class       volScalarField;
    location    "0.002";
    object      omega;
}
// * * * * * * * * * * * * * * * * * * * * * * * * * * * * * * * * * * * * * //

dimensions      [0 0 -1 0 0 0 0];

internalField   nonuniform List<scalar> 
92813
(
21595.333
19590.98
17764.562
16125.048
14658.193
13344.918
12167.013
11108.377
10154.971
9294.5857
8516.6449
7811.9818
7172.6547
6591.7502
6063.1673
5581.4049
5141.7535
4740.18
4372.9747
4036.8377
3728.8446
3446.4078
3187.2049
2949.1426
2730.3392
2529.102
2343.9053
2173.3728
2016.2603
1871.4418
1737.8954
1614.6924
1500.9857
1396.0003
1299.0231
1209.3936
1126.4962
1049.7488
978.57911
912.42617
850.77427
793.04641
738.59872
686.74207
636.69592
587.5958
538.50551
488.89419
438.99073
390.78285
348.04411
314.01623
288.93844
270.49556
256.0813
244.03414
233.4396
223.85629
215.09028
207.0348
199.60967
192.77246
186.48037
180.67033
175.30011
170.34178
165.72963
161.43011
157.42597
153.66899
150.15832
146.88809
143.83388
140.99468
138.36247
135.92379
133.66087
131.56037
129.60317
127.77329
126.06198
124.45466
122.9414
121.51714
120.17368
118.9031
117.70151
116.56588
115.49433
114.48648
113.54193
112.6594
111.83664
111.0682
110.34953
109.67381
109.03343
108.42539
107.84168
107.27883
106.73161
106.19768
105.67792
105.17241
104.68507
104.21646
103.77222
103.35898
102.97808
102.63838
102.36178
102.15426
102.01778
101.94941
101.94043
101.97213
102.02061
102.05702
102.05245
101.99217
101.86624
101.68292
101.45554
101.17915
100.84811
100.5553
100.21737
18966.137
17290.167
15784.411
14427.544
13202.051
12092.998
11087.668
10175.091
9345.6449
8590.8375
7903.1646
7275.9739
6703.358
6180.0538
5701.3389
5262.955
4861.1217
4492.4799
4153.9918
3842.9305
3556.8641
3293.6278
3051.2727
2828.0269
2622.2799
2432.5687
2257.564
2096.0576
1946.9503
1809.2406
1682.0144
1564.436
1455.7387
1355.2168
1262.2169
1176.129
1096.3799
1022.4239
953.71533
889.69525
829.86513
773.67242
720.43686
669.45203
619.90841
570.93329
521.70267
471.83727
422.04586
374.9894
334.77706
304.00619
281.72866
265.14593
251.87268
240.51005
230.36478
221.11464
212.62229
204.80595
197.58966
190.9354
184.81056
179.15149
173.91341
169.07924
164.58666
160.39784
156.49455
152.82945
149.40399
146.21098
143.22277
140.44205
137.86292
135.47243
133.25188
131.19062
129.26996
127.47199
125.78976
124.20941
122.72022
121.31729
119.99359
118.74095
117.55563
116.43495
115.37663
114.38027
113.4461
112.57313
111.75941
110.99969
110.28985
109.62318
108.99169
108.39036
107.8128
107.25545
106.71336
106.18416
105.66801
105.16554
104.67934
104.21143
103.76745
103.35342
102.97033
102.62743
102.34604
102.13508
101.99546
101.92516
101.91447
101.94561
101.99468
102.0322
102.02984
101.97258
101.85136
101.67314
101.45062
101.17804
100.85205
100.56064
100.22655
16709.579
15336.097
14090.003
12957.017
11924.338
10981.272
10118.849
9329.3709
8606.078
7942.9585
7334.6283
6776.2378
6263.4011
5792.1364
5358.813
4960.1178
4593.0443
4254.8679
3943.1171
3655.5491
3390.1525
3145.1267
2918.8315
2709.7684
2516.5646
2337.9627
2172.8109
2020.0544
1878.7268
1747.9417
1626.8852
1514.8082
1411.0193
1314.8778
1225.7864
1143.1831
1066.5338
995.32528
929.02903
867.11089
809.08284
754.3845
702.32034
652.173
603.117
554.30214
505.03019
455.21421
406.17645
361.25518
324.39419
296.93428
276.97082
261.71834
249.17586
238.253
228.41467
219.40411
211.11188
203.46997
196.40459
189.87896
183.86868
178.3116
173.16033
168.40453
163.98571
159.86341
156.0193
152.40377
149.02323
145.87073
142.91693
140.16662
137.61489
135.249
133.04986
131.00835
129.10603
127.32397
125.65615
124.0892
122.61197
121.21956
119.90562
118.66185
117.48458
116.37131
115.31959
114.32896
113.39991
112.53162
111.72226
110.96669
110.26102
109.59862
108.97135
108.37398
107.80026
107.24637
106.70741
106.18074
105.66648
105.16599
104.68117
104.21337
103.76809
103.35288
102.96786
102.62236
102.33577
102.11889
101.97403
101.89914
101.88563
101.91524
101.96465
102.00386
102.00418
101.95083
101.83519
101.66276
101.44569
101.17723
100.85664
100.56689
100.23585
14760.578
13637.661
12606.224
11658.245
10785.761
9981.8523
9240.5576
8556.6458
7925.4487
7342.7534
6804.7268
6307.8595
5848.9224
5424.9328
5033.128
4670.9488
4336.0325
4026.2057
3739.4773
3474.0183
3228.1758
3000.4617
2789.5032
2594.0388
2412.9052
2245.0284
2089.417
1945.156
1811.4009
1687.3716
1572.3469
1465.6588
1366.6861
1274.8493
1189.6036
1110.4317
1036.8364
968.33447
904.40607
844.55278
788.29731
735.04386
684.09835
634.73244
586.11446
537.43996
488.17741
438.63688
390.82005
348.52898
315.07073
290.52465
272.44584
258.26136
246.33004
235.79762
226.24517
217.46408
209.36653
201.89725
194.9833
188.58766
182.69546
177.2461
172.18777
167.51802
163.18259
159.13701
155.36253
151.81034
148.48954
145.39159
142.48414
139.77522
137.26101
134.92863
132.75853
130.74401
128.8671
127.10701
125.45919
123.91112
122.45092
121.07346
119.77357
118.54275
117.3773
116.27506
115.23332
114.25139
113.3301
112.46884
111.66595
110.91648
110.21686
109.56067
108.93967
108.34868
107.7812
107.23299
106.69917
106.17669
105.66561
105.16743
104.68361
104.21617
103.7706
103.35305
102.96572
102.61605
102.32452
102.10278
101.95347
101.87496
101.85878
101.88695
101.93643
101.97674
101.97926
101.92912
101.81861
101.65175
101.44001
101.17587
100.86066
100.57276
100.24543
13074.298
12153.877
11298.422
10503.888
9765.6556
9079.5403
8441.7953
7849.0251
7298.1163
6786.1927
6310.5817
5868.7875
5458.4697
5077.4274
4723.5869
4394.997
4089.8271
3806.3691
3543.0385
3298.3592
3070.9849
2859.696
2663.3523
2480.899
2311.3566
2153.8138
2007.4229
1871.3954
1744.9979
1627.5481
1518.4104
1416.9916
1322.7362
1235.1214
1153.6511
1077.8495
1007.253
941.4062
879.79828
821.9582
767.41577
715.53651
665.62905
616.95046
568.67474
520.0736
470.85098
421.83327
375.73643
336.52538
306.50496
284.62103
268.18155
254.92263
243.53842
233.37356
224.10272
215.55392
207.65543
200.36372
193.6063
187.34399
181.57236
176.2336
171.27011
166.68687
162.43475
158.46504
154.75891
151.26763
148.00359
144.95731
142.09352
139.42365
136.94456
134.64302
132.49944
130.50937
128.65549
126.91518
125.28524
123.75412
122.3093
120.9452
119.65787
118.43871
117.28383
116.19148
115.15875
114.1847
113.27035
112.41526
111.61797
110.87366
110.17903
109.52795
108.91206
108.32618
107.76375
107.22015
106.69066
106.17168
105.66368
105.16797
104.68522
104.2182
103.77219
103.35342
102.96395
102.61112
102.31427
102.08688
101.93236
101.84933
101.82999
101.85631
101.90566
101.94713
101.95201
101.90536
101.80039
101.63953
101.4336
101.17398
100.86469
100.57892
100.25525
11610.158
10853.667
10141.911
9474.5502
8849.0175
8262.9066
7713.9805
7200.1387
6719.3915
6269.8467
5849.6987
5457.2202
5090.7547
4748.7119
4429.5653
4131.8527
3854.1801
3595.2262
3353.7487
3128.5716
2918.6108
2722.8772
2540.4332
2370.4039
2211.9705
2064.3655
1926.8692
1798.8068
1679.5457
1568.4927
1465.0907
1368.8155
1279.1721
1195.6901
1117.9185
1045.4191
977.75893
914.50691
855.16152
799.27159
746.36392
695.76928
646.79688
598.68759
550.64131
502.05524
452.97123
404.86181
361.09469
325.36411
298.70723
279.18887
264.14156
251.67005
240.76955
230.94598
221.94644
213.62552
205.92308
198.80703
192.20522
186.07444
180.42158
175.19307
170.32409
165.82659
161.65741
157.76337
154.12577
150.69642
147.49058
144.49767
141.67899
139.0497
136.60719
134.33757
132.22142
130.25671
128.42686
126.70726
125.09603
123.58281
122.15442
120.80454
119.53063
118.3241
117.18069
116.09908
115.07623
114.11086
113.20414
112.35585
111.56467
110.82597
110.13674
109.49116
108.88086
108.30067
107.7439
107.20549
106.68101
106.16601
105.6613
105.16814
104.68685
104.22053
103.77434
103.35413
102.96256
102.60635
102.30447
102.07159
101.9119
101.82434
101.80159
101.8258
101.87472
101.917
101.924
101.88061
101.78108
101.62631
101.42634
101.17157
100.8683
100.585
100.2653
10334.21
9710.8266
9116.6228
8554.7894
8023.961
7522.8373
7050.1671
6604.7299
6185.3255
5790.7708
5419.8989
5071.5592
4744.6175
4437.9577
4150.4842
3881.1261
3628.8436
3392.6341
3171.5402
2964.6391
2771.0703
2590.0423
2420.7927
2262.6031
2114.7952
1976.728
1847.7952
1727.4238
1615.0719
1510.2268
1412.403
1321.1397
1235.9971
1156.5528
1082.397
1013.1251
948.33146
887.60472
830.45218
776.43694
725.07289
675.65689
627.49794
579.8273
531.90316
483.32297
434.59917
387.94868
347.15975
315.15292
291.64074
274.16197
260.28343
248.48632
238.02085
228.5198
219.78527
211.69066
204.18379
197.24404
190.79974
184.80142
179.26766
174.15102
169.37816
164.96677
160.88081
157.06266
153.49409
150.12724
146.97985
144.0407
141.26747
138.67915
136.27345
134.03558
131.94668
130.00698
128.20085
126.50174
124.90892
123.41342
122.00143
120.66565
119.40506
118.2112
117.07927
116.00835
114.99542
114.0388
113.13973
112.29817
111.51295
110.77964
110.09545
109.45498
108.84989
108.27498
107.72353
107.19004
106.67052
106.15937
105.65816
105.16808
104.6879
104.2224
103.77628
103.35502
102.96152
102.6023
102.29527
102.0566
101.89135
101.79882
101.77227
101.79406
101.84226
101.88523
101.89429
101.85422
101.7603
101.61189
101.41822
101.16856
100.87166
100.59117
100.27554
9218.9048
8703.052
8205.6225
7731.6381
7280.5191
6851.6703
6444.4804
6058.3164
5692.5201
5346.4084
5019.2761
4710.3985
4419.035
4144.433
3885.8328
3642.4734
3413.5992
3198.4673
2996.355
2806.5514
2628.3849
2461.2324
2304.4825
2157.5523
2019.8861
1890.9534
1770.2483
1657.288
1551.6115
1452.779
1360.3697
1273.9799
1193.2203
1117.7122
1047.0824
980.95625
918.95183
860.66876
805.62729
753.40112
703.47419
655.11407
607.63132
560.26495
512.38159
463.88452
415.90619
371.41016
334.1798
305.92977
285.23327
269.47103
256.56906
245.35528
235.28616
226.09246
217.61728
209.74671
202.43392
195.67011
189.38448
183.51889
178.10346
173.09923
168.4234
164.09756
160.09417
156.35152
152.85213
149.54838
146.45968
143.57486
140.8477
138.30094
135.93253
133.72665
131.6653
129.75069
127.9684
126.29008
124.71586
123.23833
121.8432
120.52184
119.27486
118.09414
116.9741
115.9142
114.91154
113.96406
113.07295
112.23835
111.45928
110.73147
110.05237
109.41701
108.81718
108.24764
107.70163
107.17323
106.65898
106.1519
105.6543
105.16734
104.68856
104.22425
103.77835
103.35616
102.96101
102.59877
102.28677
102.04229
101.87133
101.77358
101.74288
101.76193
101.80903
101.85242
101.86335
101.82649
101.73817
101.59629
101.40917
101.16494
100.87458
100.59734
100.28604
8240.8038
7812.1963
7394.6688
6993.9871
6610.0506
6242.7032
5891.7414
5556.916
5237.9325
4934.4528
4646.0981
4372.4523
4113.0661
3867.4615
3635.1371
3415.5738
3208.2414
3012.6059
2828.1361
2654.2966
2490.5739
2336.4872
2191.554
2055.3084
1927.3007
1807.0973
1694.2798
1588.4452
1489.2046
1396.183
1309.0177
1227.3566
1150.8554
1079.1746
1011.9735
948.90354
889.6029
833.66721
780.6433
730.11062
681.49388
634.04971
587.09423
539.90549
492.03416
443.82831
397.17235
355.60398
322.33458
297.66219
279.39172
265.04925
252.96574
242.26445
232.56163
223.66354
215.44314
207.79457
200.67441
194.08646
187.96134
182.22968
176.93215
172.04108
167.46378
163.22311
159.30171
155.63441
152.2047
148.96488
145.93494
143.10488
140.42446
137.91976
135.58893
133.41519
131.38169
129.49212
127.73359
126.07621
124.52064
123.06116
121.68316
120.37642
119.14316
117.97587
116.86799
115.81924
114.82703
113.88889
113.0059
112.17835
111.40544
110.6831
110.00893
109.37847
108.78369
108.21934
107.67864
107.15528
106.64631
106.14348
105.64967
105.16583
104.68881
104.22579
103.78035
103.35752
102.96096
102.59585
102.27896
102.02852
101.8516
101.74828
101.71304
101.729
101.77464
101.81821
101.83088
101.7972
101.71454
101.57942
101.39916
101.16065
100.87711
100.60363
100.29686
7380.3149
7022.8688
6671.5122
6332.1361
6004.9094
5689.9375
5387.2679
5096.8949
4818.7617
4552.7618
4298.742
4056.505
3825.813
3606.3917
3397.9347
3200.1095
3012.5621
2834.9241
2666.8188
2507.8542
2357.6483
2215.8386
2082.0525
1955.9238
1837.0943
1725.2139
1619.9409
1520.9422
1427.8924
1340.474
1258.3759
1181.2916
1108.9171
1040.947
977.06873
916.95609
860.26459
806.56746
755.45383
706.50319
659.04612
612.36317
565.78118
518.67016
470.87439
423.35076
378.78261
340.87513
311.70893
290.26335
274.01699
260.83743
249.44716
239.20462
229.84448
221.23272
213.26325
205.83446
198.90509
192.49266
186.53004
180.93397
175.75368
170.97594
166.49861
162.34237
158.50198
154.90975
151.55011
148.37504
145.40364
142.62862
139.99566
137.53336
135.24029
133.09893
131.09373
129.22921
127.49435
125.85822
124.32149
122.88017
121.51965
120.22784
119.00848
117.85501
116.75964
115.72222
114.74067
113.81212
112.93745
112.11711
111.35047
110.63364
109.96436
109.3387
108.7489
108.18967
107.65427
107.13611
106.63231
106.13418
105.64429
105.16361
104.68883
104.22715
103.78236
103.3591
102.96124
102.59353
102.27195
102.01552
101.83244
101.72327
101.68308
101.69559
101.73933
101.78281
101.797
101.7664
101.68942
101.56124
101.38812
101.15565
100.8792
100.60997
100.30784
6620.9737
6321.889
6025.5215
5737.5471
5458.2751
5187.9551
4926.7811
4674.8957
4432.3917
4199.3137
3975.66
3761.3846
3556.3998
3360.5793
3173.7619
2995.7556
2826.3425
2665.2838
2512.3254
2367.1914
2229.6072
2099.3086
1976.0147
1859.444
1749.3162
1645.3534
1547.2801
1454.8239
1367.7151
1285.6866
1208.4724
1135.8064
1067.4193
1003.0351
942.36441
885.09867
830.90456
779.33787
730.01365
682.49287
636.03139
589.94387
543.58895
496.51387
449.00547
402.78389
361.19327
327.49152
302.28582
283.61173
269.01364
256.78558
245.99274
236.16905
227.13268
218.79991
211.07828
203.86712
197.12645
190.88901
185.09106
179.63289
174.56923
169.90458
165.52886
161.45622
157.69578
154.17848
150.88937
147.78003
144.86675
142.14688
139.56223
137.1426
134.88731
132.77866
130.80236
128.96287
127.25157
125.63701
124.11936
122.69628
121.35352
120.07701
118.87169
117.73235
116.64982
115.62387
114.65311
113.73435
112.86816
112.05514
111.29482
110.58352
109.91905
109.29802
108.71305
108.1588
107.6286
107.11579
106.61675
106.12401
105.63814
105.16069
104.68845
104.22821
103.78432
103.36088
102.96195
102.59182
102.26573
102.00328
101.81386
101.6985
101.65296
101.66162
101.70302
101.74609
101.76161
101.73403
101.66273
101.5417
101.37602
101.14989
100.88089
100.61644
100.31878
5948.9795
5697.9962
5447.4776
5202.7108
4964.0645
4731.858
4506.363
4287.8056
4076.3679
3872.1886
3675.3641
3485.95
3303.9623
3129.3796
2962.146
2802.1741
2649.3487
2503.5307
2364.5622
2232.26
2106.4362
1986.9067
1873.4665
1765.9052
1664.0087
1567.5602
1476.3412
1390.1316
1308.7099
1231.8527
1159.3332
1090.9199
1026.3732
965.44114
907.85276
853.31207
801.48602
751.92306
704.25323
657.98763
612.33957
566.67335
520.42971
473.45694
426.66524
382.60227
344.85927
315.59155
293.96143
277.57174
264.29661
252.85353
242.58692
233.15279
224.42469
216.36507
208.88899
201.89369
195.33948
189.27594
183.6446
178.32716
173.37948
168.82714
164.55469
160.56473
156.8831
153.44069
150.22246
147.17982
144.32396
141.65915
139.12373
136.74692
134.52928
132.45372
130.50706
128.69262
127.00473
125.41215
123.91389
122.50913
121.18441
119.92363
118.73249
117.60757
116.53825
115.5239
114.56404
113.65525
112.7977
111.99209
111.23818
110.53245
109.87275
109.25626
108.67599
108.12659
107.60153
107.09426
106.59955
106.11293
105.63118
105.15701
104.68743
104.22901
103.78623
103.36285
102.96308
102.59112
102.26039
101.99195
101.79602
101.67417
101.62286
101.62726
101.66583
101.70815
101.72475
101.70008
101.63445
101.52074
101.36281
101.1434
100.88221
100.623
100.32972
5352.7126
5141.5543
4929.3843
4721.0253
4516.8579
4317.2245
4122.4294
3932.7398
3748.3858
3569.5606
3396.4208
3229.087
3067.6441
2912.1432
2762.6028
2619.0111
2481.329
2349.4927
2223.4182
2102.9953
1988.1055
1878.6284
1774.4215
1675.3333
1581.2047
1491.8708
1407.1612
1326.9007
1250.9089
1178.9996
1110.9796
1046.6462
985.78428
928.16086
873.51824
821.56837
771.95787
724.25015
678.08418
632.87595
587.84465
542.43373
496.25758
449.6348
404.26967
363.3825
330.13735
305.16558
286.57564
272.01123
259.79477
249.01058
239.21825
230.15197
221.71934
213.92819
206.69615
199.91573
193.54598
187.6544
182.19101
177.01739
172.18511
167.74385
163.57643
159.66832
156.06445
152.69699
149.54981
146.57485
143.77556
141.1655
138.68035
136.34641
134.16618
132.12417
130.20801
128.41863
126.75406
125.18391
123.70543
122.31907
121.01258
119.76804
118.59124
117.48094
116.42517
115.42253
114.47364
113.57495
112.72617
111.92809
111.18063
110.48051
109.82557
109.21349
108.63778
108.09309
107.57306
107.07138
106.58101
106.10062
105.62324
105.15257
104.68584
104.22943
103.78807
103.36499
102.96461
102.59106
102.25593
101.98157
101.779
101.65037
101.59286
101.59254
101.6278
101.66896
101.68639
101.66452
101.60453
101.49832
101.34844
101.13624
100.88326
100.62964
100.34043
4822.3438
4644.2939
4464.2932
4286.6825
4111.8274
3940.0655
3771.7061
3607.0294
3446.286
3289.6966
3137.451
2989.7087
2846.5982
2708.2179
2574.6371
2445.8972
2322.0139
2202.9789
2088.7639
1979.3154
1874.5689
1774.4545
1678.88
1587.7418
1500.9265
1418.3122
1339.7691
1265.1595
1194.3376
1127.1484
1063.4263
1002.9923
945.65008
891.17998
839.33262
789.8241
742.25262
696.23306
651.39681
607.01829
562.40692
517.12864
471.11609
425.36288
382.42425
345.69943
317.20383
296.07723
279.94615
266.8132
255.45171
245.23452
235.87853
227.1634
219.01609
211.48948
204.50037
197.93511
191.7487
186.02594
180.73056
175.70384
170.98642
166.6547
162.59417
158.76744
155.24033
151.94794
148.87171
145.96523
143.22157
140.66577
138.23193
135.94086
133.79772
131.78977
129.90501
128.14075
126.49945
124.95223
123.49399
122.12612
120.83799
119.61027
118.448
117.35245
116.31052
115.31971
114.38183
113.49336
112.65348
111.863
111.12204
110.42758
109.77739
109.16964
108.59838
108.05826
107.54313
107.04696
106.56173
106.08655
105.6142
105.14732
104.68373
104.2296
103.78985
103.3673
102.9665
102.5915
102.25239
101.97224
101.76293
101.62727
101.56313
101.55759
101.58903
101.62858
101.64655
101.62736
101.57295
101.47441
101.33288
101.12826
100.88413
100.63626
100.35103
4349.5166
4199.0934
4046.1512
3894.5644
3744.6696
3596.7841
3451.2055
3308.2096
3168.0498
3030.9559
2897.1326
2766.7593
2639.9896
2516.9508
2397.745
2282.4493
2171.1173
2063.7809
1960.4521
1861.1208
1765.7641
1674.3507
1586.8283
1503.1318
1423.185
1346.9014
1274.1843
1204.9272
1139.0127
1076.3114
1016.6794
959.95573
905.95702
854.47118
805.25117
758.0045
712.29545
667.78126
624.03419
580.25171
535.89154
490.72635
445.21158
401.19526
361.85972
329.98293
306.02744
288.11125
273.8968
261.88149
251.22454
241.51023
232.56197
224.18457
216.31555
209.04958
202.30186
195.95351
189.95115
184.39272
179.26355
174.38651
169.78345
165.55958
161.60797
157.86277
154.41154
151.19421
148.18846
145.35103
142.66212
140.15993
137.77847
135.53024
133.42387
131.4505
129.59805
127.85899
126.24102
124.71727
123.27976
121.93051
120.66077
119.45053
118.30302
117.22223
116.19441
115.21552
114.28864
113.41049
112.5796
111.79682
111.06239
110.37363
109.72823
109.12474
108.55781
108.02209
107.51174
107.02095
106.54169
106.07106
105.60403
105.14123
104.68105
104.2296
103.79155
103.36977
102.96873
102.59255
102.24997
101.96403
101.74794
101.60498
101.53381
101.5225
101.54962
101.58705
101.60524
101.58857
101.53968
101.44895
101.31607
101.11933
100.88455
100.6431
100.36153
3927.0928
3799.7988
3669.6724
3540.1543
3411.5459
3284.1367
3158.2035
3034.0076
2911.7942
2791.79
2674.2021
2559.2169
2446.9994
2337.6924
2231.4172
2128.2731
2028.339
1931.6738
1838.3186
1748.2954
1661.6124
1578.267
1498.238
1421.4907
1347.9785
1277.6431
1210.4149
1146.2122
1084.9405
1026.4899
970.73307
917.52078
866.67681
817.99085
771.21305
726.01648
681.96461
638.75314
595.82782
552.41733
508.20614
463.33483
419.00428
377.92496
343.2701
316.40344
296.40787
281.02617
268.27507
257.14189
247.08213
237.82795
229.26449
221.21411
213.62041
206.61
200.10027
193.97186
188.15702
182.75747
177.79027
173.0652
168.57619
164.45833
160.61772
156.95526
153.579
150.43638
147.5003
144.73213
142.09727
139.64797
137.31986
135.11443
133.0446
131.10629
129.28696
127.57326
125.97885
124.47911
123.06282
121.73241
120.48101
119.28892
118.15648
117.09034
116.07681
115.10994
114.19405
113.32627
112.50449
111.72947
111.00161
110.3186
109.678
109.07873
108.51604
107.9846
107.47889
106.99345
106.52016
106.05452
105.59274
105.13424
104.67775
104.22917
103.79316
103.3724
102.97132
102.59417
102.24918
101.95702
101.73414
101.58369
101.50507
101.48745
101.50968
101.54444
101.5625
101.54819
101.50472
101.42194
101.29799
101.10952
100.88464
100.64987
100.37188
3548.9486
3441.0751
3330.2296
3219.459
3109.0287
2999.1978
2890.218
2782.331
2675.7669
2570.7421
2467.4575
2366.0976
2266.8292
2169.8008
2075.1427
1982.9667
1893.3666
1806.4187
1722.1838
1640.707
1562.019
1486.138
1413.066
1342.7917
1275.2915
1210.5292
1148.4562
1089.0104
1032.1141
977.67182
925.56653
875.65478
827.76076
781.6704
737.12872
693.73393
651.11019
608.97193
566.58414
523.37692
479.37215
435.31227
393.274
356.45845
327.10423
304.85293
288.05523
274.59387
262.9579
252.54083
243.00503
234.18119
225.98207
218.25223
210.93665
204.17357
197.8948
191.98955
186.36882
181.12322
176.31106
171.73976
167.36504
163.35094
159.62311
156.04603
152.74376
149.67485
146.80742
144.10829
141.52712
139.13001
136.85603
134.69341
132.66005
130.75718
128.97165
127.28354
125.71309
124.23787
122.84331
121.53205
120.29884
119.12556
118.00862
116.9569
115.95776
115.00302
114.09806
113.24067
112.42809
111.66091
110.93965
110.26242
109.62669
109.03161
108.47308
107.9458
107.44464
106.96449
106.49689
106.03666
105.58029
105.12633
104.67381
104.2283
103.7947
103.3752
102.97424
102.59633
102.24917
101.95127
101.72165
101.56355
101.47708
101.45258
101.46936
101.50084
101.51837
101.50622
101.46808
101.39333
101.27861
101.09878
100.88406
100.65651
100.38203
3209.8044
3118.2796
3023.7592
2928.9398
2834.0526
2739.3266
2644.9875
2551.255
2458.3405
2366.4454
2275.7593
2186.4583
2098.7046
2012.6454
1928.4129
1846.1235
1765.8785
1687.7645
1611.8539
1538.2083
1466.8741
1397.8829
1331.2539
1266.9932
1205.0939
1145.5369
1088.289
1033.3022
980.51056
929.82732
881.13962
834.30286
789.13425
745.40911
702.85357
661.0114
619.57972
578.20473
536.10507
493.07954
449.6459
407.3867
369.06752
337.55471
313.43097
295.02827
280.67075
268.61833
257.84801
248.04479
238.98777
230.5639
222.70799
215.30052
208.27404
201.74493
195.68512
190.00376
184.5861
179.49299
174.82665
170.41027
166.15142
162.23802
158.62345
155.13612
151.90679
148.90978
146.10993
143.47921
140.95186
138.60623
136.38687
134.26716
132.27043
130.40325
128.65198
126.98983
125.44393
123.99369
122.62131
121.32964
120.11441
118.96053
117.85961
116.822
115.83723
114.89474
114.00063
113.15363
112.35034
111.59109
110.87643
110.20504
109.57425
108.98335
108.42893
107.90572
107.40904
106.93396
106.47221
106.01745
105.56665
105.11746
104.6692
104.22714
103.79616
103.37819
102.97752
102.59898
102.24985
101.9468
101.7106
101.54473
101.45006
101.41811
101.4288
101.45635
101.47293
101.46272
101.42975
101.36313
101.25791
101.08709
100.88259
100.6627
100.39196
2905.0815
2827.3522
2746.6788
2665.4515
2583.871
2502.138
2420.4527
2339.012
2258.0072
2177.622
2098.0312
2019.399
1941.8784
1865.6106
1790.7241
1717.335
1645.5465
1575.4494
1507.1225
1440.6379
1376.0522
1313.4051
1252.7274
1194.0371
1137.3394
1082.6267
1029.8765
979.04963
930.08693
882.90434
837.38683
793.3812
750.69065
709.07468
668.20763
627.63331
587.14254
546.22497
504.29563
461.69731
419.68159
380.68565
347.44276
321.55978
301.96527
286.56191
273.99277
262.93755
252.8701
243.63816
235.03913
226.97062
219.43347
212.36124
205.64216
199.33035
193.47331
188.00953
182.80444
177.86958
173.33877
169.07666
164.93784
161.12152
157.61762
154.22601
151.06881
148.14113
145.40793
142.84476
140.37187
138.07694
135.91227
133.8357
131.87601
130.04463
128.32785
126.69218
125.17157
123.7467
122.39687
121.12542
119.9279
118.79387
117.70962
116.68576
115.71523
114.78513
113.90178
113.0651
112.27117
111.51994
110.81193
110.14643
109.52063
108.93391
108.38359
107.86439
107.37214
106.90175
106.44626
105.99693
105.55178
105.1076
104.66389
104.22561
103.79756
103.38139
102.98119
102.60216
102.25138
101.94451
101.70108
101.52741
101.4242
101.38423
101.38819
101.41109
101.42626
101.41774
101.38979
101.33133
101.23586
101.07443
100.88048
100.66846
100.40162
2630.7852
2564.7252
2495.8202
2426.1943
2356.0222
2285.4792
2214.7412
2143.9827
2073.3742
2003.0811
1933.2613
1864.065
1795.6332
1728.0978
1661.5806
1596.1932
1532.0369
1469.2025
1407.7708
1347.8201
1289.4128
1232.5918
1177.395
1123.8478
1071.963
1021.7395
973.16088
926.19186
880.77444
836.82151
794.20868
752.76584
712.27535
672.48261
632.95093
593.35234
553.55042
512.858
471.26669
429.81374
390.63955
356.5184
329.08521
308.33047
292.23193
279.11436
267.78436
257.43075
248.02384
239.2952
231.11484
223.41885
216.17387
209.43371
203.04003
196.9385
191.26649
186.00236
181.01781
176.25548
171.85092
167.73735
163.72697
160.00571
156.60441
153.31513
150.23
147.36881
144.70146
142.205
139.78785
137.54253
135.432
133.39908
131.47714
129.68153
127.99924
126.39074
124.89624
123.497
122.17006
120.91956
119.73953
118.62558
117.55873
116.54828
115.59175
114.67419
113.80149
112.97501
112.19052
111.44741
110.74607
110.08653
109.46582
108.88326
108.33706
107.82183
107.33396
106.86801
106.41856
105.97511
105.53567
105.09672
104.65786
104.22367
103.79889
103.38482
102.98528
102.60585
102.25368
101.94399
101.69321
101.51176
101.39974
101.35118
101.3477
101.36526
101.37849
101.37137
101.34823
101.29795
101.21246
101.06077
100.87755
100.67367
100.41096
2383.4738
2327.2865
2268.4005
2208.6915
2148.3131
2087.4181
2026.1594
1964.6901
1903.1606
1841.7173
1780.5011
1719.6466
1659.2818
1599.5271
1540.4955
1482.2917
1425.0121
1368.7445
1313.5684
1259.565
1206.7988
1155.3122
1105.1463
1056.3296
1008.8779
962.7928
918.05848
874.63866
832.47091
791.45887
751.46139
712.28211
673.67355
635.35578
596.83027
557.95334
518.54362
478.12301
437.55826
398.6143
364.05082
335.88459
314.06975
297.37212
283.88093
272.24413
261.71717
252.14664
243.29756
235.02224
227.24019
219.90628
212.99511
206.48557
200.37571
194.59645
189.09543
183.98556
179.22494
174.65168
170.36755
166.38769
162.52019
158.89729
155.58342
152.40148
149.38991
146.59308
143.99062
141.56022
139.20078
137.0035
134.94571
132.9574
131.07421
129.3142
127.6662
126.08575
124.61817
123.24473
121.94092
120.71222
119.5495
118.45563
117.40691
116.40963
115.46677
114.56193
113.69982
112.88334
112.10832
111.37343
110.67882
110.02533
109.4098
108.83139
108.28934
107.77809
107.29447
106.83332
106.38919
105.95201
105.51829
105.08482
104.65109
104.22135
103.80015
103.38851
102.98984
102.6101
102.25672
101.94425
101.68702
101.49797
101.3769
101.31923
101.30752
101.31905
101.32975
101.3237
101.30516
101.263
101.18771
101.04611
100.87386
100.67819
100.41993
2160.1897
2112.3311
2061.9894
2010.7702
1958.8029
1906.2285
1853.18
1799.7901
1746.1895
1692.5057
1638.8622
1585.3779
1532.1666
1479.3367
1426.9908
1375.2252
1324.1297
1273.7867
1224.2721
1175.6671
1128.0355
1081.4158
1035.8487
991.36226
947.97116
905.67443
864.45228
824.26162
785.02966
746.64465
708.9425
671.69433
634.61651
597.36426
559.51667
521.20092
482.10499
442.55596
404.40138
369.83957
341.29082
319.03162
301.9392
288.16505
276.21912
265.62962
255.96694
247.019
238.66135
230.81009
223.41034
216.42545
209.83131
203.6151
197.74421
192.18085
186.93388
182.00329
177.43032
173.05554
168.89187
165.02268
161.31717
157.80181
154.55664
151.48202
148.54773
145.81506
143.27561
140.91048
138.61172
136.46045
134.45287
132.51083
130.66768
128.94295
127.32887
125.77756
124.33755
122.99002
121.70953
120.50345
119.35805
118.28397
117.25403
116.26988
115.3403
114.44834
113.5968
112.79006
112.0245
111.29794
110.61013
109.96281
109.35258
108.77829
108.24043
107.73324
107.25368
106.7978
106.35865
105.92763
105.49966
105.07189
104.64356
104.21861
103.80134
103.39248
102.99491
102.61497
102.26052
101.94552
101.68365
101.48618
101.35594
101.28863
101.26791
101.2727
101.28024
101.27488
101.26067
101.22653
101.16163
101.03043
100.86941
100.68186
100.42847
1958.2728
1917.4663
1874.4164
1830.4689
1785.7364
1740.3442
1694.4106
1648.0501
1601.3742
1554.4921
1507.51
1460.5313
1413.6559
1366.9798
1320.5949
1274.5881
1229.0409
1184.0294
1139.6236
1095.9024
1052.9265
1010.7277
969.34295
928.79591
889.09578
850.23426
812.18165
774.88159
738.24424
702.1365
666.36836
630.68191
594.76726
558.12555
520.77034
483.07676
444.73134
407.47968
373.71574
345.20968
322.90733
305.6968
291.77238
279.71981
269.09788
259.41234
250.41977
242.00645
234.10324
226.65691
219.62616
212.97965
206.69409
200.75107
195.13285
189.81446
184.78776
180.06108
175.60775
171.42343
167.44206
163.65279
160.11693
156.71576
153.52913
150.5541
147.70339
145.03724
142.55692
140.25514
138.0211
135.91408
133.953
132.05958
130.25805
128.56816
126.98753
125.46662
124.05457
122.73304
121.476
120.29324
119.16539
118.11059
117.09986
116.12902
115.21236
114.3334
113.4925
112.69519
111.93903
111.22089
110.53997
109.89894
109.29415
108.72397
108.19036
107.68733
107.21169
106.76088
106.32687
105.90189
105.47981
105.05793
104.63526
104.21544
103.80248
103.39675
103.00056
102.62051
102.26511
101.94783
101.68277
101.47654
101.3371
101.25967
101.22919
101.22647
101.23016
101.22507
101.21489
101.1886
101.13424
101.01373
100.86414
100.68454
100.43655
1775.3381
1740.5389
1703.7208
1666.003
1627.5075
1588.3299
1548.5727
1508.3332
1467.7057
1426.7825
1385.6546
1344.411
1303.1383
1261.9207
1220.839
1179.9703
1139.3873
1099.1581
1059.3453
1020.0238