/*--------------------------------*- C++ -*----------------------------------*\
| =========                 |                                                 |
| \\      /  F ield         | OpenFOAM: The Open Source CFD Toolbox           |
|  \\    /   O peration     | Version:  2406                                  |
|   \\  /    A nd           | Website:  www.openfoam.com                      |
|    \\/     M anipulation  |                                                 |
\*---------------------------------------------------------------------------*/
FoamFile
{
    version     2.0;
    format      ascii;
    arch        "LSB;label=32;scalar=64";
    class       volScalarField;
    location    "0.002";
    object      rho;
}
// * * * * * * * * * * * * * * * * * * * * * * * * * * * * * * * * * * * * * //

dimensions      [1 -3 0 0 0 0 0];

internalField   nonuniform List<scalar> 
92813
(
1.1985296
1.1976584
1.197256
1.1968001
1.1963408
1.1959392
1.1955972
1.1953088
1.1950716
1.1948826
1.1947386
1.1946327
1.1945562
1.1945019
1.1944651
1.1944451
1.1944471
1.1944779
1.1945399
1.1946332
1.1947514
1.1948905
1.1950467
1.1952188
1.1954049
1.1956034
1.1958131
1.1960327
1.1962611
1.1964974
1.1967404
1.1969889
1.1972417
1.1974978
1.1977556
1.1980134
1.1982716
1.1985201
1.198762
1.1989945
1.1992337
1.1994723
1.1996797
1.1998676
1.2000348
1.2001762
1.200287
1.2003628
1.2004009
1.2004054
1.2003908
1.2003767
1.2003775
1.2003975
1.2004325
1.2004766
1.2005249
1.2005747
1.2006247
1.2006743
1.2007233
1.2007717
1.2008192
1.200866
1.2009119
1.2009569
1.201001
1.2010441
1.2010863
1.2011275
1.2011677
1.201207
1.2012455
1.201283
1.2013197
1.2013556
1.2013907
1.2014251
1.2014587
1.2014916
1.2015237
1.2015552
1.2015859
1.2016158
1.2016449
1.2016732
1.2017007
1.2017273
1.201753
1.2017779
1.2018018
1.2018248
1.2018468
1.2018675
1.2018868
1.2019043
1.2019196
1.2019322
1.2019416
1.2019472
1.2019482
1.2019443
1.2019338
1.2019173
1.2018935
1.2018612
1.2018203
1.2017702
1.2017102
1.2016401
1.2015595
1.2014685
1.2013672
1.2012563
1.2011367
1.2010096
1.2008769
1.2007409
1.2006041
1.2004696
1.2003404
1.2002202
1.2001113
1.2000219
1.1999404
1.1999046
1.19987
1.2000877
1.1995457
1.1990317
1.1984598
1.1979268
1.19747
1.1970805
1.1967504
1.1964742
1.1962474
1.1960639
1.1959172
1.1958001
1.1957051
1.1956261
1.1955625
1.1955169
1.1954929
1.1954973
1.1955313
1.1955922
1.1956785
1.1957898
1.1959211
1.1960689
1.1962308
1.196405
1.19659
1.1967844
1.1969871
1.1971969
1.1974126
1.1976329
1.1978568
1.198083
1.1983098
1.1985367
1.1987594
1.1989747
1.1991723
1.1993891
1.1996065
1.1997913
1.1999592
1.2001082
1.2002331
1.200329
1.2003913
1.2004184
1.2004169
1.2004029
1.2003947
1.2004028
1.200428
1.2004655
1.2005097
1.2005569
1.200605
1.2006531
1.2007008
1.200748
1.2007945
1.2008404
1.2008855
1.2009298
1.2009734
1.201016
1.2010578
1.2010987
1.2011387
1.2011778
1.201216
1.2012534
1.2012899
1.2013257
1.2013606
1.2013949
1.2014284
1.2014613
1.2014935
1.201525
1.2015558
1.2015858
1.2016152
1.2016437
1.2016715
1.2016984
1.2017245
1.2017498
1.2017742
1.2017977
1.2018202
1.2018418
1.201862
1.2018809
1.201898
1.2019128
1.201925
1.201934
1.2019392
1.2019398
1.2019354
1.2019245
1.2019075
1.2018834
1.2018507
1.2018095
1.201759
1.2016988
1.2016284
1.2015476
1.2014564
1.2013551
1.2012441
1.2011244
1.2009974
1.2008648
1.200729
1.2005925
1.2004582
1.2003293
1.2002094
1.2001008
1.2000116
1.1999301
1.1998953
1.1998588
1.2008258
1.200402
1.1998439
1.1992223
1.1986621
1.1981823
1.1977709
1.1974175
1.1971165
1.1968627
1.1966505
1.1964744
1.1963289
1.1962088
1.1961101
1.1960307
1.1959702
1.1959307
1.1959166
1.1959296
1.1959703
1.1960394
1.1961333
1.1962479
1.1963801
1.1965276
1.1966885
1.1968613
1.1970443
1.1972363
1.1974359
1.1976418
1.1978527
1.1980673
1.1982843
1.1985019
1.1987193
1.1989352
1.1991378
1.199321
1.1995327
1.1997381
1.1999099
1.2000653
1.2002009
1.2003116
1.2003927
1.2004401
1.2004543
1.2004452
1.2004303
1.2004255
1.2004379
1.2004657
1.2005037
1.200547
1.2005925
1.2006385
1.2006845
1.2007301
1.2007752
1.2008198
1.2008639
1.2009072
1.2009499
1.2009919
1.2010331
1.2010734
1.2011129
1.2011516
1.2011895
1.2012265
1.2012628
1.2012982
1.201333
1.201367
1.2014003
1.201433
1.2014651
1.2014965
1.2015272
1.2015573
1.2015867
1.2016154
1.2016434
1.2016705
1.2016969
1.2017225
1.2017472
1.2017711
1.2017942
1.2018162
1.2018373
1.2018571
1.2018755
1.2018921
1.2019066
1.2019183
1.2019268
1.2019315
1.2019317
1.2019269
1.2019155
1.2018981
1.2018736
1.2018405
1.201799
1.2017482
1.2016877
1.201617
1.201536
1.2014447
1.2013432
1.2012322
1.2011125
1.2009855
1.200853
1.2007173
1.200581
1.2004469
1.2003183
1.2001987
1.2000905
1.2000015
1.19992
1.1998861
1.1998475
1.2014287
1.2010432
1.2004886
1.1998615
1.1992914
1.1987959
1.1983633
1.1979855
1.1976577
1.1973758
1.1971352
1.1969314
1.1967602
1.1966176
1.1965004
1.1964068
1.1963358
1.1962883
1.1962659
1.1962695
1.1962994
1.1963552
1.1964345
1.1965346
1.196653
1.1967876
1.1969367
1.1970984
1.1972713
1.197454
1.1976449
1.1978428
1.1980462
1.1982537
1.1984639
1.1986749
1.198886
1.1990979
1.1992866
1.1994636
1.1996745
1.199868
1.2000293
1.2001741
1.2002975
1.2003945
1.2004605
1.2004925
1.2004939
1.200478
1.2004626
1.200461
1.2004765
1.2005058
1.2005436
1.2005854
1.2006289
1.2006728
1.2007165
1.20076
1.2008031
1.2008457
1.2008879
1.2009295
1.2009705
1.2010109
1.2010505
1.2010894
1.2011276
1.2011649
1.2012015
1.2012374
1.2012725
1.2013069
1.2013406
1.2013736
1.201406
1.2014378
1.201469
1.2014996
1.2015297
1.201559
1.2015878
1.2016158
1.2016432
1.2016698
1.2016956
1.2017206
1.2017448
1.2017682
1.2017908
1.2018124
1.201833
1.2018523
1.2018703
1.2018864
1.2019004
1.2019117
1.2019197
1.2019239
1.2019237
1.2019184
1.2019067
1.2018888
1.2018638
1.2018304
1.2017885
1.2017374
1.2016766
1.2016057
1.2015245
1.2014329
1.2013313
1.2012203
1.2011006
1.2009737
1.2008413
1.2007058
1.2005696
1.2004358
1.2003075
1.2001882
1.2000803
1.1999914
1.1999102
1.1998769
1.1998359
1.2019553
1.2015807
1.2010433
1.2004308
1.1998668
1.1993684
1.1989265
1.1985349
1.1981901
1.197889
1.1976281
1.197404
1.1972132
1.1970526
1.1969197
1.1968124
1.19673
1.1966723
1.1966398
1.1966329
1.196651
1.1966936
1.1967589
1.196845
1.1969498
1.1970714
1.197208
1.197358
1.1975198
1.1976919
1.1978728
1.1980611
1.1982554
1.1984541
1.1986557
1.1988584
1.1990614
1.1992655
1.1994406
1.199614
1.1998188
1.1999988
1.2001491
1.2002823
1.2003926
1.200475
1.2005253
1.2005421
1.2005324
1.2005119
1.2004977
1.2004994
1.2005177
1.2005478
1.2005848
1.2006249
1.2006662
1.2007078
1.2007494
1.2007907
1.2008317
1.2008723
1.2009126
1.2009524
1.2009917
1.2010304
1.2010685
1.201106
1.2011427
1.2011787
1.201214
1.2012486
1.2012826
1.2013159
1.2013485
1.2013806
1.2014121
1.201443
1.2014734
1.2015032
1.2015324
1.2015611
1.2015891
1.2016165
1.2016432
1.2016692
1.2016945
1.201719
1.2017427
1.2017656
1.2017876
1.2018087
1.2018288
1.2018477
1.2018652
1.2018809
1.2018944
1.2019052
1.2019128
1.2019165
1.2019159
1.2019101
1.201898
1.2018796
1.2018542
1.2018204
1.2017781
1.2017267
1.2016656
1.2015945
1.2015131
1.2014214
1.2013197
1.2012085
1.2010889
1.200962
1.2008297
1.2006944
1.2005584
1.2004249
1.2002968
1.2001778
1.2000703
1.1999815
1.1999007
1.1998678
1.1998241
1.2023921
1.2020101
1.2014845
1.2009017
1.2003572
1.1998671
1.1994262
1.1990303
1.1986774
1.1983653
1.1980916
1.1978537
1.1976489
1.1974749
1.1973295
1.197211
1.1971182
1.1970508
1.1970087
1.1969915
1.1969987
1.1970296
1.1970828
1.1971565
1.1972491
1.1973589
1.197484
1.197623
1.1977742
1.1979361
1.1981073
1.1982862
1.1984713
1.1986611
1.1988539
1.1990478
1.1992421
1.1994368
1.1995998
1.1997691
1.1999648
1.2001305
1.2002693
1.2003897
1.2004857
1.2005524
1.2005864
1.2005888
1.20057
1.2005473
1.2005356
1.2005409
1.2005613
1.2005916
1.2006273
1.2006655
1.2007045
1.2007438
1.200783
1.2008221
1.2008609
1.2008996
1.2009379
1.2009759
1.2010134
1.2010505
1.2010871
1.201123
1.2011583
1.201193
1.201227
1.2012604
1.2012931
1.2013253
1.2013569
1.2013879
1.2014185
1.2014485
1.201478
1.201507
1.2015355
1.2015634
1.2015907
1.2016175
1.2016436
1.201669
1.2016936
1.2017176
1.2017407
1.2017631
1.2017846
1.2018053
1.2018249
1.2018433
1.2018603
1.2018755
1.2018885
1.2018989
1.201906
1.2019093
1.2019081
1.2019019
1.2018894
1.2018706
1.2018447
1.2018105
1.2017679
1.2017162
1.2016548
1.2015834
1.2015018
1.2014099
1.2013081
1.2011969
1.2010772
1.2009504
1.2008183
1.2006831
1.2005474
1.2004141
1.2002863
1.2001676
1.2000604
1.1999718
1.1998914
1.1998588
1.1998123
1.2027499
1.2023543
1.20184
1.2012909
1.2007718
1.200297
1.1998641
1.199471
1.1991167
1.1988002
1.1985197
1.1982734
1.1980595
1.1978761
1.1977213
1.1975939
1.1974927
1.197417
1.1973664
1.1973403
1.1973381
1.1973589
1.1974015
1.1974644
1.1975462
1.1976452
1.1977598
1.1978886
1.1980298
1.1981822
1.198344
1.1985139
1.1986901
1.1988712
1.1990552
1.1992404
1.1994261
1.1996101
1.1997617
1.1999269
1.2001118
1.2002629
1.2003894
1.2004959
1.2005765
1.2006265
1.2006439
1.2006332
1.2006079
1.2005852
1.2005768
1.2005854
1.2006072
1.2006371
1.2006711
1.2007071
1.2007437
1.2007806
1.2008174
1.2008543
1.200891
1.2009275
1.2009639
1.2010001
1.2010358
1.2010712
1.2011062
1.2011406
1.2011745
1.2012077
1.2012404
1.2012725
1.2013041
1.2013351
1.2013657
1.2013957
1.2014252
1.2014543
1.201483
1.2015111
1.2015388
1.201566
1.2015927
1.2016187
1.2016442
1.201669
1.201693
1.2017164
1.201739
1.2017609
1.2017819
1.2018021
1.2018212
1.2018391
1.2018556
1.2018704
1.2018829
1.2018927
1.2018994
1.2019022
1.2019006
1.2018939
1.201881
1.2018617
1.2018353
1.2018008
1.2017578
1.2017058
1.2016441
1.2015724
1.2014906
1.2013986
1.2012966
1.2011854
1.2010658
1.200939
1.2008071
1.200672
1.2005365
1.2004035
1.200276
1.2001576
1.2000508
1.1999623
1.1998822
1.1998499
1.1998003
1.2030488
1.202641
1.2021385
1.2016205
1.2011276
1.2006712
1.2002507
1.1998654
1.199515
1.1991992
1.1989169
1.1986669
1.198448
1.1982587
1.1980976
1.1979637
1.1978559
1.1977734
1.1977156
1.1976819
1.1976716
1.1976836
1.1977169
1.1977703
1.1978423
1.1979316
1.1980366
1.1981558
1.1982877
1.1984309
1.1985837
1.1987447
1.1989122
1.1990845
1.1992598
1.1994363
1.1996133
1.1997849
1.1999253
1.2000871
1.2002593
1.2003953
1.2005085
1.2006
1.200664
1.2006967
1.200698
1.2006762
1.200647
1.2006262
1.2006216
1.2006329
1.2006553
1.2006841
1.2007161
1.2007497
1.2007839
1.2008182
1.2008527
1.2008872
1.2009218
1.2009562
1.2009906
1.2010249
1.2010589
1.2010925
1.2011259
1.2011588
1.2011911
1.201223
1.2012543
1.2012852
1.2013155
1.2013454
1.2013748
1.2014038
1.2014324
1.2014606
1.2014883
1.2015157
1.2015426
1.201569
1.2015949
1.2016203
1.2016451
1.2016692
1.2016927
1.2017155
1.2017376
1.2017589
1.2017794
1.2017991
1.2018177
1.2018352
1.2018512
1.2018654
1.2018775
1.2018868
1.201893
1.2018952
1.2018932
1.201886
1.2018727
1.2018529
1.2018261
1.2017912
1.2017479
1.2016955
1.2016335
1.2015616
1.2014796
1.2013874
1.2012853
1.201174
1.2010544
1.2009278
1.2007959
1.2006611
1.2005258
1.200393
1.2002659
1.2001478
1.2000414
1.199953
1.1998733
1.1998411
1.1997868
1.2032922
1.202878
1.2023964
1.2019057
1.2014369
1.2009996
1.200594
1.2002198
1.1998772
1.1995661
1.1992859
1.1990361
1.1988156
1.1986235
1.1984588
1.1983206
1.198208
1.1981202
1.1980567
1.1980167
1.1979995
1.198004
1.1980293
1.1980743
1.1981377
1.1982182
1.1983143
1.1984247
1.1985479
1.1986823
1.1988265
1.1989789
1.1991377
1.1993013
1.1994678
1.1996355
1.1998042
1.1999598
1.2000901
1.20025
1.2004069
1.2005272
1.200626
1.2007012
1.2007476
1.2007625
1.200749
1.2007188
1.2006884
1.2006707
1.2006698
1.200683
1.2007052
1.2007325
1.2007622
1.2007933
1.2008249
1.2008567
1.2008888
1.200921
1.2009533
1.2009856
1.201018
1.2010504
1.2010825
1.2011145
1.2011462
1.2011775
1.2012084
1.2012388
1.2012687
1.2012983
1.2013274
1.2013561
1.2013845
1.2014124
1.20144
1.2014672
1.201494
1.2015205
1.2015466
1.2015723
1.2015975
1.2016222
1.2016463
1.2016698
1.2016927
1.2017149
1.2017364
1.2017572
1.2017772
1.2017964
1.2018145
1.2018314
1.2018469
1.2018607
1.2018722
1.2018811
1.2018867
1.2018885
1.2018859
1.2018783
1.2018646
1.2018443
1.2018171
1.2017818
1.2017381
1.2016854
1.2016231
1.2015509
1.2014687
1.2013763
1.2012742
1.2011628
1.2010432
1.2009167
1.200785
1.2006503
1.2005153
1.2003828
1.200256
1.2001382
1.2000322
1.199944
1.1998645
1.1998324
1.1997698
1.2034835
1.2030725
1.2026151
1.2021514
1.2017063
1.2012892
1.2009003
1.2005396
1.2002075
1.1999041
1.1996292
1.1993824
1.1991632
1.198971
1.1988051
1.1986647
1.1985491
1.1984577
1.1983898
1.1983448
1.1983219
1.1983201
1.1983386
1.1983764
1.1984322
1.1985048
1.1985929
1.1986951
1.1988101
1.1989362
1.1990721
1.199216
1.1993663
1.1995212
1.1996787
1.1998377
1.1999979
1.2001326
1.2002577
1.2004156
1.2005534
1.2006575
1.2007407
1.2007985
1.2008264
1.2008239
1.2007976
1.2007621
1.2007329
1.2007191
1.2007213
1.2007355
1.2007569
1.2007821
1.2008094
1.2008378
1.2008668
1.2008961
1.2009256
1.2009555
1.2009856
1.2010158
1.2010461
1.2010765
1.2011068
1.201137
1.201167
1.2011967
1.2012261
1.2012551
1.2012837
1.2013119
1.2013398
1.2013673
1.2013945
1.2014214
1.2014479
1.2014742
1.2015001
1.2015257
1.201551
1.2015759
1.2016004
1.2016243
1.2016478
1.2016707
1.201693
1.2017146
1.2017356
1.2017558
1.2017753
1.2017939
1.2018115
1.2018279
1.201843
1.2018562
1.2018672
1.2018756
1.2018807
1.201882
1.2018788
1.2018708
1.2018566
1.2018359
1.2018082
1.2017725
1.2017285
1.2016754
1.2016129
1.2015404
1.2014579
1.2013654
1.2012632
1.2011518
1.2010322
1.2009058
1.2007742
1.2006398
1.200505
1.2003728
1.2002463
1.2001289
1.2000232
1.1999351
1.199856
1.1998235
1.1997523
1.203629
1.2032293
1.2027978
1.2023616
1.2019411
1.2015451
1.2011744
1.2008291
1.2005096
1.2002162
1.1999489
1.1997077
1.1994922
1.1993022
1.1991371
1.1989963
1.1988795
1.1987859
1.1987151
1.1986663
1.198639
1.1986321
1.198645
1.1986765
1.1987257
1.1987913
1.1988721
1.1989669
1.1990741
1.1991924
1.1993202
1.1994559
1.1995977
1.1997438
1.1998921
1.2000418
1.2001905
1.2003081
1.200431
1.2005792
1.2006975
1.2007856
1.2008517
1.2008909
1.2008999
1.200881
1.200845
1.2008074
1.2007812
1.2007713
1.2007758
1.2007901
1.2008101
1.200833
1.2008575
1.2008833
1.2009096
1.2009362
1.2009632
1.2009907
1.2010186
1.2010466
1.2010748
1.2011033
1.2011317
1.2011601
1.2011884
1.2012166
1.2012444
1.2012719
1.2012991
1.201326
1.2013526
1.2013789
1.201405
1.2014308
1.2014563
1.2014816
1.2015066
1.2015313
1.2015558
1.2015799
1.2016036
1.2016268
1.2016496
1.2016719
1.2016935
1.2017146
1.201735
1.2017547
1.2017736
1.2017917
1.2018088
1.2018247
1.2018392
1.2018519
1.2018625
1.2018703
1.2018749
1.2018756
1.201872
1.2018634
1.2018488
1.2018277
1.2017995
1.2017634
1.201719
1.2016657
1.2016028
1.2015301
1.2014474
1.2013547
1.2012524
1.201141
1.2010214
1.2008951
1.2007637
1.2006295
1.2004949
1.200363
1.2002369
1.2001198
1.2000145
1.1999266
1.1998477
1.1998147
1.1997386
1.203737
1.203354
1.2029493
1.2025411
1.2021457
1.2017718
1.2014205
1.201092
1.2007867
1.200505
1.2002473
1.2000136
1.1998039
1.199618
1.1994555
1.1993162
1.1991996
1.1991054
1.1990329
1.1989818
1.1989511
1.1989403
1.1989485
1.1989748
1.1990183
1.1990777
1.199152
1.1992398
1.1993399
1.1994507
1.1995707
1.1996983
1.1998317
1.1999689
1.2001079
1.2002478
1.2003826
1.2004859
1.200606
1.2007403
1.2008388
1.2009101
1.2009578
1.2009774
1.2009678
1.2009349
1.2008926
1.2008558
1.2008336
1.2008271
1.200833
1.2008466
1.2008647
1.2008849
1.2009066
1.2009295
1.2009532
1.2009772
1.2010016
1.2010267
1.2010523
1.2010781
1.2011042
1.2011307
1.2011573
1.2011838
1.2012104
1.2012369
1.2012632
1.2012892
1.201315
1.2013406
1.2013659
1.201391
1.2014159
1.2014406
1.2014651
1.2014893
1.2015135
1.2015373
1.2015609
1.2015842
1.2016072
1.2016297
1.2016518
1.2016734
1.2016944
1.2017149
1.2017347
1.2017538
1.2017722
1.2017897
1.2018063
1.2018217
1.2018357
1.2018479
1.2018579
1.2018652
1.2018693
1.2018696
1.2018655
1.2018562
1.2018412
1.2018196
1.201791
1.2017545
1.2017098
1.2016561
1.2015929
1.2015199
1.201437
1.2013441
1.2012417
1.2011303
1.2010108
1.2008846
1.2007534
1.2006193
1.2004851
1.2003535
1.2002277
1.200111
1.200006
1.1999184
1.1998398
1.1998061
1.1997273
1.2038163
1.2034524
1.2030748
1.2026945
1.2023246
1.2019734
1.2016422
1.2013315
1.2010417
1.2007733
1.2005267
1.2003022
1.2000999
1.1999197
1.1997615
1.1996252
1.1995103
1.1994167
1.1993439
1.1992915
1.1992587
1.199245
1.1992495
1.1992715
1.1993101
1.1993641
1.1994325
1.199514
1.1996073
1.199711
1.1998234
1.1999431
1.2000679
1.2001961
1.2003259
1.200456
1.2005729
1.2006637
1.2007819
1.2008982
1.2009765
1.2010298
1.2010578
1.2010573
1.2010304
1.2009868
1.200942
1.2009082
1.2008901
1.2008862
1.2008924
1.2009047
1.2009204
1.2009378
1.2009564
1.2009766
1.2009975
1.2010189
1.2010407
1.2010634
1.2010867
1.2011103
1.2011343
1.2011588
1.2011834
1.2012082
1.201233
1.2012579
1.2012826
1.2013071
1.2013314
1.2013557
1.2013797
1.2014035
1.2014273
1.2014508
1.2014743
1.2014976
1.2015207
1.2015437
1.2015664
1.2015889
1.2016111
1.2016329
1.2016543
1.2016752
1.2016956
1.2017155
1.2017347
1.2017532
1.2017711
1.2017881
1.2018041
1.201819
1.2018325
1.2018442
1.2018537
1.2018605
1.201864
1.2018637
1.2018592
1.2018492
1.2018338
1.2018118
1.2017827
1.2017459
1.2017007
1.2016467
1.2015832
1.2015099
1.2014268
1.2013338
1.2012313
1.2011198
1.2010004
1.2008743
1.2007432
1.2006095
1.2004755
1.2003442
1.2002187
1.2001024
1.1999979
1.1999104
1.1998323
1.1997978
1.199717
1.2038729
1.2035298
1.2031788
1.202826
1.2024816
1.2021534
1.2018431
1.2015509
1.2012776
1.2010235
1.2007894
1.2005754
1.2003818
1.2002088
1.2000563
1.1999242
1.1998124
1.1997207
1.1996487
1.1995961
1.1995622
1.1995465
1.1995483
1.1995669
1.1996013
1.1996506
1.1997136
1.1997893
1.1998762
1.199973
1.2000781
1.2001897
1.200306
1.2004249
1.2005455
1.2006652
1.2007582
1.2008428
1.2009582
1.2010517
1.2011093
1.2011431
1.2011504
1.2011303
1.2010889
1.2010386
1.2009946
1.2009651
1.2009507
1.2009482
1.2009537
1.2009641
1.2009772
1.2009915
1.201007
1.2010243
1.2010426
1.2010614
1.2010805
1.2011007
1.2011218
1.2011432
1.201165
1.2011875
1.2012102
1.2012331
1.2012562
1.2012794
1.2013025
1.2013255
1.2013484
1.2013713
1.201394
1.2014165
1.2014391
1.2014616
1.2014839
1.2015062
1.2015284
1.2015504
1.2015723
1.201594
1.2016154
1.2016365
1.2016572
1.2016774
1.2016972
1.2017164
1.201735
1.201753
1.2017703
1.2017867
1.2018023
1.2018166
1.2018295
1.2018407
1.2018497
1.2018559
1.201859
1.2018582
1.2018531
1.2018426
1.2018266
1.2018042
1.2017747
1.2017374
1.2016919
1.2016375
1.2015737
1.2015002
1.2014168
1.2013236
1.201221
1.2011096
1.2009902
1.2008642
1.2007334
1.2005998
1.2004662
1.2003352
1.2002101
1.2000941
1.19999
1.1999027
1.1998251
1.1997897
1.1997079
1.2039116
1.2035903
1.2032656
1.2029399
1.2026208
1.2023158
1.2020265
1.2017535
1.2014973
1.2012585
1.2010377
1.2008354
1.2006517
1.200487
1.2003413
1.2002147
1.200107
1.2000182
1.1999481
1.1998962
1.1998622
1.1998454
1.1998453
1.1998611
1.199892
1.1999372
1.1999954
1.2000656
1.2001465
1.2002366
1.2003343
1.2004379
1.2005453
1.2006547
1.2007651
1.2008702
1.2009435
1.2010265
1.2011291
1.2011983
1.2012355
1.2012486
1.2012348
1.201197
1.201145
1.2010922
1.2010513
1.2010265
1.2010148
1.2010126
1.2010165
1.2010246
1.2010349
1.2010461
1.2010584
1.2010728
1.2010884
1.2011045
1.201121
1.2011387
1.2011576
1.2011767
1.2011963
1.2012168
1.2012376
1.2012586
1.2012799
1.2013014
1.201323
1.2013444
1.2013658
1.2013873
1.2014087
1.20143
1.2014514
1.2014727
1.201494
1.2015152
1.2015365
1.2015576
1.2015786
1.2015995
1.2016201
1.2016404
1.2016604
1.20168
1.2016991
1.2017177
1.2017357
1.2017531
1.2017698
1.2017857
1.2018007
1.2018145
1.2018269
1.2018375
1.201846
1.2018517
1.2018542
1.2018529
1.2018472
1.2018362
1.2018197
1.2017968
1.2017668
1.2017292
1.2016833
1.2016285
1.2015644
1.2014906
1.201407
1.2013137
1.201211
1.2010995
1.2009802
1.2008544
1.2007238
1.2005905
1.2004571
1.2003265
1.2002018
1.2000861
1.1999825
1.1998954
1.1998184
1.1997818
1.1997002
1.2039375
1.2036389
1.2033398
1.2030403
1.2027462
1.2024643
1.2021962
1.2019426
1.201704
1.201481
1.2012744
1.2010844
1.2009115
1.200756
1.2006181
1.2004979
1.2003953
1.2003104
1.2002429
1.2001927
1.2001593
1.2001422
1.2001408
1.2001545
1.2001826
1.200224
1.2002779
1.2003429
1.2004179
1.2005014
1.2005918
1.2006871
1.2007855
1.2008852
1.2009849
1.2010708
1.2011281
1.2012096
1.201293
1.2013375
1.2013536
1.2013449
1.201311
1.2012589
1.2012011
1.2011491
1.2011128
1.2010922
1.201082
1.2010789
1.2010804
1.201086
1.2010934
1.2011014
1.2011102
1.2011219
1.2011349
1.2011484
1.2011622
1.2011773
1.201194
1.2012109
1.2012282
1.2012467
1.2012657
1.2012847
1.2013042
1.201324
1.201344
1.2013639
1.2013838
1.2014039
1.201424
1.201444
1.2014641
1.2014843
1.2015045
1.2015247
1.201545
1.2015652
1.2015853
1.2016053
1.2016252
1.2016447
1.201664
1.2016829
1.2017013
1.2017193
1.2017367
1.2017535
1.2017696
1.201785
1.2017994
1.2018127
1.2018245
1.2018346
1.2018425
1.2018477
1.2018496
1.2018478
1.2018416
1.2018301
1.2018131
1.2017897
1.2017593
1.2017212
1.2016749
1.2016198
1.2015553
1.2014813
1.2013974
1.201304
1.2012012
1.2010898
1.2009705
1.2008448
1.2007144
1.2005814
1.2004483
1.2003181
1.2001937
1.2000785
1.1999752
1.1998883
1.1998122
1.1997742
1.1996938
1.2039566
1.2036803
1.2034057
1.2031316
1.2028617
1.2026026
1.2023556
1.2021215
1.2019008
1.201694
1.2015019
1.2013249
1.2011634
1.2010178
1.2008884
1.2007753
1.2006785
1.2005982
1.2005342
1.2004863
1.2004541
1.2004373
1.2004353
1.2004475
1.2004731
1.2005112
1.200561
1.2006211
1.2006904
1.2007672
1.20085
1.2009368
1.2010256
1.2011155
1.2012036
1.2012635
1.2013118
1.2013904
1.2014482
1.2014676
1.2014617
1.2014314
1.2013799
1.2013184
1.2012595
1.2012105
1.2011787
1.2011617
1.2011518
1.2011465
1.2011451
1.2011483
1.2011529
1.2011573
1.2011625
1.2011715
1.2011821
1.201193
1.201204
1.2012165
1.201231
1.2012458
1.2012608
1.2012771
1.2012943
1.2013113
1.201329
1.2013472
1.2013655
1.2013839
1.2014023
1.201421
1.2014397
1.2014584
1.2014774
1.2014964
1.2015155
1.2015346
1.2015539
1.2015732
1.2015924
1.2016116
1.2016306
1.2016494
1.2016679
1.2016861
1.2017039
1.2017212
1.2017381
1.2017543
1.2017698
1.2017846
1.2017985
1.2018112
1.2018225
1.2018321
1.2018394
1.2018441
1.2018454
1.201843
1.2018363
1.2018243
1.2018067
1.2017828
1.201752
1.2017135
1.2016668
1.2016113
1.2015465
1.2014722
1.2013881
1.2012945
1.2011917
1.2010802
1.200961
1.2008355
1.2007053
1.2005726
1.2004399
1.20031
1.200186
1.2000712
1.1999684
1.1998816
1.1998064
1.1997672
1.1996887
1.2039739
1.203718
1.2034667
1.203217
1.202971
1.2027342
1.2025083
1.2022936
1.2020907
1.2019003
1.201723
1.2015593
1.2014096
1.2012744
1.2011539
1.2010484
1.2009581
1.2008829
1.2008228
1.2007778
1.2007474
1.2007314
1.2007292
1.2007402
1.2007637
1.2007989
1.2008447
1.2008999
1.2009634
1.2010334
1.2011083
1.201186
1.2012647
1.2013431
1.2014149
1.2014532
1.2014985
1.201562
1.2015913
1.2015867
1.2015584
1.2015085
1.2014437
1.2013785
1.2013222
1.2012761
1.2012487
1.2012345
1.2012235
1.2012149
1.2012106
1.2012114
1.2012131
1.2012137
1.2012151
1.2012214
1.2012299
1.2012384
1.2012465
1.2012562
1.2012686
1.2012813
1.2012939
1.2013081
1.2013234
1.2013386
1.2013544
1.2013709
1.2013875
1.2014044
1.2014213
1.2014385
1.2014559
1.2014734
1.201491
1.2015089
1.2015269
1.201545
1.2015633
1.2015816
1.2016
1.2016183
1.2016365
1.2016545
1.2016723
1.2016898
1.2017069
1.2017236
1.2017398
1.2017554
1.2017704
1.2017846
1.2017979
1.20181
1.2018208
1.2018298
1.2018366
1.2018407
1.2018415
1.2018386
1.2018312
1.2018187
1.2018006
1.2017763
1.2017449
1.201706
1.2016589
1.201603
1.2015379
1.2014633
1.2013791
1.2012853
1.2011824
1.2010709
1.2009518
1.2008265
1.2006965
1.2005641
1.2004318
1.2003022
1.2001787
1.2000642
1.1999619
1.1998753
1.1998011
1.1997607
1.1996848
1.2039923
1.2037532
1.2035244
1.2032992
1.203077
1.2028626
1.2026575
1.2024621
1.202277
1.2021029
1.2019404
1.20179
1.2016523
1.2015276
1.2014164
1.2013189
1.2012353
1.2011656
1.2011099
1.2010681
1.2010399
1.201025
1.2010229
1.201033
1.2010546
1.2010869
1.2011287
1.2011791
1.2012365
1.2012994
1.2013659
1.201434
1.201502
1.2015679
1.2016182
1.2016389
1.2016808
1.201721
1.2017215
1.2016933
1.2016437
1.201578
1.2015055
1.2014413
1.2013892
1.201346
1.2013236
1.2013095
1.2012953
1.2012846
1.201278
1.2012744
1.2012731
1.2012705
1.2012686
1.2012717
1.2012781
1.2012845
1.2012895
1.2012963
1.2013067
1.2013174
1.2013276
1.2013397
1.2013532
1.2013664
1.2013803
1.2013951
1.2014101
1.2014254
1.2014408
1.2014566
1.2014726
1.2014888
1.2015052
1.2015219
1.2015388
1.2015558
1.2015731
1.2015905
1.2016079
1.2016254
1.2016428
1.20166
1.2016771
1.2016938
1.2017103
1.2017263
1.2017419
1.2017569
1.2017712
1.2017849
1.2017976
1.2018092
1.2018194
1.2018279
1.2018341
1.2018377
1.201838
1.2018345
1.2018265
1.2018135
1.2017949
1.20177
1.2017382
1.2016988
1.2016513
1.201595
1.2015296
1.2014547
1.2013703
1.2012764
1.2011734
1.2010619
1.2009429
1.2008177
1.2006881
1.200556
1.200424
1.2002948
1.2001717
1.2000577
1.1999557
1.1998695
1.1997961
1.1997548
1.199682
1.2040075
1.2037858
1.20358
1.2033801
1.2031827
1.2029911
1.2028068
1.2026305
1.2024628
1.2023047
1.2021567
1.2020195
1.2018936
1.2017795
1.2016776
1.2015882
1.2015114
1.2014475
1.2013964
1.201358
1.2013322
1.2013186
1.2013168
1.2013261
1.2013458
1.2013751
1.2014129
1.201458
1.2015091
1.2015643
1.2016217
1.2016793
1.2017359
1.201788
1.2018091
1.2018197
1.2018553
1.2018649
1.2018375
1.2017863
1.2017189
1.2016434
1.2015678
1.2015078
1.2014595
1.2014241
1.2014035
1.2013841
1.2013678
1.2013549
1.201345
1.2013377
1.2013324
1.2013282
1.201324
1.2013225
1.2013265
1.201331
1.201333
1.2013367
1.2013452
1.2013542
1.2013618
1.2013717
1.2013834
1.2013948
1.2014067
1.2014198
1.2014332
1.2014469
1.2014608
1.2014751
1.2014898
1.2015046
1.2015198
1.2015353
1.2015512
1.2015671
1.2015834
1.2015998
1.2016163
1.2016329
1.2016495
1.201666
1.2016822
1.2016983
1.201714
1.2017294
1.2017443
1.2017587
1.2017725
1.2017855
1.2017977
1.2018087
1.2018184
1.2018263
1.201832
1.201835
1.2018348
1.2018307
1.2018221
1.2018086
1.2017894
1.201764
1.2017318
1.2016919
1.201644
1.2015873
1.2015216
1.2014464
1.2013617
1.2012677
1.2011647
1.2010532
1.2009343
1.2008093
1.2006799
1.2005482
1.2004165
1.2002878
1.2001651
1.2000515
1.19995
1.199864
1.1997915
1.1997494
1.1996801
1.2040281
1.2038398
1.2036504
1.20347
1.203295
1.2031252
1.2029609
1.2028026
1.2026515
1.2025086
1.2023745
1.20225
1.2021356
1.2020318
1.2019391
1.2018576
1.2017877
1.2017296
1.2016831
1.2016483
1.2016249
1.2016126
1.201611
1.2016194
1.2016371
1.2016632
1.2016966
1.2017361
1.2017801
1.2018268
1.2018741
1.2019201
1.2019629
1.2019958
1.2019931
1.2019977
1.2020125
1.2019903
1.2019383
1.2018666
1.2017868
1.2017072
1.201633
1.2015796
1.2015396
1.2015074
1.2014813
1.2014595
1.2014409
1.2014252
1.201412
1.2014013
1.2013925
1.2013852
1.201379
1.2013757
1.2013755
1.2013767
1.2013768
1.2013779
1.2013842
1.2013914
1.2013965
1.2014041
1.2014142
1.2014238
1.2014336
1.201445
1.2014568
1.201469
1.2014812
1.2014941
1.2015075
1.201521
1.2015349
1.2015493
1.201564
1.2015788
1.2015941
1.2016096
1.2016251
1.2016409
1.2016566
1.2016723
1.2016878
1.2017031
1.2017182
1.2017329
1.2017472
1.2017609
1.2017741
1.2017866
1.2017982
1.2018086
1.2018177
1.201825
1.2018302
1.2018326
1.2018319
1.2018272
1.201818
1.201804
1.2017843
1.2017584
1.2017256
1.2016853
1.201637
1.2015799
1.2015138
1.2014384
1.2013535
1.2012593
1.2011562
1.2010448
1.200926
1.2008012
1.2006721
1.2005407
1.2004094
1.2002811
1.2001589
1.2000457
1.1999447
1.199859
1.1997873
1.1997446
1.199679
1.2040492
1.2039233
1.2037651
1.2035902
1.2034255
1.2032721
1.2031247
1.2029825
1.2028463
1.2027173
1.2025962
1.2024836
1.2023802
1.2022862
1.2022023
1.2021286
1.2020654
1.2020128
1.2019708
1.2019394
1.2019183
1.2019072
1.2019056
1.2019129
1.2019282
1.2019507
1.2019791
1.2020121
1.2020482
1.2020853
1.2021214
1.2021546
1.2021818
1.2021893
1.2021675
1.2021635
1.2021491
1.2020973
1.2020243
1.2019362
1.2018503
1.2017713
1.201709
1.2016631
1.201622
1.2015881
1.2015599
1.2015356
1.2015142
1.2014954
1.2014791
1.201465
1.201453
1.2014428
1.2014343
1.2014282
1.2014246
1.2014227
1.2014215
1.2014205
1.2014237
1.2014287
1.2014315
1.201437
1.2014454
1.2014533
1.201461
1.2014707
1.2014808
1.2014915
1.2015022
1.2015135
1.2015256
1.2015378
1.2015505
1.2015636
1.2015772
1.201591
1.2016052
1.2016198
1.2016344
1.2016493
1.2016642
1.201679
1.2016938
1.2017084
1.2017228
1.2017368
1.2017504
1.2017636
1.2017761
1.201788
1.201799
1.2018089
1.2018174
1.2018241
1.2018287
1.2018306
1.2018293
1.2018241
1.2018144
1.2017998
1.2017795
1.2017531
1.2017198
1.2016791
1.2016302
1.2015728
1.2015064
1.2014306
1.2013455
1.2012513
1.2011481
1.2010367
1.2009181
1.2007934
1.2006646
1.2005336
1.2004027
1.2002748
1.200153
1.2000403
1.1999398
1.1998545
1.1997836
1.1997404
1.1996786
1.204123
1.2039876
1.2038623
1.2037272
1.2035714
1.203432
1.2032996
1.2031717
1.2030491
1.2029328
1.2028236
1.2027221
1.2026288
1.2025442
1.2024685
1.2024022
1.2023453
1.202298
1.2022602
1.2022319
1.2022128
1.2022025
1.2022005
1.2022061
1.2022184
1.2022365
1.202259
1.2022846
1.2023115
1.2023376
1.2023611
1.2023802
1.2023893
1.2023623
1.2023297
1.2023126
1.2022626
1.2021861
1.2020969
1.2019992
1.2019152
1.2018491
1.2017947
1.2017459
1.2017047
1.2016696
1.2016391
1.2016119
1.2015875
1.2015655
1.201546
1.2015288
1.2015137
1.2015007
1.2014896
1.2014808
1.2014742
1.2014694
1.2014658
1.2014635
1.2014642
1.2014659
1.2014673
1.2014706
1.201477
1.2014833
1.2014888
1.2014967
1.2015054
1.2015145
1.2015237
1.2015334
1.2015442
1.2015551
1.2015665
1.2015785
1.2015909
1.2016037
1.2016168
1.2016304
1.2016441
1.2016581
1.2016721
1.2016862
1.2017002
1.2017141
1.2017278
1.2017411
1.2017541
1.2017666
1.2017785
1.2017898
1.2018002
1.2018095
1.2018174
1.2018236
1.2018276
1.201829
1.2018271
1.2018213
1.2018111
1.2017959
1.2017751
1.2017481
1.2017143
1.2016731
1.2016238
1.201566
1.2014992
1.2014232
1.2013379
1.2012435
1.2011403
1.201029
1.2009104
1.200786
1.2006575
1.2005268
1.2003964
1.200269
1.2001477
1.2000354
1.1999353
1.1998504
1.1997802
1.1997367
1.1996788
1.2041997
1.2041022
1.2039843
1.2038549
1.2037293
1.2036077
1.2034882
1.2033725
1.2032617
1.2031567
1.2030582
1.2029667
1.2028828
1.2028067
1.2027387
1.2026791
1.2026281
1.2025856
1.2025515
1.2025258
1.2025082
1.2024982