/*--------------------------------*- C++ -*----------------------------------*\
| =========                 |                                                 |
| \\      /  F ield         | OpenFOAM: The Open Source CFD Toolbox           |
|  \\    /   O peration     | Version:  2406                                  |
|   \\  /    A nd           | Website:  www.openfoam.com                      |
|    \\/     M anipulation  |                                                 |
\*---------------------------------------------------------------------------*/
FoamFile
{
    version     2.0;
    format      ascii;
    arch        "LSB;label=32;scalar=64";
    class       volScalarField;
    location    "0.007";
    object      rho;
}
// * * * * * * * * * * * * * * * * * * * * * * * * * * * * * * * * * * * * * //

dimensions      [1 -3 0 0 0 0 0];

internalField   nonuniform List<scalar> 
23204
(
1.2015627
1.2015597
1.201557
1.2015552
1.2015537
1.2015554
1.201562
1.2015672
1.2015712
1.201574
1.2015757
1.2015763
1.2015758
1.2015743
1.2015721
1.2015693
1.2015661
1.2015627
1.2015594
1.2015563
1.2015537
1.2015518
1.2015504
1.2011412
1.2011779
1.2012128
1.2012456
1.2012762
1.201306
1.201334
1.2013599
1.2013845
1.2014074
1.2014287
1.2014485
1.2014667
1.2014833
1.2014983
1.2015119
1.2015241
1.2015347
1.201544
1.2015519
1.2015585
1.2015638
1.2015678
1.2015706
1.2015723
1.2015728
1.2015724
1.2015709
1.2015687
1.2015659
1.2015627
1.2015593
1.201556
1.2015529
1.2015503
1.2015484
1.201547
1.1986992
1.198813
1.1989243
1.1990329
1.199139
1.1992425
1.1993435
1.1994421
1.1995382
1.1996318
1.1997227
1.1998108
1.1998962
1.1999787
1.2000583
1.2001352
1.2002093
1.2002809
1.2003502
1.2004172
1.2004821
1.2005449
1.2006055
1.2006639
1.2007202
1.2007744
1.200827
1.2008772
1.2009253
1.2009715
1.2010156
1.2010576
1.2010984
1.2011373
1.201174
1.2012089
1.2012418
1.2012731
1.2013025
1.2013304
1.2013561
1.2013808
1.2014037
1.2014251
1.2014448
1.2014631
1.2014797
1.2014947
1.2015084
1.2015205
1.2015312
1.2015405
1.2015484
1.201555
1.2015603
1.2015643
1.2015672
1.2015688
1.2015694
1.2015689
1.2015675
1.2015653
1.2015625
1.2015593
1.2015559
1.2015526
1.2015495
1.2015469
1.201545
1.2015436
1.1919879
1.1923474
1.1926999
1.1930457
1.1933848
1.1937167
1.1940428
1.1943635
1.1946683
1.1949589
1.1952411
1.1955078
1.1957562
1.1959841
1.1961893
1.1963704
1.1965276
1.196663
1.1967814
1.1968901
1.1969967
1.1971072
1.1972241
1.197347
1.1974743
1.1976039
1.197734
1.1978635
1.1979917
1.198118
1.1982423
1.1983643
1.198484
1.1986012
1.1987159
1.1988281
1.1989379
1.1990451
1.1991499
1.1992522
1.199352
1.1994495
1.1995445
1.1996371
1.1997272
1.1998145
1.1998992
1.199981
1.2000601
1.2001365
1.2002101
1.2002812
1.2003501
1.2004167
1.2004812
1.2005436
1.2006039
1.2006621
1.2007181
1.2007722
1.2008244
1.2008745
1.2009224
1.2009684
1.2010125
1.2010546
1.2010951
1.2011336
1.20117
1.2012048
1.2012383
1.20127
1.2012992
1.2013267
1.2013527
1.2013771
1.2014
1.2014214
1.2014412
1.2014594
1.2014761
1.2014912
1.2015048
1.201517
1.2015277
1.201537
1.2015449
1.2015515
1.2015568
1.2015609
1.2015637
1.2015653
1.2015659
1.2015654
1.201564
1.2015618
1.201559
1.2015558
1.2015524
1.2015491
1.2015461
1.2015435
1.2015416
1.2015402
1.1921657
1.192518
1.1928634
1.193202
1.1935338
1.1938585
1.1941773
1.194491
1.1947882
1.1950712
1.1953461
1.1956056
1.195847
1.1960681
1.1962669
1.1964421
1.1965939
1.1967246
1.196839
1.1969443
1.1970479
1.1971556
1.1972698
1.19739
1.1975146
1.1976415
1.197769
1.197896
1.1980217
1.1981458
1.1982679
1.1983878
1.1985055
1.1986209
1.1987338
1.1988445
1.1989527
1.1990585
1.1991618
1.1992628
1.1993614
1.1994577
1.1995517
1.1996433
1.1997324
1.1998189
1.1999028
1.199984
1.2000625
1.2001382
1.2002114
1.200282
1.2003504
1.2004165
1.2004806
1.2005427
1.2006026
1.2006605
1.2007163
1.2007701
1.2008221
1.200872
1.2009198
1.2009656
1.2010096
1.2010515
1.2010915
1.2011303
1.201167
1.2012015
1.2012348
1.2012658
1.2012953
1.2013239
1.2013494
1.2013735
1.2013964
1.2014178
1.2014376
1.2014558
1.2014725
1.2014876
1.2015012
1.2015134
1.2015241
1.2015334
1.2015414
1.201548
1.2015533
1.2015574
1.2015602
1.2015619
1.2015624
1.201562
1.2015605
1.2015584
1.2015555
1.2015524
1.201549
1.2015457
1.2015426
1.20154
1.2015382
1.2015367
1.1923499
1.1926947
1.1930326
1.1933637
1.193688
1.1940051
1.1943164
1.1946228
1.1949123
1.1951873
1.1954547
1.1957068
1.195941
1.1961552
1.1963474
1.1965165
1.1966628
1.1967887
1.196899
1.1970008
1.1971015
1.1972063
1.1973177
1.1974351
1.1975569
1.197681
1.1978058
1.1979302
1.1980535
1.1981752
1.198295
1.1984128
1.1985284
1.1986419
1.1987531
1.198862
1.1989686
1.1990729
1.1991749
1.1992745
1.1993718
1.1994669
1.1995597
1.1996502
1.1997383
1.199824
1.1999071
1.1999875
1.2000654
1.2001405
1.2002131
1.2002832
1.2003511
1.2004168
1.2004804
1.2005421
1.2006017
1.2006593
1.2007148
1.2007683
1.20082
1.2008697
1.2009173
1.2009629
1.2010067
1.2010486
1.2010885
1.2011272
1.2011637
1.201198
1.2012308
1.2012622
1.2012921
1.2013205
1.201346
1.2013698
1.2013928
1.2014142
1.201434
1.2014522
1.2014689
1.201484
1.2014977
1.2015099
1.2015206
1.2015299
1.2015379
1.2015445
1.2015498
1.2015539
1.2015567
1.2015584
1.2015589
1.2015585
1.2015571
1.2015549
1.201552
1.2015489
1.2015455
1.2015422
1.2015392
1.2015366
1.2015347
1.2015333
1.19254
1.1928771
1.1932072
1.1935306
1.1938471
1.1941563
1.1944599
1.1947587
1.1950403
1.1953072
1.1955669
1.1958115
1.1960383
1.1962454
1.1964309
1.1965938
1.1967344
1.1968554
1.1969615
1.1970598
1.1971573
1.1972593
1.1973678
1.1974823
1.1976012
1.1977225
1.1978445
1.1979662
1.1980869
1.1982062
1.1983237
1.1984392
1.1985528
1.1986643
1.1987736
1.1988808
1.1989857
1.1990884
1.1991889
1.1992871
1.1993831
1.1994769
1.1995685
1.1996579
1.199745
1.1998297
1.199912
1.1999917
1.2000688
1.2001434
1.2002153
1.2002849
1.2003523
1.2004175
1.2004806
1.2005418
1.2006011
1.2006583
1.2007135
1.2007668
1.2008181
1.2008676
1.200915
1.2009604
1.2010041
1.2010458
1.2010856
1.201124
1.2011604
1.201195
1.2012277
1.2012589
1.2012886
1.2013164
1.2013427
1.2013666
1.2013892
1.2014106
1.2014304
1.2014487
1.2014653
1.2014805
1.2014941
1.2015063
1.2015171
1.2015264
1.2015344
1.201541
1.2015463
1.2015504
1.2015532
1.2015549
1.2015554
1.201555
1.2015535
1.2015513
1.2015485
1.2015454
1.201542
1.2015387
1.2015357
1.2015331
1.2015312
1.2015298
1.1923992
1.1927357
1.1930648
1.1933869
1.1937023
1.1940108
1.194312
1.1946077
1.1948987
1.1951721
1.1954308
1.1956826
1.1959194
1.1961387
1.1963385
1.1965172
1.1966737
1.1968086
1.1969246
1.1970265
1.1971212
1.1972155
1.1973145
1.19742
1.1975316
1.1976475
1.1977659
1.1978851
1.1980041
1.1981221
1.1982388
1.1983539
1.1984672
1.1985786
1.1986881
1.1987955
1.1989008
1.199004
1.1991051
1.199204
1.1993008
1.1993954
1.1994879
1.1995782
1.1996665
1.1997525
1.1998362
1.1999176
1.1999964
1.2000728
1.2001467
1.2002181
1.2002871
1.2003539
1.2004186
1.2004812
1.200542
1.2006008
1.2006577
1.2007126
1.2007655
1.2008165
1.2008657
1.2009129
1.2009581
1.2010015
1.2010431
1.2010828
1.201121
1.2011573
1.201192
1.2012245
1.2012555
1.2012849
1.2013132
1.2013397
1.2013634
1.2013855
1.2014069
1.2014269
1.2014451
1.2014618
1.201477
1.2014906
1.2015028
1.2015136
1.2015229
1.2015308
1.2015375
1.2015428
1.2015468
1.2015497
1.2015513
1.2015519
1.2015514
1.20155
1.2015478
1.201545
1.2015418
1.2015385
1.2015352
1.2015322
1.2015296
1.2015277
1.2015263
1.1926085
1.1929367
1.1932575
1.1935715
1.1938787
1.1941789
1.194472
1.1947594
1.1950425
1.1953077
1.1955579
1.1958016
1.1960306
1.1962422
1.1964346
1.1966062
1.1967563
1.1968854
1.1969962
1.1970938
1.1971849
1.197276
1.1973719
1.1974744
1.197583
1.1976959
1.1978112
1.1979275
1.1980437
1.198159
1.1982732
1.1983858
1.1984967
1.1986059
1.1987132
1.1988186
1.198922
1.1990235
1.1991229
1.1992202
1.1993155
1.1994086
1.1994997
1.1995888
1.1996758
1.1997607
1.1998434
1.1999238
1.2000018
1.2000774
1.2001506
1.2002213
1.2002897
1.2003559
1.20042
1.2004822
1.2005425
1.2006009
1.2006573
1.2007119
1.2007645
1.2008152
1.2008641
1.200911
1.200956
1.2009992
1.2010406
1.2010802
1.2011182
1.2011544
1.2011887
1.2012214
1.2012526
1.2012818
1.2013095
1.2013359
1.2013601
1.2013824
1.2014036
1.2014234
1.2014416
1.2014583
1.2014734
1.2014871
1.2014993
1.20151
1.2015194
1.2015273
1.2015339
1.2015393
1.2015433
1.2015461
1.2015478
1.2015483
1.2015479
1.2015465
1.2015443
1.2015414
1.2015383
1.2015349
1.2015316
1.2015286
1.201526
1.2015242
1.2015227
1.1928228
1.1931425
1.193455
1.1937605
1.1940594
1.1943512
1.1946359
1.194915
1.1951899
1.1954467
1.1956883
1.1959238
1.1961447
1.1963485
1.1965334
1.1966979
1.1968414
1.1969646
1.1970703
1.1971635
1.1972508
1.1973387
1.1974315
1.197531
1.1976364
1.1977462
1.1978585
1.1979718
1.1980851
1.1981976
1.1983091
1.1984192
1.1985277
1.1986346
1.1987397
1.1988431
1.1989445
1.1990441
1.1991417
1.1992374
1.1993311
1.1994228
1.1995125
1.1996002
1.199686
1.1997697
1.1998513
1.1999307
1.2000078
1.2000826
1.200155
1.2002251
1.2002928
1.2003584
1.200422
1.2004836
1.2005433
1.2006013
1.2006573
1.2007115
1.2007637
1.2008141
1.2008627
1.2009094
1.2009542
1.2009971
1.2010383
1.2010777
1.2011154
1.2011515
1.2011858
1.2012185
1.2012496
1.2012785
1.2013061
1.2013326
1.2013568
1.2013792
1.2014001
1.2014199
1.2014381
1.2014548
1.2014699
1.2014836
1.2014958
1.2015065
1.2015159
1.2015238
1.2015304
1.2015357
1.2015398
1.2015426
1.2015443
1.2015448
1.2015443
1.2015429
1.2015407
1.2015379
1.2015347
1.2015313
1.2015281
1.2015251
1.2015225
1.2015206
1.2015192
1.1930416
1.1933528
1.1936567
1.1939537
1.194244
1.1945274
1.1948035
1.1950741
1.1953407
1.195589
1.1958218
1.1960491
1.1962618
1.1964576
1.1966349
1.1967922
1.196929
1.1970462
1.1971468
1.1972356
1.1973191
1.1974036
1.1974933
1.1975896
1.1976919
1.1977985
1.1979076
1.1980179
1.1981282
1.198238
1.1983467
1.1984542
1.1985602
1.1986647
1.1987676
1.1988688
1.1989683
1.1990659
1.1991617
1.1992557
1.1993478
1.1994379
1.1995262
1.1996125
1.1996969
1.1997795
1.19986
1.1999383
1.2000145
1.2000884
1.20016
1.2002294
1.2002964
1.2003614
1.2004243
1.2004853
1.2005446
1.200602
1.2006576
1.2007114
1.2007632
1.2008133
1.2008615
1.2009079
1.2009525
1.2009952
1.2010362
1.2010753
1.2011129
1.2011488
1.201183
1.2012156
1.2012464
1.2012753
1.2013027
1.2013291
1.2013537
1.2013761
1.2013971
1.2014166
1.2014347
1.2014513
1.2014665
1.2014801
1.2014923
1.201503
1.2015124
1.2015203
1.2015269
1.2015322
1.2015362
1.2015391
1.2015407
1.2015412
1.2015407
1.2015393
1.2015371
1.2015343
1.2015311
1.2015277
1.2015245
1.2015215
1.2015189
1.201517
1.2015156
1.1932645
1.1935669
1.1938622
1.1941506
1.1944323
1.1947071
1.1949745
1.1952364
1.1954947
1.1957343
1.1959584
1.1961771
1.1963816
1.1965694
1.1967389
1.1968889
1.197019
1.1971302
1.1972255
1.1973098
1.1973896
1.1974707
1.1975571
1.1976503
1.1977494
1.1978527
1.1979587
1.1980658
1.1981731
1.1982799
1.1983859
1.1984907
1.1985942
1.1986963
1.1987969
1.1988959
1.1989932
1.1990889
1.1991829
1.199275
1.1993654
1.199454
1.1995407
1.1996257
1.1997088
1.19979
1.1998693
1.1999466
1.2000218
1.2000948
1.2001656
1.2002342
1.2003005
1.2003648
1.2004271
1.2004875
1.2005462
1.2006031
1.2006582
1.2007116
1.200763
1.2008127
1.2008606
1.2009067
1.200951
1.2009934
1.2010342
1.2010732
1.2011105
1.2011462
1.2011803
1.2012128
1.2012434
1.2012723
1.2012995
1.2013256
1.2013502
1.2013728
1.2013939
1.2014134
1.2014313
1.2014479
1.201463
1.2014766
1.2014888
1.2014995
1.2015089
1.2015168
1.2015234
1.2015287
1.2015327
1.2015355
1.2015371
1.2015376
1.2015371
1.2015357
1.2015335
1.2015307
1.2015275
1.2015241
1.2015208
1.2015179
1.2015153
1.2015134
1.201512
1.1934908
1.1937845
1.1940711
1.1943509
1.1946239
1.1948899
1.1951486
1.1954018
1.1956516
1.1958825
1.1960976
1.1963078
1.1965039
1.1966836
1.1968453
1.196988
1.1971113
1.1972164
1.1973064
1.1973863
1.1974622
1.1975399
1.1976231
1.197713
1.1978088
1.1979089
1.1980116
1.1981155
1.1982197
1.1983236
1.1984267
1.1985288
1.1986297
1.1987293
1.1988275
1.1989242
1.1990194
1.1991131
1.1992051
1.1992954
1.1993841
1.199471
1.1995562
1.1996397
1.1997214
1.1998013
1.1998795
1.1999556
1.2000298
1.2001018
1.2001717
1.2002395
1.2003051
1.2003687
1.2004303
1.2004901
1.2005482
1.2006046
1.2006592
1.2007121
1.2007631
1.2008124
1.2008599
1.2009057
1.2009497
1.2009919
1.2010324
1.2010711
1.2011082
1.2011437
1.2011777
1.20121
1.2012405
1.2012695
1.2012965
1.2013221
1.2013466
1.2013697
1.201391
1.2014102
1.2014279
1.2014445
1.2014596
1.2014732
1.2014853
1.201496
1.2015053
1.2015133
1.2015198
1.2015251
1.2015291
1.2015319
1.2015335
1.201534
1.2015335
1.2015321
1.2015299
1.201527
1.2015238
1.2015205
1.2015172
1.2015142
1.2015116
1.2015098
1.2015084
1.19372
1.1940051
1.194283
1.1945541
1.1948184
1.1950756
1.1953255
1.1955699
1.1958111
1.1960332
1.1962394
1.196441
1.1966286
1.1968001
1.1969539
1.1970892
1.1972057
1.1973047
1.1973894
1.1974648
1.1975369
1.1976112
1.1976911
1.1977777
1.1978701
1.1979669
1.1980663
1.198167
1.198268
1.1983689
1.1984691
1.1985684
1.1986666
1.1987636
1.1988594
1.1989538
1.1990468
1.1991384
1.1992284
1.1993169
1.1994038
1.199489
1.1995726
1.1996546
1.1997349
1.1998135
1.1998903
1.1999653
1.2000384
1.2001095
1.2001785
1.2002454
1.2003102
1.200373
1.200434
1.2004932
1.2005506
1.2006064
1.2006606
1.2007129
1.2007635
1.2008124
1.2008595
1.200905
1.2009486
1.2009906
1.2010308
1.2010693
1.2011062
1.2011414
1.2011752
1.2012073
1.2012378
1.2012667
1.2012936
1.2013191
1.2013435
1.2013666
1.2013879
1.201407
1.2014244
1.2014411
1.2014562
1.2014698
1.2014819
1.2014925
1.2015019
1.2015098
1.2015163
1.2015216
1.2015256
1.2015283
1.2015299
1.2015304
1.2015299
1.2015284
1.2015262
1.2015234
1.2015202
1.2015168
1.2015136
1.2015106
1.201508
1.2015062
1.2015047
1.1939517
1.1942282
1.1944974
1.1947598
1.1950153
1.1952638
1.1955049
1.1957404
1.195973
1.1961863
1.1963835
1.1965764
1.1967555
1.1969187
1.1970647
1.1971925
1.1973022
1.1973951
1.1974745
1.1975454
1.1976136
1.1976844
1.197761
1.1978443
1.1979334
1.1980267
1.1981227
1.1982201
1.198318
1.1984157
1.198513
1.1986094
1.1987049
1.1987994
1.1988926
1.1989847
1.1990754
1.1991648
1.1992528
1.1993394
1.1994245
1.199508
1.19959
1.1996703
1.1997492
1.1998264
1.1999019
1.1999757
1.2000477
1.2001177
1.2001858
1.2002518
1.2003158
1.2003779
1.2004381
1.2004966
1.2005535
1.2006087
1.2006622
1.2007141
1.2007642
1.2008127
1.2008594
1.2009045
1.2009478
1.2009894
1.2010294
1.2010677
1.2011043
1.2011393
1.2011729
1.2012048
1.2012351
1.2012639
1.2012909
1.2013163
1.2013405
1.2013634
1.2013845
1.2014034
1.2014213
1.2014379
1.2014528
1.2014663
1.2014784
1.2014891
1.2014984
1.2015063
1.2015128
1.201518
1.201522
1.2015248
1.2015263
1.2015268
1.2015262
1.2015248
1.2015226
1.2015197
1.2015165
1.2015132
1.2015099
1.2015069
1.2015043
1.2015025
1.2015011
1.1941853
1.1944532
1.1947139
1.1949676
1.1952144
1.1954541
1.1956864
1.195913
1.1961369
1.1963414
1.1965297
1.1967138
1.1968844
1.1970393
1.1971773
1.1972977
1.1974005
1.1974874
1.1975615
1.197628
1.1976923
1.1977596
1.1978329
1.1979128
1.1979984
1.1980883
1.1981809
1.198275
1.1983696
1.1984642
1.1985584
1.198652
1.1987447
1.1988365
1.1989272
1.1990168
1.1991052
1.1991924
1.1992784
1.199363
1.1994461
1.1995279
1.1996082
1.199687
1.1997643
1.1998401
1.1999143
1.1999868
1.2000577
1.2001266
1.2001937
1.2002588
1.2003219
1.2003832
1.2004427
1.2005005
1.2005567
1.2006113
1.2006642
1.2007156
1.2007652
1.2008132
1.2008595
1.2009042
1.2009472
1.2009885
1.2010281
1.2010662
1.2011026
1.2011374
1.2011707
1.2012024
1.2012325
1.2012612
1.2012882
1.2013135
1.2013375
1.2013602
1.2013809
1.2014003
1.2014184
1.2014347
1.2014495
1.2014629
1.201475
1.2014856
1.2014949
1.2015028
1.2015093
1.2015145
1.2015184
1.2015212
1.2015227
1.2015232
1.2015226
1.2015211
1.2015189
1.201516
1.2015128
1.2015095
1.2015062
1.2015032
1.2015006
1.2014988
1.2014974
1.1944203
1.1946797
1.1949319
1.1951771
1.1954153
1.1956462
1.1958697
1.1960875
1.1963027
1.1964984
1.1966777
1.196853
1.197015
1.1971616
1.1972917
1.1974047
1.1975007
1.1975815
1.1976504
1.1977124
1.1977729
1.1978367
1.1979065
1.197983
1.1980652
1.1981517
1.1982408
1.1983315
1.1984228
1.1985142
1.1986053
1.1986959
1.1987858
1.1988749
1.198963
1.1990502
1.1991362
1.1992212
1.199305
1.1993875
1.1994688
1.1995488
1.1996273
1.1997045
1.1997802
1.1998546
1.1999274
1.1999987
1.2000683
1.2001361
1.2002021
1.2002663
1.2003286
1.200389
1.2004477
1.2005048
1.2005603
1.2006142
1.2006666
1.2007174
1.2007666
1.200814
1.2008599
1.2009042
1.2009468
1.2009877
1.2010271
1.2010649
1.201101
1.2011356
1.2011687
1.2012002
1.2012301
1.2012586
1.2012855
1.2013108
1.2013346
1.201357
1.2013778
1.2013973
1.2014152
1.2014315
1.2014462
1.2014596
1.2014716
1.2014822
1.2014914
1.2014993
1.2015058
1.2015109
1.2015149
1.2015176
1.2015191
1.2015195
1.2015189
1.2015174
1.2015152
1.2015123
1.2015091
1.2015057
1.2015025
1.2014995
1.2014969
1.2014951
1.2014936
1.1946561
1.1949073
1.1951511
1.1953878
1.1956174
1.1958397
1.1960544
1.1962634
1.1964699
1.196657
1.1968274
1.1969938
1.1971472
1.1972855
1.1974077
1.1975133
1.1976025
1.1976773
1.197741
1.1977985
1.1978552
1.1979155
1.1979819
1.198055
1.1981337
1.1982167
1.1983023
1.1983895
1.1984775
1.1985657
1.1986537
1.1987413
1.1988283
1.1989146
1.1990001
1.1990847
1.1991684
1.1992511
1.1993327
1.1994132
1.1994925
1.1995706
1.1996474
1.1997229
1.199797
1.1998698
1.1999413
1.2000112
1.2000796
1.2001463
1.2002112
1.2002744
1.2003357
1.2003953
1.2004533
1.2005096
1.2005643
1.2006176
1.2006693
1.2007195
1.2007682
1.2008152
1.2008606
1.2009044
1.2009466
1.2009872
1.2010263
1.2010637
1.2010996
1.2011339
1.2011668
1.201198
1.2012278
1.2012562
1.2012829
1.2013081
1.2013318
1.2013541
1.2013749
1.2013942
1.2014121
1.2014284
1.2014427
1.2014561
1.2014683
1.2014788
1.201488
1.2014958
1.2015023
1.2015074
1.2015113
1.201514
1.2015155
1.2015159
1.2015153
1.2015137
1.2015115
1.2015086
1.2015054
1.201502
1.2014987
1.2014957
1.2014932
1.2014913
1.2014899
1.1948924
1.1951355
1.1953711
1.1955994
1.1958206
1.1960343
1.1962402
1.1964403
1.1966382
1.1968171
1.196979
1.1971358
1.1972806
1.1974107
1.1975251
1.1976233
1.1977058
1.1977746
1.1978332
1.1978863
1.1979392
1.197996
1.198059
1.1981286
1.1982039
1.1982832
1.1983654
1.1984491
1.1985337
1.1986186
1.1987035
1.198788
1.1988721
1.1989556
1.1990384
1.1991205
1.1992017
1.199282
1.1993614
1.1994398
1.1995171
1.1995933
1.1996683
1.1997421
1.1998146
1.1998859
1.1999559
1.2000244
1.2000915
1.200157
1.2002209
1.200283
1.2003434
1.2004021
1.2004592
1.2005147
1.2005688
1.2006213
1.2006724
1.200722
1.2007701
1.2008166
1.2008615
1.2009049
1.2009467
1.2009869
1.2010256
1.2010628
1.2010984
1.2011324
1.201165
1.2011961
1.2012257
1.2012538
1.2012804
1.2013055
1.2013291
1.2013513
1.2013719
1.2013912
1.2014088
1.2014249
1.2014396
1.2014529
1.2014649
1.2014754
1.2014846
1.2014924
1.2014988
1.2015039
1.2015077
1.2015104
1.2015119
1.2015122
1.2015116
1.20151
1.2015077
1.2015049
1.2015016
1.2014982
1.201495
1.201492
1.2014894
1.2014876
1.2014861
1.1951285
1.1953638
1.1955914
1.1958116
1.1960243
1.1962295
1.1964268
1.1966179
1.1968063
1.1969798
1.1971332
1.1972779
1.1974149
1.197537
1.1976436
1.1977346
1.1978105
1.1978734
1.1979269
1.1979757
1.1980248
1.1980781
1.1981377
1.1982038
1.1982755
1.1983513
1.1984299
1.1985102
1.1985914
1.198673
1.1987546
1.1988361
1.1989172
1.1989979
1.199078
1.1991574
1.1992361
1.1993141
1.1993912
1.1994674
1.1995427
1.199617
1.1996901
1.1997622
1.1998331
1.1999028
1.1999712
1.2000384
1.2001041
1.2001684
1.2002311
1.2002922
1.2003516
1.2004094
1.2004657
1.2005204
1.2005736
1.2006255
1.2006759
1.2007249
1.2007723
1.2008183
1.2008627
1.2009056
1.200947
1.2009868
1.2010252
1.201062
1.2010973
1.2011311
1.2011634
1.2011943
1.2012237
1.2012516
1.201278
1.201303
1.2013264
1.2013485
1.201369
1.2013881
1.2014055
1.2014219
1.2014368
1.2014497
1.2014616
1.201472
1.2014812
1.2014889
1.2014953
1.2015004
1.2015042
1.2015068
1.2015082
1.2015086
1.2015079
1.2015063
1.201504
1.2015011
1.2014979
1.2014945
1.2014912
1.2014882
1.2014856
1.2014838
1.2014824
1.1953642
1.1955919
1.1958117
1.1960238
1.1962284
1.1964252
1.1966139
1.1967963
1.196976
1.1971423
1.1972867
1.1974218
1.1975503
1.1976644
1.1977633
1.197847
1.1979163
1.1979735
1.198022
1.1980665
1.1981118
1.1981617
1.1982179
1.1982805
1.1983487
1.1984209
1.1984959
1.1985726
1.1986504
1.1987286
1.1988071
1.1988854
1.1989636
1.1990413
1.1991187
1.1991955
1.1992717
1.1993472
1.199422
1.1994961
1.1995693
1.1996416
1.1997128
1.1997831
1.1998523
1.1999204
1.1999873
1.200053
1.2001174
1.2001804
1.200242
1.200302
1.2003604
1.2004172
1.2004726
1.2005264
1.2005789
1.20063
1.2006797
1.200728
1.2007749
1.2008203
1.2008642
1.2009066
1.2009475
1.200987
1.2010249
1.2010614
1.2010964
1.2011299
1.201162
1.2011926
1.2012218
1.2012495
1.2012757
1.2013005
1.2013239
1.2013457
1.2013661
1.201385
1.2014024
1.2014188
1.2014338
1.2014467
1.2014583
1.2014686
1.2014778
1.2014855
1.2014918
1.2014968
1.2015006
1.2015032
1.2015046
1.2015049
1.2015042
1.2015026
1.2015003
1.2014973
1.2014941
1.2014907
1.2014874
1.2014844
1.2014818
1.20148
1.2014786
1.1955989
1.1958193
1.1960315
1.1962358
1.1964324
1.196621
1.1968014
1.1969752
1.1971459
1.1973046
1.1974406
1.1975663
1.1976865
1.1977926
1.1978839
1.1979604
1.1980233
1.1980747
1.1981183
1.1981587
1.1982003
1.1982467
1.1982994
1.1983586
1.1984232
1.1984918
1.1985632
1.1986364
1.1987107
1.1987856
1.1988608
1.198936
1.1990111
1.199086
1.1991605
1.1992346
1.1993083
1.1993814
1.1994539
1.1995257
1.1995968
1.199667
1.1997364
1.1998049
1.1998723
1.1999388
1.2000041
1.2000684
1.2001314
1.2001931
1.2002534
1.2003123
1.2003697
1.2004255
1.20048
1.200533
1.2005846
1.2006349
1.2006839
1.2007315
1.2007778
1.2008226
1.2008659
1.2009078
1.2009483
1.2009873
1.2010249
1.201061
1.2010957
1.2011289
1.2011607
1.201191
1.20122
1.2012475
1.2012736
1.2012982
1.2013214
1.2013431
1.2013633
1.2013821
1.2013995
1.2014155
1.2014308
1.2014439
1.2014549
1.2014651
1.2014744
1.2014821
1.2014884
1.2014933
1.201497
1.2014996
1.201501
1.2015012
1.2015005
1.2014989
1.2014965
1.2014935
1.2014903
1.2014869
1.2014835
1.2014805
1.201478
1.2014761
1.2014747
1.1958322
1.1960456
1.1962505
1.1964473
1.1966361
1.1968167
1.1969889
1.1971541
1.197316
1.1974668
1.1975945
1.1977113
1.1978233
1.1979215
1.1980052
1.1980747
1.1981312
1.198177
1.1982158
1.198252
1.19829
1.1983329
1.1983823
1.198438
1.198499
1.198564
1.1986318
1.1987015
1.1987723
1.1988438
1.1989157
1.1989877
1.1990598
1.1991317
1.1992035
1.1992749
1.1993459
1.1994165
1.1994867
1.1995562
1.1996252
1.1996934
1.1997608
1.1998274
1.1998931
1.1999579
1.2000217
1.2000844
1.200146
1.2002064
1.2002655
1.2003232
1.2003795
1.2004343
1.2004878
1.2005399
1.2005907
1.2006402
1.2006885
1.2007354
1.200781
1.2008252
1.200868
1.2009094
1.2009494
1.2009879
1.2010251
1.2010608
1.2010952
1.201128
1.2011595
1.2011896
1.2012183
1.2012457
1.2012715
1.201296
1.2013189
1.2013405
1.2013606
1.2013793
1.2013966
1.2014126
1.2014273
1.2014405
1.2014518
1.201462
1.2014711
1.2014787
1.2014849
1.2014898
1.2014935
1.201496
1.2014973
1.2014976
1.2014968
1.2014951
1.2014927
1.2014897
1.2014864
1.201483
1.2014797
1.2014767
1.2014741
1.2014723
1.2014709
1.1960638
1.1962705
1.1964684
1.1966578
1.196839
1.1970117
1.1971759
1.1973327
1.1974859
1.1976288
1.1977483
1.1978566
1.1979604
1.1980508
1.1981271
1.1981897
1.1982399
1.1982803
1.1983144
1.1983465
1.1983809
1.1984204
1.1984664
1.1985186
1.198576
1.1986374
1.1987016
1.1987677
1.198835
1.1989031
1.1989717
1.1990406
1.1991096
1.1991786
1.1992475
1.1993162
1.1993846
1.1994527
1.1995204
1.1995877
1.1996545
1.1997206
1.1997861
1.1998508
1.1999147
1.1999778
1.2000399
1.2001011
1.2001613
1.2002203
1.2002781
1.2003346
1.2003898
1.2004436
1.2004961
1.2005473
1.2005972
1.2006459
1.2006934
1.2007396
1.2007845
1.2008281
1.2008703
1.2009112
1.2009507
1.2009888
1.2010255
1.2010608
1.2010948
1.2011274
1.2011585
1.2011884
1.2012168
1.2012439
1.2012695
1.2012938
1.2013166
1.201338
1.201358
1.2013766
1.2013938
1.2014096
1.2014243
1.2014375
1.2014487
1.2014589
1.2014678
1.2014753
1.2014815
1.2014864
1.20149
1.2014924
1.2014937
1.2014939
1.2014931
1.2014914
1.2014889
1.2014859
1.2014826
1.2014792
1.2014758
1.2014728
1.2014702
1.2014684
1.201467
1.1962931
1.1964935
1.1966847
1.1968671
1.1970408
1.1972059
1.1973622
1.1975107
1.1976554
1.1977905
1.197902
1.1980018
1.1980976
1.1981804
1.1982493
1.1983051
1.1983493
1.1983843
1.1984138
1.198442
1.1984728
1.198509
1.1985515
1.1986002
1.1986541
1.1987119
1.1987725
1.198835
1.1988988
1.1989636
1.1990289
1.1990946
1.1991605
1.1992265
1.1992925
1.1993584
1.1994242
1.1994898
1.1995551
1.1996201
1.1996846
1.1997487
1.1998121
1.1998749
1.199937
1.1999984
1.2000589
1.2001185
1.2001772
1.2002348
1.2002913
1.2003466
1.2004007
1.2004534
1.2005049
1.2005552
1.2006042
1.200652
1.2006987
1.2007442
1.2007884
1.2008313
1.2008729
1.2009132
1.2009522
1.2009898
1.2010261
1.201061
1.2010946
1.2011268
1.2011577
1.2011873
1.2012155
1.2012423
1.2012677
1.2012917
1.2013144
1.2013356
1.2013554
1.2013739
1.201391
1.2014066
1.201421
1.2014343
1.2014457
1.2014558
1.2014645
1.2014719
1.2014781
1.2014829
1.2014864
1.2014888
1.20149
1.2014902
1.2014893
1.2014876
1.2014851
1.2014821
1.2014788
1.2014753
1.2014719
1.2014689
1.2014663
1.2014645
1.2014631
1.1965199
1.1967143
1.1968991
1.1970747
1.1972413
1.197399
1.1975475
1.1976879
1.1978243
1.1979516
1.1980553
1.1981468
1.1982347
1.1983099
1.1983717
1.1984209
1.1984591
1.198489
1.198514
1.1985384
1.1985657
1.1985985
1.1986377
1.1986829
1.1987332
1.1987874
1.1988444
1.1989034
1.1989637
1.199025
1.199087
1.1991495
1.1992123
1.1992753
1.1993385
1.1994017
1.1994648
1.1995279
1.1995907
1.1996533
1.1997157
1.1997776
1.199839
1.1998999
1.1999601
1.2000197
1.2000785
1.2001366
1.2001937
1.20025
1.2003051
1.2003592
1.2004121
1.2004637
1.2005142
1.2005635
1.2006116
1.2006585
1.2007044
1.2007491
1.2007926
1.2008349
1.2008759
1.2009156
1.200954
1.2009911
1.2010269
1.2010614
1.2010946
1.2011265
1.201157
1.2011863
1.2012142
1.2012408
1.2012659
1.2012898
1.2013122
1.2013333
1.201353
1.2013713
1.2013883
1.2014038
1.201418
1.201431
1.2014428
1.2014527
1.2014612
1.2014686
1.2014746
1.2014794
1.2014829
1.2014852
1.2014864
1.2014865
1.2014856
1.2014838
1.2014813
1.2014783
1.2014749
1.2014714
1.201468
1.201465
1.2014624
1.2014606
1.2014592
1.1967437
1.1969325
1.1971112
1.1972803
1.19744
1.1975905
1.1977316
1.1978641
1.1979922
1.1981118
1.1982079
1.1982914
1.1983715
1.1984393
1.1984941
1.1985369
1.1985693
1.1985941
1.1986148
1.1986354
1.1986594
1.1986889
1.1987247
1.1987665
1.1988132
1.1988638
1.1989172
1.1989726
1.1990295
1.1990874
1.1991461
1.1992054
1.1992651
1.1993251
1.1993854
1.1994458
1.1995063
1.1995668
1.1996272
1.1996874
1.1997475
1.1998072
1.1998666
1.1999255
1.1999839
1.2000417
1.2000989
1.2001553
1.2002109
1.2002657
1.2003195
1.2003723
1.200424
1.2004745
1.2005239
1.2005722
1.2006194
1.2006654
1.2007104
1.2007543
1.2007971
1.2008387
1.2008791
1.2009182
1.2009561
1.2009927
1.201028
1.2010621
1.2010948
1.2011263
1.2011565
1.2011855
1.2012131
1.2012394
1.2012643
1.2012879
1.2013102
1.201331
1.2013506
1.2013687
1.2013856
1.2014011
1.201415
1.2014279
1.2014399
1.2014497
1.201458
1.2014652
1.2014712
1.2014759
1.2014794
1.2014816
1.2014828
1.2014828
1.2014819
1.20148
1.2014775
1.2014744
1.201471
1.2014675
1.2014641
1.2014611
1.2014585
1.2014567
1.2014553
1.1969642
1.1971478
1.1973207
1.1974836
1.1976368
1.1977803
1.1979141
1.1980388
1.198159
1.198271
1.1983596
1.1984353
1.1985078
1.1985684
1.1986164
1.1986529
1.1986797
1.1986996
1.1987162
1.1987331
1.1987537
1.1987799
1.1988124
1.1988508
1.198894
1.1989411
1.1989909
1.1990428
1.1990961
1.1991507
1.1992061
1.1992621
1.1993188
1.1993758
1.1994332
1.1994908
1.1995486
1.1996065
1.1996644
1.1997223
1.1997801
1.1998377
1.199895
1.1999519
1.2000084
1.2000644
1.2001198
1.2001746
1.2002287
1.200282
1.2003344
1.2003859
1.2004364
1.2004858
1.2005341
1.2005814
1.2006276
1.2006727
1.2007169
1.20076
1.200802
1.2008429
1.2008826
1.2009211
1.2009584
1.2009945
1.2010293
1.2010629
1.2010952
1.2011264
1.2011562
1.2011848
1.2012121
1.2012381
1.2012628
1.2012862
1.2013082
1.2013289
1.2013483
1.2013663
1.201383
1.2013984
1.2014122
1.201425
1.2014367
1.2014466
1.2014548
1.2014619
1.2014678
1.2014725
1.2014759
1.2014781
1.2014791
1.2014791
1.2014781
1.2014763
1.2014737
1.2014706
1.2014671
1.2014636
1.2014602
1.2014572
1.2014545
1.2014527
1.2014513
1.1971808
1.1973596
1.1975273
1.1976843
1.1978311
1.1979679
1.1980947
1.1982121
1.1983244
1.1984288
1.1985102
1.1985783
1.1986434
1.1986969
1.1987382
1.1987687
1.1987901
1.1988054
1.1988178
1.1988312
1.1988486
1.1988716
1.1989008
1.1989358
1.1989755
1.199019
1.1990653
1.1991136
1.1991636
1.1992147
1.1992668
1.1993197
1.1993732
1.1994273
1.1994818
1.1995366
1.1995917
1.1996471
1.1997025
1.199758
1.1998135
1.1998689
1.1999241
1.199979
1.2000336
1.2000878
1.2001415
1.2001946
1.2002471
1.2002989
1.2003499
1.2004001
1.2004493
1.2004976
1.2005448
1.200591
1.2006362
1.2006804
1.2007237
1.2007659
1.2008072
1.2008473
1.2008864
1.2009242
1.200961
1.2009965
1.2010308
1.2010639
1.2010959
1.2011266
1.201156
1.2011843
1.2012113
1.201237
1.2012614
1.2012846
1.2013064
1.2013269
1.2013461
1.2013639
1.2013805
1.2013957
1.2014095
1.2014221
1.2014335
1.2014434
1.2014516
1.2014588
1.2014645
1.2014691
1.2014724
1.2014745
1.2014755
1.2014754
1.2014744
1.2014725
1.2014698
1.2014667
1.2014632
1.2014597
1.2014562
1.2014532
1.2014506
1.2014487
1.2014473
1.1973933
1.1975677
1.1977305
1.1978821
1.1980229
1.1981532
1.1982732
1.1983834
1.1984881
1.1985852
1.1986594
1.1987202
1.1987781
1.1988247
1.1988596
1.1988842
1.1989004
1.1989111
1.1989197
1.1989297
1.1989438
1.1989637
1.1989897
1.1990213
1.1990576
1.1990975
1.1991403
1.1991852
1.1992317
1.1992795
1.1993283
1.199378
1.1994285
1.1994795
1.1995311
1.1995832
1.1996356
1.1996883
1.1997413
1.1997944
1.1998476
1.1999008
1.1999539
1.2000068
1.2000594
1.2001118
1.2001637
1.2002152
1.2002661
1.2003164
1.200366
1.2004148
1.2004628
1.2005098
1.2005559
1.2006011
1.2006453
1.2006885
1.2007309
1.2007723
1.2008127
1.2008521
1.2008905
1.2009277
1.2009638
1.2009987
1.2010326
1.2010652
1.2010967
1.2011269
1.201156
1.2011839
1.2012106
1.201236
1.2012602
1.2012831
1.2013046
1.2013249
1.2013439
1.2013617
1.2013781
1.2013931
1.2014069
1.2014191
1.2014305