/*--------------------------------*- C++ -*----------------------------------*\
| =========                 |                                                 |
| \\      /  F ield         | OpenFOAM: The Open Source CFD Toolbox           |
|  \\    /   O peration     | Version:  2406                                  |
|   \\  /    A nd           | Website:  www.openfoam.com                      |
|    \\/     M anipulation  |                                                 |
\*---------------------------------------------------------------------------*/
FoamFile
{
    version     2.0;
    format      ascii;
    arch        "LSB;label=32;scalar=64";
    class       volScalarField;
    location    "0.02";
    object      alphat;
}
// * * * * * * * * * * * * * * * * * * * * * * * * * * * * * * * * * * * * * //

dimensions      [1 -1 -1 0 0 0 0];

internalField   nonuniform List<scalar> 
2065
(
0.0031788713
0.0034939156
0.0038150616
0.004145902
0.004490424
0.0048562705
0.0052450821
0.0056656108
0.0061168677
0.0066038154
0.0071292028
0.0076847103
0.0082668018
0.0088523259
0.0094281591
0.009980579
0.010478024
0.010894365
0.011238481
0.011490085
0.011652124
0.011732712
0.01175079
0.011722937
0.011659982
0.01156616
0.011441975
0.011291026
0.011118771
0.010936337
0.010753941
0.010573336
0.010377063
0.010116748
0.009830354
0.0096836043
0.0097055283
0.0097147449
0.0096785535
0.0097593039
0.010024677
0.010400743
0.010854383
0.011417306
0.012094929
0.012887769
0.013703714
0.01457371
0.01544675
0.016299207
0.017062468
0.017733489
0.018214527
0.018515027
0.018629874
0.018461649
0.018198169
0.017381827
0.0019995465
0.0022918886
0.0026099154
0.0029568987
0.0033347865
0.0037413105
0.0041777381
0.0046526327
0.0051602329
0.0057105434
0.0063044803
0.0069369047
0.0076116245
0.0083034505
0.0089979669
0.0096513906
0.010236701
0.010768881
0.011197714
0.01150402
0.011706003
0.011818509
0.011861851
0.011859169
0.011824494
0.011756408
0.011651903
0.011516518
0.011358088
0.011191068
0.011028319
0.010870872
0.01069903
0.010468892
0.010233162
0.010158098
0.010255964
0.010339839
0.010386901
0.010562396
0.010929441
0.011404006
0.01195106
0.012594901
0.013346231
0.014196789
0.015067212
0.015980334
0.016893447
0.017783565
0.018589136
0.019303676
0.01984224
0.020179254
0.020347632
0.020212091
0.019972606
0.019166147
0.0013525556
0.0016218254
0.0019229136
0.0022621898
0.002638014
0.0030339414
0.003439745
0.0038815693
0.0043398217
0.0048209468
0.0053473039
0.0059261709
0.0065718403
0.0072895986
0.0080245641
0.0087768375
0.0094976721
0.010146356
0.010749465
0.011227355
0.011553281
0.011770215
0.01189342
0.011958073
0.011982132
0.01196981
0.011921102
0.011833695
0.011713818
0.011572652
0.011428574
0.011296202
0.011174875
0.011040745
0.010856001
0.010686093
0.010695785
0.010882212
0.011053952
0.011194133
0.011467664
0.011934186
0.012501578
0.013133525
0.013847674
0.014661297
0.015557612
0.016473185
0.017419297
0.018364294
0.019283587
0.020127575
0.020872229
0.021465935
0.021832109
0.02204982
0.021943856
0.02172408
0.020928822
0.0017602809
0.0020307907
0.0023040476
0.0025856138
0.0028698094
0.0031565813
0.0034510484
0.0037823168
0.004130014
0.0044952805
0.0049213384
0.0054140455
0.0059710021
0.0065952988
0.0072909583
0.0080331111
0.0088183381
0.0095444275
0.010210314
0.010832492
0.011300043
0.011612197
0.011826789
0.011961929
0.012042307
0.012080591
0.01208373
0.012050672
0.011980021
0.011880119
0.011766129
0.01165861
0.011572341
0.011503733
0.011424513
0.01130203
0.011213122
0.011319241
0.011604359
0.011873207
0.012111276
0.012480726
0.013039512
0.013690117
0.014395833
0.015168559
0.016032719
0.01696453
0.017915072
0.018884871
0.019856716
0.020793505
0.021672545
0.022438197
0.023082651
0.023471796
0.023734659
0.023654727
0.023451312
0.022667352
0.0028625131
0.0031113881
0.0033422292
0.0035710859
0.0037989054
0.0040221281
0.0042462294
0.0044918042
0.0047582061
0.00504895
0.0053926146
0.0058005101
0.0062640927
0.006847143
0.0075272421
0.0082656517
0.0090222998
0.0097084378
0.010364072
0.010946643
0.011375557
0.011676208
0.011878758
0.012009784
0.012093275
0.012143613
0.012162682
0.012148042
0.012100183
0.012030464
0.011957489
0.01190388
0.011882874
0.011886003
0.011879367
0.011836002
0.011840853
0.012050887
0.012439648
0.012809067
0.013143827
0.013601759
0.01424145
0.014962975
0.015729986
0.016549368
0.017452655
0.018410471
0.019386361
0.02037248
0.021364081
0.022311906
0.023219457
0.024000685
0.024689865
0.025096965
0.025400762
0.025343299
0.025153547
0.024380303
0.0036802659
0.0039552654
0.004180293
0.0043743506
0.0045447354
0.0047062339
0.00486615
0.0050335825
0.0052237146
0.0054375752
0.0056845591
0.005989432
0.0063597766
0.0068189997
0.0073298514
0.0079406881
0.0086184797
0.0093026141
0.0099411392
0.010568038
0.011089601
0.011458498
0.01171984
0.011898027
0.012023532
0.012114593
0.012179742
0.012218161
0.012228041
0.012212901
0.012187762
0.012174418
0.012195956
0.012261713
0.012354909
0.012438878
0.012487967
0.012594013
0.012908881
0.013399307
0.013866099
0.01429065
0.014825509
0.01553216
0.016311056
0.017126655
0.017981327
0.018913193
0.0198885
0.020881349
0.021877237
0.022881928
0.023835869
0.024765117
0.025558045
0.026285285
0.026706738
0.027047006
0.027008729
0.026830372
0.026066919
0.0042227907
0.0045679241
0.0048265156
0.0050237345
0.0051827285
0.0053210804
0.00544423
0.0055667983
0.0057041463
0.0058678945
0.0060629116
0.0062973063
0.0065897471
0.006950851
0.0073878135
0.0079020395
0.0084542853
0.0090770201
0.0096848567
0.010237937
0.010771626
0.01118816
0.011493358
0.011719311
0.01188478
0.012013065
0.012119064
0.012206247
0.012272569
0.012318087
0.012350428
0.012388663
0.012456721
0.012575734
0.012747134
0.01294826
0.013134415
0.013283002
0.013490178
0.01390316
0.01448621
0.015041166
0.015544319
0.016142233
0.016900997
0.017723735
0.018575867
0.01945553
0.020406592
0.021391964
0.02239459
0.023394544
0.024406547
0.025362273
0.026307194
0.027108292
0.027866736
0.028300688
0.02867245
0.028650626
0.028481648
0.027726927
0.0048669979
0.0051949826
0.0054298828
0.0056019394
0.0057368875
0.0058525687
0.0059632047
0.00608094
0.0062175656
0.006381034
0.0065784404
0.0068167721
0.0071099418
0.0074710853
0.0079018073
0.0083877551
0.0088929547
0.0094344234
0.0099470672
0.010425271
0.0108749
0.011216447
0.011477451
0.011686177
0.011856516
0.012004345
0.012139292
0.01226111
0.012368288
0.012464192
0.012561431
0.012682994
0.012852965
0.013085858
0.013378214
0.013696521
0.013988164
0.014235061
0.014535504
0.015033227
0.015694424
0.016324231
0.016892533
0.017539138
0.0183357
0.019189734
0.020067572
0.020963273
0.021925461
0.022914589
0.02392095
0.024920107
0.025934477
0.02688824
0.027843556
0.02864965
0.029432962
0.029877975
0.030276243
0.030268988
0.030107441
0.029360404
0.0053130904
0.0056083366
0.0058099565
0.0059553045
0.0060707226
0.0061780973
0.0062904493
0.0064170695
0.006566231
0.0067448995
0.0069564888
0.0072080028
0.0075081897
0.0078609189
0.0082767474
0.0087308255
0.0091961296
0.0096605036
0.010094953
0.01050399
0.010889249
0.011187656
0.01143454
0.011657818
0.011861556
0.012052623
0.012234984
0.012406665
0.01256862
0.012729104
0.012906211
0.013126048
0.013407586
0.013765011
0.014182694
0.014614994
0.015006826
0.015343343
0.015723403
0.016288543
0.017010687
0.01770033
0.018320017
0.019001916
0.019823474
0.020697818
0.021592067
0.022496303
0.023462876
0.024450536
0.025455629
0.026449938
0.027462494
0.028411114
0.02937225
0.03018051
0.030983159
0.031437687
0.031857679
0.031864059
0.031707967
0.030967685
0.005223802
0.0056035851
0.0058609099
0.0060290089
0.0061499949
0.0062541001
0.0063574166
0.0064722495
0.00660677
0.0067670173
0.0069578086
0.0071826176
0.0074471754
0.0077537809
0.0080985285
0.008485744
0.0089093839
0.009326197
0.0097405331
0.010121988
0.010488565
0.010849131
0.011153112
0.011428342
0.011707969
0.01197886
0.012238012
0.012485375
0.012719418
0.012945455
0.013178104
0.013439002
0.013757975
0.014155972
0.014633681
0.015165527
0.015700129
0.0161801
0.016592984
0.017036591
0.017651143
0.01841707
0.019151924
0.019810381
0.020516036
0.021351819
0.022237298
0.02314027
0.024046956
0.025012443
0.025994419
0.026994184
0.027980336
0.028987607
0.029928432
0.030891469
0.031699414
0.032516618
0.032979091
0.033416743
0.033435698
0.033283538
0.032549299
0.0054177521
0.0057577031
0.005982797
0.0061236433
0.0062262548
0.0063183271
0.006416081
0.0065296831
0.0066654736
0.0068286523
0.0070238511
0.0072538288
0.0075218994
0.0078277343
0.0081654567
0.0085317725
0.0089316903
0.0093165145
0.009705163
0.010075287
0.010448182
0.010826902
0.011197835
0.011543656
0.011920576
0.012287266
0.012633043
0.012956751
0.013258509
0.013549007
0.013849954
0.014191545
0.014604446
0.015103387
0.01568287
0.016310893
0.016930957
0.017484288
0.017959389
0.018451297
0.019099208
0.019893782
0.020660999
0.021347567
0.022067674
0.022909076
0.02379833
0.024703877
0.025608227
0.026568311
0.027541293
0.028532505
0.029507875
0.03050703
0.031437904
0.032399536
0.03320502
0.034032697
0.034501593
0.034953484
0.034983921
0.034834543
0.034105904
0.0054758862
0.0057939134
0.00600203
0.006125854
0.0062139952
0.0062948696
0.0063840719
0.006490343
0.0066192577
0.0067756963
0.0069649037
0.0071912933
0.0074552145
0.0077573671
0.0080872098
0.0084438077
0.0088355918
0.0092260296
0.0096230373
0.010026406
0.010454591
0.010909841
0.011369776
0.011826405
0.01232893
0.012807762
0.013250994
0.013658559
0.014031494
0.014385539
0.014748862
0.01515742
0.015644873
0.016223626
0.016883332
0.017587398
0.018275896
0.018888801
0.019413868
0.019941717
0.020610316
0.02142142
0.022210546
0.022916779
0.023644261
0.02448472
0.025372054
0.026275407
0.027173781
0.028125162
0.029086636
0.030066804
0.031029375
0.032018167
0.03293739
0.033894879
0.034696089
0.035530801
0.036004703
0.036467991
0.036508857
0.036361434
0.03563824
0.0054090997
0.0057226828
0.0059240242
0.0060417329
0.0061233565
0.0061968951
0.0062776565
0.0063738776
0.0064918414
0.006636793
0.0068132644
0.0070308799
0.0072877296
0.0075887598
0.0079154794
0.0082716264
0.0086826128
0.0090976667
0.0095389166
0.010003774
0.010521852
0.011079507
0.011662148
0.01224402
0.012871781
0.013486998
0.014039136
0.014540551
0.014990195
0.015407099
0.015826484
0.016290026
0.016835207
0.017474397
0.018194875
0.018957678
0.019700677
0.020362411
0.020928366
0.021483373
0.02216369
0.022982376
0.023785405
0.024504953
0.025234713
0.026069458
0.026950617
0.027848189
0.028737919
0.029678166
0.03062631
0.031593582
0.032541879
0.033518583
0.034424876
0.035376009
0.036171459
0.037010363
0.037488007
0.037960371
0.03801071
0.037864707
0.0371471
0.0052103572
0.0055380484
0.0057470137
0.0058705405
0.005953332
0.0060231443
0.0060961873
0.0061824803
0.0062885478
0.0064221823
0.006589488
0.0067978187
0.0070485691
0.0073415686
0.0076722751
0.0080437358
0.0084688643
0.0089313497
0.0094306376
0.0099714547
0.010590102
0.011260112
0.011977847
0.012701225
0.013465321
0.014224213
0.014903951
0.015515862
0.016055244
0.016543094
0.017019824
0.017532753
0.018124469
0.018810265
0.01957742
0.020386489
0.021174154
0.021877384
0.022478311
0.023054991
0.023741348
0.024561487
0.025372573
0.026100868
0.026829447
0.027655185
0.028527111
0.029416292
0.030295511
0.03122293
0.032156508
0.033109588
0.034042613
0.035005978
0.035898448
0.036841502
0.037630026
0.03847083
0.038951135
0.039430737
0.039489737
0.039344892
0.0386333
0.0048817202
0.00523392
0.005461969
0.0056014665
0.0056921013
0.0057614487
0.0058271935
0.0059012319
0.0059943533
0.0061156016
0.0062713988
0.006468561
0.0067097172
0.0069989443
0.0073376236
0.0077306718
0.008195219
0.0086985867
0.0092542302
0.0098828193
0.010597609
0.011386394
0.012245215
0.013122465
0.014036099
0.014945391
0.015771536
0.016512544
0.017158
0.0177292
0.018270226
0.018833502
0.019467606
0.020192478
0.020997715
0.021845113
0.022671131
0.023411273
0.024043719
0.024639127
0.025328416
0.026146122
0.026961162
0.02769504
0.028420255
0.029234869
0.030095459
0.030974429
0.031841922
0.032755429
0.033673707
0.034611779
0.035528956
0.036478158
0.037356269
0.038289976
0.039070725
0.039911651
0.040393752
0.040879205
0.040946221
0.040802544
0.040097379
0.0047969859
0.0050486882
0.0052106096
0.0053159465
0.0053899678
0.0054515768
0.0055151438
0.0055923121
0.0056952818
0.0058361456
0.0060201524
0.0062548349
0.0065536609
0.0069098557
0.0073380041
0.007838298
0.0083830519
0.0090104558
0.0097274199
0.010542195
0.011452314
0.01245249
0.013490441
0.014557395
0.015622721
0.016606601
0.017490639
0.018255989
0.018922821
0.01953741
0.020156017
0.020832511
0.021592841
0.0224315
0.023312432
0.024172826
0.02494704
0.025609115
0.026221993
0.026912911
0.027725946
0.02854215
0.029279492
0.030000104
0.03080238
0.031650285
0.032517851
0.033372924
0.03427194
0.035174607
0.036097277
0.036998402
0.037933007
0.038796558
0.03972008
0.040492519
0.041332265
0.041815534
0.042305879
0.042380461
0.042238235
0.041540127
0.0042021036
0.0044724316
0.0046568119
0.0047811788
0.0048671576
0.0049313195
0.0049897529
0.0050526132
0.0051402836
0.0052694637
0.005448539
0.0056860724
0.005999987
0.0063851998
0.0068571398
0.0073993917
0.0080146575
0.0087356308
0.009550873
0.01047837
0.011515961
0.01265268
0.013846728
0.015058913
0.016274678
0.01741547
0.018446134
0.019337362
0.020107274
0.020800791
0.021477808
0.022197707
0.022993138
0.023862719
0.024774067
0.025666026
0.026472285
0.027162863
0.027792894
0.028485275
0.029292532
0.03010805
0.030847474
0.031562919
0.032352321
0.033186773
0.034042236
0.034884613
0.035768976
0.036656082
0.037563325
0.038448531
0.03936846
0.040217566
0.041130467
0.041894378
0.042732097
0.043216162
0.043710846
0.04379276
0.043652547
0.042962358
0.003409074
0.0036834521
0.0038811536
0.0040240228
0.0041292631
0.0042127594
0.0042872634
0.0043592011
0.0044468327
0.0045771533
0.0047727928
0.0050239061
0.0053566196
0.0057850422
0.0063053992
0.0069135653
0.007667093
0.0085229689
0.0094740503
0.010522837
0.011670832
0.012918677
0.014241834
0.015583755
0.016923571
0.018210705
0.019380751
0.02039526
0.021269807
0.022046812
0.022786864
0.023552674
0.024382853
0.025281533
0.026220735
0.027141756
0.027978168
0.028696291
0.029343531
0.030037838
0.030838937
0.031652575
0.032393192
0.033103365
0.03387986
0.034700544
0.035543596
0.036373333
0.03724323
0.038115135
0.039007259
0.039876982
0.040782487
0.041617562
0.042519795
0.043275277
0.044110553
0.04459532
0.045094185
0.045183426
0.045046071
0.044364669
0.0026713959
0.0028765863
0.0030406407
0.0031804585
0.0033070411
0.0034267849
0.003542367
0.0036583962
0.0038094385
0.0040506356
0.0043421308
0.0047235059
0.0052117518
0.005842311
0.0066120396
0.0074915603
0.0084573648
0.0095155228
0.010670638
0.01192407
0.013275719
0.014705808
0.016166442
0.017601494
0.019012861
0.020311566
0.021440657
0.022416703
0.023277092
0.024080579
0.024892425
0.025756418
0.026682177
0.027646554
0.028593934
0.029458341
0.030202844
0.030867351
0.031564309
0.032359314
0.03317032
0.033911562
0.034616663
0.035380589
0.036187543
0.037018195
0.037835621
0.038691536
0.039548871
0.040426483
0.041281434
0.042173078
0.042994826
0.04388671
0.044634187
0.045467023
0.045952689
0.046455958
0.046552766
0.046419407
0.045747542
0.034656504
0.035398013
0.036098439
0.036850415
0.037643965
0.038462489
0.039268163
0.040110837
0.040954475
0.04181846
0.042659603
0.043538243
0.044347647
0.045229856
0.045970077
0.046800887
0.047287961
0.047796224
0.04790109
0.047773165
0.047111703
0.017412287
0.014894987
0.0077304836
0.011062012
0.014627683
0.0175643
0.018987498
0.018662317
0.016901066
0.014430683
0.0053849899
0.0079461674
0.011164769
0.014563341
0.017301638
0.018565582
0.018160378
0.016392371
0.013972346
0.005662818
0.0081507432
0.011247437
0.014476216
0.017017238
0.018118801
0.017648104
0.015879953
0.013518789
0.005944766
0.0083478414
0.01131429
0.014367984
0.016701215
0.017623919
0.017122932
0.015361664
0.013060146
0.0062321252
0.0085401927
0.011368011
0.014240031
0.016372553
0.017170176
0.016595575
0.014847778
0.012607591
0.0065290832
0.008731844
0.011411848
0.014097183
0.016035979
0.016713357
0.016060418
0.014336325
0.012163369
0.0068405416
0.0089280821
0.011449976
0.013944089
0.015690022
0.016239955
0.015507186
0.013822266
0.011721611
0.0071730785
0.0091340739
0.011488257
0.013784984
0.015335748
0.01575959
0.014973245
0.0133126
0.011283012
0.0075272138
0.0093529036
0.011529778
0.013622423
0.014976743
0.015279034
0.014450835
0.012809692
0.01084845
0.0079085571
0.0095896132
0.01157887
0.013459303
0.014614132
0.014798472
0.013926965
0.012311003
0.010417433
0.0083203894
0.0098456316
0.011635978
0.013296189
0.014252611
0.014318463
0.013404732
0.011816211
0.0099895573
0.0087558166
0.010117205
0.011700924
0.013130197
0.01389159
0.013840304
0.012886075
0.011326141
0.0095653831
0.0092079963
0.010396683
0.011766116
0.012957487
0.013532965
0.013364602
0.012372647
0.010842105
0.0091460134
0.0096600276
0.010671024
0.0118216
0.012774928
0.013177795
0.012892723
0.011866745
0.010366584
0.0087339112
0.010093684
0.01092414
0.011856575
0.012578978
0.012822946
0.012427231
0.011371705
0.0099030571
0.0083324612
0.010496913
0.011145051
0.011862841
0.012372629
0.012465902
0.011969983
0.010890742
0.0094550891
0.0079452715
0.010854147
0.011327099
0.011834028
0.012162532
0.01210899
0.011525156
0.010428985
0.0090281477
0.0075778442
0.011147904
0.011461386
0.011785911
0.011940422
0.011754628
0.011095625
0.0099889686
0.0086239663
0.0072309416
0.011376811
0.011550781
0.011711982
0.011711122
0.011407913
0.010686137
0.0095750774
0.0082464549
0.0069078832
0.011537891
0.011595746
0.011616556
0.01148004
0.01107305
0.010298393
0.0091871155
0.0078943699
0.0066070996
0.011630733
0.011596742
0.011502327
0.011251212
0.010754288
0.0099348507
0.0088258245
0.0075673906
0.0063278535
0.011657776
0.011552667
0.011366784
0.011021773
0.010449338
0.0095924152
0.0084873463
0.0072615303
0.0060666373
0.011631249
0.011469808
0.011210647
0.010788071
0.010152641
0.0092639017
0.008163359
0.0069679857
0.0058146675
0.011566516
0.011358271
0.011038121
0.010550732
0.0098606479
0.0089436318
0.0078468683
0.0066790917
0.0055641304
0.011471311
0.011224093
0.010853131
0.010312926
0.0095747637
0.0086326402
0.0075392195
0.0063969357
0.005318096
0.011350373
0.011072005
0.010660288
0.010077047
0.0092989575
0.0083354833
0.0072452607
0.0061263089
0.0050810442
0.011205
0.010902626
0.010460948
0.0098443469
0.0090362676
0.0080566519
0.0069700511
0.0058719135
0.0048567315
0.011038782
0.010720796
0.010260115
0.0096227105
0.0087964929
0.00780824
0.0067271281
0.0056473767
0.0046578178
0.010855785
0.010529083
0.01005944
0.0094137707
0.0085820907
0.0075944946
0.006522602
0.0054598732
0.0044915876
0.01066423
0.010332836
0.0098611356
0.0092168321
0.0083903633
0.0074121917
0.0063539715
0.0053081169
0.004357863
0.010471133
0.010135386
0.009664158
0.0090262232
0.0082115897
0.0072491446
0.0062085903
0.0051805531
0.0042469084
0.01027766
0.0099359224
0.009464558
0.0088340473
0.0080339084
0.007090526
0.0060704134
0.0050616723
0.0041448731
0.010068014
0.0097194432
0.0092478019
0.008625644
0.0078421023
0.0069206937
0.0059240689
0.0049372632
0.0040393505
0.0097909313
0.0094328579
0.0089594797
0.008346467
0.0075832372
0.0066904316
0.0057259543
0.0047704397
0.0039002341
0.0094727895
0.0090939831
0.0086068488
0.0079921959
0.0072423132
0.0063767324
0.0054488277
0.0045333204
0.0037014101
0.0092770294
0.0088630105
0.0083446936
0.007709135
0.0069530066
0.0060964736
0.0051901821
0.0043038889
0.003503499
0.0092442339
0.0087876149
0.0082295669
0.0075636814
0.0067907784
0.0059308707
0.0050314152
0.0041582845
0.0033739846
0.0091987953
0.0086981988
0.0081011622
0.0074087146
0.0066253606
0.0057698473
0.0048843279
0.0040291422
0.0032630501
0.0091003443
0.0085491799
0.0079047995
0.007178118
0.0063806044
0.0055310594
0.0046663634
0.0038395088
0.0031029571
0.0091066669
0.0084928406
0.0077833072
0.0070001347
0.0061654265
0.0053024225
0.004444919
0.0036386723
0.0029285694
0.0092873281
0.0085981076
0.0078043418
0.0069401146
0.0060414604
0.0051403262
0.0042702044
0.0034699499
0.0027760927
0.0095777486
0.0088093611
0.0079229842
0.0069644424
0.0059862808
0.0050322175
0.0041370913
0.0033334491
0.0026488329
0.009947778
0.0091005198
0.0081172544
0.0070534735
0.0059790403
0.0049545305
0.0040209181
0.0032054381
0.0025257132
0.010436506
0.0095184099
0.0084427687
0.0072701696
0.0060849588
0.0049670205
0.0039703556
0.0031224737
0.0024328508
0.011045435
0.010061315
0.0088950328
0.0076088051
0.0063000496
0.005069025
0.0039873012
0.0030874564
0.0023728798
0.011783856
0.010748452
0.0095093892
0.0081241727
0.0066895099
0.005322055
0.0041197393
0.0031340266
0.0023688852
0.012550194
0.011469662
0.0101651
0.0086932927
0.007158296
0.0056825838
0.004370235
0.0032841781
0.002443095
0.01338102
0.012266984
0.010911097
0.0093629665
0.0077231854
0.0061252726
0.0046970196
0.0035152245
0.0025998383
0.014219338
0.0130783
0.011681207
0.010073089
0.0083511957
0.0066490567
0.0050999666
0.003802662
0.0027941123
0.015040764
0.013878424
0.012448589
0.010792232
0.0090038314
0.0072179544
0.005574722
0.0041798009
0.0030799449
0.015771855
0.014589446
0.013129919
0.011431462
0.0095870653
0.007732694
0.0060134816
0.0045423963
0.0033734533
0.016407561
0.015205664
0.013718886
0.01198384
0.01009324
0.008184945
0.0064080255
0.0048802004
0.0036594842
0.01684875
0.01562566
0.014114578
0.01235229
0.010430845
0.0084878497
0.0066750976
0.0051131497
0.0038619634
0.017123738
0.015893008
0.014366087
0.012579814
0.010631684
0.0086678954
0.0068392483
0.0052644968
0.0040022742
0.017204788
0.015964643
0.014429605
0.012638116
0.010686709
0.0087176124
0.0068872503
0.00531522
0.0040567576
0.017022587
0.015793256
0.014274371
0.012504922
0.01058079
0.008642227
0.0068388233
0.005287333
0.0040441885
0.016751433
0.015537411
0.014038167
0.012293175
0.010398466
0.0084936679
0.0067262584
0.005209299
0.0039957713
0.015945761
0.014769753
0.01332466
0.011651861
0.0098457389
0.0080398669
0.0063722981
0.0049460777
0.0038069132
0.012193293
0.0093782187
0.0065263765
0.0038295296
0.0015332177
0.00018992714
0.011806159
0.009084179
0.0063239928
0.0037202385
0.0014953557
0.00018494844
0.01142734
0.008791616
0.0061285274
0.0036132528
0.0014545333
0.00017981523
0.011048852
0.0085028496
0.0059380649
0.0035100676
0.0014185451
0.00017453573
0.010672374
0.0082221377
0.005751709
0.003408655
0.0013802652
0.0001691554
0.010305259
0.0079463296
0.0055689971
0.0033095329
0.0013449864
0.00016367426
0.0099435029
0.007674845
0.0053889071
0.0032109546
0.0013074814
0.00015811448
0.0095856719
0.0074066077
0.0052105048
0.0031127535
0.0012709636
0.000152462
0.0092307688
0.0071403545
0.0050325505
0.003013543
0.0012322948
0.0001467125
0.0088782687
0.0068750054
0.0048540011
0.0029128535
0.0011928948
0.00014084064
0.0085276251
0.0066097498
0.0046740146
0.0028099535
0.0011515659
0.0001348248
0.0081783747
0.0063440497
0.0044921437
0.0027047111
0.0011088668
0.00012863892
0.007830938
0.0060781793
0.004308579
0.0025972917
0.0010647465
0.00012226595
0.007486325
0.0058131074
0.0041242923
0.0024886148
0.0010199154
0.00011570444
0.0071468566
0.0055508627
0.0039408763
0.0023797224
0.00097485399
0.00010897121
0.0068157412
0.0052944204
0.0037610238
0.0022729092
0.00093110043
0.00010212075
0.0064965199
0.0050471452
0.0035877369
0.0021704538
0.00088973325
9.5283166e-05
0.0061945064
0.0048138597
0.003424821
0.0020745204
0.00085108844
8.8575162e-05
0.005909412
0.0045931145
0.0032696163
0.0019816576
0.00081227411
8.1972304e-05
0.0056439039
0.0043868724
0.0031234571
0.001892833
0.00077395601
7.5437387e-05
0.0053966179
0.0041944059
0.0029865888
0.0018093444
0.00073794259
6.9100672e-05
0.0051668119
0.004015208
0.0028588318
0.0017311849
0.00070414379
6.347244e-05
0.004951778
0.0038474821
0.0027391337
0.0016576436
0.00067193814
5.8686155e-05
0.0047429943
0.0036831552
0.0026201583
0.001582785
0.00063793538
5.4365185e-05
0.0045328445
0.0035151898
0.0024960242
0.0015024098
0.00059964632
5.0345173e-05
0.0043254172
0.0033486893
0.0023727087
0.0014227867
0.0005624398
4.6554948e-05
0.0041246868
0.0031869048
0.0022524769
0.0013450454
0.00052651972
4.2985827e-05
0.0039331927
0.0030310166
0.0021352222
0.0012681626
0.00049060471
3.9668269e-05
0.0037620565
0.0028901632
0.0020278044
0.001196593
0.00045678323
3.6704226e-05
0.0036180885
0.0027702329
0.001934863
0.0011335893
0.00042687148
3.4187792e-05
0.0035019918
0.0026725487
0.0018579978
0.001080616
0.00040170161
3.2148267e-05
0.003406065
0.0025915352
0.0017936982
0.0010359633
0.00038079243
3.053674e-05
0.0033186037
0.0025179727
0.0017353775
0.00099553371
0.0003620923
2.9223693e-05
0.0032293389
0.0024440053
0.0016777187
0.00095640848
0.0003445968
2.8107115e-05
0.0031145824
0.0023522812
0.0016094416
0.00091269958
0.00032653715
2.7064212e-05
0.0029510142
0.0022231588
0.0015152528
0.00085381813
0.00030241581
2.5897027e-05
0.0027842717
0.0020888524
0.0014159332
0.00079170471
0.00027805012
2.4868846e-05
0.0026718205
0.0019953011
0.0013448525
0.00074705088
0.00026238767
2.4345191e-05
0.0025781868
0.0019190378
0.0012877388
0.00071145535
0.00024991952
2.4062163e-05
0.0024463312
0.0018152566
0.0012128273
0.00066585861
0.0002326643
2.3610177e-05
0.0022998835
0.00169872
0.0011287398
0.00061570643
0.00021496806
2.3086896e-05
0.0021680367
0.0015912768
0.0010499387
0.00056870438
0.00019941699
2.2644704e-05
0.0020557573
0.0014982642
0.00098080754
0.00052708528
0.00018564492
2.2266946e-05
0.0019454806
0.0014063307
0.00091246028
0.0004860647
0.0001718976
2.1876385e-05
0.0018551025
0.0013268705
0.00085158169
0.00044919145
0.0001596385
2.1495235e-05
0.0017862156
0.0012602082
0.00079757041
0.00041565889
0.00014868033
2.108587e-05
0.0017545783
0.0012164665
0.00075626128
0.00038818205
0.00013962178
2.065589e-05
0.0017752728
0.0012027111
0.00072895615
0.00036549117
0.00013134801
2.0214697e-05
0.0018715151
0.001246219
0.00073623461
0.00035786946
0.00012633046
1.981941e-05
0.0019932985
0.0013109834
0.00076148873
0.00036093294
0.00012551233
1.9566887e-05
0.0021935344
0.001430484
0.00081769243
0.0003779824
0.0001246624
1.9253935e-05
0.0024214164
0.0015888458
0.00090851467
0.00041180049
0.0001270721
1.8954376e-05
0.0026558431
0.0017657599
0.0010263877
0.0004692138
0.0001345473
1.8729845e-05
0.0028266138
0.0018991092
0.0011205781
0.00052112317
0.00014602662
1.8641999e-05
0.0029519775
0.0020022916
0.0011970245
0.00056383687
0.00015395387
1.8337722e-05
0.0030055375
0.0020485752
0.0012338058
0.00058737375
0.00016116299
1.7895708e-05
0.0030011952
0.0020464788
0.0012328656
0.00058629444
0.00016380447
1.7253962e-05
0.0029736557
0.0020322329
0.0012291188
0.00058845199
0.00016155638
1.6277361e-05
0.002842263
0.0019462048
0.0011784869
0.00056246146
0.00015494566
1.4975726e-05
)
;

boundaryField
{
    Side1
    {
        type            empty;
    }
    Inlet
    {
        type            calculated;
        value           nonuniform List<scalar> 0();
    }
    Side2
    {
        type            empty;
    }
    Outlet
    {
        type            zeroGradient;
    }
    Botwall
    {
        type            compressible::alphatWallFunction;
        value           nonuniform List<scalar> 
59
(
2.1256632e-05
2.0435329e-05
1.9585663e-05
1.8711259e-05
1.7817487e-05
1.6905913e-05
1.5978639e-05
1.5034251e-05
1.4071043e-05
1.3085013e-05
1.2071946e-05
1.1027203e-05
9.9473602e-06
8.8315366e-06
7.6818193e-06
6.5064185e-06
5.3267339e-06
4.1617298e-06
3.0055765e-06
1.8504395e-06
7.1735579e-07
0
0
0
0
0
0
0
0
0
0
0
0
0
0
0
0
0
0
0
0
0
0
0
0
0
0
0
0
0
0
0
0
0
0
0
0
0
0
)
;
    }
    Cyli
    {
        type            compressible::alphatWallFunction;
        value           nonuniform List<scalar> 0();
    }
    procBoundary1to0
    {
        type            processor;
        value           nonuniform List<scalar> 
44
(
0.0028685519
0.0051116687
0.0017272507
0.0017272507
0.001112124
0.001112124
0.0015008744
0.0025740211
0.0025740211
0.0033434701
0.0033434701
0.0037818403
0.0044228774
0.0048915647
0.0048915647
0.0047095013
0.0049213087
0.0049917963
0.0049336657
0.0047410859
0.0044242145
0.004415849
0.0044242145
0.0038263062
0.003063071
0.0024206557
0.0024206557
0.017920727
0.015361343
0.0075073597
0.010943605
0.014671513
0.017805713
0.019383038
0.019156013
0.019156013
0.0051116687
0.0051116687
0.012584692
0.00968003
0.006730604
0.0039435476
0.0015776738
0.00019469396
)
;
    }
    procBoundary1to3
    {
        type            processor;
        value           nonuniform List<scalar> 
62
(
0.0015931045
0.0017884356
0.0019754078
0.0021565818
0.0023300749
0.0025151258
0.0027101215
0.0028903487
0.0030880638
0.0034088572
0.0037984846
0.0042929952
0.0049315994
0.0056684441
0.0065276724
0.0075090365
0.0086058649
0.0097923279
0.011057603
0.012401484
0.013825249
0.015320169
0.016857867
0.018360654
0.019853932
0.021261026
0.022489849
0.023560019
0.024499982
0.025363768
0.026217491
0.027110066
0.028057452
0.029042551
0.030013948
0.030906316
0.031678515
0.032361216
0.033060223
0.033847799
0.033847799
0.036106252
0.036849089
0.037545637
0.038285701
0.039065796
0.039872573
0.040667233
0.041497434
0.042328439
0.04317996
0.044008506
0.044875454
0.04567364
0.046547126
0.047280913
0.048110868
0.04860074
0.049115543
0.049230222
0.049109805
0.048459407
)
;
    }
}


// ************************************************************************* //
