/*--------------------------------*- C++ -*----------------------------------*\
| =========                 |                                                 |
| \\      /  F ield         | OpenFOAM: The Open Source CFD Toolbox           |
|  \\    /   O peration     | Version:  2406                                  |
|   \\  /    A nd           | Website:  www.openfoam.com                      |
|    \\/     M anipulation  |                                                 |
\*---------------------------------------------------------------------------*/
FoamFile
{
    version     2.0;
    format      ascii;
    arch        "LSB;label=32;scalar=64";
    class       volScalarField;
    location    "0.04";
    object      alphat;
}
// * * * * * * * * * * * * * * * * * * * * * * * * * * * * * * * * * * * * * //

dimensions      [1 -1 -1 0 0 0 0];

internalField   nonuniform List<scalar> 
2065
(
0.0015501779
0.0018482261
0.002154582
0.0024602075
0.0027685701
0.00083380135
0.00099968618
0.0011908259
0.0014191191
0.0016735177
0.00066968409
0.00079076816
0.00093590275
0.0011181924
0.0011450275
0.0013536914
0.0015640403
0.0020702262
0.0023591653
0.0026452053
0.0030396671
0.0034106828
0.0038364321
0.0044383734
0.0048694569
0.0040957991
0.0034126579
0.0025440454
0.0015777392
0.0017506119
0.00077952779
0.00089180352
0.00054767262
0.00064632303
0.00077508915
0.00086420442
0.0010430338
0.0012537042
0.0014991361
0.0015945219
0.0019010801
0.0022559145
0.0026483997
0.0030782531
0.0036455961
0.0063181566
0.010135309
0.014550703
0.018531572
0.020900693
0.021094334
0.019456922
0.016807539
0.0038890971
0.0065896508
0.0103122
0.014560113
0.018354504
0.020546835
0.020647517
0.0189811
0.016347436
0.0041516136
0.006855139
0.010501564
0.014599227
0.018198117
0.020183324
0.020184313
0.018490375
0.015880545
0.0044215902
0.0071126297
0.010673808
0.014617689
0.018017371
0.019810728
0.019706494
0.017989538
0.01541417
0.0046955196
0.0073613512
0.010828399
0.014613515
0.017810616
0.019431106
0.019224237
0.0049793569
0.013775031
0.010594579
0.0073608814
0.004296389
0.0017027546
0.00020771041
0.013402334
0.010302872
0.0071513184
0.0041747734
0.0016583023
0.00020383145
0.013009792
0.0099975
0.0069382776
0.0040530401
0.0016113573
0.00019963332
0.012617088
0.009693008
0.0067284981
0.0039350234
0.0015697518
0.00019513801
0.037862777
0.02795863
0.018087559
0.0092076111
0.0027409485
0.00014581907
0.035256781
0.025789321
0.016547886
0.0084336258
0.0026020966
0.00015042897
0.032617608
0.023705131
0.015156676
0.0077645792
0.0024672313
0.00015256884
0.030072276
0.021760891
0.013894712
0.0071557525
0.0023184309
0.00015320385
0.027679869
0.019975164
0.012758711
0.0066147748
0.002188813
0.00015219193
0.025477781
0.018358556
0.011738213
0.0061158341
0.002042453
0.00015112398
0.023468531
0.016898582
0.010823711
0.0056773637
0.0019324569
0.00014874063
0.021646519
0.015578456
0.0099878143
0.0052548011
0.0017958138
0.00014596993
0.019990405
0.014395867
0.0092563522
0.0049036227
0.0017021589
0.00014320175
0.018539099
0.013351562
0.0086004545
0.0045759868
0.0015993876
0.00014080795
0.017338002
0.012501893
0.0080766771
0.0043225904
0.0015291946
0.00013894863
0.016307423
0.011781006
0.0076333665
0.0041040823
0.0014609311
0.00013786757
0.015442389
0.011198958
0.0072929749
0.0039468248
0.001419069
0.00013769888
0.014690095
0.010676868
0.0069814654
0.0038050901
0.0013846693
0.00013826426
0.01412487
0.010298608
0.0067619307
0.0037060487
0.0013592471
0.00013985593
0.013709691
0.010033777
0.0066192654
0.0036489975
0.0013484938
0.00014246951
0.013414956
0.0098578224
0.006532744
0.0036212179
0.0013486302
0.00014611818
0.013239415
0.0097754231
0.0065153169
0.0036358309
0.0013645211
0.00015088575
0.013157726
0.0097566455
0.0065329244
0.0036652795
0.0013863921
0.00015674945
0.013178816
0.0098335997
0.0066313177
0.0037492561
0.0014283353
0.0001637966
0.01324752
0.0099303463
0.0067249074
0.0038191324
0.0014664064
0.00017196185
0.013437688
0.010160834
0.0069469177
0.0039836134
0.0015416204
0.00018143321
0.013546334
0.01027925
0.007046211
0.0040550419
0.0015825301
0.00019195462
0.014092225
0.010856668
0.0075638638
0.0044236428
0.0017421495
0.00020467749
0.040044278
0.047973741
0.056392465
0.063982373
0.068797194
0.069192663
0.064803142
0.056914809
0.047513797
0.037467675
0.045264939
0.053558125
0.060972984
0.065631999
0.065956613
0.061638374
0.053887282
0.044646724
0.035173885
0.042734511
0.050793401
0.057961923
0.06240889
0.062602159
0.05829306
0.050655726
0.041641043
0.033072255
0.040339946
0.048105584
0.054975104
0.059158804
0.059180134
0.054856606
0.04736299
0.038649263
0.031093621
0.038066213
0.045493701
0.052021427
0.055906323
0.055745129
0.05141705
0.044115452
0.035764664
0.029260622
0.035888575
0.042940916
0.04910871
0.052681737
0.05235312
0.048050209
0.040993226
0.033052991
0.027543027
0.033850777
0.04048608
0.046234029
0.049504111
0.049048578
0.044814829
0.038046007
0.030538671
0.025852112
0.031837857
0.038142398
0.043515339
0.046448209
0.045849272
0.041729432
0.035295018
0.028233649
0.024308412
0.029937657
0.035873831
0.040936948
0.043623368
0.042901053
0.038868444
0.032740681
0.026110758
0.02272646
0.028075527
0.033691186
0.038446421
0.040951281
0.040205777
0.036333099
0.030506302
0.024257292
0.021396883
0.026406081
0.031671005
0.036121858
0.038432822
0.037698005
0.034042426
0.028555214
0.022685639
0.020147981
0.024861003
0.029803323
0.033977373
0.036129077
0.035409128
0.031955554
0.026809695
0.021312942
0.018892987
0.023335729
0.028018936
0.031998039
0.034051964
0.033375233
0.030131169
0.025295737
0.020133025
0.017637179
0.021854099
0.026321908
0.030150904
0.032168369
0.031589083
0.02856319
0.024003905
0.019123895
0.016444611
0.020455798
0.024738681
0.028456303
0.030481756
0.030027628
0.02723869
0.02295834
0.018337029
0.015286581
0.019120839
0.023257585
0.026904397
0.028982799
0.028680954
0.026134278
0.022122074
0.0177329
0.01414887
0.01782631
0.021848932
0.025460555
0.027643285
0.027518819
0.02521313
0.02146651
0.017282043
0.012984034
0.016529293
0.02047186
0.024090402
0.026414085
0.026506327
0.024443766
0.020967699
0.016969021
0.011784341
0.015214523
0.019104132
0.022769774
0.025256844
0.025612033
0.023798938
0.020604761
0.016784117
0.010473744
0.013801628
0.017666729
0.021427841
0.024118731
0.024789241
0.02323056
0.020322549
0.016696963
0.0090830776
0.012368422
0.016245544
0.020115665
0.023009852
0.024031186
0.022762647
0.020127455
0.016681578
0.007452168
0.010575371
0.014478608
0.018558669
0.021784141
0.023230524
0.022355741
0.019994324
0.016765556
0.0060975737
0.0092424499
0.0131385
0.017317518
0.02075525
0.022418277
0.02197342
0.019853633
0.016800914
0.0035483172
0.0063249911
0.010279937
0.014829552
0.018913872
0.021382308
0.02158591
0.019908678
0.017202051
0.00039934413
0.0033837599
0.0088034524
0.015671338
0.023456634
0.031916305
0.00037793428
0.0031516663
0.0081808707
0.014571416
0.021878022
0.029842208
0.00035875808
0.0029381978
0.0076324347
0.013600992
0.020449486
0.027926946
0.00034141099
0.002719497
0.0071248493
0.012724828
0.019157881
0.02619411
0.00032616684
0.0025410295
0.0066802987
0.011939123
0.017976535
0.024580607
0.00031206751
0.0023332476
0.0062157136
0.011164405
0.016848127
0.023068218
0.00030025866
0.0022202278
0.0058909277
0.010539762
0.015867389
0.021697484
0.00028871018
0.0019886732
0.0054014605
0.0097795087
0.01481167
0.020312546
0.00027993285
0.0019624989
0.0052310771
0.0093296467
0.01401104
0.019126573
0.00027036287
0.0016866718
0.0046611174
0.0085142665
0.012956336
0.017806604
0.00026364125
0.0016818457
0.0045344409
0.0081631466
0.012309305
0.016815424
0.00025801175
0.0016219152
0.0043429741
0.0077533362
0.01163632
0.015849883
0.0002529725
0.0015171897
0.0041063416
0.0073104229
0.010940234
0.014870125
0.00024836678
0.001322017
0.0037171139
0.0067369127
0.010155786
0.013846509
0.00024333227
0.0012009301
0.0034187874
0.0062213403
0.0094164749
0.012872916
0.00023842915
0.0010887792
0.0031305118
0.0057155076
0.0086861184
0.011915994
0.00023458933
0.00096725313
0.0028318975
0.0052123061
0.0079622126
0.010968442
0.00022754946
0.00084605566
0.0025158199
0.0046681541
0.007190979
0.0099788106
0.00021710007
0.00070589649
0.0021647882
0.0040977896
0.0063888669
0.0089476094
0.0002032134
0.00055839851
0.0017489049
0.0034153637
0.0054634183
0.0077926498
0.00018430748
0.00038994492
0.0012398781
0.0026715763
0.0044405407
0.0065176208
0.00014385289
0.00025941709
0.00071007837
0.001767622
0.0033162593
0.0051278388
6.9135804e-05
0.00013354555
0.00034409347
0.00095335165
0.0020270684
0.0035715355
1.9637211e-05
6.8442109e-05
0.00015651488
0.00043090979
0.0011252157
0.0020822061
2.0355448e-05
8.6790587e-05
0.00012175669
0.00018997839
0.00046713525
0.0011548547
2.417824e-05
0.00020859308
0.00033700687
0.00030672157
0.00030718939
0.0006451939
2.5673269e-05
0.00023660468
0.00053868596
0.0006643815
0.00063606752
0.00058735818
2.9990033e-05
0.00028620921
0.00073632596
0.0010791402
0.0011760156
0.00097390529
3.5503805e-05
0.00033876084
0.00088733159
0.001418359
0.0017647689
0.0018580218
4.1584659e-05
0.00043259418
0.0010965485
0.0017719245
0.0023305315
0.0026996323
4.8081661e-05
0.00052478144
0.0013232714
0.0021443467
0.002852731
0.0033900307
5.4648958e-05
0.00061684838
0.0015567918
0.0025122617
0.0033290731
0.0039545598
5.9466749e-05
0.00069449111
0.0017603403
0.0028304695
0.0037238958
0.0043899369
6.2972814e-05
0.00075516638
0.0019165712
0.0030713803
0.0040149153
0.004697461
6.4907465e-05
0.00079460371
0.0020170581
0.0032185689
0.004182933
0.0048645927
6.7327242e-05
0.0008135342
0.0020571634
0.0032636311
0.0042252789
0.0048981075
6.3677428e-05
0.00078872107
0.0019975141
0.0031835175
0.0041311794
0.0047946597
6.0662601e-05
0.00074082872
0.0018775755
0.0029995986
0.0039069332
0.0045524975
5.6817803e-05
0.00067602097
0.0017062322
0.0027289444
0.0035692215
0.0041806564
5.1274952e-05
0.00059032162
0.0014834449
0.0023782562
0.0031264044
0.0036802036
4.4053652e-05
0.00049144201
0.0012323315
0.0019790907
0.0026035193
0.0030531624
3.707072e-05
0.00038640011
0.00098382029
0.0015751737
0.0020350268
0.0023029865
3.0564194e-05
0.00028831984
0.0007666314
0.0012050459
0.0014433667
0.0014543737
2.4256173e-05
0.0002341767
0.00058639151
0.00081931433
0.00085658499
0.00066982248
1.9919209e-05
0.00016292109
0.00038385887
0.00043293421
0.00041043489
0.00046996417
1.4020143e-05
9.3712932e-05
0.00020001422
0.00020291468
0.00026768259
0.00067646599
1.1706661e-05
5.203302e-05
0.0001147663
0.00024936528
0.00051539175
0.0012671629
4.5298861e-05
0.00010928813
0.00023451418
0.00055184161
0.00045466439
0.0040505371
0.010850469
0.019613668
0.00045599654
0.0041453405
0.011138394
0.020148462
0.030505076
0.041859886
0.0004566671
0.0042269684
0.011390716
0.020621969
0.031230111
0.042875139
0.00045720604
0.0043086661
0.01162938
0.021051829
0.031874409
0.043767147
0.00045709431
0.0043862393
0.011841111
0.02141979
0.032407368
0.044482601
0.00045326551
0.0044358067
0.011988508
0.021691284
0.032808387
0.045019679
0.00044993651
0.0044773506
0.012102366
0.021889903
0.033095363
0.045396082
0.00044592272
0.004514276
0.012188667
0.02202518
0.033280665
0.045621768
0.0004412227
0.0045377316
0.01223721
0.022091306
0.033353982
0.045680834
0.00043746663
0.0045492641
0.012256501
0.02209047
0.033304443
0.045567136
0.00044061436
0.0045548606
0.012256085
0.022017178
0.033123103
0.045265646
0.00042914623
0.0045240823
0.012112433
0.021772504
0.032766523
0.044765685
0.0004288347
0.0044622747
0.011943238
0.021460852
0.032289201
0.044096029
0.00043000377
0.0043971939
0.011754372
0.021105932
0.031728458
0.043297461
0.00043081969
0.0043227592
0.011536786
0.02069742
0.0310934
0.042395022
0.00043052478
0.0042393308
0.011292538
0.020239431
0.030383525
0.041401895
0.00042940449
0.0041540402
0.011044907
0.019769867
0.02964566
0.04035156
0.00042965488
0.0040703269
0.010781
0.019274039
0.028878702
0.039274013
0.00042649212
0.0039653092
0.010490987
0.018753533
0.028092067
0.038185828
0.00042351017
0.0038707411
0.010215541
0.018248783
0.027321837
0.037111055
0.0004207848
0.0037816393
0.0099630762
0.017778369
0.026585988
0.036068237
0.000418574
0.0037082581
0.0097334155
0.01733803
0.02588427
0.035056698
0.0004158594
0.0036074754
0.0094817325
0.016890667
0.025205895
0.034096402
0.00041483461
0.0036125083
0.0094526367
0.016753131
0.024864193
0.033521284
0.0001384258
0.00022063519
0.0002037739
0.00045060436
0.00045292892
0.0039563559
0.04104323
0.042186328
0.043683349
0.045216677
0.046753737
0.048304828
0.04985137
0.051373149
0.052854726
0.054235555
0.055480958
0.056561998
0.057442941
0.058084159
0.058466533
0.058581178
0.058440618
0.058054659
0.057437962
0.056594748
0.05549705
0.054140736
0.052572901
0.048365997
0.050504945
0.052734424
0.054905752
0.057041917
0.059168758
0.061261987
0.063310041
0.065267169
0.067074577
0.068689202
0.070069182
0.071172206
0.071960385
0.072416283
0.072522857
0.072286929
0.071717048
0.070824538
0.06962299
0.068087751
0.066184855
0.063913727
0.056860163
0.059818927
0.062712586
0.065507583
0.068255327
0.070962852
0.073632712
0.076232489
0.078689295
0.080953821
0.082972837
0.084693577
0.08606556
0.087053438
0.087637769
0.087796598
0.087529729
0.086843061
0.085745353
0.084238122
0.082323606
0.079949788
0.077076894
0.066279502
0.069902643
0.073409625
0.076817163
0.080177073
0.083501967
0.086782222
0.08994875
0.092945383
0.095711183
0.098182306
0.10029773
0.10199954
0.10325405
0.10403873
0.10432608
0.10410824
0.10338557
0.1021641
0.10044563
0.098216698
0.095460712
0.092108088
0.076283438
0.080459821
0.08454216
0.088555984
0.092543253
0.096517052
0.1004271
0.10420671
0.10779132
0.11111283
0.1140985
0.11667948
0.11879267
0.12040282
0.12148407
0.12200141
0.12193932
0.12129043
0.12005368
0.11822925
0.11580964
0.11277105
0.10906173
0.086405645
0.091064263
0.095696605
0.10031977
0.10496248
0.10960999
0.11419252
0.1186401
0.12287878
0.12683155
0.13041838
0.13356363
0.13619645
0.138279
0.13978079
0.14065806
0.14088718
0.14045253
0.13934519
0.13756011
0.13508917
0.13190653
0.12798111
0.096015372
0.10111613
0.10629039
0.11154097
0.11687052
0.12223143
0.12755467
0.13275425
0.13774432
0.14243723
0.14674388
0.15058636
0.15388611
0.15658955
0.15866731
0.16006696
0.16075447
0.16070534
0.15990175
0.15833118
0.15598223
0.15283375
0.14885519
0.1042703
0.10980563
0.11553911
0.12146
0.12753381
0.13369843
0.13986548
0.14593671
0.15181325
0.15739353
0.16258194
0.16729238
0.17144527
0.17495892
0.17780564
0.17992605
0.18127438
0.18181713
0.1815273
0.18038286
0.17836437
0.17545374
0.1716439
0.11011258
0.11611147
0.1224745
0.12915673
0.1360916
0.14319245
0.15035304
0.15746305
0.16440636
0.17107111
0.17735123
0.18314864
0.18837422
0.19294008
0.19678545
0.19986089
0.20210654
0.2034802
0.20394678
0.20347621
0.20204109
0.19962075
0.19621984
0.11231834
0.11891774
0.126053
0.13365651
0.14162456
0.14984716
0.15820578
0.16657256
0.17481807
0.18281558
0.19044409
0.19759072
0.20415249
0.21003713
0.21514942
0.21944753
0.22285728
0.22532832
0.22681859
0.22729213
0.22671673
0.22506878
0.22235277
0.10993196
0.11734252
0.12545051
0.13417768
0.14339855
0.15298264
0.16279174
0.17268026
0.1825004
0.19210728
0.20136276
0.21013814
0.21831585
0.22579035
0.23246787
0.23826651
0.24312253
0.24697423
0.24977262
0.25147639
0.25204981
0.25146789
0.24973542
0.1027741
0.11123483
0.12057213
0.13067554
0.14140044
0.15259561
0.16410084
0.17575054
0.18737929
0.19882661
0.20994023
0.22057832
0.23061094
0.23992093
0.24840416
0.25596945
0.26253851
0.26804454
0.27243128
0.27565137
0.27766471
0.27844373
0.27799097
0.092439
0.10221217
0.11297553
0.1246072
0.13695093
0.14984204
0.16310923
0.17657828
0.19007597
0.20343357
0.21648967
0.22909243
0.24110135
0.25238844
0.26283884
0.272351
0.2808364
0.28821901
0.29443431
0.29942759
0.30315253
0.30557638
0.082341723
0.093328147
0.10536033
0.11832791
0.13208153
0.1464595
0.16129249
0.17640612
0.19162404
0.20677165
0.22167966
0.23618697
0.25014299
0.26340923
0.27586021
0.28738393
0.29788174
0.30726804
0.31546935
0.32242284
0.32807499
0.33238675
0.074671684
0.086484514
0.09941592
0.11336401
0.12819183
0.14374422
0.15985346
0.17634338
0.19303363
0.20974419
0.22629929
0.24253063
0.25827981
0.27340002
0.28775718
0.30123043
0.31371228
0.32510837
0.33533677
0.34432664
0.35201712
0.35836275
0.069386012
0.081777971
0.095374405
0.11007672
0.12575427
0.14225445
0.15940951
0.17704194
0.19496946
0.21300953
0.23098329
0.24871874
0.26605317
0.28283494
0.29892463
0.31419569
0.32853467
0.34184106
0.35402677
0.36501486
0.37473864
0.38314743
0.065670695
0.078539848
0.092703675
0.10806108
0.1244821
0.14181381
0.15988742
0.17852416
0.19754033
0.21675185
0.23597815
0.25504528
0.27378842
0.29205358
0.30969882
0.32659492
0.34262561
0.35768749
0.37168956
0.38455197
0.39620524
0.40659627
0.062757508
0.076072606
0.090773673
0.10675514
0.12388451
0.14200615
0.16094841
0.18052986
0.20056441
0.22086589
0.24125189
0.26154683
0.28158438
0.30120917
0.32027797
0.33866032
0.3562388
0.37290899
0.38857896
0.40316816
0.41660674
0.42884152
0.060095209
0.073847553
0.089079707
0.1056791
0.12350784
0.14240554
0.1621965
0.18269582
0.20371462
0.22506438
0.24656072
0.26802638
0.28929352
0.31020542
0.33061761
0.3503985
0.3694297
0.3876059
0.40483453
0.42103464
0.43613644
0.4500867
0.057351634
0.071505988
0.087233031
0.10441459
0.12290729
0.142546
0.16315087
0.1845334
0.20650156
0.22886409
0.25143422
0.27403253
0.29648925
0.31864589
0.34035637
0.3614876
0.38191977
0.4015463
0.42027344
0.43801933
0.45471352
0.47030185
0.053553637
0.068033432
0.084201939
0.10193066
0.12106525
0.14143108
0.16284028
0.1850979
0.2080068
0.23137186
0.25500333
0.27871959
0.30234912
0.32573202
0.34872093
0.37118158
0.39299299
0.41404735
0.43424968
0.45351691
0.47177755
0.48897573
0.048848679
0.063531559
0.080022769
0.098176657
0.11782686
0.13878995
0.16087198
0.18387398
0.20759634
0.23184245
0.25642168
0.28115177
0.30586063
0.33038763
0.35458445
0.3783156
0.40145855
0.42390373
0.44555409
0.46632449
0.48614132
0.50494575
0.04220617
0.056678794
0.073121542
0.091366967
0.11123317
0.13252492
0.15503944
0.17857122
0.20291585
0.22787322
0.2532501
0.27886223
0.30453584
0.33010878
0.35543117
0.38036579
0.40478821
0.42858666
0.45166167
0.47392551
0.49530179
0.51572782
0.033427761
0.04706083
0.062878933
0.080658847
0.10020014
0.12130134
0.14375465
0.16735087
0.19188297
0.21714898
0.24295428
0.26911352
0.29545181
0.32180558
0.34802306
0.37396463
0.3995029
0.42452266
0.44892061
0.47260491
0.49549482
0.51752227
0.022851703
0.033805777
0.047228878
0.062989322
0.080874365
0.10064461
0.12205955
0.14488118
0.1688764
0.19381881
0.21949027
0.24569807
0.27226457
0.29902172
0.32581213
0.35248978
0.37892041
0.40498162
0.43056283
0.45556496
0.47990007
0.5034923
0.015516402
0.023103443
0.032873873
0.044841985
0.058948319
0.075081246
0.093094718
0.11282087
0.13407912
0.156683
0.18044515
0.20515586
0.23060523
0.25659586
0.28294366
0.30947829
0.33604318
0.36249546
0.38870561
0.41455703
0.4399455
0.46477931
0.012984322
0.018334012
0.02520219
0.033705149
0.043908819
0.055830317
0.069441878
0.084677949
0.10144283
0.11961789
0.13906813
0.15964825
0.18120771
0.20359496
0.22666008
0.25025703
0.27424552
0.2984923
0.3228721
0.34726823
0.37157281
0.39568715
0.013748844
0.018569627
0.024442633
0.031424987
0.039560486
0.048886073
0.05941436
0.071135152
0.084017629
0.098012815
0.11305742
0.12907626
0.14598396
0.16370059
0.18213814
0.20120229
0.22079619
0.2408233
0.26118963
0.28180427
0.30257993
0.32343363
0.017834382
0.023581456
0.030290289
0.037965269
0.046596814
0.056144934
0.066559655
0.07777675
0.089722213
0.10232618
0.11553213
0.12928925
0.14355059
0.15824779
0.17331124
0.18867105
0.20425645
0.2199966
0.23583474
0.25172446
0.26762142
0.28348379
0.030287335
0.03934755
0.049484516
0.060588418
0.072549263
0.085255478
0.098593671
0.11244449
0.1266668
0.14114765
0.15580354
0.17056257
0.18536213
0.20014691
0.21486893
0.2294887
0.24396874
0.25827083
0.27234408
0.28614172
0.29963444
0.31278711
0.084601811
0.1065036
0.12914969
0.1520423
0.17475964
0.19695691
0.21836178
0.23876691
0.2580325
0.27611819
0.29301509
0.30873732
0.32331644
0.33679667
0.34923458
0.36069354
0.37124276
0.38095067
0.38988369
0.39810575
0.40567794
0.41265809
0.048898284
0.05843026
0.066727638
0.071602867
0.071733379
0.067395907
0.060183106
0.052091301
0.044854213
0.048169338
0.058108886
0.067125274
0.073101746
0.074604568
0.071720597
0.065837448
0.058772594
0.051851334
0.046985793
0.057332197
0.067120161
0.074312617
0.077345326
0.076083557
0.071678106
0.065783823
0.059633233
0.044982857
0.055787387
0.066433199
0.074982001
0.079731373
0.080306522
0.077605121
0.073122027
0.068119545
0.041750142
0.05308001
0.064694784
0.074767472
0.081452903
0.084122991
0.083405696
0.080616545
0.077066685
0.036840506
0.048743497
0.061439821
0.073207775
0.082068615
0.087118879
0.088693245
0.087900777
0.08603317
0.029865058
0.042300395
0.056155298
0.069718607
0.080983096
0.088700125
0.092875955
0.094374723
0.094402933
0.020637575
0.033396569
0.048328878
0.063665303
0.077461788
0.088085102
0.095151017
0.099227339
0.10134276
0.01075013
0.022244196
0.037640462
0.054573571
0.070730724
0.084349699
0.094506878
0.10139538
0.10579942
0.0039321282
0.01147441
0.024888945
0.042296838
0.06036633
0.076658862
0.089886159
0.099687239
0.10652725
0.0014016654
0.004901457
0.014007105
0.028772555
0.047018969
0.06510181
0.080835525
0.093307535
0.10254709
0.0008213764
0.0021878521
0.0073735349
0.018160482
0.033697756
0.051449821
0.068373957
0.082685137
0.093861266
0.00067130428
0.0013311792
0.0041662068
0.011607568
0.023845026
0.039392963
0.055595795
0.0702735
0.082339355
0.00063476502
0.0010330698
0.0027111458
0.0081945841
0.018010907
0.031188726
0.045754217
0.059662397
0.071595496
0.00062973187
0.00090562908
0.0019702298
0.00608701
0.014360775
0.025992265
0.03925415
0.052270502
0.063713455
0.00064480064
0.00085036066
0.0015326786
0.0044352613
0.0115599
0.022205952
0.034700903
0.047181254
0.058295784
0.00067349317
0.00085348768
0.0013328404
0.0034253955
0.0095422242
0.019365355
0.031304474
0.04346142
0.054416552
0.00069832677
0.00086096121
0.0012116806
0.002618764
0.007708314
0.016862689
0.028406401
0.040383256
0.051295299
0.00073712387
0.00089186591
0.001134889
0.0021161547
0.0061555209
0.01455991
0.025687116
0.037503141
0.048406278
0.00076695721
0.00091829147
0.0011201305
0.0017102612
0.0046377922
0.012201881
0.022892564
0.03455001
0.045449416
0.0008062828
0.00096668515
0.0011465058
0.00149389
0.0034373344
0.009590597
0.019486936
0.030761585
0.041527769
0.00083931105
0.00099642982
0.0011593662
0.0014067151
0.0024675887
0.0068830036
0.015667373
0.026343512
0.036823413
0.00088867717
0.0010433648
0.0012148597
0.0014254996
0.002000118
0.0046972519
0.011442331
0.020877442
0.030602776
0.00092469957
0.0010752783
0.0012451416
0.0014659915
0.0018838393
0.0033359026
0.0075718156
0.014709503
0.022922131
0.00097631394
0.0011299871
0.0013047263
0.0015270764
0.0018968444
0.0028150804
0.0051973552
0.0095062954
0.015031672
0.0010196279
0.0011737397
0.0013479648
0.0015934767
0.0020250623
0.002854955
0.0044743649
0.0071024393
0.010450601
0.001085106
0.0012316561
0.0014249669
0.0017114526
0.0022367776
0.0032176981
0.0047941806
0.006944861
0.0093825659
0.0011322453
0.0012917949
0.0014996956
0.0018452102
0.0025380248
0.0038087254
0.0056905984
0.0079694102
0.010341315
0.0012238282
0.0014057307
0.0016708526
0.0021822377
0.0032400951
0.0050996437
0.007702372
0.010686222
0.013632706
0.0013895187
0.0016888925
0.0021756764
0.0032324594
0.0054604943
0.0090729485
0.013706041
0.018722346
0.023476049
0.0021254633
0.002532909
0.0038886619
0.0076380403
0.015224301
0.026732261
0.04054066
0.054419862
0.066810445
0.039127122
0.038254509
0.037005624
0.034924814
0.031604374
0.026630266
0.019591671
0.011145317
0.0040800295
0.0012758049
0.00058002985
0.00048746611
0.00046344564
0.0004632475
0.0004843624
0.00049825301
0.00053087629
0.00055549869
0.00059467862
0.00062516451
0.0006649226
0.00069674138
0.00074336024
0.00077812727
0.0008293825
0.00087355273
0.00093147801
0.0010102519
0.0010750775
0.0012018021
0.0016542553
0.029109999
0.028269175
0.027179082
0.025267681
0.022165378
0.017427414
0.010925513
0.0044505709
0.0013167226
0.00047594228
0.00034133557
0.00032552458
0.0003190407
0.00032680517
0.00034333927
0.0003582399
0.00038760196
0.00041014093
0.00044734664
0.00047630843
0.00051464008
0.00054395168
0.00058967377
0.00062251397
0.00067104124
0.00071368597
0.0007703146
0.00083544036
0.00094043617
0.0010156593
0.0012489717
0.019052996
0.01833845
0.017553823
0.015969945
0.013279907
0.0091478218
0.0040724992
0.0012134317
0.00038035099
0.00020958403
0.00019591531
0.00018917094
0.00018815008
0.0001902827
0.00020359742
0.00021532368
0.00024234332
0.00025990007
0.00029261559
0.00031645185
0.00035225644
0.00037762713
0.00041986151
0.00044972828
0.00049381919
0.00053399778
0.0005879301
0.00065420358
0.00075420657
0.00085876016
0.0010355912
0.0098007121
0.0092829619
0.0088366601
0.0076698011
0.0055642466
0.0025156346
0.00077238456
0.00021185868
0.00010502502
9.2138966e-05
8.8974839e-05
8.7065508e-05
8.6776075e-05
8.8228471e-05
9.0929952e-05
9.4992638e-05
0.00010662323
0.00011689742
0.00013647764
0.00015329666
0.0001792825
0.00020018065
0.00023331557
0.00025967384
0.00029486319
0.00032878596
0.00037475711
0.00043408459
0.00051335536
0.00069682315
0.00086202181
0.002871732
0.0025574917
0.0022670515
0.0015326163
0.00076539739
0.0002663024
7.7297229e-05
5.1119364e-05
4.7411412e-05
4.5556264e-05
4.3562608e-05
4.1547939e-05
3.9813726e-05
3.8150586e-05
3.7492031e-05
3.8539686e-05
3.7668298e-05
3.7954034e-05
3.916697e-05
4.2140447e-05
4.8238845e-05
5.3944074e-05
6.386569e-05
7.7157543e-05
9.2908673e-05
0.0001129677
0.00014193674
0.00018534422
0.0002620773
0.00043557637
0.00066944189
0.00013120366
0.00010902064
8.4432444e-05
5.6009625e-05
3.8323031e-05
3.3045157e-05
3.2843225e-05
3.3584771e-05
3.4370354e-05
3.5096794e-05
3.5653545e-05
3.5909299e-05
3.5730209e-05
3.5139838e-05
3.4035252e-05
3.2624124e-05
2.914326e-05
2.6372994e-05
2.3334125e-05
2.037458e-05
1.7486823e-05
1.5136502e-05
1.3727547e-05
1.3089546e-05
1.2944822e-05
1.3794659e-05
1.7034561e-05
2.3301043e-05
3.6579578e-05
6.7487186e-05
9.7637418e-05
)
;

boundaryField
{
    Side1
    {
        type            empty;
    }
    Inlet
    {
        type            calculated;
        value           uniform 0.47769987;
    }
    Side2
    {
        type            empty;
    }
    Outlet
    {
        type            zeroGradient;
    }
    Botwall
    {
        type            compressible::alphatWallFunction;
        value           nonuniform List<scalar> 
59
(
2.4179348e-05
2.3542731e-05
2.2852009e-05
2.2112549e-05
1.3902639e-05
1.468036e-05
1.5044258e-05
1.5153151e-05
1.4995332e-05
1.4813609e-05
1.442942e-05
1.3962889e-05
1.3507652e-05
1.3105592e-05
1.2799438e-05
1.2616475e-05
1.2590942e-05
1.2685736e-05
1.2952023e-05
1.338943e-05
1.399927e-05
1.4794863e-05
1.5771573e-05
1.6942761e-05
1.8296374e-05
1.986185e-05
2.1595407e-05
2.3683729e-05
1.1441016e-05
7.6720202e-06
3.4187485e-06
0
0
0
0
0
0
0
0
0
0
0
0
0
0
0
0
0
0
0
0
0
0
0
0
0
0
4.0613021e-07
5.7182754e-06
)
;
    }
    Cyli
    {
        type            compressible::alphatWallFunction;
        value           nonuniform List<scalar> 
76
(
5.4688386e-05
5.1362618e-05
4.8368826e-05
4.564788e-05
4.3246437e-05
4.1016286e-05
3.9141566e-05
3.7301227e-05
3.5898211e-05
3.4361277e-05
3.3280442e-05
3.237397e-05
3.1557335e-05
3.08087e-05
2.9983934e-05
2.9180215e-05
2.854853e-05
2.7390901e-05
2.5694132e-05
2.3394289e-05
2.0283335e-05
1.3549259e-05
6.9634671e-07
0
0
0
0
0
0
0
0
0
0
0
0
3.7438934e-07
0
0
0
0
0
0
0
0
0
0
0
0
6.3214181e-05
6.3414598e-05
6.3513516e-05
6.3590739e-05
6.3566452e-05
6.2981119e-05
6.2470964e-05
6.1850557e-05
6.1126513e-05
6.0548131e-05
6.1030527e-05
5.9266134e-05
5.921883e-05
5.9399858e-05
5.9526907e-05
5.9483291e-05
5.9312694e-05
5.9353714e-05
5.8868733e-05
5.8411533e-05
5.7993729e-05
5.7655134e-05
5.7238739e-05
5.7083174e-05
1.2626976e-05
2.3473579e-05
6.2599601e-05
6.2952047e-05
)
;
    }
    procBoundary0to1
    {
        type            processor;
        value           nonuniform List<scalar> 
44
(
0.0030834986
0.0030834986
0.0019508053
0.0013571725
0.0013571725
0.0018136826
0.0018136826
0.002912387
0.0037261726
0.0037261726
0.0042487391
0.0042487391
0.0048459617
0.0052481117
0.0051574463
0.0051574463
0.0053047053
0.0053254763
0.0052172327
0.0049799311
0.0046097129
0.0046097129
0.004435528
0.003736856
0.0028103421
0.0028103421
0.00193148
0.017480948
0.014946791
0.0076029765
0.010966315
0.014586132
0.017580123
0.019039687
0.017480948
0.01873338
0.0076029765
0.0052695685
0.01222494
0.0093913387
0.006525152
0.0038202138
0.0015251674
0.00019039936
)
;
    }
    procBoundary0to2
    {
        type            processor;
        value           nonuniform List<scalar> 
55
(
0.0030927492
0.0036400232
0.0041601939
0.0046599614
0.0051555763
0.0011688956
0.0023025093
0.00047487754
0.0011688956
0.0011434186
0.01056723
0.029715006
0.019100367
0.029715006
0.040886177
0.00047487754
0.00035041738
0.00035041738
0.00024634426
0.00044759893
0.0038567204
0.0038567204
0.01056723
0.051028608
0.061407808
0.073762441
0.088166118
0.10467063
0.12330554
0.14407258
0.1669482
0.19185168
0.21858034
0.24686539
0.27631963
0.30670278
0.30670278
0.33535604
0.36335539
0.39022799
0.41570836
0.43985287
0.46286343
0.48475555
0.50507155
0.52268594
0.53514449
0.53861933
0.52626575
0.48897902
0.41953855
0.3442896
0.2992486
0.32554409
0.41909093
)
;
    }
    procBoundary0to3
    {
        type            processor;
        value           nonuniform List<scalar> 7(0.0010304584 0.0010304584 0.00094088352 0.00094088352 0.001779661 0.001779661 0.003539388);
    }
}


// ************************************************************************* //
