/*--------------------------------*- C++ -*----------------------------------*\
| =========                 |                                                 |
| \\      /  F ield         | OpenFOAM: The Open Source CFD Toolbox           |
|  \\    /   O peration     | Version:  2406                                  |
|   \\  /    A nd           | Website:  www.openfoam.com                      |
|    \\/     M anipulation  |                                                 |
\*---------------------------------------------------------------------------*/
FoamFile
{
    version     2.0;
    format      ascii;
    arch        "LSB;label=32;scalar=64";
    class       volScalarField;
    location    "0.04";
    object      T;
}
// * * * * * * * * * * * * * * * * * * * * * * * * * * * * * * * * * * * * * //

dimensions      [0 0 0 1 0 0 0];

internalField   nonuniform List<scalar> 
2065
(
293.18742
293.13058
293.07777
293.03373
292.99502
293.40793
293.353
293.29143
293.23042
293.175
293.44435
293.41771
293.38286
293.34079
293.42903
293.41512
293.39695
293.42326
293.41434
293.40266
293.4229
293.4161
293.42503
293.42949
293.43618
293.49398
293.50176
293.51323
293.53635
293.54033
293.60136
293.60434
293.74495
293.74258
293.72916
293.81784
293.79206
293.75489
293.71419
293.72203
293.68875
293.64905
293.61184
293.578
292.91932
292.72048
292.54098
292.38297
292.25177
292.14945
292.07365
292.01896
291.97965
292.89245
292.69511
292.52546
292.37952
292.25965
292.16627
292.09666
292.04614
292.00962
292.86578
292.67738
292.51776
292.38277
292.27239
292.18638
292.12219
292.0755
292.04167
292.84206
292.66506
292.51345
292.38749
292.28563
292.20656
292.14761
292.1047
292.07353
292.81882
292.65333
292.51002
292.39252
292.29876
292.22647
292.17266
292.79632
291.94745
291.91634
291.88535
291.85125
291.80596
291.72056
291.97958
291.9504
291.92127
291.88909
291.84568
291.76433
292.01363
291.98616
291.95851
291.92764
291.88558
291.80825
292.04752
292.02188
291.99586
291.96648
291.92614
291.85274
292.48713
292.49816
292.51317
292.53733
292.59116
292.78714
292.35353
292.36091
292.37136
292.38875
292.42585
292.54607
292.21327
292.21728
292.22394
292.23676
292.26667
292.36334
292.06699
292.06665
292.06759
292.07167
292.08475
292.13854
291.91821
291.91377
291.91002
291.90886
291.91691
291.96226
291.77251
291.76473
291.75667
291.74861
291.74119
291.74723
291.63066
291.61862
291.60532
291.5904
291.57359
291.56882
291.49732
291.48061
291.46189
291.44093
291.41853
291.41275
291.3799
291.35921
291.33611
291.31031
291.28274
291.27121
291.28489
291.26126
291.23531
291.20674
291.17593
291.15399
291.21618
291.18932
291.15999
291.12752
291.09124
291.05768
291.17848
291.14901
291.11761
291.08367
291.04564
291.0009
291.17107
291.1378
291.10159
291.0613
291.01481
290.95168
291.18918
291.15769
291.12328
291.08422
291.03617
290.96288
291.2247
291.19397
291.16105
291.12393
291.07573
290.99481
291.27662
291.24368
291.20892
291.17
291.12117
291.03908
291.34628
291.31242
291.27685
291.23692
291.18616
291.1001
291.42595
291.39118
291.35516
291.31514
291.26404
291.17452
291.51126
291.47578
291.43923
291.39864
291.34647
291.25547
291.59793
291.56236
291.52616
291.48638
291.43521
291.34232
291.68217
291.64657
291.61032
291.57013
291.51801
291.42619
291.76265
291.72788
291.69301
291.65492
291.60531
291.51262
291.83528
291.80078
291.76597
291.72749
291.67727
291.58786
291.90916
291.87616
291.84321
291.80703
291.75929
291.66919
292.30888
292.32462
292.34209
292.36298
292.38526
292.40761
292.42973
292.45136
292.47213
292.16842
292.19155
292.21662
292.24163
292.26538
292.28716
292.30699
292.32535
292.34215
292.03139
292.06021
292.08985
292.11754
292.14169
292.16194
292.17882
292.19323
292.20568
291.89382
291.92732
291.96043
291.99008
292.0143
292.03275
292.04628
292.05624
292.06382
291.75887
291.79632
291.83213
291.86287
291.88637
291.90231
291.91191
291.91705
291.91953
291.63118
291.67146
291.70881
291.7395
291.76128
291.774
291.77934
291.77974
291.7776
291.51639
291.55739
291.59444
291.62367
291.6427
291.65152
291.65212
291.6474
291.64018
291.41731
291.45775
291.49315
291.51963
291.53492
291.53917
291.53458
291.52439
291.51172
291.34527
291.37986
291.41057
291.43265
291.44316
291.44219
291.43213
291.41649
291.39869
291.27732
291.31545
291.34755
291.36709
291.37281
291.36628
291.35058
291.32971
291.30731
291.30334
291.32679
291.33809
291.34084
291.33466
291.31906
291.29615
291.2695
291.24237
291.32513
291.33959
291.34881
291.34679
291.33084
291.30401
291.27259
291.23978
291.20806
291.37632
291.3775
291.37195
291.35756
291.33649
291.30979
291.27631
291.23957
291.20413
291.46364
291.4478
291.42509
291.39649
291.36334
291.3269
291.28979
291.254
291.22043
291.59505
291.55775
291.51453
291.46808
291.42018
291.37333
291.3299
291.29068
291.25591
291.75302
291.69306
291.62845
291.5632
291.50096
291.44386
291.39293
291.34845
291.31032
291.9273
291.84336
291.75628
291.67179
291.59488
291.52761
291.47005
291.42158
291.38127
292.10819
292.00043
291.89112
291.78781
291.69648
291.61929
291.55562
291.50386
291.46197
292.2825
292.15357
292.0246
291.90442
291.80015
291.71423
291.64534
291.59092
291.54796
292.43842
292.29292
292.14887
292.01535
291.90061
291.80762
291.73463
291.67828
291.63478
292.57348
292.41453
292.25926
292.11618
291.99383
291.89572
291.81992
291.76244
291.71888
292.68409
292.518
292.35573
292.20613
292.07839
291.97673
291.89935
291.84161
291.79862
292.7779
292.5981
292.43128
292.28033
292.15122
292.04828
291.97037
291.91291
291.87069
292.91683
292.72985
292.54201
292.37275
292.23239
292.12338
292.04274
291.98474
291.9433
291.5702
291.79676
291.9554
292.07593
292.17501
292.26113
291.43148
291.65268
291.81305
291.93395
292.033
292.11841
291.29557
291.51467
291.67337
291.79343
291.89224
291.97772
291.16545
291.38151
291.53693
291.65509
291.75276
291.83767
291.04839
291.25912
291.40871
291.52335
291.61852
291.7015
290.94555
291.14675
291.29212
291.40281
291.49448
291.57384
290.8638
291.05935
291.19754
291.30125
291.38685
291.46092
290.81933
290.99664
291.12265
291.21863
291.29772
291.36528
290.79214
290.9636
291.09354
291.18086
291.24775
291.30274
290.8888
291.01676
291.07668
291.13331
291.1867
291.23527
290.90285
291.01446
291.09731
291.16421
291.2211
291.26794
290.89522
291.03717
291.16676
291.23741
291.28063
291.30769
291.0479
291.20299
291.28998
291.33198
291.35597
291.37002
291.23207
291.39464
291.43968
291.4601
291.4701
291.4718
291.63956
291.6538
291.659
291.65289
291.64043
291.62294
292.00144
291.94535
291.91946
291.88306
291.84365
291.80321
292.3445
292.23527
292.1848
292.1244
292.06153
291.99944
292.67751
292.59684
292.49427
292.38838
292.29139
292.20353
293.06534
292.90624
292.77649
292.64068
292.51397
292.39981
293.32606
293.26604
293.06456
292.87915
292.71642
292.57494
293.51791
293.44641
293.28083
293.07952
292.89254
292.72671
293.66381
293.61835
293.39921
293.2134
293.02167
292.84539
293.53909
293.61717
293.54587
293.3228
293.14645
292.96006
293.43417
293.50989
293.57408
293.4951
293.24961
293.06696
293.44531
293.45759
293.49688
293.53596
293.49101
293.27576
293.4322
293.44596
293.45711
293.48234
293.48521
293.45627
293.43921
293.44005
293.44431
293.45085
293.46076
293.45783
293.43817
293.43755
293.43803
293.43908
293.44027
293.4389
293.437
293.4369
293.43602
293.43493
293.43313
293.42942
293.43543
293.43595
293.43521
293.43377
293.4315
293.42793
293.43509
293.43626
293.43588
293.43464
293.4325
293.42924
293.43688
293.43859
293.43873
293.43783
293.43596
293.43307
293.44107
293.4429
293.44337
293.44286
293.44144
293.43908
293.44738
293.44897
293.44959
293.4494
293.44847
293.44676
293.45435
293.45592
293.45659
293.45674
293.45634
293.45541
293.45955
293.46252
293.46331
293.46382
293.46407
293.46401
293.46248
293.46602
293.46808
293.4696
293.47079
293.47176
293.46261
293.46813
293.47163
293.47427
293.47647
293.47847
293.46278
293.47042
293.47511
293.47863
293.48168
293.48456
293.46422
293.47323
293.47875
293.48302
293.48685
293.49058
293.46709
293.47664
293.48279
293.48785
293.49267
293.49755
293.47093
293.48096
293.48799
293.49428
293.50071
293.50767
293.47561
293.48587
293.49459
293.50352
293.51416
293.52776
293.47967
293.49174
293.50399
293.51963
293.54379
293.58852
293.48444
293.49781
293.51646
293.552
293.61128
293.7184
293.48844
293.50276
293.55647
293.68098
293.78116
293.83143
293.48516
293.57454
293.74011
293.88539
293.86726
293.75185
293.60465
293.80288
293.93932
293.87177
291.34947
291.59692
291.77806
291.91863
291.57294
291.78927
291.94821
292.07095
292.17354
292.26223
291.7967
291.98507
292.12146
292.22639
292.31372
292.38934
292.01302
292.1788
292.29306
292.38015
292.45238
292.51495
292.21366
292.36126
292.45491
292.52508
292.58392
292.63542
292.42082
292.52684
292.59918
292.6555
292.70353
292.74633
292.59808
292.67402
292.72961
292.77442
292.81338
292.84802
292.7482
292.80276
292.84487
292.88004
292.9107
292.9382
292.87544
292.91003
292.94109
292.96833
292.99251
293.01448
292.96967
292.99495
293.01763
293.03829
293.05741
293.07537
293.02359
293.05397
293.07126
293.08734
293.10339
293.11924
293.04467
293.06855
293.08993
293.10937
293.12736
293.14433
293.01087
293.05055
293.08086
293.1066
293.12924
293.1498
292.95289
293.01158
293.05232
293.08487
293.11308
293.13841
292.87116
292.95352
293.0064
293.04708
293.08148
293.11226
292.77401
292.87645
292.94277
292.99325
293.03517
293.07196
292.66231
292.7871
292.86641
292.92625
292.97586
293.0196
292.5314
292.68621
292.77952
292.84819
292.90538
292.95596
292.41115
292.57262
292.67794
292.75704
292.82299
292.88091
292.27783
292.45037
292.56782
292.65697
292.73129
292.79639
292.13932
292.32465
292.45276
292.55049
292.63229
292.7041
291.99995
292.19768
292.33411
292.43909
292.52764
292.60582
291.85183
292.0606
292.20811
292.32181
292.41784
292.50262
291.70491
291.93639
292.09066
292.21071
292.31234
292.40056
293.87204
293.97877
293.91942
290.91195
291.12744
291.40517
292.48752
292.58662
292.68459
292.77649
292.86167
292.93854
293.00584
293.06244
293.10766
293.14128
293.16184
293.16873
293.16041
293.13529
293.09421
293.03821
292.96854
292.88642
292.79372
292.69195
292.58244
292.46775
292.35002
292.5805
292.68139
292.77267
292.85621
292.93227
292.99956
293.05748
293.10536
293.14283
293.16918
293.18399
293.18673
293.17637
293.15219
293.11484
293.06493
293.00335
292.93098
292.84888
292.75817
292.66033
292.55722
292.4492
292.67996
292.77534
292.85805
292.93269
292.9994
293.05727
293.1062
293.14574
293.17563
293.19544
293.20508
293.20421
293.19218
293.16885
293.13467
293.09008
293.03563
292.97193
292.89964
292.81963
292.73279
292.64088
292.54406
292.78127
292.86756
292.94094
293.00616
293.06325
293.11193
293.15193
293.18344
293.20606
293.21983
293.22476
293.22068
293.20727
293.18473
293.15335
293.11346
293.06543
293.00963
292.94645
292.87638
292.80033
292.71904
292.63319
292.88164
292.95705
293.02045
293.07568
293.12304
293.1626
293.19427
293.21787
293.23366
293.24186
293.24253
293.2356
293.22109
293.19927
293.17038
293.13466
293.09235
293.04368
292.9889
292.92824
292.86203
292.79105
292.71576
292.97874
293.04229
293.09509
293.14014
293.17802
293.20864
293.23195
293.24821
293.2578
293.26095
293.2578
293.24841
293.23303
293.21189
293.18521
293.15316
293.11591
293.07358
293.0263
292.97417
292.91731
292.85609
292.79085
293.07019
293.12143
293.16349
293.1987
293.22725
293.24907
293.2645
293.27402
293.27794
293.27652
293.26996
293.25851
293.24245
293.22198
293.19728
293.16849
293.1357
293.09899
293.05839
293.01392
292.9656
292.91352
292.85786
293.15361
293.19282
293.2246
293.25012
293.26944
293.28296
293.2912
293.29453
293.29332
293.28784
293.2784
293.2653
293.24876
293.22898
293.20608
293.18017
293.15131
293.11952
293.08481
293.04715
293.0065
292.9628
292.91584
293.227
293.2552
293.27689
293.29282
293.30351
293.30945
293.3111
293.30892
293.3032
293.29432
293.28259
293.26824
293.25148
293.23243
293.21121
293.18787
293.16244
293.13494
293.10531
293.07354
293.03955
293.00325
292.96429
293.28934
293.30694
293.31872
293.32565
293.32839
293.3275
293.32337
293.31645
293.3071
293.29559
293.28218
293.26705
293.25033
293.23213
293.21251
293.1915
293.16912
293.14533
293.1201
293.09337
293.06509
293.03514
293.00327
293.33897
293.34572
293.34813
293.34699
293.34279
293.33612
293.32742
293.31694
293.30495
293.29167
293.27726
293.26183
293.24548
293.22826
293.21021
293.19134
293.17165
293.15109
293.12962
293.1072
293.08375
293.05918
293.03327
293.37026
293.36774
293.36255
293.35523
293.34618
293.33564
293.32391
293.31119
293.29765
293.28344
293.26866
293.25339
293.23768
293.22156
293.20505
293.18813
293.17079
293.153
293.13471
293.11588
293.09645
293.07633
293.05535
293.38665
293.3778
293.36741
293.35583
293.34329
293.33003
293.31624
293.30206
293.28761
293.27297
293.25821
293.24334
293.2284
293.21338
293.19828
293.18308
293.16775
293.15227
293.13659
293.12068
293.10449
293.08795
293.3926
293.37907
293.36489
293.35026
293.33539
293.32044
293.30552
293.2907
293.27601
293.26148
293.24712
293.23293
293.21888
293.20497
293.19119
293.17749
293.16386
293.15027
293.13669
293.12307
293.10939
293.09559
293.38722
293.37081
293.35457
293.33857
293.3229
293.30758
293.29263
293.27805
293.26381
293.24992
293.23634
293.22306
293.21005
293.1973
293.18477
293.17245
293.1603
293.1483
293.13643
293.12465
293.11295
293.10129
293.37332
293.35614
293.33958
293.32361
293.30822
293.29338
293.27906
293.26522
293.25184
293.23888
293.22631
293.2141
293.20223
293.19065
293.17935
293.16831
293.15749
293.14687
293.13644
293.12617
293.11605
293.10605
293.35444
293.33751
293.32146
293.30621
293.29169
293.27783
293.26457
293.25186
293.23965
293.22789
293.21655
293.20558
293.19495
293.18464
293.17461
293.16483
293.1553
293.14597
293.13685
293.12792
293.11915
293.11054
293.33227
293.31629
293.30135
293.2873
293.27404
293.26148
293.24955
293.23817
293.22729
293.21686
293.20683
293.19717
293.18784
293.1788
293.17004
293.16153
293.15324
293.14517
293.13729
293.12959
293.12206
293.11469
293.30902
293.29425
293.2806
293.2679
293.25601
293.24483
293.23426
293.22425
293.21471
293.20561
293.19689
293.18852
293.18046
293.17268
293.16515
293.15786
293.15078
293.1439
293.1372
293.13068
293.12431
293.1181
293.28455
293.27121
293.25902
293.24777
293.23732
293.22755
293.21837
293.2097
293.2015
293.19369
293.18624
293.17911
293.17226
293.16568
293.15933
293.15319
293.14726
293.1415
293.1359
293.13046
293.12517
293.12002
293.25974
293.24781
293.23705
293.22721
293.21816
293.20975
293.2019
293.19454
293.18759
293.18102
293.17477
293.16881
293.16312
293.15766
293.15242
293.14738
293.14251
293.13781
293.13326
293.12885
293.12457
293.12042
293.23327
293.2229
293.21366
293.20531
293.19768
293.19063
293.18409
293.17798
293.17224
293.16683
293.1617
293.15682
293.15218
293.14774
293.14349
293.13941
293.13549
293.13172
293.12808
293.12457
293.12118
293.11789
293.20617
293.19731
293.18955
293.18261
293.17632
293.17056
293.16525
293.16031
293.15569
293.15135
293.14725
293.14337
293.13969
293.13619
293.13284
293.12964
293.12658
293.12364
293.12082
293.1181
293.11548
293.11296
293.17721
293.17002
293.16381
293.15832
293.1534
293.14892
293.14481
293.141
293.13746
293.13414
293.13102
293.12808
293.12529
293.12265
293.12014
293.11774
293.11545
293.11327
293.11117
293.10917
293.10725
293.1054
293.14648
293.14125
293.13674
293.13276
293.1292
293.12597
293.12301
293.12028
293.11773
293.11536
293.11313
293.11104
293.10906
293.10718
293.1054
293.10372
293.10211
293.10058
293.09912
293.09773
293.0964
293.09513
293.11183
293.10914
293.1068
293.10469
293.10275
293.10096
293.09928
293.0977
293.09621
293.0948
293.09346
293.09219
293.09098
293.08984
293.08875
293.08771
293.08672
293.08579
293.08489
293.08404
293.08323
293.08247
293.08206
293.08009
293.07864
293.07749
293.07652
293.07567
293.0749
293.07418
293.07351
293.07286
293.07225
293.07167
293.07111
293.07057
293.07006
293.06957
293.06911
293.06866
293.06825
293.06785
293.06748
293.06713
293.06626
293.06321
293.06075
293.05873
293.05704
293.05563
293.05444
293.05344
293.05259
293.05188
293.05128
293.05078
293.05037
293.05002
293.04974
293.04951
293.04933
293.04919
293.04908
293.049
293.04894
293.0489
293.0513
293.04731
293.0439
293.04097
293.03847
293.03631
293.03446
293.03286
293.03149
293.03033
293.02936
293.02857
293.02792
293.02741
293.02703
293.02674
293.02655
293.02643
293.02638
293.02638
293.02642
293.0265
293.00508
293.0025
293.00036
292.99859
292.99715
292.99598
292.99507
292.99437
292.99386
292.99351
292.99331
292.99323
292.99327
292.9934
292.99361
292.99389
292.99424
292.99463
292.99505
292.99549
292.99594
292.9964
292.97118
292.97386
292.9762
292.97828
292.98015
292.98186
292.98343
292.98487
292.98621
292.98745
292.9886
292.98966
292.99064
292.99154
292.99238
292.99314
292.99384
292.99449
292.99508
292.99563
292.99613
292.9966
292.57963
292.55661
292.53379
292.51183
292.49185
292.47369
292.45937
292.45302
292.45232
292.66263
292.6392
292.6166
292.59591
292.5785
292.56395
292.55312
292.54878
292.54989
292.7509
292.72661
292.70404
292.68452
292.66928
292.65782
292.65022
292.64778
292.64986
292.84427
292.81869
292.79577
292.77698
292.76332
292.75423
292.74928
292.7487
292.75155
292.94257
292.91507
292.89123
292.87254
292.85976
292.8522
292.84904
292.84977
292.85311
293.04598
293.01531
292.98961
292.97013
292.95737
292.95041
292.94805
292.94923
292.95257
293.15468
293.11859
293.08957
293.06817
293.05436
293.04692
293.04429
293.04499
293.04764
293.26963
293.22371
293.18925
293.16451
293.14839
293.13929
293.13528
293.13457
293.13575
293.39818
293.33215
293.28734
293.25684
293.23675
293.22463
293.21815
293.2152
293.21417
293.54758
293.44832
293.38414
293.34303
293.3164
293.2994
293.2892
293.28362
293.28093
293.68656
293.56827
293.48024
293.42332
293.38724
293.36463
293.35076
293.34224
293.3368
293.7677
293.66908
293.5674
293.49762
293.4517
293.42087
293.39952
293.3848
293.3747
293.80326
293.73179
293.62904
293.54791
293.49146
293.45282
293.42641
293.40825
293.39565
293.81071
293.75615
293.65432
293.5704
293.51246
293.47125
293.44163
293.42044
293.4054
293.80323
293.76882
293.67612
293.58165
293.51734
293.47319
293.44164
293.41882
293.40241
293.77851
293.75462
293.67705
293.57632
293.50632
293.46038
293.42843
293.40555
293.3891
293.74113
293.7273
293.66807
293.56674
293.49034
293.44172
293.40909
293.38626
293.37006
293.69054
293.68147
293.63933
293.54699
293.46709
293.41709
293.3847
293.36258
293.34713
293.63332
293.62892
293.60042
293.52306
293.44194
293.39075
293.35878
293.33752
293.32293
293.56578
293.56316
293.54549
293.48933
293.41214
293.36121
293.3305
293.31064
293.29725
293.4989
293.49751
293.48595
293.44833
293.38193
293.33174
293.30202
293.28348
293.27125
293.42994
293.42803
293.41878
293.3948
293.34598
293.29911
293.27104
293.2542
293.2434
293.36555
293.36207
293.3523
293.33397
293.3025
293.2649
293.23947
293.22438
293.21496
293.30443
293.29894
293.28684
293.26896
293.24749
293.22379
293.20445
293.19213
293.18444
293.25618
293.24745
293.23191
293.21141
293.19124
293.17564
293.16442
293.15672
293.15163
293.21724
293.20606
293.18769
293.16453
293.14307
293.12857
293.12081
293.11675
293.11439
293.20281
293.18845
293.16641
293.14048
293.11734
293.10128
293.09196
293.08701
293.08438
293.19542
293.17529
293.14917
293.1229
293.10199
293.08768
293.07863
293.07303
293.06953
293.16928
293.14384
293.1183
293.09669
293.08148
293.07128
293.06404
293.05884
293.05518
293.08672
293.06077
293.04096
293.02977
293.02273
293.01735
293.01315
293.01
293.00772
292.93184
292.93332
292.93852
292.94603
292.95311
292.95879
292.96311
292.9663
292.96863
292.59752
292.68184
292.77215
292.86797
292.96952
293.07795
293.19579
293.32892
293.49366
293.67401
293.77419
293.80748
293.82358
293.82522
293.80687
293.78103
293.73985
293.68913
293.63029
293.56311
293.49617
293.42773
293.36502
293.30497
293.25952
293.22297
293.21113
293.20937
293.19301
293.11504
292.93648
292.61266
292.69923
292.7927
292.89242
292.99911
293.11565
293.25046
293.41988
293.62951
293.75872
293.79381
293.81248
293.82333
293.81868
293.80064
293.7748
293.73267
293.68284
293.62366
293.55705
293.49078
293.42203
293.36132
293.30132
293.25823
293.22395
293.21391
293.21683
293.21269
293.1526
292.9503
292.63281
292.72238
292.8202
292.92571
293.04119
293.17255
293.34383
293.56689
293.7251
293.76513
293.78399
293.80008
293.80786
293.80428
293.78617
293.7614
293.72023
293.67117
293.6132
293.54652
293.48229
293.41206
293.35421
293.29354
293.25225
293.21999
293.21101
293.21887
293.2231
293.19813
292.96638
292.66324
292.75689
292.86069
292.97591
293.11115
293.27747
293.51183
293.6742
293.71325
293.73423
293.75493
293.77118
293.77801
293.77741
293.75944
293.73554
293.69837
293.64889
293.59615
293.52771
293.46879
293.39576
293.34226
293.28107
293.24145
293.21089
293.2032
293.21617
293.22791
293.23145
293.00132
292.72646
292.82731
292.94022
293.07686
293.27243
293.4887
293.59537
293.62391
293.64579
293.66899
293.69
293.70837
293.71827
293.71928
293.70757
293.68371
293.658
293.60585
293.56405
293.49254
293.4413
293.36652
293.31864
293.25943
293.22285
293.19626
293.18821
293.20828
293.23173
293.26348
293.02304
292.95998
293.09634
293.2427
293.37546
293.45763
293.49885
293.521
293.54386
293.56528
293.5889
293.61132
293.63006
293.636
293.64106
293.6271
293.60829
293.57586
293.53312
293.4838
293.42547
293.36929
293.31118
293.26248
293.21826
293.18615
293.16473
293.15928
293.19482
293.23045
293.32193
293.09209
)
;

boundaryField
{
    Side1
    {
        type            empty;
    }
    Inlet
    {
        type            totalTemperature;
        gamma           1.4;
        T0              uniform 294.31799;
        value           uniform 293.00245;
    }
    Side2
    {
        type            empty;
    }
    Outlet
    {
        type            zeroGradient;
    }
    Botwall
    {
        type            zeroGradient;
    }
    Cyli
    {
        type            zeroGradient;
    }
    procBoundary0to1
    {
        type            processor;
        value           nonuniform List<scalar> 
44
(
292.95953
292.95953
293.12616
293.29584
293.29584
293.37413
293.37413
293.38794
293.40735
293.40735
293.41957
293.41957
293.42502
293.43263
293.44463
293.44463
293.45415
293.46374
293.47256
293.4803
293.48724
293.48724
293.49682
293.50503
293.51688
293.51688
293.544
292.13348
292.10492
292.6425
292.50807
292.39867
292.3124
292.24649
292.13348
292.19763
292.6425
292.77623
292.08095
292.0572
292.03293
292.00533
291.96717
291.89762
)
;
    }
    procBoundary0to2
    {
        type            processor;
        value           nonuniform List<scalar> 
55
(
293.58619
293.5485
293.51825
293.4936
293.47006
293.75115
293.65205
293.87579
293.75115
293.76231
291.60532
292.03695
291.75834
292.03695
292.13879
293.87579
293.87331
293.87331
293.70639
290.71318
291.21827
291.21827
291.60532
292.23556
292.33521
292.43812
292.53831
292.63267
292.71931
292.79704
292.86481
292.92204
292.96896
293.00567
293.03325
293.07094
293.07094
293.08159
293.08959
293.09612
293.10204
293.10745
293.11201
293.11498
293.11638
293.11471
293.11053
293.10363
293.09392
293.08173
293.06679
293.04888
293.0266
292.99684
292.99704
)
;
    }
    procBoundary0to3
    {
        type            processor;
        value           nonuniform List<scalar> 7(293.60589 293.60589 293.71115 293.71115 293.67446 293.67446 293.54607);
    }
}


// ************************************************************************* //
