/*--------------------------------*- C++ -*----------------------------------*\
| =========                 |                                                 |
| \\      /  F ield         | OpenFOAM: The Open Source CFD Toolbox           |
|  \\    /   O peration     | Version:  2406                                  |
|   \\  /    A nd           | Website:  www.openfoam.com                      |
|    \\/     M anipulation  |                                                 |
\*---------------------------------------------------------------------------*/
FoamFile
{
    version     2.0;
    format      ascii;
    arch        "LSB;label=32;scalar=64";
    class       volScalarField;
    location    "0.01";
    object      Ma;
}
// * * * * * * * * * * * * * * * * * * * * * * * * * * * * * * * * * * * * * //

dimensions      [0 0 0 0 0 0 0];

internalField   nonuniform List<scalar> 
8951
(
0.15160693
0.16520003
0.16386598
0.16276906
0.15991973
0.1516045
0.14264666
0.14880482
0.15450899
0.15980494
0.16469968
0.16913622
0.17296319
0.1759125
0.17758687
0.17678532
0.17346557
0.17064708
0.16889856
0.16714048
0.16523796
0.16390653
0.16281841
0.15994493
0.1516019
0.0680176
0.071531876
0.075602509
0.080292959
0.085650992
0.091693278
0.09838493
0.10561784
0.11320163
0.12088276
0.12839789
0.13554243
0.14221191
0.14839405
0.15412696
0.15945131
0.16437253
0.16883489
0.17269083
0.17568278
0.17741632
0.17671548
0.17346566
0.17064963
0.1689187
0.16716751
0.16527537
0.16394668
0.16286778
0.15996928
0.15159923
0.068807691
0.072228276
0.076189849
0.080755014
0.085972357
0.091861836
0.098394897
0.10547527
0.11292802
0.12051236
0.12797165
0.1350981
0.14177654
0.14798236
0.15374408
0.15909701
0.16404482
0.16853304
0.17241793
0.17545291
0.17724425
0.176638
0.17346432
0.1706508
0.16893737
0.16719368
0.16531224
0.16398644
0.16291731
0.15999263
0.15159645
0.069565129
0.072894771
0.07675055
0.081194287
0.086275313
0.092016917
0.098396736
0.10532922
0.11265366
0.12014247
0.12754593
0.1346537
0.1413406
0.14756994
0.15336058
0.15874227
0.16371679
0.16823089
0.17214463
0.1752222
0.17706944
0.17655485
0.17346037
0.17065203
0.16895471
0.16721877
0.16534857
0.16402581
0.16296727
0.16001492
0.15159364
0.070288275
0.073529805
0.077283256
0.081609604
0.086558776
0.092157188
0.098390165
0.1051792
0.11237802
0.11977277
0.12712063
0.1342093
0.14090426
0.14715701
0.1529767
0.15838732
0.16338867
0.16792866
0.17187106
0.17499031
0.17689074
0.17646658
0.17345306
0.1706523
0.16897077
0.16724301
0.16538433
0.16406478
0.16301758
0.16003738
0.15159124
0.070976057
0.074132446
0.077787148
0.082000324
0.086822376
0.092282517
0.098373811
0.10502345
0.11210032
0.119403
0.12669571
0.133765
0.1404677
0.1467438
0.15259268
0.15803243
0.16306072
0.16762656
0.17159741
0.17475735
0.17670784
0.17637482
0.1734438
0.17065211
0.16898458
0.16726617
0.16541952
0.16410337
0.16306809
0.16006173
0.15158984
0.07162768
0.074701992
0.078261636
0.082365967
0.087065839
0.092392459
0.098347891
0.10486109
0.11182034
0.11903311
0.1262712
0.13332093
0.14003112
0.14633055
0.15220878
0.15767786
0.16273318
0.16732482
0.17132391
0.17452359
0.1765215
0.17627881
0.17343261
0.17065094
0.16899712
0.16728826
0.16545413
0.16414156
0.16311862
0.16009005
0.15159191
0.072242648
0.07523798
0.078706307
0.082706255
0.087289114
0.092486836
0.098307979
0.10469264
0.11153839
0.1186631
0.1258472
0.13287727
0.13959476
0.14591753
0.15182529
0.15732388
0.16240632
0.16702369
0.17105077
0.1742893
0.17633173
0.17617741
0.17341965
0.17064807
0.16900863
0.16730933
0.16548813
0.16417933
0.16316907
0.16011795
0.15159903
0.072820827
0.075740257
0.079120913
0.083020654
0.087491081
0.092566746
0.098256112
0.10451972
0.11125445
0.11829295
0.1254238
0.13243421
0.13915888
0.14550502
0.1514425
0.15697079
0.16208041
0.16672339
0.17077821
0.17405475
0.17613903
0.17607171
0.17340471
0.17064378
0.16901922
0.16732937
0.16552153
0.16421666
0.16321933
0.16014219
0.15160943
0.073362715
0.076209297
0.079505842
0.083309433
0.087671839
0.092632948
0.098197068
0.10434147
0.1109683
0.11792275
0.12500122
0.13199205
0.13872379
0.14509333
0.15106071
0.15661886
0.16175572
0.16642416
0.17050642
0.17382007
0.17594412
0.17596225
0.17338707
0.17063809
0.16902907
0.16734837
0.16555429
0.16425349
0.16326932
0.16016194
0.15162131
0.073869219
0.076646094
0.079862302
0.083574179
0.087833921
0.09268118
0.098126633
0.10415771
0.11068049
0.11755296
0.12457982
0.13155115
0.13828984
0.14468281
0.15068025
0.15626842
0.16143252
0.16612621
0.17023558
0.17358528
0.17574762
0.17584974
0.17336641
0.17063106
0.16903798
0.16736626
0.1655864
0.16428977
0.16331894
0.16017808
0.15164154
0.074341378
0.077051578
0.080191017
0.083815252
0.087976442
0.092715233
0.098049708
0.10396891
0.11039148
0.11718411
0.12416014
0.131112
0.13785746
0.14427383
0.15030147
0.15591977
0.1611111
0.16582978
0.16996581
0.17335005
0.17554946
0.17573434
0.17334303
0.17062282
0.16904565
0.16738316
0.16561782
0.16432548
0.16336809
0.16019473
0.15165781
0.074780605
0.077427039
0.080493133
0.084033767
0.088101333
0.0927381
0.097966603
0.1037771
0.11010203
0.11681679
0.12374278
0.13067514
0.13742713
0.14386681
0.14992472
0.15557325
0.16079174
0.16553505
0.16969714
0.17311376
0.17534953
0.17561686
0.1733172
0.17061357
0.16905196
0.16739888
0.16564852
0.16436056
0.16341671
0.16021387
0.15167318
0.07518907
0.077774568
0.080770571
0.084231271
0.088209389
0.092749268
0.097876171
0.10358288
0.1098131
0.11645189
0.12332852
0.1302412
0.13699939
0.14346222
0.1495504
0.15522918
0.16047472
0.16524224
0.16942957
0.17287586
0.17514823
0.1754985
0.17328921
0.17060325
0.16905702
0.16741374
0.16567845
0.16439499
0.16346475
0.16023441
0.15169045
0.075569628
0.078097163
0.081026548
0.084411204
0.088303892
0.092750671
0.097779511
0.10338687
0.1095257
0.11609042
0.12291829
0.12981102
0.13657491
0.14306055
0.14917893
0.15488793
0.16016032
0.16495155
0.16916314
0.17263615
0.17494994
0.1753797
0.17325879
0.17059213
0.16906067
0.16742738
0.16570757
0.16442872
0.1635122
0.16025476
0.15170889
0.075924645
0.078397033
0.081263131
0.084575636
0.0883872
0.092744311
0.097677548
0.10319011
0.10924106
0.11573361
0.12251317
0.1293855
0.13615443
0.1426624
0.14881076
0.15454984
0.15984887
0.16466321
0.16889799
0.17239485
0.17474794
0.17526033
0.17322595
0.17058001
0.16906338
0.16744011
0.16573585
0.16446174
0.16355902
0.16027368
0.15172772
0.076256577
0.078676293
0.081481938
0.084725555
0.088459698
0.092731222
0.097573814
0.10299521
0.10896103
0.11538292
0.12211443
0.12896571
0.13573873
0.14226837
0.14844636
0.15421533
0.15954065
0.1643775
0.16863437
0.17215271
0.1745447
0.1751405
0.17319084
0.17056732
0.16906438
0.16745183
0.16576324
0.16449402
0.16360513
0.16029085
0.15174685
0.076568761
0.078938238
0.081686181
0.084863996
0.088524232
0.092714584
0.097470719
0.10280419
0.10868732
0.11503991
0.12172344
0.12855281
0.13532876
0.14187917
0.14808627
0.15388478
0.15923601
0.16409467
0.16837256
0.17191061
0.17433784
0.17501927
0.17315364
0.17055515
0.16906451
0.16746158
0.16578972
0.16452552
0.16365042
0.16030572
0.15176628
0.076864786
0.079186378
0.081879361
0.084994472
0.088584177
0.092696807
0.097369871
0.10261871
0.10842167
0.11470623
0.1213417
0.12814808
0.13492556
0.14149559
0.14773105
0.15355862
0.15893527
0.16381503
0.16811281
0.17166921
0.17413611
0.17489836
0.17311472
0.17054231
0.16906412
0.16747036
0.16581526
0.16455623
0.16369476
0.16031794
0.15178642
0.077148288
0.079424225
0.082064838
0.085120163
0.088642512
0.092680574
0.097273581
0.10244089
0.10816607
0.11438371
0.12097087
0.12775293
0.13453025
0.14111845
0.14738131
0.1532373
0.15863878
0.16353887
0.16785534
0.17142888
0.17393404
0.17477655
0.17307479
0.17052773
0.16906278
0.16747905
0.1658398
0.16458611
0.16373798
0.16032793
0.1518076
0.077423301
0.079655691
0.082246403
0.085244743
0.088702651
0.092668586
0.09718427
0.10227321
0.10792281
0.11407439
0.12061272
0.1273689
0.13414405
0.14074865
0.14703769
0.15292128
0.1583469
0.16326649
0.16760043
0.17119035
0.17373184
0.1746492
0.17303417
0.17051162
0.16905996
0.16748738
0.16586338
0.16461511
0.16377991
0.16033599
0.15182995
0.077692204
0.079882339
0.082424553
0.085367668
0.088764104
0.092664399
0.097108636
0.10212061
0.10769509
0.11378059
0.12026916
0.12699758
0.13376827
0.14038718
0.14670088
0.15261105
0.15805998
0.16299818
0.16734842
0.17095442
0.17353023
0.1745176
0.17299236
0.17049486
0.1690563
0.1674946
0.16588584
0.16464322
0.16382037
0.16034277
0.15185342
0.077961645
0.080111383
0.082607277
0.085497553
0.088834607
0.092670895
0.09704614
0.10198353
0.10748425
0.11350403
0.11994196
0.12664061
0.13340426
0.14003508
0.14637163
0.15230714
0.15777839
0.16273427
0.16709964
0.17072152
0.17332966
0.17438813
0.1729489
0.17047776
0.16905179
0.16750066
0.16590728
0.16467035
0.16385925
0.16034859
0.15187782
0.078238069
0.080349539
0.082801584
0.085641789
0.088921617
0.092691356
0.09699508
0.10186048
0.10729068
0.11324612
0.11963284
0.12629966
0.13305346
0.13969345
0.14605071
0.15201005
0.1575025
0.16247504
0.16685441
0.17049175
0.17313055
0.1742565
0.17290381
0.17046014
0.16904632
0.16750571
0.16592771
0.16469649
0.16389651
0.16035363
0.15190298
0.078522503
0.080596613
0.083005769
0.085797038
0.089021423
0.092728835
0.096963222
0.10175747
0.10711835
0.1130097
0.11934398
0.12597654
0.13271735
0.13936343
0.14573891
0.15172032
0.15723268
0.16222078
0.16661299
0.17026518
0.17293287
0.1741232
0.17285699
0.17044185
0.16904009
0.16750995
0.16594687
0.16472162
0.16393212
0.16035807
0.15192878
0.078818095
0.080855292
0.083221934
0.085964571
0.089134104
0.092782106
0.096956032
0.10168362
0.10697278
0.11279782
0.11907763
0.1256731
0.13239746
0.13904618
0.14543706
0.15143848
0.15696926
0.16197174
0.16637563
0.17004186
0.17273662
0.17398853
0.17280865
0.17042287
0.16903277
0.16751335
0.16596515
0.16474574
0.16396613
0.16036155
0.1519551
0.079132358
0.081133959
0.083459675
0.086155611
0.089272321
0.092861535
0.096972043
0.10163319
0.10685191
0.11261123
0.11883536
0.12539098
0.13209526
0.13874288
0.14514598
0.15116508
0.15671261
0.16172817
0.16614254
0.1698219
0.17254187
0.17385224
0.17275918
0.17040328
0.16902458
0.16751588
0.16598207
0.16476887
0.16399859
0.16036466
0.15198181
0.079468704
0.081435594
0.08372142
0.08637188
0.089437053
0.092968053
0.097011808
0.10160621
0.1067606
0.1124531
0.1186192
0.12513193
0.13181221
0.13845467
0.14486649
0.15090065
0.15646306
0.16149029
0.16591392
0.16960539
0.17234884
0.17371536
0.17270842
0.1703832
0.16901539
0.1675177
0.16599798
0.16479106
0.16402963
0.16036847
0.15200874
0.079829969
0.081762504
0.084008748
0.086613933
0.089627678
0.093100877
0.097081531
0.10161227
0.10670053
0.1123245
0.11843069
0.12489736
0.13154967
0.13818266
0.14459939
0.15064569
0.15622089
0.16125827
0.16568994
0.16939248
0.17215796
0.17357833
0.17265581
0.17036291
0.16900542
0.16751836
0.16601259
0.16481241
0.16405937
0.16037192
0.15203559
0.080220444
0.08211923
0.084326598
0.086887382
0.089850848
0.093267717
0.097186
0.10164508
0.10666646
0.11222812
0.11827193
0.1246888
0.13130883
0.13792788
0.14434543
0.15040067
0.15598637
0.16103228
0.16547073
0.16918336
0.17196976
0.17343973
0.17260129
0.17034237
0.16899533
0.16751865
0.16602488
0.1648327
0.16408769
0.16037909
0.15206198
0.080642436
0.0825078
0.084676645
0.087193393
0.0901069
0.093467601
0.097323538
0.10171389
0.10666823
0.11216463
0.11814321
0.12450727
0.13109075
0.13769121
0.14410528
0.150166
0.15575972
0.16081243
0.16525638
0.16897812
0.17178478
0.17329796
0.17254475
0.17032139
0.16898414
0.16751838
0.16603582
0.16485206
0.16411483
0.16038111
0.15208741
0.081098308
0.082930574
0.085061244
0.087534338
0.09039828
0.093703224
0.097497429
0.10182079
0.10669886
0.11212798
0.11804681
0.1243542
0.13089645
0.13747341
0.14387947
0.14994201
0.1555411
0.16059878
0.16504695
0.16877679
0.17160321
0.17315874
0.17248568
0.17030003
0.16897142
0.16751685
0.16604608
0.16487052
0.16414104
0.16037849
0.15211147
0.081589348
0.083388759
0.085481515
0.087911233
0.090725887
0.093975338
0.097707993
0.10196429
0.10676819
0.11212738
0.11798267
0.1242296
0.13072638
0.13727501
0.1436684
0.14972894
0.1553306
0.16039133
0.1648424
0.16857924
0.17142459
0.17302092
0.17242391
0.17027854
0.16895753
0.16751384
0.16605562
0.16488801
0.16416641
0.16037008
0.15213379
0.082116199
0.083882986
0.085938067
0.088324647
0.091090228
0.094284356
0.097955434
0.10214464
0.10687728
0.11215681
0.11794422
0.12413375
0.13058115
0.13709638
0.14347234
0.14952692
0.15512825
0.16019005
0.16464266
0.16838532
0.17124828
0.17288399
0.17235996
0.17025727
0.16894286
0.16750989
0.16606421
0.1649044
0.1641909
0.16034956
0.15215422
0.082678588
0.084412986
0.086430636
0.088774315
0.091491038
0.094629997
0.098239509
0.1023614
0.10702236
0.11222397
0.11793981
0.12406806
0.13046059
0.13693755
0.14329139
0.14933599
0.15493399
0.15999482
0.16444761
0.16819491
0.171074
0.17274364
0.17229586
0.1702363
0.16892727
0.16750486
0.16607202
0.16491962
0.16421427
0.16032214
0.15217386
0.083275447
0.084977733
0.08695824
0.089259298
0.091927412
0.095011386
0.098559361
0.10261364
0.10720219
0.11232821
0.11796428
0.12402637
0.13036305
0.1367983
0.14312547
0.14915605
0.15474768
0.15980547
0.16425708
0.16800787
0.17090185
0.17260322
0.17222751
0.17021557
0.16891064
0.16749868
0.16607901
0.16493383
0.1642362
0.16030814
0.15219888
0.083904821
0.085575328
0.087519041
0.089777815
0.092397621
0.095426837
0.098913384
0.10289995
0.10741583
0.11246647
0.11802226
0.12401164
0.13029122
0.13667875
0.14297435
0.14898688
0.15456909
0.15962178
0.16407088
0.16782411
0.17073191
0.17246357
0.17215849
0.17019461
0.16889302
0.16749147
0.16608529
0.16494682
0.16425669
0.16031225
0.15222429
0.084563979
0.086203122
0.088110472
0.090327382
0.092899259
0.095874012
0.099299268
0.10321791
0.1076602
0.11263329
0.1181099
0.12402365
0.13024163
0.13657743
0.14283743
0.14882807
0.15439788
0.15944343
0.16388875
0.16764346
0.17056411
0.17232457
0.17208913
0.17017286
0.16887455
0.16748307
0.16609074
0.16495878
0.16427613
0.16031463
0.15223404
0.08524949
0.086857781
0.08872931
0.090904898
0.093429369
0.096350126
0.099714492
0.10356548
0.10793424
0.11282996
0.11822869
0.12406261
0.13021024
0.13649294
0.14271406
0.14867914
0.15423363
0.15927008
0.16371041
0.16746574
0.17039834
0.17218559
0.17202153
0.17015053
0.16885542
0.1674736
0.16609525
0.1649697
0.16429484
0.16031372
0.15223188
0.085957281
0.087535322
0.089371672
0.091506588
0.093984279
0.096851609
0.10015556
0.10393914
0.10823421
0.11305165
0.11837021
0.12412433
0.13020082
0.13642689
0.14260383
0.14853947
0.15407581
0.15910129
0.16353552
0.16729071
0.17023448
0.17204622
0.17195009
0.17012813
0.1688357
0.16746292
0.16609844
0.16497984
0.16431317
0.16031055
0.15222389
0.086682819
0.088231309
0.090033227
0.092128237
0.094559913
0.097374542
0.10061871
0.10433534
0.10855685
0.1132956
0.11853278
0.12420657
0.13020913
0.13637579
0.14250514
0.14840815
0.15392377
0.15893656
0.16336368
0.16711812
0.17007245
0.17190663
0.17187636
0.17010597
0.16881534
0.16745153
0.16610059
0.16498899
0.16433135
0.16030721
0.15221134
0.087421239
0.088940963
0.090709295
0.092765284
0.095151845
0.097914665
0.1010999
0.10475031
0.10889887
0.11355934
0.11871551
0.12430957
0.13023484
0.13633606
0.1424162
0.1482841
0.15377677
0.15877534
0.16319449
0.16694768
0.16991213
0.17176716
0.17180161
0.17008391
0.16879427
0.16744001
0.16610085
0.16499695
0.16434972
0.16030478
0.15219553
0.088167473
0.089659281
0.091394952
0.093412894
0.095755347
0.098467369
0.10159464
0.10517975
0.10925608
0.1138387
0.11891373
0.12442692
0.13027497
0.13630808
0.14233609
0.14816632
0.15363401
0.15861702
0.16302746
0.16677906
0.16975323
0.17162806
0.17172594
0.17006161
0.16877243
0.16742713
0.16610051
0.16500471
0.16436852
0.16030273
0.15217749
0.088916407
0.090381197
0.092085183
0.094066119
0.09636555
0.099027883
0.10209829
0.10561913
0.1096241
0.11412946
0.11912343
0.12455493
0.13032434
0.13629015
0.14226341
0.14805366
0.15349463
0.15846093
0.1628621
0.16661184
0.16959506
0.17148887
0.17164945
0.17003889
0.16874983
0.16741265
0.16609919
0.16501244
0.16438748
0.16029838
0.15215779
0.089663035
0.091101728
0.092775037
0.09472005
0.096977602
0.099591427
0.10260616
0.10606387
0.10999854
0.11442746
0.11934088
0.12469079
0.13038284
0.13627964
0.14219621
0.14794482
0.15335769
0.15830639
0.16269786
0.16644552
0.16943677
0.17134977
0.17157273
0.17001566
0.16872651
0.16739712
0.16609692
0.16501961
0.16440649
0.1602906
0.15213645
0.090402613
0.09181613
0.093459778
0.095369969
0.097586822
0.10015338
0.1031137
0.10650956
0.11037513
0.11472868
0.11956254
0.12483259
0.13044886
0.1362731
0.14213243
0.1478384
0.15322216
0.15815265
0.16253417
0.16627959
0.16927779
0.17121084
0.17149606
0.16999185
0.16870256
0.16738059
0.16609415
0.16502614
0.16442621
0.16028578
0.15211332
0.091130754
0.092519999
0.094134993
0.096011467
0.098188818
0.10070939
0.10361666
0.10695206
0.11074992
0.11502942
0.11978484
0.12497557
0.13051593
0.13626906
0.14207046
0.14773301
0.15308701
0.15799897
0.1623705
0.16611358
0.16911788
0.17107428
0.17141958
0.16996738
0.16867802
0.16736282
0.16609069
0.16503243
0.16444705
0.16028223
0.15208827
0.091843492
0.093209335
0.09479665
0.09664049
0.098779531
0.10125541
0.10411102
0.10738745
0.11111915
0.11532613
0.1200045
0.12511641
0.13058043
0.13626511
0.14200846
0.14762723
0.15295123
0.15784463
0.16220632
0.16594714
0.1689569
0.17093716
0.17134357
0.16994218
0.16865295
0.16734393
0.16608642
0.16503851
0.16446883
0.16027581
0.15206119
0.092537322
0.093880583
0.095441146
0.097253393
0.099355284
0.10178775
0.10459309
0.10781205
0.11147915
0.11561521
0.12021809
0.12525269
0.13064113
0.13625843
0.14194454
0.14751967
0.1528138
0.15768895
0.16204119
0.16578004
0.1687949
0.17079877
0.17126814
0.16991627
0.1686274
0.16732408
0.1660814
0.16504415
0.16449118
0.16026657
0.15203203
0.093209242
0.094530681
0.096065362
0.097847003
0.099912854
0.10230315
0.10505959
0.10822256
0.11182664
0.11589341
0.12042239
0.12538126
0.13069615
0.13624697
0.14187682
0.14740896
0.15267379
0.15753126
0.16187467
0.16561209
0.16863204
0.1706586
0.17119268
0.16988975
0.1686014
0.16730336
0.16607574
0.16504914
0.16451443
0.16025595
0.15200086
0.093856775
0.095157089
0.096666695
0.098418655
0.10044952
0.10279884
0.1055077
0.10861616
0.11215884
0.11615799
0.12061479
0.12549967
0.13074281
0.13622873
0.14180362
0.14729384
0.15253028
0.15737098
0.16170642
0.16544313
0.16846818
0.1705176
0.17111822
0.1698628
0.16857498
0.16728177
0.16606958
0.16505347
0.16453829
0.1602455
0.15196797
0.094477972
0.095757797
0.097243072
0.098966219
0.1009631
0.10327258
0.10593519
0.1089906
0.11247349
0.11640677
0.12079321
0.12560591
0.13077924
0.136202
0.14172342
0.14717318
0.15238252
0.15720758
0.16153611
0.16527293
0.16830327
0.17037899
0.17104465
0.16983591
0.16854812
0.16725933
0.16606292
0.16505716
0.16456211
0.16023574
0.15193378
0.095071422
0.096331335
0.097792969
0.099488112
0.10145196
0.10372271
0.10634033
0.10934417
0.11276895
0.11663824
0.12095635
0.12569875
0.13080401
0.13616508
0.14163483
0.14704602
0.15222984
0.15704064
0.16136347
0.16510134
0.16813742
0.17023986
0.1709681
0.16980984
0.16852076
0.16723608
0.1660557
0.16506015
0.16458537
0.16022329
0.15189874
0.095636215
0.096876739
0.098315363
0.099983253
0.10191495
0.10414802
0.10672186
0.10967555
0.11304386
0.11685113
0.12110338
0.1257784
0.13081551
0.13611536
0.14153673
0.14691165
0.15207174
0.15686984
0.16118834
0.16492829
0.1679713
0.17010028
0.17088367
0.16978459
0.16849283
0.16721204
0.16604804
0.1650625
0.16460765
0.16020582
0.15186329
0.096171948
0.097393559
0.098809749
0.10045108
0.10235144
0.10454778
0.10707895
0.10998371
0.1132969
0.11704357
0.12123152
0.12584138
0.13081373
0.13605464
0.14142944
0.14676983
0.15190792
0.15669496
0.16101058
0.16475378
0.16780532
0.16996068
0.17080256
0.16975954
0.16846433
0.1671874
0.16603968
0.16506416
0.16462866
0.16018486
0.15182776
0.096678759
0.097881905
0.099276213
0.10089164
0.10276146
0.10492199
0.10741155
0.11026856
0.11352787
0.11721509
0.12133956
0.12588508
0.13079897
0.13598487
0.14131331
0.1466204
0.1517382
0.15651587
0.16083014
0.16457784
0.16763948
0.1698211
0.17071977
0.16973419
0.16843527
0.16716215
0.16603086
0.16506541
0.16464815
0.16016238
0.15179238
0.097157292
0.098342411
0.099715384
0.10130558
0.10314567
0.10527136
0.10772046
0.11053107
0.113738
0.11736742
0.12143011
0.12591327
0.13076845
0.13590283
0.14118723
0.14646306
0.15156249
0.15633254
0.16064704
0.16440051
0.16747362
0.16968139
0.17063428
0.16970915
0.16840562
0.16713652
0.16602164
0.16506626
0.16466596
0.16013917
0.15175729
0.097608601
0.098776125
0.10012831
0.10169394
0.10350512
0.10559698
0.10800685
0.11077254
0.11392894
0.11750293
0.1215065
0.12592771
0.1307235
0.13580719
0.14105078
0.14629779
0.1513808
0.15614502
0.16046131
0.16422185
0.16730762
0.16954139
0.17054644
0.16968511
0.16837535
0.16711064
0.1660116
0.16506672
0.16468167
0.16011569
0.15172269
0.098034039
0.099184376
0.10051627
0.10205796
0.10384097
0.10589988
0.10827155
0.11099351
0.11410072
0.11762082
0.12156714
0.12592792
0.13066596
0.1357004
0.14090498
0.14612501
0.1511934
0.15595347
0.16027308
0.16404195
0.16714143
0.16940115
0.1704577
0.16966308
0.16834444
0.16708458
0.16600101
0.16506704
0.16469469
0.1600921
0.15168884
0.098435509
0.09956905
0.10088114
0.10239948
0.10415501
0.10618178
0.10851615
0.11119531
0.11425421
0.11772107
0.12161098
0.12591716
0.13060004
0.1355851
0.14075117
0.14594544
0.15100071
0.15575816
0.16008251
0.16386091
0.16697512
0.16926093
0.17036764
0.16964268
0.1683128
0.1670584
0.16599003
0.16506711
0.16470477
0.16006809
0.15165599
0.098815462
0.099932633
0.10122545
0.10272105
0.10444987
0.10644537
0.10874348
0.11138102
0.11439294
0.11780803
0.12164284
0.1258938
0.13052459
0.13546171
0.14059025
0.14575985
0.15080325
0.15555943
0.15988982
0.16367888
0.16680879
0.16912092
0.17027085
0.16962065
0.16828041
0.16703214
0.16597895
0.1650667
0.16471175
0.16004336
0.15162438
0.099176621
0.10027787
0.10155194
0.10302546
0.10472832
0.10669348
0.10895637
0.11155354
0.1145199
0.11788484
0.12166623
0.12586255
0.13044031
0.13533114
0.14042332
0.14556917
0.15060171
0.15535772
0.15969528
0.163496
0.16664244
0.16898109
0.17017463
0.16959062
0.16824761
0.16700579
0.1659679
0.16506586
0.1647158
0.16001781
0.15159417
0.099522007
0.10060773
0.10186357
0.10331562
0.10499326
0.10692894
0.10915764
0.11171558
0.11463775
0.11795431
0.12168247
0.12582354
0.13035029
0.13519556
0.14025191
0.14537455
0.15039687
0.15515354
0.15949917
0.16331241
0.16647597
0.16884101
0.17008073
0.16954768
0.16821492
0.16697932
0.1659566
0.16506486
0.16471756
0.15999166
0.15156527
0.099854933
0.10092552
0.10216359
0.10359473
0.10524784
0.10715485
0.10935027
0.11186991
0.1147485
0.11801586
0.12169374
0.1257831
0.13025775
0.1350572
0.14007778
0.14517731
0.15018969
0.1549475
0.15930187
0.16312826
0.16630931
0.16870028
0.16998645
0.16950268
0.16818295
0.16695273
0.16594533
0.16506371
0.16471729
0.1599652
0.15153745
0.10017904
0.10123484
0.10245555
0.1038663
0.10549549
0.10737456
0.10953753
0.1120199
0.11485634
0.11807726
0.12170381
0.12574002
0.13016445
0.13491832
0.13990287
0.14497896
0.14998121
0.15474029
0.15910375
0.16294373
0.16614247
0.16855898
0.16988796
0.16946251
0.16815185
0.16692609
0.16593457
0.16506252
0.164715
0.15993817
0.15151035
0.1004982
0.10153951
0.10274324
0.10413405
0.10573987
0.10759163
0.10972291
0.11216883
0.11496391
0.11813886
0.12171564
0.12569992
0.13007323
0.13478133
0.13972924
0.14478112
0.14977261
0.15453265
0.15890523
0.16275905
0.16597559
0.16841743
0.1697882
0.16942378
0.16812107
0.16689949
0.16592441
0.16506127
0.16471094
0.15991064
0.15148349
0.1008163
0.1018434
0.10303046
0.10440173
0.10598465
0.1078097
0.10990996
0.11232018
0.11507474
0.11820449
0.12173211
0.12566495
0.12998694
0.13464866
0.13955902
0.14458551
0.14956513
0.1543254
0.1587068
0.1625745
0.16580886
0.16827583
0.16968732
0.16938744
0.16809019
0.16687318
0.16591493
0.16505984
0.16470539
0.15988325
0.15145637
0.10113725
0.10215033
0.103321
0.10467304
0.10623347
0.10803228
0.11010209
0.11247728
0.11519205
0.11827737
0.12175644
0.12563773
0.12990809
0.1345228
0.1393944
0.14439391
0.1493601
0.15411941
0.15850901
0.16239039
0.16564247
0.16813416
0.16958488
0.1693438
0.16805925
0.16684724
0.16590625
0.16505816
0.16469859
0.15985646
0.15142862
0.10146466
0.10246386
0.10361827
0.10495129
0.10648946
0.10826232
0.11030199
0.11264248
0.11531779
0.1183591
0.12179041
0.12562089
0.12983997
0.13440688
0.13923784
0.1442082
0.14915891
0.15391566
0.15831248
0.16220705
0.16547657
0.1679925
0.16948063
0.16929718
0.16802868
0.16682178
0.1658982
0.16505598
0.16469071
0.15982963
0.15139997
0.10180213
0.10278754
0.10392581
0.10523993
0.10675602
0.10850311
0.11051285
0.11281878
0.11545461
0.11845162
0.12183503
0.1256183
0.1297874
0.13430368
0.13909136
0.14403011
0.14896298
0.15371518
0.15811784
0.16202482
0.16531132
0.16785091
0.16937437
0.16925087
0.16799872
0.16679676
0.16589083
0.16505313
0.1646819
0.15980118
0.1513703
0.10215322
0.10312494
0.10424723
0.10554268
0.10703698
0.10875871
0.11073904
0.11301106
0.11560822
0.11856167
0.12189683
0.1256287
0.12974745
0.13421255
0.13895596
0.1438611
0.14877361
0.15351894
0.15792571
0.16184406
0.16514691
0.16770952
0.16926612
0.16920455
0.16796909
0.16677219
0.16588433
0.16504988
0.16467227
0.15977013
0.15133966
0.10252025
0.10347836
0.10458475
0.10586166
0.10733436
0.10903098
0.11098225
0.11322083
0.11577992
0.11869067
0.12197843
0.12565666
0.12972036
0.13413514
0.13883368
0.14370281
0.14859211
0.15332791
0.15773673
0.16166513
0.16498352
0.16756846
0.16915621
0.16915303
0.16793943
0.16674785
0.16587864
0.16504671
0.16466204
0.15973595
0.15130848
0.10290471
0.10384922
0.10493973
0.10619813
0.10764926
0.1093208
0.11124297
0.11344795
0.11596854
0.11883568
0.1220748
0.12570074
0.12971383
0.13407813
0.13872727
0.1435568
0.14841967
0.15314298
0.1575515
0.16148838
0.16482134
0.16742785
0.16904514
0.16909889
0.1679096
0.16672359
0.16587297
0.16504396
0.16465144
0.15969658
0.15127753
0.10330756
0.10423853
0.10531324
0.10655324
0.10798295
0.10962959
0.11152292
0.11369461
0.11617708
0.11900106
0.12219206
0.12576591
0.12972451
0.13403727
0.13863561
0.14342368
0.14825725
0.15296497
0.15737058
0.16131411
0.16466049
0.16728759
0.16893294
0.1690429
0.16787913
0.16669939
0.16586854
0.16504128
0.1646407
0.15964977
0.15124819
0.10372839
0.10464592
0.10570494
0.10692669
0.10833517
0.10995717
0.11182197
0.11396078
0.11640564
0.11918719
0.12233113
0.12585377
0.12975492
0.13401085
0.13855985
0.14330476
0.14810573
0.15279459
0.15719448
0.16114261
0.16450102
0.16714728
0.16881978
0.16898505
0.16784775
0.16667498
0.16586453
0.16503828
0.16462992
0.15960122
0.15122084
0.10416572
0.10506993
0.10611344
0.10731712
0.1087046
0.11030221
0.11213876
0.11424496
0.11665242
0.11939146
0.12248777
0.12595794
0.12980306
0.1340057
0.13850377
0.14320082
0.14796562
0.15263236
0.15702361
0.16097409
0.16434294
0.16700659
0.16870591
0.16892531
0.16781483
0.16665017
0.16586127
0.16503529
0.16461915
0.15955669
0.15119491
0.10461712
0.10550825
0.1065365
0.10772244
0.1090893
0.11066296
0.11247177
0.11454598
0.11691671
0.11961401
0.12266354
0.1260822
0.12987215
0.13401661
0.13846201
0.14311003
0.14783681
0.15247855
0.15685825
0.1608087
0.16418619
0.16686537
0.1685907
0.16886363
0.16778089
0.16662511
0.16585849
0.1650322
0.1646084
0.15951373
0.15117034
0.10507913
0.10595749
0.10697086
0.10813947
0.10948618
0.11103645
0.11281816
0.11486109
0.11719593
0.11985242
0.12285628
0.12622488
0.1299614
0.13404682
0.13843324
0.14303235
0.14771959
0.15233339
0.15669859
0.16064654
0.16403074
0.16672381
0.16847814
0.1688001
0.16774425
0.1665991
0.16585451
0.16502921
0.16459755
0.15946608
0.15114716
0.10554755
0.10641351
0.10741242
0.1085642
0.10989132
0.11141884
0.11317417
0.1151866
0.11748634
0.12010277
0.12306144
0.12637984
0.13006185
0.13409001
0.13842146
0.14297109
0.14761459
0.15219699
0.1565447
0.16048763
0.16387658
0.16658208
0.16836258
0.16873459
0.16770721
0.16657285
0.16584873
0.1650257
0.1645864
0.1594119
0.15112535
0.10601777
0.10687178
0.10785674
0.10899228
0.11030051
0.11180606
0.11353588
0.11551881
0.11778455
0.1203621
0.12327679
0.12654612
0.13017458
0.13414665
0.13842346
0.14292234
0.14752017
0.15206883
0.15639641
0.16033195
0.16372373
0.16644039
0.16824501
0.16866817
0.16766594
0.16654656
0.16584029
0.16502153
0.16457473
0.15935336
0.15110466
0.10648497
0.10732752
0.10829912
0.10941909
0.11070919
0.11219366
0.11389902
0.11585363
0.11808673
0.12062695
0.12349941
0.12672174
0.13029916
0.13421752
0.13843632
0.14288145
0.14743427
0.15194809
0.15625343
0.16017939
0.16357225
0.16629885
0.16812565
0.16860231
0.16762555
0.16651741
0.16582554
0.1650173
0.16456234
0.15929349
0.15108465
0.10694436
0.10777597
0.1087348
0.1098399
0.11111269
0.11257701
0.11425899
0.11618652
0.11838841
0.12089288
0.12372482
0.1269019
0.13042984
0.1342956
0.13845926
0.14284965
0.14735659
0.15183417
0.15611533
0.16002976
0.16342209
0.16615693
0.16800113
0.16853607
0.16758449
0.16648561
0.16580729
0.16501363
0.1645492
0.1592341
0.15106547
0.10739159
0.10821275
0.1091594
0.11025031
0.11150658
0.11295169
0.11461136
0.11651307
0.11868518
0.12115551
0.12394866
0.12708226
0.13056231
0.13437668
0.13848741
0.14282591
0.1472862
0.15172625
0.15598161
0.1598828
0.1632731
0.1660145
0.16787957
0.16845988
0.16753771
0.16645209
0.16579363
0.16501077
0.16453549
0.15917573
0.15104771
0.10782295
0.10863412
0.10956912
0.11064647
0.11188697
0.11331375
0.11495214
0.11682924
0.11897299
0.12141081
0.12416703
0.12725918
0.13069349
0.13445867
0.13851872
0.14280716
0.14722118
0.15162317
0.15585164
0.15973816
0.16312503
0.16587139
0.16775731
0.16838185
0.16748951
0.16641611
0.16578302
0.1650065
0.1645213
0.159118
0.1510317
0.10823545
0.10903703
0.10996087
0.11102522
0.1122506
0.11365984
0.11527791
0.11713153
0.11924826
0.12165518
0.12437633
0.12742915
0.13082008
0.13453856
0.13855017
0.14279044
0.14715943
0.15152359
0.15572459
0.15959537
0.16297762
0.16572748
0.16763375
0.16830367
0.16743861
0.1663753
0.16576905
0.16499838
0.16450626
0.15906057
0.15101774
0.10862698
0.10941929
0.11033234
0.11138416
0.112595
0.11398737
0.11558595
0.1174171