/*--------------------------------*- C++ -*----------------------------------*\
| =========                 |                                                 |
| \\      /  F ield         | OpenFOAM: The Open Source CFD Toolbox           |
|  \\    /   O peration     | Version:  2406                                  |
|   \\  /    A nd           | Website:  www.openfoam.com                      |
|    \\/     M anipulation  |                                                 |
\*---------------------------------------------------------------------------*/
FoamFile
{
    version     2.0;
    format      ascii;
    arch        "LSB;label=32;scalar=64";
    class       volScalarField;
    location    "0.01";
    object      T;
}
// * * * * * * * * * * * * * * * * * * * * * * * * * * * * * * * * * * * * * //

dimensions      [0 0 0 1 0 0 0];

internalField   nonuniform List<scalar> 
8951
(
292.99218
292.69405
292.72168
292.74506
292.79842
292.99172
293.12575
293.04773
292.96992
292.89395
292.82028
292.74826
292.6766
292.60297
292.52711
292.47205
292.50972
292.57775
292.61712
292.6553
292.69233
292.7198
292.74338
292.79679
292.99131
293.41869
293.42521
293.431
293.43523
293.43666
293.43357
293.42373
293.40457
293.37368
293.32962
293.2727
293.20523
293.13082
293.05327
292.9756
292.89956
292.8257
292.75343
292.68145
292.60743
292.53127
292.47432
292.50876
292.57666
292.61582
292.65378
292.69061
292.71794
292.74169
292.79507
292.99104
293.41525
293.42167
293.42741
293.43166
293.43326
293.43052
293.42126
293.40299
293.37336
293.33077
293.27535
293.20916
293.13567
293.05865
292.98116
292.90509
292.83106
292.75855
292.68626
292.61188
292.53551
292.47673
292.50787
292.57557
292.61454
292.65227
292.6889
292.71607
292.73997
292.79331
292.99099
293.41117
293.41751
293.42321
293.4275
293.42926
293.42689
293.41827
293.40097
293.37261
293.33152
293.27764
293.2128
293.1403
293.06386
292.98661
292.91054
292.83635
292.76362
292.69103
292.61633
292.53978
292.47926
292.50706
292.57446
292.61326
292.65076
292.68719
292.71421
292.73821
292.79151
292.99117
293.40649
293.41276
293.41843
293.42278
293.42473
293.42273
293.41479
293.39849
293.37142
293.33187
293.27958
293.21615
293.1447
293.0689
292.99194
292.9159
292.84158
292.76863
292.69576
292.62077
292.54404
292.48189
292.50633
292.57336
292.61198
292.64924
292.68546
292.71235
292.73642
292.78968
292.99158
293.40125
293.40745
293.41312
293.41755
293.4197
293.41811
293.41085
293.39553
293.36979
293.33182
293.28117
293.2192
293.14887
293.07378
292.99715
292.92116
292.84674
292.77358
292.70044
292.62519
292.54831
292.48458
292.50564
292.57227
292.61074
292.64774
292.68371
292.71047
292.73459
292.78784
292.99219
293.39546
293.40162
293.40729
293.41181
293.41419
293.41302
293.40643
293.39213
293.36774
293.33138
293.28241
293.22197
293.15282
293.07848
293.00223
292.92634
292.85182
292.77847
292.70507
292.62959
292.5526
292.48734
292.505
292.57119
292.60951
292.64623
292.68194
292.70857
292.73271
292.78605
292.99283
293.38917
293.39529
293.40098
293.40561
293.40822
293.4075
293.4016
293.38834
293.36531
293.33057
293.28331
293.22445
293.15654
293.08302
293.00719
292.93142
292.85683
292.7833
292.70966
292.63397
292.55689
292.49018
292.50445
292.57014
292.60826
292.64473
292.68012
292.70665
292.73077
292.78435
292.99342
293.38241
293.3885
293.39422
293.39897
293.40184
293.40156
293.39638
293.38413
293.36247
293.32937
293.28387
293.22664
293.16003
293.08738
293.01201
292.9364
292.86176
292.78806
292.71421
292.63833
292.56119
292.49314
292.50401
292.56911
292.607
292.64323
292.67828
292.7047
292.72878
292.78274
292.99424
293.37522
293.38129
293.38705
293.39192
293.39506
293.39522
293.39074
293.37952
293.35924
293.32781
293.28409
293.22854
293.16329
293.09157
293.01671
292.94128
292.86661
292.79276
292.71871
292.64269
292.56547
292.49624
292.50365
292.5681
292.60575
292.64173
292.6764
292.70274
292.72673
292.78117
292.99545
293.36764
293.37371
293.37951
293.38451
293.38791
293.38852
293.38475
293.37455
293.35565
293.32589
293.28398
293.23015
293.16631
293.09558
293.02128
292.94606
292.87138
292.7974
292.72317
292.64705
292.56976
292.49943
292.50338
292.5671
292.60452
292.64025
292.67449
292.70076
292.72464
292.77962
292.99658
293.35974
293.3658
293.37165
293.37679
293.38045
293.38151
293.37843
293.36926
293.35172
293.32362
293.28354
293.23147
293.16911
293.09941
293.02571
292.95073
292.87607
292.80198
292.72759
292.65142
292.57409
292.50267
292.50319
292.56611
292.60332
292.63877
292.67257
292.69877
292.7225
292.77802
292.99775
293.35156
293.35761
293.36351
293.36878
293.3727
293.3742
293.37182
293.36366
293.34746
293.32103
293.28279
293.23251
293.17166
293.10306
293.03
292.9553
292.88067
292.80649
292.73199
292.65581
292.57852
292.50593
292.50309
292.56513
292.60214
292.63731
292.67064
292.69678
292.72032
292.77633
292.99893
293.34315
293.34919
293.35513
293.36053
293.3647
293.36665
293.36497
293.35779
293.34291
293.31812
293.28172
293.23327
293.17398
293.10652
293.03415
292.95977
292.88519
292.81095
292.73635
292.66022
292.58303
292.50917
292.50306
292.56417
292.60099
292.63587
292.66872
292.69479
292.71809
292.77458
292.99981
293.33458
293.34063
293.34662
293.35213
293.35654
293.35893
293.35791
293.35166
293.33808
293.31491
293.28035
293.23374
293.17606
293.10979
293.03816
292.96412
292.88964
292.81534
292.74069
292.66464
292.58746
292.51243
292.50312
292.56321
292.59985
292.63445
292.66682
292.69282
292.71584
292.77284
293.00025
293.32592
293.33197
293.33801
293.34365
293.3483
293.35105
293.35062
293.34531
293.333
293.31143
293.2787
293.23394
293.1779
293.11288
293.04203
292.96837
292.894
292.81969
292.745
292.66905
292.59178
292.51574
292.50324
292.56227
292.59874
292.63305
292.66494
292.69088
292.71357
292.77116
293.00023
293.3172
293.32324
293.32932
293.33507
293.33994
293.34306
293.34323
293.3388
293.32771
293.3077
293.27676
293.23387
293.1795
293.11577
293.04575
292.97251
292.89828
292.82397
292.74928
292.67344
292.59601
292.51911
292.50345
292.56133
292.59765
292.63169
292.66309
292.68896
292.71126
292.76963
292.99976
293.3085
293.31452
293.32063
293.32648
293.33155
293.33503
293.33576
293.33217
293.32225
293.30374
293.27457
293.23353
293.18086
293.11846
293.04932
292.97655
292.90248
292.82821
292.75353
292.67779
292.60025
292.52259
292.50372
292.56037
292.59657
292.63037
292.66129
292.68709
292.70893
292.76829
292.99891
293.29987
293.30587
293.31199
293.31793
293.32318
293.32698
293.32825
293.32545
293.31663
293.29957
293.27214
293.23294
293.18199
293.12096
293.05274
292.98048
292.90662
292.83239
292.75775
292.68211
292.60449
292.52616
292.50405
292.55944
292.59549
292.62905
292.65953
292.68525
292.70657
292.76715
292.9977
293.29138
293.29735
293.30348
293.30948
293.31488
293.31898
293.32073
293.31867
293.3109
293.29523
293.26948
293.2321
293.18288
293.12327
293.05602
292.9843
292.91067
292.83653
292.76195
292.6864
292.60873
292.52977
292.50444
292.55853
292.59443
292.62774
292.65783
292.68346
292.7042
292.7662
292.99617
293.28308
293.28901
293.29514
293.30118
293.30672
293.31107
293.31326
293.31187
293.3051
293.29076
293.26663
293.23104
293.18355
293.12538
293.05915
292.98802
292.91466
292.84062
292.76611
292.69063
292.6129
292.53347
292.50489
292.55764
292.59338
292.62644
292.65617
292.68171
292.70184
292.76541
292.99435
293.27506
293.28095
293.28705
293.29313
293.29877
293.30331
293.30584
293.30509
293.29926
293.28617
293.26361
293.22978
293.18402
293.12732
293.06214
292.99164
292.91859
292.84467
292.77024
292.69482
292.61699
292.53713
292.50541
292.55676
292.59233
292.62515
292.65457
292.68
292.69955
292.76469
292.99227
293.26732
293.27313
293.27919
293.28526
293.29097
293.29574
293.29866
293.29846
293.29346
293.28154
293.26047
293.22833
293.18429
293.12907
293.065
292.99517
292.92245
292.84868
292.77433
292.69896
292.62105
292.54076
292.50599
292.55587
292.59129
292.62386
292.65301
292.67835
292.69735
292.76395
292.98996
293.25997
293.2657
293.27169
293.27775
293.28351
293.28845
293.29168
293.29197
293.28773
293.2769
293.25724
293.22674
293.18438
293.13066
293.06772
292.9986
292.92625
292.85265
292.7784
292.70306
292.62508
292.54442
292.50661
292.555
292.59024
292.62257
292.65148
292.67673
292.69526
292.76309
292.98743
293.25307
293.25871
293.26464
293.27066
293.27644
293.28146
293.2849
293.28564
293.2821
293.27229
293.25395
293.22503
293.18432
293.1321
293.07032
293.00195
292.93
292.85658
292.78243
292.70713
292.62909
292.54808
292.5073
292.55412
292.58919
292.62127
292.65
292.67515
292.69327
292.76198
292.98474
293.24664
293.25217
293.25799
293.26394
293.26971
293.2748
293.27843
293.27954
293.27666
293.26776
293.25066
293.22323
293.18413
293.13341
293.07281
293.00522
292.93371
292.86048
292.78643
292.71117
292.63307
292.55176
292.50822
292.55325
292.58814
292.61996
292.64854
292.6736
292.69139
292.76059
292.98193
293.24076
293.24615
293.25186
293.2577
293.26339
293.2685
293.27235
293.27386
293.27148
293.26338
293.2474
293.22139
293.18383
293.1346
293.07519
293.00842
292.93736
292.86436
292.79041
292.71517
292.63703
292.55545
292.50924
292.55238
292.58708
292.61865
292.64711
292.67207
292.6896
292.75886
292.9791
293.2355
293.24076
293.24633
293.25207
293.25771
293.26282
293.26674
293.26841
293.26646
293.25914
293.24423
293.21954
293.18347
293.13569
293.07749
293.01156
292.94098
292.8682
292.79435
292.71913
292.64095
292.55909
292.51026
292.55149
292.58602
292.61733
292.64568
292.67055
292.6879
292.75681
292.97635
293.23087
293.23597
293.24139
293.24698
293.2525
293.25753
293.26145
293.26334
293.26187
293.25518
293.24119
293.21773
293.18307
293.1367
293.07971
293.01463
292.94456
292.87203
292.79827
292.72306
292.64482
292.5626
292.51133
292.5506
292.58494
292.61601
292.64428
292.66902
292.68626
292.75455
292.97373
293.22692
293.23185
293.2371
293.24254
293.24792
293.25287
293.2568
293.25882
293.25759
293.25143
293.23831
293.21599
293.18268
293.13767
293.08187
293.01766
292.94811
292.87582
292.80217
292.72695
292.64863
292.56605
292.51247
292.5497
292.58385
292.61467
292.64289
292.6675
292.68467
292.75216
292.97134
293.22367
293.22843
293.23349
293.23874
293.24396
293.24878
293.25263
293.25466
293.25369
293.24808
293.2357
293.21439
293.18231
293.13861
293.08398
293.02065
292.95163
292.8796
292.80603
292.7308
292.65238
292.56953
292.5137
292.5488
292.58277
292.61333
292.6415
292.66597
292.68311
292.75001
292.96928
293.22115
293.22572
293.23058
293.23563
293.24066
293.24533
293.24909
293.25115
293.25036
293.24507
293.23329
293.21293
293.18202
293.13956
293.08607
293.02361
292.95513
292.88336
292.80987
292.73462
292.65608
292.57304
292.51503
292.5479
292.5817
292.61199
292.64011
292.66444
292.68157
292.74827
292.9677
293.21936
293.22373
293.22839
293.23323
293.23804
293.24252
293.24615
293.24815
293.2474
293.24242
293.23127
293.21169
293.18182
293.14053
293.08814
293.02654
292.9586
292.8871
292.81368
292.7384
292.65975
292.57662
292.51641
292.547
292.58063
292.61068
292.63872
292.66291
292.68004
292.74685
292.96679
293.21831
293.22247
293.22691
293.23152
293.23612
293.24038
293.24384
293.24575
293.24505
293.24034
293.22955
293.21061
293.18174
293.14156
293.09022
293.02945
292.96206
292.89081
292.81746
292.74214
292.6634
292.58019
292.51784
292.54608
292.57958
292.6094
292.63733
292.66139
292.67849
292.74561
292.96688
293.21797
293.22193
293.22614
293.23052
293.23487
293.2389
293.24216
293.24393
293.24318
293.23846
293.22812
293.20999
293.18186
293.14265
293.0923
293.03235
292.96549
292.89451
292.82122
292.74584
292.66702
292.58375
292.51929
292.54516
292.57856
292.60814
292.63595
292.65989
292.67694
292.74459
292.96828
293.21831
293.22206
293.22605
293.23018
293.23428
293.23807
293.2411
293.2427
293.24187
293.23725
293.22718
293.2095
293.18213
293.14384
293.09442
293.03525
292.96891
292.89817
292.82494
292.74951
292.67059
292.58723
292.52081
292.54425
292.57755
292.60692
292.6346
292.65842
292.67539
292.74372
292.97008
293.21929
293.22284
293.2266
293.23049
293.23433
293.23786
293.24065
293.24204
293.2411
293.2365
293.22657
293.20925
293.1826
293.14515
293.09658
293.03814
292.97231
292.90182
292.82863
292.75313
292.67411
292.59064
292.52238
292.54335
292.57658
292.60576
292.63329
292.65701
292.67385
292.74289
292.97145
293.22085
293.2242
293.22774
293.23138
293.23497
293.23823
293.24076
293.24192
293.24082
293.23614
293.22628
293.20936
293.18334
293.14658
293.09878
293.04104
292.97568
292.90543
292.83227
292.7567
292.67758
292.59399
292.52402
292.54249
292.57563
292.60465
292.63203
292.65565
292.67229
292.74175
292.97168
293.22292
293.22607
293.2294
293.23281
293.23614
293.23914
293.2414
293.24231
293.24101
293.23626
293.22647
293.2098
293.18421
293.14809
293.10102
293.04393
292.97904
292.90901
292.83588
292.76022
292.681
292.59731
292.52571
292.54164
292.57473
292.60359
292.63084
292.65435
292.67075
292.74024
292.97252
293.22542
293.22838
293.2315
293.23468
293.23776
293.2405
293.2425
293.24316
293.24165
293.23678
293.22701
293.21049
293.18524
293.1497
293.10331
293.04683
292.98237
292.91255
292.83944
292.76368
292.68437
292.6006
292.52746
292.54081
292.57386
292.60261
292.62971
292.6531
292.66924
292.73875
292.97407
293.22823
293.23102
293.23395
293.23691
293.23976
293.24225
293.24399
293.2444
293.24267
293.23765
293.22782
293.21139
293.18647
293.15148
293.10565
293.04971
292.98566
292.91605
292.84294
292.7671
292.68768
292.60384
292.52927
292.54001
292.57305
292.60166
292.62863
292.65192
292.66777
292.73729
292.97616
293.23127
293.2339
293.23665
293.23941
293.24204
293.24429
293.24579
293.24596
293.244
293.23881
293.22892
293.21256
293.1879
293.15332
293.10801
293.05259
292.98892
292.91949
292.8464
292.77045
292.69095
292.60703
292.53119
292.5392
292.57228
292.60076
292.62762
292.65078
292.66632
292.73598
292.97855
293.23443
293.23691
293.23949
293.24208
293.24451
293.24654
293.2478
293.24775
293.24558
293.24022
293.23024
293.21393
293.18945
293.15522
293.11038
293.05544
292.99213
292.92288
292.8498
292.77376
292.69417
292.61017
292.53317
292.53842
292.57156
292.59992
292.62664
292.64965
292.66494
292.73511
292.98096
293.23758
293.23994
293.24237
293.24479
293.24705
293.24888
293.24994
293.24967
293.24731
293.24179
293.23173
293.21543
293.19111
293.15717
293.11277
293.05826
292.99529
292.92622
292.85313
292.77701
292.69736
292.61331
292.53519
292.53771
292.57088
292.59913
292.62569
292.64853
292.66361
292.73455
292.98315
293.24062
293.24287
293.24518
293.24746
293.24955
293.25122
293.2521
293.25165
293.24911
293.24345
293.2333
293.21702
293.19284
293.15915
293.11514
293.06104
292.99839
292.92948
292.85641
292.78022
292.70054
292.61653
292.53726
292.53707
292.57023
292.59836
292.62475
292.64741
292.6623
292.73419
292.98502
293.24344
293.24559
293.24779
293.24995
293.25192
293.25345
293.25417
293.25357
293.25088
293.2451
293.23488
293.21861
293.19456
293.16114
293.11749
293.06377
293.00143
292.93269
292.85964
292.78338
292.7037
292.61976
292.53937
292.53654
292.56962
292.59763
292.62382
292.64626
292.66102
292.73404
292.9865
293.24592
293.248
293.25011
293.25218
293.25404
293.25546
293.25606
293.25533
293.25254
293.24666
293.23639
293.22016
293.19623
293.1631
293.11978
293.06643
293.0044
292.93582
292.8628
292.78651
292.70684
292.62294
292.54148
292.53606
292.56904
292.59694
292.62288
292.64507
292.65978
292.73406
292.98761
293.24799
293.25
293.25205
293.25404
293.25583
293.25715
293.25767
293.25686
293.25399
293.24806
293.23779
293.22162
293.19785
293.16498
293.122
293.06902
293.00729
292.93889
292.86591
292.78961
292.70997
292.62605
292.54364
292.53566
292.5685
292.59628
292.62195
292.64385
292.65853
292.73416
292.98849
293.24954
293.2515
293.2535
293.25545
293.25718
293.25845
293.25891
293.25806
293.25515
293.24922
293.23899
293.22293
293.19936
293.16675
293.12413
293.07151
293.01009
292.94188
292.86898
292.79267
292.71309
292.6291
292.54587
292.53534
292.56799
292.59565
292.62102
292.64262
292.6573
292.73429
292.98927
293.2505
293.25244
293.25441
293.25632
293.25802
293.25927
293.25971
293.25884
293.25595
293.25006
293.23992
293.22401
293.20068
293.16838
293.12614
293.07391
293.01282
292.94482
292.872
292.79572
292.71619
292.63216
292.5482
292.53512
292.56753
292.59505
292.6201
292.6414
292.65609
292.73454
292.99008
293.25083
293.25274
293.2547
293.2566
293.25829
293.25954
293.25999
293.25916
293.25632
293.25053
293.24053
293.22483
293.20177
293.16984
293.128
293.0762
293.01546
292.9477
292.875
292.79876
292.7193
292.63529
292.55064
292.53499
292.56711
292.59451
292.61922
292.6402
292.6549
292.73499
292.99102
293.25047
293.25238
293.25434
293.25624
293.25795
293.25922
293.25972
293.25895
293.25621
293.25056
293.24076
293.22532
293.20261
293.17109
293.12972
293.07837
293.01802
292.95053
292.87797
292.80181
292.72243
292.63846
292.55317
292.53494
292.56676
292.59402
292.61839
292.63903
292.65375
292.73577
292.99216
293.24941
293.25133
293.25329
293.25522
293.25695
293.25828
293.25885
293.25818
293.25558
293.25012
293.24057
293.22546
293.20316
293.17212
293.13126
293.08042
293.0205
292.95332
292.88093
292.80487
292.72558
292.64167
292.55585
292.53498
292.56647
292.59361
292.61762
292.63793
292.65264
292.73695
292.99348
293.24764
293.24957
293.25156
293.25351
293.2553
293.25669
293.25735
293.25682
293.25441
293.24919
293.23996
293.22524
293.20341
293.1729
293.13262
293.08236
293.02292
292.95608
292.8839
292.80796
292.72875
292.64487
292.55859
292.53512
292.56626
292.59328
292.61692
292.6369
292.65157
292.73849
292.99493
293.24518
293.24712
293.24914
293.25113
293.25298
293.25445
293.25524
293.25486
293.25267
293.24774
293.23889
293.22465
293.20333
293.1734
293.13381
293.08418
293.02529
292.95883
292.88689
292.81109
292.73195
292.64809
292.56136
292.53532
292.56612
292.59304
292.61631
292.63595
292.65055
292.74011
292.99639
293.24205
293.24402
293.24606
293.24811
293.25002
293.25159
293.25251
293.25232
293.25037
293.24576
293.23732
293.22359
293.20289
293.1737
293.13484
293.08591
293.02761
292.96159
292.88992
292.81427
292.73521
292.65139
292.56428
292.53566
292.56608
292.59288
292.6158
292.63509
292.64958
292.74151
292.9977
293.23831
293.2403
293.24238
293.24447
293.24646
293.24813
293.2492
293.24921
293.24753
293.24329
293.2353
293.22214
293.20216
293.17377
293.13571
293.08755
293.02989
292.96436
292.89299
292.81751
292.73853
292.65476
292.56736
292.53614
292.56612
292.59281
292.6154
292.6343
292.64866
292.74239
292.99876
293.23402
293.23603
293.23814
293.24029
293.24236
293.24414
293.24537
293.24559
293.24421
293.24034
293.23286
293.22034
293.20114
293.17359
293.13641
293.08909
293.03216
292.96715
292.89612
292.82082
292.74193
292.65821
292.57061
292.53669
292.56625
292.59284
292.61512
292.63359
292.64782
292.74255
292.99948
293.22925
293.23129
293.23344
293.23564
293.23778
293.23968
293.24107
293.24152
293.24045
293.237
293.23006
293.21819
293.19977
293.17315
293.13695
293.09055
293.0344
292.96998
292.89932
292.82422
292.74541
292.66175
292.57394
292.53734
292.56647
292.59296
292.61495
292.63297
292.64705
292.74199
292.99987
293.22411
293.22616
293.22834
293.23059
293.2328
293.23481
293.23636
293.23704
293.23627
293.23325
293.22686
293.2157
293.19814
293.1725
293.13733
293.09193
293.03663
292.97285
292.90259
292.8277
292.74897
292.66536
292.57723
292.53811
292.5668
292.59317
292.61488
292.63245
292.6464
292.74094
293
293.21868
293.22074
293.22295
293.22524
293.22752
293.22963
293.23133
293.23223
293.23177
293.22917
293.22334
293.21292
293.19627
293.17165
293.13757
293.09323
293.03885
292.97576
292.90593
292.83126
292.75262
292.66906
292.58076
292.53914
292.56721
292.59347
292.61493
292.63203
292.64586
292.73979
293
293.21308
293.21514
293.21736
293.21968
293.22202
293.22422
293.22606
293.22717
293.22702
293.22483
293.21958
293.20989
293.19416
293.1706
293.13767
293.09446
293.04106
292.97871
292.90936
292.83492
292.75636
292.67285
292.58446
292.54053
292.56771
292.59386
292.61511
292.63173
292.64544
292.73893
293.00001
293.20739
293.20945
293.21167
293.21401
293.2164
293.21868
293.22065
293.22195
293.22208
293.2203
293.21561
293.20667
293.19185
293.16937
293.13764
293.09561
293.04326
292.9817
292.91285
292.83868
292.7602
292.67675
292.58834
292.54224
292.56827
292.59435
292.61541
292.63158
292.64517
292.73865
293.00021
293.20174
293.20378
293.20599
293.20834
293.21075
293.2131
293.21517
293.21665
293.21705
293.21566
293.2115
293.20326
293.18935
293.16799
293.13747
293.09668
293.04543
292.98472
292.91642
292.84252
292.76414
292.68076
292.59232
292.54396
292.5689
292.59494
292.61579
292.63158
292.64512
292.73905
293.00074
293.19623
293.19824
293.20042
293.20276
293.20518
293.20756
293.20972
293.21134
293.21198
293.21095
293.20729
293.19975
293.18673
293.16646
293.13719
293.09766
293.04757
292.98776
292.92005
292.84645
292.76818
292.68486
292.59639
292.54565
292.56961
292.59562
292.61628
292.63173
292.6453
292.74005
293.00172
293.19096
293.19292
293.19507
293.19737
293.19978
293.20217
293.20439
293.20613
293.20696
293.20624
293.20306
293.19617
293.18402
293.16483
293.1368
293.09857
293.04967
292.99082
292.92374
292.85046
292.77231
292.68906
292.60057
292.54745
292.57041
292.5964
292.61691
292.63206
292.64572
292.74153
293.00326
293.18605
293.18795
293.19004
293.19229
293.19466
293.19704
293.19927
293.20109
293.20209
293.20164
293.19887
293.19259
293.18126
293.16311
293.13632
293.09939
293.05173
292.99388
292.92748
292.85455
292.77655
292.69336
292.60488
292.54943
292.57132
292.59729
292.61767
292.63258
292.64641
292.74337
293.00546
293.18158
293.18341
293.18542
293.1876
293.18991
293.19225
293.19447
293.19633
293.19744
293.19722
293.19482
293.18907
293.17849
293.16135
293.13576
293.10015
293.05374
292.99694
292.93126
292.85873
292.78088
292.69778
292.60935
292.55171
292.57232
292.59828
292.61857
292.63333
292.64736
292.74548
293.00838
293.17767
293.17941
293.18132
293.18341
293.18563
293.1879
293.19008
293.19194
293.19312
293.19306
293.19096
293.18568
293.17579
293.15959
293.13517
293.10085
293.05571
292.99999
292.93508
292.86298
292.78531
292.70231
292.61396
292.55418
292.57342
292.59938
292.61961
292.63431
292.64856
292.74777
293.01207
293.1744
293.17602
293.17782
293.17979
293.18189
293.18405
293.18614
293.18795
293.18914
293.18918
293.18733
293.18248
293.17325
293.15792
293.13458
293.10152
293.05766
293.00305
292.93895
292.86732
292.78986
292.70696
292.61869
292.55682
292.57461
292.60061
292.62081
292.63552
292.65001
292.75004
293.01655
293.17184
293.17334
293.17501
293.17684
293.1788
293.18082
293.18279
293.18451
293.18565
293.18572
293.18403
293.1796
293.17098
293.15638
293.13404
293.10219
293.05959
293.00611
292.94286
292.87174
292.79451
292.71173
292.62354
292.55959
292.57593
292.60198
292.62217
292.63696
292.65171
292.75209
293.02176
293.17008
293.17144
293.17297
293.17465
293.17645
293.17831
293.18013
293.18172
293.18279
293.18287
293.18129
293.17708
293.16886
293.15497
293.1336
293.1029
293.06153
293.0092
292.94683
292.87625
292.79928
292.71663
292.62851
292.56261
292.57738
292.60349
292.62368
292.63862
292.65364
292.75387
293.02756
293.16916
293.17038
293.17175
293.17326
293.17488
293.17655
293.17819
293.17961
293.18055
293.18056
293.179
293.17494
293.16708
293.15383
293.13334
293.1037
293.06352
293.01232
292.95086
292.88086
292.80417
292.72166
292.6336
292.56588
292.57897
292.60514
292.62534
292.64049
292.65582
292.75558
293.03373
293.16913
293.1702
293.17141
293.17273
293.17415
293.17562
293.17705
293.17827
293.17902
293.17889
293.17727
293.17328
293.16579
293.15312
293.1333
293.10464
293.06559
293.0155
292.95495
292.88557
292.80919
292.72684
292.63884
292.56939
292.58071
292.60692
292.62712
292.64255
292.65827
292.75772
293.03998
293.17
293.17092
293.17195
293.17309
293.17431
293.17557
293.17677
293.17776
293.17831
293.17802
293.17631
293.17237
293.16505
293.15268
293.13349
293.10576
293.06777
293.01876
292.95914
292.89038
292.81435
292.73219
292.64428
292.57314
292.58258
292.60884
292.62903
292.6448
292.661
292.76066
293.04602
293.17175
293.17253
293.17339
293.17434
293.17536
293.17638
293.17735
293.1781
293.1784
293.1779
293.17603
293.17199
293.16467
293.15265
293.13416
293.10718
293.07014
293.02214
292.96342
292.89532
292.81965
292.7377
292.64991
292.57711
292.58467
292.6109
292.63107
292.64721
292.664
292.76456
293.05166
293.17435
293.17499
293.17569
293.17646
293.17727
293.17807
293.17879
293.17929
293.17933
293.17858
293.17651
293.17234
293.16501
293.15324
293.13522
293.10888
293.07271
293.02567
292.96783
292.90038
292.8251
292.74337
292.65571
292.58129
292.58703
292.61312
292.63324
292.64974
292.66723
292.76924
293.05679
293.17772
293.17823
293.17879
293.17939
293.18001
293.1806
293.18108
293.18132
293.1811
293.18009
293.1778
293.17348
293.16614
293.15442
293.13663
293.11088
293.07551
293.02937
292.97237
292.90557
292.8307
292.74921
292.66163
292.58568
292.58966
292.61549
292.63556
292.65231
292.67067
292.77425
293.06141
293.18176
293.18216
293.18259
293.18304
293.18349
293.18388
293.18414
293.18414
293.18366
293.18239
293.17984
293.17533
293.16787
293.15616
293.13854
293.11327
293.0786
293.03327
292.97707
292.9109
292.83644
292.75518
292.66769
292.59028
292.59237
292.61804
292.63807
292.65483
292.67428
292.7791
293.06565
293.18635
293.18665
293.18698
293.18731
293.18761
293.18783
293.1879
293.18767
293.18695
293.18542
293.18261
293.17786
293.17023
293.15845
293.14101
293.11614
293.08201
293.03739
292.98192
292.91637
292.84232
292.76129
292.67386
292.59508
292.59507
292.62076
292.64076
292.65723
292.67804
292.78344
293.0698
293.19132
293.19157
293.19182
293.19206
293.19224
293.19233
293.19223
293.19182
293.19088
293.18911
293.18606
293.18108
293.17326
293.16141
293.14405
293.11941
293.08574
293.04174
292.98694
292.92198
292.84834
292.76753
292.68015
292.60006
292.59789
292.62371
292.6436
292.65946
292.68193
292.78718
293.07429
293.19652
293.19673
293.19694
293.19712
293.19723
293.19723
293.19701
293.19645
293.19534
293.19337
293.1901
293.18491
293.17691
293.16494
293.14756
293.12307
293.08978
293.04632
292.99214
292.92772
292.85448
292.77391
292.6866
292.60522
292.60086
292.62685
292.64646
292.66157
292.68592
292.79042
293.07954
293.20176
293.20198
293.20217
293.20233
293.20241
293.20236
293.20207
293.20141
293.20018
293.19806
293.19462
293.18924
293.18107
293.16897
293.15154
293.12715
293.09415
293.05115
292.99751
292.93361
292.86074
292.78041
292.69313
292.61071
292.60405
292.6302
292.64924
292.66373
292.68995
292.79345
293.08591
293.20687
293.20711
293.20733
293.20751
293.2076
293.20754
293.20724
293.20654
293.20525
293.20304
293.19948
293.19396
293.18564
293.17343
293.15595
293.13162
293.09883
293.05621
293.00304
292.93962
292.86713
292.78705
292.69982
292.61624
292.60749
292.63378
292.65205
292.6662
292.69392
292.79668
293.09359
293.21166
293.21195
293.21223
293.21246
293.21261
293.2126
293.21233
293.21166
293.21037
293.20814
293.20453
293.19894
293.19053
293.17823
293.1607
293.13643
293.10381
293.06149
293.00875
292.94577
292.87363
292.79381
292.70666
292.62201
292.61147
292.63764
292.65498
292.6692
292.69772
292.80048
293.10272
293.21597
293.21634
293.2167
293.21702
293.21726
293.21735
293.21718
293.21659
293.21537
293.21319
293.20961
293.20402
293.19558
293.18326
293.16573
293.1415
293.10903
293.06699
293.01462
292.95204
292.88026
292.80069
292.71361
292.62807
292.61584
292.64172
292.65811
292.67284
292.70128
292.80504
293.11329
293.21964
293.22011
293.22059
293.22103
293.2214
293.22163
293.2216
293.22116
293.22007
293.21803
293.21456
293.20905
293.20068
293.1884
293.17093
293.14678
293.11446
293.07266
293.02063
292.95843
292.887
292.80769
292.72072
292.63443
292.62032
292.64618
292.66145
292.67699
292.70465
292.81037
293.12413
293.22255
293.22314
293.22375
293.22434
293.22488
293.22528
293.22544
293.2252
293.22433
293.22249
293.21922
293.21389
293.20568
293.19354
293.17619
293.15219
293.12004
293.07849
293.02678
292.96494
292.89385
292.81481
292.72798
292.6411
292.62502
292.65097
292.66525
292.68146
292.70799
292.81639
293.13486
293.2246
293.22532
293.22608
293.22684
293.22757
293.22818
293.22858
293.22859
293.22798
293.22642
293.22344
293.21839
293.21045
293.19855
293.18143
293.15764
293.12571
293.08443
293.03304
292.97156
292.90082
292.82206
292.73543
292.6481
292.63012
292.65601
292.66966
292.68612
292.71148
292.82295
293.14683
293.22571
293.22658
293.2275
293.22845
293.22939
293.23025
293.23091
293.23121
293.23093
293.22971
293.22709
293.22242
293.21485
293.20331
293.18652
293.16301
293.1314
293.09045
293.0394
292.97829
292.90791
292.82946
292.74307
292.65541
292.63564
292.66126
292.67427
292.69096
292.71526
292.82992
293.15832
293.22587
293.22689
293.22798
293.22913
293.23029
293.2314
293.23236
293.233
293.23308
293.23227
293.23008
293.22586
293.21876
293.20769
293.19134
293.16828
293.13707
293.0965
293.04585
292.98513
292.91512
292.837
292.75091
292.66302
292.6415
292.66673
292.679
292.69599
292.71938
292.83727
293.16951
293.22508
293.22625
293.22752
293.22887
293.23027
293.23165
293.23292
293.23391
293.23441
293.23404
293.23235
293.22867
293.22214
293.21164
293.19586
293.17334
293.14266
293.10257
293.05236
292.99206
292.92246
292.8447
292.75895
292.67091
292.64763
292.67242
292.68412
292.70124
292.72384
292.84509
293.18222
293.2234
293.22472
293.22616
293.22771
293.22934
293.231
293.23258
293.23394
293.23484
293.23499
293.23384
293.23077
293.2249
293.21507
293.19998
293.17816
293.14811
293.1086
293.05892
292.99909
292.92992
292.85256
292.76717
292.67897
292.65399
292.67829
292.68976
292.70666
292.72856
292.85343
293.19375
293.22094
293.2224
293.22401
293.22575
293.22761
293.22953
293.23142
293.23314
293.23448
293.23508
293.23455
293.23213
293.22698
293.21795
293.20368
293.18267
293.15338
293.11456
293.06549
293.00621
292.93751
292.86056
292.77556
292.68729
292.66054
292.68423
292.69543
292.71215
292.73345
292.86229
293.1978
293.21783
293.21941
293.22117
293.2231
293.22517
293.22735
293.22954
293.23163
293.2334
293.23453
293.23454
293.23282
293.22844
293.22028
293.20692
293.18683
293.15843
293.12043
293.07207
293.01339
292.94521
292.8687
292.78411
292.69585
292.66722
292.69018
292.7009
292.71762
292.73841
292.87144
293.19837
293.21421
293.21592
293.21781