/*--------------------------------*- C++ -*----------------------------------*\
| =========                 |                                                 |
| \\      /  F ield         | OpenFOAM: The Open Source CFD Toolbox           |
|  \\    /   O peration     | Version:  2406                                  |
|   \\  /    A nd           | Website:  www.openfoam.com                      |
|    \\/     M anipulation  |                                                 |
\*---------------------------------------------------------------------------*/
FoamFile
{
    version     2.0;
    format      ascii;
    arch        "LSB;label=32;scalar=64";
    class       volScalarField;
    location    "0.003";
    object      T;
}
// * * * * * * * * * * * * * * * * * * * * * * * * * * * * * * * * * * * * * //

dimensions      [0 0 0 1 0 0 0];

internalField   nonuniform List<scalar> 
23203
(
292.80062
292.8065
292.812
292.81712
292.82184
292.82617
292.8301
292.83363
292.83676
292.83949
292.84183
292.84378
292.84536
292.84657
292.84743
292.84795
292.84814
292.84803
292.84763
292.84696
292.84604
292.8449
292.84355
292.84204
292.84041
292.83869
292.83692
292.83516
292.83342
292.83185
292.83053
292.82959
292.82919
292.82955
292.831
292.83396
292.83911
292.84748
292.86077
292.88184
292.91467
292.95651
292.98909
293.00585
293.01484
293.02135
293.02717
293.03277
293.0382
293.04345
293.0485
293.05332
293.05792
293.06229
293.06643
293.07032
293.07396
293.07735
293.08048
293.08333
293.08591
293.08821
293.09023
293.09195
293.09338
293.09451
293.09533
293.09584
293.09604
293.09592
293.09548
293.09471
293.09363
293.09222
293.0905
293.08848
293.08617
293.08357
293.0807
293.07758
293.07423
293.07066
293.06689
293.06297
293.0589
293.05474
293.05051
293.04624
293.04199
293.03778
293.03367
293.02968
293.02589
293.02232
293.01904
293.01607
293.01345
293.01119
293.0093
293.00777
293.00658
293.0057
293.0051
293.00473
293.00456
293.0045
293.00456
293.00459
292.81526
292.82001
292.82449
292.82866
292.83252
292.83605
292.83923
292.84206
292.84452
292.84663
292.84839
292.8498
292.85088
292.85162
292.85205
292.85217
292.85199
292.85154
292.85082
292.84986
292.84867
292.84729
292.84573
292.84403
292.84223
292.84036
292.83849
292.83664
292.83486
292.83328
292.832
292.83115
292.83092
292.83155
292.83339
292.83694
292.84294
292.85259
292.86781
292.89182
292.92791
292.96903
292.99658
293.00992
293.01762
293.02369
293.02933
293.03479
293.0401
293.04524
293.05017
293.05489
293.05939
293.06367
293.06772
293.07153
293.07511
293.07843
293.08149
293.0843
293.08683
293.08908
293.09106
293.09275
293.09415
293.09525
293.09606
293.09655
293.09674
293.09662
293.09617
293.0954
293.09432
293.09292
293.09122
293.08921
293.08692
293.08434
293.0815
293.07841
293.07508
293.07155
293.06782
293.06393
293.05991
293.05578
293.05159
293.04737
293.04316
293.039
293.03492
293.03098
293.02723
293.02371
293.02047
293.01754
293.01495
293.01273
293.01088
293.00938
293.00823
293.00738
293.0068
293.00646
293.00631
293.00626
293.00633
293.00636
292.83263
292.83608
292.83934
292.8424
292.84523
292.8478
292.85009
292.85209
292.85379
292.85518
292.85627
292.85707
292.85756
292.85777
292.85769
292.85734
292.85672
292.85586
292.85476
292.85345
292.85194
292.85026
292.84843
292.84648
292.84446
292.8424
292.84037
292.8384
292.83653
292.83491
292.83364
292.83286
292.83279
292.83369
292.83594
292.84011
292.84705
292.85811
292.87551
292.90271
292.94147
292.97991
293.0024
293.01331
293.0202
293.02597
293.03145
293.03679
293.04198
293.04699
293.05181
293.05643
293.06083
293.06502
293.06898
293.07272
293.07622
293.07947
293.08247
293.08522
293.0877
293.08991
293.09184
293.0935
293.09486
293.09594
293.09672
293.0972
293.09737
293.09724
293.09678
293.09602
293.09493
293.09354
293.09185
293.08986
293.08758
293.08503
293.08222
293.07915
293.07586
293.07236
293.06867
293.06482
293.06084
293.05676
293.05262
293.04845
293.04428
293.04017
293.03614
293.03225
293.02855
293.02507
293.02188
293.01899
293.01645
293.01427
293.01246
293.011
293.00988
293.00907
293.00852
293.00819
293.00806
293.00803
293.00811
293.00813
292.85074
292.85289
292.85494
292.85685
292.85861
292.86018
292.86155
292.8627
292.8636
292.86426
292.86466
292.86481
292.8647
292.86435
292.86375
292.86291
292.86184
292.86055
292.85906
292.85738
292.85553
292.85354
292.85142
292.84922
292.84696
292.8447
292.84251
292.84041
292.83845
292.83679
292.83553
292.83484
292.83494
292.83614
292.83886
292.84373
292.85174
292.86443
292.88436
292.91504
292.95546
292.98969
293.00761
293.01662
293.02287
293.02839
293.03371
293.03891
293.04397
293.04886
293.05356
293.05806
293.06236
293.06645
293.07033
293.07398
293.0774
293.08058
293.08351
293.0862
293.08862
293.09078
293.09267
293.09428
293.09562
293.09666
293.09742
293.09788
293.09803
293.09788
293.09742
293.09665
293.09557
293.09418
293.0925
293.09052
293.08826
293.08573
293.08294
293.07991
293.07665
293.07319
293.06954
293.06573
293.06179
293.05776
293.05366
293.04953
293.04542
293.04135
293.03737
293.03353
293.02988
293.02645
293.0233
293.02046
293.01797
293.01583
293.01406
293.01264
293.01155
293.01077
293.01025
293.00995
293.00984
293.00982
293.0099
293.00993
292.86907
292.86998
292.87085
292.87165
292.87235
292.87294
292.87339
292.87367
292.87377
292.87368
292.87338
292.87288
292.87216
292.87123
292.87009
292.86875
292.86722
292.8655
292.8636
292.86155
292.85936
292.85705
292.85464
292.85218
292.84969
292.84723
292.84487
292.84266
292.84062
292.83892
292.8377
292.83712
292.83744
292.83899
292.84225
292.84796
292.85722
292.87183
292.89469
292.92887
292.9692
292.99809
293.01216
293.01979
293.02556
293.03086
293.03604
293.0411
293.04603
293.05079
293.05536
293.05975
293.06394
293.06793
293.07171
293.07527
293.07861
293.08172
293.08458
293.0872
293.08957
293.09168
293.09352
293.09509
293.09639
293.0974
293.09813
293.09856
293.0987
293.09854
293.09807
293.09729
293.09621
293.09483
293.09315
293.09119
293.08895
293.08644
293.08367
293.08067
293.07744
293.07401
293.0704
293.06663
293.06274
293.05875
293.0547
293.05062
293.04655
293.04254
293.03861
293.03482
293.03122
293.02784
293.02473
293.02194
293.01949
293.0174
293.01567
293.01429
293.01324
293.01249
293.01199
293.01172
293.01163
293.01162
293.01172
293.01174
292.88765
292.88737
292.88709
292.8868
292.88648
292.8861
292.88563
292.88505
292.88434
292.88348
292.88248
292.8813
292.87996
292.87845
292.87677
292.87491
292.8729
292.87073
292.86843
292.86599
292.86344
292.86081
292.85811
292.85538
292.85266
292.85
292.84748
292.84515
292.84304
292.84133
292.84017
292.83974
292.84032
292.84229
292.8462
292.85287
292.86361
292.8805
292.90668
292.94389
292.98198
293.00522
293.01629
293.0229
293.0283
293.03341
293.03844
293.04336
293.04815
293.05277
293.05722
293.06149
293.06557
293.06946
293.07314
293.07661
293.07986
293.08289
293.08568
293.08824
293.09055
293.0926
293.09439
293.09592
293.09718
293.09816
293.09886
293.09927
293.09938
293.09921
293.09872
293.09794
293.09686
293.09548
293.09381
293.09186
293.08964
293.08715
293.08441
293.08144
293.07824
293.07485
293.07127
293.06755
293.0637
293.05975
293.05575
293.05172
293.0477
293.04374
293.03986
293.03612
293.03256
293.02924
293.02618
293.02344
293.02103
293.01898
293.0173
293.01595
293.01494
293.01422
293.01376
293.01351
293.01343
293.01344
293.01355
293.01357
292.90641
292.90498
292.9036
292.90226
292.90093
292.89959
292.89821
292.89677
292.89526
292.89364
292.89192
292.89007
292.8881
292.88599
292.88375
292.88138
292.87888
292.87626
292.87353
292.8707
292.8678
292.86483
292.86184
292.85884
292.85589
292.85302
292.85035
292.84791
292.84574
292.84404
292.84296
292.84271
292.84361
292.84608
292.85075
292.85858
292.87107
292.89063
292.92043
292.9595
292.99325
293.01127
293.02011
293.02598
293.03109
293.03604
293.04091
293.04568
293.05032
293.05481
293.05913
293.06327
293.06724
293.07102
293.07461
293.07798
293.08115
293.0841
293.08682
293.0893
293.09155
293.09355
293.09529
293.09677
293.09799
293.09894
293.0996
293.09999
293.10008
293.09989
293.09939
293.0986
293.09752
293.09615
293.09448
293.09255
293.09034
293.08787
293.08516
293.08221
293.07905
293.07569
293.07215
293.06847
293.06466
293.06076
293.05681
293.05283
293.04886
293.04494
293.04112
293.03743
293.03392
293.03065
293.02764
293.02494
293.02258
293.02058
293.01894
293.01763
293.01665
293.01597
293.01554
293.01531
293.01526
293.01528
293.0154
293.01542
292.92526
292.92273
292.92029
292.91793
292.91563
292.91335
292.91109
292.9088
292.90649
292.90411
292.90167
292.89915
292.89655
292.89384
292.89104
292.88814
292.88515
292.88207
292.87891
292.87569
292.87241
292.86911
292.86582
292.86255
292.85937
292.85631
292.85349
292.85094
292.84874
292.84706
292.8461
292.84609
292.84737
292.85044
292.85602
292.86522
292.8798
292.90246
292.93587
292.9748
293.00281
293.01651
293.02375
293.02908
293.03395
293.03873
293.04345
293.04807
293.05256
293.0569
293.06109
293.06511
293.06896
293.07263
293.07612
293.0794
293.08248
293.08534
293.08798
293.0904
293.09258
293.09452
293.09621
293.09765
293.09882
293.09973
293.10037
293.10073
293.1008
293.10058
293.10008
293.09928
293.09819
293.09682
293.09517
293.09324
293.09105
293.0886
293.08591
293.08299
293.07986
293.07654
293.07304
293.0694
293.06563
293.06178
293.05787
293.05394
293.05003
293.04616
293.04239
293.03875
293.03529
293.03207
293.02911
293.02646
293.02415
293.02219
293.02059
293.01932
293.01838
293.01773
293.01733
293.01713
293.0171
293.01714
293.01726
293.01728
292.94412
292.94053
292.93709
292.93375
292.93051
292.92733
292.92419
292.92108
292.91798
292.91486
292.91171
292.90852
292.90527
292.90197
292.89861
292.89518
292.89169
292.88815
292.88456
292.88093
292.87729
292.87366
292.87006
292.86653
292.86311
292.85986
292.85691
292.85428
292.85205
292.85044
292.84963
292.84991
292.85166
292.85545
292.86212
292.87296
292.89001
292.91621
292.95259
292.98888
293.01077
293.02117
293.02728
293.03221
293.03688
293.04149
293.04605
293.05052
293.05486
293.05906
293.06311
293.067
293.07073
293.07429
293.07767
293.08085
293.08384
293.08662
293.08919
293.09153
293.09364
293.09552
293.09716
293.09855
293.09968
293.10055
293.10115
293.10148
293.10153
293.1013
293.10078
293.09997
293.09888
293.09751
293.09586
293.09394
293.09177
293.08934
293.08667
293.08378
293.08068
293.0774
293.07394
293.07034
293.06662
293.06281
293.05895
293.05507
293.0512
293.04739
293.04367
293.04008
293.03667
293.0335
293.03059
293.02799
293.02572
293.02381
293.02225
293.02103
293.02013
293.01951
293.01914
293.01897
293.01895
293.01901
293.01914
293.01916
292.9629
292.95833
292.95392
292.94966
292.94551
292.94146
292.93749
292.93357
292.92969
292.92584
292.92199
292.91813
292.91426
292.91036
292.90644
292.90248
292.89849
292.89449
292.89046
292.88644
292.88243
292.87846
292.87456
292.87076
292.86713
292.8637
292.86062
292.85793
292.8557
292.85418
292.85359
292.85423
292.85655
292.86121
292.86918
292.88199
292.90199
292.93195
292.96977
293.00106
293.01743
293.02547
293.03078
293.0354
293.03988
293.04433
293.04873
293.05303
293.05721
293.06126
293.06518
293.06894
293.07255
293.07599
293.07926
293.08235
293.08524
293.08794
293.09042
293.09269
293.09474
293.09655
293.09814
293.09947
293.10056
293.10139
293.10196
293.10225
293.10228
293.10202
293.10149
293.10067
293.09957
293.0982
293.09656
293.09466
293.09249
293.09009
293.08744
293.08458
293.08152
293.07826
293.07484
293.07128
293.0676
293.06384
293.06003
293.0562
293.05238
293.04862
293.04495
293.04142
293.03806
293.03494
293.03208
293.02953
293.02731
293.02545
293.02393
293.02275
293.02189
293.02131
293.02097
293.02082
293.02082
293.0209
293.02104
293.02106
292.98156
292.97606
292.97074
292.96558
292.96057
292.95569
292.95091
292.94622
292.94159
292.93702
292.93248
292.92797
292.92348
292.91899
292.91451
292.91003
292.90555
292.90107
292.89662
292.8922
292.88782
292.88352
292.87932
292.87527
292.87142
292.86784
292.86466
292.86191
292.85972
292.85835
292.85803
292.85912
292.86214
292.86785
292.8774
292.89258
292.916
292.94948
292.98624
293.01116
293.02314
293.02954
293.03429
293.03865
293.04296
293.04724
293.05147
293.05561
293.05963
293.06353
293.0673
293.07093
293.07441
293.07774
293.0809
293.08388
293.08668
293.08929
293.09169
293.09388
293.09586
293.09761
293.09914
293.10042
293.10146
293.10225
293.10278
293.10304
293.10304
293.10276
293.10221
293.10138
293.10028
293.09891
293.09728
293.09538
293.09323
293.09084
293.08822
293.08539
293.08235
293.07914
293.07575
293.07223
293.0686
293.06489
293.06112
293.05734
293.05358
293.04986
293.04625
293.04276
293.03946
293.03639
293.03358
293.03108
293.02891
293.02709
293.02562
293.02448
293.02366
293.02311
293.0228
293.02268
293.02271
293.0228
293.02295
293.02297
293.00001
292.99364
292.98747
292.98148
292.97565
292.96997
292.96442
292.95897
292.95363
292.94836
292.94316
292.93801
292.9329
292.92784
292.9228
292.9178
292.91283
292.9079
292.90302
292.8982
292.89347
292.88884
292.88436
292.88006
292.87601
292.87229
292.86904
292.86626
292.86415
292.86298
292.86301
292.86466
292.86853
292.87552
292.88699
292.90502
292.93223
292.96808
293.00089
293.01943
293.02822
293.0335
293.03784
293.04198
293.04611
293.05023
293.05428
293.05825
293.06211
293.06585
293.06948
293.07297
293.07633
293.07954
293.08259
293.08546
293.08817
293.09068
293.09299
293.09511
293.09701
293.0987
293.10017
293.1014
293.10239
293.10313
293.10362
293.10386
293.10382
293.10352
293.10296
293.10211
293.10101
293.09963
293.098
293.09611
293.09398
293.09161
293.08901
293.08621
293.0832
293.08002
293.07667
293.0732
293.06961
293.06594
293.06222
293.05849
293.05477
293.05112
293.04755
293.04412
293.04087
293.03785
293.03509
293.03264
293.03052
293.02875
293.02732
293.02622
293.02544
293.02493
293.02465
293.02456
293.02461
293.02472
293.02488
293.0249
293.01821
293.01103
293.00406
292.99728
292.99069
292.98425
292.97796
292.9718
292.96576
292.95982
292.95397
292.9482
292.94251
292.93687
292.9313
292.92579
292.92034
292.91496
292.90966
292.90446
292.89937
292.89443
292.88967
292.88514
292.88091
292.87708
292.87376
292.871
292.86903
292.86813
292.86861
292.87095
292.87588
292.88443
292.89824
292.91963
292.95058
292.98649
293.01311
293.02629
293.0329
293.03743
293.04145
293.04539
293.04935
293.05328
293.05716
293.06095
293.06465
293.06823
293.07171
293.07507
293.07829
293.08138
293.08432
293.08708
293.08969
293.09211
293.09434
293.09637
293.0982
293.09982
293.10122
293.1024
293.10334
293.10404
293.10449
293.10469
293.10462
293.1043
293.10371
293.10286
293.10174
293.10037
293.09874
293.09686
293.09474
293.09238
293.08981
293.08703
293.08406
293.08091
293.0776
293.07416
293.07062
293.067
293.06333
293.05965
293.05598
293.05237
293.04886
293.04548
293.04229
293.03931
293.03661
293.03421
293.03214
293.03041
293.02903
293.02798
293.02724
293.02676
293.02652
293.02645
293.02652
293.02665
293.02682
293.02684
293.0361
293.02818
293.02047
293.01296
293.00564
292.99849
292.9915
292.98466
292.97796
292.97138
292.96491
292.95854
292.95226
292.94608
292.93999
292.93398
292.92806
292.92224
292.91653
292.91095
292.90552
292.90028
292.89526
292.89052
292.88613
292.88222
292.87888
292.87619
292.87442
292.87387
292.87492
292.87813
292.88435
292.89484
292.91147
292.93666
292.97044
293.00325
293.02298
293.03221
293.03737
293.04137
293.04513
293.04888
293.05266
293.05641
293.0601
293.06372
293.06725
293.07067
293.074
293.07722
293.08031
293.08327
293.08609
293.08875
293.09125
293.09357
293.09571
293.09767
293.09942
293.10098
293.10231
293.10343
293.10432
293.10497
293.10538
293.10554
293.10544
293.10509
293.10449
293.10362
293.10249
293.10112
293.09949
293.09762
293.09551
293.09317
293.09062
293.08787
293.08492
293.08181
293.07854
293.07514
293.07164
293.06806
293.06444
293.06081
293.0572
293.05364
293.05018
293.04686
293.04371
293.04079
293.03814
293.03579
293.03376
293.03209
293.03075
293.02975
293.02904
293.02861
293.02839
293.02835
293.02845
293.02859
293.02877
293.0288
293.05364
293.04503
293.03664
293.02845
293.02045
293.01264
293.005
292.99751
292.99018
292.98298
292.97592
292.96897
292.96215
292.95543
292.94883
292.94234
292.93597
292.92973
292.92363
292.91769
292.91193
292.9064
292.90115
292.89622
292.8917
292.88775
292.88443
292.88187
292.88038
292.88029
292.88206
292.88636
292.89419
292.90704
292.92706
292.95607
292.99049
293.01733
293.03097
293.03753
293.04175
293.04536
293.04889
293.05246
293.05604
293.0596
293.06311
293.06654
293.0699
293.07317
293.07634
293.07942
293.08238
293.08521
293.08791
293.09046
293.09286
293.09508
293.09713
293.099
293.10068
293.10216
293.10343
293.10449
293.10532
293.10592
293.10629
293.10641
293.10628
293.10591
293.10528
293.10439
293.10326
293.10188
293.10025
293.09839
293.09629
293.09397
293.09144
293.08871
293.0858
293.08272
293.07949
293.07613
293.07267
293.06914
293.06557
293.06198
293.05842
293.05492
293.05151
293.04824
293.04514
293.04228
293.03968
293.03737
293.0354
293.03377
293.03248
293.03152
293.03086
293.03046
293.03028
293.03027
293.03039
293.03054
293.03074
293.03077
293.07078
293.06155
293.05253
293.04372
293.0351
293.02666
293.01841
293.01032
293.00239
292.99461
292.98698
292.97949
292.97214
292.96491
292.95783
292.95088
292.94407
292.93742
292.93094
292.92466
292.9186
292.91281
292.90734
292.90225
292.89765
292.8937
292.89045
292.88809
292.88699
292.88751
292.8902
292.89586
292.90568
292.92144
292.94527
292.97725
293.00893
293.02856
293.03768
293.04253
293.04611
293.04942
293.05274
293.05611
293.0595
293.06287
293.06618
293.06944
293.07262
293.07573
293.07875
293.08168
293.0845
293.0872
293.08978
293.09221
293.0945
293.09663
293.09859
293.10037
293.10197
293.10338
293.10458
293.10557
293.10635
293.1069
293.10722
293.1073
293.10714
293.10674
293.10609
293.10519
293.10404
293.10266
293.10103
293.09917
293.09708
293.09478
293.09227
293.08957
293.08668
293.08363
293.08044
293.07712
293.07371
293.07022
293.0667
293.06316
293.05965
293.0562
293.05284
293.04962
293.04658
293.04377
293.04122
293.03897
293.03705
293.03546
293.03423
293.03331
293.03269
293.03233
293.03218
293.03219
293.03234
293.03251
293.03271
293.03275
293.08749
293.0777
293.06811
293.05872
293.04953
293.04052
293.0317
293.02304
293.01456
293.00624
292.99807
292.99006
292.9822
292.9745
292.96695
292.95956
292.95234
292.9453
292.93847
292.93187
292.92553
292.9195
292.91385
292.90865
292.90402
292.90012
292.89701
292.89496
292.89437
292.89567
292.89952
292.90688
292.9192
292.93841
292.96607
292.9987
293.02438
293.03749
293.0436
293.04736
293.0505
293.05355
293.05667
293.05984
293.06303
293.0662
293.06932
293.07239
293.0754
293.07834
293.0812
293.08399
293.08667
293.08924
293.0917
293.09402
293.0962
293.09822
293.10009
293.10178
293.1033
293.10463
293.10576
293.10669
293.10741
293.10791
293.10818
293.10822
293.10803
293.10759
293.10692
293.106
293.10484
293.10345
293.10182
293.09997
293.09789
293.0956
293.09311
293.09043
293.08758
293.08456
293.0814
293.07813
293.07475
293.07131
293.06784
293.06435
293.06089
293.05749
293.05418
293.05102
293.04803
293.04527
293.04277
293.04057
293.0387
293.03717
293.03597
293.0351
293.03452
293.0342
293.03409
293.03413
293.03429
293.03449
293.0347
293.03474
293.10374
293.09345
293.08335
293.07344
293.06372
293.05419
293.04483
293.03566
293.02665
293.01782
293.00916
293.00066
292.99233
292.98417
292.97618
292.96838
292.96077
292.95338
292.94622
292.93932
292.93273
292.92651
292.92071
292.91543
292.91085
292.90706
292.90417
292.90256
292.90265
292.90496
292.91028
292.9198
292.93516
292.95825
292.9887
293.01832
293.03654
293.04485
293.04908
293.05214
293.05494
293.05777
293.06068
293.06365
293.06663
293.0696
293.07253
293.07541
293.07824
293.08102
293.08372
293.08636
293.0889
293.09133
293.09366
293.09586
293.09793
293.09986
293.10162
293.10323
293.10466
293.10591
293.10698
293.10784
293.1085
293.10894
293.10917
293.10916
293.10893
293.10846
293.10776
293.10683
293.10566
293.10426
293.10263
293.10078
293.09871
293.09643
293.09396
293.09131
293.08848
293.0855
293.08238
293.07914
293.07581
293.07241
293.06898
293.06555
293.06214
293.05879
293.05553
293.05242
293.04949
293.04678
293.04433
293.04219
293.04036
293.03888
293.03773
293.03691
293.03637
293.03608
293.036
293.03608
293.03626
293.03648
293.0367
293.03675
293.11951
293.10876
293.09821
293.08783
293.07764
293.06762
293.05779
293.04813
293.03865
293.02934
293.02021
293.01126
293.00249
292.99391
292.98552
292.97733
292.96936
292.96164
292.95418
292.94703
292.94023
292.93385
292.92796
292.92267
292.91818
292.91459
292.91206
292.91104
292.91202
292.91562
292.92283
292.93503
292.95401
292.9808
293.01132
293.03447
293.04604
293.05126
293.05434
293.05694
293.05946
293.06207
293.06477
293.06753
293.0703
293.07307
293.0758
293.07848
293.08115
293.08375
293.08629
293.08878
293.09117
293.09348
293.09568
293.09776
293.09972
293.10153
293.1032
293.10472
293.10606
293.10723
293.10822
293.10902
293.10962
293.11001
293.11018
293.11013
293.10986
293.10936
293.10863
293.10768
293.10649
293.10508
293.10345
293.1016
293.09954
293.09728
293.09483
293.0922
293.0894
293.08645
293.08336
293.08016
293.07687
293.07352
293.07014
293.06675
293.06339
293.06009
293.05689
293.05383
293.05095
293.04829
293.0459
293.0438
293.04203
293.0406
293.0395
293.03872
293.03822
293.03797
293.03793
293.03803
293.03824
293.03848
293.03871
293.03876
293.13476
293.12363
293.11266
293.10187
293.09125
293.0808
293.07053
293.06043
293.05051
293.04077
293.03122
293.02185
293.01267
293.0037
292.99494
292.9864
292.97811
292.97009
292.96238
292.95501
292.94804
292.94155
292.93563
292.93041
292.92611
292.92281
292.9208
292.92058
292.92271
292.92799
292.93758
292.95307
292.97595
293.00493
293.03146
293.04692
293.0538
293.05716
293.05953
293.06178
293.06407
293.06645
293.06894
293.07148
293.07404
293.07659
293.07913
293.08162
293.08411
293.08654
293.08892
293.09126
293.0935
293.09567
293.09774
293.0997
293.10155
293.10326
293.10482
293.10624
293.1075
293.10859
293.10951
293.11023
293.11077
293.1111
293.11122
293.11112
293.11081
293.11028
293.10952
293.10855
293.10735
293.10593
293.10429
293.10244
293.10039
293.09814
293.09571
293.0931
293.09033
293.08741
293.08436
293.08119
293.07795
293.07464
293.0713
293.06796
293.06465
293.0614
293.05825
293.05524
293.05241
293.04981
293.04747
293.04543
293.04371
293.04232
293.04127
293.04053
293.04008
293.03987
293.03986
293.04
293.04023
293.04048
293.04072
293.04079
293.14949
293.13802
293.1267
293.11553
293.10454
293.0937
293.08304
293.07255
293.06223
293.0521
293.04216
293.03241
293.02286
293.01354
293.00444
292.99559
292.98702
292.97874
292.97081
292.96327
292.95619
292.94966
292.94378
292.93873
292.93473
292.93187
292.93057
292.93141
292.93506
292.94248
292.95505
292.97433
293.00048
293.02822
293.04749
293.05653
293.06055
293.06281
293.06471
293.0667
293.06875
293.07091
293.07318
293.07549
293.07784
293.08018
293.08252
293.08482
293.08713
293.0894
293.09161
293.09379
293.09589
293.09791
293.09986
293.10169
293.10342
293.10502
293.10649
293.10781
293.10898
293.10999
293.11083
293.11148
293.11195
293.11222
293.11228
293.11214
293.11179
293.11122
293.11044
293.10944
293.10822
293.10679
293.10515
293.1033
293.10126
293.09902
293.0966
293.09402
293.09127
293.08838
293.08536
293.08224
293.07903
293.07577
293.07248
293.06918
293.06592
293.06272
293.05962
293.05666
293.05389
293.05134
293.04905
293.04706
293.04539
293.04405
293.04305
293.04236
293.04195
293.04178
293.0418
293.04197
293.04223
293.0425
293.04275
293.04282
293.16368
293.15192
293.14029
293.12881
293.11748
293.1063
293.09529
293.08445
293.07378
293.0633
293.05301
293.04292
293.03305
293.02341
293.01402
293.0049
292.99609
292.98761
292.97951
292.97187
292.96474
292.95824
292.9525
292.94776
292.94417
292.94193
292.94162
292.94386
292.94946
292.95961
292.97576
292.99875
293.02575
293.04792
293.05955
293.06439
293.06678
293.06838
293.06995
293.07169
293.07351
293.07544
293.07749
293.07957
293.0817
293.08384
293.08597
293.08808
293.09021
293.09231
293.09435
293.09637
293.09833
293.10021
293.10202
293.10373
293.10534
293.10684
293.1082
293.10943
293.1105
293.11142
293.11218
293.11276
293.11316
293.11337
293.11338
293.11319
293.11279
293.11219
293.11137
293.11035
293.10912
293.10767
293.10603
293.10418
293.10214
293.09992
293.09751
293.09494
293.09222
293.08936
293.08638
293.08329
293.08012
293.0769
293.07366
293.07041
293.0672
293.06405
293.061
293.05809
293.05537
293.05287
293.05064
293.0487
293.04708
293.04579
293.04483
293.04419
293.04382
293.04369
293.04375
293.04394
293.04423
293.04452
293.04478
293.04487
293.17732
293.16531
293.15343
293.14167
293.13006
293.11859
293.10727
293.09612
293.08515
293.07436
293.06377
293.05339
293.04323
293.03333
293.02369
293.01435
293.00534
292.99671
292.98852
292.98083
292.97374
292.96738
292.96191
292.95762
292.9546
292.95325
292.95426
292.95833
292.96647
292.97997
292.99994
293.0251
293.04864
293.06287
293.06884
293.07131
293.07277
293.07394
293.07527
293.07675
293.07833
293.08004
293.08186
293.08372
293.08563
293.08755
293.08949
293.09141
293.09335
293.09528
293.09715
293.09901
293.10082
293.10256
293.10424
293.10583
293.10731
293.1087
293.10995
293.11108
293.11206
293.1129
293.11357
293.11408
293.11441
293.11455
293.11451
293.11427
293.11383
293.11318
293.11234
293.11129
293.11003
293.10858
293.10693
293.10508
293.10304
293.10083
293.09844
293.09589
293.09319
293.09036
293.08741
293.08436
293.08123
293.07805
293.07485
293.07165
293.06848
293.06538
293.06238
293.05953
293.05686
293.05441
293.05223
293.05034
293.04877
293.04753
293.04663
293.04603
293.0457
293.04561
293.0457
293.04593
293.04624
293.04655
293.04682
293.04692
293.1904
293.1782
293.1661
293.15412
293.14226
293.13054
293.11897
293.10756
293.09633
293.08528
293.07443
293.0638
293.05341
293.04328
293.03345
293.02395
293.01481
293.0061
292.99788
292.99024
292.98329
292.97718
292.97218
292.96848
292.96627
292.96618
292.96894
292.97539
292.98669
293.00396
293.02684
293.05041
293.06659
293.07388
293.07661
293.07784
293.07866
293.07958
293.08065
293.08185
293.08322
293.08472
293.08629
293.08792
293.08961
293.09132
293.09306
293.09479
293.09655
293.09831
293.10001
293.10171
293.10337
293.10496
293.10651
293.10797
293.10933
293.1106
293.11175
293.11278
293.11366
293.11441
293.115
293.11543
293.11569
293.11577
293.11567
293.11537
293.11489
293.1142
293.11333
293.11225
293.11098
293.10951
293.10785
293.106
293.10396
293.10175
293.09938
293.09685
293.09417
293.09137
293.08845
293.08543
293.08234
293.07921
293.07605
293.07289
293.06977
293.06672
293.06377
293.06097
293.05835
293.05595
293.05382
293.05199
293.05047
293.04928
293.04842
293.04787
293.04759
293.04753
293.04766
293.04792
293.04825
293.04859
293.04887
293.04898
293.20292
293.19056
293.17829
293.16613
293.15408
293.14216
293.13038
293.11876
293.10731
293.09605
293.08499
293.07416
293.06359
293.0533
293.04333
293.03373
293.02454
293.01583
293.00768
293.0002
292.99352
292.98785
292.98347
292.98058
292.97956
292.98117
292.98621
292.99568
293.01065
293.03119
293.05386
293.07116
293.07958
293.08257
293.08363
293.08418
293.08463
293.08529
293.08607
293.08701
293.08816
293.08946
293.09077
293.09217
293.09364
293.09515
293.09669
293.09823
293.0998
293.10139
293.10293
293.10446
293.10597
293.10741
293.10883
293.11016
293.1114
293.11255
293.11359
293.11452
293.11531
293.11596
293.11647
293.11682
293.11701
293.11702
293.11686
293.11651
293.11598
293.11526
293.11434
293.11324
293.11194
293.11046
293.10879
293.10693
293.1049
293.1027
293.10034
293.09783
293.09517
293.09239
293.0895
293.08652
293.08347
293.08037
293.07726
293.07415
293.07107
293.06807
293.06517
293.06242
293.05985
293.05751
293.05543
293.05364
293.05218
293.05104
293.05022
293.04972
293.04948
293.04946
293.04963
293.04991
293.05027
293.05063
293.05092
293.05104
293.21487
293.20241
293.19002
293.17772
293.16552
293.15344
293.1415
293.12971
293.1181
293.10667
293.09546
293.0845
293.0738
293.06341
293.05338
293.04375
293.03459
293.02598
293.01801
293.01082
293.0046
292.99959
292.99608
292.99431
292.99494
292.99881
293.00677
293.0198
293.03818
293.0594
293.07695
293.08615
293.08934
293.09017
293.09039
293.09043
293.09059
293.09099
293.09157
293.09227
293.09317
293.09422
293.09528
293.09648
293.09773
293.09903
293.10037
293.10172
293.10312
293.10453
293.1059
293.10727
293.10862
293.10992
293.1112
293.1124
293.11352
293.11456
293.11548
293.1163
293.117
293.11756
293.11798
293.11825
293.11836
293.11831
293.11809
293.11768
293.1171
293.11634
293.11539
293.11426
293.11294
293.11144
293.10976
293.1079
293.10586
293.10367
293.10132
293.09882
293.09619
293.09344
293.09058
293.08763
293.08461
293.08155
293.07848
293.07541
293.07238
293.06943
293.06658
293.06387
293.06135
293.05906
293.05704
293.0553
293.05389
293.0528
293.05203
293.05157
293.05137
293.0514
293.05159
293.05191
293.0523
293.05267
293.05298
293.05312
293.22627
293.21374
293.20126
293.18887
293.17658
293.16439
293.15234
293.14044
293.12871
293.11718
293.10587
293.09483
293.08408
293.07367
293.06365
293.05409
293.04507
293.03667
293.02903
293.02232
293.01678
293.01274
293.01037
293.01018
293.01306
293.01982
293.03125
293.04771
293.06726
293.08429
293.09375
293.09698
293.09753
293.09734
293.09694
293.09667
293.0966
293.09675
293.09709
293.09758
293.09826
293.09901
293.09986
293.10084
293.10186
293.10297
293.10411
293.10528
293.10649
293.10772
293.10893
293.11013
293.11132
293.11248
293.11363
293.1147
293.11568
293.11661
293.11742
293.11813
293.11873
293.1192
293.11953
293.11972
293.11975
293.11963
293.11935
293.11889
293.11826
293.11745
293.11647
293.1153
293.11396
293.11244
293.11075
293.10888
293.10685
293.10466
293.10232
293.09984
293.09722
293.09449
293.09166
293.08875
293.08577
293.08275
293.07971
293.07669
293.0737
293.07079
293.06799
293.06534
293.06287
293.06063
293.05865
293.05697
293.0556
293.05456
293.05384
293.05342
293.05327
293.05333
293.05357
293.05392
293.05433
293.05473
293.05504
293.0552
293.23711
293.22456
293.21205
293.19961
293.18726
293.17502
293.16291
293.15095
293.13917
293.12759
293.11626
293.10521
293.09448
293.08414
293.07424
293.06486
293.05611
293.04809
293.04096
293.03496
293.03046
293.02767
293.02687
293.02892