/*--------------------------------*- C++ -*----------------------------------*\
| =========                 |                                                 |
| \\      /  F ield         | OpenFOAM: The Open Source CFD Toolbox           |
|  \\    /   O peration     | Version:  2406                                  |
|   \\  /    A nd           | Website:  www.openfoam.com                      |
|    \\/     M anipulation  |                                                 |
\*---------------------------------------------------------------------------*/
FoamFile
{
    version     2.0;
    format      ascii;
    arch        "LSB;label=32;scalar=64";
    class       volScalarField;
    location    "0.05";
    object      k;
}
// * * * * * * * * * * * * * * * * * * * * * * * * * * * * * * * * * * * * * //

dimensions      [0 2 -2 0 0 0 0];

internalField   nonuniform List<scalar> 
2065
(
966.99386
936.6681
895.5942
845.89964
789.09923
726.73693
660.79267
593.4765
527.0373
463.3594
403.83867
349.47978
300.73717
257.66628
220.01888
187.35096
159.13268
134.82316
113.91831
95.970412
80.592087
67.451164
56.256535
46.746484
38.679443
31.827078
25.968916
20.908363
16.459874
12.454432
8.9167445
940.3056
906.56293
864.05681
814.73504
759.62252
699.91566
637.22141
573.40746
510.40768
449.90719
393.20147
341.2181
294.41732
252.88848
216.43716
184.67931
157.1447
133.34458
112.81739
95.149053
79.977984
66.990988
55.911103
46.486848
38.484017
31.680207
25.858705
20.825197
16.395389
12.400259
8.8666103
903.30441
868.58649
826.50377
778.67918
726.01455
669.54456
610.60068
550.74191
491.60292
434.67122
381.13038
331.82487
287.21629
247.43568
212.34442
181.62369
154.86943
131.65145
111.55631
94.208047
79.274367
66.46376
55.515397
46.189506
38.260346
31.512195
25.732807
20.730478
16.32229
12.339272
8.811392
855.01481
821.02124
781.01222
736.13816
687.10752
634.81118
580.37034
525.0904
470.35174
417.45521
367.47263
321.18299
279.04448
241.23492
207.68255
178.13845
152.27133
129.71636
110.11411
93.131419
78.469121
65.860317
55.062495
45.849224
38.004449
31.320043
25.588877
20.622291
16.238937
12.269945
8.7449146
796.50802
764.72936
728.02667
687.24579
642.87614
595.62645
546.41659
496.32938
446.5255
398.1303
352.10591
309.17728
269.80355
234.20405
202.38196
174.16736
149.30592
127.50465
108.46407
91.898798
77.546796
65.168992
54.543614
45.459406
37.711383
31.100049
25.424173
20.498605
16.143831
12.191132
8.6694606
729.37022
700.98593
668.53268
632.6789
593.73693
552.2235
508.85143
464.49028
420.09827
376.63328
334.94825
295.71736
259.40356
226.2642
196.37358
169.65175
145.92549
124.97838
106.57658
90.487318
76.489906
64.376495
53.948697
45.012467
37.375459
30.847951
25.235525
20.357086
16.035256
12.101546
8.5846416
655.77616
631.58191
604.01086
573.60896
540.5605
505.21043
468.07336
429.81269
391.19116
353.0015
315.98326
280.75502
247.7774
217.34376
189.59252
164.53284
142.07976
122.0963
104.41864
88.87111
75.278433
63.467485
53.266074
44.499576
36.990025
30.558768
25.019223
20.195
15.91122
11.999726
8.4893423
578.48009
558.84916
536.43436
511.66979
484.64939
455.57933
424.80136
392.7886
360.11563
327.40962
295.28835
264.30245
234.89657
207.39029
181.98024
158.75504
137.71745
118.81439
101.95402
87.021167
73.889626
62.424365
52.482269
43.91049
36.547348
30.226691
24.770938
20.009168
15.769424
11.884027
8.3823063
500.56568
485.44989
468.09386
448.80634
427.61584
404.62608
380.03822
354.15922
327.38932
300.19319
273.05872
246.45284
220.78538
196.38537
173.4939
152.2683
132.78979
115.08741
99.143829
84.905505
72.297921
61.227098
51.581798
43.233359
36.038437
29.844942
24.485606
19.795867
15.607201
11.752595
8.2621109
424.97351
413.99659
401.29267
387.0366
371.20093
353.81839
334.98336
314.86715
293.71825
271.85045
249.62005
227.39705
205.53653
184.35535
164.11872
145.03518
127.25266
110.87185
95.947717
82.48961
70.475013
59.853095
50.546981
42.454531
35.452862
29.405617
24.157301
19.550744
15.421456
11.603344
8.1271585
354.40201
346.92953
338.21663
328.31011
317.13683
304.6713
290.92953
275.97975
259.94819
243.01832
225.42283
207.42924
189.32176
171.38261
153.87674
137.04068
121.07189
106.12816
92.326234
79.737405
68.390219
58.277267
49.357839
41.55839
34.778575
28.899522
23.77909
19.268694
15.208594
11.433928
7.975661
291.10594
286.41144
280.86489
274.43832
267.05136
258.63569
249.15175
238.59201
226.98898
214.42098
201.01352
186.93575
172.39238
157.61219
142.83539
128.30062
114.231
100.82401
88.243365
76.613253
66.011327
56.472366
47.99215
40.527261
34.001762
28.316002
23.342879
18.943733
14.964425
11.241711
7.8056441
236.53313
233.85812
230.62569
226.78294
222.24559
216.93056
210.76919
203.70703
195.71368
186.79115
176.98005
166.36304
155.06505
143.24964
131.1118
118.86734
106.73895
94.94158
83.669139
73.084274
63.306333
54.40977
46.425759
39.341463
33.106758
27.642801
22.839249
18.56885
14.684057
11.023723
7.6150114
191.03564
189.69904
188.01666
185.93147
183.36819
180.24959
176.49709
172.03647
166.80417
160.75508
153.87029
146.1644
137.69134
128.54741
118.87033
108.83356
98.635512
88.485089
78.586134
69.123011
60.245466
52.061105
44.633313
37.979612
32.076097
26.865977
22.25732
18.135848
14.361765
10.776596
7.4020325
153.91004
153.37649
152.64177
151.6556
150.35748
148.68137
146.5546
143.90405
140.65694
136.74612
132.11825
126.74226
120.61764
113.78149
106.31269
98.331781
89.995472
81.485867
72.99596
64.713585
56.804513
49.399988
42.589774
36.419321
30.890805
25.969951
21.584654
17.635197
13.990837
10.496473
7.1648576
123.79075
123.69525
123.49126
123.14003
122.59735
121.81068
120.72032
119.26147
117.36649
114.96657
111.99624
108.40096
104.14579
99.223582
93.662163
87.528778
80.93023
74.007565
66.925476
59.857703
52.970152
46.405515
40.272204
34.638606
29.531087
24.937791
20.807294
17.055915
13.563395
10.178853
6.9019291
99.096266
99.225553
99.302587
99.300116
99.188842
98.929056
98.476295
97.777375
96.774271
95.406253
93.611122
91.329358
88.510162
85.119365
81.147567
76.617057
71.58623
66.149673
60.432794
54.581135
48.745723
43.067367
37.663207
32.617698
27.977573
23.751906
19.910007
16.385549
13.070211
9.8183678
6.6119629
78.52053
78.758294
78.977898
79.161065
79.287659
79.332557
79.264295
79.042986
78.621176
77.948757
76.97176
75.635718
73.888613
71.685333
68.994636
65.806964
62.141181
58.048481
53.611815
48.940143
44.157876
39.391428
34.755622
30.342467
26.213315
22.395179
18.87696
15.610347
12.500565
9.4084661
6.293549
61.223817
61.505678
61.789668
62.063928
62.315632
62.528391
62.681495
62.748302
62.696402
62.485292
62.068334
61.399881
60.431888
59.119765
57.425056
55.320773
52.798543
49.874933
46.59407
43.026416
39.263044
35.40627
31.558142
27.808855
24.227034
20.853038
17.692857
14.71582
11.842231
8.9410321
5.9442658
46.72964
47.016782
47.31746
47.624377
47.929881
48.223766
48.492606
48.719317
48.882305
48.954349
48.902802
48.688409
48.268346
47.602178
46.651577
45.384295
43.778682
41.828237
39.546372
36.968779
34.152106
31.169273
28.101524
25.028355
22.017538
19.116652
16.344978
13.687906
11.081797
8.4060419
5.5596408
34.753268
35.019875
35.305321
35.605524
35.916448
36.23236
36.545256
36.844349
37.115637
37.341693
37.500782
37.565701
37.504979
37.28246
36.862286
36.212294
35.305704
34.124642
32.663041
30.929762
28.951165
26.77055
24.444159
22.033943
19.599081
17.187437
14.826545
12.515059
10.205669
7.7914612
5.1330631
25.089776
25.32049
25.571035
25.839448
26.124028
26.42202
26.729213
27.039543
27.344696
27.633695
27.892591
28.10437
28.247523
28.297203
28.224524
27.998814
27.592566
26.982164
26.152057
25.095317
23.816127
22.33231
20.675085
18.885167
17.007165
15.082641
13.141492
11.19189
9.2023649
7.0839314
4.6587199
17.499008
17.687578
17.894369
18.118722
18.360308
18.618198
18.890581
19.1745
19.46556
19.757596
20.042332
20.309116
20.544885
20.733536
20.855383
20.887968
20.806686
20.586863
20.207684
19.654213
18.918722
18.001356
16.912063
15.670361
14.303285
12.841172
11.310643
9.7249297
8.0669671
6.2709673
4.1421455
11.701416
11.847563
12.008967
12.185692
12.378116
12.586312
12.809877
13.047759
13.298071
13.557857
13.822838
14.087115
14.342885
14.58024
14.787277
14.949388
15.048656
15.065555
14.979748
14.771183
14.425989
13.934637
13.293124
12.503638
11.576347
10.528174
9.3782464
8.1403138
6.80899
5.3460222
3.6004612
7.4255351
7.5330608
7.6524282
7.7840258
7.9284938
8.0863437
8.2578602
8.4430022
8.6412911
8.8516704
9.0723365
9.3005411
9.5323641
9.7624643
9.9838449
10.187699
10.363395
10.496822
10.572423
10.572538
10.480938
10.280889
9.9615102
9.5147455
8.9379533
8.2352983
7.4163619
6.4917204
5.4637318
4.3206747
3.0255409
4.3851354
4.4604216
4.5442831
4.6372238
4.7399
4.8529365
4.9768744
5.1121206
5.2588866
5.41711
5.586352
5.7656717
5.9534703
6.1473
6.3436338
6.5376189
6.7229036
6.8915488
7.0327219
7.1340161
7.1799916
7.1547823
7.0425462
6.8302773
6.5089257
6.0728796
5.5225722
4.8635848
4.1025038
3.2428342
2.3988773
2.3417993
2.3882764
2.4405307
2.499096
2.5645819
2.6376162
2.7188181
2.8087742
2.9080062
3.0169267
3.1357907
3.2646173
3.4030846
3.5503866
3.70503
3.8645382
4.0250241
4.1814529
4.3280887
4.4569456
4.5570627
4.6157178
4.6182906
4.5496834
4.3977045
4.1518346
3.8060617
3.3616625
2.8280477
2.227385
1.585196
1.175056
1.1976073
1.2232076
1.252187
1.2849589
1.3219763
1.363722
1.4106946
1.4633835
1.5222832
1.5879487
1.6608908
1.7415252
1.8301007
1.9266153
2.0307216
2.1416594
2.2575009
2.3743325
2.4868588
2.5883918
2.6694151
2.7196496
2.7271881
2.6772003
2.5587011
2.3635188
2.0906376
1.7457448
1.3608652
1.1120536
0.64185091
0.64958272
0.65845393
0.66860753
0.68024197
0.69359311
0.70894308
0.72663251
0.74708258
0.77076442
0.79810491
0.82954503
0.86551503
0.90639214
0.95243472
1.0036838
1.0598219
1.1199706
1.1824494
1.2446151
1.302934
1.353247
1.3896472
1.40737
1.3957155
1.3487721
1.2627757
1.1408293
0.99059789
0.83804475
0.80162644
0.46555737
0.46778086
0.47035995
0.47333847
0.47678391
0.48077557
0.48540623
0.49078385
0.49703237
0.50429092
0.51271053
0.52245013
0.53366951
0.54651767
0.56111289
0.57750967
0.59564618
0.61526757
0.6358287
0.65639868
0.67562477
0.69190951
0.70322552
0.70965015
0.70510811
0.6887614
0.66172091
0.62438547
0.58087822
0.57260635
0.5454847
0.41266202
0.41320235
0.41384147
0.41458914
0.41546417
0.41648801
0.41768473
0.41908092
0.42070415
0.4225816
0.42473821
0.42719494
0.42996734
0.43306458
0.43648825
0.4402296
0.44426269
0.44853023
0.45292056
0.45724043
0.46119084
0.46434195
0.46596035
0.46527401
0.46286594
0.45987362
0.45433913
0.44677089
0.43714683
0.44579559
0.42197006
436.65444
527.98074
612.56747
675.8575
713.56722
726.43833
717.22389
687.86536
641.41205
585.49409
524.01452
460.80657
399.09428
341.36524
289.10956
243.04295
203.21098
169.24068
140.54654
116.45648
96.307628
79.494993
65.48737
53.824802
44.110217
35.996113
29.181806
23.415163
18.490298
14.237374
10.553873
564.2951
641.35246
696.13794
729.92897
743.19598
737.99549
717.73322
678.59683
627.7301
569.68744
507.98194
445.87268
386.05213
330.47081
280.32837
236.16937
197.94309
165.27097
137.59192
114.27901
94.715391
78.338298
64.651861
53.224587
43.681177
35.690629
28.964374
23.260082
18.377659
14.151991
10.481663
631.7596
691.0277
732.0031
753.6112
756.52206
742.83105
712.00631
667.47653
613.77932
554.56449
493.08327
432.18517
374.12874
320.50137
272.27799
229.84716
193.07596
161.58473
134.83423
112.23595
93.213419
77.241236
63.855096
52.649066
43.267526
35.394482
28.752338
23.107932
18.266443
14.066965
10.411627
690.78225
736.88015
764.13343
772.84701
765.86577
742.91081
704.7337
656.08814
600.24643
540.34249
479.32559
419.65044
363.22996
311.39106
264.91772
224.04493
188.59035
158.17153
132.26852
110.32563
91.801883
76.204877
63.098459
52.099602
42.870441
35.108591
28.546449
22.959254
18.156901
13.982259
10.342724
736.27267
770.50053
786.42606
785.74631
770.22962
739.2442
696.29569
644.64387
587.27643
527.06726
466.65726
408.17682
353.28505
303.0864
258.20712
218.73196
184.46685
155.01982
129.88833
108.54481
90.479424
75.228908
62.382149
51.576598
42.490363
34.833356
28.347046
22.814294
18.049205
13.897985
10.275029
772.2282
796.32044
802.77469
794.94362
771.1825
734.35813
687.52761
633.50752
575.04907
514.77854
455.03146
397.7114
344.23954
295.54686
252.10048
213.88057
180.68747
152.11874
127.68751
106.89035
89.244699
74.312989
61.706328
51.08042
42.127699
34.569155
28.154445
22.673295
17.94352
13.814255
10.211158
800.83405
816.32842
815.12038
799.96707
769.89274
728.64333
678.76084
622.9118
563.66776
503.47921
444.43115
388.2138
336.05218
288.73281
246.55733
209.46627
177.2359
149.45831
125.66031
105.35921
88.096353
73.456713
61.07107
50.611352
41.782794
34.316313
27.968928
22.536472
17.840003
13.731207
10.141285
824.01533
832.12896
824.93424
802.51343
767.57857
722.69014
670.30852
612.994
553.20577
493.19326
434.84105
379.65187
328.69586
282.6041
241.54957
205.46725
174.09734
147.02933
123.80131
103.94849
87.033015
72.659603
60.476372
50.169606
41.455929
34.075113
27.790746
22.40402
17.738797
13.648899
10.073067
842.69918
844.48186
831.70348
803.79143
764.81219
716.84619
662.37998
603.89546
543.72473
483.93368
426.24525
372.00709
322.13632
277.11497
237.05102
201.86354
171.25845
144.82335
122.10547
102.65541
86.053333
71.921144
59.922171
49.755337
41.147341
33.845797
27.620117
22.27611
17.640035
13.567457
9.9990481
858.22272
854.80683
836.49236
804.45694
761.97398
711.37299
655.15574
595.71979
535.26524
475.71263
418.64548
365.26427
316.33331
272.22584
233.03747
198.63722
168.70722
142.83266
120.56815
101.47738
85.156003
71.240806
59.408364
49.36865
40.857218
33.628571
27.457225
22.152893
17.543838
13.486951
9.9253219
871.67485
863.63761
840.47462
804.88376
759.31966
706.45442
648.76872
588.55317
527.8869
468.56858
412.05099
359.39342
311.23723
267.91468
229.48735
195.77265
166.43299
141.05034
119.18511
100.41197
84.339786
70.618057
58.934814
49.00961
40.585709
33.423604
27.302225
22.034499
17.450317
13.407482
9.853158
883.87765
871.53499
844.38089
805.46766
757.17709
702.35697
643.42328
582.54189
521.68746
462.53453
406.43967
354.32894
306.80587
264.15786
226.38158
193.25621
164.42637
139.47025
117.95254
99.457011
83.603529
70.052377
58.501362
48.678248
40.332927
33.231035
27.15524
21.921041
17.35957
13.329141
9.7825343
895.84478
879.41967
848.77683
806.71025
756.13411
699.56443
639.44196
577.86002
516.70402
457.58777
401.7283
350.02053
303.02143
260.93483
223.70421
191.07623
162.67923
138.08699
116.8671
98.610524
82.946176
69.543272
58.107841
48.374564
40.098955
33.05097
27.01637
21.812614
17.271681
13.252008
9.7134232
908.63503
887.72661
853.65157
808.92457
756.39777
698.2862
636.91863
574.50308
512.87714
453.61332
397.85604
346.45462
299.86521
258.22893
221.4421
189.22294
161.18464
136.89595
115.92586
97.870788
82.366784
69.090284
57.754076
48.09854
39.883845
32.883489
26.885692
21.709291
17.186723
13.176152
9.6457902
915.99817
893.20726
857.58819
811.30125
757.15727
697.70945
635.27573
572.08764
509.9979
450.52024
394.81282
343.61381
297.32232
256.02718
219.58472
187.68834
159.93691
135.89329
115.1264
97.236335
81.864534
68.693003
57.439897
47.850138
39.687626
32.728645
26.763261
21.611132
17.104758
13.101633
9.5794496
921.09672
896.84341
859.8551
812.72469
757.65784
697.27624
634.13147
570.39476
507.95343
448.30944
392.584
341.48675
295.38216
254.31992
218.12408
186.46627
158.93156
135.07595
114.46672
96.705958
81.438736
68.351066
57.165141
47.629308
39.510301
32.586464
26.649109
21.518175
17.025831
13.028536
9.5078218
928.22298
901.37484
862.45248
814.11453
758.32565
697.4376
633.79665
569.62099
506.84668
446.99565
391.16995
340.06867
294.03835
253.1009
217.05474
185.55238
158.16534
134.44164
113.94534
96.27872
81.088841
68.064173
56.929658
47.435986
39.351854
32.456952
26.543247
21.430443
16.949977
12.956885
9.4387398
935.51201
906.74539
866.21482
816.49764
759.87539
698.43189
634.37017
569.83736
506.7383
446.60619
390.58005
339.36071
293.28903
252.36735
216.37385
184.94412
157.63621
133.98889
113.56124
95.953963
80.81444
67.832082
56.733313
47.270101
39.212249
32.340088
26.445668
21.347937
16.877223
12.886723
9.3711187
942.62583
912.49724
870.86984
820.19264
762.67072
700.52675
635.95488
571.00998
507.54502
447.09226
390.79622
339.36702
293.13692
252.12012
216.08121
184.64084
157.34342
133.71703
113.3139
95.731307
80.615274
67.654616
56.575988
47.131575
39.091428
32.235831
26.356339
21.270645
16.807583
12.818083
9.3036054
949.475
918.426
876.16555
824.98615
766.93753
704.23744
639.09893
573.58626
509.57502
448.61406
391.87071
340.07403
293.56213
252.34306
216.17135
184.6433
157.28747
133.62621
113.20329
95.610663
80.491231
67.531665
56.45758
47.02032
38.989316
32.144118
26.27521
21.198533
16.741054
12.751089
9.2311305
955.91829
924.35813
881.91157
830.64724
772.40576
709.33999
643.661
577.51353
512.83799
451.2266
393.88417
341.57221
294.63837
253.08755
216.66534
184.95546
157.47013
133.7154
113.22869
95.592198
80.44235
67.463182
56.378004
46.93624
38.905813
32.064859
26.202205
21.13155
16.677613
12.685671
9.1622372
961.64609
930.07371
887.91249
836.988
778.90294
715.6537
649.51952
582.72849
517.30616
454.91955
396.82757
343.85024
296.3531
254.34497
217.56474
185.58297
157.8952
133.9908
113.39358
95.676461
80.467917
67.449167
56.337191
46.879229
38.840797
31.997943
26.137229
21.069625
16.617226
12.621833
9.0947353
966.41323
935.22692
893.7897
843.5993
786.05159
722.98879
656.66027
589.26994
523.02638
459.74017
400.74333
346.94211
298.73206
256.13335
218.88156
186.53367
158.56728
134.45299
113.69835
95.864301
80.570129
67.489446
56.335069
46.849164
38.794117
31.94323
26.080158
21.012666
16.559842
12.559565
9.0285431
970.08725
939.49165
898.92016
849.57796
792.75629
730.10282
663.74995
595.97966
529.10629
465.03237
405.16878
350.52666
301.55625
258.30568
220.51849
187.74406
159.4455
135.07606
114.12695
96.146141
80.742676
67.581888
56.370613
46.845907
38.765602
31.900562
26.030854
20.960567
16.505397
12.498841
8.9637025
421.91741
511.27859
592.71943
656.51141
696.79238
713.43389
708.97218
683.93715
641.16147
587.7069
527.80818
465.41244
404.01463
346.08316
293.30893
246.58155
206.08034
171.5018
142.29181
117.78325
97.305443
80.239073
66.038202
54.231219
44.409599
36.216842
29.345674
23.538209
18.585429
14.314598
10.62077
419.77346
506.61546
583.93804
645.0521
684.23964
701.01529
698.03547
675.22868
635.72638
584.10318
525.64263
464.39042
403.8063
346.43784
293.97304
247.3516
206.83419
172.17749
142.86479
118.25256
97.68198
80.53674
66.271431
54.412892
44.55064
36.326324
29.431342
23.606237
18.641544
14.363632
10.66596
417.54897
500.90825
574.23463
632.76332
671.00905
688.00806
686.48607
665.68395
628.54922
579.27656
522.73853
462.96916
403.42158
346.70898
294.60183
248.11902
207.60334
172.87581
143.46186
118.74386
98.077935
80.850705
66.517992
54.605293
44.700234
36.442612
29.52249
23.678738
18.701432
14.415892
10.711401
414.94177
494.24677
563.8622
619.83131
657.19768
674.44158
674.32222
655.56479
620.84124
573.97785
519.46843
461.28674
402.86899
346.88271
295.18623
248.87735
208.38329
173.59423
144.08196
119.25747
98.493601
81.181387
66.778323
54.808836
44.858751
36.566029
29.619395
23.755963
18.765315
14.471554
10.756559
412.05672
486.92913
552.88825
606.33065
642.81045
660.3939
661.5542
644.86841
612.59094
568.19237
515.81168
459.32297
402.12962
346.94352
295.7159
249.6195
209.16989
174.33065
144.72426
119.79384
98.9292
81.529192
67.052875
55.023952
45.02658
36.696918
29.722358
23.838182
408.88211
479.10357
541.42283
592.36454
627.94597
645.89408
648.23696
633.61596
603.80248
561.91364
511.75122
279.19254
295.30492
307.02087
315.18762
321.00852
156.66175
242.07387
1007.1856
1002.9233
91.562494
168.93603
270.22237
350.93234
87.589549
156.82673
277.50948
385.21816
470.71401
95.523716
126.41659
247.09992
377.33221
480.71304
559.07538
118.60895
169.57281
326.60513
458.89043
558.3067
630.57922
140.90004
211.41512
394.6728
526.76473
621.41364
686.90514
162.27709
254.78081
454.54169
585.26739
673.41785
732.18113
176.25357
297.52483
503.86472
632.00359
715.81743
768.60033
191.70519
339.67836
550.73265
674.91072
752.59108
798.87513
206.09552
380.16946
590.52603
710.17446
782.88193
823.72436
219.77249
418.98673
626.56253
741.54369
809.16566
844.80654
231.47557
456.04441
658.00097
769.15178
832.21669
863.19113
240.54617
487.05308
685.82745
794.03001
853.21923
879.90636
247.7935
512.72598
710.10192
817.12265
873.15004
895.98427
253.85582
530.77166
731.63729
839.48081
893.20321
912.63984
259.4639
544.78247
745.2711
852.62902
904.81843
922.37111
266.12318
574.02322
768.6584
868.91356
915.48317
929.56086
271.45021
588.54806
785.88297
885.17203
928.72432
939.80411
276.40346
610.06108
804.11558
900.02006
940.57475
949.3511
280.17309
625.01861
819.04583
913.03559
951.33746
958.28061
283.41029
641.77412
834.03425
925.42707
961.39246
966.65087
285.87542
655.4262
847.34733
936.64043
970.59423
974.32043
287.56545
668.61632
860.25988
947.43495
979.33865
981.32896
679.79763
872.2092
958.02126
987.84982
987.73455
882.81816
968.1373
996.69668
993.99893
982.30048
956.74972
919.39363
869.85465
809.15725
739.20979
662.57755
582.39804
502.00686
424.47194
352.58682
288.58618
225.55086
233.81569
181.94689
188.46179
146.64675
151.65741
118.0763
121.89997
94.60228
97.537621
74.97222
77.243987
58.426853
60.185892
44.549219
45.897643
33.089276
34.102156
23.853548
24.594742
16.606166
17.133719
11.07683
11.440698
7.0041105
7.246248
4.1118398
4.2666651
2.1843332
2.2720506
1.1023386
1.1421313
0.61787543
0.63070153
0.45909523
0.46247258
0.41119224
0.41192913
)
;

boundaryField
{
    Side1
    {
        type            empty;
    }
    Inlet
    {
        type            inletOutlet;
        inletValue      uniform 0.39740317;
        value           nonuniform List<scalar> 
92
(
8.9167445
0.39740317
8.811392
0.39740317
0.39740317
0.39740317
0.39740317
0.39740317
0.39740317
0.39740317
0.39740317
0.39740317
0.39740317
0.39740317
0.39740317
0.39740317
0.39740317
0.39740317
0.39740317
0.39740317
0.39740317
0.39740317
0.39740317
0.39740317
0.39740317
2.3988773
0.39740317
1.1120536
0.80162644
0.39740317
0.39740317
0.39740317
0.39740317
0.39740317
0.39740317
0.39740317
0.39740317
0.39740317
0.39740317
0.39740317
0.39740317
0.39740317
0.39740317
0.39740317
0.39740317
0.39740317
0.39740317
0.39740317
0.39740317
0.39740317
0.39740317
0.39740317
0.39740317
0.39740317
0.39740317
0.39740317
0.39740317
0.39740317
0.39740317
0.39740317
0.39740317
0.39740317
0.39740317
0.39740317
0.39740317
0.39740317
0.39740317
10.211158
0.39740317
10.073067
0.39740317
0.39740317
0.39740317
0.39740317
0.39740317
0.39740317
9.5794496
0.39740317
0.39740317
0.39740317
9.3036054
0.39740317
0.39740317
0.39740317
0.39740317
0.39740317
10.62077
10.66596
10.711401
10.756559
0.39740317
0.39740317
)
;
    }
    Side2
    {
        type            empty;
    }
    Outlet
    {
        type            zeroGradient;
    }
    Botwall
    {
        type            kqRWallFunction;
        value           nonuniform List<scalar> 0();
    }
    Cyli
    {
        type            kqRWallFunction;
        value           nonuniform List<scalar> 
20
(
95.523716
118.60895
140.90004
162.27709
176.25357
191.70519
206.09552
219.77249
231.47557
240.54617
247.7935
253.85582
259.4639
266.12318
271.45021
276.40346
280.17309
283.41029
285.87542
287.56545
)
;
    }
    procBoundary2to0
    {
        type            processor;
        value           nonuniform List<scalar> 
55
(
168.56156
182.37757
196.38834
209.50853
221.59065
68.739372
148.60911
40.645742
88.230204
88.230204
891.8443
977.82005
977.82005
1015.7285
1012.3388
50.513662
50.513662
66.781591
66.781591
288.35735
288.35735
689.18396
689.18396
990.6921
961.9837
920.73741
867.02151
802.40698
729.27377
650.45708
569.14208
488.50915
411.51379
340.8339
278.48952
278.48952
217.86474
175.88077
141.96365
114.47935
91.81878
72.801123
56.734736
43.245455
32.105881
23.131083
16.089857
10.719238
6.7651483
3.9584299
2.0978503
1.0634744
0.60556727
0.4558842
0.41050868
)
;
    }
    procBoundary2to3
    {
        type            processor;
        value           nonuniform List<scalar> 
35
(
18.833339
14.531015
10.803027
457.05459
401.18229
346.88516
296.17929
250.33756
209.95835
175.08229
145.38702
120.3514
99.383533
81.893015
67.340611
55.249753
45.203035
36.834835
29.831049
18.833339
23.925217
405.54792
325.33836
471.07223
529.72843
578.14808
612.76674
631.01888
634.44431
621.8409
594.48433
555.13496
457.05459
507.26772
325.33836
)
;
    }
}


// ************************************************************************* //
