/*--------------------------------*- C++ -*----------------------------------*\
| =========                 |                                                 |
| \\      /  F ield         | OpenFOAM: The Open Source CFD Toolbox           |
|  \\    /   O peration     | Version:  2406                                  |
|   \\  /    A nd           | Website:  www.openfoam.com                      |
|    \\/     M anipulation  |                                                 |
\*---------------------------------------------------------------------------*/
FoamFile
{
    version     2.0;
    format      ascii;
    arch        "LSB;label=32;scalar=64";
    class       volScalarField;
    location    "0.05";
    object      p;
}
// * * * * * * * * * * * * * * * * * * * * * * * * * * * * * * * * * * * * * //

dimensions      [1 -1 -2 0 0 0 0];

internalField   nonuniform List<scalar> 
2065
(
102526.09
102356.69
102226.89
102075.82
101926.85
101795.05
101685.39
101597.28
101536.99
101496.34
101469.58
101460.18
101462.1
101471.41
101486.84
101504.91
101524.14
101542.99
101560.77
101576.35
101589.58
101599.76
101607.52
101611.98
101616.22
101616.02
101619.22
101618.5
101627.76
101636.1
101707.58
102730.17
102583.25
102425.28
102253.28
102089.76
101943.31
101817.17
101712.32
101633
101574.4
101532.75
101509.13
101498.99
101498.58
101506.29
101518.26
101532.82
101548.27
101563.68
101577.69
101589.96
101599.65
101607.23
101611.68
101616.25
101616.06
101619.14
101618.38
101627.23
101636.1
101709.54
102842.12
102708.45
102547.94
102374.07
102208.64
102058.14
101925.06
101811.39
101720.49
101650.25
101598.03
101564.09
101544.3
101535.98
101537.28
101543.91
101554.1
101566.04
101578.65
101590.36
101600.74
101608.83
101615.05
101618.38
101622.13
101621.3
101623.72
101622.92
101631.68
101640.57
101714.38
102915.49
102793.21
102643.4
102477.23
102315.44
102165.11
102028.93
101909.53
101810.03
101730.07
101668.19
101624.51
101595.24
101578.24
101572.41
101572.86
101577.71
101585.17
101594.06
101602.7
101610.55
101616.59
101621.18
101623.26
101625.84
101624.62
101626.2
101625.33
101633.69
101642.87
101717.81
102966.95
102856.6
102721.89
102568.59
102414.96
102268.55
102132.45
102009.72
101903.56
101814.97
101743.72
101690.08
101651.02
101625.09
101610.91
101604.58
101603.54
101606.06
101610.93
101616.31
101621.55
101625.54
101628.51
101629.38
101630.93
101628.97
101630.11
101628.99
101637.4
101646.83
101721.14
102999.34
102900.69
102782.33
102644.85
102503.11
102364.37
102231.86
102108.81
101998.57
101903.22
101823.63
101760.4
101711.93
101676.96
101653.9
101640.09
101632.74
101629.86
101630.29
101632.03
101634.29
101635.89
101636.95
101636.34
101636.61
101633.86
101634.25
101632.89
101641.08
101650.77
101725.44
103015.61
102928.22
102826.25
102705.82
102578.31
102450.11
102324.3
102204.01
102092.65
101992.93
101906.67
101835.01
101777.55
101733.6
101701.75
101679.79
101665.53
101656.75
101652.23
101649.86
101648.74
101647.62
101646.5
101644.21
101643.04
101639.4
101639.01
101637.38
101645.42
101655.48
101730.5
103022.31
102949.09
102859.95
102754.46
102641.36
102525.21
102408.32
102293.42
102183.73
102082.24
101991.36
101912.84
101847.28
101794.62
101754.12
101723.95
101702.03
101686.84
101676.92
101669.99
101665.1
101660.91
101657.33
101653.15
101650.37
101645.7
101644.44
101642.48
101650.34
101660.81
101736.68
103021.53
102965.99
102886.3
102792.35
102692.81
102589.31
102482.8
102375.37
102269.83
102169.12
102075.92
101992.45
101920.09
101859.51
101810.57
101772.29
101742.59
101720.3
101704.55
101692.64
101683.56
101675.94
101669.6
101663.28
101658.69
101652.86
101650.61
101648.28
101655.92
101666.91
101744.06
103000.84
102966.05
102903.32
102820.86
102733.25
102642.15
102546.8
102448.33
102349.02
102251.46
102158.32
102072.06
101994.62
101927.3
101870.63
101824.38
101786.96
101757.5
101735.21
101717.96
101704.31
101692.89
101683.45
101674.74
101668.13
101660.97
101657.63
101654.88
101662.27
101673.9
101752.75
102980.06
102947.28
102899.57
102837.23
102762.76
102683.58
102599.54
102511.03
102419.55
102327.21
102236.42
102149.64
102069.1
101996.61
101933.31
101879.58
101834.81
101798.27
101769.08
101745.99
101727.45
101711.88
101699.04
101687.66
101678.8
101670.16
101665.59
101662.36
101669.48
101681.87
101762.84
102958.42
102934.09
102893.99
102840.26
102778.94
102712.55
102640.34
102562.47
102479.98
102394.51
102308.08
102222.96
102141.47
102065.68
101997.23
101937.1
101885.43
101842.02
101806.12
101776.85
101753.03
101733.01
101716.47
101702.16
101690.83
101680.54
101674.61
101670.85
101677.66
101690.94
101774.4
102931.34
102912.1
102879.86
102839.51
102791.79
102734.76
102671.83
102603.39
102529.77
102451.9
102371.27
102289.74
102209.4
102132.39
102060.61
101995.51
101937.89
101888.06
101845.76
101810.49
101781.06
101756.31
101735.82
101718.34
101704.33
101692.22
101684.81
101680.44
101686.9
101701.21
101787.48
102907.91
102894.64
102869.77
102834.53
102791.12
102742.12
102689.18
102630.78
102566.63
102497.27
102423.76
102347.54
102270.38
102194.28
102121.22
102052.95
101990.76
101935.48
101887.35
101846.23
101811.39
101781.83
101757.1
101736.25
101719.4
101705.29
101696.29
101691.25
101697.33
101712.78
101802.01
102874.02
102864.93
102845.29
102816.58
102781.59
102741.03
102695.66
102645.67
102590.31
102529.49
102463.76
102394.1
102321.86
102248.73
102176.56
102107.18
102042.19
101982.83
101929.84
101883.49
101843.5
101809.27
101780.31
101755.89
101736.09
101719.84
101709.16
101703.38
101709.03
101725.7
101817.83
102830.4
102825.25
102810
102786.9
102761.42
102730.17
102690.38
102646.52
102598.99
102546.61
102489.16
102427.07
102361.26
102293.01
102223.89
102155.62
102089.91
102028.26
101971.79
101921.23
101876.74
101838.14
101805.14
101777.23
101754.37
101735.9
101723.46
101716.91
101722.07
101739.97
101834.64
102774.47
102773.11
102762.36
102743.95
102721.93
102699.19
102671.23
102633.79
102591.53
102546.63
102497.75
102444.16
102386.14
102324.52
102260.52
102195.62
102131.44
102069.58
102011.43
101958.06
101910.11
101867.8
101831.14
101799.92
101774.16
101753.45
101739.21
101731.85
101736.5
101755.57
101852.01
102705.65
102707.14
102700.11
102686.36
102669.04
102649.48
102629.56
102605.59
102572.39
102532.85
102490.2
102444.55
102394.99
102341.32
102284.19
102224.72
102164.29
102104.44
102046.66
101992.27
101942.25
101897.25
101857.65
101823.55
101795.15
101772.36
101756.39
101748.17
101752.24
101772.42
101869.43
102625.76
102629.19
102624.96
102615.02
102602.25
102587.1
102569.55
102552.06
102534.34
102508.79
102472.79
102431.8
102388.68
102342.77
102293.47
102241.03
102186.33
102130.63
102075.37
102021.93
101971.56
101925.25
101883.73
101847.46
101816.89
101792.31
101774.81
101765.71
101769.14
101790.38
101886.35
102540.12
102544.78
102542.79
102536.04
102527.21
102516.87
102504.46
102489.23
102471.26
102453.51
102435.58
102409.05
102372.01
102330.88
102288.36
102243.57
102196
102146.31
102095.6
102045.15
101996.32
101950.33
101908.19
101870.75
101838.74
101812.8
101794.08
101784.19
101786.84
101809.15
101902.39
102451.41
102456.62
102456.24
102452.05
102446.37
102439.65
102431.58
102421.75
102409.65
102394.75
102377.33
102359.83
102338.7
102308.63
102272.4
102233.48
102192.99
102150.47
102105.94
102060.32
102014.88
101970.93
101929.71
101892.33
101859.82
101833.14
101813.63
101803.06
101804.74
101827.83
101917.61
102361.89
102367.03
102367.61
102365.25
102361.83
102357.72
102352.63
102346.26
102338.31
102328.35
102315.81
102300.76
102285.92
102271
102248.74
102217.03
102181.24
102144.34
102106.15
102066.45
102025.94
101985.67
101946.91
101910.95
101879.05
101852.44
101832.62
101821.47
101821.97
101844.94
101932.02
102276.59
102281.41
102282.64
102281.68
102280.04
102277.98
102275.3
102271.73
102267.06
102261.04
102253.35
102243.53
102231.04
102215.97
102201.07
102185.95
102163.02
102131.47
102097.55
102063.4
102028.71
101993.47
101958.59
101925.4
101895.27
101869.6
101850
101838.37
101837.31
101857.4
101944.03
102196.97
102201.2
102202.73
102202.71
102202.3
102201.67
102200.68
102199.15
102196.9
102193.75
102189.47
102183.83
102176.49
102167
102154.98
102140.75
102126.46
102108.44
102082.36
102052.91
102023.53
101993.9
101963.96
101934.7
101907.41
101883.52
101864.64
101852.58
101849.43
101863.6
101945.95
102126.3
102129.83
102131.39
102131.93
102132.25
102132.5
102132.55
102132.27
102131.54
102130.22
102128.12
102125.04
102120.75
102114.97
102107.32
102097.39
102085.44
102073.59
102059.38
102038.46
102013.55
101988.14
101963.07
101938.37
101914.73
101893.29
101875.54
101863.07
101857.35
101863.4
101928.05
102065.05
102067.81
102069.24
102070.02
102070.73
102071.43
102072.05
102072.51
102072.7
102072.53
102071.87
102070.53
102068.34
102065.07
102060.47
102054.18
102045.82
102035.55
102025.64
102015.87
102000.42
101979.05
101957.19
101936.71
101917.08
101898.49
101882.17
101869.37
101860.95
101859.25
101868.24
102018.2
102020.15
102021.24
102021.95
102022.66
102023.39
102024.12
102024.75
102025.22
102025.48
102025.43
102024.94
102023.87
102022.06
102019.35
102015.55
102010.46
102003.82
101995.5
101985.85
101976.59
101964.84
101948.19
101931.13
101915.11
101899.36
101884.63
101871.72
101861.04
101856.49
101893.2
101980.43
101981.52
101982.15
101982.6
101983.05
101983.54
101984.03
101984.49
101984.89
101985.18
101985.31
101985.2
101984.77
101983.93
101982.56
101980.47
101977.49
101973.43
101968.02
101961.1
101953.13
101945.9
101936.62
101923.83
101910.67
101897.31
101884.23
101871.3
101858.38
101846.52
101836.64
101954.31
101955.21
101955.81
101956.28
101956.68
101957.05
101957.38
101957.65
101957.84
101957.93
101957.89
101957.66
101957.18
101956.39
101955.18
101953.47
101951.21
101948.34
101944.77
101940.39
101935.13
101929.46
101925.29
101919.05
101908.59
101897.91
101887.9
101877.69
101867.92
101864.53
101812.36
101952.37
101952.72
101952.89
101952.96
101952.97
101952.93
101952.86
101952.74
101952.57
101952.32
101951.96
101951.45
101950.75
101949.8
101948.56
101946.95
101944.89
101942.31
101939.1
101935.1
101930.2
101924.14
101917.29
101911.57
101906.93
101901.16
101895.36
101891.56
101890.01
101912.98
101882.15
101929.25
101931.24
101932.67
101933.57
101934.05
101934.14
101933.87
101933.23
101932.21
101930.82
101929.05
101926.93
101924.49
101921.77
101918.8
101915.6
101912.19
101908.56
101904.66
101900.4
101895.64
101890.03
101882.85
101873.85
101864.41
101859.19
101858.39
101859.07
101861.02
101909.63
101844.2
100415.14
100365.84
100320.12
100289.03
100274.96
100280.33
100306.7
100350.5
100412.2
100489.48
100578.05
100676.88
100777.11
100871.69
100969.46
101060.35
101142.61
101217.87
101284.41
101342.55
101392.3
101433.42
101467.02
101492.56
101512.82
101525.07
101540.7
101542.63
101556.73
101530.14
101604.86
100313.67
100276.87
100245.18
100230.85
100234.08
100255.76
100295.7
100352.1
100422.92
100506.34
100598.76
100697.94
100794.51
100887.64
100983.31
101070.43
101149.63
101222.19
101286.93
101343.67
101392.34
101432.84
101466.16
101491.68
101512.01
101524.48
101540.5
101542.56
101556.82
101532.99
101609.49
100173.53
100146.8
100131.82
100138.48
100163.51
100205.49
100264.51
100336.71
100419.95
100513.64
100613.21
100713.93
100810.78
100907.05
101001.69
101085.97
101164.17
101235.42
101298.81
101354.17
101401.62
101441.01
101473.32
101497.93
101517.43
101529.36
101545.05
101546.66
101560.54
101538.08
101613.09
100011.07
100007.68
100018.97
100051.26
100099.61
100161.95
100238.26
100324.78
100419.4
100522.91
100626.53
100728.66
100828.89
100927.44
101020.41
101101.87
101179.55
101249.23
101310.89
101364.53
101410.35
101448.25
101479.25
101502.77
101521.37
101532.73
101547.95
101549.37
101562.76
101542.76
101618.11
99842.101
99869.165
99910.237
99969.565
100041.73
100124.61
100218.63
100319.21
100424.38
100534.54
100640.71
100746.45
100849.11
100948.1
101037.89
101117.71
101194.46
101262.3
101322.19
101374.14
101418.43
101455.02
101484.91
101507.54
101525.41
101536.34
101551.26
101552.34
101565.51
101547.53
101623.46
99680.554
99741.298
99811.907
99897.585
99992.467
100095.34
100206.81
100320.16
100432.65
100547.93
100658.62
100766.68
100871
100968.52
101054.58
101134.54
101209.42
101275.39
101333.57
101383.88
101426.71
101462.02
101490.81
101512.52
101529.62
101540.05
101554.44
101555.38
101568.22
101552.32
101629.17
99533.005
99628.731
99729.579
99838.789
99954.509
100076.8
100201.68
100324.84
100445.78
100565.35
100679.29
100789.19
100893.99
100988.28
101071.78
101151.64
101224.53
101288.65
101345.07
101393.73
101435.08
101469.08
101496.75
101517.53
101533.84
101543.77
101557.62
101558.37
101571.01
101557.1
101635.15
99409.349
99532.405
99661.946
99796.386
99932.434
100069.32
100204.77
100336.25
100463.52
100586.38
100702.81
100814.21
100917.23
101006.87
101089.85
101168.93
101239.76
101301.99
101356.62
101403.61
101443.47
101476.17
101502.72
101522.59
101538.12
101547.54
101560.79
101561.41
101573.85
101561.85
101638.72
99317.979
99466.549
99619.101
99772.662
99924.238
100072.89
100216.88
100354.53
100485.99
100611.44
100729.85
100840.43
100938.53
101025.9
101109.61
101186.47
101255.13
101315.41
101368.21
101413.52
101451.9
101483.3
101508.74
101527.69
101542.43
101551.35
101563.95
101564.48
101576.75
101566.6
101643.24
99266.501
99434.281
99602.727
99768.93
99931.262
100088.61
100238.55
100379.95
100514.1
100641.53
100759.39
100865.61
100959.15
101046.55
101129.77
101204.21
101270.64
101328.9
101379.84
101423.46
101460.35
101490.46
101514.8
101532.82
101546.78
101555.18
101567.11
101567.58
101579.69
101571.33
101645.27
99259.157
99437.898
99614.178
99786.16
99954.147
100116.62
100269.72
100413.32
100548.65
100674.76
100787.92
100888.39
100981.52
101069.77
101150.26
101222.17
101286.29
101342.47
101391.51
101433.44
101468.83
101497.65
101520.88
101537.99
101551.16
101559.03
101570.3
101570.72
101582.68
101576.07
101648.66
99283.464
99469.044
99648.546
99823.677
99995.277
100157.99
100309.24
100451.89
100585.49
100706.88
100813.81
100913.53
101008.04
101093.68
101171.1
101240.38
101302.09
101356.12
101403.22
101443.43
101477.33
101504.85
101526.98
101543.18
101555.55
101562.9
101573.52
101573.89
101585.71
101580.81
101652.17
99310.654
99504.681
99689.976
99872.354
100050.41
100209.9
100353.78
100491.37
100620.92
100737
100843.09
100944.45
101035.86
101118.03
101192.35
101258.84
101318.02
101369.83
101414.96
101453.43
101485.83
101512.05
101533.09
101548.38
101559.97
101566.79
101576.76
101577.09
101588.77
101585.52
101656.32
99404.487
99584.138
99756.282
99932.57
100110.96
100266.2
100404.57
100536.89
100659.14
100772.81
100880.36
100977.52
101064.52
101143.02
101214.03
101277.53
101334.08
101383.6
101426.72
101463.44
101494.33
101519.26
101539.21
101553.58
101564.39
101570.68
101580.03
101580.3
101591.89
101590.19
101660.99
99629.913
99784.638
99934.843
100073.89
100198.13
100333.81
100473.36
100599.19
100713.9
100820.96
100921.07
101012.09
101094.27
101168.74
101236.12
101296.47
101350.26
101397.42
101438.49
101473.45
101502.81
101526.45
101545.32
101558.79
101568.81
101574.58
101583.32
101583.52
101595.04
101594.78
101665.87
99831.095
99966.682
100091.55
100210.91
100325.16
100441.79
100559.73
100671.23
100775.23
100872.87
100964.1
101048.43
101125.22
101195.15
101258.64
101315.63
101366.56
101411.28
101450.27
101483.43
101511.27
101533.62
101551.41
101563.99
101573.23
101578.47
101586.62
101586.75
101598.22
101599.32
101670.97
100071.68
100179.48
100274.55
100368.84
100463.45
100559.12
100655.61
100750.21
100841.09
100927.8
101009.67
101086.63
101157.35
101222.28
101281.57
101335.02
101382.96
101425.17
101462.03
101493.38
101519.7
101540.76
101557.47
101569.16
101577.65
101582.36
101589.93
101590
101601.4
101603.74
101674.02
100343.64
100419.27
100480.62
100544.72
100613.2
100685.07
100759.95
100836.16
100912.01
100986.41
101057.91
101126.67
101190.64
101250.1
101304.91
101354.62
101399.45
101439.06
101473.75
101503.28
101528.06
101547.84
101563.49
101574.31
101582.06
101586.24
101593.26
101593.26
101604.58
101608.08
101678.49
100645.34
100684.9
100708.64
100738.38
100776.59
100821.72
100873.12
100929.11
100988.15
101048.86
101108.79
101168.5
101225.11
101278.63
101328.65
101374.42
101416
101452.94
101485.42
101513.1
101536.35
101554.85
101569.45
101579.42
101586.47
101590.13
101596.61
101596.55
101607.76
101612.32
101682.92
100972.38
100973.2
100956.5
100948.72
100953.33
100968.86
100994.79
101028.82
101069.35
101115.12
101162.28
101212.11
101260.73
101307.82
101352.75
101394.35
101432.55
101466.74
101496.97
101522.8
101544.52
101561.76
101575.34
101584.48
101590.9
101594.02
101600.01
101599.88
101610.95
101616.5
101687.85
101318.3
101278.6
101220.03
101172.88
101141.57
101125.01
101124.07
101135.04
101155.53
101185.28
101218.44
101257.47
101297.45
101337.6
101377.07
101414.3
101448.98
101480.34
101508.31
101532.3
101552.52
101568.54
101581.12
101589.48
101595.36
101597.94
101603.48
101603.29
101614.2
101620.62
101690.87
101681.37
101598.81
101497.76
101410.7
101342.2
101291.44
101262.67
101249.42
101247.94
101260.34
101277.8
101304.73
101335.21
101367.74
101401.35
101433.96
101465.02
101493.54
101519.26
101541.47
101560.26
101575.13
101586.78
101594.4
101599.89
101601.91
101607.04
101606.78
101617.52
101624.77
101695.38
102074.46
101951.09
101810.83
101683.02
101572.92
101483.12
101422.2
101378.86
101351.45
101343.4
101342.15
101354.69
101374.21
101398.17
101425.38
101453.13
101480.48
101506.18
101529.75
101550.27
101567.73
101581.52
101592.32
101599.25
101604.57
101605.97
101610.73
101610.39
101620.91
101628.91
101700.12
102458.2
102328.06
102181.26
102019.9
101865.17
101730.02
101620.04
101531.75
101473.19
101438.29
101414.38
101409.42
101415.98
101430.1
101450.16
101472.64
101496.05
101518.82
101540.19
101559.02
101575.14
101587.88
101597.82
101604.07
101609.43
101610.16
101614.53
101614.12
101624.35
101633.13
101705.85
100515.27
100478.28
100437.41
100403.6
100381.94
100374.45
100384.76
100411.6
100456.51
100517.95
100592.2
100678.71
100770.37
100859.44
100952.37
101040.93
101122.41
101198.23
101266.36
101326.1
101377.75
101420.86
101456.37
101483.59
101505.27
101518.48
101534.66
101536.85
101551
101522.87
101597.24
100534.66
100498.7
100466.74
100440.55
100420.83
100413.24
100419.17
100441.34
100480.82
100536.67
100605.74
100687.13
100774.71
100861.62
100952.03
101038.68
101119.18
101194.51
101262.65
101322.3
101373.95
101417.32
101453.14
101480.71
101502.73
101516.22
101532.22
101534.76
101548.95
101519.98
101593.75
100542.46
100514.51
100490.23
100469.55
100454.37
100448.39
100453.43
100472.82
100507.87
100558.46
100622.31
100698.33
100781.31
100865.35
100952.93
101037.55
101117
101191.45
101259.13
101318.6
101370.13
101413.7
101449.8
101477.67
101500.02
101513.78
101529.54
101532.27
101546.7
101516.57
101588.68
100556.93
100536.87
100518.66
100502.04
100489.74
100484.71
100489.15
100505.93
100536.69
100581.89
100640.18
100710.5
100788.54
100869.16
100953.65
101036.07
101114.29
101187.86
101255.01
101314.46
101366.08
101409.81
101446.21
101474.42
101497.12
101511.18
101526.6
101529.57
101544.37
101512.97
101581.59
100572.24
100558.36
100545.08
100532.57
100523.11
100519.36
100523.62
100538.4
100565.51
100605.87
100658.81
100723.53
100796.56
100873.44
100954.58
101034.6
101111.36
101183.95
101250.48
101309.89
101361.79
101405.61
101442.34
101470.93
101494.01
101508.39
101523.47
101526.72
100585.62
100576.43
100567.53
100559.07
100552.82
100551.01
100555.78
100569.39
100593.73
100629.99
100678.1
100544.59
100557.36
100567.56
100577.9
100587.51
100541.98
100537.32
103064.21
102983.71
100509.05
100482.09
100462.98
100446.58
100385.08
100359.4
100332.63
100323.2
100324.18
100025.47
100111.01
100114.69
100121.14
100142.19
100167.46
99620.125
99774.197
99820.305
99868.172
99924.078
99978.783
99184.86
99416.719
99509.381
99597.832
99688.532
99776.143
98779.436
99084.202
99213.793
99331.66
99460.92
99579.803
98437.891
98789.935
98945.593
99096.56
99255.152
99400.308
98147.714
98552.758
98723.44
98897.947
99082.251
99251.674
97887.037
98374.229
98554.837
98745.961
98949.885
99138.682
97633.286
98246.268
98457.68
98661.383
98873.733
99073.629
97468.267
98138.192
98412.002
98641.291
98857.943
99061.941
97523.449
98089.722
98359.134
98623.83
98866.774
99083.476
97748.109
98242.77
98413.66
98645.373
98883.585
99108.514
98022.485
98482.899
98621.569
98819.289
99028.384
99231.887
98199.341
98661.21
98868.248
99083.796
99291.969
99487.777
98486.805
98928.535
99126.872
99323.61
99519.101
99707.852
98835.089
99251.872
99445.53
99626.282
99805.05
99980.409
99243.176
99631.617
99816.573
99974.724
100132
100289.82
99704.763
100061.58
100231.19
100364.09
100496.63
100633.39
100212.11
100534.22
100683.71
100788.77
100893.4
101005.57
100761.72
101038.2
101164.31
101239.77
101313.91
101398.68
101339.46
101567.88
101665.88
101710.03
101752.29
101808.67
102112.98
102181.02
102194.61
102207.23
102239.59
102697.41
102680.65
102658.9
102656.02
103146.19
103231.4
103288.5
103325.4
103338.93
103331.7
103303.31
103260.32
103210.72
103156.04
103108.04
103061.48
103015.77
103017.97
102977.35
102981.81
102932.22
102939.61
102878.38
102889.4
102812.68
102827.03
102735.17
102751.42
102648.13
102664.63
102556.32
102571.95
102462.41
102476.39
102368.99
102380.74
102280.57
102290.1
102198.66
102206.04
102126.45
102131.89
102064.33
102068.12
102017.34
102019.65
101979.84
101980.96
101953.5
101954.15
101951.79
101952.24
101925.43
101926.98
)
;

boundaryField
{
    Side1
    {
        type            empty;
    }
    Inlet
    {
        type            totalPressure;
        rho             rho;
        psi             none;
        gamma           1;
        p0              uniform 102920.87;
        value           nonuniform List<scalar> 
92
(
102920.87
101259.86
102920.87
101260.23
101260.46
101260.72
101261.02
101261.37
101261.79
101262.27
101262.83
101263.49
101264.26
101265.16
101266.21
101267.43
101268.86
101270.53
101272.48
101274.79
101277.54
101280.86
101284.72
101288.86
101293.19
102920.87
101301.63
102920.87
102920.87
101321.42
101328.54
101328.54
101328.54
101328.54
101328.54
101328.54
101328.54
101328.54
101328.54
101328.54
101328.54
101328.54
101328.54
101328.54
101328.54
101328.54
101328.54
101328.54
101328.54
101328.54
101328.54
101328.54
101328.54
101328.54
101328.54
101328.54
101328.54
101328.54
101328.54
101328.54
101357.95
101328.54
101254.39
101254.63
101254.87
101255.12
101255.38
102920.87
101255.88
102920.87
101256.34
101256.56
101256.78
101257
101257.23
101257.47
102920.87
101257.92
101258.13
101258.35
102920.87
101258.76
101258.96
101259.17
101259.37
101259.59
102920.87
102920.87
102920.87
102920.87
101328.54
101328.54
)
;
    }
    Side2
    {
        type            empty;
    }
    Outlet
    {
        type            freestreamPressure;
        freestreamValue nonuniform List<scalar> 0();
        value           nonuniform List<scalar> 0();
    }
    Botwall
    {
        type            zeroGradient;
    }
    Cyli
    {
        type            zeroGradient;
    }
    procBoundary2to0
    {
        type            processor;
        value           nonuniform List<scalar> 
55
(
100576.17
100584.76
100592.66
100598.03
100602.1
100573.09
100574.88
100565.51
100551.67
100551.67
103199.94
103146.42
103146.42
103487.61
103359.28
100533.19
100533.19
100329.32
100329.32
101932.27
101932.27
102659.56
102659.56
103427.29
103424.91
103437.12
103440.61
103427.39
103398.41
103346.49
103283.71
103218.92
103159.61
103106.52
103058.77
103058.77
103033.69
102990.2
102940.26
102881.64
102811.67
102731.05
102642.18
102549.44
102455.32
102362.34
102274.59
102193.56
102122.31
102061.18
102015.22
101978.73
101952.82
101951.08
101924.2
)
;
    }
    procBoundary2to3
    {
        type            processor;
        value           nonuniform List<scalar> 
35
(
101541.92
101509.22
101573.97
100737.55
100805.64
100878.61
100956.18
101033.6
101108.62
101180.06
101245.9
101305.13
101357.19
101401.17
101438.24
101467.22
101490.69
101505.44
101520.25
101541.92
101523.76
100597.39
100596.51
100592.17
100587.18
100582.49
100579.5
100579.99
100585.8
100598.95
100621.3
100654.21
100737.55
100698.04
100596.51
)
;
    }
}


// ************************************************************************* //
