/*--------------------------------*- C++ -*----------------------------------*\
| =========                 |                                                 |
| \\      /  F ield         | OpenFOAM: The Open Source CFD Toolbox           |
|  \\    /   O peration     | Version:  2406                                  |
|   \\  /    A nd           | Website:  www.openfoam.com                      |
|    \\/     M anipulation  |                                                 |
\*---------------------------------------------------------------------------*/
FoamFile
{
    version     2.0;
    format      ascii;
    arch        "LSB;label=32;scalar=64";
    class       volScalarField;
    location    "0.05";
    object      rho;
}
// * * * * * * * * * * * * * * * * * * * * * * * * * * * * * * * * * * * * * //

dimensions      [1 -3 0 0 0 0 0];

internalField   nonuniform List<scalar> 
2065
(
1.2194362
1.2174251
1.2158571
1.2139869
1.2120988
1.2103807
1.2088995
1.2076563
1.2067352
1.2060446
1.2055218
1.2052145
1.2050543
1.2049959
1.2050251
1.2050994
1.2051998
1.2053062
1.2054084
1.2054906
1.205549
1.2055732
1.2055684
1.205522
1.2054685
1.2053551
1.2052728
1.2051333
1.2050953
1.205012
1.2055502
1.2214499
1.2197336
1.2178531
1.2157672
1.213748
1.2118999
1.2102658
1.2088629
1.2077493
1.2068739
1.2061978
1.20574
1.2054508
1.2052877
1.2052332
1.205241
1.2052903
1.2053595
1.2054358
1.2055011
1.2055494
1.2055688
1.2055626
1.2055168
1.2054676
1.2053547
1.2052714
1.2051319
1.2050897
1.2050151
1.2055875
1.2223559
1.2208139
1.2189283
1.2168543
1.2148525
1.2129996
1.2113264
1.2098598
1.208645
1.2076628
1.2068878
1.2063288
1.2059413
1.2056969
1.2055756
1.2055268
1.2055292
1.2055603
1.2056059
1.2056459
1.2056731
1.2056745
1.205653
1.2055945
1.2055362
1.2054161
1.2053253
1.2051857
1.2051433
1.2050718
1.20566
1.2228105
1.2214187
1.2196834
1.217731
1.2158077
1.2139956
1.2123259
1.2108309
1.2095509
1.2084862
1.2076246
1.2069731
1.2064915
1.2061581
1.2059627
1.2058484
1.2057931
1.2057752
1.2057798
1.2057855
1.2057844
1.2057628
1.2057229
1.2056503
1.2055786
1.2054545
1.2053541
1.2052141
1.2051681
1.2051029
1.205725
1.2230245
1.2217862
1.2202485
1.2184738
1.2166771
1.2149453
1.2133127
1.2118152
1.2104918
1.2093577
1.208414
1.2076688
1.2070909
1.2066672
1.2063848
1.206199
1.2060805
1.2060088
1.2059693
1.205939
1.2059089
1.2058643
1.2058064
1.2057204
1.2056372
1.2055049
1.2053998
1.2052574
1.2052129
1.2051543
1.2057906
1.2230392
1.2219474
1.2206166
1.2190484
1.2174167
1.2158041
1.2142456
1.2127777
1.2114397
1.2102575
1.2092441
1.2084107
1.2077426
1.2072289
1.2068544
1.2065901
1.2064045
1.2062745
1.2061864
1.206116
1.2060529
1.2059818
1.2059026
1.2058
1.2057024
1.2055613
1.2054479
1.2053032
1.2052573
1.205206
1.2058694
1.2228961
1.2219413
1.2208127
1.2194597
1.2180142
1.2165487
1.2150957
1.2136894
1.2123684
1.2111647
1.2101009
1.2091935
1.2084411
1.2078394
1.2073754
1.2070259
1.206767
1.2065736
1.2064318
1.2063163
1.2062159
1.2061146
1.2060111
1.2058899
1.2057762
1.2056253
1.2055033
1.205356
1.2053097
1.2052671
1.2059587
1.2226792
1.221893
1.2209193
1.2197502
1.2184867
1.2171794
1.2158518
1.2145328
1.2132575
1.2120599
1.2109683
1.210005
1.2091791
1.2084937
1.2079431
1.207509
1.2071692
1.2069073
1.2067072
1.2065419
1.2063999
1.2062647
1.2061339
1.2059918
1.2058601
1.2056979
1.2055662
1.2054158
1.2053686
1.2053361
1.2060624
1.2224167
1.221838
1.220975
1.2199443
1.2188466
1.2176982
1.2165068
1.2152934
1.2140879
1.2129226
1.2118276
1.2108293
1.2099453
1.2091856
1.2085519
1.2080355
1.2076143
1.2072769
1.2070141
1.2067949
1.2066071
1.2064341
1.2062728
1.206107
1.2059552
1.2057802
1.2056376
1.2054836
1.2054354
1.2054145
1.2061814
1.2219591
1.2216222
1.2209573
1.2200607
1.2191048
1.218107
1.2170549
1.2159589
1.2148419
1.2137319
1.2126578
1.2116475
1.2107241
1.209904
1.2091959
1.2085996
1.208099
1.2076861
1.2073533
1.2070765
1.206839
1.2066244
1.2064291
1.206237
1.2060627
1.2058733
1.2057186
1.2055603
1.2055109
1.2055035
1.2063161
1.2215429
1.221222
1.2207294
1.2200675
1.2192645
1.218407
1.2174912
1.2165184
1.2155034
1.2144678
1.2134371
1.2124381
1.2114964
1.2106333
1.2098636
1.2091938
1.2086189
1.2081326
1.2077264
1.207387
1.2070968
1.206837
1.2066045
1.2063831
1.2061841
1.2059785
1.2058102
1.2056471
1.2055962
1.2056041
1.206467
1.2211564
1.2209282
1.2205178
1.2199506
1.2192974
1.2185874
1.2178097
1.2169637
1.2160591
1.2151121
1.2141436
1.2131778
1.2122401
1.2113541
1.2105394
1.2098085
1.209165
1.2086086
1.2081323
1.2077272
1.2073804
1.2070726
1.2068
1.2065467
1.2063205
1.2060969
1.2059137
1.2057451
1.2056922
1.2057172
1.2066342
1.2207383
1.2205624
1.2202373
1.2198212
1.2193223
1.2187166
1.2180434
1.2173058
1.2165055
1.215651
1.2147569
1.2138425
1.21293
1.2120429
1.2112029
1.2104273
1.2097266
1.2091059
1.2085638
1.208096
1.2076896
1.2073312
1.207016
1.2067285
1.2064732
1.2062297
1.2060302
1.2058552
1.2057999
1.2058436
1.2068171
1.2203912
1.2202787
1.2200329
1.2196688
1.2192121
1.2186934
1.2181315
1.2175073
1.2168155
1.2160606
1.2152526
1.2144058
1.2135388
1.2126727
1.2118295
1.211029
1.2102869
1.2096134
1.2090129
1.2084849
1.2080219
1.2076128
1.2072524
1.206929
1.2066429
1.2063779
1.2061609
1.2059787
1.2059202
1.2059837
1.2070136
1.2199365
1.2198667
1.2196758
1.2193815
1.2190168
1.2185903
1.2181105
1.217579
1.2169858
1.2163283
1.215611
1.2148431
1.2140385
1.2132145
1.212391
1.2115882
1.2108244
1.2101142
1.2094669
1.2088866
1.208371
1.2079137
1.2075088
1.2071476
1.2068299
1.2065421
1.2063065
1.2061163
1.2060537
1.206137
1.2072202
1.2193772
1.2193484
1.2192034
1.218969
1.2187103
1.2183868
1.2179656
1.2174994
1.2169925
1.2164296
1.2158069
1.2151275
1.2144002
1.213638
1.2128571
1.212076
1.2113137
1.2105869
1.2099091
1.2092888
1.2087289
1.2082274
1.2077811
1.2073838
1.2070339
1.2067224
1.2064676
1.2062684
1.2062006
1.2063026
1.2074316
1.2186778
1.2186891
1.2185922
1.2184076
1.2181837
1.2179549
1.2176674
1.2172705
1.2168194
1.2163394
1.2158137
1.2152321
1.2145963
1.213914
1.2131977
1.2124627
1.2117265
1.2110066
1.2103187
1.2096752
1.2090834
1.2085463
1.2080639
1.2076331
1.2072533
1.2069184
1.2066437
1.206435
1.2063604
1.2064784
1.2076403
1.2178296
1.2178708
1.2178135
1.2176793
1.2175059
1.217309
1.2171113
1.2168686
1.216519
1.2160965
1.2156392
1.2151477
1.2146096
1.2140211
1.2133879
1.2127212
1.2120355
1.2113471
1.2106724
1.210026
1.209419
1.2088586
1.2083489
1.2078904
1.2074843
1.2071281
1.2068344
1.2066148
1.2065312
1.2066614
1.2078374
1.2168555
1.216916
1.216888
1.2167947
1.2166706
1.216521
1.216346
1.2161749
1.2160042
1.215743
1.2153595
1.214918
1.2144525
1.2139538
1.2134131
1.2128315
1.2122173
1.211584
1.2109464
1.2103196
1.2097172
1.2091499
1.2086252
1.2081478
1.2077214
1.2073476
1.207037
1.2068055
1.2067099
1.2068475
1.2080127
1.2158212
1.2158933
1.2158883
1.215829
1.2157475
1.2156504
1.2155314
1.2153816
1.2152021
1.2150282
1.2148549
1.2145813
1.2141837
1.2137379
1.2132754
1.2127842
1.2122564
1.211698
1.2111198
1.2105354
1.2099589
1.2094033
1.2088793
1.208395
1.2079572
1.2075709
1.2072468
1.2070032
1.2068908
1.2070299
1.2081565
1.2147609
1.2148365
1.2148475
1.2148153
1.2147672
1.214709
1.2146371
1.2145467
1.2144318
1.2142861
1.214113
1.2139416
1.213729
1.2134108
1.2130198
1.2125961
1.2121519
1.21168
1.2111787
1.2106565
1.2101266
1.2096023
1.2090963
1.2086196
1.2081814
1.20779
1.207457
1.2072007
1.2070653
1.207194
1.2082621
1.2137021
1.2137744
1.213794
1.2137803
1.2137556
1.2137244
1.2136837
1.2136298
1.2135595
1.2134676
1.2133473
1.2131996
1.2130566
1.2129147
1.2126863
1.2123453
1.2119544
1.2115484
1.2111233
1.2106742
1.2102072
1.2097322
1.2092617
1.208808
1.2083825
1.2079951
1.2076581
1.2073885
1.2072218
1.2073169
1.2083173
1.2127076
1.2127738
1.2127986
1.2127987
1.212792
1.2127819
1.2127659
1.2127413
1.2127054
1.2126554
1.2125876
1.2124967
1.2123758
1.2122263
1.2120806
1.2119334
1.211693
1.2113483
1.2109727
1.2105901
1.2101945
1.2097831
1.2093636
1.2089481
1.2085483
1.208175
1.2078395
1.2075549
1.2073454
1.2073561
1.208281
1.2117944
1.2118517
1.2118778
1.2118866
1.2118916
1.2118954
1.2118962
1.2118919
1.2118807
1.2118604
1.2118286
1.2117822
1.2117175
1.211629
1.2115119
1.2113697
1.2112275
1.2110408
1.2107562
1.2104282
1.210096
1.2097532
1.2093958
1.209031
1.2086691
1.2083193
1.2079906
1.2076894
1.2074229
1.207286
1.2080171
1.2110027
1.2110499
1.2110744
1.2110874
1.2110988
1.2111101
1.2111201
1.2111273
1.2111304
1.2111277
1.2111171
1.2110964
1.2110628
1.2110131
1.2109426
1.2108462
1.2107267
1.2106088
1.2104623
1.2102335
1.2099531
1.2096605
1.2093624
1.2090549
1.2087398
1.2084218
1.2081051
1.2077871
1.2074514
1.2071072
1.2073175
1.2103389
1.2103753
1.2103962
1.2104101
1.2104236
1.2104378
1.2104517
1.2104644
1.2104749
1.2104821
1.2104844
1.21048
1.2104665
1.2104415
1.2104018
1.2103433
1.210261
1.2101567
1.2100568
1.2099577
1.2097881
1.2095426
1.2092831
1.2090279
1.208764
1.2084837
1.2081853
1.2078555
1.2074522
1.2068883
1.2057926
1.2098656
1.2098906
1.2099056
1.2099166
1.2099278
1.2099397
1.209952
1.2099637
1.209974
1.2099825
1.209988
1.2099891
1.2099842
1.2099715
1.2099491
1.2099147
1.2098659
1.2097994
1.2097132
1.2096107
1.2095118
1.2093799
1.2091832
1.2089713
1.2087553
1.2085158
1.2082439
1.2079166
1.2074749
1.2068409
1.2063816
1.2095094
1.2095228
1.2095307
1.2095366
1.2095427
1.2095494
1.2095563
1.2095631
1.2095694
1.2095749
1.2095788
1.2095805
1.209579
1.2095734
1.2095622
1.2095434
1.209515
1.2094745
1.2094187
1.2093451
1.2092586
1.2091793
1.2090719
1.2089149
1.2087407
1.2085421
1.2083081
1.208004
1.207553
1.2067621
1.2049981
1.2092979
1.2093081
1.2093148
1.2093197
1.2093238
1.2093276
1.2093308
1.2093333
1.2093349
1.2093354
1.2093344
1.2093313
1.2093257
1.2093168
1.2093034
1.2092847
1.2092603
1.2092297
1.2091917
1.2091449
1.2090881
1.2090266
1.2089818
1.2089091
1.2087778
1.20863
1.2084647
1.2082476
1.2079293
1.2073969
1.2052811
1.209348
1.2093512
1.2093521
1.2093516
1.2093503
1.2093483
1.2093459
1.2093429
1.2093392
1.2093345
1.2093286
1.209321
1.2093114
1.2092992
1.2092838
1.2092645
1.2092406
1.2092112
1.209175
1.2091304
1.2090755
1.2090075
1.2089305
1.208867
1.2088157
1.2087462
1.2086667
1.2085961
1.2085203
1.2086641
1.2080135
1.2090917
1.2091137
1.2091289
1.2091378
1.2091415
1.2091407
1.2091354
1.2091256
1.2091114
1.2090927
1.2090696
1.2090425
1.2090118
1.2089779
1.2089413
1.2089024
1.2088615
1.2088184
1.2087729
1.2087239
1.2086697
1.208606
1.2085244
1.2084216
1.2083148
1.2082599
1.2082587
1.2082737
1.2082987
1.2088838
1.208064
1.1892239
1.1890939
1.1889939
1.189048
1.1892759
1.1896966
1.1903138
1.1910817
1.1920017
1.1930475
1.194172
1.1953708
1.1965453
1.1976213
1.1987176
1.1997185
1.2006096
1.2014143
1.2021142
1.2027137
1.2032125
1.203607
1.2039092
1.2041108
1.2042435
1.2042725
1.2043296
1.2042091
1.204205
1.2036446
1.2039782
1.1885297
1.1885655
1.1886084
1.188821
1.1892041
1.189761
1.1904806
1.1913415
1.1923175
1.1933901
1.1945217
1.1956931
1.1967994
1.1978414
1.1989009
1.1998485
1.2006977
1.201467
1.2021435
1.2027251
1.2032105
1.2035973
1.2038962
1.2040977
1.2042317
1.2042636
1.204326
1.2042078
1.2042067
1.2036807
1.2040466
1.1873794
1.1874908
1.1876936
1.1881181
1.188718
1.189468
1.190366
1.1913662
1.1924446
1.1936
1.1947833
1.1959452
1.1970342
1.1981002
1.1991367
1.200043
1.2008757
1.2016264
1.2022848
1.2028488
1.203319
1.2036922
1.2039789
1.2041698
1.2042942
1.2043201
1.2043792
1.2042564
1.2042518
1.2037439
1.2041006
1.1860193
1.1863571
1.1868236
1.1874994
1.1883187
1.1892521
1.1903001
1.1914195
1.1925882
1.1938225
1.1950217
1.1961752
1.1972872
1.1983679
1.1993745
1.2002405
1.2010631
1.2017923
1.2024284
1.2029708
1.2034209
1.2037762
1.2040472
1.2042252
1.2043392
1.2043588
1.2044128
1.2042887
1.2042791
1.2038023
1.2041694
1.1846454
1.1852753
1.1860262
1.1869532
1.1879869
1.1891006
1.1903017
1.1915371
1.192787
1.194063
1.1952624
1.1964371
1.1975621
1.1986359
1.1995955
1.2004364
1.2012442
1.2019491
1.2025626
1.2030838
1.2035153
1.2038546
1.2041124
1.20428
1.2043856
1.2044004
1.2044514
1.204324
1.2043129
1.2038622
1.2042401
1.1834065
1.1843442
1.1853598
1.1865186
1.1877477
1.1890329
1.1903835
1.19172
1.1930132
1.1943149
1.1955415
1.1967235
1.1978535
1.1988983
1.1998054
1.2006433
1.2014256
1.2021061
1.2026977
1.2031985
1.203612
1.2039359
1.2041806
1.2043375
1.2044341
1.2044435
1.2044887
1.2043604
1.2043465
1.2039225
1.2043127
1.1823386
1.1835914
1.1848748
1.1862278
1.1876285
1.1890783
1.1905295
1.1919327
1.1932866
1.1946069
1.1958473
1.1970328
1.1981546
1.1991503
1.2000201
1.2008527
1.2016083
1.2022648
1.2028342
1.2033146
1.20371
1.2040182
1.2042495
1.2043955
1.2044831
1.2044868
1.2045261
1.2043963
1.2043811
1.203983
1.2043978
1.1815455
1.1830126
1.1845427
1.186113
1.187681
1.1892377
1.1907575
1.1922128
1.1936044
1.1949339
1.1961815
1.1973679
1.1984552
1.1993861
1.2002442
1.2010639
1.2017922
1.2024244
1.2029712
1.2034311
1.2038084
1.2041009
1.204319
1.2044542
1.2045327
1.2045309
1.2045635
1.2044329
1.2044165
1.2040432
1.2044522
1.181109
1.1827737
1.1844824
1.1861955
1.1878744
1.1895078
1.1910764
1.1925617
1.1939682
1.1953015
1.1965522
1.1977128
1.1987292
1.1996254
1.2004877
1.2012774
1.2019774
1.2025847
1.2031088
1.2035481
1.2039073
1.2041843
1.2043893
1.2045137
1.2045831
1.2045755
1.2046009
1.20447
1.2044526
1.2041038
1.2045271
1.1811007
1.1828928
1.1847001
1.1864838
1.1882219
1.189901
1.1914922
1.1929826
1.1943897
1.1957221
1.196947
1.1980407
1.1989926
1.1998829
1.2007351
1.2014927
1.202164
1.2027459
1.2032469
1.2036656
1.2040068
1.2042683
1.2044601
1.2045737
1.204634
1.2046207
1.2046387
1.2045077
1.2044894
1.2041644
1.2045705
1.1815439
1.1833807
1.1852027
1.1869847
1.1887294
1.1904184
1.192004
1.1934852
1.194878
1.1961721
1.1973232
1.1983356
1.1992749
1.2001702
1.2009856
1.2017102
1.2023522
1.202908
1.2033856
1.2037835
1.2041067
1.2043527
1.2045315
1.2046344
1.2046855
1.2046662
1.2046768
1.2045459
1.2045268
1.2042252
1.204628
1.182271
1.1841235
1.1859224
1.1876864
1.1894243
1.1910713
1.1925961
1.1940346
1.1953819
1.1966001
1.1976622
1.1986562
1.1996056
1.2004646
1.2012397
1.2019304
1.2025418
1.2030709
1.2035248
1.2039019
1.204207
1.2044376
1.2046033
1.2046954
1.2047374
1.2047122
1.2047154
1.2045845
1.2045649
1.2042861
1.2046848
1.1829436
1.1848438
1.1866642
1.1884731
1.1902508
1.191823
1.193227
1.1945787
1.1958574
1.1969965
1.198038
1.1990442
1.1999502
1.200763
1.2014979
1.2021531
1.202733
1.2032347
1.2036645
1.2040205
1.2043076
1.2045227
1.2046754
1.2047569
1.2047897
1.2047584
1.2047544
1.2046235
1.2046035
1.2043469
1.2047472
1.1844098
1.1860696
1.1876741
1.189363
1.1911086
1.1926003
1.1939144
1.1951834
1.1963582
1.1974568
1.1985071
1.1994554
1.200303
1.2010682
1.2017607
1.2023785
1.2029256
1.2033992
1.2038045
1.2041394
1.2044083
1.204608
1.2047478
1.2048186
1.2048422
1.2048049
1.2047939
1.2046629
1.2046427
1.2044074
1.2048138
1.1874216
1.1887382
1.1900331
1.1912235
1.1922692
1.1934953
1.1948059
1.1959817
1.197053
1.1980614
1.1990137
1.1998821
1.2006674
1.201381
1.202028
1.2026064
1.2031197
1.2035644
1.2039449
1.2042584
1.2045091
1.2046934
1.2048203
1.2048805
1.204895
1.2048516
1.2048337
1.2047024
1.2046825
1.2044671
1.2048811
1.1898909
1.1909963
1.1919941
1.1929509
1.1938751
1.1948595
1.1958939
1.196885
1.1978179
1.1987051
1.1995443
1.2003275
1.2010446
1.2017014
1.2022998
1.2028369
1.2033151
1.2037301
1.2040854
1.2043773
1.2046098
1.2047787
1.2048928
1.2049425
1.2049479
1.2048984
1.2048738
1.2047422
1.2047227
1.2045261
1.2049608
1.1927697
1.1935567
1.19421
1.1948756
1.1955695
1.1963023
1.197075
1.1978574
1.1986273
1.1993785
1.2001012
1.2007927
1.2014344
1.2020293
1.2025762
1.2030699
1.2035118
1.2038963
1.2042258
1.2044961
1.2047103
1.2048638
1.2049652
1.2050044
1.205001
1.2049454
1.2049141
1.2047822
1.2047629
1.204584
1.2050139
1.1959473
1.1963752
1.1966464
1.1969675
1.1973609
1.1978173
1.1983354
1.1988985
1.1994875
1.2000894
1.2006859
1.2012772
1.2018367
1.2023648
1.202857
1.2033053
1.2037094
1.2040627
1.2043661
1.2046144
1.2048103
1.2049485
1.2050373
1.2050662
1.2050541
1.2049924
1.2049548
1.2048224
1.2048031
1.204641
1.205082
1.1994026
1.1994388
1.1992922
1.1992283
1.1992802
1.1994326
1.199681
1.2000088
1.2004002
1.2008398
1.201298
1.2017808
1.2022514
1.2027077
1.2031422
1.2035429
1.2039079
1.204229
1.2045058
1.204732
1.2049096
1.2050326
1.2051089
1.2051278
1.2051074
1.2050396
1.2049958
1.204863
1.2048434
1.2046968
1.2051481
1.2030844
1.2027102
1.2021236
1.2016467
1.2013258
1.2011469
1.2011081
1.2011857
1.2013637
1.2016293
1.2019373
1.202303
1.2026785
1.203058
1.2034313
1.2037821
1.2041065
1.2043945
1.2046444
1.2048484
1.2050077
1.2051157
1.2051799
1.2051889
1.2051611
1.205087
1.2050375
1.2049042
1.2048838
1.2047519
1.2052297
1.20692
1.2061254
1.2050924
1.2041899
1.2034764
1.2029438
1.2026072
1.2024265
1.202377
1.2024591
1.2026044
1.2028438
1.2031174
1.2034144
1.2037229
1.2040213
1.2043036
1.2045578
1.2047806
1.2049626
1.2051039
1.2051974
1.2052498
1.2052495
1.2052154
1.2051349
1.2050801
1.2049463
1.2049249
1.2048065
1.2052865
1.2108991
1.209665
1.2081868
1.2068604
1.2057464
1.2048406
1.2042002
1.203752
1.2034557
1.2033414
1.2033058
1.2034049
1.2035673
1.2037746
1.2040136
1.2042572
1.2044962
1.2047165
1.2049125
1.2050731
1.2051974
1.2052771
1.2053184
1.2053094
1.2052707
1.2051835
1.205124
1.2049895
1.2049669
1.2048614
1.2053593
1.2151812
1.2135441
1.2116706
1.2099181
1.2083562
1.2070235
1.2060305
1.2052474
1.2046596
1.2043142
1.2040637
1.2039962
1.204031
1.2041378
1.2043013
1.2044873
1.2046822
1.2048688
1.205039
1.2051795
1.2052879
1.2053547
1.2053858
1.2053686
1.2053278
1.2052333
1.2051693
1.2050341
1.2050096
1.2049162
1.205433
1.2192647
1.2176376
1.2157774
1.2137007
1.2116678
1.2098426
1.2083006
1.2070087
1.2060716
1.2054217
1.2049116
1.2046422
1.2045266
1.2045185
1.2045979
1.2047216
1.2048697
1.2050214
1.2051653
1.2052855
1.205378
1.2054321
1.205453
1.2054277
1.2053873
1.2052848
1.2052162
1.2050801
1.2050529
1.2049718
1.2055167
1.1903857
1.1903935
1.1903187
1.1903104
1.1904271
1.1906813
1.1911089
1.191682
1.1924147
1.193288
1.1942594
1.1953285
1.1964166
1.1974401
1.1984887
1.1994699
1.2003575
1.2011731
1.201895
1.2025157
1.2030386
1.2034577
1.203783
1.2040049
1.2041545
1.2041948
1.2042582
1.2041402
1.2041362
1.2035568
1.2038769
1.1907227
1.1907124
1.1907099
1.190754
1.1908571
1.1910831
1.1914405
1.1919505
1.192619
1.1934317
1.1943511
1.1953701
1.1964208
1.1974294
1.1984566
1.1994225
1.2003042
1.2011184
1.2018436
1.2024654
1.20299
1.2034132
1.2037431
1.2039695
1.2041235
1.2041671
1.2042282
1.2041142
1.2041102
1.20352
1.2038284
1.1908775
1.1909288
1.1909895
1.191073
1.1912068
1.1914334
1.1917674
1.1922387
1.1928553
1.1936109
1.1944772
1.1954428
1.1964499
1.1974347
1.1984375
1.1993867
1.200262
1.2010704
1.2017936
1.2024158
1.2029407
1.2033677
1.2037015
1.2039321
1.2040902
1.2041372
1.2041954
1.2040833
1.2040817
1.2034766
1.2037654
1.1910969
1.1912174
1.1913284
1.1914384
1.1915856
1.1918056
1.1921189
1.1925517
1.1931153
1.1938103
1.1946175
1.1955248
1.1964835
1.1974383
1.1984135
1.1993445
1.2002118
1.2010147
1.2017355
1.2023603
1.2028882
1.2033185
1.2036568
1.203892
1.2040546
1.2041052
1.2041593
1.2040498
1.2040521
1.203431
1.2036833
1.191332
1.1915024
1.191651
1.1917888
1.1919492
1.1921658
1.1924623
1.1928616
1.193378
1.1940164
1.1947656
1.1956146
1.1965238
1.1974446
1.1983894
1.1993002
1.2001569
1.2009537
1.2016712
1.2022988
1.2028323
1.2032652
1.2036086
1.2038489
1.2040162
1.2040709
1.2041209
1.2040144
1.1915451
1.1917477
1.1919281
1.1920944
1.1922737
1.1924953
1.1927827
1.1931574
1.1936354
1.1942248
1.1949205
1.1901659
1.1904644
1.1907046
1.1909256
1.1911299
1.1894668
1.1898186
1.2265058
1.2251208
1.1885834
1.1887338
1.1888837
1.1891409
1.1871402
1.1871696
1.1872287
1.1876187
1.1881526
1.183566
1.1842812
1.1847346
1.1853476
1.1861049
1.1868582
1.1797429
1.1815083
1.1823176
1.183237
1.1842677
1.1852584
1.1758288
1.1784577
1.1796614
1.1809592
1.1822906
1.1835656
1.172456
1.175956
1.1774052
1.178858
1.1804995
1.1820175
1.169925
1.173832
1.1754252
1.1771282
1.1789764
1.1806822
1.1680123
1.1724188
1.1739971
1.1758101
1.1778278
1.1797079
1.1663708
1.1715303
1.173113
1.1749885
1.1771166
1.179122
1.1649293
1.1711594
1.172992
1.1749013
1.1770146
1.1790542
1.1647603
1.1709562
1.1732938
1.1754142
1.1775059
1.1795265
1.1663565
1.1712623
1.1733503
1.1758009
1.1781525
1.1802788
1.1698389
1.1739719
1.1746926
1.1766054
1.1788132
1.1809797
1.1733781
1.1772051
1.1777071
1.17923
1.1810359
1.1828739
1.1755559
1.1794455
1.1809833
1.1827815
1.1845753
1.1862912
1.1792478
1.1829643
1.184254
1.1857247
1.1873352
1.1889678
1.1836179
1.1869017
1.1880686
1.1893519
1.1907602
1.1922261
1.1884537
1.1913807
1.1924266
1.1934306
1.19458
1.1958366
1.1936401
1.1962794
1.1971617
1.197879
1.1987467
1.199764
1.1992693
1.2015553
1.2022309
1.2026419
1.2032001
1.2039454
1.2052658
1.2070729
1.2075202
1.207617
1.2078451
1.2082942
1.2114543
1.2127911
1.2129647
1.2127355
1.2126247
1.2127741
1.2185912
1.2184834
1.2179468
1.2175308
1.2174383
1.2239449
1.2231041
1.2223223
1.2218463
1.2266478
1.2272435
1.227491
1.2275096
1.227275
1.2268263
1.2261638
1.22537
1.2245418
1.2236966
1.2229734
1.2223052
1.2216045
1.2217048
1.2211038
1.2212171
1.2205348
1.2206722
1.2198689
1.2200415
1.2190651
1.2192709
1.2181238
1.2183468
1.2170737
1.2172948
1.2159745
1.2161808
1.2148597
1.2150422
1.2137612
1.2139138
1.2127354
1.2128586
1.2118001
1.211895
1.2109945
1.2110642
1.2103244
1.2103723
1.2098532
1.2098816
1.2095035
1.2095161
1.2092907
1.2092971
1.2093442
1.2093479
1.209051
1.2090668
)
;

boundaryField
{
    Side1
    {
        type            empty;
    }
    Inlet
    {
        type            calculated;
        value           nonuniform List<scalar> 
92
(
1.2154859
1.2013837
1.2154859
1.2013869
1.2013888
1.201391
1.2013936
1.2013966
1.2014002
1.2014043
1.2014091
1.2014147
1.2014213
1.2014289
1.2014379
1.2014483
1.2014605
1.2014747
1.2014914
1.2015111
1.2015347
1.201563
1.201596
1.2016315
1.2016685
1.2154859
1.2017406
1.2154859
1.2154859
1.2019096
1.2020535
1.2020535
1.2020535
1.2020535
1.2020535
1.2020535
1.2020535
1.2020535
1.2020535
1.2020535
1.2020535
1.2020535
1.2020535
1.2020535
1.2020535
1.2020535
1.2020535
1.2020535
1.2020535
1.2020535
1.2020535
1.2020535
1.2020535
1.2020535
1.2020535
1.2020535
1.2020535
1.2020535
1.2020535
1.2020535
1.2023017
1.2020535
1.201337
1.201339
1.2013411
1.2013432
1.2013454
1.2154859
1.2013497
1.2154859
1.2013536
1.2013555
1.2013574
1.2013593
1.2013613
1.2013633
1.2154859
1.2013671
1.2013689
1.2013708
1.2154859
1.2013743
1.201376
1.2013778
1.2013795
1.2013814
1.2154859
1.2154859
1.2154859
1.2154859
1.2020535
1.2020535
)
;
    }
    Side2
    {
        type            empty;
    }
    Outlet
    {
        type            calculated;
        value           nonuniform List<scalar> 0();
    }
    Botwall
    {
        type            calculated;
        value           nonuniform List<scalar> 0();
    }
    Cyli
    {
        type            calculated;
        value           nonuniform List<scalar> 
20
(
1.183566
1.1797429
1.1758288
1.172456
1.169925
1.1680123
1.1663708
1.1649293
1.1647603
1.1663565
1.1698389
1.1733781
1.1755559
1.1792478
1.1836179
1.1884537
1.1936401
1.1992693
1.2052658
1.2114543
)
;
    }
    procBoundary2to0
    {
        type            processor;
        value           nonuniform List<scalar> 
55
(
1.1899717
1.1902054
1.1904594
1.1906738
1.1908525
1.1893453
1.1898369
1.1889847
1.189086
1.189086
1.2292101
1.2279813
1.2279813
1.2309711
1.2290715
1.1884624
1.1884624
1.1862998
1.1862998
1.2177144
1.2177144
1.2243334
1.2243334
1.2295111
1.2290665
1.2288135
1.2284811
1.2279777
1.2273189
1.2264219
1.2254341
1.2244624
1.2235953
1.2228396
1.2221803
1.2221803
1.2217454
1.2211972
1.2205807
1.2198655
1.2190172
1.2180444
1.2169774
1.2158715
1.2147583
1.2136687
1.212654
1.2117319
1.21094
1.2102839
1.2098272
1.2094911
1.2092839
1.2093375
1.2090395
)
;
    }
    procBoundary2to3
    {
        type            processor;
        value           nonuniform List<scalar> 
35
(
1.204021
1.2033835
1.2036016
1.1957142
1.1965741
1.1974586
1.1983705
1.199259
1.2001024
1.2008914
1.2016053
1.202234
1.202772
1.2032085
1.2035571
1.2038028
1.2039753
1.2040344
1.2040813
1.204021
1.2039775
1.1917359
1.1913216
1.1919625
1.1921699
1.192363
1.1925634
1.1927956
1.1930808
1.193439
1.1938868
1.1944347
1.1957142
1.1950823
1.1913216
)
;
    }
}


// ************************************************************************* //
