/*--------------------------------*- C++ -*----------------------------------*\
| =========                 |                                                 |
| \\      /  F ield         | OpenFOAM: The Open Source CFD Toolbox           |
|  \\    /   O peration     | Version:  2406                                  |
|   \\  /    A nd           | Website:  www.openfoam.com                      |
|    \\/     M anipulation  |                                                 |
\*---------------------------------------------------------------------------*/
FoamFile
{
    version     2.0;
    format      ascii;
    arch        "LSB;label=32;scalar=64";
    class       volVectorField;
    location    "0.007";
    object      U;
}
// * * * * * * * * * * * * * * * * * * * * * * * * * * * * * * * * * * * * * //

dimensions      [0 1 -1 0 0 0 0];

internalField   nonuniform List<vector> 
23203
(
(54.467813 19.327866 -1.0520257e-20)
(54.94435 18.858092 0)
(55.405454 18.401564 0)
(55.850494 17.956756 0)
(56.277176 17.522069 5.4698774e-21)
(56.682061 17.09571 -1.1209655e-20)
(57.060486 16.675774 -5.7799303e-21)
(57.406786 16.260445 0)
(57.715513 15.846697 0)
(57.978283 15.429742 6.6370551e-21)
(58.174477 15.01343 -2.1183566e-20)
(58.299551 14.581577 -1.5050387e-20)
(58.353659 14.153039 8.1033839e-21)
(58.327287 13.699087 -2.6467324e-20)
(58.211035 13.232844 0)
(58.015468 12.752264 0)
(57.76319 12.264784 -3.302765e-20)
(57.487901 11.782603 2.320545e-20)
(57.224276 11.318916 -2.4074924e-20)
(56.994379 10.882577 2.4598708e-20)
(56.80243 10.47513 -6.2069034e-20)
(56.640896 10.092993 -8.6985914e-20)
(56.499374 9.7312946 2.4745083e-20)
(56.369533 9.3860364 6.1422281e-20)
(56.246139 9.0545016 4.8685334e-20)
(56.126385 8.7350067 1.2042482e-20)
(56.00885 8.4265277 3.5741778e-20)
(55.892836 8.1283866 0)
(55.778038 7.8400786 0)
(55.66434 7.5612196 0)
(55.551689 7.2914868 4.5389987e-20)
(55.440066 7.030601 4.4808538e-20)
(55.329484 6.7782986 4.4224337e-20)
(55.219966 6.5343403 1.0910198e-20)
(55.111553 6.2984857 -1.0762166e-20)
(55.004293 6.0705166 4.2457357e-20)
(54.89824 5.8502166 -5.2329574e-20)
(54.793453 5.6373746 -2.5793153e-20)
(54.689947 5.4317708 3.1759764e-25)
(54.587741 5.2331813 -8.5127679e-20)
(54.486813 5.0414084 0)
(54.38718 4.8562463 7.28337e-20)
(54.288896 4.6774899 -7.6472836e-20)
(54.19196 4.5049671 4.7029375e-21)
(54.096358 4.3384884 7.8655513e-20)
(54.002163 4.1778508 6.8257329e-20)
(53.909468 4.0228873 4.4743585e-21)
(53.81825 3.8734204 6.1578672e-20)
(53.728542 3.7292549 1.3833329e-19)
(53.640405 3.5902322 8.4979826e-21)
(53.553825 3.4561681 -4.173448e-21)
(53.468866 3.3268833 6.9696363e-20)
(53.385565 3.2022246 -8.0536712e-21)
(53.303891 3.0820376 6.7227485e-20)
(53.223861 2.9661455 6.6013444e-20)
(53.145511 2.8544064 1.5765065e-25)
(53.068882 2.7466657 1.1977071e-19)
(52.993958 2.6427702 -3.6737988e-21)
(52.920813 2.5425507 1.1178272e-19)
(52.849511 2.4458731 7.077586e-21)
(52.780028 2.3526 -3.4726434e-21)
(52.712373 2.2625751 -1.0904376e-19)
(52.646503 2.1757319 0)
(52.58237 2.0919692 -1.0826312e-19)
(52.519878 2.0112264 -9.978482e-20)
(52.458921 1.9333836 1.4033692e-24)
(52.399465 1.8583557 0)
(52.341476 1.7860471 -9.42175e-20)
(52.284993 1.7163534 -2.9812917e-21)
(52.230054 1.6491389 1.0723537e-24)
(52.176683 1.5842736 0)
(52.124967 1.5216085 0)
(52.074948 1.4610071 -1.7657342e-19)
(52.026657 1.4023499 -1.6525042e-24)
(51.980107 1.3455268 -2.6534749e-21)
(51.935289 1.2904257 5.2042611e-21)
(51.892182 1.236999 1.5820988e-19)
(51.850742 1.1851306 1.6015007e-19)
(51.810935 1.1348053 -1.5459261e-19)
(51.772701 1.0858979 0)
(51.735996 1.03839 -1.5101276e-19)
(51.70076 0.99215722 0)
(51.666962 0.94716797 1.429366e-19)
(51.634562 0.90332324 2.2247405e-21)
(51.603557 0.86056917 0)
(51.573935 0.8188643 -1.3690326e-19)
(51.545676 0.77812582 0)
(51.518766 0.7382975 1.3163166e-19)
(51.493193 0.69931398 -1.3007955e-19)
(51.468934 0.66106823 1.9775022e-21)
(51.445979 0.62350299 -9.6950808e-22)
(51.424294 0.58653921 0)
(51.403856 0.55012511 0)
(51.384645 0.51416463 2.3306094e-19)
(51.366638 0.47859829 1.842711e-27)
(51.349813 0.4433489 -2.2406678e-19)
(51.334167 0.40834168 0)
(51.319716 0.37349062 9.5344556e-25)
(51.306487 0.3387118 0)
(51.294492 0.30396209 -2.0791162e-19)
(51.283766 0.26912757 -8.5980831e-25)
(51.274238 0.23425797 0)
(51.266018 0.19907945 -1.9579142e-19)
(51.258923 0.16392617 1.9197655e-19)
(51.253276 0.12802433 0)
(51.248719 0.092505456 0)
(51.24588 0.055349162 1.8116915e-19)
(51.243863 0.019354287 -1.7748564e-19)
(54.12389 19.379094 0)
(54.615793 18.918794 5.3380459e-21)
(55.091259 18.470031 1.4469203e-24)
(55.548829 18.031712 -5.4616583e-21)
(55.98602 17.60231 -5.5670268e-21)
(56.399288 17.180063 1.1420823e-20)
(56.783936 16.763026 -5.900295e-21)
(57.134184 16.3491 6.1361434e-21)
(57.443545 15.935408 1.2866779e-20)
(57.702894 15.518623 -6.7954393e-21)
(57.895129 15.095771 2.1697641e-20)
(58.014996 14.659804 -7.7039e-21)
(58.060253 14.225409 8.2910345e-21)
(58.020969 13.761383 -1.8024378e-20)
(57.894065 13.285113 9.734101e-21)
(57.693122 12.79357 -3.1353778e-20)
(57.444004 12.296719 4.4456152e-20)
(57.182187 11.808649 0)
(56.940291 11.343115 2.4090413e-20)
(56.735232 10.907702 1.2263713e-20)
(56.566402 10.502032 4.9393705e-20)
(56.424088 10.1213 -2.4684805e-20)
(56.297996 9.7603127 1.2273601e-20)
(56.180775 9.4152031 -3.6526761e-20)
(56.06815 9.0834617 -1.2059963e-20)
(55.957979 8.7635679 4.7729137e-20)
(55.849226 8.4546006 0)
(55.741394 8.1559345 0)
(55.634293 7.8670866 3.4551908e-20)
(55.52788 7.5876865 5.68632e-20)
(55.422142 7.317418 -1.1226948e-20)
(55.31709 7.0560072 -3.3241703e-20)
(55.212763 6.8031917 -4.3730886e-20)
(55.109199 6.558735 0)
(55.006459 6.3223951 0)
(54.904605 6.0939552 -4.1944839e-20)
(54.803703 5.8731993 3.1008436e-20)
(54.703817 5.6599125 5.0923764e-20)
(54.604968 5.4538704 0)
(54.507187 5.2548393 9.8818288e-21)
(54.410465 5.0626238 -9.728952e-21)
(54.314827 4.8770224 9.5769698e-21)
(54.220342 4.6978251 6.5967089e-20)
(54.127018 4.5248633 -7.8810323e-20)
(54.034843 4.357948 4.5626271e-21)
(53.943905 4.1968767 -1.3899529e-19)
(53.854303 4.0414826 7.0530286e-20)
(53.766014 3.8915837 -1.3864759e-19)
(53.679084 3.7469829 -7.2383232e-20)
(53.593582 3.6075242 -6.6937004e-20)
(53.509494 3.4730216 6.9871255e-20)
(53.426902 3.3432964 -8.0742139e-21)
(53.345845 3.218197 3.9648856e-21)
(53.266293 3.0975682 0)
(53.188273 2.9812315 0)
(53.111828 2.8690482 -1.2011406e-19)
(53.037 2.7608645 -1.1791017e-19)
(52.963776 2.6565271 3.6169044e-21)
(52.89224 2.555869 -1.1714412e-19)
(52.82246 2.4587556 1.1148381e-19)
(52.754412 2.3650472 3.418846e-21)
(52.688116 2.2745862 -3.3547109e-21)
(52.623538 2.1873112 0)
(52.560631 2.1031203 -1.0658789e-19)
(52.4993 2.0219508 1.0140871e-19)
(52.439438 1.943685 -9.6384845e-20)
(52.381021 1.8682393 0)
(52.324015 1.7955203 -1.2600666e-24)
(52.26846 1.7254265 0)
(52.214391 1.6578221 -9.2147017e-20)
(52.161834 1.5925797 0)
(52.11088 1.5295518 8.8653231e-20)
(52.061572 1.4685982 8.6949386e-20)
(52.013947 1.4096051 3.4110805e-19)
(51.968019 1.3524547 2.6135926e-21)
(51.923787 1.297039 1.6148068e-19)
(51.88123 1.2433043 -3.2175472e-19)
(51.840308 1.1911359 2.4664993e-21)
(51.800987 1.1405169 1.4988742e-19)
(51.763209 1.0913213 -1.4936223e-19)
(51.726932 1.0435317 1.4879746e-19)
(51.692097 0.99702233 0)
(51.658675 0.95176471 9.7197096e-25)
(51.626627 0.90765815 0)
(51.595956 0.86465288 0)
(51.566647 0.82270432 0)
(51.53868 0.78173056 1.3232941e-19)
(51.512045 0.74167447 1.0137945e-21)
(51.486725 0.70246993 -9.9414385e-22)
(51.462702 0.66400874 1.2575931e-19)
(51.439967 0.62623345 -2.4568654e-19)
(51.418488 0.58906452 9.3743894e-22)
(51.398242 0.5524512 2.3533006e-19)
(51.379209 0.51629555 -9.0142111e-22)
(51.361368 0.48053935 0)
(51.344698 0.44510528 2.2276163e-19)
(51.329195 0.40992193 -1.6999066e-21)
(51.314876 0.37490222 -4.25897e-19)
(51.301769 0.3399655 0)
(51.289886 0.30506544 -8.9050052e-25)
(51.279263 0.27008946 2.0156679e-19)
(51.269827 0.2350814 -3.8529027e-22)
(51.261689 0.19977219 1.9343997e-19)
(51.254662 0.16448585 -3.7937684e-19)
(51.249073 0.12846017 0)
(51.244557 0.092810103 0)
(51.241751 0.055520617 -4.2939584e-23)
(51.23974 0.019412218 4.2789264e-23)
(53.71638 19.400495 -5.2162067e-21)
(54.225663 18.952906 -6.0939385e-25)
(54.717363 18.514785 -5.305733e-21)
(55.189652 18.085308 5.3923383e-21)
(55.639885 17.663148 -1.1027325e-20)
(56.064431 17.246659 0)
(56.458522 16.833907 0)
(56.816221 16.422623 1.2240693e-20)
(57.130472 16.009916 -1.2855923e-20)
(57.391984 15.593348 -6.8072749e-21)
(57.586632 15.166277 -7.2588498e-21)
(57.706327 14.728661 1.5488008e-20)
(57.748623 14.286477 -1.6688255e-20)
(57.704336 13.813904 2.7239641e-20)
(57.575073 13.329182 9.8045447e-21)
(57.376677 12.829709 3.1521642e-20)
(57.137534 12.327892 6.2990869e-24)
(56.893486 11.839094 1.1656266e-20)
(56.674128 11.376386 -1.199328e-20)
(56.491788 10.945119 -1.2178596e-20)
(56.34277 10.542975 -4.894981e-20)
(56.216709 10.164469 4.8858421e-20)
(56.104012 9.8045838 -4.8577155e-20)
(55.998221 9.4598437 4.8175501e-20)
(55.895723 9.128039 0)
(55.794804 8.8078362 5.900001e-20)
(55.694654 8.4984237 8.7029435e-25)
(55.594895 8.1992346 4.6115998e-20)
(55.495408 7.9098125 -1.0248546e-19)
(55.396204 7.629807 -7.8710107e-20)
(55.297306 7.3589109 7.4825342e-25)
(55.198751 7.0968583 -1.0957537e-20)
(55.100598 6.8433874 3.2420187e-20)
(55.002904 6.5982644 5.3300572e-20)
(54.905745 6.3612449 0)
(54.8092 6.1321118 4.1448262e-20)
(54.713344 5.9106477 2.6998607e-24)
(54.61825 5.6966314 1.0062403e-20)
(54.523941 5.4898344 6.9378928e-20)
(54.430467 5.2900153 0)
(54.337836 5.0969871 0)
(54.246076 4.9105552 9.4556448e-21)
(54.155271 4.7305038 -9.3032382e-21)
(54.065441 4.5566735 1.3727752e-19)
(53.976575 4.3888797 -6.3002728e-20)
(53.888767 4.2269224 8.8470473e-21)
(53.802131 4.0706382 -8.696641e-21)
(53.716643 3.9198457 -2.559664e-24)
(53.632364 3.774349 0)
(53.549374 3.633998 -4.1274535e-21)
(53.46766 3.4986081 -6.0815887e-20)
(53.387316 3.3680026 -3.9823763e-21)
(53.30839 3.2420315 3.9108262e-21)
(53.230854 3.1205422 6.5286937e-20)
(53.154739 3.0033549 1.5068386e-25)
(53.080095 2.8903342 1.184564e-19)
(53.006969 2.7813282 -3.6337551e-21)
(52.935348 2.676185 -3.5668074e-21)
(52.865322 2.5747398 3.500518e-21)
(52.796967 2.4768568 -1.0993083e-19)
(52.730261 2.3823954 0)
(52.665236 2.2911961 -3.3079791e-21)
(52.601869 2.2032012 -1.0176789e-25)
(52.540116 2.1183076 3.1829205e-21)
(52.479881 2.0364498 -9.686289e-20)
(52.421058 1.9575135 -3.0654836e-21)
(52.363629 1.8814154 3.0075087e-21)
(52.307557 1.8080643 9.4411668e-20)
(52.25288 1.7373614 -5.7884665e-21)
(52.199633 1.6691709 -8.8009806e-20)
(52.147842 1.6033679 0)
(52.097598 1.5398058 -8.7400978e-20)
(52.04895 1.4783403 0)
(52.001941 1.418862 -2.6255735e-21)
(51.956586 1.3612451 2.5766205e-21)
(51.912893 1.3053848 -1.6172405e-19)
(51.87084 1.2512202 3.1720651e-19)
(51.830394 1.1986379 -1.5796994e-19)
(51.791521 1.1476183 4.7667178e-21)
(51.754165 1.0980345 1.4724836e-19)
(51.718285 1.0498698 -1.4669348e-19)
(51.683821 1.0029965 -2.2477378e-21)
(51.650749 0.95738887 -1.4106975e-19)
(51.619028 0.9129443 -1.3401639e-19)
(51.588665 0.86961663 -4.2393812e-21)
(51.559645 0.82735735 2.0786303e-21)
(51.531947 0.78608601 -1.3045554e-19)
(51.505564 0.74574399 0)
(51.480477 0.70626407 9.8007384e-22)
(51.456668 0.66753715 -1.239783e-19)
(51.434134 0.62950482 -1.2926933e-24)
(51.412843 0.5920867 0)
(51.392771 0.55523268 -2.319972e-19)
(51.373898 0.51884318 2.2749728e-19)
(51.356207 0.48286068 2.2308283e-19)
(51.339675 0.44720761 -2.1875276e-19)
(51.324299 0.41181561 -2.136708e-19)
(51.310094 0.37659656 -9.6488428e-25)
(51.297092 0.34147261 -1.2085676e-21)
(51.285303 0.30639414 2.0225646e-19)
(51.274764 0.27124947 3.8736018e-22)
(51.265402 0.23607669 0)
(51.257327 0.20061113 0)
(51.250351 0.16516683 1.8700471e-19)
(51.244807 0.12899267 1.833804e-19)
(51.240321 0.093187574 0)
(51.237539 0.055746308 -3.5270849e-19)
(51.235531 0.019490496 0)
(53.322049 19.395621 5.1210158e-21)
(53.845895 18.96294 -7.2382757e-25)
(54.351324 18.537513 0)
(54.836116 18.118695 -5.3333288e-21)
(55.297377 17.705345 5.4592503e-21)
(55.731298 17.295942 5.6337082e-21)
(56.132951 16.888588 5.8449981e-21)
(56.496188 16.480935 -2.4443889e-20)
(56.813565 16.070105 0)
(57.075808 15.654052 -6.8321897e-21)
(57.271422 15.22229 7.2564089e-21)
(57.387771 14.786723 -2.3266407e-20)
(57.425744 14.335251 8.4243697e-21)
(57.375887 13.855091 0)
(57.244262 13.363024 -2.9663348e-20)
(57.049326 12.857517 -1.058329e-20)
(56.821963 12.353109 -1.1183162e-20)
(56.597606 11.865809 -4.6600678e-20)
(56.402001 11.407326 4.7796873e-20)
(56.242738 10.980684 1.1023627e-24)
(56.113451 10.582057 -6.0655158e-20)
(56.003514 10.205672 0)
(55.904177 9.8468388 4.8055947e-20)
(55.809865 9.5024772 -4.7643821e-20)
(55.71759 9.1706455 0)
(55.626046 8.8501735 -5.8337124e-20)
(55.534637 8.5403504 1.1535109e-20)
(55.443093 8.2406644 -5.6992389e-20)
(55.351362 7.9506832 6.7553206e-20)
(55.25951 7.6700768 7.7822348e-20)
(55.16759 7.3985466 0)
(55.075667 7.1358353 3.2484777e-20)
(54.983819 6.8816822 1.068258e-20)
(54.892123 6.6358594 -1.0532801e-20)
(54.80067 6.3981213 1.0387494e-20)
(54.709557 6.1682528 1.0239301e-20)
(54.618866 5.9460374 -1.0086452e-20)
(54.528679 5.7312494 0)
(54.439023 5.5236607 4.7546936e-24)
(54.349969 5.3230239 9.6371151e-21)
(54.261542 5.1291635 -9.4852811e-21)
(54.173775 4.9418934 0)
(54.086764 4.7609906 9.1832965e-21)
(54.000543 4.5863057 -1.5354954e-19)
(53.915102 4.4176582 -8.8823008e-21)
(53.830539 4.2548505 8.7292491e-21)
(53.746985 4.0977217 -6.0082549e-20)
(53.664413 3.9460896 -8.4377705e-21)
(53.582899 3.7997583 -6.6308387e-20)
(53.502532 3.6585823 0)
(53.423301 3.5223765 0)
(53.345315 3.390965 0)
(53.268626 3.2641987 -5.7857168e-20)
(53.193207 3.1419271 1.8527944e-24)
(53.119098 3.0239677 -3.7183179e-21)
(53.046354 2.9101887 0)
(52.975026 2.8004391 -1.1466306e-19)
(52.905101 2.6945676 -3.516973e-21)
(52.836678 2.5924113 1.1390294e-19)
(52.769838 2.4938327 -3.3872324e-21)
(52.704557 2.3986902 -1.0303758e-19)
(52.640886 2.3068218 -1.0436424e-19)
(52.578808 2.2181735 0)
(52.51828 2.1326403 2.0407896e-19)
(52.459209 2.0501535 9.2410782e-20)
(52.40149 1.970603 3.0220655e-21)
(52.34511 1.8939061 -9.487505e-20)
(52.290033 1.8199734 -9.3072834e-20)
(52.236293 1.748709 0)
(52.183924 1.679977 8.675763e-20)
(52.132953 1.6136551 2.7450629e-21)
(52.083473 1.5495978 0)
(52.035538 1.4876565 8.1861844e-20)
(51.989194 1.4277269 -1.6057064e-19)
(51.944459 1.3696748 4.4317706e-26)
(51.901347 1.3133994 1.5942191e-19)
(51.85984 1.2588321 -3.1512982e-19)
(51.819908 1.2058616 0)
(51.781519 1.1544648 1.503614e-19)
(51.744617 1.1045147 0)
(51.709164 1.0559947 1.4234128e-19)
(51.675101 1.008776 4.431344e-21)
(51.642405 0.96283532 -2.1727747e-21)
(51.611037 0.91806819 -9.3555002e-25)
(51.581007 0.8744327 -1.3372556e-19)
(51.552299 0.83187569 -1.2908646e-19)
(51.524892 0.79031888 -2.0092887e-21)
(51.498781 0.74970213 0)
(51.473945 0.70995675 0)
(51.450369 0.67097353 -1.2126269e-19)
(51.428052 0.63269288 2.3782211e-19)
(51.406964 0.59503365 0)
(51.38708 0.55794615 0)
(51.368382 0.52132965 -2.2512608e-19)
(51.350853 0.48512716 -4.3893976e-19)
(51.334471 0.44926097 8.423123e-22)
(51.319233 0.41366561 4.2289618e-19)
(51.305155 0.37825227 4.138798e-19)
(51.292268 0.34294584 -2.0332049e-19)
(51.280583 0.30769342 0)
(51.270137 0.27238425 -3.8183394e-22)
(51.260857 0.2370505 -1.9133005e-19)
(51.252852 0.20143219 0)
(51.245935 0.16583291 0)
(51.24044 0.12951339 -1.805887e-19)
(51.235989 0.093555916 -2.5966552e-22)
(51.233233 0.055964665 1.7392435e-19)
(51.23123 0.019566249 0)
(52.938521 19.367003 -5.0298339e-21)
(53.474822 18.950732 -4.844617e-25)
(53.991992 18.539548 5.1676164e-21)
(54.48748 18.132883 -8.2838993e-25)
(54.958111 17.729711 1.6260296e-20)
(55.399836 17.328598 -1.6808536e-20)
(55.807504 16.927676 -1.1666093e-20)
(56.174708 16.524565 1.8335972e-20)
(56.493687 16.116412 0)
(56.755169 15.701292 0)
(56.949106 15.267236 2.1949945e-20)
(57.06125 14.829478 -7.8408983e-21)
(57.093135 14.370427 -8.531343e-21)
(57.037225 13.883609 -3.711987e-20)
(56.903677 13.384684 9.9905816e-21)
(56.713947 12.874443 3.1987635e-20)
(56.501002 12.369255 1.1230273e-20)
(56.298735 11.885229 -2.3296699e-20)
(56.128102 11.432145 -1.1895946e-20)
(55.99199 11.010677 -4.8041386e-20)
(55.882003 10.615828 6.0106667e-20)
(55.787754 10.241782 1.1973493e-20)
(55.701521 9.8842575 -1.1887798e-20)
(55.618594 9.5405709 0)
(55.536552 9.2090215 1.1665009e-20)
(55.454453 8.8885833 -1.1538119e-20)
(55.371889 8.5786413 0)
(55.288679 8.2787376 4.5086818e-20)
(55.204827 7.9884617 -1.1132695e-20)
(55.12045 7.7075052 -2.1980627e-20)
(55.035632 7.4355775 -1.0848277e-20)
(54.950459 7.1724309 0)
(54.865032 6.9178062 -5.2795241e-20)
(54.779445 6.6714823 -2.0822126e-20)
(54.693803 6.4332136 2.0529872e-20)
(54.608223 6.2027863 -3.0348501e-20)
(54.522793 5.9799851 -3.9863553e-20)
(54.437602 5.764578 0)
(54.352681 5.5563406 4.7862961e-24)
(54.268127 5.3550198 9.5148428e-21)
(54.183984 5.1604536 -7.4912345e-20)
(54.100284 4.9724642 -9.2130013e-21)
(54.017135 4.7908186 -7.2504927e-20)
(53.934591 4.6153797 7.1303073e-20)
(53.852637 4.4459701 -7.0112956e-20)
(53.77138 4.2823947 1.3784649e-19)
(53.690963 4.1244958 -6.7742866e-20)
(53.611357 3.972091 6.6566261e-20)
(53.532655 3.824985 6.5401485e-20)
(53.454957 3.683037 -5.6217893e-20)
(53.378252 3.5460622 -7.8879369e-21)
(53.302662 3.4138854 -6.1975132e-20)
(53.228247 3.286359 6.0855563e-20)
(53.15498 3.1633353 -6.7220851e-20)
(53.082908 3.0446294 3.6662019e-21)
(53.012093 2.9301136 3.5991005e-21)
(52.942592 2.8196383 1.1304851e-19)
(52.874389 2.713053 0)
(52.807593 2.6101969 -1.0888966e-19)
(52.742289 2.5109316 3.3393175e-21)
(52.678454 2.4151149 1.0485213e-19)
(52.616155 2.3225834 1.0288106e-19)
(52.555384 2.233286 -3.1544539e-21)
(52.4961 2.1471163 -1.9807828e-19)
(52.43821 2.0640013 9.7167719e-20)
(52.381612 1.9838365 0)
(52.326298 1.9065396 9.3517805e-20)
(52.272231 1.8320233 8.8873257e-20)
(52.219443 1.7601946 2.8122437e-21)
(52.167967 1.6909176 8.5515982e-20)
(52.117831 1.6240726 2.7057219e-21)
(52.069126 1.5595155 0)
(52.021914 1.4970934 9.3016953e-25)
(51.976244 1.4367075 2.5527292e-21)
(51.932138 1.3782152 -1.6272838e-19)
(51.889616 1.3215202 -3.1426559e-19)
(51.848662 1.2665454 1.5650594e-19)
(51.809251 1.2131825 -2.3612628e-21)
(51.771351 1.1614041 -2.9640229e-19)
(51.734909 1.1110837 1.4306509e-19)
(51.699889 1.0622041 4.4538638e-21)
(51.666232 1.014636 2.1405948e-26)
(51.633919 0.9683581 1.876084e-26)
(51.602908 0.9232644 1.3230547e-19)
(51.573216 0.87931744 1.3386211e-19)
(51.544825 0.83645867 -2.0203701e-21)
(51.517713 0.79461269 1.2674677e-19)
(51.491878 0.75371772 -9.7102238e-22)
(51.467297 0.71370314 1.2378651e-19)
(51.443957 0.67446039 2.3717065e-19)
(51.421859 0.6359284 1.8312785e-21)
(51.400977 0.59802517 -1.7957665e-21)
(51.381284 0.56070114 6.5850361e-28)
(51.362762 0.5238549 -2.2102728e-19)
(51.345397 0.4874298 2.1758421e-19)
(51.329169 0.45134797 -2.1253315e-19)
(51.314071 0.41554661 -2.0840825e-19)
(51.30012 0.37993658 9.7126837e-25)
(51.28735 0.34444527 2.003975e-19)
(51.27577 0.30901651 0)
(51.265417 0.27354041 1.9269085e-19)
(51.256219 0.2380431 1.8931836e-19)
(51.248286 0.20226951 -1.9448436e-27)
(51.241426 0.1665124 -1.8204601e-19)
(51.23598 0.13004485 0)
(51.231564 0.09393215 -1.7471891e-19)
(51.228834 0.056188454 4.1831635e-23)
(51.226837 0.0196442 -4.0985275e-23)
(52.564239 19.316433 -9.8883181e-21)
(53.11105 18.917651 -5.01291e-21)
(53.638064 18.521861 -5.1047412e-21)
(54.142468 18.128509 -1.0459488e-20)
(54.620809 17.736614 0)
(55.068777 17.344781 -5.583566e-21)
(55.48095 16.951147 1.7479124e-20)
(55.850634 16.553299 0)
(56.169767 16.148381 0)
(56.42901 15.734366 6.9273336e-21)
(56.619132 15.298324 -7.3868357e-21)
(56.725609 14.85781 1.5878041e-20)
(56.750534 14.391095 1.7303945e-20)
(56.688469 13.898107 -4.9457468e-24)
(56.553955 13.392776 0)
(56.371737 12.879219 -2.1501356e-20)
(56.176054 12.375248 0)
(55.997988 11.896362 3.491641e-20)
(55.853021 11.449868 9.1502955e-25)
(55.739739 11.034181 -2.0236258e-24)
(55.648435 10.643471 5.9572004e-20)
(55.569383 10.272096 -4.7417947e-20)
(55.49599 9.9162427 -4.7057127e-20)
(55.424345 9.5736191 0)
(55.352519 9.2427397 0)
(55.279907 8.9227047 0)
(55.20626 8.6129935 -3.3841251e-20)
(55.13147 8.3132019 -5.5719865e-20)
(55.055587 8.0229386 -1.100675e-20)
(54.978781 7.7419172 -3.2600682e-20)
(54.901155 7.4698558 0)
(54.822823 7.2065169 0)
(54.743905 6.9516431 4.1736244e-20)
(54.664512 6.7050227 0)
(54.584762 6.4664107 -5.0701109e-20)
(54.504793 6.2355938 9.9889247e-21)
(54.424695 6.0123596 9.8431886e-21)
(54.34457 5.7964686 2.9080929e-20)
(54.264452 5.5877054 -7.6340489e-20)
(54.184462 5.3858132 7.5141815e-20)
(54.104671 5.1906455 6.4693743e-20)
(54.025101 5.0020331 9.0922178e-21)
(53.945877 4.8197312 8.0484977e-20)
(53.867073 4.643618 7.0355401e-20)
(53.788667 4.4735186 -8.6491148e-21)
(53.710775 4.3092418 -6.7988799e-20)
(53.633553 4.1506336 1.3363756e-19)
(53.55697 3.9975125 7.3864118e-20)
(53.481136 3.8496841 -8.0625962e-21)
(53.406162 3.7070129 1.3463789e-19)
(53.332033 3.5693138 3.0279903e-25)
(53.25889 3.4364131 4.5830988e-20)
(53.186799 3.3081641 6.750532e-20)
(53.11573 3.1844233 0)
(53.045741 3.065003 0)
(52.976901 2.9497803 0)
(52.909269 2.838607 0)
(52.84283 2.7313332 0)
(52.777701 2.6278005 0)
(52.713972 2.5278698 1.020423e-19)
(52.651621 2.4313988 3.2298094e-21)
(52.590729 2.3382232 1.0141121e-19)
(52.531299 2.2482942 0)
(52.473289 2.1615037 9.7617296e-20)
(52.416612 2.0777739 1.6110707e-24)
(52.361164 1.997007 2.9361534e-21)
(52.306944 1.9191212 -2.8803354e-21)
(52.253916 1.8440311 -9.3244928e-20)
(52.202107 1.7716469 5.54343e-21)
(52.15155 1.7018321 -5.4363563e-21)
(52.102273 1.6344705 5.3333653e-21)
(52.054368 1.5694191 -8.3696431e-20)
(52.007902 1.506521 9.83931e-25)
(51.962927 1.4456828 -2.5157895e-21)
(51.919469 1.3867541 1.5543962e-19)
(51.877555 1.3296428 1.5727956e-19)
(51.83717 1.2742635 0)
(51.798296 1.2205111 1.4893649e-19)
(51.7609 1.1683533 1.437741e-19)
(51.724932 1.1176646 2.2391893e-21)
(51.690358 1.0684271 0)
(51.657119 1.020511 -2.152235e-21)
(51.6252 0.97389697 -1.329658e-19)
(51.594559 0.92847745 0)
(51.565216 0.8842197 -1.3192497e-19)
(51.53715 0.84105924 3.9797379e-21)
(51.510343 0.79892418 -2.537258e-19)
(51.484793 0.75775098 1.9139168e-21)
(51.460475 0.71746674 -1.2011647e-19)
(51.437378 0.67796428 -1.1778797e-19)
(51.415507 0.63918077 -2.3100987e-19)
(51.394837 0.60103331 0)
(51.375342 0.56347216 0)
(51.357002 0.52639582 2.1697448e-19)
(51.339807 0.4897477 2.1443451e-19)
(51.323735 0.45344981 2.1027284e-19)
(51.308783 0.41744175 2.0378712e-19)
(51.294965 0.38163445 -2.0061875e-19)
(51.282316 0.34595756 7.7146997e-22)
(51.270846 0.31035169 -3.782506e-22)
(51.26059 0.27470773 -3.7980284e-19)
(51.251478 0.23904571 -3.6370255e-22)
(51.243616 0.20311566 -1.8260311e-19)
(51.236818 0.16719916 3.5794819e-19)
(51.231422 0.13058218 1.7576264e-19)
(51.227042 0.094312596 3.4438076e-19)
(51.224339 0.056414912 1.6890449e-19)
(51.222349 0.019723294 1.6540636e-19)
(52.200486 19.245546 4.863036e-21)
(52.755787 18.865032 4.9436704e-21)
(53.290655 18.485461 5.0517044e-21)
(53.802055 18.106263 -1.0380117e-20)
(54.286274 17.72645 1.6080989e-20)
(54.73872 17.34462 5.5745296e-21)
(55.153677 16.958876 5.8345669e-21)
(55.524137 16.566751 0)
(55.841717 16.165352 0)
(56.096916 15.75238 2.1005718e-20)
(56.281176 15.314128 -2.2464105e-20)
(56.380528 14.870679 0)
(56.397572 14.396017 8.7993557e-21)
(56.329567 13.89712 2.8632688e-20)
(56.195681 13.386236 0)
(56.023859 12.871217 -1.084407e-20)
(55.84848 12.370799 -1.0103382e-24)
(55.696451 11.898995 3.4877303e-20)
(55.577431 11.460214 3.5355963e-20)
(55.486389 11.050864 -1.1830827e-20)
(55.413051 10.664667 7.7524507e-24)
(55.34868 10.296321 -7.288471e-24)
(55.287858 9.942529 4.655798e-20)
(55.227384 9.6013795 0)
(55.165746 9.2715789 -1.1411386e-20)
(55.102647 8.9523332 5.6426827e-20)
(55.037978 8.6432193 1.1148761e-20)
(54.971686 8.3438863 5.440204e-25)
(54.903852 8.0539577 -1.0881076e-20)
(54.834702 7.7731688 5.3704635e-20)
(54.764355 7.5012476 5.0682964e-25)
(54.692948 7.2379677 -1.0455365e-20)
(54.620621 6.9830754 -4.1243711e-20)
(54.547503 6.7363699 4.0658357e-20)
(54.473724 6.4976086 4.0068779e-20)
(54.399441 6.2665776 7.8948821e-20)
(54.324747 6.0430693 0)
(54.249757 5.8268356 -3.8279235e-20)
(54.174507 5.6176773 0)
(54.099149 5.4153357 -1.4832676e-19)
(54.023778 5.2196813 -7.2969723e-20)
(53.948403 5.030552 -8.9720711e-21)
(53.873167 4.84769 8.8231565e-21)
(53.798165 4.6709921 -6.9402993e-20)
(53.723368 4.5002849 7.6756626e-20)
(53.648901 4.3353816 -1.6765213e-20)
(53.574931 4.176133 -5.7661158e-20)
(53.501425 4.0223596 -6.4746549e-20)
(53.428511 3.8738682 0)
(53.356311 3.7305283 -5.4663805e-20)
(53.284807 3.5921552 -6.9025674e-20)
(53.214159 3.4585763 0)
(53.144435 3.3296458 -6.6550156e-20)
(53.075609 3.205226 1.4519427e-20)
(53.007744 3.0851258 -7.1265459e-21)
(52.940917 2.9692278 0)
(52.875192 2.857385 -1.098569e-19)
(52.810554 2.7494485 -6.7384588e-21)
(52.747127 2.6452622 6.6124858e-21)
(52.685006 2.544687 -1.0381823e-19)
(52.624169 2.4475809 1.0505257e-19)
(52.564714 2.3537795 2.084723e-24)
(52.506654 2.2632354 -6.1288527e-21)
(52.449944 2.1758387 9.9214452e-20)
(52.394504 2.0915062 -9.4384029e-20)
(52.340232 2.0101483 0)
(52.287131 1.9316832 9.0835734e-20)
(52.235165 1.8560276 8.6320801e-20)
(52.184358 1.783095 2.7314186e-21)
(52.134742 1.7127483 -8.5734817e-20)
(52.086346 1.6448748 8.146548e-20)
(52.039259 1.5793328 8.7632733e-20)
(51.993557 1.515962 -8.3419451e-20)
(51.949296 1.4546739 -2.479211e-21)
(51.906501 1.3953107 2.4313645e-21)
(51.865211 1.3377851 -2.3844766e-21)
(51.825408 1.2820028 1.5199711e-19)
(51.787083 1.2278625 -1.4676535e-19)
(51.750202 1.1753263 2.2488985e-21)
(51.71472 1.1242705 -1.4555503e-19)
(51.680602 1.0746756 1.3841426e-19)
(51.647792 1.0264122 2.1208427e-21)
(51.616276 0.97946215 2.6621343e-19)
(51.586014 0.93371685 0)
(51.557028 0.88914823 2.5600213e-19)
(51.529297 0.84568545 1.2552109e-19)
(51.502801 0.80326079 1.2116611e-19)
(51.477543 0.76180876 -6.4810255e-27)
(51.453495 0.72125385 3.6989126e-21)
(51.430647 0.68149101 -1.8136015e-21)
(51.409009 0.64245535 4.5528071e-19)
(51.388556 0.60406302 -2.2322649e-19)
(51.369263 0.5662638 -2.1804152e-19)
(51.35111 0.52895664 -1.5777303e-27)
(51.334088 0.49208479 -1.643307e-21)
(51.318179 0.45557017 -2.0559525e-19)
(51.303375 0.41935442 1.019065e-24)
(51.289695 0.38334903 -1.9847004e-19)
(51.27717 0.34748559 -1.9385788e-19)
(51.265813 0.31170154 -7.4546905e-22)
(51.255657 0.27588849 1.8713298e-19)
(51.246632 0.2400603 -3.5839964e-22)
(51.238845 0.20397231 1.8029254e-19)
(51.23211 0.16789459 8.1026124e-25)
(51.226765 0.13112648 -1.7303162e-19)
(51.222422 0.094698087 -1.6968084e-19)
(51.219746 0.056644664 -3.3280397e-19)
(51.217763 0.01980374 -3.2607073e-19)
(51.84849 19.155878 4.7926495e-21)
(52.410199 18.794147 0)
(52.950869 18.431341 0)
(53.46726 18.066849 2.5783968e-20)
(53.955398 17.69964 -1.6030668e-20)
(54.410398 17.328259 -2.2300832e-20)
(54.826226 16.950734 5.857704e-21)
(55.195541 16.564511 -1.2397819e-20)
(55.509603 16.166635 -6.6125782e-21)
(55.758653 15.754381 -1.4190181e-20)
(55.934981 15.313448 7.6091441e-21)
(56.025766 14.866754 -1.6425013e-20)
(56.034007 14.383821 -1.792559e-20)
(55.960728 13.879444 -1.3495726e-24)
(55.829772 13.36437 3.1109294e-20)
(55.671755 12.850279 0)
(55.519716 12.356018 -1.1349617e-20)
(55.395114 11.89317 -1.1601099e-20)
(55.301863 11.463057 -2.3436315e-20)
(55.232234 11.060514 0)
(55.176065 10.679185 -4.6779624e-20)
(55.125838 10.314236 3.4849461e-20)
(55.07732 9.9629052 -5.1528784e-25)
(55.027899 9.6236493 1.1406932e-20)
(54.976403 9.2953465 1.1287066e-20)
(54.922827 8.9772842 -4.4637513e-20)
(54.867181 8.6691455 3.3084836e-20)
(54.809445 8.3706306 0)
(54.749723 8.0813715 0)
(54.688297 7.8011214 -4.2470251e-20)
(54.625297 7.5296226 3.1427203e-20)
(54.560886 7.2666606 5.165948e-20)
(54.495219 7.0119877 5.0931034e-20)
(54.428447 6.7654143 -9.0362859e-20)
(54.360704 6.5267036 -2.967756e-20)
(54.292173 6.2956377 -4.8723787e-20)
(54.222943 6.0720185 0)
(54.153148 5.8555867 0)
(54.082827 5.6461687 0)
(54.012162 5.4435057 7.3186609e-20)
(53.941275 5.2474842 1.3499796e-19)
(53.870155 5.0579482 8.851492e-21)
(53.798963 4.8746257 -6.963469e-20)
(53.727822 4.6974361 0)
(53.656691 4.5262059 -6.7295332e-20)
(53.585704 4.3607538 6.6136936e-20)
(53.515041 4.2009361 -8.1233002e-21)
(53.444664 4.0465767 -4.7884692e-20)
(53.374722 3.897484 5.4876169e-20)
(53.305348 3.7535323 0)
(53.236518 3.6145372 6.0486762e-20)
(53.168409 3.4803279 0)
(53.101098 3.3507587 0)
(53.034556 3.2256996 0)
(52.968857 3.1049556 7.0246822e-21)
(52.904084 2.9884158 -6.8948321e-21)
(52.840306 2.8759339 2.1654799e-19)
(52.777506 2.7673623 1.0625975e-19)
(52.715818 2.6625471 0)
(52.65534 2.5613499 -1.0871257e-19)
(52.59605 2.4636299 -9.4115803e-20)
(52.538064 2.3692229 -6.1541672e-21)
(52.481403 2.2780817 1.0267661e-19)
(52.426022 2.1900952 -9.1842954e-20)
(52.371846 2.105174 -2.9064967e-21)
(52.318775 2.0232378 9.1243987e-20)
(52.266819 1.9442045 -1.7901653e-19)
(52.215941 1.8679931 2.7438875e-21)
(52.166161 1.7945205 8.3436888e-20)
(52.117508 1.7236491 8.4481032e-20)
(52.070016 1.6552696 -1.6572283e-19)
(52.023769 1.5892419 0)
(51.978852 1.5254024 -7.9707191e-20)
(51.935323 1.4636676 0)
(51.89321 1.403873 0)
(51.852558 1.3459357 -1.503685e-19)
(51.813353 1.2897525 -1.474624e-19)
(51.775591 1.2352267 2.2595951e-21)
(51.739239 1.1823138 -2.2158789e-21)
(51.704254 1.1308928 -1.3907446e-19)
(51.670603 1.0809418 -1.3638198e-19)
(51.638233 1.0323323 0)
(51.607131 0.98504705 -2.6230617e-19)
(51.577258 0.93897662 0)
(51.548639 0.89409752 -1.2809236e-19)
(51.521251 0.85033228 3.8649647e-21)
(51.495077 0.80761792 -1.8950394e-21)
(51.470118 0.76588681 -1.8583261e-21)
(51.446346 0.72506063 1.8223015e-21)
(51.423754 0.68503708 -1.1436685e-19)
(51.402355 0.64574898 1.3302597e-24)
(51.382126 0.60711148 2.1994775e-19)
(51.36304 0.56907356 2.1568147e-19)
(51.345079 0.53153518 0)
(51.328236 0.4944392 8.1124431e-22)
(51.312493 0.45770746 2.0257594e-19)