/*--------------------------------*- C++ -*----------------------------------*\
| =========                 |                                                 |
| \\      /  F ield         | OpenFOAM: The Open Source CFD Toolbox           |
|  \\    /   O peration     | Version:  2406                                  |
|   \\  /    A nd           | Website:  www.openfoam.com                      |
|    \\/     M anipulation  |                                                 |
\*---------------------------------------------------------------------------*/
FoamFile
{
    version     2.0;
    format      ascii;
    arch        "LSB;label=32;scalar=64";
    class       volScalarField;
    location    "0.01";
    object      nut;
}
// * * * * * * * * * * * * * * * * * * * * * * * * * * * * * * * * * * * * * //

dimensions      [0 2 -1 0 0 0 0];

internalField   nonuniform List<scalar> 
8950
(
0.0016090302
0.0017547759
0.00189482
0.0020273179
0.0021549315
0.0022799344
0.0024035674
0.0025264615
0.002649199
0.0027723685
0.0028964238
0.0030217297
0.0031484449
0.0032766398
0.0034063695
0.0035377091
0.0036707034
0.0038053664
0.0039416218
0.0040794008
0.0042188337
0.0043600941
0.0045034562
0.0046493361
0.0047961695
0.0049430109
0.0050890733
0.0052328532
0.0053751401
0.0055156545
0.005654367
0.005790607
0.0059234348
0.0060535679
0.0061806795
0.0063047694
0.0064265029
0.0065466572
0.0066649486
0.0067816794
0.0068978672
0.0070144081
0.0071320961
0.0072509082
0.0073718555
0.0074960267
0.0076235516
0.0077546677
0.0078892127
0.0080268528
0.0081673896
0.0083104252
0.008455354
0.0086013785
0.0087475696
0.0088929423
0.0090365181
0.0091774168
0.0093149377
0.009448598
0.0095781746
0.009703715
0.0098255031
0.0099440158
0.010059833
0.010173501
0.010285435
0.010395896
0.010504924
0.010612359
0.010717891
0.01082108
0.01092155
0.011018981
0.011113284
0.011204321
0.011292038
0.011372596
0.0016498662
0.0017714405
0.0019147706
0.0020544286
0.0021893475
0.0023205336
0.0024490168
0.0025756206
0.0027010953
0.0028261663
0.0029515443
0.0030777604
0.0032051253
0.0033338632
0.0034641725
0.0035962326
0.0037301231
0.0038657428
0.0040029432
0.0041416232
0.0042817296
0.0044232052
0.0045659882
0.0047097782
0.0048537421
0.0049971999
0.0051393297
0.0052793076
0.0054169485
0.0055523404
0.0056847966
0.005814972
0.0059435307
0.0060674803
0.0061884374
0.0063064727
0.0064225104
0.0065371644
0.006650349
0.0067625907
0.0068749165
0.0069884634
0.0071037003
0.0072209436
0.0073413323
0.0074656841
0.0075940981
0.0077270092
0.0078642783
0.0080055416
0.0081505045
0.0082986171
0.0084491806
0.0086013404
0.0087541594
0.0089066733
0.0090579415
0.0092071438
0.0093536529
0.0094970445
0.0096371301
0.0097739462
0.0099077002
0.010038728
0.010167389
0.010293939
0.010418491
0.010541036
0.010661366
0.010779147
0.010893991
0.011005405
0.01111308
0.011216698
0.011316124
0.011411136
0.011501278
0.0017926777
0.0019262609
0.0020756724
0.0022210091
0.0023605112
0.0024950776
0.0026260792
0.0027544824
0.0028811209
0.0030068627
0.003132434
0.0032583999
0.0033851776
0.003513096
0.0036424021
0.0037732325
0.0039055898
0.0040393474
0.004174343
0.0043104235
0.0044474252
0.0045851284
0.0047232302
0.0048612761
0.0049986855
0.005134879
0.0052692606
0.0054013035
0.005530744
0.0056575195
0.0057813224
0.005902345
0.0060201215
0.0061355278
0.0062475631
0.0063578569
0.0064669459
0.0065751862
0.0066824536
0.0067894171
0.0068969119
0.0070058174
0.0071170579
0.0072312772
0.0073493954
0.0074723896
0.0076003613
0.0077336112
0.0078719104
0.0080151978
0.0081630001
0.0083146636
0.0084694569
0.008626496
0.0087848681
0.0089436382
0.0091018995
0.0092588812
0.0094139993
0.0095668356
0.0097171768
0.0098649793
0.010010303
0.010153282
0.010293994
0.010432387
0.010568295
0.0107015
0.010831574
0.010958097
0.011080663
0.011198679
0.011311745
0.011419545
0.011522456
0.011620684
0.011712601
0.002024197
0.0021759589
0.0023326928
0.0024825197
0.002623798
0.0027598405
0.0028926257
0.0030222031
0.0031496068
0.0032757578
0.003401184
0.0035265896
0.00365243
0.0037790146
0.0039065503
0.0040351102
0.0041646395
0.0042949927
0.0044259894
0.0045574521
0.0046891649
0.0048207982
0.0049519876
0.0050823009
0.0052112537
0.0053383616
0.0054631671
0.0055853072
0.005704604
0.0058209538
0.0059342555
0.0060446763
0.0061521331
0.0062566434
0.0063591044
0.0064598101
0.0065585831
0.0066569334
0.0067549103
0.0068538824
0.0069552106
0.0070593201
0.0071666948
0.0072779212
0.0073937769
0.0075145024
0.0076406893
0.0077731164
0.007911418
0.0080555174
0.0082048879
0.0083589738
0.0085169208
0.0086778803
0.0088409859
0.0090053235
0.0091700011
0.0093342776
0.0094975709
0.0096594135
0.009819516
0.0099776952
0.010133808
0.01028775
0.010439274
0.010588049
0.010733691
0.010875846
0.01101385
0.011147259
0.011275248
0.011397609
0.011514338
0.011625694
0.011731558
0.011831553
0.011923462
0.0023325108
0.0024984707
0.0026612194
0.0028148912
0.0029600703
0.0030990761
0.0032334413
0.0033640602
0.0034921557
0.0036182361
0.0037425569
0.0038669025
0.0039910172
0.0041152384
0.0042397497
0.0043645903
0.0044896841
0.0046148842
0.0047400127
0.0048649375
0.0049893302
0.0051127772
0.0052350564
0.0053557705
0.0054744982
0.0055908604
0.0057045316
0.0058152779
0.0059230391
0.0060276941
0.0061292508
0.0062278989
0.006323793
0.006417235
0.0065089051
0.0065989531
0.0066887119
0.0067786402
0.0068678574
0.0069584753
0.0070515385
0.0071483715
0.0072492982
0.0073550711
0.0074671285
0.0075856703
0.0077107212
0.0078426291
0.0079808733
0.0081251958
0.0082754555
0.0084311509
0.0085915249
0.0087557729
0.0089230637
0.00909248
0.0092631033
0.009434208
0.0096051654
0.0097754122
0.0099445445
0.010112192
0.010277973
0.010441538
0.010602264
0.010759635
0.010913067
0.011061689
0.011205036
0.011342925
0.011474986
0.011601098
0.011720926
0.011834411
0.011941212
0.012040998
0.0026782719
0.0028638911
0.0030394857
0.003202583
0.0033549267
0.0034988298
0.0036360819
0.0037681767
0.0038964184
0.0040216667
0.0041446744
0.0042664417
0.0043872279
0.0045073572
0.0046270051
0.0047462076
0.0048648976
0.0049829541
0.0051002499
0.0052168078
0.0053317172
0.0054449645
0.0055567723
0.0056663659
0.0057734768
0.0058778521
0.0059792879
0.006077684
0.0061731124
0.0062652494
0.0063544015
0.0064408935
0.0065249792
0.0066071558
0.0066878794
0.0067676575
0.0068475004
0.0069275428
0.0070089351
0.0070928227
0.0071786145
0.007268414
0.0073637945
0.0074648418
0.0075720863
0.0076863808
0.0078080198
0.0079374634
0.0080748676
0.0082196721
0.0083713486
0.0085293182
0.0086925949
0.0088600824
0.0090312361
0.0092053697
0.0093814814
0.0095588853
0.0097368447
0.0099146758
0.010091834
0.010267704
0.010441542
0.010612512
0.010779948
0.010943342
0.011101987
0.01125538
0.011403254
0.011545043
0.011680217
0.011808324
0.011929101
0.012042661
0.012148726
0.012246915
0.0030415578
0.0032532219
0.0034498629
0.0036286922
0.0037924035
0.0039438534
0.0040854771
0.0042194821
0.0043475917
0.0044711836
0.0045913513
0.0047089899
0.0048246423
0.0049387376
0.0050515144
0.0051630553
0.0052733456
0.0053823239
0.0054899082
0.0055959463
0.0057000671
0.0058020803
0.0059019308
0.0059992402
0.0060938015
0.0061854512
0.0062740948
0.0063598015
0.0064426474
0.0065217252
0.0065986147
0.0066732328
0.0067458352
0.0068171747
0.0068872455
0.0069570148
0.0070275194
0.0070989548
0.0071723426
0.0072486934
0.0073283882
0.0074135254
0.0075032977
0.007599253
0.0077029667
0.0078143654
0.0079336576
0.0080610112
0.0081965133
0.0083402045
0.00849169
0.0086504147
0.0088156592
0.0089864704
0.009161797
0.0093406986
0.0095220396
0.0097052131
0.0098893181
0.010073555
0.010257235
0.010439475
0.010619316
0.010796106
0.010969215
0.011137718
0.011300772
0.011457897
0.011608552
0.011751937
0.01188785
0.012015912
0.012135944
0.012248008
0.012351828
0.0124473
0.003404481
0.0036516274
0.0038765002
0.004074764
0.0042531716
0.0044143622
0.0045615599
0.0046978287
0.0048254894
0.0049465848
0.0050626027
0.0051746432
0.0052835462
0.0053899285
0.0054941432
0.005596374
0.0056967032
0.005795153
0.0058916847
0.0059861779
0.0060784251
0.0061682625
0.0062555795
0.0063401778
0.0064219321
0.0065007662
0.0065766712
0.0066497039
0.0067199588
0.0067873118
0.0068524886
0.006915812
0.0069777387
0.0070392851
0.0070990071
0.0071597735
0.0072222994
0.0072859232
0.0073522969
0.0074223467
0.0074967707
0.007576842
0.0076630995
0.0077553174
0.0078555293
0.0079649771
0.0080822608
0.0082084199
0.0083433123
0.0084871015
0.0086392419
0.0087987996
0.0089653957
0.0091383075
0.0093166768
0.0094993128
0.0096846039
0.0098725563
0.010061791
0.010251457
0.010440646
0.010628172
0.010812953
0.010994292
0.011171292
0.011342584
0.011507514
0.011665794
0.011816811
0.011959922
0.012094877
0.012221278
0.012338992
0.012448069
0.012548308
0.012640149
0.0037624977
0.0040483421
0.0043023044
0.0045247112
0.0047178825
0.0048892451
0.0050424476
0.0051809449
0.0053077257
0.005425606
0.0055365349
0.0056419501
0.0057430322
0.005840636
0.0059352715
0.0060272783
0.0061168603
0.0062041267
0.006289092
0.0063717005
0.0064518496
0.0065294388
0.0066043829
0.0066765885
0.0067460033
0.0068126238
0.0068765068
0.0069377632
0.0069965291
0.0070529806
0.0071076284
0.0071609173
0.0072133663
0.0072655569
0.0073176099
0.0073709825
0.0074268129
0.007483228
0.0075441686
0.0076093423
0.0076795494
0.0077558962
0.0078389827
0.0079296152
0.0080284728
0.0081350892
0.0082513682
0.0083770542
0.0085119421
0.0086564589
0.0088096177
0.0089707865
0.009139513
0.0093150582
0.0094964329
0.0096822831
0.0098710226
0.010062612
0.01025562
0.010449113
0.010641862
0.010832443
0.011019778
0.011203075
0.011381248
0.01155301
0.011717859
0.011875444
0.012025095
0.012166248
0.012298659
0.012421864
0.012535819
0.012640623
0.012736891
0.0041150936
0.0044395468
0.0047206908
0.0049640618
0.0051719852
0.0053517931
0.0055092363
0.0056488704
0.0057741495
0.0058881343
0.0059933407
0.0060915623
0.0061843412
0.00627279
0.0063576012
0.0064393059
0.0065182052
0.0065944766
0.0066681877
0.0067393709
0.0068080217
0.0068741082
0.0069375892
0.0069984405
0.0070566598
0.0071123022
0.0071654879
0.0072163839
0.0072652043
0.0073122505
0.0073579841
0.0074028948
0.0074475258
0.0074924362
0.0075381368
0.0075856041
0.0076355257
0.0076880767
0.0077455925
0.0078063635
0.0078737988
0.0079479102
0.008029287
0.0081187368
0.0082168813
0.0083240376
0.0084398529
0.0085649724
0.0087008679
0.0088464733
0.0090009231
0.0091638441
0.0093346513
0.0095126237
0.0096965602
0.0098844308
0.010075523
0.010269549
0.010464907
0.010660696
0.010855158
0.011046845
0.01123471
0.011417922
0.011595301
0.01176567
0.01192869
0.012083854
0.012230528
0.012368228
0.01249699
0.012616604
0.012726347
0.012826219
0.012915955
0.0044577211
0.0048178255
0.0051243272
0.0053840346
0.0056049602
0.0057909862
0.0059506168
0.0060890653
0.0062109658
0.0063197133
0.0064183655
0.0065090418
0.0065935535
0.0066730347
0.0067484129
0.0068204246
0.006889389
0.0069555345
0.0070189814
0.0070798778
0.0071383047
0.007194291
0.007247825
0.0072989235
0.0073476044
0.007393985
0.007438257
0.0074806442
0.0075214254
0.0075609599
0.0075997068
0.00763818
0.0076769444
0.0077165816
0.0077577093
0.0078011089
0.0078474507
0.0078973927
0.0079521489
0.0080121078
0.0080782568
0.0081508279
0.008231943
0.008321428
0.0084198935
0.0085277134
0.0086453422
0.0087724816
0.0089087662
0.0090547452
0.0092107601
0.0093754846
0.0095481005
0.0097281716
0.0099134127
0.010102209
0.010294574
0.010489514
0.010686037
0.010882605
0.01107666
0.011267481
0.011453923
0.011635198
0.011809989
0.011977315
0.012137108
0.012289382
0.01243263
0.01256639
0.012690309
0.012803347
0.012905886
0.012998081
0.013080476
0.004787589
0.005174592
0.0055035982
0.0057790808
0.0060088539
0.0061985974
0.0063585667
0.006494825
0.0066120241
0.0067143106
0.0068052635
0.0068877481
0.006963631
0.0070343112
0.0071007933
0.0071639161
0.0072239658
0.0072813093
0.0073360037
0.0073882099
0.0074381192
0.007485816
0.0075312811
0.0075745516
0.0076156515
0.0076547817
0.0076922089
0.0077281916
0.007763051
0.0077971692
0.0078310133
0.007865119
0.0079000766
0.0079364803
0.0079749613
0.0080162262
0.0080609578
0.0081099099
0.0081640146
0.0082239008
0.0082904748
0.0083643589
0.0084453764
0.0085361815
0.0086360927
0.0087455821
0.0088649106
0.0089941952
0.0091332715
0.0092815567
0.0094383394
0.0096035611
0.0097765692
0.0099569627
0.010142564
0.010331827
0.01052431
0.010719352
0.010915943
0.011110318
0.011302242
0.01149077
0.01167492
0.01185341
0.012024947
0.012188648
0.012344265
0.012490739
0.012627333
0.012754015
0.012870394
0.012976169
0.013071343
0.01315608
0.013231449
0.0051089721
0.005515974
0.0058585391
0.0061430475
0.0063783494
0.0065707154
0.0067283831
0.0068604792
0.0069725866
0.0070686545
0.0071524135
0.0072270414
0.0072947
0.0073570634
0.0074152423
0.0074700247
0.0075220416
0.0075715472
0.0076187769
0.007663823
0.0077068555
0.0077480212
0.007787265
0.0078246753
0.0078603317
0.0078943686
0.0079271268
0.0079588767
0.0079899722
0.00802079
0.0080518095
0.0080835904
0.0081167544
0.0081518861
0.0081895965
0.0082305661
0.0082754763
0.0083250777
0.0083801805
0.0084414831
0.0085096778
0.0085854965
0.0086693555
0.0087613692
0.0088636694
0.0089754961
0.0090970812
0.0092284352
0.0093693651
0.0095196945
0.0096787019
0.0098457247
0.010019841
0.010200088
0.010384995
0.010573384
0.010764359
0.010957943
0.011152368
0.011344008
0.011532821
0.011717457
0.011896664
0.012069383
0.012234601
0.012391664
0.012540129
0.012679474
0.012809145
0.012928674
0.013037631
0.013135783
0.013223082
0.013300034
0.013368724
0.0054205444
0.0058419591
0.0061924719
0.0064800932
0.0067147594
0.0069054266
0.0070602764
0.0071862748
0.0072917015
0.0073809989
0.00745805
0.0075258431
0.0075867138
0.0076423198
0.0076938241
0.0077419227
0.0077873855
0.0078305261
0.0078716766
0.0079109976
0.0079485598
0.0079844561
0.0080189754
0.0080520581
0.0080839207
0.0081147228
0.0081447378
0.0081742122
0.0082035287
0.0082330262
0.0082631698
0.0082944948
0.0083276937
0.0083633155
0.0084019327
0.0084442303
0.0084908732
0.0085425735
0.0086000449
0.008663973
0.0087349674
0.0088136545
0.0089006616
0.0089960262
0.0091004202
0.0092150316
0.0093390852
0.0094725332
0.0096151744
0.0097666869
0.0099264205
0.010093693
0.01026785
0.010447536
0.010631327
0.010818016
0.011006443
0.011197077
0.011387367
0.011574098
0.011757341
0.011935757
0.012108414
0.012274632
0.012433102
0.012583197
0.012724526
0.012856561
0.012978583
0.013090254
0.013191196
0.013281194
0.013360363
0.013429782
0.013493139
0.0057212977
0.0061520014
0.006505526
0.0067913626
0.0070222221
0.0072071952
0.0073556897
0.0074753543
0.0075730318
0.0076550751
0.0077251797
0.0077864822
0.0078412908
0.0078912156
0.0079374029
0.007980654
0.008021458
0.008060233
0.0080972796
0.0081327881
0.0081668528
0.0081994648
0.0082309184
0.0082613276
0.0082909073
0.0083199434
0.0083486678
0.0083773232
0.008406258
0.0084359563
0.0084667772
0.0084992466
0.0085340052
0.0085715697
0.0086124762
0.0086574225
0.0087070494
0.0087620052
0.0088228798
0.0088903539
0.0089649694
0.0090473
0.0091377875
0.0092368863
0.0093442677
0.0094613041
0.0095877787
0.0097230691
0.009866986
0.010019132
0.010178879
0.010345518
0.010518214
0.010695724
0.01087677
0.011060136
0.011244639
0.011431006
0.011615725
0.011796531
0.011973396
0.012145121
0.012310862
0.012469698
0.012620569
0.012762938
0.012896439
0.013020453
0.013134301
0.01323771
0.013330362
0.013412113
0.013483311
0.01354568
0.0060097223
0.0064453386
0.0067981502
0.0070785582
0.0073028268
0.0074799052
0.0076199788
0.0077317315
0.0078214921
0.0078960915
0.007959404
0.0080145955
0.0080639245
0.0081089441
0.0081507495
0.0081901109
0.0082275443
0.0082633871
0.0082978771
0.0083311911
0.0083634318
0.00839471
0.0084250106
0.008454582
0.0084836715
0.0085125783
0.0085415332
0.0085708459
0.0086008113
0.0086319183
0.0086645997
0.0086993871
0.0087368002
0.008777349
0.0088216429
0.0088701615
0.0089236492
0.0089826597
0.0090476266
0.0091192375
0.0091979791
0.0092843457
0.0093785971
0.0094811025
0.0095920202
0.0097112096
0.0098397059
0.0099763513
0.010120935
0.010273009
0.010431938
0.01059698
0.010767236
0.010941565
0.01111878
0.011297698
0.011477226
0.011658101
0.011836037
0.012009957
0.012179559
0.012343763
0.012501721
0.012652482
0.012795175
0.012929328
0.013054545
0.013170178
0.013275659
0.013370759
0.013455241
0.013529074
0.013592794
0.013648266
0.0062840251
0.006721083
0.0070704158
0.0073434819
0.0075586908
0.0077265352
0.0078572867
0.0079600409
0.0080420546
0.008109371
0.0081662386
0.0082158251
0.0082603347
0.0083012504
0.0083396115
0.0083761437
0.0084113031
0.0084453501
0.0084784713
0.0085108033
0.0085424282
0.0085734401
0.0086039136
0.0086340539
0.0086640859
0.008694288
0.0087249037
0.0087562529
0.0087886777
0.0088225051
0.0088582162
0.0088963243
0.0089372473
0.008981466
0.0090296285
0.0090822214
0.0091399469
0.0092033424
0.0092729225
0.0093488992
0.0094319091
0.0095223483
0.0096202821
0.0097260787
0.0098399405
0.009961499
0.01009123
0.010228634
0.010373177
0.010524399
0.010681649
0.010844172
0.011011069
0.011181286
0.011353714
0.011527228
0.011700938
0.011875161
0.0120455
0.012211843
0.012373542
0.012529627
0.01267926
0.012821552
0.012955777
0.013081501
0.0131983
0.013305568
0.013402865
0.013490013
0.013566874
0.013633543
0.013690672
0.013740115
0.0065423643
0.0069782767
0.0073223976
0.0075870803
0.0077917333
0.0079498287
0.0080710656
0.0081650167
0.0082393152
0.0082996882
0.0083506528
0.0083952981
0.0084357456
0.0084733864
0.0085091962
0.0085438238
0.0085776378
0.0086108339
0.008643559
0.0086759097
0.0087079518
0.0087397779
0.008771496
0.0088032759
0.0088353216
0.0088678843
0.0089012139
0.0089356041
0.0089713847
0.0090088958
0.0090485626
0.0090908316
0.0091360604
0.0091846986
0.0092372265
0.009294253
0.0093562497
0.0094237011
0.0094973684
0.0095774343
0.0096643246
0.0097584164
0.0098599815
0.0099687012
0.010085004
0.010208418
0.010338925
0.010476381
0.010620139
0.010769728
0.010924486
0.011083661
0.011246389
0.011411692
0.011578547
0.011745889
0.011913104
0.012079755
0.012242082
0.012400384
0.012553792
0.012701439
0.012842526
0.012976262
0.013102037
0.013219444
0.013328062
0.013427383
0.013517092
0.013597078
0.013667314
0.013728014
0.013779914
0.013824873
0.0067826761
0.0072158998
0.0075538763
0.0078099181
0.0080034738
0.0081519541
0.0082640143
0.0083496626
0.0084167431
0.0084708662
0.0085166932
0.008557199
0.0085944131
0.0086296218
0.0086636989
0.0086972526
0.0087305348
0.0087636978
0.0087968595
0.0088300776
0.0088634035
0.0088969177
0.0089307199
0.0089649582
0.0089998164
0.0090355181
0.0090723028
0.0091104428
0.0091502459
0.0091920386
0.0092361872
0.0092830761
0.0093330575
0.0093865292
0.0094439116
0.0095056922
0.0095722199
0.0096439056
0.0097212793
0.0098048475
0.009894771
0.009991344
0.01009525
0.010206014
0.010323995
0.010448794
0.010579603
0.010716465
0.010858734
0.011005979
0.011157542
0.011312681
0.011470576
0.011630333
0.011791027
0.011951664
0.012111798
0.012270385
0.012424577
0.01257461
0.012719617
0.012858811
0.012991458
0.013116877
0.013234552
0.013344117
0.013445196
0.013537404
0.013620549
0.013694607
0.013759662
0.013816036
0.013864544
0.013907069
0.0070031808
0.0074330891
0.0077643428
0.0080121712
0.0081949736
0.0083343756
0.0084380154
0.0085161999
0.0085768766
0.0086257431
0.0086673763
0.0087046404
0.0087394616
0.0087730746
0.0088062387
0.0088394762
0.0088729884
0.0089068436
0.0089411515
0.0089759571
0.0090112733
0.0090471623
0.0090836994
0.0091210127
0.0091592623
0.0091986458
0.0092393852
0.0092817275
0.0093259474
0.0093723358
0.0094212056
0.0094728869
0.0095277042
0.0095860109
0.009648181
0.009714613
0.0097856345
0.0098616294
0.0099429002
0.010029796
0.010122518
0.010221243
0.010326249
0.010437713
0.01055563
0.010680415
0.010810491
0.010946071
0.011086496
0.011230872
0.011378699
0.011529285
0.011681863
0.011835637
0.011989793
0.012143415
0.012296114
0.012446537
0.012592645
0.012734492
0.012871287
0.013002329
0.013126976
0.013244653
0.013354937
0.01345752
0.013552108
0.013638453
0.013716484
0.013786272
0.01384801
0.013902118
0.013949477
0.013991989
0.0072021295
0.0076283316
0.0079528538
0.0081933447
0.0083671787
0.0084977449
0.0085941938
0.0086660968
0.0087214977
0.0087661724
0.0088046754
0.0088396595
0.0088729954
0.008905832
0.0089388671
0.0089725089
0.0090069293
0.0090421786
0.0090783087
0.0091153028
0.0091531694
0.0091919849
0.0092317657
0.0092726184
0.0093146737
0.0093581043
0.0094031099
0.0094499059
0.0094987274
0.0095498214
0.0096034499
0.009659894
0.0097194433
0.0097824067
0.0098491043
0.0099198595
0.0099949639
0.010074736
0.010159424
0.01024927
0.010344471
0.010445178
0.010551324
0.010663115
0.010780402
0.010903749
0.011031625
0.011164371
0.011301773
0.011442963
0.011586737
0.011732447
0.011879435
0.012027005
0.01217447
0.012321002
0.012466187
0.012608664
0.012746976
0.012881013
0.013010087
0.013133603
0.013251019
0.013361872
0.013465833
0.013562673
0.013652207
0.013734325
0.013809072
0.01387662
0.013937257
0.013991483
0.014040229
0.014085371
0.0073772908
0.0077998966
0.0081184788
0.0083529235
0.0085199239
0.0086422813
0.0087330448
0.0088000736
0.0088515122
0.0088932461
0.008929638
0.008963324
0.0089960943
0.0090290033
0.0090626814
0.0090974631
0.0091334713
0.0091707256
0.0092092366
0.0092489884
0.0092899546
0.0093321295
0.0093755445
0.0094203031
0.0094664707
0.009514196
0.0095636531
0.0096150224
0.0096684978
0.0097242799
0.0097825815
0.0098436374
0.0099076984
0.0099750278
0.010045893
0.010120557
0.01019927
0.010282288
0.010369812
0.010462001
0.010559006
0.010660946
0.010767761
0.010879515
0.010996093
0.011117877
0.011243347
0.011372571
0.011505593
0.011642142
0.011781274
0.01192211
0.01206349
0.012204864
0.012345702
0.012485305
0.012623199
0.012758218
0.012889273
0.013016157
0.013138299
0.013255223
0.013366496
0.013471765
0.013570802
0.013663478
0.013749726
0.013829567
0.013903159
0.01397076
0.01403274
0.014089654
0.014142443
0.014192905
0.0075268433
0.0079465348
0.008260391
0.0084901405
0.0086521209
0.0087678149
0.0088544863
0.0089181756
0.0089671235
0.0090072373
0.0090424522
0.0090758613
0.0091090247
0.0091428535
0.0091779456
0.0092145772
0.0092528354
0.0092927164
0.009334186
0.0093771818
0.0094216734
0.00946765
0.0095150766
0.0095640102
0.0096145398
0.009666748
0.0097207786
0.0097767761
0.009834896
0.009895294
0.0099581326
0.010023601
0.010091911
0.010163283
0.010237935
0.01031608
0.010397924
0.010483664
0.010573452
0.010667402
0.010765626
0.010868201
0.010975067
0.011086187
0.011201458
0.011321229
0.01144432
0.011570143
0.011699041
0.011830467
0.011964077
0.012099261
0.012235217
0.012370632
0.012505105
0.012638167
0.01276929
0.012897565
0.013022149
0.013142799
0.013259068
0.013370606
0.013477097
0.013578295
0.013674077
0.01376442
0.01384938
0.013929095
0.014003819
0.014073883
0.014139707
0.01420187
0.014261282
0.014319589
0.007649083
0.0080668466
0.0083775288
0.0086036923
0.0087626895
0.0088737862
0.0089579001
0.009019824
0.0090677422
0.0091075582
0.0091430629
0.0091770577
0.0092113689
0.0092469398
0.0092842104
0.0093233942
0.0093645473
0.0094076452
0.009452624
0.0094993864
0.0095478419
0.009597962
0.009649745
0.0097031609
0.0097582555
0.0098151224
0.0098738365
0.0099345081
0.0099972615
0.01006221
0.010129465
0.010199166
0.01027149
0.010346617
0.010424722
0.010505973
0.010590531
0.010678541
0.010770118
0.010865346
0.010964302
0.011067025
0.011173454
0.011283519
0.01139712
0.011514492
0.011634932
0.011757158
0.011882042
0.012008955
0.012137354
0.01226665
0.012396696
0.012526547
0.012655135
0.012782199
0.012907342
0.013029778
0.013148886
0.013264439
0.013376111
0.013483678
0.013586946
0.013685769
0.013780126
0.0138701
0.013955856
0.014037636
0.014115766
0.014190624
0.014262647
0.0143324
0.014400719
0.014469033
0.0077424413
0.0081593597
0.0084683519
0.0086924797
0.0088502864
0.0089597686
0.0090421675
0.0091040093
0.0091523285
0.0091930584
0.0092302309
0.0092662962
0.0093028725
0.0093409878
0.0093811165
0.0094234459
0.0094680038
0.0095147522
0.0095636331
0.0096145126
0.0096673173
0.0097219578
0.0097783817
0.0098365728
0.009896486
0.0099581795
0.01002171
0.010087133
0.010154546
0.010224029
0.01029565
0.010369478
0.010445659
0.010524345
0.010605672
0.010689766
0.010776744
0.010866711
0.010959747
0.011055913
0.011155263
0.01125781
0.011363499
0.011472259
0.011583983
0.011698814
0.011816451
0.011935122
0.012056031
0.012178551
0.012302214
0.012426519
0.012550984
0.012675403
0.012798769
0.012920513
0.013040605
0.013158263
0.013273044
0.013384785
0.01349327
0.013598393
0.013700085
0.013798289
0.013893075
0.013984615
0.014073172
0.014159061
0.014242664
0.014324369
0.014404597
0.014483859
0.014562893
0.014642846
0.0078053408
0.0082227113
0.0085317646
0.0087557588
0.0089140788
0.0090238382
0.0091061633
0.0091694718
0.0092195593
0.0092623919
0.0093020132
0.0093410369
0.0093809884
0.0094227688
0.0094668274
0.0095133238
0.009562239
0.0096134958
0.0096669509
0.0097225238
0.0097801014
0.0098395685
0.0099008496
0.0099639366
0.010028781
0.010095347
0.010163669
0.010233762
0.010305703
0.010379547
0.010455373
0.010533269
0.010613261
0.010695432
0.010779886
0.01086671
0.010955982
0.011047769
0.01114212
0.011239073
0.011338667
0.01144091
0.011545758
0.011653151
0.011762986
0.011875397
0.011990219
0.012105587
0.012222791
0.012341265
0.012460612
0.01258044
0.012700356
0.012819959
0.012938822
0.013056205
0.013172192
0.013286246
0.013397938
0.013507191
0.013613929
0.013718122
0.013819848
0.013919104
0.014016043
0.014110897
0.014204002
0.014295725
0.014386483
0.014476645
0.014566578
0.014656695
0.014747664
0.014840281
0.0078364119
0.0082553462
0.0085661236
0.0087921915
0.00895308
0.0090639079
0.0091485499
0.0092146699
0.0092676639
0.0093136065
0.0093565619
0.0093991325
0.0094428851
0.009488722
0.0095370732
0.0095880932
0.009641786
0.0096980327
0.0097566959
0.0098176412
0.0098807249
0.0099457919
0.010012688
0.010081347
0.010151715
0.01022375
0.010297435
0.010372743
0.010449696
0.010528284
0.010608433
0.010690241
0.010773811
0.010859216
0.010946556
0.01103591
0.011127323
0.011220846
0.011316516
0.011414319
0.011514213
0.011616231
0.011720341
0.011826514
0.011934659
0.012045013
0.012157197
0.01226973
0.012383715
0.012498683
0.012614314
0.012730309
0.012846343
0.012962175
0.013077417
0.013191564
0.013304523
0.013416161
0.013526006
0.013634063
0.013740389
0.013845029
0.013948232
0.014049986
0.01415053
0.014250123
0.014349139
0.014447973
0.014547062
0.014646746
0.014747306
0.014848929
0.014951759
0.01505696
0.0078364433
0.0082579485
0.0085718085
0.0088012457
0.0089657264
0.0090803274
0.0091686635
0.0092387738
0.0092957989
0.0093458516
0.0093929992
0.0094398573
0.0094880169
0.009538386
0.0095913966
0.0096471995
0.0097057827
0.009767039
0.0098308254
0.0098969902
0.0099653884
0.010035912
0.010108428
0.010182763
0.01025884
0.010336585
0.010415923
0.010496744
0.0105791
0.010662935
0.010748177
0.010834801
0.010922827
0.011012249
0.011103052
0.011195344
0.01128919
0.01138462
0.011481666
0.011580371
0.0116808
0.011782873
0.011886537
0.011991822
0.012098672
0.01220752
0.012317484
0.012427849
0.01253926
0.0126514
0.012764046
0.012877029
0.012990086
0.013103061
0.013215646
0.013327573
0.01343872
0.013549081
0.013658257
0.013766312
0.013873296
0.013979556
0.014085435
0.014190794
0.014296028
0.014401392
0.014507222
0.014613958
0.014721491
0.014830489
0.014941447
0.015054793
0.015170872
0.01528971
0.0078042901
0.0082292887
0.0085475891
0.0087820952
0.0089519545
0.0090718344
0.0091655071
0.0092406483
0.0093027973
0.0093579085
0.0094100916
0.0094619991
0.0095152526
0.0095707621
0.0096289862
0.0096900916
0.0097540716
0.0098208221
0.0098901929
0.0099620143
0.01003611
0.010112292
0.010190414
0.010270289
0.010351869
0.010435067
0.010519766
0.010605864
0.010693395
0.010782249
0.01087222
0.010963365
0.011055689
0.011149239
0.011244019
0.011339925
0.011436956
0.011535111
0.011634391
0.0117348
0.011836336
0.011938929
0.012042585
0.012147426
0.012253542
0.012361482
0.012469942
0.012578988
0.012688676
0.0127988
0.012909276
0.013020127
0.013131169
0.013242211
0.013353099
0.013463692
0.013574133
0.01368439
0.013793941
0.013902779
0.014011495
0.014120455
0.014229709
0.014339206
0.014449125
0.014560234
0.014672713
0.014787208
0.014904443
0.015024244
0.01514673
0.015272037
0.015400233
0.015531618
0.007739936
0.0081691914
0.0084930612
0.0087338182
0.0089098549
0.0090377144
0.0091379089
0.0092189318
0.0092869193
0.0093477658
0.0094055584
0.0094629804
0.009521694
0.0095826513
0.0096463403
0.0097129524
0.009782497
0.0098548797
0.0099299516
0.010007538
0.010087456
0.010169523
0.010253566
0.010339403
0.010426891
0.010515912
0.010606363
0.010698124
0.010791086
0.01088513
0.010980165
0.01107616
0.011173059
0.011270812
0.011369386
0.011468775
0.011568968
0.011669957
0.011771733
0.011874253
0.011977519
0.012081489
0.012185605
0.012290158
0.012396129
0.012503518
0.012611905
0.012720665
0.012829623
0.012938503
0.013047598
0.013157226
0.013267145
0.013377181
0.013487251
0.013597187
0.013707716
0.013818714
0.013929298
0.014039284
0.014149948
0.014261684
0.014374507
0.014488867
0.014605059
0.014723215
0.014843865
0.014967165
0.015093612
0.015223329
0.015356366
0.015492728
0.015632385
0.015775487
0.0019196789
0.0036306001
0.0066372759
0.010319936
0.013808129
0.016226362
0.016938952
0.01590916
0.014105259
0.0020235513
0.0037159538
0.0066714971
0.010277348
0.013689518
0.016051821
0.01669986
0.015694748
0.013879092
0.0021396143
0.0038141171
0.0067258629
0.01026475
0.013598133
0.015885365
0.01647028
0.015480212
0.013662166
0.0022567667
0.0039092693
0.0067747267
0.010248578
0.013504778
0.015718123
0.016247944
0.015266418
0.013452377
0.0023748161
0.0040019648
0.0068199255
0.010228775
0.01340953
0.01555078
0.016031801
0.01505446
0.013248915
0.0024937003
0.004092953
0.0068609252
0.01020557
0.013312581
0.015383866
0.015821066
0.014845126
0.013051252
0.0026134095
0.0041818662
0.0068981511
0.010179269
0.013214173
0.015217794
0.015615158
0.014639027
0.012859031
0.0027333634
0.0042684766
0.0069319347
0.010150162
0.013114585
0.015052878
0.015413611
0.014436874
0.012672027
0.0028538344
0.0043527669
0.0069626434
0.010118554
0.013014112
0.014889345
0.01521591
0.014238629
0.012489999
0.0029764702
0.0044352815