/*--------------------------------*- C++ -*----------------------------------*\
| =========                 |                                                 |
| \\      /  F ield         | OpenFOAM: The Open Source CFD Toolbox           |
|  \\    /   O peration     | Version:  2406                                  |
|   \\  /    A nd           | Website:  www.openfoam.com                      |
|    \\/     M anipulation  |                                                 |
\*---------------------------------------------------------------------------*/
FoamFile
{
    version     2.0;
    format      ascii;
    arch        "LSB;label=32;scalar=64";
    class       volScalarField;
    location    "0.01";
    object      T;
}
// * * * * * * * * * * * * * * * * * * * * * * * * * * * * * * * * * * * * * //

dimensions      [0 0 0 1 0 0 0];

internalField   nonuniform List<scalar> 
8950
(
291.76231
291.76127
291.76198
291.76601
291.77204
291.77923
291.7873
291.79632
291.80633
291.81727
291.82893
291.84118
291.85398
291.8672
291.8807
291.89431
291.90797
291.92154
291.93488
291.94782
291.9603
291.97228
291.98374
291.99469
292.00514
292.01514
292.02476
292.03408
292.0432
292.05223
292.06127
292.07043
292.07984
292.08958
292.09977
292.1105
292.12181
292.13411
292.14718
292.16086
292.17542
292.19095
292.20755
292.225
292.24333
292.26249
292.2824
292.30295
292.3241
292.34569
292.36757
292.3896
292.41163
292.43355
292.45526
292.47666
292.49769
292.51832
292.53853
292.55834
292.57779
292.59691
292.61578
292.63442
292.65289
292.67118
292.6893
292.70721
292.72485
292.74214
292.75899
292.7753
292.79099
292.80598
292.82022
292.83367
292.84634
292.85825
291.90987
291.90034
291.89461
291.89334
291.89494
291.89828
291.90291
291.90866
291.91536
291.92278
291.93072
291.93905
291.94768
291.9565
291.96541
291.97434
291.98324
291.99202
292.00059
292.00888
292.01686
292.02453
292.0319
292.03901
292.0459
292.05262
292.05925
292.06586
292.07255
292.07941
292.08652
292.094
292.10193
292.1104
292.1195
292.12929
292.13992
292.15167
292.16422
292.17754
292.19186
292.20725
292.22371
292.24118
292.25946
292.27862
292.29846
292.31893
292.33995
292.36137
292.38302
292.40474
292.42642
292.44795
292.46923
292.4902
292.5108
292.53101
292.55084
292.5703
292.58944
292.6083
292.62692
292.64534
292.66357
292.68161
292.69944
292.71699
292.73422
292.75104
292.76737
292.78312
292.79823
292.81264
292.82632
292.83926
292.85148
292.08709
292.07076
292.05849
292.04991
292.04411
292.04036
292.03828
292.03759
292.038
292.03925
292.04114
292.04353
292.0463
292.04935
292.05259
292.05597
292.05944
292.06296
292.06647
292.06995
292.07337
292.07675
292.08013
292.08353
292.087
292.09058
292.09435
292.09837
292.10272
292.10748
292.11272
292.11852
292.12498
292.13216
292.14013
292.14897
292.15883
292.16984
292.18177
292.19466
292.20863
292.22375
292.24
292.25725
292.2753
292.29436
292.31403
292.33435
292.35507
292.37621
292.39754
292.4189
292.44019
292.4613
292.48217
292.50273
292.52294
292.54279
292.5623
292.58148
292.60037
292.61901
292.63742
292.65563
292.67364
292.69141
292.70892
292.72612
292.74293
292.75929
292.77511
292.79035
292.80493
292.81884
292.83205
292.84455
292.85641
292.25041
292.23115
292.21484
292.20089
292.18902
292.17894
292.17046
292.16335
292.1574
292.15239
292.14816
292.14456
292.14151
292.13889
292.13663
292.1347
292.13306
292.13168
292.13053
292.12959
292.12886
292.12835
292.12809
292.12811
292.12844
292.12914
292.13025
292.13184
292.13398
292.13671
292.14011
292.14426
292.14921
292.15505
292.16183
292.16964
292.1786
292.18875
292.19996
292.21227
292.22576
292.24045
292.25631
292.27316
292.29093
292.30967
292.32906
292.34909
292.36947
292.39024
292.41115
292.43212
292.45302
292.47372
292.4942
292.51439
292.53427
292.55382
292.57306
292.592
292.61069
292.62914
292.64737
292.66537
292.68315
292.70065
292.71785
292.73468
292.75109
292.767
292.78236
292.79712
292.81125
292.82473
292.83755
292.84971
292.8613
292.38025
292.36076
292.34301
292.32653
292.31135
292.29744
292.28472
292.27311
292.26248
292.25272
292.24373
292.23541
292.22768
292.22049
292.21378
292.20751
292.20168
292.19627
292.19126
292.18665
292.18243
292.17862
292.17526
292.17235
292.16995
292.16809
292.16682
292.1662
292.16626
292.16708
292.16871
292.17122
292.17467
292.17913
292.18467
292.19136
292.19929
292.20847
292.21883
292.23042
292.24327
292.25737
292.27266
292.28901
292.30635
292.32462
292.34361
292.36314
292.38314
292.40347
292.42396
292.44451
292.465
292.48529
292.50541
292.52529
292.54487
292.56418
292.58319
292.60195
292.62047
292.63875
292.6568
292.67461
292.69215
292.70938
292.72626
292.74275
292.75877
292.77428
292.78923
292.80359
292.81734
292.83047
292.84298
292.85488
292.47635
292.45791
292.44037
292.4234
292.40711
292.39156
292.37677
292.36273
292.3494
292.33674
292.32471
292.31325
292.30235
292.29198
292.2821
292.27272
292.26383
292.25543
292.24751
292.24008
292.23316
292.22675
292.22089
292.2156
292.21092
292.20689
292.20357
292.20098
292.19919
292.19825
292.19821
292.19915
292.20113
292.20422
292.20848
292.21399
292.22081
292.22894
292.23836
292.24909
292.26116
292.27452
292.28911
292.30483
292.32158
292.33927
292.35771
292.3767
292.39621
292.41603
292.43609
292.45619
292.47631
292.4962
292.51598
292.53558
292.55492
292.57402
292.59285
292.61145
292.62983
292.64795
292.66583
292.68344
292.70075
292.71771
292.7343
292.75046
292.76614
292.78129
292.7959
292.80992
292.82337
292.83624
292.84851
292.86022
292.54569
292.5287
292.51213
292.49573
292.47961
292.46384
292.44847
292.43353
292.41902
292.40495
292.39132
292.37814
292.3654
292.35311
292.34127
292.32988
292.31898
292.30855
292.29863
292.28921
292.28033
292.272
292.26425
292.25712
292.25064
292.24487
292.23983
292.23559
292.23219
292.22969
292.22815
292.22765
292.22825
292.23002
292.23302
292.23733
292.243
292.25004
292.25845
292.26824
292.27942
292.29194
292.30573
292.32069
292.33674
292.35375
292.37154
292.38994
292.40889
292.42818
292.44776
292.4674
292.48713
292.50673
292.52616
292.5455
292.56461
292.58354
292.6022
292.62067
292.63892
292.65689
292.6746
292.69202
292.70911
292.72582
292.74214
292.75801
292.77338
292.78823
292.80256
292.81631
292.82954
292.8422
292.85429
292.86587
292.59572
292.58024
292.56489
292.54952
292.53418
292.51894
292.50383
292.4889
292.47418
292.45971
292.44551
292.43159
292.41801
292.40477
292.39189
292.3794
292.36732
292.35568
292.3445
292.33379
292.32359
292.31393
292.30485
292.29638
292.28855
292.28142
292.27504
292.26945
292.26471
292.2609
292.25806
292.25628
292.25563
292.25617
292.258
292.26115
292.26569
292.27164
292.27902
292.28783
292.29805
292.30966
292.32258
292.33673
292.352
292.36825
292.38533
292.4031
292.42145
292.4402
292.45926
292.47846
292.49776
292.51708
292.53623
292.55532
292.57422
292.59298
292.61148
292.62983
292.64794
292.66575
292.68331
292.70054
292.7174
292.73388
292.74996
292.76558
292.7807
292.79531
292.80941
292.82296
292.83602
292.84853
292.8605
292.87198
292.63239
292.61836
292.6043
292.59007
292.57573
292.56134
292.54691
292.53247
292.5181
292.50381
292.48966
292.47567
292.4619
292.44836
292.43509
292.42213
292.40951
292.39725
292.38538
292.37393
292.36294
292.35245
292.34248
292.33309
292.32431
292.3162
292.3088
292.30217
292.29637
292.29148
292.28756
292.28469
292.28295
292.28242
292.28317
292.28526
292.28874
292.29365
292.30002
292.30784
292.31712
292.3278
292.33982
292.35311
292.36755
292.38302
292.39937
292.41647
292.43419
292.45238
292.47092
292.48969
292.50858
292.52756
292.54644
292.5653
292.58401
292.60257
292.62092
292.63913
292.65711
292.67475
292.69215
292.70919
292.72585
292.74211
292.758
292.7734
292.78831
292.80273
292.81665
292.83005
292.843
292.85539
292.86727
292.65993
292.64731
292.63442
292.62136
292.60807
292.59463
292.58101
292.56734
292.55358
292.5398
292.52604
292.51237
292.49881
292.48538
292.47215
292.45915
292.44641
292.43395
292.42181
292.41003
292.39864
292.38768
292.3772
292.36724
292.35784
292.34905
292.34093
292.33354
292.32695
292.32122
292.31644
292.31269
292.31005
292.30859
292.3084
292.30955
292.31208
292.31604
292.32146
292.32835
292.33669
292.34646
292.3576
292.37003
292.38364
292.39832
292.41393
292.43034
292.44743
292.46504
292.48306
292.50137
292.51987
292.53849
292.55711
292.57571
292.59423
292.61259
292.63079
292.64881
292.66662
292.68411
292.70134
292.71819
292.73467
292.75074
292.76646
292.78167
292.79641
292.81067
292.82447
292.83775
292.85061
292.86291
292.8747
292.68132
292.66987
292.65819
292.64618
292.63395
292.62144
292.60874
292.59586
292.58284
292.56972
292.55657
292.54341
292.53028
292.51721
292.50428
292.49152
292.47895
292.46657
292.45444
292.44261
292.43111
292.41998
292.40927
292.39901
292.38926
292.38006
292.37148
292.36357
292.35642
292.35008
292.34465
292.34021
292.33685
292.33465
292.33368
292.33402
292.33572
292.33884
292.3434
292.34943
292.35692
292.36583
292.37611
292.38771
292.40051
292.41441
292.42929
292.44502
292.46146
292.4785
292.49599
292.51384
292.53193
292.55018
292.5685
292.58683
292.60512
292.62328
292.6413
292.6591
292.67673
292.69406
292.71109
292.72778
292.74409
292.75998
292.77554
292.79059
292.80519
292.81933
292.83302
292.84619
292.85897
292.87119
292.8829
292.69849
292.68818
292.67753
292.66656
292.65527
292.64371
292.6319
292.61985
292.6076
292.59522
292.58273
292.57019
292.55761
292.54505
292.53259
292.52025
292.508
292.49588
292.48396
292.47228
292.46088
292.4498
292.43907
292.42873
292.41885
292.40946
292.40062
292.39241
292.3849
292.37816
292.37227
292.36734
292.36344
292.36065
292.35906
292.35874
292.35975
292.36215
292.36597
292.37124
292.37794
292.38606
292.39555
292.40636
292.41839
292.43155
292.44571
292.46076
292.47657
292.49302
292.50998
292.52735
292.54501
292.56288
292.58087
292.5989
292.61692
292.63485
292.65264
292.67023
292.68766
292.7048
292.72162
292.73815
292.75429
292.77003
292.7854
292.80033
292.81481
292.82884
292.84242
292.85551
292.86817
292.88034
292.89196
292.71288
292.70358
292.69389
292.68385
292.67348
292.66279
292.65181
292.64058
292.62912
292.61749
292.60571
292.59381
292.58187
292.56992
292.55802
292.54616
292.53432
292.52258
292.51102
292.49965
292.4885
292.47761
292.46703
292.45679
292.44694
292.43753
292.42863
292.42029
292.41261
292.40564
292.39948
292.39421
292.38994
292.38674
292.38468
292.38384
292.3843
292.38611
292.3893
292.3939
292.39991
292.40732
292.4161
292.42618
292.43749
292.44993
292.46341
292.47779
292.49297
292.50883
292.52525
292.54213
292.55934
292.5768
292.59442
292.61212
292.62983
292.64749
292.66503
292.68239
292.69959
292.71651
292.73314
292.74948
292.76544
292.78103
292.79622
292.81105
292.8254
292.83931
292.85278
292.86579
292.87829
292.89039
292.90191
292.72546
292.71706
292.70825
292.69906
292.68952
292.67965
292.66947
292.65901
292.64831
292.63741
292.62633
292.61514
292.60387
292.59257
292.58122
292.56987
292.55854
292.54732
292.53623
292.52528
292.5145
292.50393
292.49362
292.48359
292.47391
292.46463
292.4558
292.4475
292.4398
292.43276
292.42648
292.42105
292.41655
292.41307
292.41069
292.40948
292.40951
292.41084
292.41352
292.41756
292.42298
292.42977
292.43789
292.44731
292.45794
292.46972
292.48253
292.49627
292.51083
292.5261
292.54197
292.55833
292.57507
292.5921
292.60931
292.62665
292.64402
292.66137
292.67862
292.69573
292.71267
292.72936
292.74578
292.76192
292.7777
292.79311
292.80815
292.82283
292.83706
292.85084
292.86418
292.87706
292.88943
292.9014
292.91275
292.73688
292.72929
292.72128
292.71288
292.70411
292.69499
292.68556
292.67584
292.66587
292.65568
292.64531
292.63481
292.62422
292.61354
292.6028
292.59204
292.58132
292.57066
292.56008
292.54961
292.53929
292.52914
292.5192
292.5095
292.50012
292.49109
292.48247
292.47433
292.46673
292.45976
292.4535
292.44803
292.44345
292.43983
292.43724
292.43578
292.4355
292.43648
292.43875
292.44233
292.44724
292.45348
292.46103
292.46984
292.47986
292.491
292.50319
292.5163
292.53025
292.54493
292.56024
292.57608
292.59232
292.60889
292.62567
292.64261
292.65962
292.67662
292.69355
292.71037
292.72703
292.74347
292.75966
292.77557
292.79115
292.80638
292.82126
292.83577
292.84984
292.86348
292.87666
292.88938
292.90159
292.91336
292.74761
292.74075
292.73346
292.72578
292.71772
292.70931
292.70058
292.69156
292.6823
292.67281
292.66314
292.65333
292.6434
292.63338
292.6233
292.61319
292.60309
292.59303
292.58302
292.5731
292.56329
292.55362
292.54413
292.53486
292.52586
292.51718
292.50887
292.501
292.49363
292.48685
292.48074
292.47535
292.47079
292.46714
292.46446
292.46285
292.46237
292.4631
292.46505
292.46826
292.47275
292.47852
292.48555
292.49382
292.50327
292.51383
292.52541
292.53793
292.55127
292.56537
292.58012
292.59542
292.61116
292.62724
292.64357
292.66008
292.67668
292.69331
292.7099
292.7264
292.74275
292.75892
292.77485
292.79052
292.80587
292.8209
292.83558
292.84989
292.86378
292.87723
292.89022
292.90274
292.91476
292.92627
292.75796
292.75174
292.74511
292.73809
292.7307
292.72295
292.7149
292.70656
292.69798
292.68918
292.6802
292.67107
292.66183
292.65249
292.64308
292.63364
292.6242
292.61477
292.60537
292.59605
292.58681
292.57768
292.56872
292.55994
292.55141
292.54316
292.53525
292.52775
292.52071
292.51422
292.50833
292.50313
292.49869
292.4951
292.49244
292.49077
292.49018
292.49074
292.49246
292.49536
292.49951
292.50487
292.51146
292.51924
292.52817
292.53818
292.5492
292.56113
292.57388
292.58741
292.60161
292.61637
292.63158
292.64716
292.66302
292.67908
292.69526
292.7115
292.72771
292.74386
292.75989
292.77574
292.79139
292.80679
292.82189
292.83668
292.85113
292.86521
292.87887
292.8921
292.90486
292.91714
292.9289
292.94012
292.7681
292.76248
292.75646
292.75005
292.74328
292.73617
292.72877
292.72109
292.71318
292.70506
292.69676
292.68833
292.67977
292.67112
292.66241
292.65365
292.64488
292.63611
292.62737
292.61868
292.61005
292.60153
292.59314
292.58492
292.57692
292.56918
292.56175
292.55469
292.54806
292.54193
292.53636
292.53143
292.5272
292.52377
292.5212
292.51958
292.51896
292.51941
292.52095
292.52363
292.52749
292.5325
292.53868
292.54604
292.55449
292.56399
292.57448
292.58586
292.59803
292.61102
292.62467
292.63889
292.65358
292.66865
292.68402
292.69961
292.71535
292.73116
292.74698
292.76275
292.77843
292.79395
292.80928
292.82437
292.83919
292.8537
292.86789
292.8817
292.8951
292.90805
292.92054
292.93253
292.94398
292.95487
292.77811
292.77305
292.7676
292.76177
292.75561
292.74912
292.74235
292.73532
292.72806
292.72062
292.71301
292.70526
292.69741
292.68946
292.68145
292.6734
292.66532
292.65723
292.64917
292.64114
292.63317
292.62529
292.61753
292.60992
292.6025
292.59532
292.58843
292.58188
292.57572
292.57002
292.56485
292.56026
292.55632
292.55311
292.55072
292.54921
292.54864
292.54905
292.55048
292.55302
292.55664
292.56135
292.56718
292.57414
292.58214
292.59115
292.60114
292.61199
292.62363
292.63609
292.64922
292.6629
292.67707
292.69163
292.7065
292.72162
292.7369
292.75227
292.76767
292.78305
292.79834
292.8135
292.82848
292.84324
292.85773
292.87193
292.8858
292.8993
292.91239
292.92503
292.93719
292.94884
292.95994
292.97045
292.78809
292.78353
292.77861
292.77335
292.76776
292.76188
292.75572
292.74934
292.74274
292.73597
292.72904
292.72199
292.71484
292.7076
292.7003
292.69296
292.68559
292.67821
292.67085
292.66351
292.65623
292.64902
292.64192
292.63496
292.62817
292.6216
292.6153
292.6093
292.60367
292.59846
292.59374
292.58955
292.58597
292.58306
292.58091
292.57957
292.57911
292.57955
292.58095
292.58339
292.58685
292.59131
292.59685
292.60345
292.61103
292.61958
292.62908
292.63942
292.65058
292.66253
292.67514
292.6883
292.70195
292.716
292.73038
292.74501
292.75982
292.77474
292.78971
292.80466
292.81954
292.83431
292.84891
292.8633
292.87743
292.89128
292.9048
292.91794
292.93068
292.94296
292.95475
292.96601
292.97671
292.98679
292.79799
292.79393
292.78952
292.7848
292.77977
292.77448
292.76894
292.76318
292.75724
292.75114
292.7449
292.73855
292.7321
292.72558
292.71899
292.71237
292.70572
292.69907
292.69242
292.68581
292.67923
292.67272
292.66631
292.66003
292.65391
292.64798
292.6423
292.63691
292.63185
292.62717
292.62294
292.61921
292.61604
292.61349
292.61163
292.61052
292.61021
292.61075
292.61219
292.61459
292.61792
292.62221
292.62752
292.63381
292.64102
292.64915
292.65819
292.6681
292.67881
292.69023
292.70229
292.71492
292.72807
292.74162
292.75551
292.76966
292.784
292.79846
292.81298
292.82749
292.84194
292.85629
292.87048
292.88446
292.8982
292.91165
292.92477
292.93752
292.94985
292.96173
292.9731
292.98393
292.99418
293.0038
292.80778
292.80419
292.80028
292.79609
292.79162
292.78691
292.78198
292.77686
292.77157
292.76613
292.76058
292.75492
292.74918
292.74337
292.73751
292.73161
292.7257
292.71977
292.71385
292.70797
292.70212
292.69634
292.69063
292.68505
292.67962
292.67437
292.66935
292.66458
292.66013
292.65603
292.65234
292.64911
292.64639
292.64424
292.64272
292.64188
292.64179
292.64249
292.64401
292.64641
292.64969
292.65387
292.65899
292.66502
292.67192
292.6797
292.68835
292.69785
292.7081
292.71901
292.73056
292.74267
292.75528
292.76834
292.78175
292.79543
292.8093
292.82329
292.83735
292.8514
292.8654
292.8793
292.89304
292.90659
292.9199
292.93291
292.9456
292.95791
292.9698
292.98123
292.99214
293.0025
293.01226
293.02138
292.8174
292.81427
292.81085
292.80718
292.80327
292.79914
292.79481
292.79032
292.78567
292.7809
292.77603
292.77106
292.76603
292.76093
292.75579
292.75062
292.74544
292.74024
292.73506
292.72991
292.7248
292.71976
292.71479
292.70992
292.70519
292.70064
292.69629
292.69219
292.68837
292.68488
292.68176
292.67905
292.67683
292.67512
292.67399
292.67348
292.67365
292.67455
292.67621
292.67867
292.68195
292.68607
292.69105
292.69687
292.70353
292.71101
292.71932
292.72842
292.73823
292.74868
292.75974
292.77136
292.78346
292.796
292.8089
292.82212
292.83553
292.84906
292.86265
292.87623
292.88976
292.90319
292.91646
292.92954
292.94238
292.95493
292.96714
292.97898
292.99039
293.00132
293.01174
293.02159
293.03083
293.03941
292.82678
292.8241
292.82117
292.81802
292.81465
292.81109
292.80737
292.8035
292.7995
292.79539
292.79118
292.78691
292.78257
292.77818
292.77376
292.76931
292.76485
292.76039
292.75594
292.75153
292.74716
292.74285
292.73863
292.7345
292.73048
292.72664
292.72299
292.71956
292.7164
292.71353
292.71101
292.70887
292.70716
292.70593
292.70523
292.70509
292.70557
292.70671
292.70855
292.71113
292.71446
292.71856
292.72346
292.72914
292.7356
292.74284
292.75084
292.75958
292.76899
292.77902
292.78964
292.80078
292.8124
292.82445
292.83684
292.84955
292.8625
292.87558
292.88869
292.9018
292.91484
292.92777
292.94055
292.95314
292.96548
292.97753
292.98924
293.00057
293.01146
293.02187
293.03176
293.04106
293.04975
293.05778
292.83582
292.8336
292.83116
292.82852
292.82569
292.82271
292.81958
292.81632
292.81295
292.80949
292.80596
292.80235
292.7987
292.79501
292.7913
292.78756
292.78382
292.78009
292.77638
292.77269
292.76906
292.76549
292.762
292.75862
292.75533
292.7522
292.74925
292.74652
292.74402
292.7418
292.7399
292.73834
292.73718
292.73646
292.73622
292.73649
292.73732
292.73874
292.74081
292.74355
292.74698
292.75112
292.75599
292.76158
292.76789
292.77493
292.78267
292.79109
292.80015
292.8098
292.82
292.8307
292.84187
292.85343
292.86535
292.87756
292.89
292.90262
292.91528
292.92789
292.94044
292.95287
292.96514
292.9772
292.98902
293.00055
293.01173
293.02252
293.03287
293.04272
293.05205
293.06079
293.0689
293.07635
292.84446
292.8427
292.84075
292.83862
292.83634
292.83391
292.83137
292.82871
292.82597
292.82314
292.82025
292.81731
292.81433
292.81132
292.8083
292.80526
292.80223
292.79921
292.79622
292.79326
292.79036
292.78752
292.78476
292.78211
292.77957
292.77714
292.7749
292.77287
292.77106
292.76949
292.76822
292.76727
292.76668
292.76648
292.76673
292.76744
292.76865
292.77041
292.77275
292.77569
292.77927
292.78349
292.78838
292.79393
292.80015
292.80703
292.81456
292.82272
292.83147
292.84078
292.8506
292.8609
292.87163
292.88273
292.89418
292.90591
292.91786
292.92999
292.94218
292.95431
292.96635
292.97826
292.99001
293.00154
293.01282
293.0238
293.03442
293.04466
293.05444
293.06373
293.07247
293.08063
293.08815
293.09501
292.85259
292.85131
292.84986
292.84825
292.84651
292.84464
292.84266
292.8406
292.83846
292.83625
292.83399
292.83169
292.82936
292.82701
292.82466
292.82231
292.81996
292.81764
292.81535
292.81311
292.81092
292.80879
292.80675
292.80482
292.80301
292.80131
292.79977
292.79843
292.79731
292.7964
292.79577
292.79543
292.79543
292.79579
292.79654
292.79771
292.79935
292.80147
292.80412
292.80731
292.81107
292.81542
292.82038
292.82594
292.83211
292.83888
292.84625
292.8542
292.86269
292.87169
292.88118
292.8911
292.90143
292.91211
292.92311
292.93437
292.94584
292.95748
292.9692
292.98084
292.99237
293.00376
293.01497
293.02596
293.03669
293.04711
293.05717
293.06683
293.07603
293.08474
293.09289
293.10046
293.10739
293.11366
292.86019
292.85939
292.85844
292.85735
292.85613
292.85481
292.8534
292.8519
292.85034
292.84873
292.84708
292.8454
292.8437
292.84199
292.84029
292.83859
292.83691
292.83527
292.83366
292.8321
292.83061
292.82919
292.82785
292.82663
292.82552
292.82453
292.82369
292.82305
292.8226
292.82236
292.82237
292.82266
292.82325
292.82417
292.82544
292.82711
292.82918
292.8317
292.83469
292.83817
292.84216
292.84668
292.85175
292.85736
292.86352
292.87024
292.87749
292.88527
292.89355
292.90229
292.91148
292.92107
292.93102
292.94131
292.95189
292.96271
292.97372
292.98487
292.99611
293.00727
293.01829
293.02915
293.03982
293.05027
293.06044
293.07031
293.0798
293.08888
293.0975
293.10562
293.11319
293.12017
293.12651
293.13219
292.86718
292.86687
292.86643
292.86585
292.86516
292.86437
292.8635
292.86256
292.86156
292.86052
292.85945
292.85837
292.85727
292.85617
292.85509
292.85402
292.85298
292.85198
292.85104
292.85015
292.84933
292.84859
292.84794
292.8474
292.84698
292.84668
292.84655
292.84658
292.84678
292.8472
292.84786
292.84877
292.84996
292.85145
292.85326
292.85543
292.85797
292.8609
292.86426
292.86806
292.87231
292.87704
292.88226
292.88797
292.89417
292.90087
292.90805
292.9157
292.92381
292.93233
292.94126
292.95055
292.96017
292.9701
292.98029
292.99069
293.00126
293.01196
293.02272
293.03339
293.04391
293.05426
293.0644
293.0743
293.08393
293.09324
293.10218
293.11068
293.11872
293.12627
293.13326
293.13965
293.14543
293.15053
292.87359
292.87377
292.87381
292.87373
292.87355
292.87327
292.87292
292.87251
292.87205
292.87156
292.87105
292.87052
292.87
292.86948
292.86898
292.86852
292.86809
292.86771
292.86739
292.86714
292.86697
292.86688
292.8669
292.86703
292.86727
292.86765
292.86819
292.86887
292.86973
292.87081
292.87211
292.87364
292.87542
292.87748
292.87984
292.88251
292.88553
292.8889
292.89264
292.89678
292.90133
292.90631
292.91171
292.91755
292.92383
292.93055
292.9377
292.94527
292.95324
292.9616
292.9703
292.97934
292.98867
292.99828
293.00811
293.01812
293.02828
293.03854
293.04885
293.05904
293.06907
293.07891
293.08854
293.09792
293.10701
293.11577
293.12416
293.13211
293.13959
293.14657
293.153
293.15884
293.16406
293.16862
291.62606
291.58835
291.5818
291.59182
291.61706
291.64985
291.68484
291.71861
291.7489
291.6203
291.577
291.57594
291.59079
291.61849
291.65313
291.68938
291.72399
291.75484
291.62812
291.57888
291.57678
291.5924
291.62159
291.65739
291.69456
291.72983
291.76121
291.63766
291.58302
291.57763
291.59403
291.62437
291.66129
291.69938
291.73534
291.76723
291.64759
291.58769
291.57863
291.59536
291.62681
291.66487
291.70389
291.74054
291.77292
291.65732
291.59261
291.57979
291.59667
291.62917
291.66832
291.70824
291.74554
291.77839
291.66707
291.59808
291.58171
291.59831
291.63166
291.6718
291.71254
291.75045
291.78372
291.67729
291.60434
291.58453
291.60052
291.63445
291.67542
291.7169
291.75535
291.78899
291.68852
291.61172
291.58851
291.60352
291.63772
291.67932
291.72141
291.76033
291.79429
291.70106
291.62048
291.5939
291.60752
291.64163
291.68363
291.72618
291.76548
291.7997
291.71469
291.63083
291.60098
291.61277
291.64633
291.68847
291.73133
291.7709
291.80531
291.72933
291.64313
291.60989
291.6194
291.65195
291.69397
291.73694
291.77667
291.81121
291.74502
291.65724
291.62059
291.62719
291.65861
291.70023
291.74313
291.78289
291.81748
291.7618
291.67345
291.63305
291.63639
291.66646
291.70735
291.74997
291.78963
291.82418
291.77944
291.69131
291.64732
291.64751
291.67555
291.7154
291.75753
291.79696
291.8314
291.7976
291.71043
291.66331
291.6602
291.68589
291.72444
291.76588
291.80495
291.83917
291.81607
291.73048
291.68083
291.67436
291.69748
291.73448
291.77504
291.81362
291.84755
291.83472
291.7512
291.69965
291.6899
291.7103
291.74553
291.78504
291.82299
291.85655
291.85328
291.77246
291.71958
291.70672
291.72428
291.75757
291.79587
291.83308
291.86617
291.87149
291.79399
291.74041
291.72463
291.73934
291.77055
291.80751
291.84387
291.87642
291.88922
291.81541
291.76179
291.74346
291.75535
291.7844
291.8199
291.85532
291.88726
291.90639
291.83656
291.78349
291.76299
291.77217
291.79902
291.83299
291.86739
291.89866
291.92292
291.85731
291.8053
291.78304
291.78967
291.81432
291.84669
291.88001
291.91056
291.93874
291.87747
291.82697
291.80338
291.80766
291.83017
291.86093
291.89312
291.9229
291.9538
291.89688
291.84829
291.82381
291.82601
291.84644
291.87559
291.90664
291.93561
291.96811
291.9155
291.86912
291.84418
291.84454
291.86303
291.89059
291.92047
291.94862
291.98172
291.93329
291.88936
291.86432
291.86313
291.8798
291.90583
291.93454
291.96184
291.99472
291.95028
291.90893
291.88412
291.88165
291.89666
291.9212
291.94877
291.97521
292.0072
291.96652
291.92781
291.9035
291.9
291.9135
291.93664
291.96307
291.98865
292.01929
291.98209
291.94601
291.92241
291.91811
291.93025
291.95205
291.97738
292.00211
292.03108
291.99711
291.96358
291.94084
291.93594
291.94685
291.9674
291.99166
292.01554
292.04272
292.01169
291.98059
291.9588
291.95344
291.96326
291.98262
292.00585
292.02888
292.05433
292.02596
291.99712
291.97631
291.97064
291.97947
291.99771
292.01993
292.04213
292.06602
292.04005
292.01329
291.99345
291.98754
291.99547
292.01265
292.03389
292.05527
292.07794
292.05411
292.02922
292.01029
292.0042
292.01129
292.02745
292.04773
292.0683
292.09024
292.0683
292.04503
292.02692
292.02065
292.02696
292.04214
292.06148
292.08124
292.10299
292.08275
292.06085
292.04343
292.03697
292.04251
292.05675
292.07516
292.09412
292.11627
292.09733
292.07665
292.05987
292.05322
292.05802
292.07132
292.08882
292.10698
292.13008
292.11206
292.09256
292.07634
292.06947
292.07354
292.08591
292.10251
292.11987
292.1445
292.12748
292.10882
292.09298
292.08583
292.08915
292.1006
292.11629
292.13285
292.15973
292.14362
292.12553
292.10988
292.10238
292.10494
292.11545
292.13023
292.146
292.17581
292.16043
292.14274
292.12715
292.11923
292.12099
292.13055
292.14441
292.15938
292.1929
292.17792
292.16048
292.14485
292.13644
292.13737
292.14597
292.15892
292.17308
292.21049
292.19598
292.1788
292.16306
292.1541
292.15417
292.1618
292.17382
292.18718
292.22903
292.21482
292.19776
292.18183
292.17228
292.17146
292.17812
292.1892
292.20174
292.2484
292.23441
292.21739
292.20121
292.19103
292.18931
292.19499
292.20513
292.21686
292.26846
292.25469
292.23767
292.22123
292.2104
292.20778
292.21247
292.22168
292.23259
292.28919
292.2756
292.25859
292.24188
292.23041
292.22688
292.23059
292.23888
292.249
292.31051
292.2971
292.28012
292.26315
292.25106
292.24665
292.2494
292.25678
292.2661
292.33229
292.31909
292.30216
292.28499
292.27232
292.26707
292.26888
292.27537
292.28393
292.35439
292.34144
292.32463
292.30732
292.29415
292.2881
292.28902
292.29466
292.30248
292.37669
292.36403
292.34742
292.33004
292.31645
292.30968
292.30976
292.31459
292.3217
292.39904
292.38672
292.37038
292.35304
292.33913
292.33172
292.33102
292.33509
292.34153
292.42131
292.40938
292.39339
292.37619
292.36205
292.35409
292.35269
292.35605
292.36187
292.4434
292.43188
292.41632
292.39934
292.38508
292.37666
292.37462
292.37734
292.38257
292.4652
292.45412
292.43902
292.42235
292.40805
292.39927
292.39667
292.39879
292.40347
292.48662
292.47599
292.4614
292.44509
292.43083
292.42175
292.41867
292.42023
292.42439
292.50763
292.49743
292.48335
292.46744
292.45328
292.44397
292.44043
292.44147
292.44512
292.5282
292.51841
292.50483
292.48933
292.47528
292.46578
292.46182
292.46234
292.46549
292.54833
292.53892
292.52581
292.51069
292.49677
292.48706
292.48268
292.48268
292.48531
292.56806
292.55899
292.54629
292.53152
292.51769
292.50777
292.50294
292.50238
292.50444
292.58743
292.57866
292.56634
292.55185
292.53805
292.52786
292.52253
292.52135
292.5228
292.60651
292.598
292.586
292.57173
292.5579
292.54737
292.54146
292.5396
292.54035
292.62536
292.6171
292.60538
292.59127
292.57733
292.56638
292.55979
292.55715
292.55713
292.64403
292.63602
292.62456
292.61058
292.59646
292.58499
292.57765
292.57415
292.57326
292.66256
292.65482
292.64363
292.62975
292.61541
292.60337
292.5952
292.59074
292.58892
292.68095
292.67352
292.66264
292.64889
292.63433
292.62168
292.61261
292.60716
292.60436
292.69919
292.69213
292.68163
292.66807
292.65333
292.64007
292.6301
292.62362
292.61981
292.71721
292.7106
292.70058
292.68731
292.67248
292.65868
292.64784
292.64035
292.63555
292.73496
292.72887
292.71943
292.70659
292.69179
292.67756
292.66594
292.65751
292.65176
292.75232
292.74682
292.73807
292.72581
292.71124
292.69674
292.68447
292.6752
292.66861
292.76919
292.76433
292.75638
292.74486
292.7307
292.71613
292.70339
292.69344
292.68613
292.78546
292.78128
292.7742
292.76356
292.75001
292.73559
292.72258
292.71212
292.70425
292.80103
292.79752
292.79136
292.78172
292.76896
292.75491
292.74184
292.73106
292.72277
292.81583
292.81297
292.80773
292.79916
292.78733
292.77383
292.76089
292.74997
292.74141
292.8298
292.82752
292.82317
292.81568
292.80487
292.79208
292.77943
292.7685
292.75978
292.84291
292.84115
292.8376
292.83115
292.8214
292.85519
291.77823
291.80747
291.83341
291.85657
291.87735
291.89613
291.91331
291.92951