/*--------------------------------*- C++ -*----------------------------------*\
| =========                 |                                                 |
| \\      /  F ield         | OpenFOAM: The Open Source CFD Toolbox           |
|  \\    /   O peration     | Version:  2406                                  |
|   \\  /    A nd           | Website:  www.openfoam.com                      |
|    \\/     M anipulation  |                                                 |
\*---------------------------------------------------------------------------*/
FoamFile
{
    version     2.0;
    format      ascii;
    arch        "LSB;label=32;scalar=64";
    class       volVectorField;
    location    "0.01";
    object      U;
}
// * * * * * * * * * * * * * * * * * * * * * * * * * * * * * * * * * * * * * //

dimensions      [0 1 -1 0 0 0 0];

internalField   nonuniform List<vector> 
8950
(
(24.681605 2.1444764 1.8068498e-18)
(26.038312 2.48998 -2.1766835e-18)
(27.219431 2.530457 -1.774728e-22)
(28.205213 2.4797383 2.0522995e-18)
(29.027612 2.4082258 -1.5606669e-20)
(29.735362 2.3255828 -3.0410699e-20)
(30.362024 2.2328555 -1.4826449e-20)
(30.925597 2.1321717 0)
(31.434978 2.0284309 -1.4123819e-20)
(31.8964 1.9322996 -9.6015111e-25)
(32.319719 1.8555876 -1.3478084e-20)
(32.714419 1.7950638 -1.6861744e-18)
(33.086493 1.7463691 1.6613164e-18)
(33.437812 1.7087376 -1.2593487e-20)
(33.769811 1.6807128 0)
(34.084033 1.6610623 -1.204911e-20)
(34.381615 1.6484256 0)
(34.662937 1.6423924 1.1536497e-20)
(34.929492 1.6435464 -1.1290683e-20)
(35.183428 1.6529275 -2.2105815e-20)
(35.425983 1.6714854 1.0821129e-20)
(35.658155 1.6987584 1.0596373e-20)
(35.880961 1.7338813 0)
(36.095647 1.7763215 2.0324619e-20)
(36.302311 1.8268867 0)
(36.501331 1.8863427 -1.2386775e-18)
(36.693284 1.9552677 2.4664288e-18)
(36.87849 2.0339558 -1.2186173e-18)
(37.057139 2.1225789 -1.1770071e-18)
(37.228946 2.2213857 1.1729891e-18)
(37.39367 2.330861 0)
(37.550302 2.4511783 1.739473e-20)
(37.698002 2.5821301 0)
(37.835888 2.7238485 0)
(37.962463 2.8766107 -3.3018621e-20)
(38.075947 3.04203 1.0391094e-18)
(38.176969 3.2219258 8.3739176e-23)
(38.266378 3.403469 -1.0213108e-18)
(38.337485 3.5791066 1.5462789e-20)
(38.384414 3.7715648 0)
(38.412524 3.9729039 -2.0719713e-25)
(38.422085 4.1773043 0)
(38.406951 4.3899024 -7.957646e-26)
(38.37317 4.568154 -8.719191e-19)
(38.309688 4.7705722 9.1826742e-19)
(38.222117 4.9603835 8.5801618e-19)
(38.110475 5.1387898 1.6838547e-22)
(37.972439 5.3060845 -8.5701119e-19)
(37.810101 5.4593154 -1.3171439e-20)
(37.624204 5.5977125 -1.5978968e-25)
(37.415492 5.7198764 0)
(37.185141 5.8244043 7.7635809e-19)
(36.934637 5.9102258 -1.5878188e-18)
(36.665726 5.9766764 -1.2287636e-20)
(36.380257 6.0234287 7.6126855e-19)
(36.080051 6.0503976 7.2528814e-19)
(35.766937 6.0575957 -7.82065e-19)
(35.442763 6.0452444 7.2413292e-19)
(35.109276 6.0137427 -7.1221656e-19)
(34.768189 5.9634842 0)
(34.42116 5.8950686 2.1559559e-20)
(34.069717 5.8091192 0)
(33.715353 5.7063464 6.4793342e-19)
(33.35949 5.5876254 -6.997183e-19)
(33.003406 5.4539269 0)
(32.648385 5.306155 -6.5908984e-19)
(32.295808 5.1453909 6.2951732e-19)
(31.946997 4.9728762 1.9384577e-20)
(31.603204 4.7898341 -1.9099751e-20)
(31.265776 4.5973879 1.8820148e-20)
(30.936134 4.3967285 -5.7498898e-19)
(30.615768 4.1888923 -1.8365183e-20)
(30.306301 3.9749606 1.1351279e-18)
(30.009251 3.756078 -1.1190561e-18)
(29.725829 3.5332784 -6.7511377e-23)
(29.457477 3.3069902 1.1053212e-18)
(29.205635 3.0786841 -1.090144e-18)
(28.971325 2.8490102 5.5452624e-19)
(17.379774 0.88289708 0)
(18.698825 1.3097842 -1.6363102e-20)
(20.055262 1.4855069 1.5868116e-20)
(21.290263 1.5573314 1.9715571e-18)
(22.383706 1.5876391 -1.9015051e-18)
(23.362261 1.5907823 1.8800063e-18)
(24.248779 1.572213 -1.8032504e-18)
(25.055886 1.538959 1.3845076e-20)
(25.791957 1.4996409 1.7427593e-18)
(26.465727 1.4630799 -1.7013781e-18)
(27.08786 1.4347668 1.2881469e-20)
(27.667538 1.4142581 -1.5982158e-18)
(28.210743 1.4008772 1.5741262e-18)
(28.721566 1.3948825 -1.2020037e-20)
(29.203415 1.3955635 -1.5041929e-18)
(29.658793 1.401642 2.9415864e-18)
(30.08946 1.412173 -1.4383518e-18)
(30.497064 1.4272992 1.4178106e-18)
(30.883861 1.4480168 -1.028845e-23)
(31.252356 1.4754771 2.1030363e-20)
(31.604788 1.5102823 -1.3279208e-18)
(31.943001 1.5521688 1.0074534e-20)
(32.268248 1.6007082 0)
(32.581386 1.6560875 9.6551173e-21)
(32.882952 1.7192396 1.2103035e-18)
(33.173734 1.790975 -1.1670733e-18)
(33.4544 1.8718618 0)
(33.725286 1.9622257 0)
(33.986635 2.0623684 0)
(34.238269 2.1727544 1.1130638e-18)
(34.479953 2.2939006 -1.0756137e-18)
(34.71101 2.4259647 -1.0726051e-18)
(34.930492 2.569011 -4.880859e-23)
(35.137367 2.7232763 1.0191222e-18)
(35.330589 2.8893359 -9.8611332e-19)
(35.50949 3.0680401 1.5315734e-20)
(35.675093 3.2569198 9.6854913e-19)
(35.824944 3.4469864 0)
(35.951478 3.638211 -2.9289417e-20)
(36.05393 3.8432086 -9.222267e-19)
(36.136967 4.0556724 8.9313435e-19)
(36.199071 4.2705233 -1.3949873e-20)
(36.238228 4.4805446 -1.3724508e-20)
(36.251555 4.6801053 8.5068661e-19)
(36.233192 4.895909 -1.6698285e-18)
(36.19567 5.0748542 1.2355814e-20)
(36.127799 5.2621078 -1.6273736e-22)
(36.032938 5.434931 1.2451084e-20)
(35.913025 5.5894086 8.0616373e-19)
(35.768277 5.7289947 7.922845e-19)
(35.59943 5.8510149 -1.5325886e-18)
(35.407737 5.9545001 7.4088283e-19)
(35.194755 6.0383069 1.1552189e-20)
(34.962289 6.1019159 1.1346832e-20)
(34.712214 6.145139 7.1343181e-19)
(34.446346 6.1679901 -1.4015263e-18)
(34.166547 6.1705371 2.1345601e-20)
(33.874706 6.1531167 6.8708157e-19)
(33.572575 6.1162208 0)
(33.261928 6.0602668 0)
(32.944487 5.9859759 -2.0091035e-20)
(32.621822 5.8940051 1.9762759e-20)
(32.295533 5.7851373 -1.454531e-24)
(31.96712 5.6603416 6.313474e-19)
(31.63791 5.5206171 -6.2119485e-19)
(31.309314 5.3668288 3.7058931e-20)
(30.982861 5.2001299 1.8240603e-20)
(30.659925 5.0218104 -1.7956733e-20)
(30.341799 4.8330471 1.76808e-20)
(30.02992 4.6348952 0)
(29.725774 4.4285241 -1.7150289e-20)
(29.43091 4.2148938 -8.8456352e-25)
(29.147009 3.9951266 5.3271408e-19)
(28.875507 3.7704305 1.6471399e-20)
(28.61745 3.5417776 -5.1741711e-19)
(28.374338 3.3095178 -1.5942474e-20)
(28.147527 3.0753677 0)
(11.534905 -0.22112007 -8.1223745e-21)
(12.818821 0.20498186 2.0485315e-18)
(14.192714 0.44518817 1.4086327e-22)
(15.493917 0.59556634 -3.8230732e-18)
(16.694505 0.7010758 3.7113985e-18)
(17.803843 0.77439066 -3.6147975e-18)
(18.830341 0.82238215 3.5244268e-18)
(19.779119 0.85324227 -1.7330707e-18)
(20.655792 0.87512647 0)
(21.467966 0.89470238 -1.6407447e-18)
(22.224353 0.91579089 4.8995561e-24)
(22.932328 0.93912361 3.1241449e-18)
(23.597524 0.96515455 -1.5338158e-18)
(24.224663 0.99422013 1.1723126e-20)
(24.817674 1.0258805 1.146987e-20)
(25.379577 1.0595949 -1.4368024e-18)
(25.912868 1.0953495 1.1176582e-23)
(26.419974 1.1338658 1.3659195e-18)
(26.903515 1.1762754 -1.3373465e-18)
(27.366149 1.2236216 1.3096129e-18)
(27.810269 1.2764652 1.2927752e-18)
(28.237748 1.3348637 -1.2664356e-18)
(28.649842 1.3989432 -1.2311986e-18)
(29.047486 1.4693481 1.2066536e-18)
(29.431538 1.5470779 0)
(29.802864 1.6329454 -9.134471e-21)
(30.162074 1.7275481 1.1469798e-18)
(30.50948 1.831326 -1.1255935e-18)
(30.845211 1.9447684 1.1050669e-18)
(31.16917 2.0684983 -1.1022172e-18)
(31.48107 2.2030679 -8.3299349e-21)
(31.78041 2.3487804 -1.0479304e-18)
(32.066438 2.5057882 1.0382398e-18)
(32.338093 2.6743626 1.0131898e-18)
(32.594691 2.8548662 6.8244016e-23)
(32.8361 3.046849 -1.0112932e-18)
(33.062091 3.2468708 0)
(33.26853 3.4497056 0)
(33.450469 3.6577615 2.9220063e-20)
(33.609236 3.8769552 0)
(33.747272 4.1017305 -9.2033177e-19)
(33.862854 4.3266923 2.7741176e-20)
(33.953512 4.547008 1.3577867e-20)
(34.015054 4.7613205 1.7276779e-18)
(34.049138 4.9754088 1.5449091e-22)
(34.058311 5.1727238 -1.290133e-20)
(34.035146 5.3717311 -7.9697583e-19)
(33.98999 5.538176 0)
(33.913789 5.7014525 -1.233141e-20)
(33.813383 5.845492 0)
(33.687303 5.9696291 0)
(33.537571 6.0746705 1.176405e-20)
(33.365413 6.1587453 0)
(33.172706 6.221839 -7.2629454e-19)
(32.961325 6.2637577 7.1310289e-19)
(32.733062 6.284598 0)
(32.489828 6.2844556 0)
(32.233544 6.2638006 -1.0560616e-20)
(31.965956 6.2232046 1.03772e-20)
(31.68893 6.1630746 0)
(31.404251 6.0842947 1.0024196e-20)
(31.11353 5.9875188 -1.9708766e-20)
(30.818495 5.8736191 -6.0085926e-19)
(30.520703 5.7436641 1.2388966e-18)
(30.221515 5.598657 -5.8112158e-19)
(29.922487 5.4394061 -5.9025273e-19)
(29.625287 5.2671893 5.6251429e-19)
(29.331289 5.083345 0)
(29.041804 4.8889848 -1.7578415e-20)
(28.758362 4.6851035 0)
(28.482496 4.4728823 1.7039705e-20)
(28.215794 4.2532155 1.6782734e-20)
(27.959978 4.0273267 1.6534274e-20)
(27.716337 3.7965084 -1.629219e-20)
(27.485744 3.5616537 0)
(27.269822 3.3230071 5.2244958e-19)
(27.069872 3.082657 -9.9913601e-19)
(7.3760461 -1.1222877 7.7495977e-21)
(8.5703503 -0.77608155 -7.5500233e-21)
(9.847583 -0.53975582 7.3328347e-21)
(11.08879 -0.35526247 7.1311058e-21)
(12.267669 -0.20218491 -1.3890837e-20)
(13.380635 -0.075189657 0)
(14.42722 0.029962795 0)
(15.408154 0.11907513 0)
(16.326622 0.19770656 1.6158476e-18)
(17.187771 0.27026698 -1.2346357e-20)
(17.997567 0.33926174 -1.5584927e-18)
(18.761314 0.40569425 1.1825078e-20)
(19.483793 0.47041794 -1.4704391e-18)
(20.169251 0.53400289 1.4627098e-18)
(20.821309 0.59659311 1.3994032e-18)
(21.442953 0.65844189 -1.3818522e-18)
(22.036802 0.72020539 1.353992e-18)
(22.605353 0.78293114 -1.3373898e-18)
(23.15109 0.8477952 0)
(23.676395 0.91580375 0)
(24.183347 0.98764268 -1.2700788e-18)
(24.673555 1.0637718 2.4624189e-18)
(25.148152 1.1447829 -1.2220706e-18)
(25.608072 1.2316066 -1.189927e-18)
(26.054166 1.325286 1.1680077e-18)
(26.487149 1.4266816 -1.1468822e-18)
(26.907468 1.5364843 1.1264906e-18)
(27.315324 1.6552838 0)
(27.71072 1.7837304 8.4996975e-21)
(28.093515 1.9225478 -8.3574214e-21)
(28.463394 2.0723107 8.220462e-21)
(28.81987 2.2333695 0)
(29.162206 2.4059703 -1.5919897e-20)
(29.489682 2.5902817 1.0030543e-18)
(29.80166 2.7862045 -9.7988184e-19)
(30.09777 2.992562 1.519771e-20)
(30.376631 3.2062309 0)
(30.634415 3.4246432 0)
(30.868502 3.6501876 8.0798003e-26)
(31.080209 3.8843581 1.4308637e-20)
(31.270228 4.1221988 1.4093229e-20)
(31.436534 4.3591654 -1.3879041e-20)
(31.576344 4.5917791 -2.7331438e-20)
(31.687311 4.8191271 0)
(31.771447 5.0422666 1.3238891e-20)
(31.827588 5.2511095 2.605051e-20)
(31.854957 5.4503482 -8.1998681e-19)
(31.854091 5.6379801 7.8316462e-19)
(31.825151 5.7976988 -1.1748488e-20)
(31.771989 5.9442475 -7.7081113e-19)
(31.689546 6.0755778 7.6383542e-19)
(31.584565 6.1828811 7.5145956e-19)
(31.455616 6.2681358 -7.2628917e-19)
(31.305361 6.3317168 7.2471993e-19)
(31.135432 6.373186 1.7736115e-22)
(30.947601 6.3928555 -6.9865682e-19)
(30.743853 6.390776 6.862847e-19)
(30.526108 6.3676019 -6.7386774e-19)
(30.296083 6.3239544 -1.0343511e-20)
(30.055766 6.2601844 6.5044418e-19)
(29.806974 6.1774206 -6.4894799e-19)
(29.551339 6.0762397 -6.2807541e-19)
(29.290738 5.9576483 6.0755444e-19)
(29.026737 5.8228237 -9.4806844e-21)
(28.760701 5.6727329 0)
(28.494365 5.5081113 -3.6671209e-20)
(28.22951 5.3304484 -5.952079e-19)
(27.967436 5.1411148 1.1355594e-18)
(27.709459 4.9411215 -1.0999827e-18)
(27.457213 4.7314143 5.4990023e-19)
(27.212233 4.5132175 -1.6920567e-20)
(26.97616 4.2873431 -5.3326719e-19)
(26.750759 4.0551948 5.0883174e-19)
(26.537104 3.8181694 0)
(26.335881 3.5770203 -1.5941932e-20)
(26.148944 3.3318585 0)
(25.977413 3.0852972 -4.9601961e-19)
(4.6148016 -1.9967058 1.8723948e-18)
(5.6790227 -1.7020298 1.2286051e-22)
(6.8103539 -1.4640536 -1.7890058e-18)
(7.9226577 -1.2518544 -1.7361621e-18)
(8.9968422 -1.0604912 3.3935406e-18)
(10.026546 -0.88931689 -1.6533497e-18)
(11.007818 -0.73641881 0)
(11.939594 -0.59848005 0)
(12.823039 -0.47215228 -1.5522487e-18)
(13.660909 -0.35476516 1.525835e-18)
(14.456961 -0.24483662 1.1587756e-20)
(15.214967 -0.14123207 -1.4648011e-18)
(15.93835 -0.042771985 2.8271824e-18)
(16.630412 0.051349814 -1.4078237e-18)
(17.294048 0.14176503 2.1405178e-20)
(17.931777 0.2292551 -1.049832e-20)
(18.545866 0.31487914 1.0299617e-20)
(19.138433 0.39989134 0)
(19.7115 0.48553402 1.2795571e-18)
(20.26692 0.57288858 -1.2366257e-18)
(20.806295 0.66286801 9.5611198e-21)
(21.330866 0.75626053 0)
(21.841521 0.8539617 1.1807413e-18)
(22.339032 0.95708899 -1.1602379e-18)
(22.824029 1.0667428 8.909519e-21)
(23.29696 1.1838566 8.7601547e-21)
(23.758046 1.3092238 -8.6160394e-21)
(24.207316 1.4435588 -1.0766105e-18)
(24.644629 1.5876284 1.0595372e-18)
(25.06977 1.7422058 8.213493e-21)
(25.482352 1.9078537 0)
(25.881853 2.0849451 -7.9669617e-21)
(26.267606 2.2736982 7.8496149e-21)
(26.638906 2.4741187 0)
(26.995126 2.6857731 -9.8355505e-19)
(27.335422 2.9071802 9.6193358e-19)
(27.657911 3.1360221 0)
(27.959639 3.3711679 0)
(28.239162 3.6137272 -9.360638e-19)
(28.49719 3.8628171 1.8027513e-18)
(28.733421 4.1142413 -1.790784e-18)
(28.945692 4.3641971 8.8223706e-19)
(29.131523 4.6099068 1.3580858e-20)
(29.289719 4.8502224 0)
(29.421136 5.0833228 0)
(29.524313 5.3027593 -2.5918424e-20)
(29.598972 5.5108537 1.2749484e-20)
(29.645955 5.7007173 -7.8998576e-19)
(29.664483 5.8712786 8.0111362e-19)
(29.653848 6.031154 1.1800956e-20)
(29.620147 6.1569586 0)
(29.560969 6.2686252 0)
(29.476581 6.3575606 -7.3497933e-19)
(29.370913 6.4222509 -1.8012413e-22)
(29.244622 6.4641646 6.9743616e-19)
(29.099583 6.4834881 6.9584483e-19)
(28.937906 6.4802481 -6.9375652e-19)
(28.76139 6.4553357 0)
(28.571723 6.4093879 -6.5887605e-19)
(28.371034 6.342627 6.5707797e-19)
(28.161108 6.2565661 -9.9312495e-21)
(27.943568 6.1515519 6.1472869e-19)
(27.72047 6.0288246 -6.03893e-19)
(27.493299 5.8896649 6.0303189e-19)
(27.263396 5.7349369 -5.926348e-19)
(27.032724 5.5652947 1.8209574e-20)
(26.803127 5.3825731 5.910046e-19)
(26.575722 5.1881099 -5.7244095e-19)
(26.351859 4.9827558 -8.6661399e-21)
(26.133314 4.7674313 0)
(25.921589 4.5434426 1.6793557e-20)
(25.718397 4.3115031 -5.1272479e-19)
(25.525533 4.0733069 5.2130092e-19)
(25.343757 3.8303473 0)
(25.173557 3.5831224 1.582307e-20)
(25.017113 3.3316024 0)
(2.8487864 -2.7739311 -6.9477788e-21)
(3.7554235 -2.507164 0)
(4.7170889 -2.2658332 0)
(5.6725218 -2.0347858 6.4313877e-21)
(6.6057791 -1.8168661 -1.256474e-20)
(7.5107376 -1.6140401 -6.1409651e-21)
(8.3828024 -1.4261587 1.5377673e-18)
(9.2202821 -1.252192 -1.5055271e-18)
(10.023347 -1.09039 1.152397e-20)
(10.793372 -0.93946942 0)
(11.532568 -0.7984874 -1.4238895e-18)
(12.243535 -0.66618535 1.386231e-18)
(12.928571 -0.54130816 1.0671563e-20)
(13.589949 -0.42291998 0)
(14.229787 -0.31009904 -1.3271351e-18)
(14.850012 -0.20171997 1.2934201e-18)
(15.452354 -0.096443504 9.9269269e-21)
(16.038375 0.0071438169 0)
(16.609525 0.1103638 1.2079984e-18)
(17.167085 0.21441531 -1.2157864e-18)
(17.712146 0.32036692 1.1862024e-18)
(18.245606 0.42921216 8.8679261e-24)
(18.768095 0.54210221 1.1565278e-23)
(19.280071 0.6602866 -2.2587822e-18)
(19.781883 0.7849055 2.2233215e-18)
(20.273689 0.91695693 -8.5294477e-21)
(20.755478 1.0573053 -1.069521e-18)
(21.227112 1.2067449 -1.0702504e-18)
(21.688312 1.3661171 1.0464225e-18)
(22.138803 1.5361971 -8.0581626e-21)
(22.578093 1.717498 1.0169477e-18)
(23.005621 1.9103879 -1.0027831e-18)
(23.420736 2.1150155 -9.9682964e-19)
(23.822684 2.331235 -6.8277636e-23)
(24.210719 2.5584122 9.6249563e-19)
(24.583667 2.7951152 0)
(24.939667 3.0397036 7.3197185e-21)
(25.276528 3.2913751 0)
(25.593186 3.549976 -7.1240137e-21)
(25.889607 3.8136486 0)
(26.164867 4.0787669 0)
(26.417005 4.3420075 0)
(26.644059 4.600897 6.7342542e-21)
(26.845106 4.8536132 0)
(27.020093 5.0972095 0)
(27.167715 5.3274588 1.2867556e-20)
(27.287675 5.5440046 -1.2663235e-20)
(27.380401 5.7422084 -8.0981156e-19)
(27.444571 5.9210847 1.567939e-18)
(27.481619 6.0815101 -7.7052284e-19)
(27.493781 6.2169705 0)
(27.478241 6.3356861 -1.13524e-20)
(27.442731 6.4217533 -2.2178379e-20)
(27.382147 6.4903056 1.1144981e-20)
(27.301305 6.5338753 1.1006986e-20)
(27.200779 6.5536371 0)
(27.083467 6.550066 1.061018e-20)
(26.95046 6.524205 0)
(26.803634 6.4767326 0)
(26.645224 6.4076534 -1.0044115e-20)
(26.476858 6.3190901 1.9728732e-20)
(26.300152 6.2108611 -4.4571672e-25)
(26.117357 6.0846642 9.5185288e-21)
(25.929729 5.9418232 -9.3523468e-21)
(25.738602 5.7829941 -9.1918951e-21)
(25.546254 5.6087713 0)
(25.354501 5.421519 0)
(25.164173 5.2224003 5.681005e-19)
(24.976742 5.0120549 -5.4165879e-19)
(24.794139 4.791441 8.4626627e-21)
(24.617777 4.561981 5.3324931e-19)
(24.449459 4.3242471 -5.3329295e-19)
(24.290971 4.0803695 0)
(24.14262 3.8319085 0)
(24.004735 3.5789426 0)
(23.879999 3.3213249 0)
(1.7050998 -3.4233499 1.7098724e-18)
(2.4366622 -3.176356 -1.608268e-18)
(3.2341074 -2.9353387 0)
(4.0324181 -2.6914137 -6.0897583e-21)
(4.8200526 -2.4559049 -1.5144222e-18)
(5.5898576 -2.2314773 1.4939108e-18)
(6.3388859 -2.0196329 0)
(7.0648416 -1.8214189 -1.4334358e-18)
(7.7680536 -1.635604 2.8065357e-18)
(8.4491309 -1.461954 -1.3800538e-18)
(9.1095485 -1.2997784 5.2943253e-21)
(9.751042 -1.1475649 5.2015739e-21)
(10.375027 -1.0040541 0)
(10.982986 -0.86834566 -5.0256434e-21)
(11.576463 -0.73931866 0)
(12.15685 -0.61556594 0)
(12.725324 -0.49552645 1.2147556e-18)
(13.282897 -0.37768285 -2.4048436e-18)
(13.830484 -0.26066834 1.3890573e-20)
(14.368918 -0.14323684 -7.4168289e-24)
(14.898867 -0.024227223 1.1494848e-18)
(15.420887 0.097554634 -8.8448271e-21)
(15.935371 0.22343891 8.7134613e-21)
(16.442483 0.35474194 8.5861577e-21)
(16.94228 0.49264444 -1.6925895e-20)
(17.434675 0.63817004 0)
(17.919479 0.79220945 0)
(18.396428 0.95560692 -8.1154448e-21)
(18.865156 1.1292341 1.0168587e-18)
(19.32528 1.3137869 -9.9551709e-19)
(19.77632 1.5097605 -9.9821214e-19)
(20.217633 1.7175195 9.9302258e-19)
(20.648542 1.9371039 9.7283403e-19)
(21.068226 2.1682591 -9.6045103e-19)
(21.47586 2.4102749 0)
(21.870125 2.6618302 -9.2917795e-19)
(22.249303 2.9216476 9.173283e-19)
(22.611747 3.1888452 0)
(22.956507 3.462401 9.0817761e-19)
(23.282989 3.7400143 -8.8229559e-19)
(23.58986 4.0184269 0)
(23.875357 4.2946726 0)
(24.137866 4.566234 -6.6678513e-21)
(24.376513 4.8306698 0)
(24.590603 5.0848233 0)
(24.778923 5.325386 8.2283961e-19)
(24.941036 5.5507285 -8.0357602e-19)
(25.076831 5.7574587 0)
(25.185476 5.9440082 1.2153669e-20)
(25.26829 6.1102163 1.1949249e-20)
(25.325639 6.251946 0)
(25.357737 6.3717144 7.5007311e-19)
(25.367277 6.4654325 -7.1390318e-19)
(25.352169 6.5365661 -1.0896089e-20)
(25.319978 6.5799598 6.8346921e-19)
(25.264313 6.6019523 -6.8494083e-19)
(25.193867 6.5985996 -1.0533201e-20)
(25.105826 6.5730323 0)
(25.003988 6.5247303 -1.015238e-20)
(24.89011 6.4540086 6.3801844e-19)
(24.765553 6.3638088 -6.361526e-19)
(24.632002 6.2529516 9.6126886e-21)
(24.491902 6.124022 3.7176966e-25)
(24.346097 5.9781978 -9.2775159e-21)
(24.196 5.8158064 -5.7443645e-19)
(24.044308 5.637466 1.1471579e-18)
(23.892628 5.446329 -5.6394917e-19)
(23.741429 5.2431004 -5.4612859e-19)
(23.592429 5.028181 5.4578819e-19)
(23.447686 4.8026702 -8.3942889e-21)
(23.308426 4.568129 -5.2074055e-19)
(23.176594 4.3249407 5.0469326e-19)
(23.05392 4.0758769 5.1338217e-19)
(22.940127 3.8224804 -5.0594914e-19)
(22.835486 3.5641564 0)
(22.743414 3.3007652 0)
(0.81142113 -4.004493 6.4617773e-21)
(1.4898526 -3.7166341 -6.0628474e-21)
(2.1422632 -3.4669543 5.8737225e-21)
(2.7847692 -3.2228729 1.470895e-18)
(3.4304369 -2.9785619 -1.4538335e-18)
(4.0686232 -2.7411624 -1.4207367e-18)
(4.6974249 -2.5148536 1.3876473e-18)
(5.3111898 -2.302017 0)
(5.9115011 -2.1014846 1.3471464e-18)
(6.4979969 -1.9143709 -2.6373521e-18)
(7.0721105 -1.7395462 2.593302e-18)
(7.635078 -1.575034 -1.2805978e-18)
(8.1875956 -1.4198804 4.9038554e-21)
(8.7307052 -1.2733311 9.6557009e-21)
(9.2656208 -1.1339443 0)
(9.793278 -1.0000446 0)
(10.314375 -0.86991048 1.1810829e-18)
(10.829475 -0.74200692 -1.1684058e-18)
(11.339109 -0.61500416 -4.4810702e-21)
(11.843772 -0.48763835 1.1308798e-18)
(12.343859 -0.35864697 -1.1194315e-18)
(12.839654 -0.22668675 8.5918734e-21)
(13.331292 -0.090303919 -1.09333e-18)
(13.818713 0.051874602 1.0620089e-18)
(14.301751 0.20103024 8.2527181e-21)
(14.780156 0.35815802 0)
(15.253639 0.52413977 0)
(15.721879 0.69983955 7.8885885e-26)
(16.184492 0.88609247 1.0118723e-18)
(16.640984 1.0835563 -9.9951837e-19)
(17.090881 1.2927302 -7.6550589e-21)
(17.533521 1.5139025 0)
(17.968203 1.7470305 -3.3605805e-26)
(18.394078 1.9918078 -9.4532059e-19)
(18.810211 2.2474308 1.8609132e-18)
(19.215411 2.5127012 -9.3015769e-19)
(19.608102 2.7865307 0)
(19.987019 3.0677761 -9.0088642e-19)
(20.351101 3.3548445 1.7794563e-18)
(20.699444 3.6453119 -8.8534503e-19)
(21.030591 3.9361625 8.6054377e-19)
(21.342944 4.224536 -1.7116092e-18)
(21.634943 4.5077754 1.688401e-18)
(21.905589 4.7831058 -1.6648671e-18)
(22.153975 5.0473742 8.1396233e-19)
(22.378895 5.2976254 -8.1466449e-19)
(22.579615 5.5316269 7.9580297e-19)
(22.755708 5.7465552 0)
(22.906583 5.9407119 -1.2041131e-20)
(23.03293 6.1130945 -1.1840831e-20)
(23.134762 6.2608211 0)
(23.212725 6.3851332 7.2637966e-19)
(23.267934 6.4831675 -7.1900116e-19)
(23.300619 6.5564778 0)
(23.313978 6.6054513 0)
(23.305549 6.6281134 -1.0294575e-20)
(23.282849 6.6250514 -6.4894849e-19)
(23.241 6.6002284 6.5610906e-19)
(23.186006 6.5519386 1.0065524e-20)
(23.118427 6.480311 0)
(23.039365 6.3893085 -6.2111529e-19)
(22.95087 6.2763645 1.2198216e-18)
(22.855385 6.1455479 -6.083956e-19)
(22.753202 5.997481 9.1968922e-21)
(22.645995 5.8320697 0)
(22.536913 5.6501189 -8.8854123e-21)
(22.427077 5.4558923 -5.5925363e-19)
(22.316576 5.2491313 -8.6855248e-21)
(22.207564 5.0300808 5.4127694e-19)
(22.102142 4.8001478 0)
(22.001261 4.5610113 1.5334666e-25)
(21.907108 4.3128045 1.6155199e-20)
(21.82127 4.0591935 7.9605545e-21)
(21.742747 3.8015569 0)
(21.67196 3.5382901 4.8762227e-19)
(21.613225 3.2695233 -4.9628674e-19)
(0.13115111 -4.4714442 -1.5970215e-18)
(0.68362099 -4.1809729 1.5099233e-18)
(1.2380501 -3.9067085 -5.7147982e-21)
(1.7959104 -3.6334819 5.4727727e-21)
(2.2960742 -3.3920508 0)
(2.8087074 -3.1524407 2.0372495e-25)
(3.3288046 -2.9184152 5.1930416e-21)
(3.8363734 -2.6984225 0)
(4.3397198 -2.4903618 -2.1116129e-25)
(4.8341013 -2.2970281 -1.2637669e-18)
(5.3225551 -2.1161054 2.4834042e-18)
(5.8058892 -1.945281 -2.4509598e-18)
(6.2842948 -1.7843641 2.4058216e-18)
(6.7586342 -1.6325092 -2.3855413e-18)
(7.229945 -1.4876818 2.3476878e-18)
(7.6987178 -1.3480709 -2.3155193e-18)
(8.165325 -1.2118728 2.284294e-18)
(8.6300529 -1.0776473 -1.1269676e-18)
(9.0931981 -0.94415291 -1.1122172e-18)
(9.5550162 -0.81008053 1.0935548e-18)
(10.015693 -0.67406091 4.2339293e-21)
(10.475323 -0.53461767 0)
(10.933849 -0.39019521 1.0570435e-18)
(11.391042 -0.23941932 2.1807413e-23)
(11.846616 -0.08116929 -2.0672362e-18)
(12.30026 0.085475887 -2.8480307e-23)
(12.751662 0.26137043 1.0074516e-18)
(13.200497 0.44737943 1.0036372e-18)
(13.646374 0.64432201 -1.9689472e-18)
(14.088793 0.85283838 9.6572285e-19)
(14.527224 1.0733702 7.5189621e-21)
(14.961036 1.3061381 9.5170593e-19)
(15.38954 1.5510448 -9.4102209e-19)
(15.811966 1.8076898 0)
(16.227312 2.0752422 -9.1294187e-19)
(16.63455 2.3526336 9.096118e-19)
(17.03234 2.6387605 0)
(17.419538 2.9321645 -8.8184814e-19)
(17.795114 3.2309951 8.7810551e-19)
(18.157977 3.5328347 8.6754149e-19)
(18.50663 3.8347389 -8.4987797e-19)
(18.839594 4.1338956 8.4568335e-19)
(19.155395 4.4275108 -1.6687811e-18)
(19.452797 4.7126261 8.2288513e-19)
(19.730693 4.9861682 6.3382886e-21)
(19.987907 5.2452387 7.9955428e-19)
(20.223557 5.4873633 -1.5809695e-18)
(20.43692 5.7100112 1.5442533e-18)
(20.627362 5.9113254 -1.5254553e-18)
(20.79506 6.0898789 7.5006572e-19)
(20.939856 6.2436364 -5.7618044e-21)
(21.062187 6.3727581 -7.1921597e-19)
(21.162686 6.4754062 -5.7412615e-21)
(21.241825 6.5525028 7.0477261e-19)
(21.300728 6.6032495 0)
(21.341998 6.6285656 1.0536422e-20)
(21.365505 6.6291193 6.5088841e-19)
(21.371621 6.6051833 -6.4073374e-19)
(21.364236 6.5576818 9.8438258e-21)
(21.343883 6.4852265 0)
(21.311255 6.3942243 6.1533032e-19)
(21.26937 6.2797866 -6.0420563e-19)
(21.219729 6.147952 5.9366685e-19)
(21.162363 5.9983497 -5.8321771e-19)
(21.0994 5.830488 0)
(21.034363 5.6455145 1.7614447e-20)
(20.967477 5.4491473 0)
(20.898674 5.2394403 -8.5227977e-21)
(20.830748 5.0167524 8.3885349e-21)
(20.765648 4.7829842 8.2595115e-21)
(20.703979 4.5398448 -8.1354146e-21)
(20.648289 4.2871853 -8.0163787e-21)
(20.599849 4.0297312 -7.9021056e-21)
(20.556905 3.7686458 0)
(20.520362 3.5009069 4.9967234e-19)
(-0.42725736 -4.8354953 8.9258203e-21)
(0.018882491 -4.5338545 0)
(0.46910498 -4.2488013 0)
(0.91096033 -3.971314 -5.3296862e-21)
(1.3459306 -3.7053477 -5.1633225e-21)
(1.7580278 -3.459692 4.9859712e-21)
(2.1551454 -3.2349724 0)
(2.5555364 -3.0191684 4.8422189e-21)
(2.9715565 -2.8081472 -4.8155204e-21)
(3.3788918 -2.6135689 0)
(3.785636 -2.4314899 4.6795302e-21)
(4.1922536 -2.259178 4.6162546e-21)
(4.5985719 -2.0973328 9.1099824e-21)
(5.0046371 -1.9444103 0)
(5.4116266 -1.797855 -1.1361568e-18)
(5.8195634 -1.6560805 -8.8181738e-24)
(6.228834 -1.5171488 1.1080797e-18)
(6.6396352 -1.3798299 4.2758669e-21)
(7.0520825 -1.2429169 0)
(7.4661624 -1.1049672 -1.0645848e-18)
(7.8818996 -0.96453309 1.0562876e-18)
(8.2992797 -0.82003226 -1.0482316e-18)
(8.7181503 -0.66983184 1.028242e-18)
(9.1382 -0.51264798 0)
(9.5591578 -0.34748077 3.9429867e-21)
(9.9807203 -0.17349658 0)
(10.402586 0.010148277 9.8755476e-19)
(10.824455 0.20433783 3.8548775e-21)
(11.245944 0.40988463 -9.6651871e-19)
(11.666563 0.62740272 7.471143e-21)
(12.085788 0.85725253 3.6961958e-21)
(12.503049 1.0995857 7.314398e-21)
(12.917721 1.3542301 -1.3027786e-25)
(13.329118 1.6207297 9.1649691e-19)
(13.736367 1.8982648 8.2925587e-23)
(14.138523 2.185781 -9.0368888e-19)
(14.534529 2.4820601 0)
(14.923284 2.7854958 -6.8496949e-21)
(15.303802 3.0941685 -8.6667493e-19)
(15.674864 3.405522 8.5627603e-19)
(16.035177 3.7166946 -8.4593027e-19)
(16.38328 4.0249459 8.3511104e-19)
(16.717687 4.3273731 0)
(17.037072 4.6209144 0)
(17.340149 4.9025021 0)
(17.62562 5.1693037 0)
(17.8925 5.418741 7.8456361e-19)
(18.139914 5.6483484 6.1631254e-21)
(18.367111 5.8562035 -7.6003986e-19)
(18.573799 6.0407132 7.4199956e-19)
(18.759618 6.2002026 5.8777223e-21)
(18.924715 6.3342514 1.7761185e-22)
(19.069435 6.4416304 -6.9890682e-19)
(19.194158 6.5226651 6.8670219e-19)
(19.299716 6.5771555 -6.7954623e-19)
(19.388316 6.604382 5.2140509e-21)
(19.457351 6.6080589 0)
(19.512386 6.5857075 6.5356166e-19)
(19.552866 6.5384756 -6.415742e-19)
(19.580051 6.4666889 4.7742332e-21)
(19.594203 6.3790264 0)
(19.600329 6.2621227 0)
(19.596514 6.1302205 9.1878612e-21)
(19.584702 5.9797503 -5.8697791e-19)
(19.566913 5.810087 5.6806561e-19)
(19.546734 5.6228285 -5.6748299e-19)
(19.523134 5.425288 5.4959076e-19)
(19.496596 5.2131657 8.4516464e-21)
(19.470462 4.9874174 5.2424026e-19)
(19.44623 4.7505134 -5.3262124e-19)
(19.424238 4.5040667 0)
(19.407394 4.2476943 5.1729223e-19)
(19.396396 3.9871893 -5.0215224e-19)
(19.389027 3.7233027 0)
(19.387093 3.4516807 0)
(-0.91767199 -5.1070294 -2.8700862e-21)
(-0.56986788 -4.7958999 2.729606e-21)
(-0.21677655 -4.5034195 1.3517926e-18)
(0.1296098 -4.2223863 -1.3139443e-18)
(0.47006992 -3.9549931 2.5044726e-21)
(0.81245238 -3.7010943 -1.2467338e-18)
(1.1376326 -3.4684454 1.2241443e-18)
(1.4505063 -3.2543975 -1.20591e-18)
(1.7679505 -3.0523851 1.1766609e-18)
(2.0850381 -2.8665477 4.5225576e-21)
(2.4091161 -2.689518 -1.145332e-18)
(2.7420705 -2.5203577 -4.4583269e-21)
(3.0809708 -2.3609203 1.1245901e-18)
(3.4208627 -2.2095325 1.1160145e-18)
(3.7649811 -2.0639223 -1.1033269e-18)
(4.1123213 -1.9228183 0)
(4.4640561 -1.7839957 -4.2140701e-21)
(4.8204051 -1.6464577 -4.0695131e-26)
(5.181037 -1.508664 0)
(5.5453834 -1.3690561 0)
(5.9134781 -1.2263556 -1.036444e-18)
(6.28531 -1.07887 1.0214018e-18)
(6.6608003 -0.92491137 7.8957562e-21)
(7.0396559 -0.76343041 0)
(7.4218018 -0.59353545 9.8981616e-19)
(7.8068832 -0.41440698 -9.8348969e-19)
(8.1945663 -0.22517475 3.7880451e-21)
(8.584599 -0.02493571 9.5621964e-19)
(8.976622 0.18710719 -9.5027948e-19)
(9.3701926 0.4115204 0)
(9.7648578 0.64855207 -3.6379363e-21)
(10.160131 0.89829976 9.1475758e-19)
(10.55549 1.1604996 3.6337789e-21)
(10.950383 1.4346649 -8.996285e-19)
(11.344097 1.7199776 8.9034609e-19)
(11.735834 2.0153422 -8.7737627e-19)
(12.12475 2.3194661 0)
(12.509879 2.6307133 0)
(12.890214 2.9470278 6.6818747e-21)
(13.2645 3.2657932 -6.6037814e-21)
(13.631643 3.5842501 0)
(13.990254 3.8996572 6.44278e-21)
(14.33888 4.2091051 -8.0772517e-19)
(14.676031 4.5094581 8.0303454e-19)
(15.000377 4.7976744 -7.9205732e-19)
(15.310546 5.0709313 5.9320045e-21)
(15.605305 5.3265866 7.6894388e-19)
(15.883612 5.5622517 -7.6326344e-19)
(16.144614 5.7759153 7.510602e-19)
(16.387705 5.9658807 5.7286318e-21)
(16.612334 6.1306589 0)
(16.818301 6.2695284 0)
(17.005651 6.3815388 6.9663361e-19)
(17.174517 6.4666707 -6.7887141e-19)
(17.325431 6.5247877 6.7223424e-19)
(17.459177 6.5563101 -6.6522943e-19)
(17.57596 6.5621164 -6.4839608e-19)
(17.6781 6.5417413 1.2733424e-18)
(17.765844 6.4964929 -6.2516902e-19)
(17.839857 6.4280944 -9.5949131e-21)
(17.902186 6.3379009 6.0798778e-19)
(17.955627 6.2209793 -5.8463769e-19)
(17.996341 6.0930049 5.6191912e-19)
(18.031071 5.9419751 -5.5968343e-19)
(18.059092 5.7701902 -5.6308625e-19)
(18.083713 5.5815718 1.1077092e-18)
(18.102806 5.3837296 -1.0815162e-18)
(18.119111 5.1696662 -8.4684315e-21)
(18.13514 4.9415278 5.2829866e-19)
(18.151871 4.7023294 8.1328321e-21)
(18.169715 4.4533829 5.1301192e-19)
(18.191554 4.1941051 -5.0574135e-19)
(18.21725 3.9314359 0)
(18.245216 3.665154 -4.9228381e-19)
(18.278577 3.3896224 4.9347551e-19)
(-1.3683905 -5.2956326 7.0956842e-19)
(-1.1139812 -4.9745772 -2.6181488e-21)
(-0.84947851 -4.6779639 -1.3074987e-18)
(-0.58974732 -4.3968613 -1.2708687e-18)
(-0.33367185 -4.131657 1.2429578e-18)
(-0.078294112 -3.8826762 -1.2175212e-18)
(0.17500589 -3.6511175 2.3844117e-18)
(0.43612454 -3.4351524 -2.3295868e-18)
(0.68950942 -3.2363961 2.3011534e-18)
(0.94273611 -3.0530046 -1.1400066e-18)
(1.1911131 -2.8831742 -1.1200131e-18)
(1.4521166 -2.7221992 2.2036813e-18)
(1.7119067 -2.5720732 -4.2295048e-21)