/*--------------------------------*- C++ -*----------------------------------*\
| =========                 |                                                 |
| \\      /  F ield         | OpenFOAM: The Open Source CFD Toolbox           |
|  \\    /   O peration     | Version:  2406                                  |
|   \\  /    A nd           | Website:  www.openfoam.com                      |
|    \\/     M anipulation  |                                                 |
\*---------------------------------------------------------------------------*/
FoamFile
{
    version     2.0;
    format      ascii;
    arch        "LSB;label=32;scalar=64";
    class       volScalarField;
    location    "0.01";
    object      alphat;
}
// * * * * * * * * * * * * * * * * * * * * * * * * * * * * * * * * * * * * * //

dimensions      [1 -1 -1 0 0 0 0];

internalField   nonuniform List<scalar> 
2065
(
0.00035576458
0.0003434614
0.00031898944
0.00029293106
0.00029538074
0.00029902522
0.00027390984
0.00041292996
0.00084353873
0.0016507348
0.0016217594
0.0010864313
0.00078313954
0.00066277375
0.00059726884
0.0006077855
0.00065397747
0.00073506
0.0009013646
0.0011020073
0.0013660876
0.00147187
0.0013925041
0.00091829867
0.00061038218
0.00064778942
0.000794621
0.00097250098
0.0010502366
0.00097698473
0.00086585819
0.00086364455
0.00087647561
0.00091201851
0.00090338667
0.00087618673
0.00086868564
0.00085567899
0.00085277501
0.00087241102
0.00088291971
0.00087956955
0.00088813738
0.00090832245
0.00093988943
0.00097420196
0.0010069327
0.0010464734
0.0010926476
0.0011418179
0.0012055087
0.0012692526
0.0012957846
0.0013328404
0.0013931906
0.0014586025
0.0014138492
0.0011998407
0.00037920749
0.00035323452
0.00035787646
0.00034509376
0.00034378724
0.0003170831
0.00037098889
0.00074722232
0.001501666
0.0017704525
0.001236121
0.00078500626
0.00066473465
0.00058581497
0.00055914886
0.00059385504
0.00064906723
0.00077943499
0.00093808584
0.0011587
0.001373375
0.0014493693
0.001361741
0.00084914607
0.00060740226
0.00067060615
0.00084197108
0.0010166923
0.0010736319
0.00096778907
0.00086017862
0.00085969189
0.00087716288
0.00092039807
0.00091083273
0.00088183956
0.00086714905
0.00085198931
0.00084809837
0.00086436475
0.00087519372
0.00087068235
0.00087221774
0.00088989345
0.0009183819
0.00095273333
0.00098058232
0.0010198713
0.0010642564
0.0011149899
0.0011817592
0.0012422962
0.0012706956
0.001308429
0.0013788346
0.0014384031
0.00138761
0.001162459
0.00037137589
0.00041239291
0.00040626518
0.00036961213
0.00036136563
0.0003662943
0.00036449708
0.00060043977
0.0011782179
0.0018653478
0.0015446551
0.00083735085
0.00071867625
0.00063587087
0.00054638583
0.00053406733
0.00057215552
0.00065066013
0.00079908799
0.00094645165
0.0011772958
0.0013783771
0.0014276203
0.0013296995
0.00079186555
0.0006037621
0.00069807172
0.0008870401
0.0010513207
0.0010958753
0.00096028403
0.00085465811
0.00085928607
0.00089119991
0.0009330246
0.00091776875
0.0008849772
0.00086511572
0.00084973647
0.00084551911
0.0008591869
0.00086639513
0.00086110409
0.00085508633
0.00087055275
0.00089686453
0.0009289574
0.00095033705
0.00098857864
0.001029241
0.0010792408
0.0011458693
0.0012023354
0.0012323082
0.0012696646
0.0013458791
0.0013948917
0.0013386736
0.0011074443
0.00027822511
0.00030269801
0.00037704941
0.00040577511
0.00041038202
0.00042299134
0.00039620365
0.00049036277
0.00098852342
0.0018028223
0.0017040325
0.0010607093
0.00078930025
0.00070731179
0.00059713845
0.00051196548
0.00050913148
0.00056463412
0.00067533591
0.00081546221
0.00096754779
0.0011899879
0.0013697453
0.0014023842
0.0012884739
0.00073959833
0.00060571313
0.0007243975
0.00093123415
0.001072386
0.0011141934
0.0009552071
0.00085110586
0.00085835327
0.00090645201
0.00094158944
0.00092341294
0.00088620312
0.00086289833
0.00084724471
0.00084414151
0.00085466632
0.00085862152
0.00084887316
0.00083721965
0.00085114634
0.00087976542
0.00090234545
0.0009178454
0.00095367112
0.00098931063
0.0010356662
0.0010987832
0.0011505333
0.0011807077
0.0012193965
0.0012948577
0.0013291483
0.0012651917
0.0010386995
0.00036263431
0.00029797774
0.00034937138
0.00041335875
0.00046304676
0.00044428803
0.00044577828
0.00079941299
0.001577346
0.0018276602
0.0014492411
0.00089156636
0.00080750393
0.00071370012
0.00058525026
0.0004897868
0.00049034446
0.00055155476
0.00070865232
0.00082431861
0.00096848297
0.0011978729
0.0013574264
0.0013735114
0.0012331015
0.00070549582
0.00061066432
0.00075465885
0.00097095668
0.0010918571
0.0011303233
0.00094782585
0.00084772576
0.00086022833
0.00092307483
0.00094717209
0.00092836942
0.00088816404
0.00086074139
0.00084503594
0.00084223432
0.00085071309
0.00085447094
0.00083345173
0.00082137227
0.00083517765
0.00086548443
0.00087326796
0.0008859186
0.00091413024
0.0009459072
0.00098617834
0.0010421091
0.0010883992
0.0011169439
0.001157448
0.0012287987
0.0012430773
0.0011693756
0.00095821865
0.00045972239
0.00042845007
0.00033882404
0.00033494102
0.00042266025
0.00046949758
0.00046722108
0.00062916708
0.0012081103
0.0018461957
0.0016634395
0.0011020174
0.00089286
0.00084215927
0.00071922305
0.00057044711
0.00046216009
0.00047153969
0.00054170391
0.00074005863
0.00083831589
0.00096606575
0.0011838313
0.0013309329
0.0013437304
0.0011740521
0.00068078354
0.00061562751
0.00079093235
0.0010116335
0.0011098451
0.0011389612
0.00094230375
0.00084577918
0.00085908876
0.00092673682
0.0009519012
0.00093084802
0.00089319855
0.00085865885
0.00084311113
0.00084093675
0.0008474756
0.00084849571
0.00082001544
0.00080959842
0.00082623787
0.00084623973
0.00084412719
0.00085373796
0.00087335692
0.00089845777
0.00093355103
0.00097815336
0.0010174858
0.0010440869
0.0010848137
0.001150057
0.0011390136
0.0010583013
0.00087061498
0.00074226875
0.00056570929
0.0004602192
0.00038117573
0.00032941311
0.00042278007
0.00048349094
0.00054829589
0.00091306491
0.0016993985
0.00176665
0.0013874568
0.0010192754
0.00097589724
0.00087914602
0.00071954966
0.00055715555
0.00044930302
0.00045407647
0.00053213941
0.00076716264
0.00084559278
0.0009476778
0.0011477034
0.0012943083
0.0013098771
0.0011100518
0.00065659271
0.00062961168
0.00082539587
0.0010524657
0.0011267314
0.0011470106
0.00093486099
0.00084345423
0.00085615196
0.00092547637
0.00095777405
0.00093248137
0.00089616818
0.00085838299
0.00084237748
0.00083976422
0.00084150696
0.00084428061
0.00080902002
0.00080254159
0.00081842718
0.00082166352
0.00081707683
0.0008212458
0.00083223984
0.00085126526
0.00087870766
0.00090967949
0.00094099959
0.00096548392
0.0010044409
0.00106181
0.0010223708
0.00094058474
0.0007862736
0.00072948667
0.00061867213
0.000495464
0.00039518524
0.0003485166
0.00042547805
0.00052182619
0.00075528428
0.0014374649
0.0017855135
0.0016516367
0.0012109899
0.0011015657
0.0011032586
0.00093853926
0.00072776858
0.00054646572
0.0004243357
0.0004339948
0.00052214832
0.00079115799
0.00084690876
0.00093758905
0.0011075257
0.0012518564
0.0012687335
0.0010424091
0.00063744841
0.00064922004
0.00085677893
0.0010879378
0.0011400172
0.0011501819
0.00092957886
0.00084234986
0.00085414395
0.0009193543
0.00095925641
0.0009344216
0.00089746858
0.00085920291
0.00084225203
0.00083884218
0.00083953303
0.00083723216
0.00080060378
0.00079830462
0.00080440584
0.00079903028
0.00079143219
0.00078958411
0.00079281279
0.00080590419
0.00082503262
0.0008419462
0.00086366123
0.00088603321
0.00092101603
0.00096884636
0.00090509589
0.00083110575
0.00071340956
0.00066109782
0.00055850136
0.00047814562
0.00039493829
0.00036611905
0.00044356755
0.00063283374
0.0011032542
0.0016744083
0.0017267697
0.0014288679
0.0012039495
0.0012259277
0.0011854128
0.0010012698
0.00072337412
0.00053606521
0.00040967503
0.00041518977
0.00051316526
0.00081577221
0.00084653776
0.00092639269
0.0010820497
0.0012153065
0.0012226023
0.00097467974
0.00062229473
0.00066118462
0.00088701517
0.0011117906
0.0011501995
0.0011519569
0.00092414785
0.00084060814
0.00085401222
0.00091822878
0.00095833853
0.00093622003
0.00089545078
0.00086076408
0.00084300786
0.00083747107
0.00084099652
0.00082808809
0.00079678255
0.00079170176
0.00078926785
0.00077901228
0.00076846562
0.00076145336
0.00075824963
0.00076551241
0.00077688666
0.00078189843
0.00079283012
0.00081314098
0.00084216437
0.00087847632
0.00080866235
0.00075850795
0.00066509705
0.0007188223
0.00060723957
0.0005213445
0.00043758285
0.00036741867
0.00038733543
0.00050315228
0.00082445545
0.0014747253
0.0017023467
0.0016443595
0.0013359354
0.0012719403
0.0012638896
0.0012191066
0.0010429
0.00071805851
0.0005233973
0.000387435
0.00039617717
0.00050325341
0.0008267847
0.00084456899
0.00090430745
0.0010505075
0.0011715805
0.0011720158
0.00091032657
0.00061071026
0.00066937486
0.00091322812
0.0011261111
0.0011570591
0.0011515126
0.00091953359
0.00083848378
0.00085551907
0.00092471807
0.00095449262
0.00093505861
0.00089224121
0.00086371561
0.00084576667
0.00083959973
0.00084522849
0.00081769406
0.00079669833
0.00078684192
0.00077694742
0.0007635814
0.00075138122
0.00074105602
0.0007329321
0.00073467717
0.00073989624
0.0007375909
0.00073953004
0.00075542536
0.00078070172
0.00079902285
0.00075697234
0.00073440289
0.00064927839
0.00063180473
0.00055567404
0.00049251019
0.00041716443
0.00040490155
0.00044136333
0.00065540885
0.0012285973
0.0015906478
0.0016752075
0.0015131556
0.0013427592
0.0013150574
0.0013043941
0.0012672796
0.0010612448
0.00070368287
0.00051456661
0.00037158312
0.00037663722
0.00049007982
0.00083031378
0.00084405898
0.00087875658
0.0010155622
0.0011229942
0.0011157241
0.00084969758
0.00060181057
0.00067710296
0.00093488887
0.001134843
0.0011610547
0.0011503387
0.00091501367
0.00083678333
0.00086123745
0.00092738903
0.00094752335
0.000931699
0.00088853269
0.00086649983
0.00085172349
0.00084433104
0.00083946695
0.00081389037
0.00079982411
0.00078675796
0.00077126422
0.00075556881
0.00074363396
0.00073216795
0.00072104629
0.00071821243
0.00071968139
0.00071565162
0.00071283511
0.0007220077
0.00074025172
0.00075426046
0.00076021049
0.00075557283
0.00066795678
0.00060652309
0.00055035563
0.00049334173
0.0004543315
0.00047014938
0.00057571834
0.0010109885
0.0014308053
0.0016092854
0.0016204087
0.0014965921
0.001439708
0.0013767948
0.0013614666
0.0013097391
0.0010626522
0.00068901399
0.00049896011
0.00035460955
0.00035326186
0.00046614559
0.00082846455
0.00084584064
0.0008528055
0.00096426195
0.0010683229
0.0010554802
0.00079495576
0.00059445603
0.00068353864
0.00094885901
0.0011394128
0.0011630435
0.0011481922
0.00091099003
0.0008345577
0.0008704826
0.00092130336
0.000937106
0.00092821546
0.00088414468
0.00086734514
0.00086095059
0.00084921643
0.00083044767
0.00081265874
0.00080677247
0.00079173713
0.0007719649
0.00075612114
0.00074621864
0.0007353691
0.00072305723
0.00071824353
0.00071909352
0.00071720557
0.00071339671
0.00071757761
0.00073566945
0.00076047882
0.00080267218
0.00080732725
0.00071432287
0.00064421951
0.00057621158
0.00053529815
0.00052127419
0.00058060942
0.00087344617
0.0012553453
0.0015086497
0.0016166918
0.0016297972
0.0015874559
0.0015655621
0.0014659155
0.0014344671
0.0013478679
0.001046627
0.00067228667
0.00048855024
0.00034032196
0.00032910565
0.00043337905
0.00081454517
0.00085150027
0.00082232904
0.0009131248
0.0010079482
0.00098984823
0.00074532027
0.00058759268
0.00068699757
0.0009571399
0.0011409478
0.0011633529
0.0011453902
0.00090757512
0.00083104418
0.00087863653
0.0009163681
0.00092759856
0.00092636606
0.00088164792
0.00086739095
0.00086504488
0.00085309471
0.00082423626
0.00081166898
0.00081538964
0.00080115642
0.00077894739
0.00076413426
0.00075775858
0.00074866495
0.00073710103
0.00073324625
0.00073550985
0.00073738121
0.00073734263
0.00074520181
0.00076383542
0.00080180089
0.00086933069
0.00087641322
0.00077978494
0.00079922425
0.00069428093
0.00065952385
0.00068096208
0.00086152083
0.0011501893
0.0013899312
0.0015514435
0.0016382026
0.001694705
0.0017644694
0.0016398334
0.0015513907
0.0014759898
0.0013669628
0.0010130248
0.00064667545
0.00046576446
0.00032449964
0.00030168273
0.00039862396
0.00078505988
0.00086190859
0.00079255656
0.00085529316
0.00094070527
0.00092481713
0.0007010804
0.00058066583
0.00068968516
0.00095815209
0.0011401864
0.0011618069
0.0011416184
0.00090498761
0.00082785247
0.0008823033
0.00091552435
0.00092135278
0.00092429678
0.00087976426
0.00086785055
0.00086660618
0.00085774771
0.00082239148
0.00080971962
0.00082086361
0.00081315501
0.00078983905
0.00077734298
0.00077484002
0.00076777867
0.0007586278
0.00075836005
0.00076346091
0.00076904108
0.00077699948
0.00079469674
0.00081540176
0.00086638562
0.00094191638
0.00095043869
0.00085674156
0.0010291014
0.00093783939
0.00092586329
0.00096079798
0.0011065608
0.0012982824
0.0014707313
0.0016040035
0.0017686387
0.0019588944
0.0018508691
0.0016401405
0.0015878843
0.0014882487
0.001363932
0.00097487647
0.00062137493
0.00044801797
0.000312438
0.00027678958
0.00036291374
0.00072807467
0.00087382817
0.0007812593
0.00079752385
0.00087044763
0.00086422879
0.00066255276
0.00057587197
0.00068740181
0.00095580158
0.0011387113
0.0011585902
0.0011371445
0.00090231871
0.00082438867
0.00088339329
0.00091199056
0.00091622307
0.00092318656
0.00087881506
0.00086709262
0.00086695292
0.00086290205
0.00082477773
0.00081099231
0.00082295361
0.00082413045
0.00080154684
0.00079188137
0.000793353
0.00078860488
0.00078318195
0.00078810899
0.00079632034
0.00080576139
0.00082423628
0.00085393072
0.00087710562
0.00093772395
0.0010132954
0.0010222893
0.00093417414
0.0012113664
0.0011964134
0.0012105857
0.0012729666
0.0014088703
0.0015508231
0.0017103933
0.001998345
0.0020181612
0.0018326356
0.0015956985
0.0015819892
0.0014740775
0.0013327048
0.00092264882
0.00059066158
0.00042065632
0.00029835061
0.00025313507
0.00032412422
0.00060654505
0.00088748338
0.00078475114
0.00073430592
0.00079725634
0.00080481533
0.00062974316
0.00056996775
0.00068380341
0.00094922702
0.0011351311
0.0011526344
0.0011314211
0.00089966944
0.00081746658
0.00088233728
0.00090610285
0.00091278703
0.00092717769
0.00087783878
0.0008647075
0.00086543062
0.0008676362
0.00082835986
0.00081424948
0.00082479421
0.00083198668
0.00081223989
0.00080563674
0.00081087049
0.0008085264
0.00080762524
0.000818296
0.00082962065
0.00084327804
0.00087301333
0.00091439589
0.00093976261
0.0010088858
0.001079464
0.0010884694
0.0010065749
0.0014164207
0.0014143812
0.0014346432
0.0014873367
0.0015763501
0.0016827772
0.0018856633
0.0020328982
0.0019781792
0.0016936628
0.0015572268
0.0015834078
0.0014573569
0.0012981482
0.00085327995
0.00056064233
0.00039869523
0.0002864683
0.00022415872
0.00028279765
0.00047016363
0.00090550917
0.00081905147
0.00070499557
0.00073055076
0.00075139132
0.00060841364
0.000566455
0.00067897612
0.00093976077
0.0011274661
0.0011452977
0.0011229648
0.00089829104
0.00080766561
0.00087777606
0.0009003695
0.00091110962
0.00092970478
0.00087643484
0.00086126338
0.00086216541
0.00087171662
0.00083343939
0.00081617595
0.00082525317
0.00083754953
0.00082132894
0.00081758281
0.00082610412
0.00082629119
0.00083021091
0.00084639354
0.00086081568
0.00087920733
0.00091970737
0.00097029234
0.00099921599
0.0010759307
0.0011383617
0.0011473848
0.0010722133
0.0015511696
0.0015553034
0.001579949
0.0016318868
0.0016752692
0.0017774951
0.001913369
0.0019654219
0.0018114629
0.0016011559
0.0015543571
0.0015854993
0.0014381338
0.0012540136
0.00076912762
0.00051660619
0.00036564726
0.00027176704
0.00020688758
0.00025157225
0.00040726082
0.00085337994
0.0008434506
0.00070047104
0.00067772697
0.00068408755
0.00058365561
0.00056409835
0.00067366572
0.00092585929
0.0011154409
0.0011353978
0.0011093463
0.00089876217
0.00079813136
0.00087187585
0.00089480172
0.0009099862
0.00093002831
0.00087476139
0.00085519375
0.00085663032
0.00087713354
0.00083916413
0.00081543301
0.00082299054
0.00084100995
0.00082861376
0.00082736751
0.00083857565
0.00084148565
0.00085018192
0.00087114537
0.00088886019
0.00091275219
0.00096205855
0.0010170725
0.0010538886
0.0011374679
0.0011887584
0.001198153
0.001129618
0.001674611
0.0016802273
0.0017382141
0.0017706175
0.0018203121
0.001852749
0.0018354753
0.001723515
0.0016109473
0.0015849361
0.001611711
0.0014094675
0.0011900311
0.00067838092
0.0004729964
0.00034212279
0.00025848551
0.00019924782
0.00021853456
0.00033626311
0.00071757911
0.00085979848
0.00074756649
0.00064699779
0.00063624861
0.00056522678
0.00056056848
0.00066666292
0.00090858994
0.0011014587
0.0011232716
0.0010940486
0.00090017827
0.00078823613
0.00086492463
0.00088970978
0.00090901093
0.00093081574
0.0008742243
0.00084735804
0.00084960163
0.00087942141
0.00084522374
0.00081267916
0.00081770671
0.00084263029
0.00083414602
0.00083504511
0.00084834898
0.00085422693
0.00086734123
0.00089212142
0.00091389606
0.00094376859
0.00099635055
0.0010561167
0.0011035708
0.0011911487
0.0012296862
0.0012401829
0.0011777761
0.00083931692
0.00087563192
0.00085283349
0.00080943817
0.00081074835
0.00084174748
0.00083921568
0.00084097451
0.00085588025
0.00086496388
0.00088172962
0.00090962888
0.00093683495
0.00096892803
0.0010255116
0.0010884141
0.0011483221
0.0012336553
0.0012608136
0.00127009
0.0012195869
0.00012330962
0.00010894065
0.00026567918
0.0002406239
0.00019050716
0.00016482463
0.00014866432
0.00013465873
0.00012445423
0.00010900058
0.0002974926
0.00025365038
0.00022783786
0.00018374716
0.00016531312
0.00015019281
0.00013551403
0.00012499543
0.0001094322
0.00027812963
0.00024341757
0.00022110776
0.00018276898
0.00016578278
0.00015107247
0.00013818901
0.00012525934
0.00010871936
0.00025825979
0.00023044696
0.0002156969
0.00018183912
0.00016706281
0.00015407879
0.00013916844
0.00012641232
0.00011023461
0.00024836863
0.00022670385
0.00021183894
0.00018115591
0.00017024921
0.00015350613
0.00014147104
0.00012502252
0.00011059213
0.00024615447
0.00022700817
0.00020096583
0.00018505434
0.0001814811
0.00015410287
0.00014301223
0.00012370829
0.00010909785
0.00024590584
0.00023433165
0.00020918527
0.00019102568
0.00018409771
0.00015427091
0.00014216423
0.00012274508
0.00010745965
0.00028047888
0.00024637107
0.00021795279
0.00019466916
0.00018050183
0.00015237767
0.00014136017
0.00012151268
0.00010332961
0.00041827582
0.00035980575
0.00028168017
0.0002145963
0.00017877026
0.00015372954
0.0001424315
0.00012435511
0.00010270742
0.00081859954
0.0006964494
0.0005561426
0.00035423683
0.00022225184
0.00017016321
0.00014597669
0.00012854604
0.00010819503
0.0016519202
0.0014905877
0.0011574069
0.00071203715
0.00045594228
0.00027243363
0.00016767269
0.00013542601
0.00011223903
0.00145281
0.0016090181
0.0016448814
0.0014786383
0.00091778827
0.00060162488
0.00032167187
0.00019997494
0.00014035312
0.00091035829
0.0011987765
0.00153011
0.001658186
0.0016021341
0.0011684073
0.00072002297
0.0004088693
0.00026276328
0.00073056727
0.0008180735
0.00106329
0.0015207125
0.0016859666
0.0016895606
0.0013704717
0.00079634056
0.00059274635
0.00064867901
0.00070248402
0.00080443528
0.0010199449
0.0014920665
0.0017290326
0.0017260973
0.0015476062
0.0010948436
0.00064280333
0.00069411245
0.0007388428
0.00084615881
0.0010612399
0.0016040573
0.001913505
0.0019368253
0.0018029789
0.00068000817
0.0007201848
0.00077185635
0.00083356552
0.00096444613
0.0012710425
0.0018626555
0.0020718085
0.0020324135
0.00073959604
0.00077335118
0.0008164304
0.00086373648
0.00094564997
0.0011294817
0.0015577969
0.001972992
0.0021245279
0.00090845587
0.00089677875
0.00089805626
0.00092706575
0.00098930729
0.0011294832
0.0014613292
0.0019472875
0.0021595548
0.0011155893
0.0011428312
0.0011381301
0.0010954913
0.0011255916
0.0012684522
0.0016523093
0.0019988443
0.0021364906
0.0013837779
0.0014320746
0.0014642062
0.0015052791
0.0015467129
0.001667712
0.0018406673
0.0019979983
0.0021058945
0.0014955963
0.0015200869
0.001546103
0.0015770445
0.0016229463
0.0016891267
0.0017824875
0.0016555856
0.0011919035
0.0014208982
0.0014142361
0.0014071534
0.0013909064
0.0013225782
0.0011479542
0.00086222881
0.00057212826
0.00038013215
0.00094761185
0.00087552263
0.00081884875
0.00069121242
0.00057638474
0.00044664521
0.00032315648
0.00022322677
0.00016318635
0.00061170955
0.00057891228
0.00054562612
0.00049526179
0.00043523204
0.0003772067
0.00031211619
0.00025414143
0.00020696138
0.00063711794
0.00063728405
0.00062952156
0.00062388084
0.0006106639
0.00061120729
0.00060066271
0.00057036992
0.00050064311
0.00075622754
0.00074405673
0.00072999736
0.00072794751
0.00073226001
0.00074107913
0.00074991977
0.00075799609
0.00073679044
0.00092431844
0.00089039559
0.00084481492
0.00081328021
0.00078806891
0.00077152628
0.00075933273
0.00077021565
0.00079547208
0.0010286032
0.0010066337
0.00097371666
0.00092210705
0.00088222865
0.00085349106
0.00082462988
0.00082022463
0.00083379751
0.00097174628
0.0009581503
0.00094013188
0.0009202449
0.00091027709
0.00090196325
0.0009062022
0.00094862804
0.0010021964
0.00086739399
0.00087283298
0.00088076845
0.00088443922
0.00091073395
0.0009488563
0.00099254156
0.0010494478
0.0010987072
0.00086660476
0.00086975861
0.00087424293
0.00088294537
0.00089310477
0.00090935752
0.00093454516
0.00097857162
0.0010222859
0.00087516488
0.00087026391
0.0008629347
0.00085516318
0.00085444801
0.00086263002
0.00088624577
0.0009132656
0.00095353893
0.00090249017
0.00088408761
0.00086445647
0.0008445504
0.0008287272
0.00081821599
0.00080562251
0.00080030306
0.00079493519
0.00089196805
0.00087438151
0.00085934001
0.00083540037
0.00080843671
0.00077682548
0.00073259616
0.00066745221
0.00055789029
0.00086689506
0.00085607793
0.0008438353
0.00082647476
0.00080331497
0.0007687793
0.00071752059
0.00064368539
0.00056680253
0.00086761765
0.00086607882
0.00086688959
0.00087064945
0.00087790746
0.00088631753
0.00088890451
0.00088315814
0.00084059488
0.00086036744
0.00086534892
0.00087481986
0.00088910346
0.00090938464
0.00093598542
0.00097009991
0.0010042937
0.0010174886
0.00085874771
0.00086794631
0.00088235247
0.00089940291
0.00091779912
0.00093470521
0.00096148624
0.0009981551
0.0010056277
0.00088134352
0.00089053807
0.00089913388
0.00090173885
0.00089697683
0.00088732497
0.00088655591
0.0008672994
0.00083908366
0.00089038992
0.00089679022
0.00090052736
0.00089760952
0.00088494547
0.00085838263
0.00078884258
0.00071764513
0.00064255621
0.00088713162
0.00089281054
0.00090169788
0.00090096898
0.00088272382
0.00084427029
0.00078567087
0.0007124136
0.00062750156
0.00090100388
0.00091413078
0.00092903244
0.00094012509
0.0009399665
0.00092480703
0.00088974421
0.0008227218
0.00073127646
0.00092325778
0.00093799601
0.00095370593
0.00096528442
0.00096460671
0.00094927353
0.00091478541
0.0008542915
0.00076957567
0.00095694751
0.00097112701
0.00098260477
0.00098466776
0.00097231127
0.00094007509
0.00087742955
0.00079981374
0.0007099427
0.00099021583
0.0010034041
0.0010134212
0.0010118638
0.00099223076
0.00094255269
0.00086990505
0.00077854882
0.00067753681
0.0010252973
0.001038925
0.001047883
0.0010439625
0.0010204335
0.00096934708
0.0008913515
0.00079307887
0.00068561613
0.001064441
0.0010773929
0.0010838971
0.0010762764
0.0010461423
0.00098791387
0.00090298738
0.00079885913
0.00068701025
0.0011102493
0.0011216519
0.0011253418
0.0011130974
0.001077019
0.0010119002
0.00091936126
0.00080794282
0.00069015169
0.0011564946
0.0011643622
0.0011623721
0.0011434857
0.0010995322
0.0010254296
0.00092415286
0.00080555495
0.00068277555
0.0012151922
0.0012175202
0.0012090993
0.0011816473
0.0011269548
0.0010426773
0.00093285938
0.00080767911
0.00068036583
0.0012802525
0.0012824815
0.0012708583
0.0012390284
0.0011799745
0.0010882713
0.00096971986
0.00083587257
0.0007008744
0.001305092
0.0013060182
0.0012948188
0.0012628868
0.0012013033
0.0011089064
0.00098811604
0.00085090645
0.00071213161
0.0013388333
0.0013348458
0.001316331
0.0012743296
0.0012021912
0.0010990141
0.00097108412
0.00082945389
0.00068885999
0.0013879325
0.0013738824
0.0013428993
0.0012873654
0.0012022003
0.0010878301
0.00095166491
0.00080653855
0.00066702624
0.0014567138
0.0014448588
0.0014148833
0.0013577178
0.0012675046
0.0011447453
0.00099762445
0.00084023326
0.00068853931
0.0014169238
0.0014096475
0.0013852854
0.001334459
0.0012515773
0.0011439136
0.0010040675
0.00084886774
0.00069716596
0.0012156037
0.0012210168
0.0012149009
0.0011875402
0.0011285834
0.0010270669
0.00090318364
0.00076632064
0.00063138569
0.00010219779
7.8130306e-05
3.6481301e-05
1.6390371e-05
1.6229657e-05
2.3883791e-05
0.00010015699
7.4097988e-05
3.4813336e-05
1.6221812e-05
1.6328176e-05
2.1567367e-05
9.899128e-05
7.1385284e-05
3.3352277e-05
1.5880765e-05
1.6248153e-05
1.9815331e-05
9.6612273e-05
6.5945446e-05
3.1872706e-05
1.5486455e-05
1.6009362e-05
1.8075608e-05
9.6956638e-05
6.2949048e-05
3.0582203e-05
1.5426984e-05
1.5631931e-05
1.8086239e-05
9.5278048e-05
5.7748049e-05
2.8919786e-05
1.4779053e-05
1.5522877e-05
1.8887994e-05
9.2049618e-05
5.398345e-05
2.7741255e-05
1.4619041e-05
1.5481021e-05
2.0175577e-05
8.9057539e-05
4.8631188e-05
2.7360086e-05
1.4577853e-05
1.5460003e-05
2.1827883e-05
8.6105486e-05
4.8479455e-05
2.7552494e-05
1.4463805e-05
1.5222456e-05
2.4904372e-05
8.6208655e-05
5.1040661e-05
2.9171238e-05
1.4248024e-05
1.4945744e-05
2.6898642e-05
9.505959e-05
6.3184978e-05
3.2736253e-05
1.6260798e-05
1.5108468e-05
2.7654412e-05
0.00010238821
7.9551933e-05
4.2235066e-05
2.0588201e-05
1.5791319e-05
2.6895108e-05
0.0001078694
8.8978167e-05
5.2642346e-05
2.7071843e-05
1.733699e-05
2.5183658e-05
0.00015813941
0.00010150573
6.4081788e-05
3.5455101e-05
2.0260888e-05
2.2963139e-05
0.00033092026
0.00017261401
9.7187844e-05
5.1470397e-05
2.6707167e-05
2.012669e-05
0.00066222252
0.00032707054
0.00017033774
8.7705796e-05
3.3267243e-05
1.3557592e-05
0.0011954849
0.00067057452
0.0003466368
0.00016145249
5.0498948e-05
9.0648971e-06
0.0017710283
0.0011470091
0.00077779471
0.00041150186
0.00011089829
9.3952419e-06
0.002097353
0.0019586241
0.0015774236
0.0010354364
0.00032271419
1.7709798e-05
0.0021779663
0.0020967244
0.0017720137
0.0012090235
0.00036204624
3.1009669e-05
0.0021180237
0.0020094764
0.0016811766
0.0010126822
0.00023063537
5.2672068e-05
0.0019323905
0.0015081359
0.00092133017
0.00040241712
0.00011117786
5.7641244e-05
0.0008615873
0.00055530898
0.00030750937
0.00014528761
6.4390649e-05
5.3403893e-05
0.00024901526
0.00015960519
9.6814797e-05
6.6053625e-05
4.4731381e-05
3.1284428e-05
0.00012111139
9.2249989e-05
7.0907644e-05
5.2552015e-05
3.5169829e-05
2.2896258e-05
0.00016557628
0.00013295685
0.00010612232
7.7517145e-05
4.5969744e-05
2.3394129e-05
0.00040283659
0.00029704812
0.00021399394
0.0001468806
7.4399218e-05
2.9660012e-05
0.00066429391
0.00053147823
0.00035205469
0.00020450491
0.00010810886
5.0385065e-05
0.00080750239
0.00075718724
0.00061437007
0.00039200956
0.00017140924
6.9393857e-05
0.00086634163
0.00091594776
0.0008825202
0.0006654747
0.00031763827
7.3059583e-05
0.0010612625
0.0011784838
0.001188374
0.00093506942
0.00045350819
6.8701665e-05
0.0011524572
0.001239678
0.001234497
0.00097116799
0.00047822183
5.2273913e-05
0.0010817838
0.0011526054
0.0011237901
0.00086562451
0.00041091767
4.4924943e-05
0.00099812511
0.0010051457
0.00089350871
0.00062596185
0.00026298749
4.058402e-05
0.00074750308
0.00065118041
0.00050955037
0.00032053609
0.00012285587
2.7859898e-05
0.00046303724
0.00036639482
0.00026163841
0.00015269798
5.3841876e-05
1.1101911e-05
0.00047831018
0.00037697264
0.00026680429
0.00015490537
5.6807313e-05
1.1731623e-05
0.00076921435
0.000655384
0.00049552184
0.00030363033
0.00011693889
1.480076e-05
0.00098065687
0.00087239162
0.00068698676
0.00042962861
0.00015887441
1.3721644e-05
0.00096798471
0.00086276947
0.00068367616
0.00043667265
0.00015976834
7.7647668e-06
0.00078317864
0.00068254417
0.00052620742
0.00031584811
0.0001016313
2.7223115e-06
0.00055937128
0.00045780702
0.00033293899
0.00018923224
5.3392117e-05
1.5278594e-06
0.00053407155
0.00042547174
0.00030227455
0.00016956282
4.6871441e-05
1.7031501e-06
0.00062439916
0.00049560808
0.00034764554
0.00018918258
5.1464527e-05
1.8865391e-06
0.0006639695
0.00053158539
0.00037450513
0.00020301996
5.3154735e-05
1.6803588e-06
0.00060698263
0.00048341493
0.00034015508
0.00018313874
4.4388388e-05
1.2498891e-06
0.00056884017
0.00044390808
0.00030394623
0.00015706289
3.5194392e-05
1.0112447e-06
0.00057126255
0.0004411367
0.00029760697
0.00015035606
3.2622312e-05
9.3116905e-07
0.00056914303
0.00043605878
0.00029103696
0.00014455718
3.0363335e-05
8.5975338e-07
0.00056742489
0.00043032925
0.00028325402
0.00013764891
2.7627089e-05
7.7029537e-07
0.00055658225
0.00041733374
0.00027056823
0.00012860051
2.4777366e-05
7.1212424e-07
0.0005509367
0.00040948031
0.00026273114
0.0001237309
2.3797816e-05
7.1226539e-07
0.00056439433
0.00041602253
0.00026403653
0.00012275029
2.3560814e-05
7.3591576e-07
0.00057134186
0.00041790805
0.00026198382
0.00011991915
2.2771649e-05
7.3299125e-07
0.00054819756
0.00039703886
0.00024691602
0.00011267531
2.1334585e-05
7.3656433e-07
0.00052961405
0.00038265641
0.00023735963
0.00010882941
2.136207e-05
8.7662438e-07
0.00054053507
0.00038575853
0.00023782932
0.0001097448
2.3547499e-05
1.1142476e-06
0.00054761655
0.00038949498
0.00023837276
0.0001096761
2.3726224e-05
1.2269911e-06
0.00049647127
0.00035168971
0.00021363843
9.7439553e-05
2.0864477e-05
1.148312e-06
)
;

boundaryField
{
    Side1
    {
        type            empty;
    }
    Inlet
    {
        type            calculated;
        value           nonuniform List<scalar> 0();
    }
    Side2
    {
        type            empty;
    }
    Outlet
    {
        type            zeroGradient;
    }
    Botwall
    {
        type            compressible::alphatWallFunction;
        value           nonuniform List<scalar> 
59
(
0
0
0
0
0
0
0
0
0
0
0
0
0
0
0
0
0
0
0
0
0
0
0
0
0
0
0
0
8.2132322e-07
1.4657016e-06
6.662883e-07
0
0
0
0
0
0
0
0
0
0
0
0
0
0
0
0
0
0
0
0
0
0
0
0
0
0
0
0
)
;
    }
    Cyli
    {
        type            compressible::alphatWallFunction;
        value           nonuniform List<scalar> 0();
    }
    procBoundary1to0
    {
        type            processor;
        value           nonuniform List<scalar> 
44
(
0.00039080615
0.0003200535
0.00039956536
0.00039956536
0.00032584363