/*--------------------------------*- C++ -*----------------------------------*\
| =========                 |                                                 |
| \\      /  F ield         | OpenFOAM: The Open Source CFD Toolbox           |
|  \\    /   O peration     | Version:  2406                                  |
|   \\  /    A nd           | Website:  www.openfoam.com                      |
|    \\/     M anipulation  |                                                 |
\*---------------------------------------------------------------------------*/
FoamFile
{
    version     2.0;
    format      ascii;
    arch        "LSB;label=32;scalar=64";
    class       volScalarField;
    location    "0.01";
    object      nut;
}
// * * * * * * * * * * * * * * * * * * * * * * * * * * * * * * * * * * * * * //

dimensions      [0 2 -1 0 0 0 0];

internalField   nonuniform List<scalar> 
2065
(
0.00029977815
0.00028903147
0.00026808181
0.00024578486
0.00024744725
0.0002501464
0.00022883326
0.00034455732
0.00070312102
0.0013752146
0.0013508599
0.00090473386
0.00065174756
0.00055114775
0.00049647381
0.00050505744
0.0005437034
0.00061267157
0.00075474258
0.00092973495
0.0011576512
0.0012460794
0.0011728997
0.00076675579
0.00050725601
0.00053858532
0.00066224798
0.00081198541
0.00087637452
0.00081325201
0.00072081145
0.00072142499
0.00073475747
0.00076396934
0.0007525973
0.00072840427
0.00072306388
0.00071343621
0.00071200296
0.00072804306
0.00073599298
0.00073325102
0.0007409469
0.00075785863
0.00078401696
0.00081250768
0.00083969704
0.00087241851
0.00091051289
0.00095110703
0.001003865
0.0010567668
0.0010787961
0.0011097701
0.0011603186
0.0012150993
0.0011784917
0.00099974818
0.00031954843
0.00029724773
0.00030072751
0.00028950239
0.00028795636
0.00026522225
0.00030994241
0.00062354384
0.0012521092
0.0014758759
0.0010305317
0.00065426259
0.00055352103
0.0004872864
0.00046492161
0.00049369858
0.00054006486
0.00065038646
0.00078642867
0.00098003047
0.0011644959
0.0012277882
0.001146603
0.00070878023
0.00050496596
0.00055786253
0.00070221658
0.00084960318
0.00089644889
0.00080574638
0.00071625372
0.0007184099
0.00073537447
0.00077083555
0.00075876405
0.00073328698
0.00072196261
0.00071034148
0.00070797723
0.00072120962
0.0007295637
0.00072587124
0.00072762045
0.00074242638
0.00076603728
0.00079456975
0.00081767298
0.0008501646
0.0008867784
0.00092870012
0.00098405373
0.0010343098
0.0010579131
0.0010894684
0.0011484087
0.0011983306
0.001156635
0.00096859719
0.00031348841
0.00034757938
0.00034184871
0.00031054397
0.00030308011
0.00030675454
0.00030482073
0.00050154284
0.00098328474
0.0015561217
0.0012890646
0.00069899532
0.00059967234
0.00052985183
0.00045484405
0.00044439402
0.00047602971
0.00054193069
0.00066735342
0.00079421058
0.00099706439
0.0011694549
0.0012097977
0.0011189518
0.00066070735
0.00050206608
0.00058105702
0.00074041038
0.00087932314
0.00091562906
0.00079972724
0.00071188001
0.00071827071
0.00074704661
0.00078129835
0.00076451436
0.00073609545
0.0007204311
0.00070842461
0.0007056953
0.00071678073
0.00072223998
0.00071790157
0.00071327934
0.00072623665
0.00074804773
0.00077470071
0.00079239302
0.0008239998
0.00085752471
0.00089886198
0.0009541308
0.0010010227
0.0010259528
0.0010572093
0.0011210026
0.0011621332
0.0011158475
0.00092275489
0.00023546315
0.00025575202
0.00031791597
0.00034151771
0.00034479098
0.0003547119
0.00033173886
0.00041009727
0.00082579221
0.0015053719
0.0014232911
0.0008867919
0.00065999216
0.00059093171
0.00049797094
0.00042642202
0.00042383245
0.00047003292
0.00056291599
0.00068142092
0.00081301127
0.0010087796
0.0011627244
0.0011883889
0.001083463
0.00061692804
0.00050382138
0.00060334754
0.00077798498
0.00089777133
0.0009315404
0.00079565216
0.00070909594
0.00071753703
0.00075989646
0.00078829122
0.00076921741
0.00073731998
0.00071873111
0.0007062987
0.00070441813
0.00071291859
0.00071577101
0.00070771108
0.00069832525
0.00070999655
0.00073374292
0.0007524635
0.00076523818
0.00079482566
0.00082418039
0.00086250963
0.00091488622
0.00095787459
0.00098298932
0.0010153665
0.0010785443
0.0011074052
0.0010545918
0.00086547344
0.00030741935
0.00025212195
0.00029484527
0.00034799368
0.0003889815
0.00037258667
0.00037329936
0.00066870217
0.0013185469
0.0015278948
0.0012129332
0.00074702127
0.00067653157
0.00059699826
0.00048850851
0.00040824666
0.00040847017
0.00045946572
0.00059108062
0.00068926044
0.00081494986
0.0010157105
0.0011524288
0.0011637016
0.0010361527
0.00058839858
0.00050810277
0.00062896604
0.00081193794
0.00091492314
0.000945592
0.00078969604
0.00070630167
0.00071902213
0.00077404176
0.00079270131
0.00077336696
0.00073918263
0.00071704811
0.00070440158
0.00070270431
0.00070954495
0.00071232272
0.00069485589
0.00068505935
0.00069662893
0.00072178997
0.0007281707
0.00073855775
0.00076179718
0.00078795034
0.00082123966
0.00086766242
0.00090612511
0.00092989816
0.00096379434
0.001023556
0.0010357321
0.00097471474
0.00079841431
0.0003906845
0.00036376831
0.00028706711
0.00028298947
0.00035604308
0.000394551
0.00039189404
0.00052709336
0.0010112531
0.001545024
0.001393435
0.00092499139
0.00074987877
0.00070704509
0.00060233216
0.00047655977
0.00038542685
0.00039297549
0.0004514785
0.00061749477
0.00070146867
0.00081393761
0.0010038431
0.0011299369
0.0011381996
0.00098588284
0.00056777105
0.00051235847
0.00065966281
0.00084679804
0.00093087074
0.0009532933
0.00078527366
0.00070460677
0.00071801144
0.00077748049
0.00079641893
0.00077548378
0.00074363208
0.0007153968
0.00070273574
0.00070149723
0.00070679525
0.00070735366
0.00068365494
0.00067519643
0.00068912932
0.00070570083
0.00070382873
0.00071167288
0.00072775209
0.00074836044
0.00077736562
0.00081438197
0.00084706955
0.00086923654
0.00090332222
0.00095799903
0.0009490588
0.00088211639
0.00072542317
0.00063130461
0.00048119887
0.00039122078
0.0003233949
0.00027859967
0.00035631104
0.00040656914
0.00046028095
0.00076557351
0.0014240202
0.0014813237
0.0011657726
0.00085816615
0.0008220933
0.00073955845
0.00060332845
0.00046582803
0.0003749376
0.00037862723
0.00044370185
0.00064031666
0.00070801719
0.00079906243
0.00097305418
0.0010987473
0.0011088327
0.00093155423
0.0005476148
0.00052409399
0.00068893308
0.00088187592
0.00094588798
0.00096043966
0.00077923302
0.00070260987
0.00071559673
0.00077641196
0.00080106466
0.00077692
0.00074636872
0.00071525329
0.00070205941
0.00070039147
0.00070179725
0.0007038527
0.00067449104
0.00066927394
0.00068257696
0.00068517072
0.00068123596
0.00068453834
0.00069343328
0.00070899705
0.00073165735
0.00075734852
0.00078337933
0.00080379276
0.00083640537
0.00088452003
0.00085189565
0.00078398407
0.00065515236
0.00062142194
0.00052716058
0.00042191766
0.00033566038
0.00029489465
0.00035874744
0.00043930708
0.00063481289
0.0012064849
0.0014985052
0.0013885943
0.0010211012
0.00093029268
0.00093186052
0.00079079422
0.00061092927
0.00045720559
0.00035426781
0.00036198538
0.00043551391
0.00066051926
0.00070936668
0.00079089801
0.00093871594
0.0010625224
0.0010728965
0.00087427467
0.00053162793
0.00054051631
0.00071569094
0.00091250251
0.00095788218
0.0009634611
0.00077497915
0.00070162727
0.00071402521
0.00077096055
0.00080195528
0.0007786226
0.00074771496
0.00071602342
0.00070188873
0.00069950034
0.00070014717
0.00069799145
0.00066748245
0.0006657107
0.00067084993
0.00066626895
0.00065982357
0.00065810809
0.00066053694
0.00067117239
0.00068693401
0.00070094133
0.00071898506
0.00073764565
0.00076694652
0.00080710785
0.00075419764
0.00069272307
0.00059444839
0.0005637374
0.00047634111
0.00040771624
0.0003356004
0.00030996197
0.00037440151
0.00053294551
0.00092765968
0.0014068754
0.0014523918
0.0012052173
0.001018297
0.0010382887
0.0010036297
0.00084474027
0.00060779478
0.00044875595
0.00034219132
0.00034641422
0.00042812317
0.00068112348
0.00070909315
0.00078149627
0.00091664005
0.0010308659
0.0010327452
0.00081701597
0.00051896426
0.00055062859
0.00074154368
0.00093336673
0.0009672573
0.00096527986
0.00077058844
0.00070010114
0.00071390164
0.00076966559
0.00080085748
0.00078021065
0.00074630867
0.00071739733
0.0007024619
0.00069824317
0.00070137105
0.00069038533
0.00066431284
0.00066018291
0.00065819748
0.00064955598
0.00064065396
0.0006346342
0.00063170828
0.00063749982
0.00064682657
0.00065094046
0.00066001479
0.00067696193
0.0007012958
0.00073185198
0.00067385852
0.00063220933
0.00055420688
0.00061325855
0.0005180432
0.00044462679
0.00037286074
0.00031228936
0.00032797577
0.00042471456
0.00069427534
0.0012403921
0.0014325492
0.0013868875
0.0011303367
0.0010786284
0.0010728307
0.0010339349
0.00088074062
0.00060374238
0.00043835376
0.00032367515
0.00033063726
0.00041986331
0.00069028989
0.00070732174
0.00076251855
0.00088916455
0.00099281913
0.00098891168
0.00076266
0.00050927888
0.0005575554
0.00076406198
0.00094615159
0.00097383541
0.00096520402
0.00076686037
0.00069823597
0.00071509634
0.00077475893
0.00079731904
0.00077934036
0.00074394012
0.00071992522
0.00070471743
0.00069990094
0.00070490686
0.00068174371
0.00066426523
0.00065611718
0.00064790263
0.00063667704
0.00062639965
0.00061761972
0.00061059803
0.00061180035
0.0006160187
0.00061405102
0.0006156439
0.00062891654
0.00065012549
0.00066568585
0.00063079832
0.00061212173
0.00054104602
0.00053906661
0.00047407434
0.00041984739
0.00035482125
0.00034346036
0.00037339646
0.00055303741
0.0010351681
0.001339889
0.0014129151
0.0012795742
0.0011388443
0.001117427
0.001109228
0.001075847
0.00089690283
0.00059195401
0.00043108664
0.00031048556
0.00031441599
0.00040886571
0.00069313591
0.00070668924
0.00074023959
0.00085856206
0.00095048355
0.00094036773
0.00071148171
0.00050183851
0.00056406521
0.00078276352
0.00095425997
0.00097788115
0.00096448039
0.00076317321
0.00069670594
0.00071970165
0.00077665485
0.0007911207
0.00077664964
0.00074117547
0.00072232399
0.00070962807
0.00070374341
0.00070010647
0.00067860508
0.00066689809
0.00065604338
0.00064315243
0.00062999363
0.0006199421
0.00061021128
0.00060069334
0.00059808408
0.00059918827
0.00059578817
0.00059342613
0.00060110346
0.00061645346
0.00062841644
0.00063350746
0.0006297762
0.00055663825
0.00051676766
0.00046878464
0.00041972205
0.00038567332
0.00039813432
0.00048653283
0.00085294516
0.0012063682
0.0013574101
0.0013689887
0.0012679714
0.001222887
0.001171296
0.0011591654
0.0011123628
0.00089845806
0.00057981405
0.00041807854
0.00029634831
0.00029493576
0.00038890894
0.00069143933
0.00070781304
0.00071742506
0.00081399439
0.0009029444
0.00088860073
0.00066528346
0.00049567461
0.00056951058
0.00079495049
0.00095889071
0.00098005627
0.00096291638
0.00075988582
0.00069473638
0.00072719696
0.00077116827
0.00078207508
0.00077393575
0.00073781009
0.00072312312
0.00071726398
0.0007077257
0.00069256055
0.0006776211
0.00067272457
0.00066019695
0.00064373851
0.00063046342
0.00062210927
0.00061289249
0.00060238163
0.00059812096
0.00059870688
0.00059708888
0.00059390403
0.00059742742
0.00061265104
0.00063361749
0.000668901
0.00067292526
0.00059531261
0.00054706807
0.00048925297
0.00045419153
0.00044155399
0.00049082135
0.00073736233
0.0010587971
0.0012723719
0.0013647955
0.0013787941
0.0013467213
0.0013307068
0.0012478635
0.0012215599
0.0011448333
0.00088504564
0.00056581538
0.00040937301
0.00028444702
0.00027476904
0.00036155341
0.00067966819
0.00071205041
0.00069077241
0.00076950728
0.00085065486
0.00083240323
0.00062340952
0.00048991025
0.00057248233
0.00080223875
0.00096086352
0.00098073831
0.0009607858
0.00075710786
0.00069170084
0.00073372694
0.00076658049
0.00077397821
0.00077264012
0.00073597872
0.00072327375
0.00072063806
0.00071088246
0.00068734685
0.00067684984
0.00067994873
0.00066806404
0.00064956907
0.0006371655
0.00063175393
0.00062400044
0.00061410983
0.00061064107
0.00061239039
0.00061389904
0.00061385496
0.0006204427
0.00063612168
0.00066806152
0.00072445768
0.00073052215
0.00064990993
0.0006761449
0.00058735013
0.00055763014
0.00057507101
0.00072677542
0.00096967085
0.0011716363
0.0013086282
0.0013838743
0.0014350813
0.0014974647
0.001394018
0.0013206393
0.0012565388
0.0011608088
0.00085656563
0.00054427396
0.00039025662
0.00027123809
0.00025185872
0.0003325295
0.0006548559
0.00072018544
0.00066474787
0.00071954061
0.00079256986
0.00077680426
0.00058607239
0.00048408756
0.00057479674
0.00080329328
0.00096078897
0.00097978284
0.00095781143
0.00075501427
0.00068893643
0.00073647506
0.00076542981
0.00076873582
0.00077116882
0.00073465217
0.00072378191
0.00072191157
0.00071469174
0.00068579417
0.00067529177
0.00068455828
0.00067809001
0.00065866467
0.00064821039
0.00064603117
0.00063997024
0.00063208672
0.00063159536
0.00063568741
0.00064027719
0.00064689146
0.00066167203
0.00067908198
0.00072188256
0.0007849519
0.00079223823
0.00071409371
0.00086761692
0.00079063829
0.00078026334
0.00080924596
0.00093172216
0.001093189
0.0012390255
0.0013529551
0.0014948079
0.0016595016
0.001570745
0.0013942839
0.0013511326
0.0012663761
0.0011574671
0.00082407179
0.0005229322
0.00037534941
0.00026114103
0.00023106063
0.00030267881
0.00060712826
0.00072954624
0.00065428272
0.00066984528
0.00073202674
0.00072504732
0.00055352428
0.00048004952
0.00057293357
0.00080137338
0.00096001932
0.00097735077
0.00095422385
0.00075285765
0.00068594206
0.00073705392
0.0007620883
0.0007644323
0.0007705407
0.00073409421
0.00072326936
0.00072218075
0.00071892153
0.00068779842
0.00067643533
0.00068635224
0.00068726705
0.00066844774
0.00066037405
0.00066151292
0.00065737887
0.00065259913
0.00065642239
0.00066308218
0.00067087572
0.00068624494
0.00071101546
0.00073048748
0.00078132578
0.00084443653
0.0008521423
0.0007786765
0.0010185678
0.0010058495
0.0010176338
0.0010701747
0.0011850561
0.0013059353
0.001442731
0.0016895833
0.0017097188
0.0015549922
0.0013561876
0.0013455682
0.0012534455
0.0011301417
0.00077963354
0.00049700011
0.00035239362
0.00024934069
0.00021128607
0.00027031697
0.00050561677
0.00074036938
0.00065625885
0.00061570359
0.00066929191
0.00067443693
0.00052578174
0.00047507714
0.00056995483
0.00079575689
0.00095741515
0.00097247131
0.0009495848
0.00075073417
0.00068006543
0.00073583862
0.00075681496
0.00076155186
0.00077413612
0.00073353461
0.00072138622
0.00072089629
0.00072281766
0.00069081771
0.00067924311
0.00068794239
0.00069384591
0.00067739232
0.0006718932
0.0006761734
0.0006740426
0.00067303048
0.00068162587
0.0006908548
0.00070214482
0.00072688652
0.00076138907
0.00078268949
0.00084061823
0.00089957302
0.00090731561
0.0008390645
0.0011888273
0.0011870962
0.0012042269
0.0012489628
0.0013248868
0.0014162568
0.0015900988
0.0017188881
0.0016759529
0.0014369831
0.0013225751
0.001345778
0.0012378856
0.0010999482
0.00072066113
0.00047161397
0.00033396136
0.00023938145
0.00018707512
0.00023581216
0.00039183721
0.00075496276
0.00068407155
0.00059014504
0.00061227288
0.00062898468
0.00050762749
0.00047207924
0.00056591587
0.00078755829
0.00095129678
0.00096626861
0.00094263899
0.00074969045
0.00067179115
0.00073170808
0.00075169256
0.00076015948
0.00077644905
0.00073264543
0.00071860054
0.00071815894
0.00072617522
0.0006950949
0.0006809473
0.00068838154
0.00069851428
0.00068500506
0.00068190961
0.00068893553
0.00068891487
0.0006919228
0.00070509936
0.00071688413
0.00073209903
0.00076579865
0.0008079627
0.00083222569
0.00089647843
0.00094864286
0.00095641973
0.00089381483
0.0013002886
0.0013037745
0.0013246563
0.0013688638
0.0014066896
0.001494791
0.0016123971
0.0016607841
0.0015344294
0.0013580966
0.0013189567
0.0013459843
0.0012200963
0.00106152
0.00064926443
0.00043438947
0.00030624389
0.00022707432
0.00017264665
0.000209721
0.00033936172
0.0007111381
0.00070367139
0.00058545393
0.00056711269
0.00057205879
0.00048666861
0.00047000888
0.00056145852
0.00077558092
0.00094123778
0.00095763594
0.00093133894
0.00075019992
0.00066374699
0.00072647448
0.00074674041
0.00075925154
0.00077690038
0.00073150604
0.00071360886
0.00071352575
0.00073064623
0.00069991679
0.00068042797
0.00068654611
0.00070143171
0.00069111662
0.00069012682
0.00069939762
0.00070164776
0.00070864224
0.00072579442
0.00074029821
0.00076007349
0.00080109823
0.00084694798
0.00087778177
0.00094774882
0.00099062015
0.00099871531
0.00094169584
0.0014023864
0.0014072965
0.001456484
0.0014848068
0.001528555
0.001558842
0.0015483296
0.0014578365
0.0013644459
0.0013429085
0.0013660321
0.0011940161
0.0010062448
0.00057230879
0.00039750837
0.00028651312
0.00021597484
0.00016625783
0.00018216563
0.00028012096
0.00059771654
0.00071667611
0.00062399378
0.00054063032
0.00053150599
0.00047104543
0.00046694088
0.00055563852
0.00076090141
0.00092909489
0.00094696581
0.00091858895
0.00075149787
0.0006554366
0.00072037687
0.00074222794
0.0007584513
0.00077771748
0.00073126117
0.00070715675
0.00070764297
0.0007325086
0.00070502066
0.00067823157
0.00068218895
0.00070281178
0.00069576729
0.00069658722
0.00070761007
0.0007123358
0.00072302134
0.0007433502
0.00076121298
0.00078594704
0.00082968885
0.00087949219
0.00091918201
0.00099247301
0.0010246976
0.001033714
0.00098185433
0.00069904457
0.00072930628
0.00071141685
0.00067562677
0.00067643335
0.00070209999
0.00070003041
0.00070158761
0.00071395062
0.00072135036
0.00073509076
0.00075801972
0.00078038561
0.00080694596
0.0008540069
0.00090641679
0.00095647486
0.0010278854
0.0010505997
0.0010585928
0.0010167059
0.00010348617
9.1405447e-05
0.00022353999
0.00020234073
0.00016005843
0.00013838302
0.00012474912
0.00011295053
0.00010435411
9.1377491e-05
0.00025018962
0.00021321332
0.00019137572
0.00015420791
0.00013865539
0.0001259051
0.00011355462
0.00010470823
9.1653014e-05
0.00023359546
0.00020433022
0.00018546285
0.00015319408
0.00013888633
0.00012650505
0.00011568104
0.0001048287
9.0972815e-05
0.00021656229
0.00019315411
0.00018069859
0.0001522562
0.00013981177
0.00012889554
0.00011639003
0.00010569775
9.2157245e-05
0.00020796374
0.0001897886
0.00017725739
0.00015147947
0.00014231729
0.00012827979
0.00011819331
0.00010443145
9.2367152e-05
0.00020584355
0.00018979441
0.00016791156
0.00015453629
0.00015153572
0.00012864038
0.0001193696
0.00010323958
9.1041743e-05
0.00020536141
0.00019565144
0.00017455093
0.00015933551
0.00015356968
0.00012866988
0.00011855445
0.00010234527
8.959499e-05
0.00023395317
0.00020544443
0.00018168273
0.00016224414
0.00015042008
0.00012695751
0.0001177684
0.00010122462
8.6074107e-05
0.0003484791
0.00029969447
0.00023456683
0.0001786856
0.0001488272
0.00012796852
0.000118562
0.00010351284
8.5492944e-05
0.00068152656
0.0005796437
0.00046270036
0.00029468178
0.00018488312
0.00014154752
0.00012142188
0.00010692084
8.9988712e-05
0.0013750024
0.0012402305
0.00096260707
0.00059207492
0.00037905133
0.00022643832
0.0001393427
0.00011254133
9.3267382e-05
0.0012088978
0.0013382399
0.0013674847
0.0012289455
0.00076254888
0.00049969861
0.00026713599
0.00016606485
0.00011654909
0.00075713098
0.0009964368
0.0012712306
0.0013771924
0.0013303068
0.00096999839
0.00059760713
0.0003393013
0.00021803554
0.00060719859
0.00067962745
0.00088289822
0.0012620851
0.0013988403
0.0014015943
0.001136722
0.00066041098
0.00049149417
0.00053888208
0.00058320985
0.0006674159
0.00084581668
0.0012369666
0.0014332049
0.0014306374
0.0012826225
0.00090724873
0.00053378282
0.00057600296
0.00061275859
0.00070137226
0.00087902879
0.0013284009
0.0015848085
0.0016041649
0.0014931465
0.00056484799
0.00059784936
0.0006403517
0.00069109366
0.00079911551
0.0010524847
0.0015417887
0.0017146826
0.0016822294
0.00061592535
0.00064369382
0.0006792363
0.00071809291
0.00078528244
0.00093666801
0.001291078
0.0016347095
0.0017602483
0.00076039021
0.00075040589
0.00075087535
0.00077431529
0.00082543728
0.00094140815
0.0012166586
0.0016192567
0.0017939778
0.00093992182
0.00096249441
0.00095805077
0.000921376
0.00094542985
0.0010628696
0.0013810315
0.0016679637
0.0017813839
0.0011720458
0.001211758
0.001237411
0.0012695831
0.0013007954
0.0013997604
0.0015434934
0.0016745289
0.0017643196
0.0012651308
0.001283994
0.0013039305
0.0013285524
0.0013662307
0.0014205863
0.0014968144
0.001388037
0.0009982219
0.0011969328
0.0011900917
0.0011829873
0.0011672569
0.0011073288
0.00095895416
0.0007191326
0.00047670061
0.00031656127
0.00079104513
0.00072992984
0.00068203356
0.00057528264
0.00047931308
0.00037117417
0.0002683347
0.00018527053
0.00013535204
0.00050814427
0.00048083102
0.00045298416
0.00041099544
0.00036098831
0.00031277092
0.00025870671
0.00021062397
0.00017149057
0.00052948217
0.0005295012
0.00052284594
0.00051800023
0.00050682721
0.00050714931
0.00049826555
0.00047306291
0.00041519369
0.00062990499
0.00061953098
0.00060749662
0.00060546461
0.0006087154
0.00061575741
0.0006228596
0.00062938594
0.00061165044
0.00077118813
0.00074243068
0.00070392653
0.00067715559
0.00065571324
0.0006415727
0.00063113428
0.00063994294
0.00066072843
0.00085774578
0.00083890433
0.00081094349
0.00076746174
0.00073381464
0.00070951158
0.0006851883
0.00068126599
0.0006923278
0.00080861813
0.00079704552
0.00078176282
0.00076490679
0.00075627219
0.00074903174
0.00075224098
0.00078711975
0.00083123102
0.0007219534
0.00072636303
0.00073279074
0.00073565971
0.00075729601
0.00078855015
0.00082433766
0.00087105738
0.00091137043
0.00072378537
0.00072635912
0.00073000261
0.00073704837
0.00074511993
0.00075809277
0.00077840702
0.0008144055
0.00085020492
0.00073374808
0.0007297499
0.00072365618
0.00071701321
0.00071603193
0.00072226191
0.00074128237
0.00076313905
0.0007961597
0.00075610259
0.00074061006
0.00072405027
0.00070715978
0.00069355847
0.00068430351
0.00067328324
0.0006683947
0.00066356114
0.00074308029
0.00072830036
0.0007156193
0.00069550339
0.00067284328
0.00064631779
0.00060933924
0.00055502566
0.00046384261
0.0007205017
0.00071134666
0.00070099021
0.00068636393
0.0006669218
0.00063804927
0.00059532769
0.00053391832
0.00047003697
0.0007220089
0.0007206284
0.00072115618
0.00072410504
0.00072992812
0.00073666773
0.00073852819
0.00073345263
0.00069784248
0.00071737162
0.00072157214
0.00072951942
0.00074146517
0.00075834656
0.00078035283
0.00080843809
0.00083646041
0.00084698362
0.00071710785
0.00072490697
0.00073705972
0.00075140223
0.00076681335
0.00078088799
0.00080306604
0.00083335027
0.00083920322
0.00073561192
0.00074339189
0.00075068859
0.00075296741
0.00074904405
0.00074095783
0.000740193
0.00072391703
0.00070015613
0.0007422071
0.00074751914
0.00075059708
0.00074810386
0.00073745331
0.00071518359
0.00065708707
0.00059763004
0.00053498164
0.00073951518
0.00074420202
0.00075153027
0.00075078949
0.00073539273
0.0007031261
0.00065409421
0.00059291485
0.00052210248
0.00075171265
0.00076269216
0.00077514268
0.00078437365
0.00078412734
0.00077126444
0.00074175634
0.00068563154
0.0006092257
0.00077037092
0.0007827161
0.00079587328
0.00080556839
0.00080500755
0.00079216167
0.00076326345
0.00071263442
0.0006418178
0.00079827809
0.00081013324
0.00081973526
0.00082147297
0.00081115312
0.00078421028
0.00073186426
0.00066701776
0.00059196747
0.00082588213
0.00083688839
0.00084523708
0.00084390155
0.00082745196
0.00078591344
0.00072521084
0.00064892757
0.00056463154
0.00085504319
0.00086642707
0.00087390066
0.00087061114
0.00085092888
0.00080822729
0.00074307217
0.00066102683
0.00057135633
0.00088745611
0.0008982997
0.00090376141
0.00089742046
0.00087227296
0.00082366981
0.00075278341
0.00066588846
0.00057257854
0.00092524083
0.00093479137
0.00093791403
0.00092774343
0.00089768081
0.00084337547
0.00076619392
0.00067327477
0.00057505853
0.00096337853
0.00096996795
0.00096834375
0.00095263189
0.00091601349
0.00085425045
0.00076983135
0.00067098265
0.00056866406
0.0010119559
0.001013914
0.0010069162
0.00098405798
0.00093849542
0.00086827586
0.00077677667
0.00067248819
0.00056643774
0.0010659293
0.0010677838
0.0010580984
0.0010315767
0.00098237372
0.00090597599
0.00080722383
0.0006957479
0.00058333187
0.0010865347
0.0010872923
0.0010779436
0.0010513211
0.00099999974
0.00092301919
0.00082240681
0.0007081433
0.00059259936
0.0011147341
0.0011113882
0.0010959357
0.0010609147
0.0010007912
0.00091482473
0.00080826165
0.00069031396
0.00057325293
0.0011558971
0.0011441578
0.0011183053
0.0010719968
0.0010010071
0.00090570137
0.00079226138
0.00067138165
0.00055519948
0.0012134727
0.0012035506
0.0011785204
0.0011308301
0.0010556083
0.00095328549
0.00083069159
0.00069957033
0.0005732201
0.0011810326
0.0011749449
0.0011546029
0.0011121886
0.0010430459
0.00095324651
0.00083663791
0.00070725583
0.00058081221
0.0010128848
0.0010173961
0.0010123002
0.00098949942
0.0009403664
0.00085576543
0.00075252428
0.00063846935
0.00052602705
8.5738178e-05
6.5544521e-05
3.0603352e-05
1.3749544e-05
1.3615865e-05
2.0043831e-05
8.3956053e-05
6.2110736e-05
2.9180259e-05
1.3597035e-05
1.3686902e-05
1.8083182e-05
8.2902608e-05
5.9782203e-05
2.7930325e-05
1.3299226e-05
1.3607974e-05
1.6600584e-05
8.0839775e-05
5.5178456e-05
2.6668471e-05
1.2958197e-05
1.3396183e-05
1.5128613e-05
8.1052676e-05
5.262349e-05
2.556584e-05
1.2896681e-05
1.3068333e-05
1.5124892e-05
7.9575233e-05
4.8230851e-05
2.4153854e-05
1.2343851e-05
1.2965924e-05
1.5782759e-05
7.6816117e-05
4.5049853e-05
2.3151248e-05
1.2200691e-05
1.2920872e-05
1.6844242e-05
7.4253234e-05
4.0547148e-05
2.2812691e-05
1.2155327e-05
1.2891691e-05
1.8207023e-05
7.1728321e-05
4.0385779e-05
2.2953762e-05
1.2050194e-05
1.2683463e-05
2.0754692e-05
7.1761583e-05
4.2488955e-05
2.4284805e-05
1.1862117e-05
1.2443857e-05
2.2397991e-05
7.9065608e-05
5.2556415e-05
2.7229476e-05
1.3526138e-05
1.2568334e-05
2.3007546e-05
8.5082185e-05
6.610742e-05
3.5097698e-05
1.7109771e-05
1.3124741e-05
2.2356039e-05
8.9574757e-05
7.3888251e-05
4.371501e-05
2.2481423e-05
1.4398598e-05
2.0917732e-05
0.00013122359
8.4236817e-05
5.3183883e-05
2.9427078e-05
1.6818416e-05
1.9063261e-05
0.00027436917
0.00014311281
8.0576537e-05
4.2671207e-05
2.2142171e-05
1.6685877e-05
0.0005486494
0.00027092155
0.00014106423
7.2619219e-05
2.7543811e-05
1.1226791e-05
0.00098988529
0.00055511744
0.00028688455
0.00013361632
4.1797022e-05
7.5065732e-06
0.0014660837
0.00094948043
0.00064376733
0.0003405596
9.1788218e-05
7.7770402e-06
0.0017377852
0.0016225974
0.0013064858
0.00085731716
0.00026712139
1.4662333e-05
0.0018079048
0.0017394963
0.0014693967
0.0010019922
0.00029990411
2.5713697e-05
0.0017651735
0.0016741335
0.0014003138
0.00084336604
0.00019206029
4.3906481e-05
0.0016185631
0.0012628759
0.00077125899
0.00033680113
9.3077437e-05
4.8284899e-05
0.0007210439
0.00046449968
0.00025713986
0.0001214714
5.3834725e-05
4.4649138e-05
0.000207338
0.00013286925
8.0610608e-05
5.4993955e-05
3.7241453e-05
2.6029299e-05
0.00010042778
7.646759e-05
5.8763387e-05
4.3540006e-05
2.913067e-05
1.8961134e-05
0.00013717777
0.00011013895
8.789941e-05
6.4204056e-05
3.8080292e-05
1.9381194e-05
0.00033407678
0.00024635885
0.0001774938
0.00012184331
6.1723026e-05
2.4612974e-05
0.00055138882
0.00044111431
0.00029220042
0.00016975543
8.9763107e-05
4.1853639e-05
0.0006705465
0.00062861206
0.00050993172
0.00032530616
0.00014222628
5.7591606e-05
0.00071915044
0.00076010361
0.00073212434
0.00055186437
0.00026329941
6.0532749e-05
0.00087984137
0.00097650817
0.00098415017
0.00077390156
0.00037509584
5.6761709e-05
0.00095537663
0.0010270423
0.0010221209
0.00080360309
0.00039547157
4.319506e-05
0.00089916868
0.00095754725
0.00093320003
0.000718536
0.00034095866
3.7257626e-05
0.00083282939
0.0008382299
0.00074481023
0.00052160113
0.00021906243
3.378607e-05
0.00062371184
0.00054315461
0.00042488917
0.0002672015
0.00010238093
2.3206655e-05
0.0003849332
0.00030455868
0.00021745643
0.00012689602
4.4736711e-05
9.2224761e-06
0.00039657833
0.00031251052
0.00022115219
0.00012838485
4.7076037e-05
9.7209309e-06
0.00063836861
0.00054373031
0.00041097892
0.00025174451
9.6922418e-05
1.2264173e-05
0.00081591365
0.00072548151
0.00057102796
0.00035694214
0.00013191967
1.1384378e-05
0.00080743179
0.00071935293
0.00056978367
0.00036376359
0.00013301633
6.4588134e-06
0.00065332197
0.00056921543
0.00043871322
0.00026325078
8.4673645e-05
2.266562e-06
0.00046563874
0.00038103002
0.00027705719
0.0001574422
4.4411864e-05
1.2702782e-06
0.00044425462
0.00035383075
0.00025131394
0.00014093748
3.8945542e-05
1.414657e-06
0.000520032
0.00041264359
0.00028935751
0.00015740549
4.2798835e-05
1.567909e-06
0.00055361682
0.00044312691
0.00031210232
0.00016913742
4.4263395e-05
1.3982788e-06
0.0005060304
0.00040294107
0.00028347329
0.00015258534
3.6969974e-05
1.0403628e-06
0.00047396661
0.00036980482
0.00025315817
0.00013078839
2.9297201e-05
8.4137279e-07
0.0004759781
0.00036748883
0.00024787059
0.00012519727
2.7153918e-05
7.747065e-07
0.00047427745
0.00036331897
0.00024244472
0.00012039406
2.5279219e-05
7.1542808e-07
0.00047274748
0.00035848263
0.00023592811
0.00011462861
2.2999748e-05
6.4097916e-07
0.00046351801
0.00034751514
0.00022527373
0.00010705365
2.0620254e-05
5.9240449e-07
0.00045864123
0.00034084705
0.0002186672
0.000102962
1.9797867e-05
5.9231961e-07
0.00046969976
0.00034618687
0.00021968709
0.00010211544
1.9594892e-05
6.1179659e-07
0.00047539838
0.00034769391
0.00021793977
9.9741861e-05
1.8935077e-05
6.0928095e-07
0.00045615528
0.00033034117
0.00020541107
9.3719391e-05
1.774054e-05
6.1225723e-07
0.0004407849
0.00031844235
0.00019750309
9.0539697e-05
1.7767125e-05
7.2882409e-07
0.00044996331
0.00032108699
0.00019793247
9.1318848e-05
1.9588648e-05
9.2657873e-07
0.00045618055
0.00032442379
0.0001985202
9.1321874e-05
1.9749621e-05
1.0209238e-06
0.00041360782
0.00029297516
0.00017795895
8.1157486e-05
1.7374624e-05
9.5597083e-07
)
;

boundaryField
{
    Side1
    {
        type            empty;
    }
    Inlet
    {
        type            calculated;
        value           nonuniform List<scalar> 0();
    }
    Side2
    {
        type            empty;
    }
    Outlet
    {
        type            zeroGradient;
    }
    Botwall
    {
        type            nutkWallFunction;
        blending        stepwise;
        value           nonuniform List<scalar> 
59
(
0
0
0
0
0
0
0
0
0
0
0
0
0
0
0
0
0
0
0
0
0
0
0
0
0
0
0
0
5.7939026e-07
1.0322329e-06
4.6791753e-07
0
0
0
0
0
0
0
0
0
0
0
0
0
0
0
0
0
0
0
0
0
0
0
0
0
0
0
0
)
;
    }
    Cyli
    {
        type            nutkWallFunction;
        blending        stepwise;