/*--------------------------------*- C++ -*----------------------------------*\
| =========                 |                                                 |
| \\      /  F ield         | OpenFOAM: The Open Source CFD Toolbox           |
|  \\    /   O peration     | Version:  2406                                  |
|   \\  /    A nd           | Website:  www.openfoam.com                      |
|    \\/     M anipulation  |                                                 |
\*---------------------------------------------------------------------------*/
FoamFile
{
    version     2.0;
    format      ascii;
    arch        "LSB;label=32;scalar=64";
    class       volScalarField;
    location    "0.01";
    object      T;
}
// * * * * * * * * * * * * * * * * * * * * * * * * * * * * * * * * * * * * * //

dimensions      [0 0 0 1 0 0 0];

internalField   nonuniform List<scalar> 
2065
(
291.38437
291.5298
291.69655
291.81989
291.96008
292.10976
292.222
292.31407
292.41398
292.59939
292.81177
292.98644
293.11108
293.13686
293.01043
292.79922
292.6177
292.60315
292.93291
294.09233
294.57488
294.45761
293.73635
292.68619
292.61405
292.77055
292.93093
293.09441
292.96551
292.70424
292.79046
293.67641
294.51718
294.12598
292.98318
292.87616
293.17345
293.62013
293.8877
293.70385
293.40659
293.472
293.67142
293.70363
293.65152
293.6203
293.60496
293.54725
293.44431
293.35633
293.3065
293.29727
293.31597
293.36776
293.44179
293.51107
293.66108
293.56096
291.39505
291.54
291.72053
291.84918
291.98904
292.13221
292.24405
292.31912
292.45286
292.6553
292.91169
293.08212
293.12787
293.03846
292.88443
292.67342
292.52961
292.58529
293.1614
294.30244
294.56828
294.43647
293.64606
292.6114
292.58174
292.76815
292.99343
293.21812
293.04552
292.68965
292.78394
293.762
294.54275
294.0674
292.97434
292.92689
293.20848
293.60221
293.84034
293.66385
293.411
293.48012
293.65393
293.68194
293.63809
293.60849
293.58738
293.5214
293.41967
293.33788
293.29665
293.29371
293.31732
293.3744
293.45357
293.52505
293.66485
293.55987
291.30268
291.39614
291.5496
291.73776
291.87762
292.03209
292.13298
292.2081
292.30525
292.47043
292.73841
293.04102
293.14637
293.12674
293.01905
292.85672
292.62726
292.49417
292.57142
293.32342
294.32395
294.54299
294.41766
293.53977
292.54397
292.54472
292.77191
293.07629
293.35048
293.13139
292.70352
292.78877
293.83075
294.55251
294.00504
292.97131
292.98141
293.23348
293.57671
293.79119
293.63021
293.4153
293.48249
293.63403
293.66052
293.62333
293.59348
293.56572
293.49366
293.39361
293.31813
293.28551
293.28904
293.31706
293.37961
293.46442
293.53775
293.66584
293.55902
291.32857
291.34686
291.3859
291.56127
291.76535
291.88097
291.99615
292.12857
292.19484
292.28886
292.52571
292.8857
293.12857
293.17382
293.06873
292.90677
292.7295
292.52082
292.42743
292.5658
293.46942
294.32697
294.51224
294.37805
293.41071
292.48216
292.50714
292.7848
293.18268
293.48958
293.21369
292.70056
292.78994
293.88478
294.5659
293.94414
292.97507
293.03498
293.25493
293.54767
293.74314
293.60277
293.41937
293.48085
293.61346
293.63997
293.60772
293.57638
293.54181
293.46533
293.36706
293.29794
293.27385
293.28327
293.31598
293.3838
293.47459
293.54934
293.6645
293.55845
291.46058
291.42277
291.43966
291.54759
291.7546
291.89227
291.99548
292.04396
292.10518
292.2823
292.66166
293.05347
293.19522
293.16945
292.99108
292.83421
292.67187
292.47121
292.37717
292.56465
293.52553
294.31949
294.48539
294.29407
293.27013
292.43137
292.48729
292.81108
293.30892
293.62907
293.29476
292.71315
292.78363
293.92298
294.558
293.88686
292.98513
293.08762
293.27535
293.51667
293.6968
293.58212
293.42348
293.47696
293.59366
293.62069
293.59214
293.55832
293.5175
293.43744
293.34097
293.2783
293.26232
293.277
293.31439
293.38734
293.4844
293.55996
293.66142
293.55821
291.57264
291.57088
291.48507
291.50229
291.56254
291.71269
291.81108
291.91195
291.94883
292.0408
292.35137
292.83814
293.18386
293.23034
293.11634
292.88479
292.71123
292.5575
292.39109
292.33101
292.5781
293.55454
294.29203
294.46137
294.15149
293.12688
292.3814
292.46363
292.85112
293.45227
293.76548
293.37193
292.72364
292.77313
293.92964
294.50173
293.81283
293.00557
293.14078
293.29439
293.48468
293.65454
293.56609
293.42808
293.47238
293.57556
293.60315
293.57732
293.54048
293.49429
293.41113
293.31632
293.26034
293.2515
293.2709
293.31259
293.39062
293.4942
293.56973
293.65665
293.55901
291.46053
291.50054
291.53356
291.52531
291.52774
291.50806
291.64228
291.73015
291.79821
291.82757
292.04341
292.55214
293.01678
293.24821
293.23265
293.01456
292.77746
292.63198
292.50687
292.34019
292.30046
292.59219
293.54198
294.21769
294.39304
293.99937
292.9906
292.34256
292.44338
292.90625
293.60822
293.89332
293.44582
292.72672
292.76334
293.90599
294.43472
293.72644
293.03639
293.19691
293.3139
293.45159
293.61847
293.55397
293.4336
293.46823
293.55984
293.58782
293.56371
293.52405
293.4735
293.38756
293.29404
293.24455
293.24239
293.26556
293.31105
293.39399
293.5043
293.5787
293.65154
293.56076
291.56626
291.58079
291.58481
291.52624
291.55421
291.56384
291.63952
291.67769
291.6618
291.77332
292.17882
292.77335
293.19291
293.2839
293.18016
292.90678
292.6621
292.52769
292.42599
292.29562
292.27564
292.59696
293.49964
294.14073
294.29256
293.85953
292.87347
292.29683
292.42898
292.97605
293.77059
294.0096
293.51392
292.72656
292.74989
293.89829
294.3492
293.64526
293.07664
293.25347
293.33257
293.41872
293.58621
293.54685
293.44067
293.46564
293.54724
293.57495
293.55203
293.51026
293.45636
293.36787
293.27498
293.23179
293.23581
293.26142
293.31019
293.39776
293.51484
293.58693
293.64712
293.5644
291.72342
291.68568
291.7629
291.65148
291.59044
291.56108
291.61329
291.5795
291.57604
291.85978
292.41995
292.96272
293.2609
293.26394
293.08332
292.79037
292.55432
292.46095
292.39311
292.26656
292.25674
292.58984
293.4286
294.062
294.19689
293.72677
292.77755
292.26769
292.42528
293.05689
293.93172
294.11063
293.57742
292.72578
292.73322
293.86063
294.25213
293.57413
293.11886
293.31549
293.34518
293.38961
293.55906
293.5422
293.44987
293.46579
293.53817
293.56478
293.54319
293.50027
293.44404
293.3533
293.25997
293.22287
293.23165
293.25949
293.31057
293.40221
293.52589
293.59404
293.64479
293.57107
292.06214
291.98855
291.92002
291.87963
291.79023
291.61523
291.56081
291.53975
291.48335
291.64092
292.09871
292.67295
293.13084
293.2429
293.1995
292.94871
292.68071
292.46426
292.37941
292.3511
292.24856
292.24272
292.56276
293.33607
293.97037
294.08817
293.58902
292.69448
292.24983
292.4281
293.14403
294.08753
294.19052
293.63604
292.73078
292.71504
293.81447
294.1511
293.50264
293.16457
293.3912
293.36101
293.36317
293.53302
293.5396
293.4616
293.46979
293.53284
293.55793
293.53808
293.49517
293.43753
293.34504
293.25047
293.21838
293.23043
293.25964
293.31258
293.40747
293.53718
293.59986
293.64599
293.5805
292.33483
292.29359
292.17053
291.9343
291.7282
291.63399
291.52971
291.51127
291.55261
291.87297
292.36786
292.90759
293.17988
293.20668
293.10765
292.80179
292.57898
292.38836
292.3363
292.33262
292.24774
292.23409
292.53306
293.23563
293.85643
293.95364
293.46528
292.62124
292.24185
292.44439
293.23629
294.21752
294.26539
293.69002
292.73554
292.69722
293.74121
294.05407
293.42077
293.21686
293.47599
293.3871
293.33517
293.51013
293.53819
293.47592
293.47688
293.53178
293.55556
293.53757
293.4959
293.4374
293.344
293.24824
293.21864
293.23142
293.26217
293.31651
293.4135
293.54788
293.60454
293.64984
293.59299
292.45166
292.39135
292.22069
291.94039
291.72647
291.62245
291.54815
291.57616
291.76012
292.14277
292.64032
293.05348
293.1692
293.15385
292.97818
292.67032
292.50169
292.32296
292.29556
292.31906
292.24369
292.24214
292.49357
293.12449
293.7282
293.80776
293.3488
292.56219
292.2386
292.46442
293.32361
294.31333
294.33611
293.73757
292.74335
292.67777
293.66056
293.94658
293.35961
293.27633
293.56622
293.42318
293.31192
293.48307
293.53813
293.49488
293.48796
293.5323
293.55931
293.54269
293.50192
293.44404
293.35062
293.25398
293.22285
293.23495
293.26721
293.32241
293.42005
293.55705
293.60812
293.65433
293.6083
292.44172
292.38062
292.23485
291.98502
291.78776
291.70208
291.6584
291.75282
292.02418
292.44395
292.91922
293.08346
293.11445
293.05266
292.83828
292.57568
292.43402
292.26997
292.27303
292.32262
292.2485
292.25893
292.45459
293.0087
293.59116
293.66498
293.23272
292.52399
292.24136
292.47841
293.4146
294.39593
294.39486
293.77958
292.75953
292.65578
293.57352
293.8332
293.33977
293.33211
293.658
293.46845
293.2941
293.45506
293.53981
293.51852
293.50348
293.53624
293.56633
293.55293
293.51319
293.45677
293.36439
293.26704
293.23051
293.24145
293.2747
293.33005
293.42686
293.56354
293.61076
293.65885
293.62505
292.42287
292.3661
292.23292
292.04517
291.92068
291.85593
291.87726
292.04547
292.35074
292.7591
293.03534
293.07706
293.03016
292.96627
292.72646
292.49878
292.38751
292.22762
292.26719
292.3332
292.29729
292.2684
292.42639
292.89362
293.44642
293.51331
293.13301
292.50226
292.24869
292.48796
293.50677
294.46752
294.44576
293.81506
292.77895
292.63197
293.48082
293.74174
293.34145
293.39161
293.74781
293.5205
293.2809
293.42742
293.54625
293.54761
293.52225
293.54297
293.57621
293.56762
293.52969
293.47478
293.38416
293.28579
293.24214
293.25066
293.2842
293.33907
293.43381
293.56698
293.61223
293.6634
293.64154
292.45062
292.39277
292.29967
292.18848
292.12569
292.12411
292.19249
292.38718
292.67417
292.98906
293.08209
293.06103
293.00119
292.90218
292.59309
292.42916
292.34025
292.19525
292.2742
292.34961
292.33604
292.30481
292.41738
292.78598
293.28634
293.37547
293.04481
292.49193
292.26436
292.49561
293.58429
294.5301
294.48957
293.84337
292.80316
292.60699
293.3841
293.66652
293.35151
293.46436
293.83376
293.57265
293.27101
293.40215
293.56224
293.58268
293.54357
293.55176
293.58888
293.58644
293.55018
293.49694
293.40866
293.30877
293.25767
293.26223
293.29534
293.34906
293.44087
293.568
293.61206
293.66758
293.65611
292.5355
292.47636
292.41923
292.39202
292.42786
292.56635
292.77851
292.98771
293.13503
293.14602
293.0708
293.00113
292.82555
292.46754
292.38616
292.29683
292.18076
292.29896
292.36723
292.37769
292.35285
292.42616
292.69621
293.122
293.25316
292.97174
292.50209
292.28367
292.50012
293.64593
294.58743
294.52823
293.86666
292.83347
292.58412
293.28723
293.59968
293.37197
293.54251
293.90948
293.61968
293.26247
293.38435
293.58496
293.62125
293.56657
293.56206
293.6039
293.60863
293.57351
293.52196
293.4366
293.33505
293.27649
293.2759
293.30752
293.35965
293.44801
293.56757
293.60987
293.66986
293.66826
292.76134
292.74058
292.72763
292.74466
292.81266
292.92943
293.10568
293.28394
293.3228
293.26477
293.12766
292.98952
292.71199
292.37141
292.35006
292.24769
292.17286
292.32385
292.39669
292.41289
292.40043
292.44422
292.62883
292.98205
293.13649
292.90724
292.51198
292.31094
292.50363
293.69157
294.62834
294.55759
293.88468
292.86864
292.56636
293.19511
293.53714
293.39999
293.6232
293.97443
293.65899
293.25352
293.36941
293.61099
293.6623
293.59019
293.5732
293.6205
293.6331
293.59862
293.54859
293.46678
293.36387
293.29791
293.29111
293.32027
293.37047
293.45511
293.5665
293.60559
293.66775
293.67857
292.98613
293.00168
293.02442
293.06389
293.14065
293.25825
293.38071
293.50319
293.53152
293.40366
293.18611
292.95091
292.59951
292.30366
292.32842
292.1968
292.18276
292.34874
292.44105
292.43843
292.45583
292.47111
292.58406
292.86442
293.02703
292.85319
292.53914
292.34015
292.50776
293.71416
294.64243
294.58261
293.89902
292.90414
292.55514
293.10634
293.48297
293.43424
293.70184
294.02697
293.68945
293.24199
293.35464
293.63938
293.70492
293.61215
293.58537
293.63787
293.65863
293.62445
293.57564
293.49803
293.39448
293.32124
293.30735
293.3331
293.38112
293.46197
293.56533
293.5992
293.66072
293.68598
293.17772
293.22563
293.28881
293.32824
293.39687
293.46361
293.53355
293.53583
293.38714
293.10228
292.84278
292.48979
292.26122
292.30492
292.16263
292.20013
292.37426
292.46444
292.48289
292.49827
292.50634
292.56838
292.77575
292.93169
292.81313
292.55453
292.37233
292.51556
293.69306
294.64304
294.59909
293.9068
292.93506
292.55068
293.02263
293.44182
293.46431
293.77458
294.06941
293.71356
293.22725
293.33887
293.6684
293.74823
293.63394
293.59647
293.65502
293.68412
293.65
293.60205
293.52926
293.42607
293.34569
293.32417
293.34555
293.39118
293.4684
293.56418
293.59063
293.65046
293.68846
293.20994
293.32164
293.69643
293.7912
293.65571
293.60596
293.67104
293.70862
293.67439
293.62688
293.55942
293.45783
293.37055
293.34104
293.35724
293.40016
293.47415
293.56273
293.58008
293.63655
293.68626
291.74413
291.77874
291.42204
291.51843
291.61023
291.68218
291.75202
291.81767
291.85262
291.88501
291.49222
291.59486
291.68319
291.74675
291.81202
291.8642
291.91742
291.95193
291.97478
291.64345
291.72908
291.77741
291.82815
291.91187
291.96641
292.01743
292.05164
292.07999
291.77287
291.84952
291.90005
291.99564
292.05032
292.0941
292.13917
292.16391
292.18425
291.92523
292.02641
292.06087
292.10616
292.15279
292.19014
292.229
292.25395
292.27156
292.09151
292.16407
292.15832
292.20177
292.26594
292.30245
292.3442
292.36697
292.38785
292.20602
292.2514
292.25347
292.33708
292.42543
292.43815
292.45419
292.46763
292.48107
292.31796
292.36583
292.40994
292.48001
292.50783
292.51644
292.53417
292.55198
292.56993
292.39795
292.46877
292.51264
292.57801
292.59201
292.62521
292.65605
292.67438
292.69394
292.56993
292.62314
292.61629
292.66869
292.72227
292.76182
292.77376
292.77884
292.77938
292.772
292.80262
292.81971
292.84456
292.84223
292.82538
292.82479
292.83788
292.84722
292.92315
292.91475
292.93963
292.96916
292.97051
292.93656
292.92804
292.94075
292.95538
293.06328
293.02493
293.00548
293.02
293.05779
293.08033
293.05731
293.04541
293.04488
293.10777
293.0942
293.05283
293.03741
293.07596
293.12646
293.15946
293.16828
293.16753
293.02119
293.03002
293.01479
293.00577
293.02617
293.09298
293.1771
293.23991
293.26178
292.83315
292.85465
292.87446
292.88735
292.87319
292.94719
293.06673
293.17589
293.21919
292.65235
292.67525
292.6912
292.71881
292.75121
292.75319
292.77102
292.87752
293.00764
292.63836
292.67129
292.71891
292.74813
292.69059
292.59088
292.59056
292.66464
292.7907
292.93533
292.96066
292.95952
292.92527
292.89485
292.86014
292.77688
292.61495
292.4793
294.03133
293.94204
293.8342
293.74837
293.54753
293.14096
292.71458
292.46086
292.37826
294.54138
294.41929
294.17098
293.84337
293.50517
293.27393
293.14513
293.05112
293.00513
294.41824
294.27122
294.13779
293.98054
293.78631
293.62501
293.43977
293.27413
293.1708
293.8025
293.6197
293.48087
293.27692
293.11194
292.99895
292.93693
292.93091
292.97782
292.76478
292.71638
292.72839
292.78326
292.86269
292.96494
292.99833
293.07415
293.04215
292.65605
292.75142
292.79115
292.88022
292.91955
292.98495
292.98543
293.00309
292.98813
292.77048
292.80984
292.81011
292.84157
292.83931
292.85176
292.837
292.82983
292.82531
292.88413
292.8646
292.81838
292.77062
292.71639
292.6678
292.62312
292.5865
292.55826
292.99083
292.90091
292.80061
292.70069
292.60986
292.53397
292.4726
292.42361
292.38281
292.87556
292.78967
292.7084
292.63028
292.55627
292.48998
292.43451
292.38994
292.34843
292.68496
292.67852
292.66881
292.65051
292.6205
292.59279
292.57029
292.54213
292.50387
292.80611
292.83461
292.8599
292.87588
292.87281
292.84068
292.77822
292.68907
292.58756
293.66495
293.66999
293.65983
293.60613
293.48152
293.29174
293.0701
292.85737
292.67808
294.53009
294.52801
294.50175
294.41825
294.24781
293.99379
293.70749
293.44127
293.23148
294.16638
294.14871
294.11346
294.03747
293.90553
293.7258
293.52863
293.34901
293.20609
292.99391
292.9712
292.93851
292.89411
292.83223
292.76435
292.70423
292.65555
292.62157
292.83221
292.7888
292.73743
292.67581
292.60915
292.54049
292.47252
292.4076
292.35173
293.14081
293.11513
293.0808
293.03398
292.97172
292.89035
292.7893
292.67819
292.57343
293.63957
293.66309
293.68775
293.70621
293.698
293.63471
293.5071
293.34208
293.18101
293.93217
293.97477
294.01772
294.05171
294.0635
294.04106
293.96657
293.84344
293.70676
293.74231
293.77753
293.8176
293.85065
293.86432
293.84727
293.79273
293.7072
293.61547
293.40186
293.39422
293.38148
293.35956
293.32359
293.27059
293.20195
293.12887
293.0655
293.45966
293.44455
293.41725
293.3692
293.29501
293.19997
293.09854
293.00523
292.92517
293.68322
293.69263
293.69686
293.68687
293.64475
293.56402
293.46096
293.35602
293.26207
293.72272
293.74032
293.7577
293.76923
293.77047
293.7516
293.70577
293.64155
293.57354
293.66216
293.67109
293.67988
293.68488
293.67992
293.66058
293.62507
293.57755
293.5273
293.62678
293.62931
293.62744
293.61497
293.58839
293.54737
293.49579
293.44051
293.38785
293.61564
293.62221
293.62334
293.61678
293.59621
293.55969
293.51106
293.45758
293.40581
293.56628
293.58103
293.59355
293.59783
293.59064
293.57195
293.54101
293.50245
293.46233
293.46315
293.47822
293.49308
293.50397
293.50656
293.49617
293.47536
293.4478
293.41793
293.37011
293.38085
293.39106
293.39778
293.39747
293.38768
293.36911
293.34506
293.31922
293.31414
293.31984
293.32427
293.32534
293.32059
293.30859
293.28988
293.26684
293.24249
293.29826
293.298
293.29587
293.29014
293.27938
293.26288
293.24149
293.21735
293.19287
293.31318
293.30967
293.303
293.29222
293.27627
293.25513
293.23016
293.20362
293.17774
293.36078
293.35384
293.34378
293.32931
293.30983
293.28597
293.25925
293.23169
293.20523
293.43114
293.42145
293.4084
293.3914
293.37035
293.34582
293.31916
293.29209
293.26629
293.49848
293.4873
293.47238
293.45327
293.43011
293.40388
293.37604
293.34827
293.32207
293.65556
293.64976
293.6405
293.62677
293.60816
293.58532
293.56008
293.53434
293.50941
293.56164
293.56188
293.5618
293.56077
293.558
293.55273
293.54467
293.53433
293.52283
291.79556
291.80741
291.8127
291.82635
291.86152
291.9594
291.90036
291.91151
291.91762
291.93102
291.95462
292.03069
291.98708
291.99839
292.00494
292.0186
292.04885
292.1395
292.09694
292.1053
292.1143
292.13015
292.14819
292.21697
292.19825
292.20486
292.21139
292.2222
292.23639
292.33245
292.28515
292.29215
292.29842
292.30881
292.32766
292.43555
292.40219
292.40722
292.41454
292.42272
292.44014
292.52346
292.49212
292.4929
292.49843
292.50402
292.5228
292.60462
292.58236
292.58687
292.59617
292.60389
292.63175
292.68704
292.70471
292.70858
292.71568
292.72983
292.74867
292.77413
292.78717
292.79064
292.7912
292.80588
292.83008
292.8609
292.85825
292.86238
292.86377
292.87018
292.89966
292.93161
292.96311
292.96235
292.96414
292.96891
292.99608
293.02867
293.05789
293.08026
293.10374
293.11766
293.15672
293.18499
293.17217
293.18479
293.19989
293.19911
293.2153
293.20824
293.25813
293.23867
293.2033
293.16786
293.16955
293.22377
293.22264
293.18833
293.14182
293.14154
293.18039
293.32978
293.1141
293.15998
293.16668
293.18366
293.24179
293.3063
292.90279
292.97945
292.99835
292.98157
292.96503
293.07599
292.38673
292.34702
292.31416
292.24626
292.1775
292.51959
292.36524
292.37342
292.36348
292.3296
292.31785
292.62419
292.9856
292.94814
292.91555
292.92161
293.04748
293.23632
293.10821
293.07285
293.06705
293.09316
293.13625
293.15432
293.04298
293.06149
293.16051
293.17187
293.18879
293.0011
293.05486
292.99758
292.96495
292.90123
292.82725
292.76191
292.96131
292.92856
292.89554
292.88146
292.91918
292.94088
292.83135
292.85381
292.88541
292.9233
292.94966
293.02468
292.5401
292.53722
292.55416
292.59563
292.67846
292.81038
292.34625
292.31048
292.27449
292.24086
292.22599
292.29504
292.29982
292.23766
292.16308
292.07704
291.97061
291.85361
292.4442
292.35702
292.25214
292.1317
291.97728
291.73258
292.47997
292.35941
292.23482
292.11333
291.9855
291.83284
292.52591
292.39296
292.27903
292.1773
292.07256
291.93391
293.06889
292.93964
292.83865
292.7521
292.65346
292.49051
293.09431
292.99978
292.91389
292.83048
292.73766
292.60988
292.59382
292.56486
292.53243
292.49521
292.44701
292.38294
292.30535
292.26698
292.23124
292.19673
292.16101
292.12745
292.4787
292.39082
292.30495
292.2108
292.11081
292.03616
293.0343
292.89241
292.75493
292.61845
292.45177
292.21512
293.57607
293.44817
293.32249
293.19171
293.02543
292.7634
293.52961
293.44619
293.3624
293.27228
293.15669
292.96015
293.01264
292.96394
292.91534
292.86215
292.79183
292.65269
292.85195
292.77912
292.70464
292.62365
292.5242
292.42174
293.17625
293.08876
292.9959
292.88883
292.74425
292.56308
293.50628
293.43451
293.35618
293.26277
293.12895
292.91909
293.47699
293.42356
293.36517
293.29582
293.19262
293.0128
293.33742
293.28479
293.22784
293.16063
293.06413
292.91539
293.35529
293.30105
293.24088
293.16795
293.06255
292.92148
293.42127
293.3753
293.32229
293.2553
293.1532
293.00332
293.38642
293.35018
293.30718
293.25088
293.16154
293.02567
293.29184
293.26005
293.22188
293.17126
293.0903
292.97135
293.21665
293.18633
293.14956
293.10007
293.02078
292.9081
293.16739
293.13771
293.10179
293.05345
292.97495
292.85784
293.15128
293.12071
293.08404
293.03473
292.95624
292.85252
293.17835
293.14729
293.11001
293.06005
292.98035
292.87282
293.24
293.20934
293.17232
293.12219
293.0419
292.93082
293.29547
293.26439
293.2269
293.17616
293.09731
292.99
293.48286
293.44954
293.40717
293.34958
293.25999
293.13967
293.50998
293.49391
293.47297
293.44096
293.38315
293.29992
)
;

boundaryField
{
    Side1
    {
        type            empty;
    }
    Inlet
    {
        type            totalTemperature;
        gamma           1.4;
        T0              nonuniform List<scalar> 0();
        value           nonuniform List<scalar> 0();
    }
    Side2
    {
        type            empty;
    }
    Outlet
    {
        type            zeroGradient;
    }
    Botwall
    {
        type            zeroGradient;
    }
    Cyli
    {
        type            zeroGradient;
    }
    procBoundary1to0
    {
        type            processor;
        value           nonuniform List<scalar> 
44
(
291.28373
291.36694
291.31131
291.31131
291.25153
291.25153
291.43334
291.65322
291.65322
291.46483
291.46483
291.48874
291.62101
291.80636
291.80636
292.05675
292.27454
292.38204
292.41538
292.42921
292.57935
292.48153
292.57935
292.77942
292.96633
293.13258
293.13258
291.65588
291.69058
291.34099
291.41325
291.5012
291.57788
291.63937
291.70047
291.70047
291.36694
291.36694
291.70676
291.7217
291.72461
291.7327
291.76156
291.85666
)
;
    }
    procBoundary1to3
    {
        type            processor;
        value           nonuniform List<scalar> 
62
(
293.23282
293.29098
293.34557
293.38155
293.3893
293.39422
293.4196
293.37136
293.18261
292.92711
292.70203
292.39193
292.25403
292.28289
292.12737
292.23229
292.39221
292.47977
292.51254
292.54746
292.5575
292.57577
292.71205
292.8557
292.78333
292.57229
292.40458
292.51354
293.62552
294.62534
294.60208
293.90826
292.95963
292.55472
292.94612
293.39807
293.48249
293.85018
294.10835
293.73635
293.73635
293.19169
293.30313
293.72196
293.83244
293.67752
293.61344
293.6849
293.73142
293.69701
293.64937
293.58757
293.48884
293.39605
293.3569
293.36767
293.40755
293.47898
293.5602
293.56721
293.61931
293.67938
)
;
    }
}


// ************************************************************************* //
