/*--------------------------------*- C++ -*----------------------------------*\
| =========                 |                                                 |
| \\      /  F ield         | OpenFOAM: The Open Source CFD Toolbox           |
|  \\    /   O peration     | Version:  2406                                  |
|   \\  /    A nd           | Website:  www.openfoam.com                      |
|    \\/     M anipulation  |                                                 |
\*---------------------------------------------------------------------------*/
FoamFile
{
    version     2.0;
    format      ascii;
    arch        "LSB;label=32;scalar=64";
    class       volScalarField;
    location    "0.01";
    object      k;
}
// * * * * * * * * * * * * * * * * * * * * * * * * * * * * * * * * * * * * * //

dimensions      [0 2 -2 0 0 0 0];

internalField   nonuniform List<scalar> 
92813
(
690.56377
677.10147
661.52864
644.32769
625.80839
606.20666
585.74363
564.63851
543.09931
521.31401
499.44685
477.638
456.00517
434.64466
413.62805
393.01093
372.8363
353.13706
333.9378
315.25601
297.10998
279.51678
262.48863
246.03285
230.15267
214.84843
200.11812
185.95785
172.36228
159.32498
146.83874
134.89586
123.48836
112.60821
102.24748
92.398506
83.053953
74.207401
65.852762
57.98236
50.595285
43.693072
37.274815
31.34168
25.90109
20.96195
16.547187
12.701009
9.4808585
6.9497482
5.1329452
3.9564107
3.2373573
2.7894755
2.4844288
2.2534099
2.0648879
1.9038652
1.7631657
1.638693
1.5280735
1.42961
1.3413881
1.2618171
1.1899826
1.1247632
1.0655371
1.0119506
0.96321317
0.9190467
0.87910071
0.8429947
0.8104092
0.78064081
0.75328158
0.7279913
0.70457629
0.68283712
0.66264557
0.64410346
0.62706124
0.61144256
0.59706335
0.5838619
0.5716791
0.56032033
0.54972214
0.53975183
0.53033427
0.52147722
0.51323531
0.50554843
0.49836156
0.49175022
0.48562172
0.47992964
0.47472314
0.46982025
0.46528427
0.46110198
0.45716811
0.45349964
0.45008491
0.44686104
0.44381152
0.44093288
0.43819989
0.4356155
0.4331958
0.43094115
0.42882668
0.42685374
0.42501397
0.42330132
0.4217176
0.42026522
0.41893344
0.41771705
0.41662344
0.41564676
0.41478909
0.41404368
0.41342326
0.41289891
0.41254695
0.41220134
0.41218685
679.84769
664.84448
648.14122
630.20746
611.26009
591.47718
571.03729
550.11859
528.89115
507.51081
486.11568
464.82485
443.73833
422.9377
402.48513
382.42903
362.80624
343.64352
324.96088
306.77352
289.09657
271.94604
255.33486
239.27245
223.764
208.81137
194.41382
180.56866
167.27165
154.51745
142.29988
130.61223
119.44751
108.7986
98.658482
89.020375
79.877848
71.225299
63.05818
55.367728
48.153623
41.421166
35.169812
29.401365
24.125949
19.358789
15.129386
11.486182
8.4927535
6.2086523
4.6323658
3.6448884
3.0484757
2.6687408
2.3992227
2.1877396
2.0108616
1.8577655
1.7232387
1.6039679
1.4976926
1.4028582
1.3178137
1.2410092
1.1715397
1.1083133
1.0508341
0.99882932
0.95140914
0.90846023
0.86966294
0.83454088
0.8028702
0.773896
0.74718668
0.72253109
0.69967994
0.67840285
0.65868048
0.64054535
0.62383885
0.60854501
0.59443332
0.58148713
0.56953163
0.55836097
0.54796601
0.53815851
0.52888595
0.52017929
0.51205691
0.50448799
0.49740428
0.49087784
0.48483093
0.4791997
0.47405389
0.46920608
0.46471401
0.46057834
0.45668692
0.45305451
0.44967597
0.44648782
0.4434701
0.44062182
0.43791642
0.43535616
0.43295898
0.43072561
0.4286304
0.42667367
0.42484964
0.42315172
0.42158101
0.42013997
0.41881909
0.41761153
0.41652513
0.41555559
0.41470377
0.41396361
0.41334765
0.41282714
0.41247789
0.41213387
0.4121209
666.10708
650.25232
632.97795
614.69539
595.60363
575.85841
555.61139
535.01105
514.19806
493.30202
472.43908
451.7105
431.20198
410.98349
391.10965
371.62269
352.55468
333.92937
315.76501
298.07554
280.87457
264.17734
247.99628
232.34102
217.21778
202.62962
188.57702
175.05847
162.0709
149.61007
137.67091
126.24778
115.3347
104.92556
95.014316
85.59515
76.662615
68.212037
60.240057
52.737826
45.706752
39.15465
33.080821
27.490123
22.395881
17.818803
13.794975
10.378667
7.635763
5.6113383
4.2638047
3.435567
2.9286151
2.5932677
2.3455991
2.14591
1.9764632
1.8286937
1.698427
1.5827826
1.4794983
1.3870794
1.3041102
1.2291124
1.1611622
1.0991999
1.0428026
0.9917537
0.94512928
0.90291808
0.86473974
0.83009117
0.79890161
0.77035415
0.74398887
0.71970849
0.69717335
0.67613066
0.65665716
0.63870715
0.62213906
0.60700852
0.59302381
0.58020567
0.56836626
0.55728977
0.54701436
0.53729552
0.5281019
0.51948259
0.5114183
0.50391094
0.49687887
0.49038826
0.48438052
0.47877145
0.47365122
0.46883083
0.46435527
0.46024187
0.45637248
0.45275709
0.4493985
0.44623217
0.44323351
0.44040382
0.43771578
0.43516995
0.43278594
0.43056526
0.42848186
0.42653472
0.42472042
0.42303179
0.42146918
0.42003515
0.41872128
0.41751919
0.41643701
0.41547194
0.41462373
0.41388688
0.41327382
0.41275584
0.41240863
0.41206588
0.4120534
649.46333
633.107
615.63555
597.34955
578.40717
558.94137
539.08266
518.95782
498.68613
478.37742
458.13061
438.03263
418.15769
398.56703
379.30938
360.42277
341.93637
323.87241
306.24844
289.07759
272.37277
256.14869
240.4173
225.1882
210.46825
196.26157
182.56983
169.39275
156.7285
144.57406
132.92552
121.77841
111.12785
100.96884
91.296381
82.105699
73.392393
65.152824
57.384781
50.080139
43.242519
36.881152
30.995756
25.595186
20.696041
16.324355
12.522428
9.3493247
6.8675811
5.0975811
3.9546716
3.2572545
2.8205294
2.5202698
2.2906996
2.1014747
1.939004
1.7964075
1.6703722
1.5584038
1.4581996
1.3682927
1.2875109
1.2144623
1.1481767
1.0876182
1.0324351
0.98247423
0.9367717
0.89542803
0.85803314
0.82401528
0.79343298
0.76544284
0.73953014
0.71571625
0.69359495
0.67287254
0.6537389
0.63606991
0.61971838
0.60481997
0.59103025
0.57839606
0.56672177
0.5557801
0.54565977
0.53606407
0.52698018
0.51848127
0.51050528
0.50308438
0.49613218
0.48970135
0.48375432
0.47818845
0.47310853
0.46833185
0.46388713
0.45980636
0.45596968
0.45238101
0.44905041
0.44591306
0.44294001
0.44013451
0.43746945
0.43494343
0.43257741
0.43037355
0.42830588
0.42637193
0.42457041
0.42289393
0.42134214
0.4199175
0.41861262
0.41741789
0.41634156
0.41538227
0.41453886
0.41380629
0.41319691
0.41268216
0.41233726
0.41199614
0.41198457
630.48056
613.94621
596.54506
578.49557
559.91439
540.9094
521.59068
502.06634
482.43842
462.80109
443.23961
423.82944
404.6357
385.71288
367.10523
348.84798
330.96873
313.48915
296.42668
279.79415
263.60417
247.87122
232.60696
217.82101
203.52074
189.71116
176.39507
163.57343
151.24565
139.40997
128.06375
117.2037
106.82617
96.927289
87.503207
78.55025
70.06511
62.045295
54.489686
47.39156
40.756988
34.596015
28.909272
23.709997
19.018329
14.865822
11.300738
8.385105
6.1718141
4.6481484
3.6888528
3.1019372
2.723014
2.4519001
2.2379274
2.0581994
1.9023753
1.7648545
1.6430209
1.5347237
1.4376093
1.3502061
1.2715867
1.2004821
1.1358553
1.0766984
1.0227171
0.97381821
0.92902491
0.88853139
0.85188999
0.81846828
0.78844297
0.76098057
0.73550114
0.71212391
0.69039255
0.66996829
0.65114484
0.63373092
0.61756716
0.60287258
0.58926123
0.57679152
0.56526301
0.55444106
0.54445871
0.53497358
0.52598878
0.51759905
0.5097014
0.50235461
0.49547319
0.48909294
0.48319789
0.47766909
0.47262081
0.46788313
0.46346414
0.45940974
0.45560175
0.45203589
0.44872965
0.44561824
0.44266803
0.43988387
0.43723962
0.43473149
0.43238136
0.43019223
0.42813864
0.42621653
0.42442644
0.42276093
0.42121897
0.41980287
0.41850609
0.41731808
0.41624702
0.4152929
0.41445382
0.41372513
0.41311907
0.4126073
0.41226453
0.41192489
0.41191416
609.5423
593.11924
576.0119
558.38522
540.32564
521.91952
503.25821
484.43296
465.53091
446.63319
427.8139
409.13933
390.66736
372.44724
354.51989
336.91862
319.67027
302.79652
286.31511
270.23903
254.58094
239.35541
224.57407
210.24665
196.381
182.98292
170.05627
157.60319
145.62435
134.11929
123.08662
112.52435
102.43005
92.801074
83.63477
74.92863
66.680493
58.889148
51.554195
44.671396
38.249461
32.298332
26.820471
21.833711
17.362264
13.443598
10.131581
7.4881299
5.5482863
4.2590371
3.4613865
2.9662258
2.6342035
2.3870887
2.1865211
2.0154084
1.8658883
1.7332937
1.6155625
1.5108581
1.4167913
1.3318574
1.2553557
1.1861765
1.1231996
1.0654474
1.0126717
0.96482939
0.92095544
0.88131575
0.84544037
0.81263739
0.78316612
0.75624951
0.73122798
0.7082893
0.68696422
0.66685824
0.64835462
0.63121593
0.61525581
0.60077272
0.58735731
0.57506296
0.56368826
0.55299487
0.54315382
0.53378729
0.5249101
0.5166359
0.5088251
0.50155704
0.49475386
0.48843075
0.48259274
0.47710817
0.47209387
0.46740023
0.46301107
0.45898441
0.4552084
0.45166809
0.44838802
0.44530439
0.44237877
0.4396173
0.43699546
0.43450689
0.43217391
0.43000049
0.42796206
0.4260529
0.42427506
0.42262134
0.42109009
0.4196833
0.41839512
0.41721445
0.4161492
0.41520057
0.41436622
0.41364167
0.41303914
0.41253054
0.41218994
0.41185195
0.41184219
587.00552
570.92649
554.29669
537.24158
519.82774
502.12528
484.20982
466.15803
448.04418
429.93842
411.90561
394.00451
376.2872
358.79883
341.57771
324.65585
308.05973
291.81131
275.92887
260.42581
245.31518
230.61188
216.32774
202.47276
189.0553
176.08192
163.55748
151.48526
139.86718
128.70403
117.99576
107.74163
97.940528
88.591069
79.691844
71.24157
63.239331
55.685388
48.579144
41.920814
35.721676
29.989938
24.731838
19.969827
15.73287
12.064723
9.0237548
6.6664303
4.9997473
3.9268996
3.2672834
2.8466683
2.5523921
2.3251688
2.1363
1.9731314
1.8296701
1.7019078
1.5882147
1.4870435
1.3960026
1.3135313
1.2391223
1.1718599
1.1105303
1.054196
1.0026443
0.95585885
0.91291876
0.87413135
0.83901768
0.80684798
0.77791429
0.75154427
0.72699814
0.70448496
0.68356621
0.66378987
0.64559708
0.62873555
0.61298123
0.59869937
0.58548292
0.5733625
0.56213689
0.55157202
0.54186583
0.53261695
0.5238487
0.51568653
0.50796326
0.50077127
0.49404531
0.48777913
0.48199635
0.47655734
0.47157436
0.4669246
0.46256505
0.45856375
0.45481962
0.45130446
0.44804953
0.44499307
0.44209159
0.43935216
0.43675238
0.43428323
0.431967
0.42980873
0.42778516
0.42588885
0.42412297
0.42248084
0.42096022
0.41956269
0.41828292
0.41710958
0.41605012
0.41510684
0.41427715
0.41355669
0.41295759
0.41245212
0.41211361
0.41177728
0.41176852
563.19962
547.65686
531.64806
515.27888
498.60408
481.68209
464.57597
447.35035
430.06874
412.79208
395.57752
378.47758
361.53958
344.80532
328.31103
312.0877
296.16165
280.55518
265.28722
250.3717
235.8222
221.65419
207.87986
194.50965
181.55247
169.01567
156.90506
145.22502
133.97868
123.1681
112.79452
102.85852
93.360271
84.299722
75.676748
67.491339
59.743939
52.436585
45.567468
39.143141
33.177474
27.675114
22.648865
18.125446
14.139391
10.740717
7.9896464
5.9288571
4.5269716
3.6466018
3.1012448
2.7401269
2.4761475
2.2655718
2.0870549
1.9312914
1.793683
1.670664
1.5609391
1.4632247
1.3751689
1.2951481
1.2228028
1.1574346
1.0977353
1.0428242
0.99251901
0.94678891
0.90479389
0.86684978
0.8324868
0.80097307
0.77256655
0.74674303
0.72269617
0.70059625
0.68008542
0.66065942
0.64277119
0.62619344
0.61065767
0.59657205
0.58356206
0.57161942
0.56054231
0.55011092
0.54053679
0.53140824
0.52275472
0.51470364
0.50707235
0.49995808
0.49331165
0.48710597
0.4813797
0.47599067
0.47103924
0.46643516
0.46210714
0.4581308
0.4544202
0.45093144
0.44770186
0.44467316
0.44179645
0.43907957
0.4365024
0.43405339
0.43175437
0.42961153
0.42760319
0.42572024
0.42396659
0.4223364
0.42082682
0.41943892
0.41816771
0.41700201
0.41594862
0.41501078
0.41418594
0.41346967
0.41287407
0.41237179
0.41203537
0.41170079
0.4116931
538.43756
523.59063
508.30208
492.6999
476.82957
460.74045
444.48568
428.12019
411.69873
395.27457
378.89842
362.61758
346.47537
330.51071
314.75805
299.24753
284.0053
269.05397
254.41304
240.09704
226.12015
212.49849
199.24477
186.36998
173.88364
161.79391
150.10751
138.82991
127.9654
117.51729
107.48808
97.879696
88.693621
79.931134
71.593445
63.681857
56.198266
49.146397
42.524592
36.344527
30.622063
25.360667
20.579972
16.311006
12.594685
9.4863575
7.0429445
5.2821616
4.1272886
3.4114735
2.9580721
2.6438807
2.4043066
2.2078578
2.038644
1.8898598
1.7579328
1.6395758
1.5337584
1.4394282
1.35431
1.2767337
1.2064361
1.1429401
1.0848506
1.03137
0.98234802
0.93767773
0.89663993
0.85952957
0.82589925
0.7950685
0.76718439
0.74189975
0.71837729
0.69667792
0.67657054
0.65751781
0.63992487
0.6236322
0.60832909
0.59443156
0.58163078
0.56986758
0.5589356
0.54864163
0.53919531
0.53018744
0.52165327
0.51370963
0.50617285
0.49913713
0.49257029
0.48642736
0.48075722
0.4754211
0.47050066
0.46594229
0.46164676
0.45769434
0.45401793
0.45055609
0.44735129
0.4443503
0.44149842
0.43880416
0.43624963
0.43382093
0.43153919
0.42941167
0.42741852
0.42554912
0.42380771
0.42218953
0.42069111
0.41931298
0.41805033
0.41689239
0.41584518
0.41491277
0.41409282
0.41338078
0.41278864
0.41228956
0.41195518
0.41162239
0.41161582
513.02707
498.96455
484.46853
469.68862
454.66499
439.4406
424.06115
408.57401
393.02688
377.46676
361.93895
346.48632
331.14869
315.96249
300.96054
286.17212
271.62313
257.3364
243.33188
229.62461
216.22939
203.16302
190.43881
178.06833
166.06181
154.42818
143.17511
132.30909
121.83555
111.75901
102.08324
92.811446
83.946467
75.490942
67.447462
59.818706
52.608133
45.820655
39.456637
33.532267
28.063663
23.056265
18.536537
14.540257
11.114958
8.3186953
6.1965588
4.7290793
3.7946324
3.2141254
2.8330346
2.5556795
2.3359612
2.1516927
1.9909682
1.8488233
1.7224234
1.6086411
1.5066767
1.4156616
1.3334185
1.2582774
1.1900211
1.1283729
1.071865
1.0198182
0.97212284
0.9285168
0.88844219
0.85215521
0.81923307
0.78911287
0.76175496
0.73699359
0.7140195
0.69271181
0.67299867
0.65434431
0.6370387
0.62102949
0.60597808
0.59226282
0.5796715
0.56808986
0.55730061
0.54714928
0.53782778
0.52894107
0.52053178
0.5126923
0.5052529
0.49829837
0.49181182
0.48573491
0.48012136
0.47484156
0.46995271
0.46544012
0.46117865
0.45724998
0.45360861
0.45017466
0.4469944
0.44402138
0.44119468
0.43852348
0.4359918
0.43358378
0.43131967
0.42920758
0.42722978
0.42537428
0.42364528
0.42203932
0.42055233
0.41918419
0.41793023
0.41678023
0.41573942
0.4148125
0.41399755
0.4132898
0.41270115
0.41220528
0.41187293
0.41154201
0.41153658
487.22842
473.99785
460.33573
446.40921
432.25448
417.90965
403.4148
388.81145
374.14168
359.44729
344.76905
330.146
315.6149
301.20991
286.9623
272.90043
259.04984
245.4334
232.07136
218.97917
206.17217
193.66781
181.48001
169.62097
158.10163
146.93172
136.11979
125.67336
115.59896
105.90227
96.588308
87.661566
79.126218
70.986301
63.24585
55.909046
48.981133
42.466897
36.371539
30.715606
25.512932
20.774332
16.533107
12.830411
9.7194662
7.2556631
5.4602313
4.267212
3.5203593
3.0472163
2.7220525
2.4737121
2.2704145
2.0968262
1.9439649
1.8081866
1.6871659
1.5778608
1.4797025
1.3919405
1.3124963
1.2397773
1.1735678
1.1137476
1.0587919
1.0081809
0.96185787
0.91932086
0.88020983
0.8447422
0.81250248
0.78311603
0.75629892
0.73203794
0.70963157
0.68871426
0.66938119
0.65114864
0.63412568
0.61839393
0.60361538
0.59007885
0.57769234
0.56629301
0.55564467
0.54564102
0.53644175
0.52767579
0.51939613
0.51165724
0.50431715
0.49744689
0.49104083
0.48503288
0.47947606
0.47425518
0.46939887
0.46493119
0.46070521
0.45680042
0.45319426
0.44978905
0.44663294
0.44368792
0.44088661
0.43823881
0.43573003
0.43334286
0.43109666
0.42900004
0.42703758
0.42519626
0.42347978
0.42188617
0.42041078
0.41905278
0.41780758
0.41666565
0.41563139
0.41471002
0.41390013
0.41319673
0.41261156
0.4121189
0.41178857
0.41145955
0.41145527
461.25229
448.87403
436.06424
423.00339
409.72405
396.26039
382.64808
368.92405
355.12582
341.29094
327.45634
313.65773
299.92918
286.30273
272.80813
259.47276
246.32165
233.37754
220.6608
208.18715
195.97237
184.0345
172.38801
161.04574
150.01933
139.31927
128.95502
118.93505
109.26697
99.957605
91.01316
82.439402
74.241844
66.425938
58.997228
51.961582
45.32647
39.09478
33.279867
27.906247
22.982897
18.530258
14.587783
11.202288
8.4298035
6.3138507
4.838108
3.8890361
3.2944947
2.9040509
2.6217664
2.3965489
2.2071389
2.0430759
1.8976023
1.7679674
1.6521754
1.5472382
1.4528444
1.3682768
1.2915437
1.2212284
1.1570784
1.0990735
1.0456455
0.99647117
0.95155531
0.91008891
0.87193612
0.83729419
0.80571468
0.77707262
0.75082119
0.72703299
0.7052043
0.68468657
0.66571641
0.64792328
0.63118423
0.61572045
0.6012364
0.58787961
0.57568851
0.56447077
0.55396387
0.54411272
0.53503382
0.52638817
0.5182421
0.51060113
0.50336189
0.49657981
0.49025477
0.48431886
0.47881937
0.47365957
0.46883757
0.46441358
0.46022476
0.45634469
0.45277347
0.44939809
0.44626597
0.44334893
0.44057336
0.43794938
0.43546358
0.43309749
0.43086959
0.42878853
0.42684147
0.42501462
0.42331086
0.42172979
0.42026617
0.41891849
0.41768219
0.41654844
0.41552091
0.41460517
0.41380042
0.41310141
0.41251975
0.41203031
0.41170199
0.41137492
0.41137178
435.26832
423.74488
411.78996
399.59314
387.18383
374.59282
361.85225
348.99533
336.05591
323.068
310.06527
297.08059
284.14557
271.29027
258.54296
245.92997
233.47568
221.2025
209.13078
197.27635
185.65529
174.28615
163.18388
152.36192
141.83257
131.60708
121.69575
112.10802
102.85249
93.937099
85.369236
77.155908
69.30396
61.820285
54.711992
47.986779
41.6543
35.717231
30.196071
25.117492
20.489604
16.343113
12.722704
9.6801741
7.2682574
5.5053793
4.3270849
3.5830995
3.1070162
2.7789417
2.5295218
2.3230761
2.1457328
1.9903181
1.8518763
1.728192
1.6174685
1.5167839
1.4261135
1.3446757
1.2705647
1.2026322
1.1405546
1.0843609
1.0324487
0.98471448
0.9412155
0.90081755
0.86361733
0.82982116
0.79888959
0.77098286
0.74532993
0.72198806
0.7007332
0.68063631
0.66201247
0.64466617
0.62822019
0.61301286
0.59884171
0.58567111
0.57366161
0.56262252
0.55226067
0.54256595
0.53360578
0.52508027
0.51707014
0.5095255
0.50238825
0.49569834
0.48945503
0.48359392
0.47815252
0.47305513
0.46826982
0.46388785
0.45973783
0.45588386
0.4523466
0.44900226
0.44589407
0.44300473
0.44025535
0.43765554
0.43519269
0.43284788
0.4306387
0.42857324
0.42664157
0.42482948
0.42313865
0.42157026
0.42011855
0.41878131
0.41755403
0.41642858
0.41540793
0.41449791
0.41369835
0.41300379
0.41242564
0.41193942
0.41161313
0.41128803
0.41128601
409.42125
398.74133
387.63121
376.28579
364.73162
352.99661
341.10992
329.1017
317.00278
304.84422
292.65691
280.47118
268.31645
256.22092
244.21138
232.31303
220.5495
208.94272
197.51283
186.27565
175.24744
164.4471
153.89001
143.59015
133.56043
123.81282
114.35844
105.2076
96.36993
87.854423
79.66961
71.823727
64.324957
57.181671
50.402657
43.997613
37.97782
32.348165
27.135815
22.367032
18.053697
14.236433
10.964354
8.2908475
6.2547491
4.8345034
3.9168062
3.3359792
2.9488607
2.6673375
2.4433033
2.2524407
2.0858805
1.9384862
1.8068073
1.6888872
1.5830568
1.4865179
1.3995243
1.321131
1.2495669
1.1839983
1.1239983
1.0696159
1.0192263
0.97294104
0.93083107
0.8914966
0.85525076
0.82233075
0.79204874
0.76484466
0.73982525
0.71691203
0.69620971
0.67656533
0.65827668
0.64137088
0.62523529
0.61027344
0.59642633
0.58345418
0.5716103
0.56074459
0.55053497
0.54099934
0.53215602
0.52375145
0.51587784
0.50842936
0.50139536
0.49480139
0.48864099
0.48285718
0.47747504
0.47244068
0.46769508
0.46335337
0.45924377
0.45541782
0.45191298
0.4486011
0.44551703
0.44265488
0.43993231
0.43735698
0.43491704
0.43259378
0.43040374
0.42835392
0.42643771
0.42464065
0.42296301
0.42140745
0.41996776
0.4186411
0.417423
0.41630594
0.41529232
0.41438814
0.41359381
0.41290374
0.41232913
0.41184614
0.41152188
0.41119877
0.41119783
383.83573
373.97748
363.69211
353.17659
342.45495
331.55259
320.49613
309.31317
298.03196
286.68102
275.28883
263.88348
252.49233
241.14182
229.85726
218.66269
207.58086
196.63311
185.83922
175.21486
164.77635
154.54284
144.53004
134.75239
125.22336
115.95559
106.96097
98.250696
89.835327
81.72491
73.929095
66.457332
59.319144
52.524456
46.083951
40.009626
34.312677
29.004368
24.118411
19.676778
15.700501
12.238683
9.3431539
7.0610584
5.4023731
4.2953829
3.5915479
3.1343073
2.8125269
2.5657655
2.3616318
2.1840174
2.027332
1.8875689
1.7624296
1.6500671
1.5489381
1.4564747
1.373095
1.2976225
1.228563
1.165345
1.1074182
1.0548396
1.0059992
0.96118027
0.92039253
0.88211789
0.84684336
0.81482916
0.7852127
0.75865991
0.73430289
0.71181755
0.69162861
0.67247369
0.65451967
0.63803338
0.62223173
0.60750805
0.59398508
0.58122826
0.56953568
0.55883597
0.54878844
0.53941316
0.53068407
0.52240252
0.51466416
0.50731297
0.50038404
0.49388905
0.48781313
0.48210874
0.47678734
0.47181592
0.46711355
0.46281039
0.4587426
0.45494696
0.45147254
0.44819471
0.44513513
0.44229929
0.43960441
0.43705372
0.43463655
0.43233526
0.43016473
0.42813058
0.42622989
0.42444814
0.42278395
0.42124136
0.41981379
0.41849782
0.41728902
0.41618042
0.41517401
0.41427577
0.41348671
0.41280118
0.41223012
0.41175037
0.41142817
0.41110704
0.41110714
358.61852
349.55214
340.06366
330.3496
320.43181
310.33347
300.07904
289.69388
279.20401
268.63573
258.01535
247.36887
236.72175
226.09872
215.52362
205.01928
194.60747
184.30886
174.14274
164.12454
154.27051
144.59994
135.12879
125.87187
116.84317
108.05594
99.522813
91.255802
83.266406
75.56569
68.16441
61.073223
54.302996
47.865286
41.77299
36.041012
30.677859
25.707548
21.167728
17.073257
13.46058
10.383395
7.8916643
6.0128479
4.712778
3.8725401
3.3332773
2.9663151
2.692286
2.4716333
2.283419
2.1174032
1.9699254
1.8375967
1.7187704
1.6117237
1.5150921
1.4267079
1.3468413
1.2741173
1.2075646
1.1466939
1.0908359
1.040027
0.99277922
0.949451
0.90989516
0.87268442
0.83841362
0.80731544
0.77839047
0.75243556
0.72875304
0.70671664
0.68698898
0.66835672
0.65075094
0.63465118
0.61920875
0.60472251
0.59151051
0.57898803
0.56743908
0.55689674
0.54702163
0.53780678
0.52918851
0.52103322
0.51342749
0.50617566
0.49935467
0.49296074
0.48697126
0.4813481
0.47608925
0.47118021
0.46652485
0.46225893
0.458234
0.45447119
0.45102502
0.4477829
0.44474835
0.44193767
0.43927157
0.4367456
0.43435101
0.43207225
0.42992152
0.42790306
0.42601804
0.42425183
0.4226014
0.42107192
0.41965655
0.41835137
0.41715198
0.41605194
0.41505288
0.4141607
0.41337696
0.412696
0.41212851
0.41165201
0.41133189
0.41101274
0.41101382
333.85882
325.54908
316.82409
307.87811
298.73107
289.40428
279.92029
270.30251
260.57497
250.76193
240.88769
230.9763
221.05139
211.13602
201.25257
191.42261
181.66691
172.00533
162.45664
153.03591
143.75927
134.64599
125.71223
116.97312
108.44308
100.13595
92.065039
84.24317
76.68276
69.395888
62.394426
55.690243
49.295564
43.223665
37.48994
32.111842
27.098743
22.486151
18.310807
14.589219
11.370584
8.7081397
6.6402477
5.1571056
4.1739134
3.5442765
3.1247421
2.8226896
2.5839799
2.3829048
2.2078168
2.0524404
1.9136521
1.7886008
1.6758275
1.5738368
1.4814954
1.3972826
1.3207451
1.250582
1.1865749
1.1280662
1.0742886
1.0251707
0.97957184
0.93775515
0.8993467
0.86322031
0.82998942
0.79977843
0.77157405
0.74618709
0.72316354
0.70161772
0.68229864
0.66420669
0.64697738
0.6312263
0.61616356
0.60192243
0.58899588
0.5767249
0.56532355
0.55492991
0.54523444
0.53617971
0.52766861
0.51964326
0.51216688
0.50501709
0.49830801
0.49201634
0.4861155
0.48057506
0.47538082
0.47053337
0.46592881
0.46169936
0.45771788
0.45399042
0.45057051
0.44736559
0.44435672
0.44156993
0.43893385
0.43643253
0.43406028
0.43180482
0.42967402
0.4276713
0.42580219
0.42405166
0.42241533
0.4208991
0.41949599
0.4182017
0.41701181
0.41592041
0.41492885
0.41404285
0.41326445
0.41258811
0.41202419
0.41155096
0.41123293
0.41091576
0.41091776
309.63082
302.03908
294.04046
285.82579
277.41344
268.82311
260.07569
251.19286
242.19678
233.10982
223.95434
214.75252
205.52622
196.29687
187.08535
177.91202
168.79656
159.75803
150.81456
141.98085
133.2728
124.70962
116.30757
108.08204
100.04784
92.219351
84.610532
77.235003
70.106091
63.236915
56.6405
50.329982
44.319016
38.622798
33.25956
28.247602
23.603498
19.372257
15.583823
12.265357
9.4728465
7.250765
5.6095096
4.4879879
3.762304
3.2875181
2.9518535
2.696501
2.4841467
2.297928
2.1343341
1.9892466
1.8586656
1.7405615
1.6335701
1.5364143
1.4481637
1.3681877
1.2947396
1.2270328
1.1656068
1.1094907
1.0578041
1.0102734
0.9663877
0.9260766
0.88876508
0.85377021
0.82159759
0.79219911
0.76474325
0.73993671
0.71752215
0.69651998
0.67757489
0.66001364
0.64320017
0.62776506
0.61309074
0.59911098
0.58643642
0.57442799
0.5631926
0.55294034
0.54342488
0.53453045
0.52612412
0.5182316
0.51088149
0.50383682
0.49724445
0.49105556
0.48524575
0.47978924
0.47466188
0.46987534
0.46532505
0.46113202
0.45719405
0.45350436
0.45010923
0.44694254
0.44396011
0.44119601
0.43859117
0.43611435
0.43376424
0.43153298
0.42942203
0.42743523
0.42558234
0.42384755
0.4222257
0.42072287
0.41933206
0.41804872
0.41686839
0.41578572
0.41480182
0.41392211
0.41314909
0.4124774
0.41191707
0.41144712
0.4111312
0.41081598
0.41081886
285.99732
279.08248
271.77051
264.24814
256.53251
248.64199
240.59597
232.41448
224.11788
215.7267
207.26142
198.7424
190.18974
181.62326
173.06245
164.52637
156.03368
147.60257
139.25053
130.99184
122.84215
114.82052
106.94328
99.225996
91.683859
84.331735
77.184229
70.255749
63.560561
57.112872
50.926949
45.0173
39.399168
34.090051
29.111361
24.479312
20.228217
16.405284
13.030631
10.149215
7.8123641
6.0414627
4.801417
3.9824051
3.4491457
3.0817184
2.8064618
2.5818195
2.3865694
2.2159349
2.0642077
1.9281243
1.805076
1.6934161
1.5919649
1.4996344
1.4155417
1.3387949
1.2683439
1.2038533
1.1447965
1.0909945
1.041355
0.99538236
0.95325352
0.91438516
0.87816637
0.84438096
0.81324816
0.78456643
0.7578869
0.73370354
0.71181962
0.69141184
0.67284058
0.65576813
0.63941418
0.624277
0.6099833
0.59628863
0.58383171
0.57208753
0.56104925
0.55093356
0.54158926
0.5328565
0.52455595
0.51679714
0.50957088
0.50263507
0.49616413
0.49007833
0.48436206
0.47899041
0.47393232
0.46920634
0.46471319
0.46055727
0.4566625
0.45301271
0.44964161
0.4465134
0.44355829
0.44081612
0.43824341
0.43579088
0.43346287
0.43125678
0.42916538
0.42719484
0.42535852
0.42363942
0.4220325
0.42054319
0.41916471
0.41789238
0.41672165
0.41564781
0.4146717
0.41379839
0.41303079
0.41236377
0.41180705
0.41134038
0.41102659
0.41071329
0.41071701
263.00943
256.72946
250.06309
243.19306
236.1356
228.90782
221.52766
214.01349
206.38391
198.65759
190.85317
182.98921
175.08416
167.15628
159.22365
151.30414
143.41539
135.57474
127.79902
120.10209
112.49934
105.00963
97.649276
90.434056
83.37947
76.500866
69.81349
63.332553
57.073312
51.051163
45.281754
39.781159
34.566517
29.658214
25.078802
20.849015
17.020388
13.630673
10.703584
8.2926074
6.4286827
5.091261
4.1946353
3.606379
3.2066131
2.9129298
2.6759497
2.4721194
2.2951152
2.1377264
1.9963052
1.8685682
1.7526382
1.647137
1.550982
1.4632259
1.3830659
1.3097664
1.242498
1.1807364
1.124168
1.0722916
1.0246167
0.98072716
0.94025174
0.90266812
0.86757247
0.83507358
0.80491948
0.77689683
0.75102325
0.72748708
0.70605671
0.68627766
0.66811194
0.65146521
0.63560901
0.62076996
0.60683334
0.59345395
0.58118637
0.56969814
0.55889388
0.54891318
0.53972301
0.5311538
0.52296568
0.51533907
0.50823478
0.50141289
0.49506675
0.48908448
0.48346457
0.47817837
0.47319203
0.46852673
0.46409278
0.45997539
0.45612327
0.45251511
0.44916817
0.44607766
0.44315099
0.44043064
0.4378903
0.43546191
0.43315628
0.43097618
0.42890384
0.42695014
0.42513077
0.42342719
0.42183573
0.42036003
0.41899391
0.41773262
0.4165715
0.41550659
0.41453839
0.41367159
0.41290946
0.41224714
0.41169402
0.41123065
0.41091899
0.4106076
0.4106121
240.70787
235.02118
228.96
222.70288
216.2656
209.664
202.91448
196.03372
189.03854
181.94579
174.77233
167.53501
160.25067
152.93614
145.60819
138.28353
130.97882
123.71059
116.49504
109.34565
102.27752
95.30926
88.457209
81.737288
75.165323
68.757139
62.528638
56.495885
50.675218
45.083372
39.737606
34.65588
29.857796
25.367873
21.205218
17.406622
14.033698
11.106857
8.6624456
6.7437289
5.3421419
4.382971
3.7498622
3.3245682
3.0140216
2.7640589
2.5531283
2.3704701
2.2083216
2.062434
1.9304103
1.8105436
1.701367
1.6017088
1.5106174
1.4272675
1.350944
1.2809782
1.2167235
1.1577264
1.1035868
1.0539236
1.0082168
0.96601553
0.92703645
0.89080783
0.85713984
0.82585845
0.79656885
0.76923335
0.74418753
0.72126026
0.70025679
0.68111101
0.66338548
0.64711065
0.63177073
0.61724334
0.60363362
0.59060539
0.57851014
0.56726145
0.55672184
0.5468788
0.53782301
0.52941726
0.52135477
0.51385772
0.50687343
0.50017237
0.49395176
0.48807389
0.48255362
0.47735304
0.47244095
0.46783688
0.46346333
0.45938657
0.45557658
0.45201125
0.44868943
0.4456348
0.44273795
0.44004009
0.43753151
0.43512727
0.43284472
0.43069106
0.42863722
0.42670125
0.42489909
0.42321081
0.42163542
0.42017336
0.41881962
0.41756937
0.41641788
0.41536198
0.4144018
0.41354163
0.41278499
0.41212741
0.41157791
0.41111783
0.41080829
0.41049878
0.41050404
219.13439
213.99828
208.50281
202.81958
196.9648
190.95303
184.79903
178.51773
172.12412
165.63329
159.06039
152.42068
145.72952
139.00238
132.25482
125.50252
118.76119
112.04662
105.37439
98.75766
92.211256
85.753538
79.400841
73.169259
67.074947
61.134238
55.363742
49.780463
44.401959
39.246541
34.333433
29.682972
25.317841
21.266407
17.548109
14.217431
11.330052
8.8995928
6.9643845
5.5313724
4.5395211
3.8729905
3.4276167
3.1043181
2.8448545
2.6284052
2.441086
2.2748802
2.1253114
1.9897408
1.8664218
1.753976
1.6512066
1.5571147
1.4708697
1.3917572
1.319152
1.2524816
1.1912044
1.1348809
1.0831381
1.0355769
0.99179139
0.95139577
0.91402073
0.87926119
0.84679016
0.81641872
0.78802416
0.76165916
0.73741754
0.71499641
0.69446743
0.67591678
0.65864182
0.64272484
0.62788093
0.61368585
0.60038189
0.58773891
0.57581678
0.56478619
0.55452091
0.54482519
0.53589053
0.52764202
0.51972319
0.51235479
0.50548796
0.49891627
0.49281852
0.48704648
0.48162963
0.47651449
0.47167906
0.46713705
0.4628244
0.45879092
0.45502274
0.45150081
0.44820571
0.44518442
0.44231901
0.43964499
0.4371666
0.43478685
0.43252854
0.43040116
0.42836539
0.42644832
0.42466343
0.42299031
0.42143159
0.41998312
0.41864183
0.41740259
0.41626072
0.41521392
0.41426184
0.41340842
0.4126573
0.41200449
0.41145862
0.41100182
0.4106944
0.41038673
0.41039271
198.32548
193.69697
188.72898
183.58265
178.27362
172.81573
167.22227
161.5064
155.68134