/*--------------------------------*- C++ -*----------------------------------*\
| =========                 |                                                 |
| \\      /  F ield         | OpenFOAM: The Open Source CFD Toolbox           |
|  \\    /   O peration     | Version:  2406                                  |
|   \\  /    A nd           | Website:  www.openfoam.com                      |
|    \\/     M anipulation  |                                                 |
\*---------------------------------------------------------------------------*/
FoamFile
{
    version     2.0;
    format      ascii;
    arch        "LSB;label=32;scalar=64";
    class       volScalarField;
    location    "0.019";
    object      alphat;
}
// * * * * * * * * * * * * * * * * * * * * * * * * * * * * * * * * * * * * * //

dimensions      [1 -1 -1 0 0 0 0];

internalField   nonuniform List<scalar> 
23203
(
0.0024598863
0.0025397588
0.0025986245
0.0026492854
0.0026945856
0.0027275157
0.0027566366
0.0027902551
0.0028140431
0.0028359988
0.0028585579
0.002871567
0.0028775368
0.0028826865
0.0028839504
0.0028805398
0.0028764207
0.0028680252
0.0028560948
0.0025336229
0.0025953354
0.0026431497
0.0026741594
0.0027130617
0.0027404703
0.002764237
0.0027964794
0.0028177348
0.0028376359
0.0028590634
0.0028692138
0.0028740256
0.0028810299
0.002882965
0.0028792792
0.0028771299
0.002869956
0.002858584
0.00256429
0.0026169131
0.0026605108
0.0026943427
0.0027218259
0.0027503231
0.0027819806
0.0028054087
0.0028207023
0.0028416731
0.0028611555
0.0028686842
0.0028737117
0.0028836027
0.0028853979
0.0028808985
0.0028809774
0.0028748558
0.0028638173
0.0025913322
0.0026410887
0.00268135
0.0027111435
0.0027372431
0.0027622473
0.0027856149
0.0028088523
0.0028305415
0.0028469392
0.0028604387
0.0028684457
0.0028750681
0.0028863267
0.0028868189
0.0028819931
0.0028841427
0.0028786398
0.0028682148
0.0026139464
0.0026603324
0.0026974129
0.0027251054
0.0027488455
0.0027716242
0.0027936105
0.0028141989
0.0028321374
0.0028470838
0.0028603389
0.0028724294
0.0028814304
0.0028879133
0.002887487
0.0028856313
0.0028882246
0.002882277
0.0028734813
0.0026352492
0.0026787324
0.002712614
0.0027375592
0.0027589816
0.0027794378
0.0027993099
0.0028182328
0.002835532
0.0028506881
0.0028636747
0.0028742261
0.0028816654
0.0028864307
0.0028907702
0.0028940421
0.0028921838
0.002885275
0.0028796653
0.0026541104
0.0026946224
0.0027256015
0.002748263
0.0027677441
0.0027864771
0.0028047864
0.002822277
0.0028385063
0.0028531187
0.0028658042
0.0028762747
0.0028844344
0.0028904808
0.0028940766
0.002894886
0.0028943242
0.0028927668
0.0028879309
0.002671176
0.0027089775
0.0027372392
0.0027577202
0.0027753983
0.0027925604
0.0028095508
0.0028260899
0.0028417327
0.00285598
0.002868416
0.0028787997
0.0028870309
0.0028931528
0.0028972946
0.0028994411
0.0028997239
0.0028978503
0.0028921666
0.0026866025
0.0027217222
0.002747511
0.0027661563
0.00278238
0.0027983166
0.0028143019
0.0028300417
0.0028450889
0.0028589787
0.0028713049
0.0028817913
0.0028903012
0.0028967689
0.0029012003
0.002903707
0.0029043924
0.0029031691
0.0028988963
0.0027006832
0.0027332883
0.0027568798
0.0027739523
0.0027889559
0.0028038877
0.0028190729
0.0028342341
0.0028489126
0.0028626037
0.0028748715
0.0028854199
0.0028940954
0.0029008516
0.0029056889
0.0029086275
0.0029097134
0.0029088796
0.002904946
0.0027135845
0.002743865
0.002765564
0.0027813874
0.0027954843
0.0028097016
0.0028243406
0.0028391084
0.002853523
0.0028670714
0.0028793128
0.0028899341
0.0028987459
0.0029056529
0.0029106423
0.0029137722
0.0029151244
0.0029146509
0.0029111412
0.0027254839
0.0027537394
0.0027738946
0.0027887881
0.002802259
0.0028160056
0.0028302973
0.0028448244
0.0028590803
0.0028725263
0.0028847006
0.0028952732
0.0029040483
0.0029109403
0.0029159418
0.0029191041
0.002920521
0.0029201856
0.0029169419
0.0027367509
0.002763194
0.0027820861
0.0027963196
0.0028094125
0.0028229057
0.0028370202
0.0028514107
0.0028655341
0.002878828
0.0028908215
0.0029011848
0.0029097273
0.0029163741
0.0029211464
0.0029241478
0.0029255302
0.0029253233
0.0029223836
0.0027475571
0.0027722854
0.0027901176
0.0028038932
0.0028167895
0.0028301766
0.002844207
0.0028584859
0.0028724293
0.0028854546
0.0028970929
0.0029070347
0.0029151254
0.0029213399
0.0029257557
0.0029285298
0.002929861
0.0029298233
0.0029273093
0.0027574465
0.0027806897
0.0027976732
0.0028111425
0.0028239488
0.0028372915
0.002851242
0.0028653474
0.0028789876
0.0028915762
0.0029026725
0.0029120182
0.0029195228
0.0029252302
0.0029292868
0.0029319123
0.0029333549
0.0029337121
0.0029318715
0.0027663865
0.0027882183
0.0028044042
0.0028175729
0.0028302649
0.0028435057
0.002857277
0.0028710712
0.002884249
0.0028962473
0.0029066838
0.0029153783
0.0029223245
0.0029276455
0.0029315526
0.0029343092
0.002936181
0.0029372579
0.0029363966
0.0027741189
0.002794415
0.0028097331
0.0028225177
0.0028349925
0.0028480065
0.0028614563
0.0028747988
0.0028874067
0.0028987734
0.0029086009
0.0029168004
0.0029234476
0.0029287271
0.0029328863
0.002936197
0.0029389075
0.0029410657
0.0029414646
0.0027794793
0.0027984537
0.002812994
0.0028253665
0.0028375352
0.0028502157
0.0028632559
0.002876115
0.0028882133
0.002899124
0.0029086385
0.0029167444
0.0029235685
0.0029293168
0.0029342287
0.0029385435
0.0029424576
0.0029459529
0.0029477456
0.0027828857
0.0028005365
0.0028142566
0.002826119
0.0028378972
0.0028502235
0.0028629277
0.002875494
0.0028874007
0.0028982931
0.0029080222
0.0029166075
0.002924175
0.0029309026
0.0029369821
0.0029425937
0.00294787
0.0029527281
0.0029558143
0.0027851027
0.002801165
0.0028140353
0.0028254607
0.0028370071
0.0028492346
0.0028619621
0.0028746974
0.0028869585
0.002898423
0.0029089483
0.0029185298
0.0029272466
0.0029352184
0.0029425779
0.0029494513
0.0029559257
0.002961878
0.0029659083
0.0027876311
0.002802208
0.0028145367
0.002825954
0.0028377269
0.0028503251
0.002863556
0.0028769443
0.0028900186
0.0029024424
0.0029140318
0.0029247248
0.0029345419
0.0029435549
0.0029518633
0.0029595745
0.0029667673
0.002973312
0.0029777848
0.0027967112
0.0028097657
0.0028215594
0.0028330659
0.002845163
0.0028582116
0.0028719854
0.0028859936
0.0028997422
0.0029128539
0.0029250932
0.0029363532
0.0029466287
0.0029559876
0.0029645411
0.0029724164
0.0029797119
0.0029863059
0.0029907544
0.0028171623
0.0028296375
0.0028411089
0.0028522866
0.0028639341
0.002876557
0.0028899769
0.0029036689
0.002917086
0.0029298164
0.0029416121
0.0029523737
0.0029621217
0.0029709589
0.0029790304
0.0029864874
0.0029934376
0.0029997488
0.0030039373
0.0028491727
0.0028596899
0.0028706349
0.0028811995
0.0028917169
0.002902835
0.0029146168
0.002926668
0.0029384569
0.0029495907
0.0029598734
0.0029692669
0.0029778399
0.0029857218
0.0029930603
0.002999987
0.003006575
0.0030126441
0.0030166516
0.0028698806
0.0028801371
0.0028907033
0.002901638
0.0029129973
0.0029241098
0.0029349664
0.002945596
0.0029558029
0.0029653951
0.0029743204
0.0029826368
0.0029904468
0.00299786
0.0030049695
0.003011838
0.0030184718
0.003024632
0.0030287347
0.0028629976
0.002880888
0.0028920563
0.0029026013
0.0029149178
0.0029280786
0.0029406789
0.002952292
0.0029629769
0.0029728547
0.0029820906
0.0029908481
0.0029992328
0.0030072977
0.00301506
0.003022517
0.0030296385
0.003036175
0.0030405671
0.0028657891
0.0028797374
0.0028942121
0.002905357
0.0029151192
0.0029272329
0.002940505
0.0029535351
0.0029657568
0.0029771104
0.0029878172
0.0029980376
0.0030077899
0.0030170291
0.0030257091
0.0030338141
0.0030413505
0.0030481339
0.0030526978
0.0029067456
0.0029117409
0.0029176935
0.002928779
0.0029389227
0.0029474011
0.0029573353
0.0029681171
0.002979135
0.0029899697
0.0030006883
0.0030111813
0.003021217
0.003030594
0.0030392196
0.0030471114
0.0030543599
0.003060872
0.0030652755
0.0029309301
0.002940097
0.0029488605
0.0029544478
0.0029688252
0.0029796167
0.0029884679
0.0029966074
0.0030048122
0.0030131634
0.0030220411
0.0030309548
0.0030394866
0.0030473931
0.0030546481
0.0030613629
0.003067715
0.0030736516
0.0030778124
0.0029358367
0.002944772
0.0029594623
0.0029693037
0.0029782575
0.0029961949
0.0030094897
0.003018423
0.003025847
0.003032858
0.003040709
0.0030482802
0.0030552712
0.0030616439
0.0030676103
0.0030734398
0.0030793707
0.0030853005
0.0030897747
0.0029461681
0.0029552023
0.0029610923
0.0029743484
0.0029816759
0.0029925022
0.0030095744
0.0030247529
0.0030335265
0.0030399049
0.0030477029
0.0030551515
0.003062184
0.0030687907
0.0030752577
0.0030818947
0.0030889053
0.0030960432
0.0031017015
0.002958679
0.0029657066
0.0029733542
0.0029785564
0.0029898148
0.0029956548
0.0030043116
0.0030192079
0.0030329489
0.0030418819
0.0030494286
0.003056912
0.0030648838
0.0030731561
0.0030816719
0.0030904725
0.0030995645
0.0031084806
0.0031154698
0.0029744632
0.0029814105
0.0029890753
0.0029964601
0.0030021411
0.0030135495
0.0030209412
0.0030310703
0.0030390333
0.0030526398
0.0030615414
0.0030692792
0.0030772493
0.0030860992
0.0030956938
0.0031057257
0.0031158846
0.0031254214
0.0031324613
0.0029926445
0.0029997288
0.0030075279
0.0030156604
0.0030239765
0.0030313094
0.0030458551
0.0030550136
0.0030654322
0.0030766478
0.003085675
0.0030950346
0.0031032438
0.0031110957
0.0031194503
0.0031283211
0.0031373292
0.0031454641
0.0031507024
0.003011486
0.0030186434
0.0030266037
0.0030347797
0.0030431179
0.0030512886
0.0030611819
0.0030683597
0.0030884305
0.0030999911
0.0031088679
0.0031177077
0.0031258834
0.0031336184
0.0031409819
0.003148389
0.0031557813
0.0031620496
0.0031649455
0.0030309371
0.0030379771
0.0030458692
0.0030539656
0.0030622355
0.0030695441
0.0030746467
0.003082877
0.0030897178
0.0031009865
0.0031167979
0.0031254228
0.0031324724
0.0031404425
0.0031487063
0.003156934
0.0031646488
0.0031706529
0.003172158
0.0030508412
0.0030576727
0.0030653795
0.003073303
0.0030815513
0.0030894084
0.0030939388
0.0031013196
0.0031042285
0.0031099177
0.0031182988
0.0031307632
0.0031404949
0.0031462636
0.0031531005
0.0031615548
0.0031698687
0.0031764175
0.0030710735
0.0030775476
0.0030848459
0.0030922852
0.0031000643
0.0031080254
0.0031157829
0.0031213619
0.0031288092
0.0031339635
0.0031374224
0.0031431503
0.0031541907
0.0031652523
0.0031702125
0.0031761333
0.0031825715
0.003188531
0.0030917707
0.0030977974
0.003104557
0.0031113213
0.0031182627
0.0031253161
0.0031322024
0.0031388427
0.0031452106
0.0031507869
0.0031592965
0.0031640205
0.003169044
0.003179313
0.0031917948
0.0031988536
0.0032034096
0.0032078317
0.0031132095
0.0031188663
0.0031252117
0.0031315126
0.003137962
0.0031445352
0.0031510551
0.0031572472
0.0031630817
0.0031702653
0.0031743759
0.0031833792
0.0031895488
0.0031945367
0.0032032464
0.0032164117
0.0032260074
0.003230582
0.0031352417
0.0031405894
0.0031465854
0.0031525011
0.0031585486
0.0031647354
0.0031709366
0.0031770327
0.0031830023
0.0031888646
0.0031955678
0.0032005238
0.0032093318
0.0032147417
0.0032201836
0.0032286638
0.0032410279
0.0032510088
0.0031575992
0.0031626933
0.0031683863
0.0031739534
0.0031796222
0.0031854275
0.0031912939
0.0031971729
0.0032030988
0.003209184
0.0032153036
0.0032218287
0.0032273152
0.0032341783
0.0032445117
0.0032518643
0.0032625827
0.0032686377
0.0031800254
0.0031849237
0.0031903643
0.0031956277
0.0032009539
0.0032063997
0.0032119184
0.0032174853
0.0032231338
0.003228937
0.0032350094
0.0032411068
0.0032470026
0.0032546912
0.0032617898
0.0032737421
0.0032855173
0.0032918681
0.0032023964
0.0032071308
0.0032123455
0.003217326
0.0032223202
0.0032274025
0.0032325507
0.0032377614
0.0032430761
0.0032485585
0.0032542523
0.0032602095
0.0032664916
0.0032731819
0.0032807279
0.0032902016
0.0032981712
0.0033145438
0.0032248657
0.0032294444
0.003234444
0.0032391553
0.0032438313
0.0032485593
0.0032533383
0.0032581867
0.0032631612
0.0032683302
0.0032737504
0.0032794539
0.0032854773
0.0032917034
0.0032969224
0.0033038427
0.0033078253
0.0033165883
0.0032477904
0.0032521997
0.0032569784
0.0032614243
0.0032657931
0.0032701821
0.0032746091
0.0032791156
0.0032837808
0.0032886921
0.0032939219
0.0032995254
0.0033055133
0.0033116666
0.0033172908
0.0033210159
0.0033268802
0.0033294983
0.0032715549
0.003275774
0.0032803192
0.0032844974
0.003288565
0.0032926256
0.0032967111
0.0033008823
0.0033052399
0.0033098947
0.0033149461
0.0033204832
0.0033266058
0.0033333994
0.0033406356
0.0033471365
0.0033543085
0.0033600723
0.0032963666
0.0033003837
0.0033046871
0.0033085957
0.0033123655
0.0033161029
0.0033198476
0.0033236709
0.0033276825
0.0033319994
0.0033367194
0.0033419141
0.0033476333
0.0033539003
0.0033606864
0.0033680565
0.0033760883
0.0033822296
0.0033221936
0.0033260152
0.0033300833
0.003333733
0.0033372205
0.0033406552
0.0033440835
0.0033475841
0.0033512744
0.0033552798
0.003359709
0.0033646462
0.0033701584
0.0033763076
0.0033831502
0.0033906261
0.0033982119
0.0034046891
0.0033488758
0.003352518
0.003356365
0.0033597719
0.0033629974
0.0033661545
0.0033692954
0.0033725039
0.0033759008
0.0033796158
0.0033837649
0.0033884437
0.0033937341
0.0033997131
0.0034064374
0.0034138443
0.0034214734
0.003427866
0.0033763532
0.0033798267
0.0033834635
0.0033866419
0.0033896247
0.0033925295
0.0033954137
0.0033983635
0.0034014996
0.0034049504
0.0034088319
0.0034132431
0.00341827
0.003423989
0.0034304434
0.0034375419
0.0034448004
0.0034509133
0.0034048334
0.0034081337
0.00341156
0.0034145161
0.0034172699
0.0034199443
0.003422602
0.0034253322
0.0034282557
0.0034315005
0.0034351848
0.0034394148
0.0034442897
0.0034499028
0.0034563111
0.0034634311
0.0034707954
0.0034771326
0.0034347991
0.0034379055
0.003441108
0.0034438366
0.0034463637
0.0034488167
0.0034512623
0.0034537917
0.0034565252
0.003459589
0.0034631004
0.0034671676
0.0034718967
0.003477391
0.0034837195
0.0034908109
0.0034982159
0.0035047182
0.0034668694
0.0034697529
0.0034727117
0.0034752015
0.0034774982
0.0034797315
0.003481971
0.0034843091
0.0034868651
0.0034897627
0.0034931165
0.0034970322
0.0035016142
0.0035069635
0.0035131433
0.0035200686
0.00352727
0.0035335206
0.0035015961
0.0035042292
0.0035069256
0.003509166
0.0035112275
0.0035132404
0.0035152756
0.0035174257
0.0035198086
0.0035225458
0.0035257485
0.0035295187
0.0035339552
0.0035391515
0.0035451586
0.0035518732
0.0035588047
0.0035647228
0.0035392803
0.0035416472
0.003544072
0.0035460597
0.0035478866
0.0035496824
0.0035515177
0.0035534843
0.0035556985
0.0035582797
0.0035613364
0.0035649667
0.0035692636
0.0035743111
0.0035801464
0.0035866492
0.0035933179
0.0035989429
0.0035798816
0.0035819829
0.0035841397
0.0035858807
0.0035874807
0.0035890672
0.0035907097
0.0035924981
0.0035945465
0.003596972
0.0035998807
0.0036033671
0.0036075178
0.0036124056
0.0036180496
0.0036243068
0.0036306586
0.0036359133
0.0036230758
0.0036249272
0.0036268317
0.0036283418
0.0036297299
0.0036311211
0.003632583
0.003634203
0.0036360924
0.0036383657
0.003641127
0.0036444677
0.0036484685
0.003653191
0.0036586369
0.0036646413
0.0036706727
0.0036755658
0.0036684286
0.003670054
0.0036717286
0.0036730286
0.0036742245
0.0036754384
0.0036767357
0.0036782009
0.0036799419
0.0036820706
0.003684689
0.0036878859
0.0036917367
0.003696293
0.0037015403
0.0037072938
0.0037130135
0.0037175664
0.0037156264
0.0037170484
0.0037185153
0.0037196272
0.0037206519
0.0037217088
0.0037228605
0.0037241878
0.0037257947
0.0037277896
0.003730272
0.0037333277
0.003737027
0.0037414119
0.0037464529
0.0037519486
0.0037573536
0.003761571
0.0037646482
0.0037658796
0.003767155
0.0037680971
0.0037689709
0.0037698921
0.0037709197
0.0037721298
0.0037736211
0.0037754978
0.0037778559
0.0037807777
0.0037843279
0.0037885392
0.0037933685
0.0037985998
0.003803686
0.003807568
0.0038157704
0.0038168125
0.0038179045
0.0038186911
0.0038194328
0.0038202403
0.0038211674
0.0038222837
0.0038236814
0.0038254587
0.0038277071
0.0038305042
0.0038339084
0.0038379432
0.0038425528
0.0038475099
0.00385227
0.0038558147
0.0038693056
0.0038701558
0.003871071
0.0038717165
0.0038723467
0.0038730653
0.0038739189
0.0038749688
0.0038762984
0.0038779987
0.0038801547
0.003882838
0.0038861
0.0038899547
0.0038943355
0.0038990072
0.0039034346
0.0039066475
0.0039251169
0.0039257853
0.0039265404
0.0039270684
0.0039276152
0.0039282758
0.0039290877
0.0039301019
0.0039313916
0.0039330383
0.0039351189
0.0039376973
0.0039408168
0.0039444821
0.0039486181
0.0039529881
0.0039570765
0.0039599754
0.0039821089
0.0039826339
0.0039832675
0.0039837183
0.0039842224
0.003984865
0.0039856734
0.0039866873
0.0039879682
0.0039895862
0.0039916085
0.0039940898
0.0039970644
0.0040005285
0.0040044019
0.0040084553
0.0040122074
0.0040148331
0.0040379832
0.0040384376
0.0040390133
0.0040394454
0.00403996
0.0040406323
0.0040414799
0.0040425311
0.0040438346
0.0040454486
0.0040474284
0.0040498185
0.0040526438
0.0040558935
0.0040594872
0.0040632128
0.0040666411
0.0040690524
0.0040894844
0.0040899671
0.004090567
0.0040910507
0.0040916354
0.0040923882
0.0040933183
0.0040944437
0.0040958008
0.0040974348
0.004099389
0.0041016968
0.0041043738
0.0041074043
0.0041107127
0.0041141141
0.0041172462
0.0041195135
0.0041331807
0.0041337957
0.0041345038
0.0041351078
0.0041358183
0.0041366968
0.0041377471
0.0041389787
0.0041404168
0.0041420942
0.0041440419
0.0041462828
0.0041488241
0.0041516472
0.0041546857
0.0041577882
0.004160668
0.0041628615
0.0041665744
0.0041674029
0.004168284
0.0041690597
0.0041699361
0.0041709725
0.0041721696
0.004173531
0.0041750724
0.0041768156
0.0041787804
0.0041809801
0.0041834151
0.0041860656
0.0041888761
0.0041917298
0.004194414
0.0041965898
0.0041890423
0.0041901196
0.0041912033
0.004192173
0.004193232
0.0041944392
0.0041957947
0.0041972979
0.0041989576
0.004200786
0.004202794
0.0042049865
0.0042073592
0.0042098917
0.0042125384
0.0042152123
0.0042177639
0.004219959
0.0042020408
0.004203354
0.0042046324
0.0042057886
0.0042070232
0.0042083953
0.0042099054
0.0042115505
0.0042133338
0.0042152607
0.004217335
0.0042195559
0.0042219149
0.0042243915
0.0042269468
0.0042295151
0.0042319935
0.0042342289
0.0042083888
0.004209894
0.0042113351
0.0042126514
0.0042140396
0.0042155581
0.0042172077
0.0042189839
0.0042208864
0.004222916
0.0042250714
0.0042273478
0.004229734
0.0042322087
0.0042347362
0.0042372625
0.0042397152
0.0042420029
0.004211073
0.0042127212
0.0042142885
0.0042157346
0.0042172505
0.0042188928
0.0042206619
0.0042225527
0.0042245626
0.0042266894
0.0042289294
0.0042312749
0.0042337128
0.0042362205
0.0042387626
0.0042412888
0.0042437433
0.004246086
0.0042123178
0.0042140718
0.004215737
0.004217289
0.004218911
0.0042206568
0.0042225264
0.0042245141
0.0042266164
0.0042288296
0.0042311483
0.0042335636
0.004236061
0.0042386167
0.0042411937
0.0042437395
0.0042462014
0.0042485834
0.0042133407
0.0042151779
0.0042169233
0.0042185649
0.0042202774
0.0042221112
0.0042240656
0.0042261348
0.0042283148
0.0042306015
0.0042329887
0.0042354667
0.0042380203
0.0042406251
0.0042432421
0.0042458132
0.0042482718
0.0042506316
0.004214641
0.0042165471
0.0042183609
0.0042200805
0.0042218717
0.0042237813
0.004225808
0.0042279458
0.0042301909
0.004232539
0.0042349834
0.0042375142
0.004240116
0.0042427643
0.0042454196
0.0042480196
0.0042504684
0.0042163899
0.0042183535
0.0042202258
0.0042220132
0.0042238726
0.0042258471
0.004227935
0.0042301304
0.0042324295
0.004234828
0.004237319
0.0042398925
0.0042425331
0.0042452167
0.0042479059
0.0042505428
0.0042530422
0.0042186582
0.0042206683
0.0042225893
0.0042244344
0.0042263517
0.0042283808
0.0042305195
0.0042327622
0.0042351051
0.0042375437
0.0042400713
0.0042426777
0.0042453474
0.0042480571
0.004250771
0.0042534349
0.0042559706
0.0042214907
0.0042235365
0.0042254964
0.0042273892
0.0042293542
0.0042314278
0.0042336075
0.0042358876
0.0042382645
0.0042407337
0.0042432884
0.0042459182
0.0042486079
0.0042513347
0.0042540643
0.0042567459
0.0042593074
0.0042249222
0.0042269935
0.0042289831
0.0042309141
0.0042329171
0.0042350255
0.0042372366
0.0042395448
0.0042419466
0.0042444373
0.00424701
0.0042496545
0.0042523555
0.0042550908
0.0042578276
0.0042605179
0.0042630952
0.0042289842
0.0042310715
0.0042330821
0.0042350423
0.0042370742
0.0042392086
0.0042414422
0.0042437699
0.0042461878
0.0042486915
0.0042512738
0.0042539246
0.0042566286
0.0042593643
0.0042621
0.0042647905
0.0042673743
0.0042337089
0.0042358036
0.0042378273
0.0042398084
0.0042418608
0.0042440128
0.0042462608
0.0042485997
0.0042510259
0.0042535345
0.0042561187
0.0042587679
0.0042614672
0.0042641955
0.0042669224
0.004269605
0.0042721863
0.004239134
0.0042412283
0.0042432579
0.0042452523
0.0042473176
0.0042494794
0.0042517342
0.004254077
0.0042565039
0.0042590102
0.0042615887
0.0042642291
0.0042669164
0.00426963
0.0042723405
0.0042750073
0.0042775775
0.0042453065
0.0042473936
0.0042494226
0.0042514234
0.0042534943
0.0042556589
0.0042579135
0.0042602532
0.004262674
0.004265171
0.004267737
0.0042703615
0.0042730299
0.0042757217
0.0042784086
0.0042810519
0.0042836026
0.0042522866
0.0042543603
0.0042563828
0.0042583834
0.0042604535
0.0042626144
0.0042648623
0.0042671924
0.0042696005
0.0042720818
0.0042746287
0.0042772307
0.0042798732
0.0042825363
0.0042851924
0.0042878048
0.0042903277
0.0042601503
0.004262205
0.0042642153
0.0042662097
0.0042682728
0.0042704239
0.0042726591
0.0042749734
0.0042773628
0.0042798221
0.0042823435
0.0042849164
0.0042875263
0.0042901537
0.0042927717
0.0042953454
0.0042978324
0.0042689913
0.0042710217
0.0042730145
0.004274997
0.0042770473
0.0042791827
0.0042813992
0.0042836919
0.0042860565
0.0042884874
0.004290977
0.0042935142
0.0042960847
0.0042986691
0.0043012416
0.0043037689
0.0043062114
0.004278922
0.0042809229
0.0042828928
0.0042848577
0.0042868893
0.0042890032
0.0042911952
0.0042934602
0.0042957939
0.0042981904
0.0043006415
0.0043031362
0.00430566
0.0043081939
0.004310713
0.0043131855
0.0043155751
0.0042900727
0.0042920387
0.0042939804
0.0042959218
0.0042979288
0.004300015
0.0043021764
0.0043044076
0.004306704
0.0043090594
0.0043114651
0.0043139099
0.0043163793
0.0043188544
0.0043213114
0.0043237204
0.0043260482
0.0043025903
0.0043045153
0.0043064229
0.0043083345
0.0043103104
0.0043123626
0.0043144868
0.0043166776
0.0043189298
0.0043212368
0.0043235896
0.0043259764
0.0043283827
0.00433079
0.0043331754
0.0043355114
0.0043377681
0.0043166335
0.004318511
0.0043203779
0.0043222529
0.0043241905
0.0043262015
0.0043282812
0.0043304241
0.0043326246
0.0043348753
0.0043371667
0.0043394866
0.0043418201
0.0043441492
0.0043464524
0.004348705
0.004350881
0.0043323678
0.0043341903
0.0043360091
0.0043378394
0.0043397308
0.0043416925
0.0043437196
0.0043458062
0.0043479463
0.0043501318
0.0043523524
0.0043545952
0.004356845
0.0043590841
0.004361293
0.0043634507
0.0043655364
0.0043499558
0.0043517149
0.0043534769
0.0043552537
0.0043570898
0.004358993
0.0043609582
0.0043629792
0.0043650491
0.0043671593
0.0043692986
0.0043714531
0.0043736068
0.0043757425
0.0043778432
0.0043798931
0.0043818786
0.0043695456
0.0043712319
0.0043729277
0.0043746407
0.0043764113
0.0043782458
0.0043801387
0.0043820834
0.0043840724
0.0043860962
0.0043881424
0.004390196
0.0043922401
0.0043942574
0.0043962338
0.0043981611
0.0044000368
0.0043912559
0.0043928594
0.0043944782
0.0043961166
0.0043978105
0.0043995649
0.0044013741
0.0044032309
0.0044051271
0.0044070522
0.0044089928
0.0044109322
0.0044128519
0.0044147343
0.004416568
0.0044183551
0.0044201117
0.0044151587
0.0044166686
0.0044181992
0.0044197511
0.0044213563
0.0044230185
0.0044247317
0.004426488
0.0044282787
0.0044300923
0.004431914
0.0044337255
0.0044355062
0.0044372364
0.0044389066
0.0044405315
0.0044421583
0.0044412595
0.0044426648
0.0044440956
0.004445549
0.0044470532
0.0044486107
0.004450215
0.0044518579
0.00445353
0.0044552189
0.0044569086
0.004458579
0.0044602067
0.0044617685
0.0044632533
0.0044646862
0.0044661635
0.0044694781
0.0044707684
0.004472088
0.004473431
0.0044748219
0.0044762622
0.004477745
0.0044792618
0.0044808023
0.0044823536
0.0044838988
0.0044854161
0.0044868795
0.004488261
0.0044895413
0.0044907417
0.0044920041
0.0044996308
0.0045007966
0.0045019947
0.0045032163
0.0045044826
0.0045057942
0.0045071437
0.0045085222
0.0045099192
0.0045113211
0.0045127104
0.0045140646
0.0045153561
0.0045165528
0.0045176237
0.0045185516
0.0045314178
0.0045324514
0.0045335193
0.00453461
0.0045357421
0.004536915
0.0045381211
0.0045393512
0.0045405943
0.0045418368
0.0045430608
0.0045442441
0.0045453589
0.004546374
0.0045472602
0.0045480048
0.0045644175
0.0045653139
0.0045662453
0.0045671984
0.004568189
0.0045692158
0.0045702709
0.0045713449
0.0045724268
0.0045735028
0.0045745551
0.0045755618
0.0045764959
0.004577327
0.0045780276
0.0045785871
0.004598093
0.0045988502
0.0045996421
0.004600454
0.0046012993
0.0046021759
0.0046030759
0.00460399
0.0046049071
0.0046058135
0.004606692
0.0046075212
0.0046082753
0.0046089254
0.0046094458
0.0046098283
0.0046318104
0.0046324305
0.0046330836
0.0046337546
0.0046344547
0.0046351813
0.0046359265
0.0046366812
0.0046374345
0.0046381732
0.0046388809
0.0046395373
0.0046401179
0.0046405961
0.0046409482
0.0046411682
0.004664872
0.0046653609
0.0046658804
0.0046664153
0.0046669749
0.0046675563
0.0046681519
0.0046687527
0.0046693486
0.004669927
0.0046704726
0.0046709665
0.0046713863
0.0046717078
0.0046719099
0.0046719883
0.0046965606
0.0046969287
0.0046973242
0.0046977324
0.0046981609
0.0046986068
0.004699063
0.0046995209
0.0046999711
0.0047004021
0.0047007998
0.0047011473
0.0047014248
0.0047016105
0.0047016865
0.0047016498
0.0047261932
0.0047264549
0.0047267401
0.0047270352
0.0047273466
0.0047276715
0.0047280031
0.0047283338
0.004728655
0.0047289564
0.0047292256
0.0047294479
0.004729606
0.0047296814
0.004729659
0.0047295372
0.0047531755
0.0047533482
0.0047535403
0.0047537395
0.0047539515
0.0047541734
0.0047543994
0.0047546226
0.0047548355
0.004755029
0.0047551927
0.0047553141
0.0047553789
0.0047553718
0.0047552807
0.004755105
0.0047770508
0.0047771538
0.0047772721
0.0047773951
0.0047775276
0.0047776672
0.0047778089
0.0047779467
0.0047780741
0.0047781837
0.0047782666
0.0047783129
0.0047783112
0.0047782494
0.0047781183
0.0047779183
0.0047975354
0.0047975885
0.0047976528
0.0047977197
0.0047977935
0.0047978723
0.0047979516
0.0047980266
0.0047980918
0.0047981412
0.0047981679
0.004798164
0.0047981208
0.0047980296
0.0047978839
0.0047976846
0.0048145354
0.0048145569
0.0048145859
0.0048146159
0.0048146506
0.0048146886
0.0048147262
0.0048147596
0.0048147842
0.0048147954
0.0048147878
0.0048147554
0.0048146922
0.0048145923
0.0048144518
0.0048142721
0.0048281414
0.0048281469
0.0048281567
0.0048281662
0.0048281787
0.0048281933
0.004828207
0.0048282167
0.0048282191
0.0048282103
0.0048281863
0.0048281429
0.004828076
0.0048279822
0.0048278599
0.0048277115
0.0048386052
0.0048386062
0.0048386091
0.0048386107
0.0048386141
0.0048386186
0.0048386221
0.0048386221
0.004838616
0.004838601
0.004838574
0.0048385319
0.004838472
0.004838393
0.0048382954
0.0048381831
0.0048463006
0.0048463047
0.0048463087
0.0048463109
0.0048463139
0.0048463174
0.0048463198
0.0048463194
0.0048463142
0.0048463019
0.0048462803
0.0048462471
0.0048462003
0.0048461395
0.0048460672
0.0048459899
0.0048516793
0.0048516898
0.004851699
0.004851706
0.0048517132
0.0048517206
0.0048517271
0.0048517313
0.0048517318
0.0048517271
0.0048517154
0.0048516948
0.0048516634
0.0048516208
0.0048515695
0.0048515196
0.0048552246
0.0048552416
0.0048552566
0.0048552694
0.0048552821
0.0048552949
0.0048553068
0.0048553172
0.004855325
0.0048553291
0.0048553283
0.004855321
0.0048553055
0.00485528
0.0048552433
0.0048574107
0.0048574321
0.0048574513
0.0048574685
0.0048574854
0.0048575024
0.0048575189
0.0048575343
0.0048575481
0.0048575596
0.004857568
0.0048575724
0.0048575716
0.0048575643
0.0048575492
0.0048586675
0.0048586902
0.0048587108
0.0048587297
0.0048587483
0.0048587671
0.0048587856
0.0048588034
0.0048588204
0.0048588361
0.0048588501
0.0048588619
0.0048588706
0.0048588751
0.0048588743
0.0048593523
0.0048593732
0.0048593925
0.0048594104
0.0048594281
0.0048594459
0.0048594636
0.004859481
0.0048594979
0.0048595143
0.0048595299
0.0048595444
0.0048595573
0.0048595678
0.0048595747
0.0048597289
0.0048597471
0.0048597637
0.0048597789
0.004859794
0.0048598089
0.0048598237
0.0048598384
0.0048598528
0.0048598669
0.0048598809
0.0048598944
0.0048599073
0.0048599188
0.004859928
0.0048599689
0.0048599836
0.0048599969
0.004860009
0.0048600208
0.0048600323
0.0048600436
0.0048600546
0.0048600654
0.0048600761
0.0048600867
0.0048600974
0.0048601078
0.0048601174
0.0048601255
0.0048601598
0.0048601718
0.0048601826
0.0048601922
0.0048602013
0.00486021
0.0048602183
0.0048602262
0.0048602338
0.0048602414
0.004860249
0.0048602566
0.0048602642
0.0048602714
0.0048602775
0.0048603392
0.0048603492
0.0048603583
0.0048603663
0.0048603736
0.0048603803
0.0048603866
0.0048603925
0.0048603981
0.0048604037
0.0048604093
0.0048604151
0.004860421
0.0048604266
0.0048604314
0.0048605265
0.0048605349
0.0048605425
0.004860549
0.0048605549
0.0048605602
0.0048605649
0.0048605694
0.0048605737
0.0048605781
0.0048605827
0.0048605875
0.0048605925
0.0048605975
0.0048606018
0.0048607336
0.0048607401
0.0048607458
0.0048607505
0.0048607546
0.0048607581
0.0048607612
0.0048607642
0.0048607672
0.0048607704
0.004860774
0.0048607779
0.0048607821
0.0048607863
0.0048607902
0.0048609686
0.0048609729
0.0048609764
0.004860979
0.004860981
0.0048609826
0.004860984
0.0048609853
0.0048609869
0.0048609887
0.0048609909
0.0048609935
0.0048609963
0.004860999
0.0048610017
0.0048612022
0.0048612045
0.004861206
0.0048612068
0.0048612071
0.0048612071
0.004861207
0.0048612071
0.0048612073
0.0048612077
0.0048612084
0.0048612092
0.0048612099
0.0048612102
0.0048614545
0.0048614553
0.0048614552
0.0048614544
0.0048614533
0.0048614522
0.0048614511
0.00486145
0.0048614491
0.0048614483
0.0048614476
0.0048614468
0.004861446
0.0048614449
0.0014249272
0.0019455771
0.0024279755
0.0027530116
0.002903532
0.0028952706
0.0027755702
0.0025979251
0.0024104106
0.0022457928
0.0021185079
0.0020330292
0.0019879753
0.0019780115
0.0019950528
0.0020299429
0.002073868
0.0021195661
0.0021620258
0.0016445716
0.0021587304
0.002542678
0.0027481561
0.0027857369
0.0026941364
0.0025323651
0.0023525039
0.00219033
0.0020637492
0.0019796053
0.0019374555
0.001931977
0.0019547261
0.0019960058