/*--------------------------------*- C++ -*----------------------------------*\
| =========                 |                                                 |
| \\      /  F ield         | OpenFOAM: The Open Source CFD Toolbox           |
|  \\    /   O peration     | Version:  2406                                  |
|   \\  /    A nd           | Website:  www.openfoam.com                      |
|    \\/     M anipulation  |                                                 |
\*---------------------------------------------------------------------------*/
FoamFile
{
    version     2.0;
    format      ascii;
    arch        "LSB;label=32;scalar=64";
    class       volScalarField;
    location    "0.019";
    object      nutMean;
}
// * * * * * * * * * * * * * * * * * * * * * * * * * * * * * * * * * * * * * //

dimensions      [0 2 -1 0 0 0 0];

internalField   nonuniform List<scalar> 
23203
(
0.031568296
0.034299022
0.037137803
0.040058762
0.043049536
0.046102637
0.04921331
0.052379036
0.05559825
0.05887064
0.062196864
0.065577933
0.069015696
0.072512551
0.076071074
0.079694292
0.083385425
0.08714707
0.090979791
0.035292694
0.037951464
0.040698846
0.043531915
0.046443435
0.049425135
0.052471165
0.055578315
0.058743941
0.061967034
0.065247859
0.068586829
0.071985384
0.075445557
0.078969312
0.082559192
0.08621769
0.089946176
0.093743664
0.039266428
0.041849514
0.044514919
0.04726386
0.050092193
0.052994746
0.055966913
0.059004842
0.062105884
0.065269159
0.068494343
0.071781367
0.075131355
0.078545851
0.082026218
0.085574552
0.089192745
0.092881515
0.096640075
0.043447493
0.045952984
0.048538025
0.051204605
0.053950527
0.056772256
0.059666363
0.062630051
0.065661406
0.068759038
0.071922012
0.075150586
0.078445744
0.081808339
0.08523932
0.088740469
0.092313165
0.095957799
0.099673975
0.047814195
0.050242689
0.052748722
0.055334648
0.057999285
0.06074039
0.063555632
0.066443063
0.069401101
0.072428766
0.075525599
0.078691548
0.081926863
0.085232298
0.088608889
0.092058028
0.095580502
0.09917665
0.1028463
0.052350323
0.054703287
0.057131658
0.059638421
0.062223119
0.064884469
0.067621065
0.07043158
0.073315031
0.07627077
0.079298446
0.082398044
0.08556985
0.08881454
0.092132943
0.095525878
0.098993793
0.10253739
0.10615637
0.057043253
0.059322207
0.061674448
0.064103695
0.066610068
0.069192973
0.071851662
0.074585498
0.077393946
0.080276624
0.083233466
0.086264584
0.089370313
0.092551156
0.095807728
0.099140734
0.10255086
0.10603844
0.10960254
0.061883735
0.064090186
0.066367798
0.068721113
0.071150735
0.073656614
0.076238516
0.078896263
0.081629776
0.084439018
0.087324086
0.090285208
0.093322798
0.09643738
0.099629532
0.10289986
0.10624875
0.10967637
0.11318199
0.066864095
0.068999483
0.07120391
0.073482853
0.075837293
0.078267592
0.080773914
0.083356445
0.086015421
0.088751118
0.091563864
0.09445401
0.097422045
0.10046847
0.10359385
0.10679876
0.11008356
0.11344826
0.11689197
0.071977706
0.074043499
0.076176153
0.078382219
0.080662963
0.083019062
0.085450985
0.087959207
0.090544217
0.093206515
0.095946613
0.098765055
0.10166235
0.10463906
0.10769575
0.11083291
0.11405088
0.11734957
0.12072803
0.07721852
0.079216178
0.081278414
0.083413016
0.085621455
0.087904642
0.09026328
0.092698064
0.095209681
0.097798806
0.1004661
0.10321222
0.1060378
0.10894342
0.1119296
0.11499687
0.11814545
0.12137525
0.1246852
0.082580615
0.084511602
0.086504735
0.088569199
0.090706612
0.092918052
0.095204403
0.097566526
0.10000526
0.10252142
0.10511577
0.10778905
0.11054198
0.11337518
0.1162892
0.11928446
0.12236119
0.12551927
0.12875751
0.088057676
0.089923484
0.091848807
0.093844397
0.095911964
0.098052713
0.10026766
0.10255779
0.10492406
0.10736737
0.10988857
0.11248848
0.11516783
0.11792729
0.12076742
0.12368863
0.12669108
0.1297746
0.13293801
0.09364272
0.095444889
0.097303698
0.099231632
0.10123046
0.10330147
0.10544577
0.10766445
0.10995854
0.11232899
0.11477674
0.11730263
0.11990741
0.12259177
0.12535625
0.12820129
0.13112705
0.13413328
0.13721872
0.099327964
0.10106807
0.10286164
0.10472309
0.10665419
0.10865631
0.1107306
0.11287823
0.11510025
0.11739771
0.11977155
0.12222263
0.12475174
0.12735956
0.13004664
0.13281337
0.13565994
0.13858612
0.14159056
0.10510469
0.10678432
0.10851388
0.11030993
0.11217422
0.11410814
0.1161129
0.1181897
0.12033964
0.12256379
0.12486311
0.12723849
0.12969073
0.1322205
0.13482835
0.13751464
0.14027953
0.1431228
0.14604313
0.11096307
0.11258373
0.11425042
0.11598202
0.11778027
0.11964654
0.1215821
0.12358814
0.12566582
0.12781621
0.13004029
0.13233897
0.13471305
0.13716319
0.13968991
0.14229356
0.14497426
0.14773177
0.15056478
0.11689185
0.11845498
0.1200598
0.12172778
0.1234606
0.12525964
0.12712616
0.1290614
0.13106651
0.13314258
0.13529061
0.1375115
0.13980603
0.14217486
0.14461849
0.14713722
0.14973115
0.15240002
0.15514249
0.12287809
0.12438508
0.12592895
0.12753404
0.12920193
0.13093401
0.13273156
0.13459581
0.13652794
0.13852902
0.14060007
0.14274197
0.1449555
0.14724126
0.14959975
0.15203123
0.15453575
0.15711304
0.15976175
0.12890738
0.13035949
0.13184322
0.13338598
0.1349893
0.13665458
0.13838309
0.14017607
0.14203469
0.14396002
0.14595307
0.1480147
0.15014565
0.15234652
0.15461775
0.15695957
0.15937203
0.16185478
0.16440649
0.13496383
0.136362
0.13778618
0.13926705
0.14080605
0.14240454
0.14406382
0.14578512
0.14756959
0.1494183
0.15133223
0.15331221
0.15535896
0.15747305
0.15965487
0.16190463
0.1642223
0.16660755
0.169059
0.14102936
0.14237447
0.14373948
0.14515875
0.14663353
0.14816513
0.14975488
0.15140398
0.15311358
0.15488472
0.15671833
0.15861525
0.16057614
0.16260151
0.16469174
0.16684696
0.16906714
0.17135189
0.17369982
0.14708382
0.14837668
0.14968281
0.15104054
0.15245107
0.15391562
0.15543544
0.15701176
0.15864568
0.16033822
0.16209029
0.16390266
0.16577596
0.16771066
0.16970707
0.1717653
0.17388525
0.17606652
0.17830772
0.15310505
0.15434623
0.15559366
0.15688987
0.15823595
0.15963313
0.16108258
0.16258544
0.16414281
0.16575568
0.1674249
0.1691512
0.17093516
0.1727772
0.17467759
0.17663638
0.17865346
0.18072839
0.18285978
0.15906824
0.1602583
0.16144713
0.16268174
0.16396314
0.16529251
0.16667101
0.16809969
0.1695796
0.17111167
0.17269673
0.17433546
0.17602837
0.17777586
0.17957812
0.18143519
0.18334693
0.18531288
0.18733164
0.16494608
0.16608536
0.16721574
0.16838861
0.16960501
0.17086612
0.17217305
0.17352682
0.17492838
0.17637861
0.1778783
0.17942806
0.18102839
0.18267961
0.18438188
0.18613521
0.1879394
0.18979401
0.19169762
0.17070919
0.17179753
0.17286929
0.17398048
0.17513167
0.17632408
0.17755889
0.17883708
0.18015954
0.18152706
0.18294036
0.18440001
0.18590646
0.18745999
0.18906069
0.19070855
0.19240332
0.19414455
0.19593082
0.17632533
0.17736285
0.17837581
0.17942511
0.18051113
0.18163473
0.18279705
0.18399916
0.18524193
0.18652609
0.18785224
0.18922092
0.19063251
0.19208723
0.19358516
0.19512618
0.19671004
0.19833625
0.20000338
0.18175989
0.18274709
0.18370149
0.18468886
0.18570963
0.18676455
0.18785442
0.18898026
0.19014303
0.19134344
0.19258204
0.19385925
0.19517539
0.19653063
0.19792496
0.19935822
0.20083011
0.20234006
0.20388663
0.18697725
0.18791452
0.18881067
0.18973647
0.1906922
0.19167863
0.19269646
0.19374636
0.19482928
0.19594598
0.197097
0.19828267
0.19950321
0.20075871
0.20204907
0.20337405
0.20473325
0.20612605
0.20755094
0.1919411
0.19282914
0.19366755
0.19453217
0.19542339
0.1963418
0.19728807
0.19826271
0.1992664
0.20029984
0.20136362
0.20245806
0.20358325
0.20473915
0.20592557
0.20714213
0.20838832
0.20966339
0.21096577
0.19661488
0.19745443
0.19823595
0.1990402
0.19986737
0.20071832
0.2015936
0.20249378
0.2034192
0.20437025
0.20534752
0.20635137
0.20738184
0.20843875
0.20952175
0.21063029
0.21176365
0.21292089
0.21410031
0.20096006
0.20175219
0.20247798
0.20322295
0.20398724
0.20477163
0.20557684
0.20640334
0.20725149
0.20812146
0.20901349
0.20992788
0.21086474
0.21182387
0.2128047
0.21380645
0.21482804
0.21586807
0.21692448
0.2049371
0.20568292
0.20635458
0.20704179
0.20774471
0.20846401
0.2092004
0.20995459
0.21072672
0.21151712
0.21232577
0.21315268
0.21399795
0.21486143
0.21574251
0.21664007
0.21755243
0.21847713
0.21941081
0.20850723
0.20920808
0.20982733
0.21045872
0.21110213
0.21175829
0.21242787
0.21311149
0.21380967
0.21452248
0.21525003
0.21599225
0.216749
0.21752018
0.21830538
0.21910341
0.21991182
0.22072605
0.22153796
0.21163491
0.21229247
0.21286133
0.21343907
0.21402541
0.21462081
0.21522607
0.21584156
0.21646806
0.21710584
0.21775499
0.21841551
0.21908735
0.21977053
0.22046513
0.22117088
0.22188616
0.22260517
0.22330654
0.21428972
0.21490587
0.21542678
0.21595329
0.21648511
0.21702258
0.21756617
0.21811654
0.21867402
0.21923924
0.21981258
0.2203941
0.22098397
0.22158258
0.222191
0.22281163
0.22344979
0.22411823
0.21644566
0.21702236
0.21749788
0.21797576
0.21845564
0.21893787
0.21942277
0.21991069
0.22040219
0.22089761
0.22139741
0.22190198
0.22241143
0.22292594
0.22344597
0.22397259
0.22450698
0.22504886
0.21807945
0.21861864
0.2190513
0.2194832
0.21991379
0.22034338
0.22077229
0.22120078
0.2216291
0.22205769
0.22248675
0.22291662
0.22334759
0.22377955
0.22421233
0.22464576
0.22507956
0.22551202
0.21916963
0.21967358
0.22006623
0.22045492
0.22083906
0.22121888
0.2215947
0.22196678
0.22233526
0.22270023
0.22306199
0.22342059
0.22377615
0.2241287
0.22447791
0.22482303
0.22516323
0.22549692
0.21970148
0.22017199
0.22052725
0.22087562
0.22121644
0.22154979
0.22187592
0.22219507
0.22250737
0.2228128
0.22311132
0.22340303
0.22368777
0.2239655
0.22423593
0.22449862
0.22475248
0.22499565
0.2196718
0.22011073
0.22043118
0.22074188
0.22104219
0.22133213
0.22161189
0.22188164
0.22214147
0.22239138
0.22263123
0.22286079
0.22307994
0.22328841
0.22348588
0.22367207
0.22384619
0.22400628
0.21908729
0.21949612
0.21978388
0.22005945
0.22032203
0.22057164
0.22080838
0.22103235
0.22124357
0.22144201
0.22162748
0.22179964
0.22195812
0.22210268
0.22223296
0.22234852
0.22244874
0.22253218
0.21796037
0.21834015
0.21859696
0.21883937
0.21906658
0.21927849
0.21947509
0.21965645
0.21982244
0.21997296
0.22010784
0.2202267
0.22032908
0.22041446
0.22048247
0.22053256
0.22056414
0.22057589
0.21630048
0.21665157
0.21687858
0.21708927
0.21728288
0.21745917
0.21761799
0.21775921
0.21788261
0.21798805
0.2180752
0.21814369
0.21819299
0.21822254
0.21823172
0.21821998
0.21818665
0.21813034
0.214102
0.21442493
0.21462334
0.21480368
0.21496502
0.21510707
0.21522961
0.21533244
0.21541519
0.21547751
0.21551905
0.21553933
0.21553788
0.21551405
0.21546716
0.21539645
0.2153012
0.21518007
0.21134417
0.21163922
0.21180993
0.21196099
0.21209139
0.21220075
0.21228876
0.21235506
0.2123992
0.21242053
0.21241853
0.21239263
0.21234225
0.21226666
0.21216506
0.21203665
0.2118805
0.21169537
0.20798649
0.20825405
0.20839772
0.2085201
0.20862011
0.2086972
0.20875095
0.20878087
0.20878639
0.20876694
0.20872175
0.20865013
0.2085513
0.20842436
0.20826846
0.20808275
0.2078663
0.20761775
0.20397005
0.20421086
0.20432875
0.20442371
0.20449454
0.20454055
0.20456118
0.20455591
0.2045241
0.20446511
0.20437815
0.20426226
0.20411655
0.20394007
0.20373193
0.20349139
0.20321744
0.20290867
0.1992616
0.19947692
0.1995707
0.19964
0.1996836
0.19970071
0.19969063
0.19965268
0.19958622
0.19949049
0.19936471
0.19920795
0.19901914
0.19879731
0.19854156
0.19825102
0.19792475
0.19756126
0.19386258
0.19405348
0.19412479
0.19417033
0.19418878
0.19417931
0.19414109
0.19407335
0.19397533
0.19384631
0.19368542
0.19349178
0.19326431
0.19300188
0.19270358
0.19236841
0.19199543
0.19158315
0.18778762
0.1879552
0.1880057
0.18802933
0.18802478
0.18799113
0.18792749
0.18783297
0.18770672
0.1875479
0.1873557
0.18712917
0.18686731
0.18656902
0.18623319
0.18585879
0.1854448
0.18498982
0.18105909
0.18120441
0.18123561
0.18123908
0.1812135
0.18115791
0.18107137
0.18095294
0.18080164
0.18061654
0.18039676
0.18014139
0.17984945
0.17951994
0.17915171
0.1787436
0.1782946
0.17780312
0.17370451
0.17382858
0.17384195
0.17382695
0.1737823
0.17370699
0.17360006
0.17346051
0.17328728
0.17307936
0.17283574
0.17255551
0.17223774
0.17188147
0.17148567
0.17104925
0.17057093
0.17004908
0.16575776
0.16586168
0.16585859
0.16582673
0.16576483
0.16567187
0.16554687
0.16538879
0.16519658
0.16496912
0.16470534
0.1644042
0.16406479
0.16368617
0.16326743
0.16280763
0.16230547
0.16175923
0.15725811
0.15734287
0.15732456
0.15727731
0.15719988
0.15709125
0.15695043
0.15677635
0.15656791
0.156324
0.1560435
0.1557253
0.15536837
0.15497181
0.15453477
0.15405637
0.1535356
0.15297068
0.14825021
0.14831682
0.14828451
0.14822336
0.14813211
0.14800975
0.14785528
0.14766764
0.14744571
0.14718837
0.14689448
0.14656291
0.14619256
0.14578242
0.14533167
0.14483953
0.14430512
0.14372692
0.13878545
0.13883497
0.13878996
0.13871641
0.13861308
0.13847897
0.13831308
0.13811433
0.13788165
0.1376139
0.13730997
0.13696871
0.13658899
0.13616974
0.13571006
0.13520922
0.13466642
0.13408032
0.12892133
0.12895503
0.12889892
0.1288147
0.12870122
0.1285575
0.12838255
0.12817534
0.12793479
0.12765983
0.12734934
0.12700221
0.12661728
0.12619351
0.1257299
0.12522564
0.12468
0.12409172
0.11872693
0.11874621
0.11868064
0.1185876
0.11846598
0.1183149
0.11813341
0.11792049
0.1176751
0.1173962
0.11708272
0.11673356
0.11634764
0.11592389
0.11546135
0.11495908
0.11441627
0.11383179
0.10828369
0.10828994
0.10821641
0.1081163
0.10798856
0.10783235
0.10764675
0.10743082
0.10718354
0.10690393
0.10659093
0.1062435
0.10586062
0.10544129
0.1049845
0.10448935
0.10395496
0.10338009
0.09768078
0.097675512
0.097595799
0.097490568
0.097358819
0.097199772
0.097012596
0.096796382
0.096550182
0.096273041
0.095963984
0.095622027
0.095246182
0.094835487
0.094389011
0.093905874
0.093385191
0.092825659
0.087015191
0.086999997
0.086916116
0.086807965
0.086674607
0.086515322
0.086329328
0.086115778
0.085873797
0.085602486
0.085300939
0.084968222
0.084603418
0.084205627
0.08377399
0.083307681
0.082805833
0.08226713
0.076395968
0.076372609
0.076286656
0.076177849
0.076045328
0.075888406
0.075706367
0.075498441
0.075263806
0.075001621
0.074711038
0.074391218
0.074041333
0.073660569
0.073248117
0.072803211
0.072325013
0.071812277
0.065942518
0.065912938
0.065827188
0.065720138
0.065590991
0.065439106
0.065263812
0.06506438
0.06484005
0.064590071
0.064313697
0.064010204
0.063678842
0.063318862
0.062929528
0.062510173
0.062060042
0.06157799
0.055780451
0.055746856
0.055663859
0.055561167
0.05543807
0.055293985
0.055128293
0.054940332
0.054729428
0.054494904
0.054236091
0.053952333
0.053642985
0.053307432
0.052945087
0.052555326
0.052137521
0.051690541
0.046045359
0.046010254
0.045932699
0.045837125
0.04572295
0.045589633
0.045436613
0.045263297
0.045069085
0.044853381
0.044615605
0.044355198
0.044071619
0.043764325
0.043432827
0.043076638
0.042695205
0.04228753
0.036881066
0.036847035
0.036777548
0.036691819
0.036589379
0.036469756
0.036332445
0.036176923
0.036002668
0.035809166
0.035595909
0.035362413
0.035108227
0.034832926
0.034536138
0.034217476
0.033876493
0.0335123
0.028441727
0.028411249
0.028352267
0.02827895
0.028190938
0.028087819
0.027969145
0.027834461
0.027683324
0.027515294
0.02732995
0.027126904
0.026905803
0.026666331
0.026408223
0.026131213
0.025834985
0.025518834
0.02090052
0.020875809
0.020829415
0.020770751
0.020699552
0.020615466
0.020518114
0.020407125
0.020282143
0.020142811
0.019988796
0.019819806
0.019635583
0.019435929
0.019220683
0.018989732
0.018742932
0.018479656
0.014460787
0.01444359
0.014411117
0.014368596
0.014315895
0.014252769
0.014178936
0.014094122
0.013998064
0.013890507
0.013771223
0.013640011
0.013496708
0.013341203
0.013173467
0.012993504
0.01280129
0.012596445
0.0093625287
0.0093533475
0.0093345133
0.009308166
0.0092743479
0.0092329323
0.0091837627
0.0091266864
0.0090615589
0.0089882433
0.008906623
0.0088165972
0.008718109
0.0086111574
0.0084958159
0.0083722308
0.0082405494
0.0081006859
0.0058502456
0.0058479688
0.0058408736
0.0058293799
0.0058135818
0.005793382
0.0057686829
0.0057394311
0.0057056024
0.0056671875
0.0056242013
0.0055766883
0.0055247191
0.0054684035
0.0054078976
0.0053433872
0.0052750987
0.0052031814
0.0040452232
0.0040489524
0.0040506127
0.0040504816
0.0040488669
0.0040457961
0.0040412468
0.0040352181
0.0040277341
0.004018839
0.0040085942
0.0039970704
0.0039843578
0.0039705494
0.0039557603
0.0039401281
0.0039238016
0.0039068875
0.0035553873
0.0035608416
0.0035654648
0.003569633
0.0035736945
0.0035777069
0.0035816645
0.0035855686
0.0035894285
0.0035932529
0.003597049
0.0036008217
0.0036045714
0.0036083041
0.0036120129
0.003615684
0.0036193086
0.0036228796
0.003499573
0.0035042312
0.0035086854
0.0035130663
0.0035176095
0.0035223385
0.0035272355
0.0035322919
0.0035375036
0.0035428628
0.0035483566
0.0035539671
0.0035596724
0.0035654464
0.0035712574
0.0035770634
0.0035827949
0.0034906746
0.0034951595
0.0034994428
0.0035036722
0.0035080711
0.0035126648
0.003517437
0.0035223783
0.0035274829
0.0035327412
0.0035381388
0.0035436566
0.0035492713
0.0035549552
0.0035606753
0.0035663885
0.0035720267
0.0034857855
0.0034900799
0.0034941946
0.0034982676
0.0035025021
0.0035069226
0.003511515
0.0035162714
0.0035211862
0.0035262502
0.0035314494
0.0035367652
0.0035421746
0.0035476506
0.0035531603
0.003558661
0.0035640869
0.003482388
0.0034864763
0.0034904132
0.0034943244
0.0034983936
0.0035026443
0.0035070643
0.0035116454
0.0035163813
0.0035212626
0.0035262747
0.0035313991
0.003536613
0.0035418895
0.003547196
0.0035524904
0.003557709
0.003480183
0.0034840838
0.0034878596
0.0034916241
0.0034955425
0.0034996364
0.0035038941
0.0035083076
0.0035128704
0.0035175729
0.0035224008
0.0035273361
0.0035323564
0.0035374354
0.0035425411
0.0035476324
0.0035526478
0.0034790714
0.0034827955
0.0034864162
0.0034900376
0.0034938089
0.00349775
0.0035018506
0.0035061028
0.0035104998
0.0035150317
0.0035196845
0.00352444
0.0035292767
0.0035341682
0.0035390832
0.0035439812
0.0035488029
0.0034789389
0.0034825009
0.0034859776
0.003489466
0.0034931003
0.0034968987
0.0035008513
0.0035049504
0.003509189
0.0035135569
0.0035180405
0.0035226219
0.0035272798
0.0035319888
0.003536718
0.0035414278
0.0035460613
0.0034797165
0.0034831268
0.0034864672
0.0034898282
0.0034933307
0.0034969916
0.0035008017
0.0035047533
0.0035088392
0.0035130495
0.0035173705
0.0035217848
0.0035262715
0.0035308057
0.003535357
0.0035398868
0.0035443403
0.0034813331
0.0034846018
0.0034878148
0.0034910557
0.003494434
0.0034979649
0.0035016398
0.0035054508
0.0035093909
0.0035134501
0.0035176147
0.003521868
0.0035261894
0.0035305546
0.0035349339
0.0035392897
0.0035435691
0.0034837425
0.0034868786
0.0034899713
0.003493098
0.0034963575
0.0034997639
0.0035033088
0.0035069847
0.0035107845
0.0035146982
0.0035187124
0.0035228107
0.0035269731
0.0035311759
0.00353539
0.0035395788
0.003543691
0.0034869069
0.0034899187
0.0034928981
0.0034959163
0.0034990631
0.0035023509
0.0035057719
0.0035093187
0.003512984
0.003516758
0.0035206276
0.0035245768
0.003528586
0.0035326321
0.0035366868
0.0035407143
0.0035446654
0.0034908063
0.0034937009
0.0034965733
0.0034994881
0.0035025272
0.0035057015
0.0035090036
0.0035124262
0.0035159622
0.0035196018
0.0035233322
0.0035271376
0.0035309992
0.0035348943
0.0035387954
0.0035426675
0.0035464633
0.003495433
0.0034982171
0.0035009879
0.0035038043
0.0035067405
0.0035098064
0.0035129946
0.0035162982
0.0035197099
0.0035232201
0.0035268164
0.0035304833
0.0035342024
0.0035379515
0.0035417041
0.0035454261
0.0035490716
0.0035007954
0.0035034748
0.0035061492
0.0035088716
0.0035117092
0.003514671
0.0035177497
0.0035209387
0.0035242307
0.0035276163
0.0035310831
0.0035346161
0.0035381972
0.003541805
0.0035454135
0.00354899
0.0035524902
0.0035069171
0.0035094971
0.0035120795
0.0035147116
0.0035174546
0.0035203162
0.0035232896
0.0035263682
0.0035295447
0.0035328098
0.0035361514
0.0035395546
0.0035430017
0.003546472
0.0035499404
0.0035533752
0.0035567339
0.0035138384
0.0035163231
0.0035188171
0.0035213622
0.0035240138
0.0035267785
0.0035296501
0.0035326218
0.0035356864
0.0035388347
0.0035420546
0.0035453314
0.0035486478
0.0035519835
0.0035553145
0.0035586106
0.0035618313
0.0035216151
0.0035240078
0.0035264163
0.0035288769
0.0035314395
0.0035341103
0.0035368828
0.0035397505
0.0035427062
0.0035457406
0.0035488416
0.0035519947
0.0035551825
0.0035583854
0.0035615806
0.0035647399
0.0035678252
0.0035303188
0.0035326219
0.0035349469
0.0035373245
0.0035398001
0.0035423786
0.003545054
0.0035478197
0.0035506686
0.003553591
0.003556575
0.0035596057
0.0035626661
0.0035657367
0.0035687961
0.0035718192
0.0035747712
0.0035400349
0.0035422499
0.0035444923
0.0035467876
0.0035491769
0.003551664
0.0035542433
0.003556908
0.003559651
0.0035624625
0.0035653302
0.003568239
0.0035711717
0.0035741089
0.0035770309
0.0035799164
0.0035827363
0.00355086
0.0035529872
0.0035551469
0.0035573596
0.0035596621
0.0035620577
0.0035645405
0.0035671041
0.0035697409
0.0035724413
0.0035751923
0.0035779787
0.0035807822
0.0035835835
0.003586364
0.0035891076
0.003591796
0.0035628971
0.0035649355
0.0035670112
0.0035691397
0.003571354
0.0035736565
0.0035760415
0.0035785025
0.0035810319
0.0035836196
0.0035862526
0.0035889146
0.0035915866
0.0035942478
0.0035968799
0.0035994732
0.003602028
0.003576248
0.0035781957
0.0035801851
0.0035822268
0.0035843501
0.0035865569
0.0035888415
0.0035911972
0.0035936164
0.0035960889
0.0035986012
0.0036011365
0.0036036738
0.0036061899
0.0036086641
0.0036110907
0.0036135004
0.0035910052
0.0035928591
0.0035947588
0.00359671
0.0035987386
0.0036008458
0.0036030261
0.0036052728
0.0036075781
0.0036099317
0.0036123199
0.0036147251
0.0036171246
0.0036194916
0.0036217979
0.0036240301
0.0036262461
0.0036072407
0.0036089971
0.0036108028
0.0036126589
0.0036145881
0.0036165912
0.0036186625
0.0036207955
0.0036229824
0.0036252127
0.0036274727
0.0036297442
0.0036320037
0.0036342204
0.0036363562
0.0036383639
0.0036249957
0.0036266503
0.0036283572
0.003630113
0.0036319377
0.0036338315
0.0036357888
0.0036378031
0.0036398665
0.0036419687
0.0036440958
0.0036462298
0.0036483464
0.003650415
0.0036523969
0.0036542463
0.0036442671
0.0036458154
0.0036474187
0.003649069
0.003650784
0.0036525633
0.0036544013
0.0036562916
0.0036582266
0.0036601956
0.003662185
0.0036641764
0.0036661458
0.0036680621
0.0036698864
0.0036715725
0.0036649965
0.0036664347
0.0036679297
0.0036694697
0.0036710701
0.0036727299
0.0036744438
0.0036762055
0.0036780071
0.0036798385
0.0036816858
0.0036835308
0.0036853496
0.0036871111
0.0036887758
0.0036902973
0.0036870603
0.0036883853
0.003689768
0.0036911938
0.0036926755
0.003694212
0.003695798
0.0036974273
0.0036990922
0.0037007826
0.0037024848
0.0037041811
0.0037058473
0.0037074523
0.0037089571
0.0037103156
0.0037102641
0.0037114742
0.0037127425
0.0037140516
0.0037154122
0.003716823
0.0037182788
0.0037197736
0.0037213
0.0037228479
0.0037244039
0.0037259504
0.0037274638
0.0037289134
0.0037302607
0.00373146
0.0037343467
0.0037354424
0.0037365959
0.0037377874
0.0037390264
0.0037403111
0.0037416367
0.0037429971
0.0037443852
0.0037457911
0.0037472018
0.0037486001
0.003749963
0.0037512607
0.0037524557
0.0037535034
0.0037589859
0.0037599697
0.0037610101
0.0037620861
0.0037632053
0.0037643659
0.0037655632
0.0037667916
0.0037680438
0.0037693105
0.0037705791
0.003771833
0.0037730501
0.0037742021
0.0037752528
0.0037761596
0.0037838167
0.0037846934
0.0037856248
0.003786589
0.0037875925
0.0037886333
0.0037897069
0.0037908079
0.0037919294
0.0037930624
0.0037941948
0.0037953109
0.00379639
0.0037974053
0.003798323
0.0037991026
0.0038084586
0.003809235
0.0038100634
0.003810922
0.003811816
0.0038127434
0.0038137002
0.0038146809
0.0038156791
0.003816686
0.0038176904
0.0038186774
0.0038196278
0.0038205173
0.0038213148
0.0038219828
0.0038325443
0.0038332285
0.0038339616
0.0038347222
0.0038355147
0.0038363371
0.0038371855
0.0038380548
0.0038389388
0.0038398293
0.0038407155
0.0038415836
0.0038424163
0.003843192
0.0038438832
0.0038444564
0.0038557538
0.0038563547
0.003857001
0.0038576725
0.0038583724
0.003859099
0.0038598485
0.0038606164
0.0038613965
0.0038621809
0.0038629594
0.0038637191
0.0038644448
0.0038651179
0.0038657159
0.0038662101
0.0038778401
0.0038783664
0.0038789345
0.0038795253
0.0038801416
0.0038807816
0.0038814419
0.0038821181
0.0038828042
0.0038834927
0.0038841735
0.0038848348
0.0038854629
0.003886043
0.0038865585
0.003886988
0.0038986457
0.003899105
0.0038996025
0.0039001207
0.0039006616
0.0039012234
0.0039018031
0.0039023965
0.0039029977
0.0039035994
0.0039041917
0.0039047631
0.0039053011
0.0039057942
0.0039062334
0.0039066091
0.003918105
0.0039185032
0.0039189363
0.0039193879
0.0039198598
0.0039203501
0.003920856
0.0039213736
0.0039218972
0.0039224194
0.0039229306
0.0039234188
0.0039238717
0.0039242795
0.0039246408
0.0039249667
0.0039362179
0.0039365589
0.0039369318
0.0039373214
0.0039377288
0.0039381525
0.0039385897
0.0039390367
0.0039394882
0.0039399369
0.003940373
0.0039407841
0.0039411564
0.0039414778
0.0039417483
0.0039420043
0.0039530263
0.003953313
0.0039536284
0.003953959
0.0039543051
0.0039546654
0.0039550373
0.0039554172
0.0039558003
0.0039561796
0.0039565457
0.0039568861
0.0039571848
0.0039574236
0.0039575821
0.0039685658
0.0039688001
0.0039690604
0.003969334
0.0039696212
0.0039699205
0.0039702295
0.003970545
0.0039708625
0.0039711756
0.0039714757
0.0039717515
0.0039719889
0.0039721712
0.0039722811
0.0039828271
0.0039830116
0.0039832194
0.0039834388
0.0039836698
0.0039839108
0.0039841598
0.0039844138
0.0039846686
0.0039849187
0.0039851561
0.0039853708
0.00398555
0.0039856792
0.0039857428
0.0039957343
0.0039958732
0.0039960324
0.0039962015
0.0039963802
0.0039965672
0.0039967605
0.0039969574
0.0039971543
0.0039973461
0.003997526
0.0039976851
0.0039978123
0.0039978946
0.0039979186
0.0040071373
0.0040072366
0.0040073533
0.0040074782
0.0040076109
0.0040077501
0.0040078942
0.0040080407
0.0040081866
0.0040083276
0.0040084577
0.0040085695
0.0040086536
0.004008699
0.0040086942
0.0040168461
0.0040169141
0.0040169962
0.0040170848
0.0040171795
0.0040172793
0.0040173826
0.0040174876
0.0040175916
0.0040176912
0.0040177815
0.0040178566
0.004017909
0.0040179298
0.0040179097
0.0040246838
0.0040247297
0.0040247861
0.0040248476
0.0040249136
0.0040249833
0.0040250556
0.0040251289
0.0040252014
0.0040252702
0.0040253318
0.0040253819
0.0040254147
0.0040254238
0.0040254021
0.0040305637
0.0040305954
0.0040306346
0.0040306774
0.0040307235
0.0040307723
0.0040308229
0.0040308743
0.004030925
0.0040309733
0.0040310168
0.0040310524
0.0040310764
0.0040310843
0.0040310715
0.0040345614
0.0040345852
0.0040346139
0.0040346449
0.0040346784
0.0040347137
0.0040347505
0.0040347879
0.0040348251
0.0040348611
0.0040348942
0.0040349229
0.0040349449
0.0040349577
0.0040349585
0.0040369461
0.0040369655
0.0040369876
0.0040370114
0.0040370368
0.0040370636
0.0040370915
0.00403712
0.0040371486
0.0040371768
0.0040372038
0.0040372288
0.0040372507
0.0040372684
0.0040372806
0.0040381545
0.0040381701
0.0040381871
0.0040382054
0.0040382247
0.0040382451
0.0040382661
0.0040382878
0.0040383098
0.0040383318
0.0040383536
0.0040383747
0.0040383949
0.0040384136
0.0040384308
0.0040386578
0.004038669
0.0040386811
0.004038694
0.0040387078
0.0040387221
0.0040387369
0.004038752
0.0040387674
0.004038783
0.0040387986
0.0040388142
0.0040388295
0.0040388441
0.0040388887
0.0040388954
0.0040389028
0.0040389107
0.004038919
0.0040389276
0.0040389363
0.0040389453
0.0040389544
0.0040389637
0.0040389732
0.0040389828
0.0040389925
0.0040390021
0.0030779391
0.0037425472
0.0044964357
0.0053391836
0.0062786105
0.007325106
0.0084892826
0.0097789568
0.011198356
0.012748211
0.014426794
0.016230797
0.018155841
0.020196941
0.022348973
0.024607079
0.026966917
0.029424777
0.031978781
0.0033556309
0.0040934183
0.0049170577
0.0058340996
0.0068547557
0.0079894377
0.0092468741
0.010631806
0.012145393
0.013786198
0.015551093
0.01743583
0.019435526
0.021545139
0.023759884
0.026075457
0.028488142
0.030994898
0.0037164926
0.004530162
0.0054328013
0.006434355
0.0075460253
0.0087772982
0.010133459
0.011616023
0.013223743
0.01495358
0.016801316
0.018762075
0.020830858
0.023002983
0.025274338
0.027641472
0.030101602
0.032653492
0.0041393289
0.0050319552
0.0060187682
0.0071112258
0.0083201498
0.0096515614
0.011107496
0.012686865
0.014386549
0.016202156
0.018128634
0.020160875
0.022294193
0.024524602
0.02684888
0.029264516
0.031769586
0.0046140195
0.005587953
0.0066631973
0.0078517216
0.0091609132
0.010593314
0.012147922
0.013821449
0.015609223
0.017505903
0.019506149
0.021605145
0.023798903
0.026084334
0.02845918
0.030921882
0.033471688
0.0051333463
0.0061926353
0.007361367
0.0086491163
0.010059311
0.011591117
0.013241065
0.015004145
0.016874625
0.01884681
0.020915636
0.023076988
0.025327776
0.027665848
0.03008982
0.032598787
0.005693282
0.0068428693
0.0081089436
0.0094970461
0.011006809
0.012634615
0.014375062
0.016221951
0.01816914
0.020211222
0.022343866
0.024563881
0.026869101
0.029258235
0.03173069
0.034285957
0.0062910676
0.0075356129
0.0089009995
0.010388579
0.011994781
0.013713786
0.015538849
0.017463309
0.01948134
0.021588326
0.023780894
0.026056782
0.028414647
0.030853905
0.033374456
0.0069243267
0.0082668636
0.0097315631
0.011316035
0.01301414
0.01481852
0.016721903
0.018717976
0.020801772
0.022969689
0.025219307
0.02754916
0.029958558
0.032447526
0.035016003
0.0075899792
0.0090315836
0.010593759
0.012271006
0.014055381
0.015938904
0.017914675
0.019977316
0.022122944
0.024348939
0.026653666
0.02903627
0.031496535
0.034034886
0.0082838832
0.009823666
0.011479766
0.013244443
0.015109008
0.017065847
0.019109083
0.021234496
0.023439209
0.025721402
0.028080018
0.030514628
0.033025319
0.035612195
0.0090007789
0.010635918
0.012380989
0.014227242
0.016166326
0.018191734
0.020298829
0.022484444
0.024746487
0.027083714
0.029495482
0.031981673
0.034542727
0.037178428
0.0097342227
0.011460278
0.013288745
0.015211074
0.017220144
0.019310747
0.02147935
0.023723585
0.026041905
0.028433435
0.030897827
0.033435229
0.036046445
0.010476871
0.012288571
0.0141951
0.016189178
0.018265115
0.020418822
0.022647544
0.024949438
0.027323341
0.029768639
0.032285199
0.034873268