/*--------------------------------*- C++ -*----------------------------------*\
| =========                 |                                                 |
| \\      /  F ield         | OpenFOAM: The Open Source CFD Toolbox           |
|  \\    /   O peration     | Version:  2406                                  |
|   \\  /    A nd           | Website:  www.openfoam.com                      |
|    \\/     M anipulation  |                                                 |
\*---------------------------------------------------------------------------*/
FoamFile
{
    version     2.0;
    format      ascii;
    arch        "LSB;label=32;scalar=64";
    class       volScalarField;
    location    "0.011";
    object      Ma;
}
// * * * * * * * * * * * * * * * * * * * * * * * * * * * * * * * * * * * * * //

dimensions      [0 0 0 0 0 0 0];

internalField   nonuniform List<scalar> 
8260
(
0.14763625
0.14880246
0.15001151
0.15129488
0.15258078
0.15384464
0.15509717
0.15633123
0.15764131
0.15912014
0.16061455
0.16215211
0.16367481
0.16504248
0.1657451
0.16526924
0.16270971
0.15920797
0.15730087
0.15620433
0.15525722
0.15435355
0.15370422
0.15309973
0.15260765
0.15218988
0.1518488
0.15156213
0.15131185
0.15116891
0.15102745
0.14383218
0.14536323
0.14699746
0.14865032
0.15028983
0.15190105
0.15348334
0.15504226
0.15662969
0.1582901
0.1599547
0.16161985
0.16322396
0.16461834
0.16527933
0.16467871
0.16200592
0.15864162
0.15694872
0.15594846
0.15505645
0.15419141
0.15357493
0.15299485
0.15252278
0.15212197
0.15179325
0.15151602
0.15127223
0.15113415
0.15099882
0.13945576
0.14134079
0.14342334
0.14550383
0.1475481
0.1495482
0.15150027
0.15340693
0.15529903
0.1571996
0.15906916
0.16089201
0.16260376
0.16404377
0.1646873
0.16398725
0.16121063
0.15806097
0.15657812
0.15566705
0.15483543
0.15401213
0.15343007
0.15287742
0.15242746
0.15204565
0.15173081
0.15146421
0.1512277
0.15109491
0.15096333
0.13526449
0.13744445
0.13986313
0.14230015
0.14470548
0.1470649
0.14936836
0.15160961
0.15380214
0.15595744
0.1580424
0.1600336
0.16186132
0.16334572
0.16396533
0.16314265
0.16027579
0.15741288
0.15615075
0.15533939
0.15457683
0.15380327
0.1532617
0.15274122
0.15231725
0.15195751
0.15165886
0.15140456
0.1511767
0.15104999
0.1509226
0.13138201
0.13377473
0.13642521
0.13913224
0.14183525
0.1445073
0.14712834
0.14968136
0.15216243
0.15456964
0.15687174
0.1590356
0.16098249
0.16250571
0.16308447
0.16210782
0.15918633
0.15671123
0.15566999
0.15496605
0.15428266
0.1535664
0.15307019
0.15258677
0.15219236
0.15185755
0.15157727
0.15133687
0.15111891
0.1509989
0.1508759
0.12791095
0.13043441
0.13322109
0.13610465
0.13902374
0.14194065
0.14482494
0.14764845
0.15039086
0.15303474
0.15554556
0.15787818
0.15994067
0.1614907
0.1620004
0.16084008
0.15793932
0.15595201
0.15512594
0.15453933
0.15394623
0.15329596
0.15285104
0.15241048
0.15205002
0.15174354
0.15148416
0.15125955
0.15105319
0.1509406
0.15082253
0.12495878
0.12754406
0.13037856
0.13334024
0.13637877
0.13945278
0.1425244
0.14555571
0.14851212
0.15136049
0.15405704
0.15654195
0.15870491
0.16025724
0.16065492
0.15928852
0.15656085
0.15512971
0.15451307
0.15405332
0.15356312
0.15298916
0.15260126
0.15221014
0.1518886
0.15161423
0.15137842
0.15117159
0.15097855
0.15087425
0.15076158
0.12270548
0.12523855
0.12801815
0.13095462
0.13400804
0.13713841
0.14030448
0.14346161
0.14656401
0.14956405
0.15240456
0.15500754
0.15723746
0.15874826
0.15897404
0.15739107
0.15509534
0.15423207
0.15382299
0.15350151
0.15312648
0.15264226
0.1523166
0.15198201
0.15170517
0.1514674
0.15125837
0.15107148
0.15089425
0.15079878
0.1506923
0.12116313
0.12356285
0.12620375
0.12902326
0.13199325
0.13507799
0.13823727
0.14142435
0.14458661
0.14766458
0.15058586
0.15324993
0.15548564
0.15688782
0.15686173
0.15513802
0.15360834
0.15324997
0.15304935
0.15287744
0.15262918
0.15225146
0.15199327
0.15172262
0.15149677
0.15130071
0.15112247
0.15095788
0.15079864
0.15071305
0.150614
0.1203122
0.12252172
0.12496393
0.12759169
0.13038704
0.13332566
0.13637348
0.13948629
0.14260872
0.14567224
0.14858878
0.15123005
0.1533729
0.15455435
0.15418252
0.15269298
0.15213636
0.15216778
0.15218624
0.15217212
0.15206498
0.15180916
0.15162721
0.15142821
0.15125952
0.15111065
0.15096827
0.15082898
0.15069027
0.1506154
0.15052555
0.12004362
0.12202304
0.12422007
0.12660079
0.12915379
0.13186387
0.13470749
0.13764636
0.14062484
0.14356702
0.14636858
0.14886605
0.15076074
0.15152659
0.15093594
0.15040173
0.15064957
0.15099148
0.15123158
0.15137989
0.15143064
0.15130471
0.15121465
0.1510956
0.15098983
0.15089364
0.15079238
0.15068255
0.15056667
0.15050358
0.15042519
0.12034404
0.12201611
0.12389218
0.12595089
0.1281914
0.13060251
0.13316338
0.13583683
0.13856379
0.1412576
0.14379098
0.14594628
0.14736993
0.14772267
0.14775848
0.14836704
0.14914337
0.14974293
0.15018421
0.1505015
0.15072732
0.15072906
0.1507512
0.15072095
0.15068484
0.15064657
0.15058997
0.15051536
0.15042457
0.15037466
0.15031031
0.12071341
0.12208168
0.12364342
0.12537411
0.12726859
0.1293257
0.13152946
0.13383935
0.13618529
0.13846568
0.14055228
0.14223155
0.1432321
0.14396581
0.14519745
0.14653259
0.14758028
0.14843537
0.14907622
0.14956097
0.14993926
0.15009632
0.15023262
0.15030059
0.15034314
0.15036761
0.15035608
0.15032361
0.15026015
0.15022545
0.15017743
0.12074493
0.12184892
0.12311177
0.12452558
0.12609359
0.12779263
0.12959725
0.13147235
0.13335207
0.1351426
0.13675489
0.13820471
0.13966883
0.14140047
0.14314353
0.14467005
0.14600014
0.14708361
0.14792917
0.14856864
0.14911207
0.1494057
0.14965383
0.14983489
0.14996285
0.15005531
0.15008736
0.15010297
0.15006936
0.15005286
0.15002229
0.12043123
0.12113215
0.12201465
0.12309013
0.12437294
0.1257754
0.12723343
0.12877379
0.13037825
0.13201113
0.13369994
0.1355978
0.13764893
0.13956386
0.14130072
0.14294111
0.14441206
0.14570566
0.14674495
0.14755451
0.14825295
0.14867473
0.14902763
0.14932404
0.14954223
0.14970903
0.14978312
0.14984925
0.14984948
0.14985441
0.14984154
0.12147333
0.12199933
0.12257507
0.1232097
0.12396511
0.12491359
0.12605005
0.12736049
0.12879231
0.1303239
0.13203413
0.13401062
0.1360578
0.13801137
0.13982916
0.1414555
0.14294986
0.14433804
0.14553782
0.14649717
0.14736167
0.14792658
0.14835724
0.1487699
0.14907924
0.14932866
0.14944504
0.14955905
0.14959936
0.14962897
0.14963456
0.12288956
0.12342115
0.12402194
0.12468556
0.12538109
0.12612568
0.12692955
0.12771052
0.12862279
0.12983142
0.13131287
0.13281521
0.13451503
0.13642505
0.13847762
0.14024765
0.14173647
0.14311456
0.1443663
0.1454059
0.14641187
0.14715147
0.14765608
0.14818272
0.14857342
0.14890955
0.14907716
0.14923492
0.14931787
0.14937729
0.14940122
0.12426421
0.12460569
0.12500413
0.12547115
0.126023
0.12668741
0.12751136
0.12852338
0.12954198
0.13050625
0.13135406
0.13243372
0.1338262
0.13535847
0.13699254
0.13889438
0.14062183
0.14205516
0.14332373
0.14436286
0.14541398
0.14632807
0.14693273
0.1475688
0.14803486
0.14844894
0.14868394
0.14887897
0.14900729
0.14910034
0.14913982
0.12615405
0.1264692
0.12682951
0.12723602
0.12769037
0.12818913
0.12871836
0.12927458
0.12992269
0.13077612
0.13187338
0.13285669
0.13378665
0.13497695
0.13622986
0.13766125
0.13927923
0.14091917
0.14234514
0.14346415
0.14446335
0.14548446
0.14619673
0.14692832
0.14748431
0.1479483
0.14826249
0.14849774
0.14866997
0.14879803
0.14885266
0.12763294
0.1278426
0.12808521
0.12836645
0.12869639
0.12908841
0.12956266
0.13013625
0.13079369
0.13147676
0.13218618
0.13314082
0.1341433
0.13505358
0.13599326
0.13707987
0.13837638
0.13976257
0.14124013
0.14260216
0.14366599
0.14468716
0.14547684
0.14626857
0.14692843
0.14741183
0.14780712
0.14809558
0.1483094
0.14847039
0.14854061
0.12937367
0.12956076
0.12977515
0.13001885
0.13029496
0.13060592
0.13094883
0.13132031
0.13173475
0.13223065
0.13282631
0.13346481
0.13423154
0.13516847
0.13611993
0.13691988
0.13794276
0.13911373
0.14029554
0.14157947
0.14285469
0.14395296
0.1448237
0.14559732
0.14635116
0.14685763
0.14731244
0.14767021
0.14792745
0.14811666
0.14819866
0.13081501
0.1309387
0.13108153
0.13124692
0.13144069
0.13166991
0.13194388
0.13227461
0.13266845
0.133117
0.13361011
0.13414378
0.13468562
0.13530979
0.13617062
0.13707776
0.13783518
0.13873311
0.13974091
0.14079683
0.1418822
0.14315815
0.14419901
0.14493628
0.14574066
0.14629701
0.14678479
0.14721284
0.14752256
0.14773703
0.14783523
0.13239738
0.13250772
0.13263402
0.13277763
0.13294032
0.13312345
0.13332802
0.1335541
0.13380446
0.13409224
0.13443889
0.13486668
0.13537531
0.13589979
0.13644075
0.13716139
0.13792734
0.13860578
0.13945968
0.14040511
0.14134986
0.1423618
0.1434909
0.14429757
0.1450906
0.14572176
0.14624069
0.14672027
0.1470917
0.14733301
0.147446
0.13370042
0.13376996
0.13385029
0.13394341
0.13405247
0.13418165
0.13433619
0.1345229
0.1347493
0.13501924
0.13533083
0.13567962
0.13607499
0.13653163
0.13698409
0.13742676
0.13797935
0.13870728
0.13944119
0.14026029
0.14106236
0.14190649
0.14276136
0.14363735
0.14441875
0.14512789
0.1456909
0.14619859
0.14662813
0.14690456
0.14703658
0.13501072
0.13507757
0.13515437
0.13524196
0.13534117
0.13545252
0.13557647
0.13571367
0.13586552
0.13603526
0.13622801
0.13644904
0.13670039
0.1370069
0.13742127
0.13789111
0.13835951
0.13890816
0.13955639
0.14022268
0.14092716
0.14160164
0.14229703
0.14301365
0.14374626
0.14452078
0.14513971
0.1456668
0.14613241
0.14644779
0.14660238
0.13601054
0.13604878
0.13609454
0.13614843
0.13621177
0.13628657
0.13637545
0.13648145
0.13660771
0.13675734
0.13693381
0.13714198
0.13738705
0.13765905
0.13796128
0.13834708
0.13879888
0.13918759
0.13953857
0.14009757
0.14077763
0.14141025
0.14202553
0.14263562
0.14321024
0.14393466
0.14460065
0.14514991
0.1456177
0.14596257
0.14614214
0.13721745
0.13725192
0.13728935
0.13733095
0.13737821
0.13743276
0.13749634
0.13757074
0.13765779
0.13775925
0.13787666
0.13801158
0.1381677
0.13835181
0.1385532
0.13877122
0.13905659
0.13940608
0.1397459
0.14006723
0.14054045
0.14109263
0.14171199
0.14238242
0.14290969
0.14346698
0.1441058
0.14465679
0.14510786
0.14546033
0.14566132
0.13790213
0.1379212
0.13794427
0.13797206
0.13800543
0.13804537
0.13809301
0.13814958
0.13821643
0.13829489
0.1383859
0.13848955
0.138607
0.13875237
0.13893195
0.13913501
0.13933683
0.13960327
0.1399534
0.14023191
0.14050901
0.14095801
0.1414443
0.14202528
0.14263021
0.1431326
0.14366209
0.14417747
0.14461767
0.14496041
0.14517394
0.13869064
0.13870874
0.13872937
0.13875308
0.1387805
0.13881242
0.13884973
0.13889351
0.13894502
0.1390057
0.1390771
0.1391601
0.13925098
0.13933573
0.1394289
0.13955344
0.13971609
0.13990342
0.14012582
0.14042826
0.14072597
0.1409876
0.14138403
0.14183014
0.14230376
0.14279103
0.14326347
0.14373009
0.14415547
0.14449357
0.14470643
0.13913147
0.13914595
0.13916284
0.13918259
0.13920567
0.13923264
0.13926418
0.13930109
0.13934439
0.1393954
0.13945598
0.13952908
0.13961888
0.13972711
0.13984394
0.13996164
0.1400958
0.14025076
0.14042842
0.14063239
0.1408676
0.14113809
0.14143356
0.14174119
0.1421174
0.14253642
0.14296861
0.14339771
0.1437925
0.14411393
0.14433545
0.13954558
0.13955943
0.1395753
0.13959333
0.13961375
0.13963694
0.13966335
0.1396935
0.13972807
0.13976779
0.13981343
0.13986638
0.13992844
0.13999996
0.14008253
0.14017805
0.14028873
0.14041597
0.14056228
0.14072944
0.14092418
0.14115161
0.14140837
0.14170135
0.14203655
0.14241926
0.14282398
0.14323013
0.14360688
0.14391551
0.14414226
0.082047215
0.098251343
0.10918604
0.11742483
0.12426032
0.13047908
0.13619778
0.1411007
0.14589071
0.15035608
0.15445625
0.15819414
0.16158454
0.16461006
0.16723037
0.16927298
0.17030438
0.16993274
0.16727858
0.16327567
0.16053631
0.15878068
0.15738832
0.1562148
0.15522941
0.15435354
0.15367042
0.15311615
0.15269081
0.15241722
0.15217204
0.10376375
0.11209667
0.11856146
0.12420284
0.12967547
0.13494181
0.13989838
0.14445395
0.14876762
0.15275063
0.15640901
0.15976228
0.1628222
0.16556008
0.16792341
0.16968042
0.17040552
0.16970575
0.16670468
0.1627549
0.16022991
0.15856644
0.15721997
0.15607602
0.15511479
0.15426011
0.15359375
0.1530519
0.15263485
0.15236681
0.15212677
0.11021586
0.11640141
0.12229878
0.12796903
0.13336738
0.13838465
0.14297457
0.14716437
0.15106137
0.1546521
0.15796134
0.16101056
0.16380568
0.16630936
0.16845981
0.16997141
0.17043181
0.16943291
0.1661343
0.16232825
0.1599778
0.15837268
0.15706183
0.15594349
0.15500477
0.15417008
0.15351899
0.15298879
0.15257935
0.15231653
0.15207761
0.11644163
0.12231943
0.12781425
0.13290649
0.13764296
0.14202659
0.14605184
0.14975957
0.15321271
0.15641235
0.15938364
0.16214395
0.16468988
0.16697367
0.16891914
0.17017213
0.17039917
0.16909334
0.16556402
0.16191412
0.15971604
0.15816973
0.15689709
0.15580603
0.15489087
0.15407715
0.15344224
0.15292428
0.15252294
0.1522657
0.15203128
0.1231367
0.12832294
0.13308357
0.13749885
0.14161409
0.14542061
0.14892484
0.15216835
0.15519669
0.15802511
0.16067875
0.16316927
0.16548256
0.16755951
0.16930095
0.170313
0.17032495
0.16870853
0.16498433
0.16152609
0.15946724
0.15797158
0.15673466
0.15566984
0.1547778
0.15398479
0.15336563
0.15285967
0.15246627
0.15221458
0.15198442
0.13022846
0.13444152
0.13836742
0.14204273
0.14547639
0.14866485
0.15162773
0.15439851
0.15701231
0.15948775
0.16184415
0.16408424
0.16618165
0.16806509
0.16960607
0.17039459
0.17022132
0.16827437
0.16440922
0.16116085
0.15922205
0.15777291
0.15657116
0.15553252
0.15466358
0.15389143
0.15328813
0.15279431
0.15240899
0.15216305
0.15193852
0.13726072
0.14050159
0.14355199
0.14643132
0.14914708
0.15170764
0.15412944
0.15643701
0.15865524
0.16079923
0.16287964
0.16488872
0.16678722
0.16849191
0.16984114
0.17043532
0.17006541
0.16779056
0.16384402
0.16081731
0.15898267
0.157576
0.1564084
0.1553955
0.15454943
0.15379805
0.15321043
0.15272865
0.15235135
0.15211121
0.15189253
0.1443039
0.14646948
0.14855855
0.15059631
0.15258701
0.15452536
0.15641835
0.15828077
0.16012607
0.16196154
0.16378752
0.16558492
0.16730184
0.1688438
0.17001353
0.17043971
0.1698563
0.16726043
0.16329976
0.16049308
0.15874702
0.15737986
0.15624577
0.15525835
0.15443493
0.15370429
0.15313229
0.15266255
0.1522933
0.15205906
0.15184634
0.15098055
0.15207245
0.15322313
0.15445155
0.15574828
0.15709045
0.15848133
0.15992538
0.16142431
0.16297589
0.16456961
0.16617489
0.16772767
0.1691197
0.17011736
0.17039624
0.16959339
0.16669634
0.16278276
0.16018476
0.15851505
0.15718491
0.15608374
0.15512151
0.1543205
0.1536105
0.15305398
0.1525962
0.15223493
0.15200665
0.15179996
0.15704432
0.15715435
0.15746359
0.1579492
0.15859497
0.159381
0.16030786
0.16136674
0.16254898
0.16384299
0.16522732
0.16666028
0.16806578
0.16931411
0.17015707
0.17030926
0.16927801
0.16611521
0.16229574
0.15988967
0.15828619
0.15699105
0.15592232
0.15498499
0.15420614
0.15351666
0.15297547
0.15252959
0.15217628
0.151954
0.15175345
0.16243593
0.16168211
0.16123107
0.16103629
0.16108821
0.16137603
0.16188835
0.16260065
0.16349903
0.16456346
0.16576189
0.16704176
0.1683144
0.16941965
0.17013395
0.17018196
0.16891567
0.16553487
0.16183814
0.15960525
0.15806034
0.15679841
0.15576174
0.15484902
0.15409205
0.15342293
0.15289692
0.15246285
0.15211741
0.15190117
0.15170682
0.16702722
0.16555901
0.16444801
0.16366564
0.16320701
0.16306547
0.16321065
0.16362168
0.16427282
0.16513744
0.16617354
0.16731923
0.168467
0.16944579
0.17007457
0.17001688
0.16851949
0.16495907
0.16140789
0.15932952
0.15783737
0.15660711
0.15560215
0.15471372
0.15397834
0.15332938
0.15281839
0.15239603
0.15205837
0.15184817
0.15166006
0.17068882
0.16867305
0.16705242
0.16581044
0.1649412
0.16443243
0.16426911
0.16442303
0.16486511
0.16556177
0.16645897
0.16748681
0.16852963
0.16942294
0.16997743
0.16981008
0.16809508
0.16439631
0.16100267
0.15906078
0.1576173
0.15641731
0.15544374
0.15457927
0.15386518
0.15323616
0.15273997
0.15232921
0.15199925
0.15179505
0.15161314
0.17336063
0.17097981
0.16901526
0.16744497
0.16626545
0.16547184
0.16505563
0.16499333
0.16526106
0.16581785
0.16660277
0.16754442
0.1685311
0.16936035
0.16983263
0.16955764
0.16764838
0.16384991
0.16061963
0.15879797
0.15740024
0.15622922
0.15528669
0.15444582
0.1537527
0.15314336
0.15266175
0.15226247
0.15194011
0.15174182
0.151566
0.17513296
0.17249463
0.17030151
0.1685149
0.16712442
0.16612625
0.16551905
0.16529772
0.1654423
0.16590767
0.16663608
0.16753245
0.1684724
0.16924547
0.16963941
0.16926177
0.16718315
0.16332252
0.16025661
0.15854037
0.15718636
0.15604309
0.15513121
0.1543136
0.15364104
0.15305109
0.15258382
0.15219588
0.15188099
0.15168853
0.15151849
0.17620096
0.17339858
0.17103164
0.16908562
0.16755262
0.16642364
0.16569364
0.16539445
0.1654892
0.16590272
0.16658558
0.16744292
0.1683402
0.16907093
0.16940427
0.16893226
0.16670578
0.16281628
0.15991171
0.15828761
0.15697582
0.15585918
0.15497747
0.15418276
0.15353031
0.15295946
0.15250627
0.15212951
0.15182187
0.15163521
0.15147035
0.17665891
0.17384077
0.17139113
0.1693477
0.16772469
0.16651999
0.16572921
0.16538117
0.16542592
0.1657879
0.16642123
0.16724955
0.16812858
0.16883835
0.16912909
0.16857417
0.16622399
0.16233233
0.15958161
0.15803933
0.15676878
0.15567771
0.15482559
0.15405342
0.15342066
0.15286856
0.15242917
0.15206342
0.15176279
0.15158189
0.15142136
0.17583666
0.17334599
0.17109282
0.16914465
0.16755318
0.16635118
0.16555836
0.16517926
0.16517688
0.16551171
0.16612959
0.16695318
0.16783742
0.16854963
0.16881589
0.16819195
0.16574456
0.16187069
0.15926422
0.15779537
0.15656528
0.15549888
0.15467566
0.15392569
0.15331221
0.15277851
0.15235263
0.1519977
0.15170397
0.1515286
0.15137178
0.173879
0.1717671
0.16985661
0.16818615
0.16679561
0.16572737
0.16502123
0.16469036
0.16471541
0.1650723
0.16570946
0.16655442
0.16746691
0.16820576
0.16846733
0.16779332
0.16527301
0.16143153
0.15895786
0.15755544
0.15636543
0.15532295
0.15452786
0.15379979
0.15320515
0.15268946
0.15227677
0.15193244
0.1516457
0.15147539
0.15132201
0.17121847
0.16948736
0.16794223
0.16660775
0.16550335
0.1646641
0.16413593
0.16392786
0.16404118
0.16446949
0.16516105
0.16605356
0.1670169
0.16780742
0.16808646
0.16738414
0.16481333
0.16101423
0.15866104
0.1573198
0.15616981
0.15515066
0.15438271
0.15367614
0.15309982
0.15260165
0.15220177
0.15186775
0.15158796
0.1514223
0.15127209
0.16778961
0.16654157
0.16544197
0.1645096
0.16375507
0.16321695
0.16293354
0.16290473
0.16316002
0.16370446
0.16448535
0.16545177
0.16648773
0.16735515
0.16767619
0.16696918
0.16436888
0.16061948
0.1583747
0.15709004
0.15597993
0.15498338
0.15424111
0.15355542
0.15299666
0.15251536
0.15212778
0.1518037
0.15153047
0.15136935
0.15122209
0.16358034
0.1629127
0.16236257
0.16191882
0.16159151
0.16141699
0.16141735
0.16162531
0.16207657
0.16277712
0.16368094
0.16474806
0.16587801
0.16684759
0.16723793
0.16655456
0.16394554
0.16025286
0.15810276
0.1568687
0.15579764
0.1548225
0.15410386
0.15343809
0.15289593
0.15243068
0.15205485
0.1517403
0.15147302
0.15131651
0.15117224
0.1585228
0.1584889
0.15859689
0.15875974
0.15895686
0.15921057
0.15956464
0.16006713
0.16077141
0.16167261
0.16273555
0.16393314
0.16518013
0.16627844
0.16676952
0.16614647
0.1635528
0.15992337
0.15784768
0.15665522
0.15562185
0.15466685
0.15396976
0.15332306
0.15279672
0.15234695
0.15198248
0.15167719
0.15141549
0.15126359
0.15112187
0.15276208
0.15308889
0.15377568
0.15460792
0.15545929
0.15629182
0.15714589
0.158044
0.15909835
0.16028755
0.16157127
0.16294633
0.16434547
0.16560952
0.16624804
0.16573648
0.1632024
0.15962454
0.15759889
0.15644038
0.15544481
0.1545108
0.15383493
0.15320773
0.15269747
0.1522633
0.15191033
0.15161436
0.15135828
0.1512109
0.15106849
0.076194432
0.0938156
0.10552375
0.11439456
0.12167124
0.12809885
0.13402771
0.13931911
0.14431627
0.14899319
0.15331076
0.15725566
0.16083459
0.16403041
0.16680338
0.16901457
0.17022746
0.1700368
0.16758727
0.16360005
0.16075145
0.15894763
0.15752471
0.15632871
0.15532339
0.15442997
0.15373351
0.15316881
0.1527366
0.15245812
0.15221295
0.075364589
0.093695226
0.10541059
0.11417414
0.1213706
0.1276982
0.13351059
0.13879944
0.14377433
0.14846069
0.15282227
0.15683176
0.16048229
0.16375009
0.16658647
0.16886851
0.17013998
0.17005245
0.16772134
0.16375895
0.16086008
0.15904062
0.15760619
0.15640117
0.15538596
0.15448271
0.15377866
0.15320756
0.15277125
0.15248939
0.15223897
0.075293684
0.093843942
0.1055264
0.11409349
0.1210855
0.12725727
0.13294084
0.13817476
0.14312541
0.14782641
0.15223812
0.15632079
0.16005373
0.16340557
0.16631957
0.16868616
0.17004315
0.17005098
0.16787039
0.16393239
0.16096992
0.15913097
0.15768563
0.15647291
0.15544881
0.15453644
0.15382539
0.15324817
0.15280795
0.15252294
0.15227122
0.075116409
0.093761889
0.10547251
0.11389201
0.120732
0.12677493
0.13234833
0.13752905
0.14245868
0.14717066
0.15162677
0.15577865
0.15959282
0.16302994
0.16602605
0.16847988
0.16993298
0.17004485
0.16802079
0.16412238
0.16109313
0.15923034
0.1577723
0.15655081
0.15551683
0.15459475
0.15387605
0.15329215
0.1528476
0.15255867
0.15230522
0.074707372
0.093446996
0.10522206
0.11357212
0.12033667
0.1262837
0.13176328
0.13689419
0.1417998
0.14651424
0.15100458
0.15521742
0.15910798
0.16262854
0.16570831
0.16824818
0.16980558
0.17003084
0.16816445
0.16432246
0.16122786
0.15933897
0.15786698
0.15663586
0.15559091
0.15465786
0.1539307
0.15333947
0.15289008
0.15259695
0.15234103
0.074226027
0.092912739
0.10482968
0.11321801
0.11993256
0.12579882
0.13119485
0.13627483
0.14115159
0.14586062
0.15037536
0.15464028
0.15860128
0.16220213
0.16536538
0.1679874
0.16966033
0.17000633
0.16830065
0.16452703
0.16136961
0.15945323
0.15796693
0.15672598
0.15566945
0.15472505
0.15398893
0.15338991
0.15293533
0.15263835
0.15237781
0.07385999
0.092344907
0.10438835
0.11282285
0.11950375
0.1253038
0.1306285
0.13565955
0.14050601
0.1452053
0.14973717
0.15404645
0.15807196
0.16174952
0.16499508
0.16769478
0.16948837
0.16996854
0.16842854
0.16473635
0.1615164
0.15957103
0.15807051
0.15682
0.15575173
0.15479622
0.15405087
0.15344383
0.15298389
0.15268188
0.15241591
0.073540366
0.091681018
0.10382216
0.11232908
0.11901002
0.12477057
0.13004376
0.13503478
0.13985453
0.14454365
0.14908813
0.15343536
0.15751965
0.16126991
0.16459588
0.1673717
0.16928105
0.16991189
0.16854047
0.16495311
0.16166831
0.15969217
0.15817751
0.156918
0.15583789
0.15487049
0.15411572
0.15350046
0.15303495
0.15272842
0.15245861
0.073184303
0.090863544
0.1030805
0.11169202
0.11841525
0.12417222
0.12942083
0.13438738
0.13918902
0.14387108
0.14842638
0.15280668
0.15694444
0.16076319
0.16416729
0.16702102
0.16904548
0.16983473
0.16863674
0.16517211
0.16182533
0.15981601
0.15828728
0.15701921
0.15592727
0.15494858
0.15418423
0.15356058
0.15308934
0.15277796
0.15250381
0.072747214
0.089861349
0.10212907
0.11087807
0.11768969
0.12348448
0.12874092
0.13370432
0.13850107
0.14318283
0.1477498
0.15215994
0.15634633
0.1602292
0.16370869
0.16664223
0.16877712
0.16971471
0.16871736
0.16539116
0.16198784
0.15994287
0.15840023
0.15712425
0.15602052
0.15503048
0.15425642
0.15362424
0.15314711
0.15283066
0.152556
0.072179242
0.088639508
0.10093987
0.10986208
0.11680938
0.12268656
0.12798721
0.13297339
0.13778226
0.14247373
0.14705594
0.15149445
0.15572552
0.15966821
0.16322008
0.16623467
0.1684783
0.16956697
0.1687696
0.16561135
0.16215564
0.16007207
0.15851585
0.15723279
0.15611741
0.15511625
0.15433237
0.15369157
0.15320838
0.15288666
0.15259969
0.071439136
0.087184551
0.099486014
0.10861765
0.11575528
0.12176362
0.12714759
0.1321854
0.13702619
0.14173957
0.14634259
0.15080949
0.15508197
0.15908029
0.16270128
0.16579729
0.16814948
0.16938841
0.16879017
0.16581764
0.16232803
0.16020286
0.15863358
0.15734446
0.15621776
0.15520584
0.15441209
0.15376263
0.15327327
0.15294615
0.15265342
0.07044463
0.085460051
0.09775543
0.10713771
0.11451948
0.12070915
0.12621675
0.13133603
0.13622964
0.14097813
0.14560845
0.15010473
0.15441593
0.15846583
0.16215248
0.16532966
0.16779063
0.16917627
0.16877917
0.16600327
0.16250394
0.16033417
0.15875258
0.15745868
0.15632118
0.1552991
0.15449555
0.15383753
0.1533419
0.15300927
0.15270572
0.069167473
0.083459772
0.095745552
0.10542239
0.11310544
0.11952782
0.1251988
0.13042815
0.13539411
0.14019019
0.14485404
0.14938068
0.15372803
0.15782539
0.16157396
0.16483141
0.16740159
0.16892141
0.16873171
0.16617571
0.16268292
0.16046517
0.15887209
0.15757488
0.15642737
0.155396
0.15458274
0.15391632
0.15341442
0.15307616
0.15277281
0.067651837
0.081246415
0.093497602
0.10349956
0.11153926
0.11824144
0.12411048
0.12947382
0.13452756
0.13938029
0.14408195
0.14863893
0.15301933
0.15715959
0.16096597
0.16430195
0.16698153
0.16862978
0.16863569
0.16632773
0.16286326
0.16059428
0.15899093
0.15769226
0.1565357
0.15549613
0.15467354
0.15399906
0.15349093
0.15314692
0.15283494
0.065988135
0.078919658
0.091097006
0.10142348
0.10985905
0.11688331
0.12297926
0.12849353
0.13364412
0.1385573
0.14329724
0.14788238
0.15229142
0.15646914
0.16032838
0.16373975
0.16652627
0.16830041
0.16849011
0.16644882
0.16304472
0.16072107
0.1591083
0.15780993
0.15664571
0.15559956
0.15476785
0.15408571
0.15357154
0.15322172
0.15290115
0.064324687
0.076622927
0.088658658
0.09927624
0.10812393
0.11549624
0.12183857
0.12751281
0.13276198
0.1377334
0.14250712
0.14711467
0.15154599
0.15575461
0.15966041
0.16314152
0.16602637
0.16792643
0.16830569
0.16653398
0.16322141
0.16084222
0.15922238
0.15792717
0.1567567
0.15570542
0.15486542
0.15417632
0.15365624
0.15330057
0.15297098
0.062882341
0.074549499
0.086346234
0.097161164
0.10639511
0.11412375
0.12072176
0.12655719
0.13189951
0.13692044
0.14171876
0.14633957
0.15078435
0.15501575
0.15896023
0.16250191
0.1654681
0.16751617
0.1681006
0.1665925
0.16339914
0.16095854
0.15933273
0.15804179
0.15686732
0.15581387
0.15496604
0.15427066
0.15374514
0.15338361
0.15304557
0.061901033
0.072944004
0.084387633
0.095244467
0.10477031
0.11282112
0.1196622
0.12564809
0.13107054
0.1361268
0.14093606
0.14555835
0.15000636
0.15425132
0.15822571
0.16181748
0.16485
0.1670108
0.167829
0.16661107
0.16356192
0.16106412
0.15943576
0.15815453
0.15697809
0.15592383
0.15506934
0.15436877
0.15383808
0.15347077
0.15312361
0.061645225
0.072059399
0.083022196
0.093717219
0.10336614
0.11164578
0.11868448
0.12479461
0.13027727
0.13535179
0.14015706
0.14476824
0.14920897
0.15345854
0.15745477
0.16108946
0.16418871
0.16647977
0.16752742
0.16658892
0.16369007
0.16116111
0.15953412
0.15826103
0.1570848
0.15603459
0.15517491
0.1544702
0.15393514
0.15356213
0.15320542
0.062205163
0.072065221
0.082457972
0.09276428
0.10230449
0.11064608
0.11779128
0.12398098
0.12950024
0.13457778
0.13936756
0.14395876
0.14838462
0.15263218
0.15664438
0.16031778
0.1634855
0.16589963
0.16715509
0.16650505
0.1638161
0.16124578
0.15961669
0.15836055
0.15719104
0.15614661
0.1552823
0.15457493
0.15403597
0.15365756
0.15329139
0.063820067
0.072917365
0.08266399
0.092433561
0.10161188
0.10982028
0.11695535
0.12316735
0.12869887
0.13377011
0.13854081
0.14311014
0.1475196
0.15176318
0.15578943
0.15949964
0.16273591
0.16526709
0.16671538
0.16633814
0.16391598
0.16131265
0.1596959
0.15845732
0.1572905
0.15625556
0.15539081
0.15468236
0.15414055
0.15375694
0.15338107
0.06637966
0.074730626
0.083598676
0.092620571
0.10127555
0.10917307
0.11616272
0.12231921
0.12782942
0.13288636
0.13764153
0.14219554
0.14659537
0.15083955
0.15488228
0.15863055
0.16193583
0.16458173
0.16621999
0.16612726
0.1639581
0.16137858
0.15975519
0.15853116
0.15738266
0.15636616
0.1554999
0.15479211
0.15424834
0.15386017
0.15347452
0.069484234
0.077023859
0.085035326
0.093210959
0.1011849
0.10861179
0.11533449
0.12136656
0.12683016
0.13187435
0.13662804
0.14118394
0.14558973
0.1498468
0.15391416
0.15770539
0.16108159
0.16384092
0.1656637
0.16587867
0.16394746
0.16139306
0.15979202
0.15860183
0.15747476
0.15646953
0.1556085
0.15490392
0.15435896
0.15396679
0.15357183
0.072793337
0.079460738
0.086549846
0.093843744
0.10106582
0.10795725
0.11435907
0.12023563
0.12564674
0.13069109
0.13546624
0.14004955
0.144484
0.14877219
0.15287709
0.1567192
0.16016915
0.16303753
0.16502661
0.16557991
0.16391234
0.16139429
0.15983357
0.15866365
0.15754586
0.15656982
0.1557158
0.15501627
0.15447193
0.15407685
0.15367353
0.075823736
0.081638072
0.087843948
0.094294134
0.10079406
0.10714908
0.11321336
0.11891882
0.12427401
0.12932921
0.1341465
0.13878219
0.14326955
0.14760977
0.15176768
0.1556699
0.15919683
0.1621695
0.16430698
0.16510949
0.16382405
0.16141493
0.15983607
0.15867271
0.15760597
0.15666717
0.15582095
0.15513001
0.15458638
0.15418906
0.15377875
0.078204684
0.083264672
0.088700955
0.094411147
0.10029172
0.10616313
0.11190484
0.11744051
0.12274094
0.12781389
0.13268717
0.13739383
0.14195386
0.14636373
0.15058918
0.15456128
0.15816931
0.16124652
0.16353532
0.16459689
0.16370828
0.16141338
0.15980795
0.15867048
0.15766884
0.15674389
0.15592172
0.15524176
0.15470158
0.15430456
0.15388959
0.079759542
0.084190078
0.088998514
0.09414657
0.099500162
0.10496952
0.11044182
0.11583093
0.12108674
0.12618503
0.13112381
0.13591337
0.14055943
0.14505158
0.14935497
0.15340424
0.15709655
0.16027839
0.16271629
0.16402501
0.16350403
0.16137694
0.15974948
0.15866894
0.15769991
0.15682775
0.15601986
0.15535334
0.15481735
0.15442004
0.15399844
0.080508426
0.084422497
0.088746441
0.093417911
0.098372745
0.10353525
0.10880881
0.11409881
0.11933436
0.12447373
0.12949204
0.13437635
0.13911842
0.14370093
0.14808777
0.15221686
0.1559929
0.15927547
0.16185403
0.16338677
0.16318537
0.16128915
0.15969295
0.15865178
0.15771612
0.15689411
0.15610895
0.1554608
0.15493034
0.15453878
0.15411918
0.08060275
0.084152886
0.088076772
0.092359087
0.096978322
0.10188618
0.10700348
0.11223754
0.11749598
0.1227061
0.12782384
0.13281927
0.13766819
0.14234656
0.14681789
0.15102416
0.1548781
0.15825223
0.16095785
0.16269502
0.16287772
0.16117005
0.15960874
0.15862059
0.15771581
0.15692768
0.15618968
0.1555643
0.15504447
0.15465417
0.15424297
0.080192793
0.083422019
0.087036476
0.091037656
0.095412448
0.10012507
0.10511656
0.11030619
0.11560152
0.1209099
0.1261527
0.13127684
0.13624536
0.14102523
0.14557961
0.14985607
0.1537767
0.15722768
0.16004092
0.16195048
0.16243058
0.16101389
0.15951451
0.15856501
0.15770291