/*--------------------------------*- C++ -*----------------------------------*\
| =========                 |                                                 |
| \\      /  F ield         | OpenFOAM: The Open Source CFD Toolbox           |
|  \\    /   O peration     | Version:  2406                                  |
|   \\  /    A nd           | Website:  www.openfoam.com                      |
|    \\/     M anipulation  |                                                 |
\*---------------------------------------------------------------------------*/
FoamFile
{
    version     2.0;
    format      ascii;
    arch        "LSB;label=32;scalar=64";
    class       volScalarField;
    location    "0.011";
    object      p;
}
// * * * * * * * * * * * * * * * * * * * * * * * * * * * * * * * * * * * * * //

dimensions      [1 -1 -2 0 0 0 0];

internalField   nonuniform List<scalar> 
8260
(
101055.88
100973.34
100925.58
100867.7
100814.81
100776.48
100755.06
100750.28
100761.21
100785.71
100823.95
100873.5
100931.71
100994.34
101058.24
101123.77
101166.13
101198.25
101225.19
101247.73
101267.49
101284.74
101299.37
101311.98
101322.57
101331.2
101338.04
101343.31
101347.32
101349.35
101351.46
101219.15
101146.62
101075.95
101000.39
100934.36
100883.76
100849.85
100833.26
100832.39
100846.01
100874.23
100915.14
100965.5
101022.14
101077.82
101136.61
101174.49
101206.61
101231.78
101252.87
101271.52
101287.92
101301.88
101313.96
101324.13
101332.43
101339.01
101344.08
101347.95
101349.88
101351.88
101329.14
101262.81
101185.43
101103.02
101030.4
100972.15
100929.5
100904.05
100894.62
100898.37
100918.41
100952.11
100996.27
101048.77
101098.58
101152.96
101185.18
101216.75
101239.52
101258.86
101276.21
101291.62
101304.79
101316.24
101325.93
101333.85
101340.12
101344.97
101348.68
101350.48
101352.4
101419.52
101357.22
101280.37
101196.25
101119.86
101056.04
101006.32
100972.45
100954.45
100950.61
100963.08
100989.89
101028.27
101076.78
101121.45
101171.09
101198.3
101228.21
101248.33
101265.69
101281.56
101295.85
101308.11
101318.85
101327.99
101335.46
101341.38
101345.98
101349.5
101351.17
101353
101497.5
101439.38
101366.17
101283.83
101206.6
101139.7
101084.94
101044.23
101018.55
101007.67
101012.72
101032.53
101064.94
101108.64
101147.72
101190.79
101214.32
101241.05
101258.34
101273.47
101287.67
101300.66
101311.91
101321.83
101330.33
101337.31
101342.82
101347.13
101350.43
101351.95
101353.69
101561.8
101507.59
101439.99
101362.64
101287.87
101220.83
101163.63
101118.37
101086.71
101069.45
101067.57
101080.54
101106.97
101145.03
101177.82
101212.33
101233.54
101255.41
101269.67
101282.32
101294.61
101306.15
101316.23
101325.22
101333
101339.41
101344.47
101348.44
101351.49
101352.84
101354.48
101612.21
101562.14
101500.77
101430.94
101361.62
101297.33
101240.39
101193.06
101157.45
101135.09
101127.19
101133.85
101154.62
101186.2
101211.74
101236.42
101255.72
101271.52
101282.46
101292.35
101302.49
101312.37
101321.15
101329.08
101336.03
101341.79
101346.33
101349.94
101352.7
101353.86
101355.39
101649.98
101604.83
101551.39
101490.2
101427.99
101368.64
101314.33
101267.32
101229.9
101204.05
101191.34
101192.58
101208.28
101232.15
101249.26
101264.62
101280.23
101289.63
101296.84
101303.68
101311.44
101319.4
101326.74
101333.48
101339.48
101344.5
101348.45
101351.64
101354.05
101355.02
101356.42
101679.87
101638.74
101593.07
101541.29
101487.6
101434.98
101385.34
101340.8
101303.63
101276.04
101259.94
101256.88
101268.08
101282.34
101290.47
101298.16
101306.55
101309.9
101312.91
101316.48
101321.59
101327.32
101333.09
101338.48
101343.4
101347.58
101350.85
101353.57
101355.59
101356.34
101357.58
101703.34
101668.75
101629.6
101586.91
101542.65
101497.97
101454.43
101413.96
101378.74
101351.01
101332.97
101326.72
101333.09
101337.27
101336.09
101335.65
101334.56
101332.3
101330.78
101330.94
101333.03
101336.27
101340.25
101344.18
101347.88
101351.09
101353.57
101355.76
101357.33
101357.84
101358.9
101720.76
101703.3
101676.11
101640.61
101601.85
101562.79
101524.58
101488.46
101456.1
101429.53
101411.11
101402.72
101403.07
101396.88
101385.14
101374.11
101364.54
101356.57
101350.53
101347.11
101345.84
101346.45
101348.32
101350.62
101352.97
101355.11
101356.69
101358.25
101359.33
101359.57
101360.39
101756.68
101739.91
101715.93
101688.24
101658.24
101627.22
101596.01
101565.58
101537.34
101513.36
101496.12
101485.61
101475.61
101457.41
101433.67
101412.66
101395.85
101382.22
101371.95
101364.72
101360.23
101357.97
101357.39
101357.89
101358.74
101359.7
101360.28
101361.09
101361.63
101361.59
101362.11
101792.48
101788.05
101776.53
101754.37
101728.95
101703.18
101677.49
101652.04
101627.49
101605.09
101585.62
101566.69
101542.1
101510.87
101478.97
101450.81
101427.6
101409.06
101394.56
101383.75
101375.94
101370.71
101367.6
101366.04
101365.22
101364.91
101364.45
101364.37
101364.32
101363.94
101364.11
101871.22
101860.74
101841.46
101817.42
101793.99
101773.52
101754.4
101734.09
101711.38
101686.16
101658.07
101626.61
101591.85
101555.36
101519.85
101487.66
101459.9
101436.71
101418.13
101403.63
101392.64
101384.66
101378.87
101375.09
101372.46
101370.76
101369.23
101368.15
101367.45
101366.68
101366.48
101904.47
101905.09
101902.47
101896.52
101881.88
101857.24
101829.85
101801.93
101771.52
101738.18
101702.76
101665.73
101627.82
101590.48
101555.18
101522.1
101491.66
101464.91
101442.47
101424.29
101410.06
101399.4
101391.13
101385.06
101380.5
101377.24
101374.66
101372.52
101371.08
101369.85
101369.25
101905.7
101896.89
101884.27
101868.66
101855.22
101844.88
101834.01
101821.38
101800.93
101770.63
101735.88
101698.46
101658.42
101619.51
101584.03
101551.33
101520.78
101492.46
101467.28
101445.81
101428.19
101414.73
101404.22
101395.89
101389.36
101384.37
101380.69
101377.49
101375.23
101373.46
101372.46
101896.66
101888.68
101878.74
101867.28
101855.06
101841.4
101824.15
101802.86
101782.51
101764.69
101746.02
101721.87
101686.36
101647.13
101609.82
101575.59
101545.11
101517.05
101491.12
101467.74
101447.22
101430.8
101417.97
101407.4
101399.02
101392.18
101387.23
101383.02
101379.89
101377.48
101376.08
101867.14
101860.91
101853.42
101844.84
101835.02
101823.66
101810.56
101795.62
101779.27
101761.66
101740.41
101718.53
101697.39
101667.91
101634.59
101599.53
101566.57
101537.79
101512.03
101488.44
101466.66
101447.49
101432.2
101419.45
101409.31
101400.66
101394.24
101389.04
101385
101381.88
101380.12
101838.06
101832.99
101826.87
101819.87
101811.88
101802.68
101792.11
101780.05
101766.43
101751.12
101733.51
101712.4
101689.66
101671.74
101650.29
101620.36
101587.97
101557.31
101530.33
101506.18
101484.42
101464.01
101446.71
101431.83
101419.94
101409.75
101401.66
101395.4
101390.49
101386.62
101384.55
101805.84
101801.86
101797.05
101791.57
101785.31
101778.1
101769.79
101760.2
101749.17
101736.43
101721.86
101705.69
101689.85
101671.48
101650.09
101630.66
101604.51
101575.64
101548.07
101521.93
101499.2
101478.85
101460.68
101444.32
101430.7
101419.25
101409.54
101402.02
101396.25
101391.71
101389.35
101775.14
101771.99
101768.17
101763.83
101758.88
101753.19
101746.63
101739.09
101730.41
101720.46
101709.09
101696.24
101681.78
101665.81
101648.55
101631.23
101613.74
101589.65
101563.17
101537.18
101512.99
101491.75
101473.4
101456.54
101441.42
101428.84
101417.81
101408.9
101402.24
101397.11
101394.5
101744.35
101741.91
101738.96
101735.63
101731.83
101727.44
101722.39
101716.55
101709.82
101702.08
101693.2
101683.05
101671.54
101658.3
101643.94
101627.55
101611.52
101597.23
101574.57
101549.78
101526.96
101504.91
101485.1
101467.88
101451.87
101438.25
101426.31
101416.11
101408.45
101402.82
101399.97
101714.58
101712.68
101710.4
101707.82
101704.87
101701.48
101697.56
101693.04
101687.82
101681.79
101674.84
101666.86
101657.72
101647.36
101635.56
101622.88
101608.71
101593.83
101578.24
101557.58
101537.49
101517.16
101496.52
101478.26
101461.79
101447.3
101434.74
101423.65
101414.94
101408.82
101405.72
101685.88
101684.47
101682.75
101680.82
101678.62
101676.08
101673.13
101669.72
101665.78
101661.21
101655.93
101649.82
101642.77
101634.63
101625.32
101614.63
101602.61
101588.52
101572.28
101557.77
101542.01
101524.98
101506.48
101488.06
101471.12
101455.91
101442.85
101431.36
101421.78
101415.14
101411.74
101659.08
101657.99
101656.69
101655.22
101653.53
101651.58
101649.31
101646.67
101643.61
101640.03
101635.87
101631.03
101625.43
101619
101611.73
101603.63
101594.37
101584.1
101573.24
101558.79
101542.89
101527.86
101512.44
101496.22
101479.95
101464.21
101450.6
101438.97
101428.93
101421.82
101418.11
101632.99
101632.2
101631.24
101630.16
101628.91
101627.46
101625.78
101623.81
101621.53
101618.86
101615.75
101612.14
101607.95
101603.08
101597.36
101590.64
101582.92
101574.41
101567.03
101559.64
101546.23
101530.19
101515.16
101500.67
101486.66
101471.92
101457.97
101446.24
101436.25
101428.87
101424.9
101609.99
101609.38
101608.65
101607.83
101606.91
101605.84
101604.6
101603.17
101601.5
101599.55
101597.26
101594.56
101591.37
101587.58
101583.12
101577.92
101571.99
101565.3
101557.65
101550.53
101543.68
101532.43
101518.31
101503.88
101490.87
101477.97
101464.89
101453.17
101443.42
101436.14
101432.09
101588.71
101588.27
101587.75
101587.17
101586.49
101585.71
101584.8
101583.73
101582.49
101581.03
101579.33
101577.35
101575.05
101572.38
101569.28
101565.64
101561.29
101556.07
101550.04
101542.46
101534.73
101528.53
101519.23
101506.19
101493.77
101482.28
101470.78
101459.64
101450.23
101443.29
101439.36
101571.76
101571.41
101571.01
101570.56
101570.04
101569.45
101568.76
101567.95
101567.02
101565.92
101564.64
101563.12
101561.32
101559.15
101556.57
101553.47
101549.73
101545.37
101540.28
101534.7
101528.3
101520.02
101511.8
101504.68
101495.26
101484.89
101474.76
101464.85
101456.08
101449.55
101445.9
101555.66
101555.33
101554.95
101554.52
101554.03
101553.45
101552.77
101551.98
101551.06
101549.99
101548.74
101547.29
101545.61
101543.65
101541.38
101538.77
101535.8
101532.36
101528.36
101523.7
101518.42
101513.06
101508.04
101501.94
101493.99
101485.55
101476.95
101468.29
101460.38
101454.5
101451.02
101537.93
101537.61
101537.27
101536.91
101536.5
101536.06
101535.55
101534.98
101534.33
101533.58
101532.72
101531.72
101530.56
101529.2
101527.62
101525.78
101523.63
101521.12
101518.2
101514.92
101511.29
101507.23
101502.33
101496.5
101490.09
101483.01
101475.38
101467.74
101460.66
101454.99
101451.49
100418.63
100405.11
100396.39
100388.17
100379.47
100374.63
100379.87
100397.03
100423.03
100461.54
100511.48
100571.1
100638.71
100711.96
100787.99
100870.49
100942.7
101018.84
101067.03
101114.64
101158.3
101194.71
101226.02
101252.22
101274.07
101291.82
101306.14
101317.14
101325.38
101330.47
101334.01
100430.38
100415.24
100395.2
100378.98
100367.84
100365.51
100375.34
100398.43
100431.89
100476.12
100529.95
100591.94
100660.55
100733.16
100807.58
100887.26
100957.76
101027.51
101069.82
101120.48
101163.24
101198.81
101229.32
101254.86
101276.18
101293.49
101307.47
101318.21
101326.26
101331.22
101334.82
100391.19
100366.02
100342.59
100329.71
100327.29
100334.95
100354.74
100386.93
100427.9
100478.39
100537.19
100602.76
100673.62
100746.99
100821.62
100899.52
100971.35
101035.45
101075.12
101126.99
101168.39
101203.01
101232.68
101257.55
101278.31
101295.19
101308.82
101319.29
101327.15
101331.98
101335.61
100328.11
100306.77
100290.62
100285.61
100291.18
100307.44
100335.38
100374.59
100422.32
100478.58
100541.93
100610.8
100683.82
100758.21
100834.25
100910.18
100983.13
101043.02
101082.09
101133.48
101173.48
101207.19
101236.04
101260.24
101280.45
101296.89
101310.18
101320.37
101328.04
101332.74
101336.39
100245.65
100232.57
100226.5
100232.58
100249.67
100277.25
100315.28
100362.76
100417.79
100479.85
100547.51
100619.42
100694.35
100769.67
100847.27
100921.98
100994.37
101050.21
101089.6
101139.88
101178.55
101211.35
101239.38
101262.92
101282.59
101298.6
101311.54
101321.47
101328.94
101333.51
101337.14
100147.42
100147.35
100155.94
100176.78
100207.75
100247.75
100296.33
100352.45
100414.73
100482.35
100554.09
100628.79
100705.38
100781.47
100860.59
100934.65
101004.11
101056.59
101097.27
101146.16
101183.57
101215.47
101242.71
101265.6
101284.73
101300.31
101312.9
101322.57
101329.84
101334.29
101337.89
100035.06
100054.38
100082.22
100120.42
100166.58
100219.57
100278.89
100343.74
100413
100485.87
100561.36
100638.6
100716.59
100793.3
100873.54
100947.02
101013.33
101062.63
101105.03
101152.32
101188.55
101219.56
101246.01
101268.27
101286.87
101302.02
101314.28
101323.68
101330.76
101335.07
101338.64
99920.572
99962.418
100010.88
100066.83
100128.23
100193.99
100263.79
100337.01
100412.78
100490.43
100569.31
100648.76
100727.86
100805.14
100885.96
100958.54
101023.4
101068.81
101112.86
101158.36
101193.49
101223.61
101249.3
101270.93
101289.01
101303.74
101315.65
101324.79
101331.67
101335.85
101339.38
99813.725
99877.616
99945.254
100018.16
100094.26
100172.1
100251.67
100332.6
100414.24
100496.14
100577.96
100659.27
100739.25
100817.65
100898.06
100969.23
101033.63
101075.56
101120.65
101164.29
101198.38
101227.63
101252.55
101273.57
101291.13
101305.45
101317.03
101325.9
101332.6
101336.64
101340.11
99718.475
99803.477
99887.98
99976.695
100066.49
100154.94
100243.1
100330.82
100417.53
100503.05
100587.33
100670.14
100750.94
100831.02
100910.12
100979.8
101042.95
101082.99
101128.34
101170.14
101203.22
101231.61
101255.79
101276.2
101293.25
101307.16
101318.4
101327.02
101333.53
101337.44
101340.83
99638.852
99741.112
99842.94
99945.543
100046.38
100143.32
100238.66
100331.97
100422.77
100511.17
100597.4
100681.48
100763.51
100844.98
100921.55
100990.18
101051.44
101090.85
101135.88
101175.89
101208
101235.54
101258.99
101278.8
101295.36
101308.87
101319.78
101328.14
101334.46
101338.23
101341.55
99582.666
99698.876
99812.964
99924.783
100033.15
100137.92
100239.22
100336.47
100430.17
100520.67
100608.42
100693.63
100777.17
100857.53
100931.43
101000.34
101059.55
101098.93
101143.26
101181.57
101212.73
101239.43
101262.16
101281.39
101297.46
101310.57
101321.15
101329.27
101335.39
101339.03
101342.26
99554.479
99678.847
99799.4
99916.587
100029.93
100139.06
100244.23
100344.86
100440.43
100532.19
100620.98
100706.97
100789.41
100867.18
100941.89
101010.58
101067.53
101107.12
101150.48
101187.17
101217.39
101243.28
101265.3
101283.96
101299.54
101312.26
101322.52
101330.39
101336.33
101339.83
101342.95
99554.677
99682.124
99803.69
99921.934
100036.86
100147.75
100254.98
100357.6
100454.54
100546.64
100635.09
100719.6
100799.54
100876.51
100952.33
101019.83
101075.62
101115.36
101157.54
101192.69
101222
101247.08
101268.41
101286.5
101301.61
101313.94
101323.88
101331.51
101337.27
101340.64
101343.64
99569.985
99701.561
99823.462
99940.698
100054.72
100165.28
100272.53
100373.94
100470.01
100560.38
100645.28
100728.63
100810.43
100887.26
100962.11
101028.92
101083.95
101123.63
101164.43
101198.14
101226.53
101250.82
101271.47
101289.01
101303.66
101315.61
101325.24
101332.63
101338.21
101341.44
101344.33
99592.119
99724.938
99848.533
99966.235
100079.06
100187.33
100291.84
100388.18
100479.33
100569.18
100657.35
100741.37
100822.6
100897.97
100971.62
101038.48
101092.42
101131.89
101171.14
101203.5
101230.99
101254.51
101274.5
101291.49
101305.68
101317.27
101326.59
101333.74
101339.15
101342.25
101345.03
99669.188
99781.169
99888.861
99996.664
100103.36
100206.37
100303.45
100399.6
100495.81
100585.46
100672.08
100755.09
100834.98
100908.5
100981.11
101048.23
101100.91
101140.09
101177.66
101208.78
101235.38
101258.14
101277.48
101293.94
101307.69
101318.91
101327.93
101334.85
101340.09
101343.06
101345.73
99813.941
99901.45
99983.09
100068.41
100157.75
100248.16
100336.71
100427.32
100518.66
100604.5
100688.04
100769.13
100847.44
100919.01
100990.58
101057.9
101109.37
101148.15
101184.03
101213.96
101239.69
101261.72
101280.42
101296.36
101309.67
101320.54
101329.26
101335.96
101341.03
101343.86
101346.45
99954.628
100026.83
100089.67
100155.9
100227.73
100303.18
100379.72
100460.76
100545.07
100625.35
100704.95
100783.55
100860.01
100929.59
100999.98
101067.4
101117.72
101156.05
101190.26
101219.06
101243.93
101265.23
101283.31
101298.74
101311.63
101322.15
101330.58
101337.06
101341.96
101344.67
101347.17
100113.38
100165.28
100206.52
100252.49
100305.91
100364.92
100427.81
100498.08
100574.16
100648.07
100722.83
100798.31
100872.61
100940.24
101009.28
101076.62
101125.95
101163.76
101196.38
101224.06
101248.07
101268.67
101286.14
101301.07
101313.55
101323.73
101331.88
101338.14
101342.88
101345.48
101347.89
100292.44
100320.18
100336.76
100359.71
100392.22
100432.76
100481.57
100539.75
100605.67
100672.64
100741.7
100813.35
100885.17
100950.97
101018.42
101085.43
101134
101171.16
101202.3
101228.9
101252.08
101272
101288.89
101303.34
101315.43
101325.29
101333.17
101339.22
101343.8
101346.29
101348.61
100491.99
100491.42
100481.22
100478.76
100487.35
100509.43
100543.97
100587.05
100640.58
100700
100762.52
100829.41
100898.16
100962.06
101027.53
101093.77
101141.58
101177.93
101207.92
101233.54
101255.91
101275.2
101291.54
101305.54
101317.26
101326.81
101334.44
101340.29
101344.72
101347.09
101349.33
100719.45
100690.38
100654.61
100624.1
100607.61
100607.51
100620.96
100647
100685.51
100734.42
100788.6
100849.13
100913.5
100974.71
101037.32
101101.76
101148.33
101183.81
101213.23
101238.03
101259.64
101278.32
101294.15
101307.71
101319.08
101328.33
101335.7
101341.36
101345.64
101347.9
101350.08
100956.69
100914.67
100869.53
100816.98
100770.8
100739.92
100726.09
100729.31
100748.54
100780.6
100823.11
100874.89
100933
100990.49
101049.17
101110.94
101154.93
101189.7
101218.78
101242.73
101263.52
101281.55
101296.82
101309.93
101320.92
101329.87
101336.97
101342.43
101346.57
101348.71
101350.89
100459.28
100453.59
100444.15
100435.56
100428.53
100424.75
100428.01
100440.59
100461.46
100494.43
100538.61
100592.65
100654.93
100723.25
100794.14
100870.55
100938.09
101007.72
101061.23
101108.65
101153.87
101191.15
101223.16
101249.92
101272.25
101290.37
101304.99
101316.23
101324.64
101329.85
101333.42
100468.19
100466.66
100458.68
100449.87
100442.75
100439.95
100443.39
100452.59
100471.4
100501.88
100543.4
100594.92
100655.01
100721.73
100791.76
100867.19
100937.16
101003.91
101059.96
101106.24
101151.58
101189.09
101221.4
101248.45
101271.03
101289.37
101304.18
101315.57
101324.09
101329.38
101332.96
100463.66
100462.29
100457.68
100453.69
100450.49
100450.16
100454.88
100464.57
100483.06
100511.93
100551.21
100600.31
100658.06
100722.79
100791.53
100865.26
100936.14
101002.4
101058.51
101104.22
101149.71
101187.34
101219.85
101247.11
101269.89
101288.41
101303.38
101314.9
101323.53
101328.89
101332.32
100459.37
100459.16
100458.41
100458.45
100459
100461.42
100467.72
100478.72
100497.15
100524.6
100561.7
100608.27
100663.44
100725.79
100792.74
100864.04
100934.69
101000.68
101056.48
101101.85
101147.61
101185.44
101218.18
101245.67
101268.66
101287.38
101302.51
101314.18
101322.92
101328.36
101331.65
100457.77
100460.17
100462.62
100465.22
100468.29
100473.01
100480.92
100493.07
100511.53
100537.84
100572.99
100617.14
100669.74
100729.61
100794.55
100863.12
100932.99
100998.7
101054.11
101099.23
101145.27
101183.34
101216.34
101244.08
101267.31
101286.25
101301.56
101313.4
101322.25
101327.79
101330.97
100457.26
100461.94
100466.9
100471.76
100477.12
100483.98
100493.51
100506.78
100525.42
100550.91
100584.41
100626.35
100676.49
100733.9
100796.73
100862.56
100931.61
100996.83
101051.72
101096.51
101142.82
101181.1
101214.37
101242.37
101265.86
101285.03
101300.55
101312.56
101321.54
101327.18
101330.32
100456.67
100463.32
100470.42
100477.64
100485.37
100494.38
100505.6
100520.02
100538.99
100563.91
100596.01
100635.94
100683.72
100738.69
100799.36
100862.75
100930.87
100995.06
101049.73
101093.75
101140.34
101178.8
101212.32
101240.59
101264.34
101283.75
101299.47
101311.67
101320.79
101326.54
101329.68
100457.03
100465.49
100474.5
100483.86
100493.79
100504.8
100517.62
100533.14
100552.52
100577.02
100607.91
100645.99
100691.51
100744.07
100802.51
100863.9
100930.24
100993.12
101048.22
101091.09
101137.86
101176.48
101210.23
101238.75
101262.75
101282.41
101298.35
101310.73
101320
101325.86
101328.98
100459.69
100469.71
100480.35
100491.46
100503.17
100515.84
100530.04
100546.51
100566.25
100590.41
100620.21
100656.55
100699.91
100750.09
100806.24
100865.75
100929.61
100991.22
101046.81
101088.65
101135.4
101174.12
101208.09
101236.85
101261.11
101281.01
101297.16
101309.73
101319.16
101325.13
101328.13
100465.63
100476.9
100488.82
100501.2
100514.21
100528.1
100543.32
100560.49
100580.44
100604.22
100632.99
100667.69
100708.96
100756.79
100810.6
100868.17
100929.9
100989.58
101045.04
101086.41
101132.95
101171.75
101205.91
101234.89
101259.39
101279.54
101295.91
101308.69
101318.27
101324.36
101327.33
100475.64
100487.74
100500.54
100513.71
100527.49
100542.11
100557.91
100575.42
100595.36
100618.66
100646.37
100679.48
100718.69
100764.19
100815.63
100871.14
100930.87
100988.56
101043.2
101084.45
101130.56
101169.37
101203.68
101232.87
101257.61
101278
101294.6
101307.58
101317.32
101323.55
101326.62
100490.44
100502.93
100516.15
100529.58
100543.55
100558.33
100574.22
100591.65
100611.27
100633.89
100660.47
100691.98
100729.17
100772.36
100821.38
100874.75
100932.44
100988.55
101041.74
101082.87
101128.24
101167.01
101201.44
101230.8
101255.77
101276.41
101293.23
101306.41
101316.33
101322.68
101325.93
100510.04
100522.63
100535.85
100549.05
100562.7
100577.1
100592.55
100609.46
100628.4
100650.1
100675.43
100705.29
100740.46
100781.35
100827.93
100879.05
100934.57
100988.59
101040.53
101081.82
101126.05
101164.7
101199.19
101228.7
101253.87
101274.75
101291.79
101305.19
101315.28
101321.77
101325.12
100535.29
100547.34
100559.94
100572.35
100585.1
100598.57
100613.07
100629.01
100646.92
100667.43
100691.34
100719.49
100752.62
100791.21
100835.31
100884.09
100937.28
100988.89
101039.45
101081.1
101124
101162.48
101196.96
101226.57
101251.93
101273.04
101290.3
101303.9
101314.17
101320.81
101324
100564.48
100575.76
100587.54
100598.9
100610.4
100622.55
100635.71
100650.31
100666.86
100685.95
100708.29
100734.64
100765.71
100801.98
100843.57
100889.89
100940.45
100989.7
101039
101080.7
101122.15
101160.37
101194.78
101224.43
101249.96
101271.28
101288.75
101302.56
101313.01
101319.79
101323.05
100596.66
100607.06
100617.77
100627.85
100637.91
100648.51
100660.11
100673.15
100688.13
100705.63
100726.29
100750.79
100779.77
100813.71
100852.78
100896.51
100944.07
100991.1
101039.28
101080.78
101120.53
101158.42
101192.66
101222.31
101247.96
101269.48
101287.15
101301.16
101311.8
101318.73
101322.04
100630.4
100639.53
100649.07
100657.92
100666.58
100675.67
100685.7
100697.14
100710.51
100726.36
100745.29
100767.92
100794.82
100826.45
100862.98
100904.02
100948.22
100993.02
101040.51
101081.4
101119.19
101156.68
101190.66
101220.22
101245.95
101267.65
101285.5
101299.71
101310.53
101317.61
101321.03
100664.24
100672.09
100680.45
100688.15
100695.55
100703.27
100711.86
100721.82
100733.68
100747.96
100765.21
100786.01
100810.89
100840.24
100874.24
100912.54
100953.42
100996.65
101043.27
101082.52
101118.18
101155.22
101188.79
101218.19
101243.95
101265.79
101283.82
101298.2
101309.21
101316.45
101319.98
100697.69
100704.09
100711.11
100717.68
100723.99
100730.58
100737.99
100746.74
100757.32
100770.22
100785.95
100805.05
100827.98
100855.12
100886.64
100922.29
100960.68
101002.25
101046.71
101083.97
101117.65
101154.08
101187.11
101216.25
101241.99
101263.93
101282.11
101296.66
101307.84
101315.23
101318.86
100729.11
100734.27
100740.09
100745.58
100751.04
100756.9
100763.58
100771.53
100781.18
100792.99
100807.44
100825
100846.11
100871.12
100900.24
100933.31
100969.35
101008.22
101049.3
101085.76
101117.97
101153.35
101185.65
101214.44
101240.07
101262.08
101280.38
101295.07
101306.42
101313.97
101317.71
100760.28
100763.52
100767.57
100772
100776.91
100782.38
100788.71
100796.22
100805.29
100816.32
100829.72
100845.91
100865.32
100888.3
100915.06
100945.55
100979.06
101015.09
101052.91
101088.14
101118.91
101153.06
101184.47
101212.79
101238.24
101260.25
101278.65
101293.46
101304.96
101312.66
101316.51
100789.65
100792.4
100795.86
100799.07
100802.9
100808.02
100814.14
100821.39
100830.05
100840.45
100852.95
100867.91
100885.71
100906.72
100931.15
100959.02
100989.86
101023.08
101058.03
101090.96
101120.53
101153.25
101183.62
101211.37
101236.52
101258.46
101276.92
101291.84
101303.47
101311.31
101315.26
100817.57
100819.44
100822.52
100826.25
100830.42
100835.22
100840.97
100847.87
100856.1
100865.88
100877.48
100891.21
100907.42
100926.45
100948.54
100973.77
101001.83
101032.17
101064.08
101095.06
101123.24
101154.03
101183.21
101210.19
101234.92
101256.73
101275.21
101290.21
101301.95
101309.92
101313.99
100848.8
100850.27
100852.59
100855.67
100859.55
100864.12
100869.64
100876.23
100883.96
100893.02
100903.62
100916.04
100930.58
100947.57
100967.28
100989.81
101015.01
101042.34
101070.78
101098.86
101126.89
101155.52
101183.19
101209.45
101233.53
101255.12
101273.55
101288.59
101300.42
101308.51
101312.69
100882.6
100884.1
100886.33
100888.96
100892.31
100896.47
100901.49
100907.4
100914.3
100922.33
100931.67
100942.57
100955.29
100970.13
100987.36
101007.13
101029.39
101053.62
101078.7
101104.85
101131.37
101157.79
101183.59
101209.14
101232.42
101253.67
101271.96
101287
101298.89
101307.08
101311.36
100918.95
100920.48
100922.64
100925.05
100927.99
100931.61
100935.96
100941.02
100946.88
100953.66
100961.54
100970.73
100981.46
100994.02
101008.68
101025.66
101044.93
101066.15
101088.53
101112.41
101135.89
101160.7
101185.06
101209.09
101231.63
101252.45
101270.46
101285.45
101297.38
101305.65
101310.01
100956.79
100958.42
100960.55
100962.5
100964.84
100968.06
100971.85
100976.13
100980.95
100986.45
100992.79
101000.15
101008.81
101019.02
101031.07
101045.21
101061.51
101079.76
101099.38
101120.44
101141.04
101162.57
101186.37
101210.21
101231.77
101251.47
101269.1
101283.98
101295.9
101304.22
101308.66
100993.76
100995.41
100997.42
100999.75
101002.53
101005.37
101008.45
101011.86
101015.64
101019.87
101024.66
101030.22
101036.8
101044.68
101054.16
101065.5
101078.86
101094.14
101110.91
101129.03
101146.67
101166.13
101189.12
101211.05
101231.62
101250.76
101267.91
101282.62
101294.47
101302.81
101307.33
101029.72
101031.1
101033.41
101035.94
101038.45
101041.05
101043.77
101046.59
101049.55
101052.7
101056.15
101060.08
101064.74
101070.42
101077.46
101086.13
101096.67
101109.07
101123.03
101138.38
101153.38
101171
101191.74
101212.24
101232.13
101250.35
101266.95
101281.39
101293.14
101301.45
101305.96
101064.21
101065.81
101067.83
101070.06
101072.37
101074.72
101077.12
101079.49
101081.78
101084.02
101086.33
101088.86
101091.83
101095.56
101100.38
101106.61
101114.55
101124.26
101135.55
101148.17
101161.19
101176.65
101195.07
101214.27
101232.81
101250.11
101266.28
101280.34
101291.91
101300.17
101304.68
101098.33
101098.98
101100.47
101102.18
101103.98
101105.88
101107.8
101109.67
101111.37
101112.88
101114.27
101115.65
101117.25
101119.35
101122.28
101126.42
101132.08
101139.42
101148.34
101158.69
101169.88
101182.89
101199.22
101216.48
101233.84
101250.5
101265.99
101279.53
101290.83
101298.98
101303.61
101132.75
101132.77
101133.32
101134.11
101134.99
101135.88
101136.78
101137.64
101138.4
101139.01
101139.46
101139.84
101140.32
101141.13
101142.58
101145.03
101148.82
101154.17
101161.08
101169.4
101178.75
101189.6
101203.86
101219.56
101235.73
101251.15
101265.88
101278.97
101289.94
101297.9
101302.52
101157.97
101158.76
101160.42
101162.24
101163.2
101163.18
101163.01
101162.82
101162.55
101162.15
101161.64
101161.1
101160.65
101160.47
101160.82
101162.02
101164.4
101168.21
101173.47
101180.06
101187.77
101196.71
101209.08
101223.28
101237.71
101252.27
101266.34
101278.73
101289.27
101296.98
101301.37
101182.03
101180.58
101179.55
101178.81
101179.02
101180.13
101181.28
101182.2
101182.09
101180.97
101179.77
101178.62
101177.59
101176.84
101176.57
101177.05
101178.55
101181.29
101185.34
101190.58
101196.94
101204.2
101214.79
101227.18
101240.45
101254.27
101267.14
101278.77
101288.86
101296.29
101300.51
101203.42
101202.39
101201.41
101200.24
101198.83
101197.27
101195.62
101194.04
101193.27
101193.23
101192.98
101192.14
101190.95
101190.06
101189.7
101190.03
101191.21
101193.39
101196.64
101200.91
101206.17
101212.1
101221.04
101231.91
101244.11
101256.35
101268.07
101279.24
101288.76
101295.85
101299.96
101212.11
101211.91
101211.55
101211.01
101210.33
101209.49
101208.49
101207.23
101205.75
101204.21
101202.73
101201.66
101201.1
101200.81
101200.9
101201.5
101202.73
101204.7
101207.47
101211.03
101215.37
101220.33
101227.73
101237.2
101247.79
101259.02
101270.04
101280.05
101288.99
101295.71
101299.56
101215.09
101214.87
101214.59
101214.3
101214.01
101213.69
101213.33
101212.97
101212.65
101212.39
101212.13
101211.59
101211.16
101211.28
101211.73
101212.54
101213.82
101215.67
101218.1
101221.09
101224.63
101228.76
101234.76
101242.95
101252.07
101262.15
101272.14
101281.48
101289.67
101295.95
101299.48
101218.79
101219.13
101219.39
101219.56
101219.75
101219.97
101220.22
101220.5
101220.79
101221.07
101221.02
101220.91
101221.42
101222.15
101222.93
101223.88
101225.13
101226.75
101228.79
101231.23
101234.06
101237.42
101242.16
101249.14
101257
101265.7
101274.83
101283.51
101290.82
101296.62
101299.96
101226.73
101227.09
101227.42
101227.72
101228.08
101228.54
101229.12
101229.76
101230.13
101230.22
101230.87
101232.33
101233.61
101234.46
101235.24
101236.08
101237.04
101238.24
101239.74
101241.56
101243.69
101246.3
101249.96
101255.69
101262.39
101269.9
101278.06
101285.77
101292.6
101297.73
101301.02
101239.78
101239.76
101239.89
101240.04
101240.25
101240.51
101240.82
101241.29
101242.21
101243.52
101244.79
101245.78
101246.53
101247.18
101247.82
101248.44
101249.07
101249.82
101250.77
101251.97
101253.45
101255.38
101258.09
101262.67
101268.27