/*--------------------------------*- C++ -*----------------------------------*\
| =========                 |                                                 |
| \\      /  F ield         | OpenFOAM: The Open Source CFD Toolbox           |
|  \\    /   O peration     | Version:  2406                                  |
|   \\  /    A nd           | Website:  www.openfoam.com                      |
|    \\/     M anipulation  |                                                 |
\*---------------------------------------------------------------------------*/
FoamFile
{
    version     2.0;
    format      ascii;
    arch        "LSB;label=32;scalar=64";
    class       volScalarField;
    location    "0.1";
    object      p;
}
// * * * * * * * * * * * * * * * * * * * * * * * * * * * * * * * * * * * * * //

dimensions      [1 -1 -2 0 0 0 0];

internalField   nonuniform List<scalar> 
2065
(
101948.49
101794.86
101681.54
101550.99
101423.08
101309.14
101220.71
101154.39
101103.69
101072.16
101059.76
101060.33
101069.47
101088.11
101111.53
101138.23
101168.58
101200.16
101232.43
101266.19
101304.62
101344.52
101384.73
101430.76
101479.26
101531.04
101577.93
101602.7
101638.88
101661.83
101601.95
102155.7
102019.86
101876.76
101722.77
101578.18
101449.65
101343.2
101258
101191.11
101144.19
101117.28
101105.87
101104.97
101115.92
101133.37
101155.56
101182.75
101211.96
101242.62
101275.18
101312.4
101351.12
101390.18
101434.51
101481.96
101531.79
101578.2
101603.11
101638.97
101662.18
101600.09
102281
102157.63
102009.67
101850.36
101700.48
101565.59
101449.23
101352.46
101274.32
101215.76
101177.86
101155.43
101145.69
101148.99
101160.07
101176.9
101199.84
101225.44
101253.26
101283.69
101319
101356.26
101394.57
101438.14
101486.07
101534.3
101579.8
101604.1
101639.62
101662.86
101599.15
102372.43
102258.48
102117.51
101962.2
101812.57
101675.07
101552.7
101447.48
101360
101291.35
101242.45
101209.8
101190.98
101185.91
101189.96
101200.87
101218.98
101240.52
101265.22
101293.35
101326.53
101362.23
101399.63
101442.26
101490.46
101537.13
101581.78
101605.38
101641.01
101663.75
101599.01
102442.69
102337.11
102207.86
102061.93
101917.15
101780.69
101655.6
101544.53
101449.29
101371.42
101311.98
101269.12
101240.83
101227.07
101223.12
101227.85
101240.55
101257.64
101278.99
101304.48
101335.28
101369.23
101405.54
101447.02
101494.68
101540.2
101583.88
101606.86
101643.43
101664.85
101599.49
102490.43
102394.44
102278.97
102145.92
102010.05
101878.46
101754.33
101640.6
101539.91
101454.43
101385.64
101332.99
101295.3
101272.25
101260.25
101258.24
101264.79
101277.1
101294.67
101317.06
101345.23
101377.19
101412.24
101452.44
101498.9
101543.67
101586.2
101608.6
101647.04
101666.14
101600.53
102518.64
102432.5
102331.41
102213.1
102089
101965.55
101845.81
101732.76
101629.44
101538.55
101462.09
101400.64
101353.89
101321.62
101301.38
101292
101292.03
101299.09
101312.37
101331.31
101356.54
101386.25
101419.85
101458.61
101503.59
101547.63
101588.77
101610.68
101651.79
101667.56
101602.48
102530.19
102454.05
102367.38
102264.42
102153.71
102040.68
101928.09
101818.7
101715.62
101621.82
101539.78
101470.97
101415.93
101374.87
101346.31
101329.26
101322.42
101323.75
101332.3
101347.41
101369.37
101396.57
101428.48
101465.62
101509.02
101552.12
101591.62
101613.14
101657.29
101669.04
101605.82
102532.2
102471.2
102394.62
102303.69
102205.49
102103.63
101999.87
101896.45
101796.21
101702.1
101616.83
101542.49
101480.42
101431.33
101394.72
101369.95
101356
101351.22
101354.64
101365.52
101383.9
101408.3
101438.27
101473.59
101515.25
101557.18
101594.76
101616.07
101662.91
101670.53
101610.87
102524.46
102480.45
102412.05
102330.33
102243.8
102153.54
102059.84
101964.23
101869.09
101777.15
101691.11
101613.41
101545.95
101490.04
101446.01
101413.75
101392.65
101381.53
101379.49
101385.79
101400.27
101421.59
101449.36
101482.64
101522.39
101562.86
101598.23
101619.5
101668.07
101672.05
101617.84
102494.09
102467.51
102416.67
102346.32
102269.63
102190.23
102107.07
102020.53
101932.34
101844.78
101760.38
101681.63
101610.79
101549.64
101499.25
101460.1
101432.1
101414.59
101406.87
101408.32
101418.62
101436.58
101461.89
101492.91
101530.57
101569.2
101602.07
101623.47
101672.43
101673.68
101626.7
102462.72
102438.59
102401.24
102348.63
102283.4
102213.63
102140.84
102064.16
101984.31
101903.01
101822.43
101744.95
101672.92
101608.44
101553.14
101508.09
101473.78
101450.09
101436.69
101433.12
101439.04
101453.42
101476
101504.54
101539.94
101576.21
101606.37
101627.99
101676.04
101675.45
101637.18
102425.97
102408.14
102376.24
102335.07
102285.16
102225.49
102161.8
102094.74
102023.93
101950.22
101875.28
101801.18
101730.17
101664.47
101606.06
101556.49
101516.83
101487.53
101468.68
101460.11
101461.58
101472.22
101491.83
101517.69
101550.64
101583.91
101611.25
101633.02
101679.09
101677.42
101648.75
102386.13
102373.61
102348.21
102312.44
102273.36
102227.12
102171.45
102112.55
102050.58
101985.18
101917.22
101848.29
101780.37
101715.61
101656.1
101603.76
101560.09
101526.11
101502.37
101489.08
101486.17
101493.02
101509.5
101532.52
101562.79
101592.25
101616.98
101638.5
101681.82
101679.64
101660.83
102342.7
102334.72
102315.43
102286.56
102252.57
102214.16
102168.62
102117.13
102063.4
102006.69
101946.73
101884.47
101821.5
101759.74
101701.26
101648.12
101602.14
101564.78
101537.07
101519.63
101512.68
101515.85
101529.11
101549.19
101576.45
101601.16
101623.91
101644.34
101684.41
101682.23
101672.83
102289.48
102285.06
102270.14
102246.2
102217.94
102189.36
102157.23
102115.44
102067.04
102016.42
101963.76
101908.69
101851.98
101795
101739.58
101687.72
101641.37
101602.29
101571.9
101551.23
101540.81
101540.63
101550.75
101567.84
101591.54
101610.67
101632.19
101650.47
101686.96
101685.07
101684.39
102229.52
102228.62
102217.95
102199.12
102175.84
102149.73
102123.85
102098.01
102063.42
102017.99
101969.16
101920.29
101870.49
101819.76
101769.33
101720.85
101676.23
101637.33
101605.86
101583.2
101570.21
101567.22
101574.45
101588.56
101607.77
101621.22
101641.61
101657
101689.64
101687.9
101695.17
102162.71
102164.94
102158.03
102143.89
102126.4
102106.51
102083.7
102058.21
102033.03
102004.27
101966.15
101922.43
101877.67
101833.38
101789.35
101746.24
101705.44
101668.73
101638.01
101614.87
101600.46
101595.44
101600.2
101611.22
101624.67
101633.92
101651.83
101664.3
101692.7
101690.9
101704.27
102087.86
102092.29
102088.24
102077.71
102064.43
102049.41
102032.21
102012.13
101989.45
101967.86
101947.43
101919.26
101881.03
101840.1
101800.94
101763.83
101728.49
101695.85
101667.68
101645.71
101631.22
101625.16
101627.93
101635.39
101642.13
101649.03
101662.47
101672.6
101696.43
101694.48
101705.28
102013.43
102019.48
102017.82
102010.57
102001.19
101990.56
101978.43
101964.41
101948.07
101928.97
101907.59
101888.19
101870.71
101844.7
101809.68
101775.84
101746.02
101718.68
101694.7
101675.54
101662.38
101656.42
101657.54
101660.53
101661.33
101665.07
101673.1
101681.23
101700.49
101698.76
101713.97
101944.62
101951.31
101951.26
101946.63
101940.47
101933.53
101925.57
101916.31
101905.6
101893.24
101878.95
101862.66
101845.36
101830.78
101812.89
101786.72
101760.8
101738.53
101719.8
101705.04
101694.58
101689.63
101688.91
101686.26
101682.03
101680.71
101683.57
101688.96
101703.81
101701.49
101727.41
101890.56
101896.77
101897.46
101894.67
101890.88
101886.66
101881.8
101876.11
101869.46
101861.79
101853
101842.91
101831.44
101819.91
101812.41
101802.34
101783.47
101763.12
101747.94
101737.78
101729.81
101723.99
101718.56
101710.25
101701.81
101695.95
101694.09
101695.5
101705.73
101700.31
101728.37
101854.79
101859.31
101860.26
101859.18
101857.61
101855.86
101853.78
101851.23
101848.12
101844.37
101839.9
101834.6
101828.23
101820.54
101812.55
101809.28
101810.41
101805.35
101791.84
101776.82
101764.45
101752.95
101741.48
101730.2
101719.66
101711.07
101705.26
101702.13
101707.31
101699.75
101721.78
101838.23
101840.33
101841.13
101841.18
101841.07
101840.9
101840.6
101840.07
101839.26
101838.06
101836.4
101834.16
101831.21
101827.38
101822.48
101816.29
101809.09
101806.02
101806.85
101801.28
101788.56
101773.25
101758.85
101746.76
101735.67
101725.58
101716.98
101710.21
101710.72
101703.08
101711.26
101831.46
101831.59
101831.85
101832.03
101832.15
101832.21
101832.18
101832.03
101831.72
101831.22
101830.45
101829.34
101827.76
101825.66
101822.89
101819.25
101814.56
101808.56
101800.96
101795.55
101793.1
101785.15
101772.05
101759.84
101748.88
101738.18
101727.72
101718.28
101715.45
101709.03
101725.24
101819.78
101819.9
101819.96
101820
101820.02
101820.03
101820.01
101819.95
101819.8
101819.56
101819.2
101818.68
101817.95
101816.94
101815.55
101813.69
101811.2
101807.92
101804.04
101799.64
101793.11
101786.46
101779.53
101769.37
101758.84
101748.09
101736.3
101724.11
101717.67
101710.62
101738.38
101811.11
101811.2
101811.26
101811.31
101811.36
101811.41
101811.44
101811.45
101811.42
101811.36
101811.26
101811.08
101810.81
101810.38
101809.77
101808.87
101807.52
101805.49
101802.62
101798.87
101794.19
101787.91
101780.81
101773.91
101765.22
101755.11
101742.8
101728.72
101718.41
101700.68
101718.94
101804.65
101804.56
101804.45
101804.33
101804.19
101804.02
101803.82
101803.6
101803.37
101803.16
101802.97
101802.81
101802.68
101802.56
101802.36
101801.99
101801.33
101800.32
101798.43
101795.49
101791.77
101788.58
101783.94
101776.63
101769.25
101759.89
101747.36
101732.05
101718.02
101692.53
101712.9
101804.58
101804.05
101803.6
101803.26
101803.03
101802.89
101802.84
101802.85
101802.91
101802.98
101803.02
101803.01
101802.9
101802.63
101802.17
101801.55
101800.9
101800.36
101800.31
101799.76
101797.47
101793.25
101786.88
101779.27
101770.81
101762.28
101750.88
101734.2
101717.74
101690.99
101689.85
101877.83
101875.3
101872.56
101869.69
101866.63
101863.35
101859.87
101856.18
101852.31
101848.32
101844.29
101840.26
101836.25
101832.25
101828.25
101824.2
101819.96
101815.26
101810.08
101805.16
101800.77
101794.8
101786.94
101776.62
101764.51
101755.69
101747.1
101731.18
101714.03
101694.94
101669.96
101880.83
101878.13
101875.12
101872.04
101868.91
101865.75
101862.57
101859.37
101856.15
101852.9
101849.6
101846.22
101842.7
101838.98
101834.95
101830.54
101825.63
101820.18
101813.95
101806.35
101796.49
101782.4
101759.16
101747.43
101748.04
101737.65
101719.37
101705.97
101690.84
101681.2
101643.83
100195.91
100154.26
100113.62
100084.06
100068.02
100068.03
100086.98
100123.08
100175.44
100242.64
100322
100409.81
100502.7
100597.04
100688.15
100776.59
100862.48
100942.47
101016.63
101086.03
101153.03
101216.92
101277.51
101341.95
101404.97
101467.23
101530.12
101574.85
101620.1
101659.47
101684.81
100117.21
100082.52
100050.85
100033.49
100031.09
100044.86
100075.72
100123.01
100184.27
100257.44
100340.32
100429.67
100522.55
100614.65
100703.57
100791.02
100875.44
100953.59
101026.26
101095.18
101161.52
101224.54
101284.13
101347.64
101409.37
101469.74
101531.81
101575.93
101621.07
101659.7
101682.03
99998.89
99970.784
99951.569
99950.79
99966.404
99997.823
100045.42
100107.12
100179.97
100261.95
100351.46
100445.04
100539.04
100630.59
100719.85
100806.88
100889.89
100965.57
101036.86
101104.63
101169.67
101231.49
101290.02
101352.87
101413.77
101473.14
101534.35
101577.25
101622.02
101659.8
101679.56
99860.113
99848.603
99849.558
99869.752
99905.5
99955.412
100018.76
100093.36
100176.87
100266.96
100362.81
100459.05
100553.87
100646.5
100736.11
100822.65
100903.48
100976.83
101047.38
101113.68
101177.43
101238.12
101295.65
101357.87
101418.12
101476.59
101537.06
101578.71
101623
101659.9
101677.49
99703.192
99717.983
99745.474
99790.251
99848.087
99917.472
99996.732
100084.08
100178.02
100275.48
100375.39
100473.3
100570.03
100663.28
100752.84
100838.16
100916.03
100988.18
101057.72
101122.57
101185.1
101244.73
101301.29
101362.81
101422.41
101479.91
101539.65
101580.15
101623.97
101660.01
101675.84
99550.368
99593.848
99647.964
99717.519
99797.335
99886.021
99980.582
100079.61
100183.43
100285.79
100388.79
100489.66
100587.44
100680.89
100770.13
100852.79
100928.16
100999.95
101067.94
101131.37
101192.69
101251.26
101306.84
101367.64
101426.56
101483.17
101542.14
101581.53
101624.93
101660.12
101674.52
99406.684
99479.665
99558.824
99653.679
99754.963
99862.486
99971.29
100079.11
100190.51
100298.58
100404.84
100507.49
100605.78
100699.48
100787.24
100866.33
100940.71
101011.63
101078.02
101140.02
101200.14
101257.66
101312.27
101372.35
101430.58
101486.38
101544.56
101582.89
101625.86
101660.22
101673.54
99274.302
99377.175
99486.99
99604.585
99724.687
99846.285
99966.416
100084.57
100201.79
100314.35
100422.83
100526.65
100625.59
100718.52
100802.64
100879.74
100953.92
101023.16
101087.96
101148.53
101207.46
101263.94
101317.57
101376.93
101434.45
101489.51
101546.92
101584.23
101626.77
101660.31
101673.39
99169.757
99299.19
99433.286
99570.06
99705.787
99839.468
99969.527
100095.48
100217.22
100332.86
100442.83
100547.92
100646.88
100736.21
100817.09
100894.26
100967.08
101034.56
101097.76
101156.89
101214.64
101270.08
101322.74
101381.39
101438.18
101492.57
101549.21
101585.53
101627.65
101660.39
101674.39
99096.68
99247.993
99400.738
99552.425
99700.286
99843.436
99980.876
100111.98
100236.83
100354.51
100465.76
100571.55
100667.6
100752.22
100832.36
100909.16
100980.08
101045.84
101107.41
101165.09
101221.67
101276.09
101327.78
101385.71
101441.75
101495.55
101551.43
101586.82
101628.5
101660.45
101673.72
99062.194
99228.126
99392.762
99553.854
99709.435
99858.648
100000.62
100134.67
100261.23
100380.35
100491.85
100595.01
100685.6
100768.83
100849.33
100924.05
100993.01
101056.99
101116.91
101173.12
101228.55
101281.94
101332.68
101389.89
101445.17
101498.44
101553.57
101588.07
101629.33
101660.46
101671.38
99067.776
99241.058
99410.592
99575.149
99733.537
99885.075
100028.84
100164.54
100292.03
100409.91
100517.88
100615.58
100703.65
100788.04
100866.51
100938.91
101005.87
101068.03
101126.25
101180.98
101235.26
101287.64
101337.44
101393.9
101448.41
101501.26
101555.64
101589.31
101630.13
101660.35
101667.61
99098.198
99278.722
99450.632
99615.336
99772.931
99923.254
100065.56
100199.94
100325.69
100439.25
100542.19
100635.99
100723.72
100807.72
100883.69
100953.79
101018.67
101078.94
101135.44
101188.67
101241.8
101293.2
101342.04
101397.75
101451.47
101503.98
101557.63
101590.51
101630.92
101660.12
101662.69
99134.854
99321.299
99496.524
99663.08
99820.882
99968.967
100107.43
100236.69
100357.63
100467.17
100566.26
100658.8
100747.07
100827.79
100901.05
100968.72
101031.41
101089.74
101144.48
101196.16
101248.16
101298.6
101346.49
101401.42
101454.36
101506.63
101559.55
101591.69
101631.7
101659.82
101656.89
99243.376
99409.984
99569.604
99725.912
99876.569
100019.28
100153.12
100277.06
100390.6
100497.11
100597.23
100687.39
100771.43
100848.35
100918.64
100983.68
101044.08
101100.41
101153.35
101203.47
101254.34
101303.84
101350.78
101404.92
101457.06
101509.18
101561.4
101592.85
101632.48
101659.47
101650.44
99463.656
99597.938
99724.201
99850.774
99977.68
100102
100221.35
100334.21
100439.37
100539.04
100632.41
100717.47
100796.47
100869.44
100936.47
100998.69
101056.7
101110.95
101162.05
101210.57
101260.34
101308.91
101354.91
101408.23
101459.59
101511.65
101563.17
101593.97
101633.25
101659.14
101643.59
99667.293
99783.079
99886.542
99989.791
100094.64
100199.12
100301.56
100400.59
100494.77
100584.88
100669.89
100748.69
100822.4
100891.08
100954.53
101013.74
101069.25
101121.36
101170.58
101217.48
101266.15
101313.79
101358.89
101411.35
101461.99
101514.04
101564.89
101595.05
101634.01
101658.84
101636.58
99902.635
99991.32
100066.07
100142.71
100223.36
100306.24
100389.93
100473.11
100554.32
100633.57
100709.66
100781.42
100849.3
100913.27
100972.84
101028.83
101081.73
101131.64
101178.93
101224.2
101271.77
101318.48
101362.72
101414.28
101464.3
101516.35
101566.54
101596.09
101634.75
101658.62
101629.67
100167.51
100224.74
100266.35
100312.48
100365.69
100424.29
100486.95
100552.31
100618.61
100685.7
100751.93
100815.77
100877.19
100936.02
100991.39
101043.97
101094.15
101141.78
101187.08
101230.73
101277.19
101322.96
101366.41
101417.03
101466.6
101518.57
101568.13
101597.09
101635.46
101658.51
101623.09
100459.79
100481.85
100486.82
100499.09
100521.72
100553.34
100592.79
100638.39
100687.9
100741.43
100796.76
100851.78
100906.08
100959.33
101010.19
101059.14
101106.48
101151.77
101195.05
101237.09
101282.42
101327.24
101369.94
101419.63
101468.88
101520.7
101569.67
101598.03
101636.13
101658.55
101617.13
100774.7
100758.52
100724.31
100700.55
100690.1
100692.38
100706.8
100731.27
100762.22
100800.75
100844.15
100889.47
100935.95
100983.17
101029.22
101074.31
101118.71
101161.59
101202.84
101243.3
101287.48
101331.33
101373.35
101422.09
101471.05
101522.71
101571.14
101598.91
101636.76
101658.79
101614.26
101110.74
101052.43
100976.89
100916.71
100871.6
100842.36
100830.01
100832.38
100842.79
100864.35
100894.47
100929.04
100966.84
101007.5
101048.41
101089.44
101130.8
101171.25
101210.48
101249.42
101292.41
101335.26
101376.66
101424.43
101473.03
101524.56
101572.49
101599.69
101637.33
101659.23
101611.47
101479.57
101377.39
101262.89
101165.48
101081.64
101015.08
100970.93
100947.92
100933.86
100934.77
100949.14
100971.23
100999.09
101032.43
101067.78
101104.5
101142.73
101180.73
101217.99
101255.49
101297.2
101339.05
101379.87
101426.66
101474.81
101526.21
101573.69
101600.37
101637.83
101659.9
101608.26
101842.52
101730.05
101607.11
101472.98
101345.18
101230.74
101145.12
101086.75
101041.27
101015.97
101010.62
101017.76
101033.87
101058.79
101087.94
101119.95
101154.79
101190.2
101225.5
101261.57
101301.85
101342.73
101383
101428.86
101476.55
101527.79
101574.96
101601.14
101638.33
101660.85
101604.14
100268.07
100241.13
100208.29
100179.77
100159.89
100151.33
100158.02
100180.08
100218.11
100271.79
100339.05
100416.79
100501.8
100590.88
100679.52
100766.4
100851.98
100932.83
101008.67
101079.61
101147.88
101212.84
101274.08
101338.56
101400.69
101463.24
101525.81
101572.07
101618.61
101659.07
101688.15
100281.9
100255.9
100231.58
100209.98
100191.83
100183.72
100187.92
100205.82
100239.35
100288.34
100351.04
100424.68
100506.15
100592.35
100679.18
100764.74
100849.18
100929.37
101005.05
101076.16
101144.56
101209.71
101271.34
101336.13
101398.12
101461.78
101524.92
101571.88
101618.53
101659.54
101691.3
100288.75
100268.52
100250.78
100232.31
100218.64
100212.68
100216.69
100232.74
100262.97
100307.73
100365.89
100435.19
100512.77
100595.68
100680.1
100764.04
100847.13
100926.45
101001.75
101072.74
101141.29
101206.57
101268.58
101333.69
101396.01
101460.18
101523.82
101571.45
101618.25
101659.77
101694.08
100301.24
100286.66
100272.28
100257.93
100247.42
100242.93
100246.8
100261.25
100288.31
100328.79
100382.2
100446.82
100520.19
100599.53
100681.29
100763.37
100845.05
100923.49
100998.39
101069.28
101137.84
101203.31
101265.7
101331.13
101394.02
101458.34
101522.39
101570.71
101617.76
101659.81
101696.35
100313.68
100303.01
100292.15
100282.16
100274.66
100271.77
100275.86
100289.14
100313.56
100350.24
100399.19
100459.25
100528.34
100603.99
100682.9
100762.92
100843.05
100920.54
100994.96
101065.79
101134.26
101199.89
101262.68
101328.41
101391.97
101456.29
101520.73
101569.82
100323.7
100316.43
100308.92
100303
100298.69
100297.87
100302.82
100315.58
100338.09
100371.65
100416.66
100285.17
100297
100306.55
100315.97
100324.46
100277.14
100277.91
102394.89
102344.12
100260.83
100244.73
100232.84
100220.23
100210.54
100181.66
100153.22
100137.38
100130.48
99962.063
100016.8
99998.996
99984.942
99988.827
100000.63
99604.458
99723.952
99747.184
99773.086
99808.059
99842.784
99228.054
99401.782
99466.86
99532.797
99598.316
99658.068
98828.374
99083.174
99183.954
99275.551
99376.09
99472.144
98467.19
98780.528
98913.213
99038.64
99172.608
99296.408
98173.351
98529.491
98681.09
98832.54
98992.572
99140.083
97913.901
98330.657
98490.955
98661.921
98844.247
99012.564
97668.159
98183.115
98355.634
98539.764
98737.457
98922.035
97464.117
98066.355
98283.423
98483.343
98686.824
98879.015
97377.625
97967.603
98234.812
98468.664
98685.18
98883.243
97492.977
97967.052
98183.416
98445.647
98690.864
98907.718
97721.737
98149.596
98278.629
98503.255
98729.688
98947.372
97903.617
98366.87
98566.407
98724.401
98903.106
99094.627
98119.667
98562.271
98764.413
98966.582
99159.551
99345.276
98408.514
98829.609
99018.584
99205.569
99389.442
99567.721
98750.797
99147.47
99330.925
99500.679
99668.678
99834.553
99150.591
99519.158
99692.806
99840.084
99987.149
100136.31
99598.345
99936.727
100095.42
100218.18
100341.22
100469.9
100090.11
100393.87
100532.93
100628.73
100724.78
100829.46
100620.9
100880.9
100997.28
101064.84
101132.31
101211.56
101391.56
101482.42
101522.42
101563.19
101620.43
101977.3
101989.66
101998.89
102022.1
102524.91
102627.24
102705.95
102769.71
102810.01
102823.89
102816.56
102786.55
102743.21
102692.75
102634.14
102579.96
102514.31
102524.56
102459.89
102470.93
102404.31
102417.21
102342.05
102356.83
102273.98
102290.86
102199.24
102217.67
102118
102136.26
102037.64
102054.48
101963.67
101977.67
101904.76
101914.96
101861.93
101868.49
101839.91
101842.57
101831.79
101832.48
101819.26
101819.67
101810.84
101811.05
101804.9
101804.81
101805.82
101805.25
101882.42
101880.31
101884.71
101883.07
)
;

boundaryField
{
    Side1
    {
        type            empty;
    }
    Inlet
    {
        type            totalPressure;
        rho             rho;
        psi             none;
        gamma           1;
        p0              uniform 102920.87;
        value           nonuniform List<scalar> 
92
(
102920.87
102920.87
101292.53
101292.79
101293.07
101293.46
101294.02
101294.78
101295.76
101296.94
101298.29
101299.77
101301.3
101302.85
101304.41
101306.03
101307.69
101309.47
102920.87
101312.97
101314.73
102920.87
102920.87
102920.87
101322.35
101324.44
102920.87
102920.87
102920.87
102920.87
101328.54
101328.54
101328.54
101328.54
101328.54
101328.54
101328.54
101328.54
101328.54
101328.54
101328.54
101328.54
101328.54
101328.54
101328.54
101328.54
101328.54
101328.54
101328.54
101328.54
101328.54
101328.54
101328.54
101328.54
101328.54
101328.54
101328.54
101328.54
101328.54
101328.54
101352.02
101328.54
102920.87
102920.87
102920.87
102920.87
102920.87
102920.87
102920.87
102920.87
101296.13
102920.87
102920.87
102920.87
102920.87
102920.87
102920.87
102920.87
102920.87
102920.87
102920.87
102920.87
101291.51
101291.68
101291.85
102920.87
102920.87
102920.87
102920.87
102920.87
101328.54
101328.54
)
;
    }
    Side2
    {
        type            empty;
    }
    Outlet
    {
        type            freestreamPressure;
        freestreamValue nonuniform List<scalar> 0();
        value           nonuniform List<scalar> 0();
    }
    Botwall
    {
        type            zeroGradient;
    }
    Cyli
    {
        type            zeroGradient;
    }
    procBoundary2to0
    {
        type            processor;
        value           nonuniform List<scalar> 
55
(
100305.63
100313.69
100321.69
100328.02
100332.17
100295.46
100302.54
100284.01
100280.81
100280.81
102467.42
102445.08
102445.08
102817
102719.32
100273.02
100273.02
100180.15
100180.15
101176.41
101176.41
101913.04
101913.04
102811.71
102833.21
102870.42
102898.44
102906.22
102896.3
102869.93
102818.53
102756.3
102692.12
102629.66
102570.58
102570.58
102530.58
102471.62
102411.63
102345.67
102274.11
102196.39
102113.43
102032.19
101958.45
101900.51
101858.55
101838.33
101830.98
101818.85
101810.62
101804.99
101806.35
101884.42
101886.19
)
;
    }
    procBoundary2to3
    {
        type            processor;
        value           nonuniform List<scalar> 
35
(
101617.19
101659.82
101699.98
100472.44
100537.35
100609.25
100685.16
100762.92
100841.3
100917.72
100991.55
101062.18
101130.61
101196.31
101259.49
101325.5
101389.8
101454.08
101518.93
101617.19
101568.86
100331.52
100330.67
100327.96
100324.41
100321.57
100320.11
100321.58
100327.81
100340.65
100361.91
100392.98
100472.44
100434.57
100330.67
)
;
    }
}


// ************************************************************************* //
