/*--------------------------------*- C++ -*----------------------------------*\
| =========                 |                                                 |
| \\      /  F ield         | OpenFOAM: The Open Source CFD Toolbox           |
|  \\    /   O peration     | Version:  2406                                  |
|   \\  /    A nd           | Website:  www.openfoam.com                      |
|    \\/     M anipulation  |                                                 |
\*---------------------------------------------------------------------------*/
FoamFile
{
    version     2.0;
    format      ascii;
    arch        "LSB;label=32;scalar=64";
    class       volScalarField;
    location    "0.002";
    object      alphat;
}
// * * * * * * * * * * * * * * * * * * * * * * * * * * * * * * * * * * * * * //

dimensions      [1 -1 -1 0 0 0 0];

internalField   nonuniform List<scalar> 
8951
(
0.045891897
0.05045566
0.055812216
0.06191093
0.068751466
0.076311363
0.084530796
0.093308075
0.10248434
0.11178573
0.12074243
0.12864783
0.13442709
0.13651569
0.13269977
0.12017376
0.095868215
0.058820655
0.026152756
0.011889333
0.0085594747
0.007218642
0.0064073873
0.0058883064
0.0055444516
0.0053506653
0.0052666433
0.0052026776
0.0051405634
0.0049973167
0.0048776884
0.051753388
0.05636719
0.061575718
0.067447446
0.07401459
0.081266246
0.08914771
0.097553323
0.10632101
0.11516915
0.12362654
0.13095918
0.13607558
0.13738963
0.13267229
0.11913756
0.093860866
0.056577526
0.02428878
0.011565948
0.0084481117
0.0071749318
0.0063836254
0.0058747211
0.005536504
0.0053457436
0.0052627684
0.0052006792
0.0051405681
0.0049993962
0.004878306
0.058630807
0.063127467
0.068155068
0.07378075
0.08004503
0.08694545
0.094433263
0.1024061
0.11069285
0.11900508
0.1268603
0.13351224
0.13784484
0.13824865
0.1324803
0.11778062
0.091387946
0.053801345
0.022614947
0.011184442
0.0083894322
0.007150532
0.0063705693
0.0058672751
0.0055320725
0.0053421336
0.0052593912
0.0051990981
0.0051412033
0.0050021504
0.0048790614
0.0666721
0.070936053
0.075704498
0.081026441
0.086935212
0.093427591
0.10045618
0.10791862
0.11563727
0.12331519
0.13045848
0.1363018
0.13970647
0.1390376
0.13203848
0.1159862
0.088317266
0.050429104
0.020972156
0.010822048
0.0083052576
0.0071107878
0.0063483941
0.0058541719
0.0055243095
0.0053366837
0.0052544757
0.0051966688
0.0051414995
0.0050053629
0.0048799678
0.075974818
0.079930363
0.08436104
0.089304344
0.094785334
0.1007955
0.10728414
0.11414505
0.12119275
0.12811851
0.13441528
0.13929692
0.1416012
0.13966583
0.13122304
0.11359851
0.084483665
0.046392997
0.019300229
0.01044718
0.0082223644
0.0070722174
0.0063274255
0.0058417744
0.00551711
0.0053312347
0.0052492185
0.0051939829
0.0051415814
0.005009189
0.0048810803
0.086589491
0.090164725
0.094188676
0.098677545
0.10364962
0.10909043
0.11494351
0.12109567
0.12735057
0.13338436
0.1386739
0.14241218
0.1434113
0.13998057
0.12984608
0.11039969
0.079674602
0.041640047
0.017589265
0.010067167
0.0081266415
0.007024197
0.0063005904
0.0058255004
0.0055076347
0.0053243711
0.0052431964
0.0051906184
0.0051408847
0.0050136915
0.0048823321
0.098483551
0.10160511
0.10516144
0.1091243
0.11350425
0.11828058
0.12338985
0.1287094
0.13402929
0.13900777
0.14310241
0.14548396
0.14493699
0.139743
0.12763198
0.10608873
0.073623941
0.036236811
0.015870671
0.0096930853
0.0080253101
0.0069726369
0.0062721138
0.0058080114
0.0054976489
0.0053168933
0.0052373133
0.0051868293
0.0051386557
0.0050190735
0.0048837089
0.11147155
0.11410919
0.11713414
0.12049792
0.1242002
0.12821134
0.13245835
0.13680638
0.14102939
0.14476526
0.14744912
0.14822685
0.14585412
0.13858776
0.12418041
0.1002536
0.066021828
0.030365031
0.014206569
0.0093651104
0.0079122338
0.0069119337
0.0062380197
0.00578663
0.0054853326
0.0053080355
0.005231247
0.0051822119
0.005136021
0.0050254018
0.0048852124
0.12519901
0.12732033
0.12975757
0.13245009
0.13538692
0.13852716
0.1417849
0.14500979
0.14795676
0.15024059
0.15127057
0.15016446
0.14564841
0.13596166
0.11891306
0.092340311
0.056568794
0.025068815
0.012691928
0.009085672
0.0077886477
0.0068448244
0.0062005386
0.0057627014
0.0054715672
0.0052983327
0.0052245065
0.0051767401
0.0051323953
0.0050329115
0.0048868453
0.13899236
0.14055841
0.14235027
0.14430059
0.14638458
0.14854645
0.15068338
0.15262577
0.15410594
0.15471216
0.15382394
0.15052741
0.14351995
0.13103842
0.11100305
0.08163734
0.045173075
0.02041606
0.011351293
0.008790409
0.0076490041
0.0067670397
0.0061566653
0.0057341526
0.0054550955
0.0052871657
0.0052155631
0.0051699462
0.0051283595
0.0050415445
0.0048886021
0.15162958
0.15261316
0.15370696
0.15484665
0.15599399
0.15707484
0.15796383
0.1584671
0.15828996
0.15698988
0.15391234
0.1481082
0.13825047
0.1226082
0.099312534
0.067310348
0.032408481
0.016219542
0.010199936
0.0085308756
0.0074953735
0.0066800928
0.0061078098
0.0057018155
0.0054368526
0.0052748468
0.005204415
0.0051617008
0.0051240238
0.0050512162
0.0048904605
0.1610695
0.16147003
0.16184043
0.16211797
0.1622541
0.16216099
0.16168803
0.16061178
0.15860519
0.15519003
0.14967341
0.14106593
0.12802941
0.10895269
0.08235289
0.048731914
0.023275506
0.012980526
0.0093241393
0.008242897
0.0073196446
0.0065803296
0.0060509391
0.0056637461
0.0054151942
0.0052609922
0.0051928553
0.0051516955
0.0051196842
0.005061074
0.0048923713
0.164116
0.16388536
0.16349994
0.16290814
0.16201914
0.16071042
0.15880808
0.15606161
0.15210917
0.14643555
0.13830901
0.12668324
0.11025067
0.087782955
0.05845298
0.029643959
0.016268147
0.0106575
0.008912938
0.007980909
0.0071305147
0.0064706199
0.0059867168
0.0056204475
0.0053906748
0.005245857
0.0051802038
0.0051401794
0.0051146394
0.0050671985
0.0048941595
0.15573707
0.15488268
0.15374622
0.15227182
0.15036651
0.1478802
0.14459823
0.14022539
0.13436141
0.12646453
0.11578492
0.10109351
0.081306927
0.056639518
0.033584476
0.018491649
0.011840001
0.0093281395
0.0082984256
0.0076307397
0.0069145468
0.0063508915
0.0059124185
0.0055695958
0.0053620978
0.0052290045
0.0051648101
0.005127081
0.0051092567
0.0050708479
0.0048960243
0.12825348
0.12690876
0.1251906
0.123036
0.12031004
0.11682852
0.11235739
0.10657432
0.099074588
0.08937636
0.077062391
0.062571886
0.046754268
0.031103832
0.019128793
0.012447943
0.0098490809
0.0088911246
0.0079824564
0.007360642
0.0066983657
0.0062182687
0.0058252828
0.0055127597
0.005329878
0.0052107324
0.0051481885
0.0051121891
0.005102175
0.0050739471
0.0048977238
0.083262595
0.081876913
0.080207245
0.078212341
0.075760214
0.072693752
0.068852273
0.064063576
0.058158709
0.050997733
0.042640859
0.033254016
0.024579392
0.01707634
0.012114439
0.0099714262
0.0091086978
0.0080210238
0.0073068876
0.0068972584
0.006450538
0.0060874142
0.0057242698
0.005449454
0.0052922839
0.0051902743
0.005129804
0.0050959228
0.0050948569
0.0050771357
0.004899403
0.042674939
0.042002317
0.041135067
0.040052116
0.038699942
0.037018777
0.0349248
0.032336204
0.029194457
0.025532109
0.021453474
0.017195237
0.013586596
0.01076298
0.0093234535
0.0089733281
0.0081080917
0.0076098769
0.007061605
0.0066454038
0.0062439669
0.0059307082
0.0056119914
0.0053854601
0.0052519228
0.0051678247
0.0051109748
0.0050786363
0.0050868392
0.0050804184
0.0049104971
0.020007576
0.019856422
0.019567707
0.019134504
0.018559565
0.017845631
0.016980936
0.015938612
0.014704056
0.013339967
0.011818965
0.010369231
0.0092100143
0.0085343519
0.0083364218
0.0079830208
0.0075015121
0.0069508165
0.0065422127
0.0062415297
0.0060189583
0.0057817041
0.0054998345
0.0053217166
0.0052099364
0.0051436054
0.0050929669
0.0050609526
0.0050790733
0.005082568
0.0049549252
0.01053014
0.010515294
0.010456387
0.010344365
0.010180366
0.009950975
0.0096742773
0.0093687385
0.0090338109
0.0087055526
0.0082993678
0.0080401432
0.0077880164
0.0076015355
0.0072234305
0.0069445374
0.0068014577
0.0065987297
0.0062866671
0.0060562092
0.0058992203
0.0056188778
0.0053954593
0.0052653032
0.0051744975
0.0051187395
0.0050773999
0.0050474969
0.0050731552
0.0050826792
0.0049869621
0.0073121099
0.0073120009
0.007312805
0.0073142493
0.0073220583
0.0073340706
0.0073086527
0.0072500173
0.0072135759
0.0071322022
0.0070634339
0.0071247809
0.0070673234
0.0068718429
0.0066293899
0.0064849195
0.0064529328
0.0061216281
0.0059168306
0.005736051
0.0056798479
0.0055190113
0.005301911
0.0052061827
0.0051481125
0.0050950182
0.0050656697
0.0050404922
0.0050695735
0.0050805021
0.0049921154
0.0065368022
0.006531204
0.0065261355
0.0065177621
0.0065143932
0.0065158835
0.0065255154
0.0065417483
0.0065408171
0.0065314083
0.0065299758
0.0064567091
0.0063581885
0.0063756561
0.0063401778
0.0061004104
0.0059347224
0.0059064468
0.0057875502
0.0055726452
0.0055230206
0.0053535942
0.0052318644
0.0051690575
0.0051217749
0.0050768381
0.0050573169
0.0050367215
0.0050676115
0.0050813411
0.0049958513
0.005904305
0.0059122933
0.0059245265
0.0059385008
0.0059463643
0.0059466726
0.0059431821
0.0059379744
0.0059311242
0.0059166343
0.0058640691
0.0058351968
0.0058452535
0.0057863275
0.0057383797
0.0056675112
0.0056881682
0.0055652461
0.005490458
0.0053838299
0.0052950811
0.0052409214
0.0051915101
0.0051282854
0.0050933031
0.0050609479
0.0050497345
0.0050347502
0.0050689137
0.0050683623
0.0050008844
0.0056096753
0.0056106223
0.0056100069
0.005607916
0.0056065266
0.0056069512
0.0056073872
0.0056045909
0.0055943662
0.0055719618
0.0055339792
0.0054960087
0.0054735385
0.0054490339
0.0054284569
0.0053897556
0.005353678
0.0053375859
0.0052986698
0.0053016849
0.0051954924
0.0051741295
0.005135784
0.005101277
0.0050617616
0.005044542
0.0050400263
0.0050305039
0.0050679727
0.005045126
0.0049726946
0.0053003438
0.0053005347
0.0053002863
0.0052993179
0.0052977294
0.0052955418
0.005292352
0.0052874513
0.0052800727
0.0052700374
0.0052640817
0.0052652406
0.0052592587
0.0052534687
0.0052361653
0.0052427665
0.0051956223
0.005213755
0.0051599071
0.0051792769
0.0051288532
0.0051080402
0.0050962173
0.0050587885
0.0050301768
0.0050282484
0.0050246467
0.0050172984
0.0050540627
0.0050212512
0.0049466579
0.0051454515
0.0051469801
0.0051484939
0.0051495972
0.0051502795
0.005149931
0.0051476907
0.0051417494
0.005130113
0.005111529
0.005088682
0.0050740479
0.0050674429
0.0050699221
0.0050895758
0.0051020683
0.0051101282
0.0050923195
0.0050891004
0.005051937
0.0050348403
0.0050404093
0.0050433123
0.0050233862
0.0050124799
0.0050039649
0.0050056894
0.0049966716
0.0050232983
0.0050109391
0.0049290448
0.0050100584
0.005009926
0.0050094681
0.0050084807
0.0050072682
0.0050057849
0.0050037272
0.0050009928
0.0049973856
0.0049928286
0.0049877975
0.0049837798
0.0049839193
0.0049885207
0.0049972849
0.0050194304
0.0050263425
0.005007077
0.0049928882
0.004972219
0.0049643334
0.0049623384
0.0049767359
0.0049971437
0.0049847788
0.0049785375
0.0049799342
0.0049686081
0.004983075
0.0049720582
0.0049207463
0.0049450782
0.0049453311
0.0049454163
0.004945247
0.0049450192
0.0049447797
0.0049444652
0.0049435545
0.0049413571
0.0049376429
0.0049336473
0.0049302467
0.0049291543
0.0049321323
0.0049419652
0.0049544392
0.0049583444
0.0049482977
0.0049362049
0.0049293019
0.0049239131
0.0049220919
0.0049309791
0.0049373538
0.0049332892
0.0049294731
0.0049332788
0.0049253489
0.0049315113
0.0049408067
0.0049097561
0.0049109086
0.0049106576
0.0049102634
0.0049098443
0.0049094232
0.0049089791
0.0049084756
0.0049078472
0.0049070221
0.0049060385
0.0049052465
0.0049050558
0.0049059623
0.0049079409
0.0049119165
0.0049163282
0.0049166411
0.0049113996
0.0049063253
0.0049019914
0.0048987321
0.0048967798
0.0048998111
0.0049031026
0.0049025926
0.0049001808
0.0049014537
0.0048988517
0.0049032895
0.0049106877
0.0049011916
0.0048976844
0.0048974894
0.0048972366
0.0048969681
0.0048967123
0.0048964773
0.0048962758
0.0048961342
0.0048960943
0.0048962192
0.004896619
0.0048974604
0.0048988964
0.0049001758
0.004901561
0.0049027145
0.0049007401
0.0048986066
0.0048964618
0.0048929692
0.0048905404
0.0048891814
0.0048902457
0.0048926058
0.0048929133
0.0048903258
0.0048899126
0.0048887483
0.0048897181
0.0048990462
0.004897537
0.0048940216
0.0048939252
0.0048937905
0.0048936385
0.004893482
0.0048933282
0.0048931873
0.0048930735
0.0048930039
0.0048930042
0.0048931364
0.004893571
0.0048945181
0.0048959829
0.0048974826
0.0048975958
0.0048972825
0.0048949048
0.0048937424
0.0048908088
0.0048881528
0.0048862574
0.0048871246
0.0048896905
0.0048891689
0.0048869573
0.0048859093
0.0048847929
0.0048847188
0.0048883528
0.0048951471
0.0048936248
0.004893583
0.0048935211
0.0048934475
0.0048933797
0.0048933423
0.0048933582
0.0048934412
0.0048936033
0.0048938479
0.0048941655
0.0048945304
0.0048948641
0.004894953
0.0048944683
0.0048936504
0.0048932524
0.0048934103
0.0048938051
0.0048932836
0.0048905822
0.0048877814
0.0048875736
0.0048872283
0.0048863894
0.0048848403
0.0048843934
0.0048837826
0.0048830839
0.0048845142
0.0048896542
0.002205839
0.0021454116
0.0024413865
0.0032009426
0.0053122475
0.008921755
0.013827059
0.019853488
0.027067083
0.035868686
0.045988326
0.05714759
0.069434057
0.082228468
0.094390085
0.10404949
0.10826967
0.10261152
0.082406428
0.050700829
0.023357001
0.010908927
0.0073916074
0.0063208013
0.0058071319
0.0055346647
0.0054087585
0.005249551
0.0051438828
0.004946063
0.0048721641
0.0020149811
0.0021932466
0.0026750191
0.0041113918
0.0070984211
0.011211711
0.016257314
0.022309118
0.029600632
0.038524538
0.048541521
0.059669502
0.071851385
0.084420825
0.096203668
0.10528217
0.10867527
0.1019236
0.080610135
0.048519461
0.021969765
0.010514487
0.007278584
0.0062862167
0.0057920507
0.0055274307
0.005404308
0.0052485174
0.0051432729
0.0049459622
0.0048724007
0.001936715
0.002266135
0.0030518113
0.0052648461
0.0086423611
0.012961735
0.018186183
0.024415513
0.031912221
0.040968763
0.050950087
0.062088197
0.074177487
0.086524237
0.097925008
0.10641857
0.10898546
0.10115171
0.07876672
0.046389201
0.020742376
0.010134714
0.007208024
0.0062654307
0.0057822583
0.0055223426
0.0054009293
0.0052478792
0.0051428825
0.0049458714
0.0048726702
0.0019649261
0.0024167775
0.0039824618
0.0066737446
0.010281208
0.014736504
0.020095935
0.026479418
0.034225912
0.043290792
0.05328766
0.064438604
0.076432779
0.088552771
0.099565253
0.10746777
0.10920635
0.10029713
0.076879978
0.044311724
0.019624302
0.0098016075
0.0071370506
0.0062407928
0.0057705805
0.0055163884
0.0053970985
0.0052469811
0.0051423609
0.0049457228
0.0048729427
0.0020192104
0.0030563743
0.0051633479
0.0081509584
0.011924921
0.01651195
0.022003509
0.028550099
0.036490233
0.045525696
0.055581272
0.066737641
0.078628635
0.090514816
0.10113143
0.10843628
0.10934403
0.099365019
0.074959922
0.042289339
0.018592295
0.0095035384
0.0070757068
0.0062193196
0.0057601989
0.0055109747
0.0053935567
0.0052461157
0.0051418767
0.0049456821
0.0048732266
0.0024075831
0.0040428686
0.006496383
0.0096760891
0.013584012
0.018296343
0.023916421
0.030643453
0.038714562
0.047728253
0.057845173
0.068992915
0.080770292
0.092414057
0.10262654
0.10932719
0.10940207
0.09835936
0.073015727
0.040324981
0.017635228
0.0092368095
0.0070196827
0.006198104
0.0057497248
0.0055054611
0.0053899762
0.0052451723
0.0051413391
0.0049456783
0.0048735213
0.0032386894
0.0052335331
0.0078970088
0.011217726
0.015250436
0.020086708
0.025836178
0.03275384
0.040870439
0.049915021
0.060082982
0.071207573
0.082860497
0.094252723
0.10405276
0.11014312
0.10938382
0.097284659
0.071054718
0.038422222
0.016747778
0.0089984124
0.0069690839
0.0061781959
0.0057397508
0.0055001333
0.0053865175
0.0052441992
0.0051407856
0.004945692
0.0048738253
0.0042460567
0.0064848809
0.0093153716
0.012767918
0.016923054
0.021881451
0.027770266
0.034860677
0.042969854
0.052087522
0.062294875
0.073382954
0.084900962
0.09603259
0.10541218
0.11088679
0.10929271
0.096145942
0.069083405
0.036584947
0.015926936
0.0087857622
0.0069229203
0.0061590709
0.0057299991
0.0054948544
0.0053831151
0.0052431889
0.0051401911
0.0049457473
0.0048741363
0.0054015009
0.0078159082
0.010767051
0.014329122
0.01859926
0.023677505
0.02972112
0.036920653
0.045054401
0.054247117
0.064479838
0.07551942
0.086892698
0.097755036
0.10670672
0.11156086
0.10913223
0.094947771
0.067107863
0.034817174
0.015170385
0.0085965349
0.0068807796
0.0061408636
0.0057205811
0.0054896843
0.0053798056
0.005242153
0.0051395645
0.0049458423
0.0048744515
0.0066291993
0.0091548957
0.012210078
0.015884747
0.02027355
0.02547477
0.031687256
0.038953143
0.047133643
0.056390303
0.066636126
0.077616781
0.088836245
0.099421139
0.10793813
0.11216793
0.10890594
0.093694247
0.065133237
0.033122821
0.014475853
0.0084286462
0.0068421331
0.0061234471
0.0057114341
0.0054845919
0.005376575
0.0052410971
0.005138903
0.0049459736
0.0048747679
0.0078596067
0.010486623
0.01365021
0.017439868
0.021946594
0.02727837
0.033651938
0.040935873
0.049199591
0.058513204
0.068762028
0.079674579
0.090731882
0.10103182
0.1091081
0.11271062
0.10861752
0.092390445
0.063164149
0.031509907
0.013840881
0.0082804466
0.0068065782
0.0061068163
0.0057025762
0.0054795906
0.00537343
0.0052400276
0.0051382146
0.0049461464
0.0048750834
0.0090891888
0.011816474
0.015088494
0.01899189
0.023614435
0.029089022
0.035562076
0.042900986
0.051251977
0.060613093
0.070855979
0.081692245
0.092579762
0.10258795
0.11021836
0.11319168
0.10827057
0.09104254
0.061205183
0.02998509
0.013262558
0.0081512314
0.0067737344
0.0060909233
0.00569399
0.005474674
0.0053703641
0.0052389503
0.0051375055
0.0049463611
0.0048753932
0.010309047
0.013138981
0.016520357
0.020537072
0.025276633
0.030899384
0.037433331
0.044858476
0.053287479
0.062687305
0.072916523
0.083669179
0.094380001
0.10409041
0.11127068
0.11361402
0.10786899
0.089656599
0.059259765
0.028543613
0.012737639
0.0080425888
0.0067432594
0.0060757469
0.005685676
0.0054698461
0.0053673719
0.0052378707
0.0051367862
0.0049466182
0.0048756927
0.011519078
0.0144528
0.017943247
0.022072647
0.026936092
0.032696025
0.039282327
0.046802786
0.055302179
0.064733551
0.074942355
0.085604813
0.096132741
0.10554012
0.11226696
0.11398071
0.10741745
0.088238109
0.057334174
0.027179515
0.012262654
0.0079450848
0.0067148359
0.0060612609
0.0056776276
0.0054651068
0.0053644424
0.005236795
0.0051360674
0.0049469195
0.0048759768
0.012716657
0.015754359
0.019353625
0.023594679
0.028594966
0.034451359
0.041119274
0.048730127
0.057293128
0.066749935
0.076932314
0.087498645
0.097838184
0.10693811
0.11320917
0.11429467
0.1069205
0.086792874
0.055436713
0.025892429
0.011834503
0.0078590899
0.0066883243
0.0060474465
0.0056698427
0.0054604585
0.005361563
0.0052357293
0.0051353608
0.0049472657
0.0048762402
0.013898113
0.017040152
0.020748728
0.025103504
0.03024104
0.036173964
0.042941099
0.050636693
0.05925792
0.068734831
0.078885371
0.08935026
0.099496622
0.10828551
0.11409943
0.11455907
0.1063824
0.085326849
0.05357465
0.024683304
0.011450104
0.0077826177
0.0066635132
0.0060342844
0.0056623183
0.0054559027
0.0053587174
0.0052346816
0.0051346756
0.0049476575
0.004876477
0.015059758
0.018307157
0.022126052
0.026600341
0.031861
0.037873194
0.044742453
0.052519642
0.061194599
0.07068682
0.080800618
0.091159343
0.10110845
0.10958356
0.11493999
0.11477726
0.10580776
0.083846048
0.051754668
0.0235529
0.01110637
0.0077146852
0.0066402752
0.0060217585
0.0056550524
0.0054514407
0.0053558884
0.0052336604
0.005134016
0.0049480958
0.0048766809
0.016198666
0.019553049
0.023482503
0.028087801
0.03344428
0.039554409
0.046522021
0.054376984
0.063101497
0.072604638
0.082677265
0.092925685
0.10267418
0.11083362
0.11573327
0.11495271
0.10520203
0.082356516
0.049982775
0.022501438
0.010800204
0.007654156
0.0066184794
0.0060098528
0.005648043
0.0054470735
0.0053530586
0.0052326736
0.0051333845
0.0049485815
0.0048768451
0.01731345
0.020776789
0.024819416
0.029553586
0.034999356
0.041215291
0.048277738
0.056206906
0.064977114
0.074487147
0.084514629
0.094649184
0.10419443
0.11203719
0.11648186
0.11508887
0.10457038
0.080864501
0.048264212
0.021528532
0.010528546
0.0076001336
0.0065980277
0.0059985528
0.0056412885
0.0054428014
0.0053502104
0.0052317272
0.005132787
0.0049491155
0.0048769639
0.01840322
0.021977402
0.026137235
0.030991286
0.036530829
0.042853424
0.050007768
0.058007786
0.066820087
0.076333319
0.086312129
0.09632984
0.10566994
0.1131959
0.11718848
0.1151896
0.10391721
0.079376304
0.046603536
0.020633129
0.010288411
0.0075518968
0.0065788323
0.0059878443
0.0056347868
0.0054386239
0.0053473289
0.0052308228
0.0051322356
0.0049496984
0.0048770316
0.019468217
0.023153722
0.027438681
0.032394593
0.038041524
0.044467259
0.051710514
0.059778139
0.068629154
0.07814222
0.088069276
0.097967748
0.10710155
0.11431147
0.1178552
0.11525828
0.10324704
0.077897963
0.045004673
0.019813489
0.010076927
0.0075086871
0.0065608191
0.0059777136
0.0056285358
0.0054345403
0.0053444034
0.0052299543
0.0051317505
0.0049503312
0.0048770421
0.020509644
0.024307646
0.02871585
0.033771574
0.039528401
0.046054991
0.053384503
0.061516578
0.070403143
0.079912995
0.089785661
0.099563092
0.10849023
0.11538581
0.11848515
0.11529798
0.10256338
0.076435234
0.043470983
0.019067271
0.0098913781
0.0074698131
0.0065439283
0.0059681478
0.005622533
0.0054305496
0.0053414295
0.0052291087
0.0051313538
0.0049510148
0.0048769893
0.021528966
0.025440275
0.029966512
0.035124373
0.04099015
0.047615234
0.055028425
0.063221791
0.072140946
0.081644852
0.091460941
0.10111614
0.10983708
0.11642102
0.11908138
0.11531291
0.10186969
0.074993237
0.04200524
0.018395931
0.0097292474
0.0074347997
0.0065281085
0.0059591348
0.0056167758
0.0054266509
0.0053384076
0.0052282673
0.0051310522
0.0049517498
0.0048768558
0.02252744
0.026553531
0.031188678
0.036454175
0.042425872
0.049146701
0.056641102
0.064892518
0.073841513
0.083337047
0.093094833
0.10262729
0.11114337
0.11741889
0.11964674
0.11530769
0.10117018
0.073576822
0.040609623
0.017795138
0.0095881411
0.0074032314
0.0065133139
0.0059506632
0.0056112615
0.0054228439
0.0053353419
0.0052274106
0.0051308346
0.0049525368
0.0048766604
0.023506406
0.027647114
0.032385334
0.037759749
0.043834536
0.050647944
0.058219613
0.066527515
0.075503851
0.08498888
0.094687162
0.10409711
0.11241049
0.11838159
0.12018413
0.11528653
0.10047006
0.072189101
0.039286064
0.017256137
0.0094658751
0.0073747659
0.0064995038
0.005942723
0.0056059871
0.0054191291
0.0053322405
0.0052265218
0.0051307244
0.0049533765
0.0048764114
0.024467869
0.028719366
0.033559334
0.039040283
0.045215268
0.05211804
0.05976132
0.068125557
0.07712705
0.086599748
0.096238015
0.10552646
0.11363892
0.11931104
0.12069748
0.11525373
0.09977559
0.070833751
0.038036431
0.016774349
0.0093606026
0.0073491167
0.0064866406
0.0059353053
0.0056009498
0.0054155075
0.0053291164
0.005225589
0.0051306361
0.0049542697
0.0048761075
0.025413243
0.029770742
0.034711221
0.040295308
0.046567189
0.053556351
0.061268428
0.069685931
0.078710182
0.088169337
0.097747833
0.10691574
0.11482956
0.12020963
0.12118973
0.11521363
0.099092524
0.069514637
0.036862416
0.016346461
0.0092708533
0.0073260473
0.0064746896
0.0059284025
0.0055961471
0.0054119811
0.0053259846
0.0052246053
0.0051306225
0.0049552178
0.0048757565
0.026343908
0.030801376
0.035841378
0.041524294
0.047889372
0.054961892
0.062743326
0.071207996
0.080252499
0.089697703
0.099216331
0.10826367
0.11598405
0.12108024
0.12166411
0.11517055
0.098425986
0.068235646
0.035765502
0.015969534
0.0091957349
0.0073053646
0.0064636179
0.0059220074
0.0055915762
0.0054085518
0.0053228608
0.0052235719
0.0051307017
0.0049562208
0.004875364
0.027261742
0.031812177
0.03694891
0.042726496
0.049180798
0.056333103
0.064181043
0.072687822
0.081753675
0.09118397
0.10064091
0.10957154
0.11710543
0.12192457
0.12212396
0.11512881
0.097780795
0.067000158
0.034746722
0.015640716
0.0091355383
0.0072869152
0.0064533947
0.0059161185
0.0055872392
0.0054052121
0.0053197633
0.0052224976
0.0051308465
0.0049572816
0.004874939
0.028166042
0.032804677
0.038033535
0.043901328
0.050440693
0.057669049
0.065579861
0.074126133
0.083212437
0.092624653
0.10202221
0.11084189
0.11819379
0.12274482
0.12257261
0.11509266
0.097161584
0.06581127
0.033806559
0.015357099
0.0090852537
0.0072704233
0.0064440007
0.0059107397
0.0055831197
0.005401956
0.0053167138
0.005221393
0.005131051
0.0049584022
0.0048744938
0.029056923
0.033779381
0.039095168
0.045048384
0.051668648
0.058969815
0.066940247
0.075527413
0.084623159
0.094020073
0.10336254
0.11207356
0.11925009
0.1235433
0.12301333
0.11506633
0.096572851
0.064671854
0.032947102
0.015115497
0.0090360957
0.0072552441
0.0064353953
0.0059058679
0.0055792191
0.0053987859
0.0053137339
0.0052202742
0.0051313034
0.0049595866
0.0048740454
0.029937373
0.034738504
0.040135522
0.046168671
0.052864549
0.060234039
0.068258941
0.076880625
0.08598586
0.095372354
0.10465993
0.11326659
0.12027563
0.12432216
0.12344932
0.11505399
0.096018992
0.063588806
0.032174908
0.01489488
0.0089872807
0.0072415815
0.0064275497
0.0059015011
0.0055755297
0.0053956971
0.0053108442
0.0052191694
0.0051315818
0.0049608382
0.0048736164
0.030808763
0.035683349
0.041155554
0.047262024
0.054026298
0.061457228
0.06953125
0.078187817
0.087309383
0.096674297
0.10591353
0.11442148
0.12127155
0.12508349
0.12388366
0.11505974
0.09550423
0.062572261
0.031480562
0.014685331
0.0089394739
0.0072293337
0.0064204395
0.0058976304
0.0055720483
0.005392685
0.0053080623
0.0052181071
0.0051318716
0.0049621619
0.0048732344
0.031663128
0.036606234
0.042147484
0.048322554
0.055150717
0.062636864
0.070757961
0.07944977
0.088584313
0.097934057
0.10712244
0.11553854
0.12223885
0.12582923
0.12431935
0.11508763
0.095032622
0.06162975
0.030858517
0.014485826
0.0088932109
0.0072185186
0.0064140698
0.005894221
0.0055687702
0.0053897419
0.0053053976
0.0052170998
0.0051321731
0.0049635622
0.0048729311
0.03249512
0.037501434
0.043103465
0.049340925
0.056232902
0.063774403
0.071940194
0.080662359
0.089808873
0.099146405
0.10828579
0.11661794
0.12317846
0.12656118
0.12475924
0.11514159
0.094609149
0.060765184
0.03030311
0.014295375
0.0088486919
0.0072091107
0.0064084496
0.0058912365
0.0055656935
0.0053868598
0.0053028461
0.0052161554
0.0051324912
0.0049650435
0.0048727402
0.033300367
0.038366458
0.044028652
0.050323893
0.057270948
0.06486389
0.073072352
0.081823223
0.090982008
0.10030951
0.10940795
0.11765593
0.12409103
0.12728097
0.12520599
0.11522541
0.094239016
0.059982539
0.029805859
0.014113091
0.0088061668
0.0072011004
0.0064035798
0.0058886527
0.0055628182
0.005384031
0.00530039
0.0052152774
0.0051328319
0.0049666093
0.004872696
0.034091192
0.039206209
0.044920364
0.051268214
0.058264917
0.06590435
0.074152364
0.082931022
0.092102541
0.10142227
0.11048464
0.1186612
0.1249725
0.12798989
0.12566209
0.11534271
0.093927473
0.05928587
0.029360643
0.013938113
0.008765825
0.0071944708
0.0063994553
0.0058864552
0.0055601466
0.0053812499
0.005297997
0.0052144504
0.005133209
0.004968262
0.004872832
0.034878515
0.040029951
0.045784184
0.052175238
0.059215185
0.066895698
0.075179538
0.083984472
0.093169133
0.10248356
0.111515
0.11962852
0.12583421
0.12868413
0.12612959
0.11549679
0.09367968
0.05867849
0.028963763
0.013769608
0.0087278525
0.0071892053
0.0063960697
0.005884634
0.0055576824
0.0053785137
0.005295628
0.0052136501
0.0051336329
0.0049700029
0.0048731897
0.035660188
0.040838742
0.046622611
0.053047052
0.06012228
0.067837622
0.076152919
0.084982159
0.094180367
0.1034921
0.11249824
0.1205574
0.12667029
0.12937644
0.12660904
0.11569058
0.093500648
0.058163325
0.02861154
0.013606746
0.0086924375
0.0071852865
0.0063934173
0.0058831811
0.0055554301
0.0053758238
0.0052932485
0.0052128685
0.005134109
0.0049718329
0.0048736734
0.036433075
0.041630936
0.047435364
0.053883901
0.060985991
0.068729329
0.077071229
0.085922552
0.095134745
0.10444648
0.11343338
0.12144735
0.12748071
0.13006094
0.1271057
0.11592694
0.093395091
0.057743237
0.028300491
0.013448662
0.0086597913
0.0071826982
0.0063914944
0.0058820906
0.0055533935
0.0053731845
0.0052908361
0.0052120813
0.0051346361
0.0049737529
0.004872934
0.037195168
0.042404699
0.048221113
0.054684905
0.061805465
0.069569685
0.077933003
0.086804032
0.096030676
0.10534517
0.11431929
0.12229774
0.12826541
0.13073824
0.12761895
0.11620641
0.093367233
0.057421326
0.028027281
0.013294432
0.0086301682
0.0071814276
0.0063903002
0.0058813589
0.0055515757
0.0053706026
0.0052883836
0.0052112726
0.0051352005
0.004975767
0.0048726463
0.037945719
0.043158819
0.048978528
0.055448824
0.062579504
0.07035731
0.078736631
0.087624959
0.09686643
0.10618647
0.11515468
0.12310773
0.12902415
0.13140873
0.1281499
0.11653531
0.093420897
0.05720122
0.027788578
0.013143059
0.008604197
0.0071814682
0.006389836
0.0058809856
0.0055499789
0.0053680852
0.0052858963
0.0052104401
0.005135787
0.0049778789
0.0048730028
0.038684672
0.043892518
0.049706443
0.056174324
0.063306721
0.071090573
0.079480432
0.088383702
0.097642318
0.10697455
0.11594627
0.12388536
0.12976376
0.13207838
0.12870422
0.11691686
0.093561916
0.057087404
0.027580864
0.012993416
0.0085813366
0.0071824962
0.006390102
0.0058809715
0.0055486042
0.0053656387
0.0052833869
0.0052095729
0.0051363865
0.0049800804
0.0048734828
0.039412006
0.044605
0.050403625
0.056859917
0.063985585
0.071767428
0.080164737
0.08908816
0.098365045
0.10770129
0.11667495
0.12460994
0.13046791
0.1327346
0.12927179
0.11734284
0.093787201
0.057084862
0.027400113
0.012844251
0.0085632477
0.0071854495
0.0063910193
0.0058812518
0.0055474532
0.0053632686
0.0052808723
0.005208675
0.0051369902
0.0049823669
0.0048740239
0.040127578
0.045295172
0.051068508
0.057503822
0.06461412
0.072388685
0.080796271
0.089728342
0.09900636
0.10835887
0.11734865
0.1252907
0.13114393
0.13338371
0.12985864
0.11781893
0.09410144
0.057201701
0.027241684
0.01269406
0.0085499847
0.0071893131
0.006392905
0.0058819125
0.0055465276
0.0053609805
0.0052783696
0.0052077447
0.0051375919
0.0049847374
0.0048745972
0.040832161
0.045962105
0.051699337
0.058104196
0.065190268
0.072957392
0.081364195
0.090290029
0.099578387
0.10895145
0.11796508
0.12592623
0.13179091
0.13402533
0.13046481
0.11834534
0.094505117
0.057445853
0.027100252
0.012541238
0.0085419204
0.0071944724
0.0063952288
0.0058831265
0.0055458332
0.0053587813
0.0052758939
0.0052067837
0.0051381914