/*--------------------------------*- C++ -*----------------------------------*\
| =========                 |                                                 |
| \\      /  F ield         | OpenFOAM: The Open Source CFD Toolbox           |
|  \\    /   O peration     | Version:  2406                                  |
|   \\  /    A nd           | Website:  www.openfoam.com                      |
|    \\/     M anipulation  |                                                 |
\*---------------------------------------------------------------------------*/
FoamFile
{
    version     2.0;
    format      ascii;
    arch        "LSB;label=32;scalar=64";
    class       volScalarField;
    location    "0.002";
    object      Ma;
}
// * * * * * * * * * * * * * * * * * * * * * * * * * * * * * * * * * * * * * //

dimensions      [0 0 0 0 0 0 0];

internalField   nonuniform List<scalar> 
8951
(
0.15626485
0.15733805
0.15837062
0.15944181
0.16049934
0.16153152
0.16254221
0.163477
0.16450684
0.16577681
0.1673007
0.16886725
0.17056787
0.17237929
0.17423651
0.17584607
0.17654079
0.17527831
0.17156719
0.1683009
0.16655508
0.16518319
0.16377504
0.16242429
0.16108258
0.15983032
0.15847685
0.1575681
0.15683818
0.15713925
0.15010567
0.153326
0.15451677
0.15578218
0.15706891
0.15836105
0.15964632
0.16091759
0.1621617
0.16347079
0.16494867
0.16660066
0.16831025
0.17012454
0.17201785
0.17392372
0.17554168
0.17618431
0.17480635
0.17106783
0.16797039
0.16634149
0.16502439
0.16365433
0.16233333
0.16101292
0.15977771
0.15843551
0.15753778
0.15680909
0.15711952
0.15007277
0.149579
0.1509749
0.15254507
0.154141
0.15574068
0.15733756
0.15892298
0.16049362
0.16210283
0.16382916
0.16567461
0.1675611
0.16951698
0.17151571
0.17349012
0.17513264
0.17574253
0.17425523
0.17051839
0.16762457
0.16611245
0.16485401
0.16352623
0.1622384
0.16094281
0.15972662
0.1583911
0.15750792
0.15677612
0.15709848
0.15006726
0.14574789
0.14733692
0.14915674
0.15103506
0.15293301
0.15483945
0.15674319
0.15863717
0.16055232
0.16254165
0.16460856
0.1666905
0.16880446
0.17092198
0.1729728
0.17463754
0.17520609
0.17359756
0.16988335
0.16722861
0.16584428
0.16465182
0.16337293
0.16212342
0.1608569
0.15966269
0.15832906
0.15746728
0.1567369
0.15707421
0.14999702
0.14192879
0.1436882
0.14570692
0.14782503
0.14999445
0.15219413
0.15440696
0.15661905
0.15884078
0.16110073
0.16340023
0.1656909
0.1679766
0.17022461
0.17235857
0.1740411
0.17455301
0.17281122
0.16915265
0.16678517
0.16553631
0.16441888
0.16319691
0.16199162
0.16075914
0.15958952
0.15825781
0.15741857
0.15667756
0.15704524
0.14996537
0.13822236
0.14011519
0.14228417
0.14459282
0.14699163
0.14945086
0.15194616
0.15445571
0.15697212
0.15950187
0.16203933
0.16454666
0.16701408
0.16940198
0.1716243
0.17331849
0.17375304
0.17186829
0.16831829
0.16628816
0.16518185
0.16414887
0.16299241
0.16183767
0.16064456
0.15950259
0.15818009
0.15736139
0.15660287
0.1570107
0.14993548
0.13472915
0.13673673
0.13901364
0.14145743
0.14402818
0.14669303
0.14942274
0.15218881
0.15496999
0.1577541
0.16052507
0.16324834
0.16590064
0.16843256
0.17074403
0.17243889
0.17276743
0.17073347
0.16738006
0.16573094
0.16477469
0.16383697
0.1627559
0.16165917
0.16051121
0.15940086
0.15809863
0.15729529
0.15652006
0.15696923
0.14990682
0.13166346
0.13373831
0.13606394
0.13857259
0.14123847
0.14403297
0.14692637
0.14988632
0.15288168
0.15588531
0.15886895
0.16179426
0.16462385
0.16729492
0.16968752
0.1713632
0.17154734
0.16936366
0.16634872
0.1651034
0.16430723
0.16347673
0.16248182
0.16145127
0.1603542
0.15928102
0.15801198
0.15721903
0.1564344
0.15691615
0.14988023
0.12925971
0.1313058
0.13359688
0.13608548
0.13875695
0.14159047
0.1445599
0.14763242
0.1507712
0.15393821
0.15709328
0.16018937
0.16317364
0.16596542
0.16841646
0.17004105
0.17002863
0.16771836
0.16524856
0.16439532
0.16377064
0.16306118
0.16216485
0.16120977
0.16017139
0.15913971
0.15791612
0.15712772
0.15633587
0.15684109
0.14985504
0.12756292
0.12951244
0.13169863
0.13409099
0.13668475
0.13946848
0.14242198
0.1455155
0.14871131
0.15196572
0.15522928
0.15844434
0.16154144
0.16441693
0.16688285
0.16840058
0.16812634
0.16581335
0.16410063
0.16359574
0.16315534
0.16258234
0.16179887
0.16092974
0.15996439
0.15897163
0.15779949
0.15701274
0.15622363
0.15675427
0.14982919
0.12658303
0.12838922
0.13042111
0.13265709
0.13510084
0.13775087
0.14059699
0.14361538
0.14677169
0.1500217
0.15331068
0.15657105
0.15971598
0.16261265
0.1650179
0.16632704
0.16569828
0.16375301
0.16289975
0.16269779
0.16245283
0.16203214
0.16137759
0.16060695
0.15973214
0.15877585
0.15765628
0.15687252
0.1560978
0.15666899
0.1498014
0.1262701
0.12788823
0.12973011
0.13177305
0.13401879
0.13647045
0.13912771
0.14197875
0.14499717
0.14814262
0.15135889
0.15457021
0.15767106
0.1604896
0.16270237
0.16362963
0.16275689
0.16174912
0.16162097
0.16169537
0.16165716
0.16140342
0.16089373
0.16023656
0.15945302
0.15855399
0.15749236
0.15670924
0.1559632
0.1565718
0.14976972
0.12660558
0.12799641
0.12958321
0.13136808
0.13335864
0.13555794
0.13796649
0.14057748
0.14337272
0.14631722
0.14935522
0.15240326
0.15533301
0.15791617
0.15970793
0.16009123
0.15973413
0.15988621
0.16025283
0.16058963
0.16077192
0.16068701
0.16033896
0.15981209
0.15912691
0.1582884
0.1572909
0.15652491
0.15582188
0.15644804
0.14973117
0.12738272
0.12854525
0.12987876
0.13137617
0.13305469
0.13493337
0.13702562
0.13932663
0.14181696
0.14445976
0.14719404
0.14992032
0.15247906
0.15459578
0.15582017
0.15616473
0.15706122
0.1580723
0.15880055
0.15936518
0.15978116
0.15989016
0.15969959
0.15932415
0.15874955
0.15798151
0.15705804
0.15630975
0.15565724
0.15628281
0.14968277
0.12814759
0.1290596
0.13013738
0.13137778
0.13278448
0.13435851
0.1361015
0.13802237
0.14010875
0.14232533
0.14461435
0.14687044
0.14892034
0.15049915
0.15165269
0.15313779
0.15491819
0.15628227
0.15726776
0.15804866
0.15869074
0.1589929
0.15897163
0.15876303
0.15831202
0.1576281
0.15678223
0.15605744
0.15545394
0.15607478
0.1496207
0.1283209
0.12892781
0.1296814
0.13061204
0.13174708
0.13307754
0.13455922
0.13621011
0.13795573
0.13975517
0.14157538
0.14339299
0.145203
0.14693448
0.14890959
0.151081
0.15293384
0.15450457
0.15573772
0.15668957
0.15750584
0.15798837
0.15816125
0.15812078
0.15780217
0.1572221
0.15646195
0.1557664
0.15520791
0.1558173
0.14953664
0.12928965
0.12975077
0.13027994
0.13087822
0.13157423
0.13242958
0.13346763
0.13468423
0.13603621
0.13749963
0.13907636
0.1408601
0.14282666
0.14492427
0.14723005
0.14931981
0.1512038
0.15285545
0.154258
0.1553735
0.15628434
0.15689053
0.15726739
0.15741538
0.15721132
0.15675728
0.15609585
0.155432
0.1549294
0.15551018
0.14942059
0.13122378
0.13161922
0.13206537
0.13256765
0.13311527
0.1336933
0.13429732
0.13493865
0.13575611
0.1368528
0.13817992
0.13980464
0.14150722
0.14345967
0.1455363
0.14781745
0.14969498
0.15137738
0.15291012
0.15413329
0.15510641
0.15577766
0.15633161
0.15664131
0.15656402
0.15623289
0.1556838
0.15505978
0.15463141
0.15515668
0.14925811
0.13262195
0.13292698
0.13328771
0.1337178
0.13423462
0.13486149
0.1356182
0.13648168
0.13730279
0.1381466
0.13908867
0.13991435
0.14113819
0.142782
0.14445119
0.14629812
0.14822136
0.15001873
0.1516045
0.1529309
0.15402266
0.15473822
0.15539711
0.15583338
0.1558856
0.15565945
0.15523019
0.15467429
0.15433231
0.15475191
0.14903504
0.13511961
0.13532844
0.13556854
0.13584202
0.13615185
0.13650041
0.13689428
0.13735514
0.13792755
0.13864909
0.13959016
0.14079274
0.14189835
0.1428424
0.14406422
0.14545285
0.14702623
0.14875382
0.15035501
0.15164494
0.15287406
0.15376758
0.15453861
0.15502829
0.1551725
0.15505344
0.15473761
0.15428535
0.154018
0.15430083
0.14874756
0.13672816
0.13690528
0.13711544
0.13736461
0.1376614
0.13801559
0.13843647
0.13892754
0.139482
0.14008588
0.14072802
0.14141403
0.14227873
0.14337458
0.14431902
0.14525141
0.14651075
0.14796522
0.14932146
0.15037494
0.15148982
0.15279658
0.1537027
0.1541883
0.15441394
0.15439767
0.15419653
0.15385187
0.15363777
0.15380287
0.14840464
0.13902494
0.13913717
0.13926641
0.13941404
0.13958263
0.13977564
0.13999821
0.14025946
0.14057597
0.14097298
0.14148353
0.14212061
0.1428629
0.14360823
0.14462968
0.14556274
0.14647133
0.14756548
0.14869527
0.14967573
0.15056153
0.15177676
0.15276348
0.1532792
0.15355401
0.15366331
0.15356842
0.15331496
0.15313385
0.15323483
0.14804095
0.14059488
0.14069767
0.14082007
0.14096572
0.14113939
0.14134613
0.1415907
0.14187637
0.14220293
0.14256477
0.14294895
0.14336004
0.14380087
0.14435239
0.14496324
0.1457841
0.14664275
0.14738133
0.14829295
0.14925262
0.15007513
0.15099873
0.15182264
0.15231112
0.15264283
0.1528498
0.15283428
0.15264298
0.15249311
0.15264445
0.14770382
0.1425802
0.14262949
0.1426868
0.14275312
0.14283008
0.14292001
0.14302644
0.14315514
0.14331569
0.14352294
0.14379623
0.14415431
0.14459761
0.14508945
0.14564762
0.14622038
0.14671276
0.14730033
0.14804049
0.14890034
0.149783
0.15051813
0.15109325
0.15150431
0.15184386
0.1520259
0.15205496
0.1519103
0.15178408
0.1521505
0.14745067
0.14396923
0.14401662
0.14407376
0.14414259
0.14422548
0.14432493
0.14444307
0.14458095
0.14473727
0.1449071
0.14508209
0.14525551
0.14543768
0.14567217
0.14598689
0.14644074
0.14701637
0.14746678
0.14799855
0.14874421
0.14952715
0.15009105
0.15055706
0.15097347
0.15122861
0.15134667
0.15137133
0.15128598
0.15123891
0.15170101
0.14728405
0.14566411
0.14566817
0.14567273
0.14567773
0.14568356
0.14569088
0.14570095
0.14571619
0.14574083
0.14578181
0.14584959
0.14596216
0.14611657
0.14631035
0.1465562
0.14686375
0.1472606
0.14784502
0.14832309
0.14877826
0.14923141
0.1495697
0.14996221
0.15040972
0.15072471
0.15086606
0.15091119
0.15090296
0.15092288
0.15134966
0.14723284
0.14678149
0.14678937
0.14679975
0.14681277
0.14682906
0.1468494
0.14687497
0.14690777
0.14694879
0.14699426
0.14703901
0.14707145
0.14710519
0.14716517
0.14727933
0.14747618
0.14774726
0.14805133
0.1483852
0.14871667
0.14892045
0.14906671
0.14929589
0.14974015
0.15018702
0.15039651
0.15051258
0.15061467
0.15061751
0.1511858
0.14729554
0.14789605
0.14789429
0.14789123
0.14788643
0.14787937
0.14786926
0.14785473
0.14783319
0.14780242
0.14776358
0.14771866
0.14767334
0.14763726
0.14763127
0.14767892
0.14780429
0.14799052
0.14816796
0.14834049
0.148507
0.14863686
0.14875883
0.14889339
0.14913278
0.1494653
0.14969694
0.14983145
0.14997781
0.14989106
0.15070529
0.14756548
0.148435
0.1484308
0.14842511
0.14841759
0.14840794
0.14839588
0.14838115
0.14836351
0.1483427
0.14831858
0.14829143
0.14826191
0.14823229
0.14820461
0.14819784
0.14821665
0.14827379
0.14833107
0.14837451
0.14845999
0.14845624
0.14846894
0.14851079
0.14861624
0.14887211
0.14902329
0.14909912
0.14914588
0.14913072
0.14977642
0.14791352
0.14869361
0.14868695
0.14867893
0.14866955
0.14865887
0.14864699
0.14863405
0.14862018
0.14860554
0.14859045
0.14857609
0.14856523
0.14855777
0.14855751
0.14856618
0.14857671
0.14858078
0.14859453
0.14857163
0.14846075
0.14834568
0.14818653
0.14814152
0.14832029
0.14857532
0.14864766
0.14873379
0.14877787
0.14878175
0.14914929
0.14804294
0.14913544
0.14912741
0.14911886
0.1491105
0.14910313
0.1490976
0.14909462
0.14909478
0.14909853
0.14910661
0.14912027
0.14914192
0.14917453
0.14921827
0.14926545
0.14929917
0.14931134
0.14928012
0.14917668
0.14901278
0.14875012
0.14833566
0.1481978
0.14849286
0.14870182
0.14855865
0.14870718
0.14871537
0.1487277
0.14903903
0.14821264
0.024880769
0.046086933
0.077200495
0.10627637
0.12551908
0.13683293
0.14413937
0.14966008
0.15434976
0.15854966
0.16239315
0.16595135
0.16926537
0.1723603
0.17525195
0.17788165
0.18021513
0.18179179
0.18211913
0.17997237
0.17500659
0.17070127
0.16782579
0.16541468
0.16332625
0.16152527
0.15989691
0.15856757
0.15763366
0.15724649
0.15034011
0.038126225
0.066123253
0.098552059
0.12088142
0.13345632
0.14115397
0.14681228
0.15158658
0.15587029
0.15979382
0.16342102
0.16679873
0.16995805
0.17292047
0.17569551
0.17822088
0.18044757
0.18189211
0.18206114
0.17971901
0.17470137
0.17051003
0.16770642
0.16532893
0.16326342
0.16147839
0.15985879
0.15854476
0.15762267
0.15724894
0.15033756
0.054000411
0.085081318
0.11155566
0.12756819
0.13704051
0.14348252
0.14859683
0.15305816
0.15710832
0.1608356
0.16429368
0.16752296
0.17055169
0.17340047
0.17607422
0.17850779
0.18063731
0.18196397
0.18199044
0.17947439
0.17442325
0.17034415
0.16760132
0.16525306
0.16320811
0.16143702
0.15982431
0.15852378
0.15761155
0.15724979
0.15032754
0.073553633
0.10231202
0.12184877
0.13317506
0.14034308
0.14573369
0.15032873
0.15447788
0.15829771
0.16183466
0.16512944
0.16821537
0.17111844
0.17385812
0.17643436
0.17877867
0.18081047
0.18202006
0.18191114
0.17922002
0.17414691
0.17017962
0.16749431
0.16517522
0.16315119
0.16139445
0.15978915
0.15850245
0.15760023
0.15725066
0.15031649
0.093498304
0.11559329
0.12902081
0.13719364
0.14296358
0.14770616
0.15193747
0.15583056
0.15944095
0.16279781
0.16593496
0.16888158
0.1716627
0.1742966
0.176778
0.17903474
0.18096824
0.18206536
0.18182223
0.17895534
0.17387314
0.17001987
0.16738923
0.16509868
0.1630952
0.16135252
0.15975443
0.15848137
0.15758884
0.15725167
0.15030553
0.10924096
0.12479858
0.13409749
0.14033559
0.14523534
0.14952586
0.15346296
0.15712629
0.16053932
0.16372352
0.16670776
0.16951902
0.17218202
0.17471359
0.17710304
0.17927425
0.18111001
0.18209946
0.18172299
0.17868157
0.17360312
0.16986471
0.16728554
0.16502285
0.16303957
0.16131075
0.15971985
0.15846034
0.15757731
0.15725276
0.15029476
0.12067286
0.1311228
0.13785857
0.14293585
0.14727506
0.15122963
0.15491692
0.1583686
0.16159369
0.16461128
0.16744681
0.17012666
0.17267551
0.17510836
0.17740891
0.17949679
0.18123612
0.1821222
0.18161127
0.17839956
0.1733378
0.16971408
0.16718332
0.16494793
0.16298449
0.16126931
0.15968567
0.15843942
0.15756565
0.15725393
0.15028414
0.12818382
0.13553183
0.14082691
0.14521504
0.14916682
0.15284904
0.15631171
0.15956273
0.16260686
0.16546228
0.16815273
0.17070497
0.17314354
0.1754812
0.17769584
0.17970271
0.1813474
0.18213343
0.18148571
0.17811003
0.17307787
0.16956774
0.16708249
0.16487385
0.16292991
0.16122815
0.15965169
0.15841858
0.15755382
0.15725517
0.1502737
0.13337137
0.13893503
0.14337693
0.14730706
0.15095819
0.15440254
0.15765511
0.16071265
0.16358083
0.16627745
0.16882607
0.17125438
0.17358643
0.17583234
0.17796402
0.17989229
0.18144475
0.18213597
0.18134659
0.17781383
0.17282395
0.16942543
0.16698297
0.16480063
0.16287584
0.16118729
0.15961792
0.15839784
0.15754184
0.15725649
0.15026369
0.1372249
0.14176686
0.14567717
0.14927612
0.1526758
0.15590201
0.15895245
0.16182114
0.16451679
0.16705729
0.16946715
0.17177515
0.17400436
0.17616188
0.17821356
0.18006585
0.18152835
0.18212891
0.18119413
0.17751039
0.1725767
0.16928689
0.16688472
0.16472825
0.16282228
0.16114673
0.15958438
0.15837717
0.15752968
0.15725786
0.15025443
0.14036772
0.14429221
0.14783368
0.15116513
0.15433826
0.15735574
0.16020741
0.16289021
0.16541548
0.16780209
0.1700762
0.17226746
0.17439746
0.17646993
0.17844461
0.1802237
0.18159831
0.18210866
0.18102774
0.17720234
0.17233662
0.16915182
0.1667877
0.1646567
0.16276923
0.16110647
0.15955113
0.15835657
0.15751733
0.15725926
0.15024603
0.14313817
0.14664927
0.14990398
0.15299976
0.15595755
0.15876912
0.16142284
0.1639212
0.16627726
0.168512
0.17065341
0.17273148
0.17476585
0.1767566
0.17865733
0.18036611
0.18165461
0.18207567
0.18084834
0.17689143
0.17210392
0.16901995
0.16669186
0.16458598
0.16271669
0.16106653
0.15951815
0.15833604
0.15750479
0.1572607
0.15023801
0.14571971
0.14891828
0.15192461
0.15479714
0.15754161
0.16014566
0.16260073
0.16491457
0.16710218
0.16918711
0.17119889
0.17316733
0.17510966
0.17702199
0.17885186
0.18049306
0.18169703
0.18203
0.18065678
0.17658046
0.17187854
0.16889104
0.16659718
0.16451607
0.16266466
0.1610269
0.15948542
0.15831557
0.15749206
0.15726214
0.15023018
0.14821616
0.15114667
0.15391791
0.15656778
0.15909505
0.16148723
0.16374186
0.1658703
0.16789011
0.16982739
0.17171272
0.17357511
0.17542897
0.1772662
0.17902833
0.18060398
0.18172451
0.18197265
0.18045452
0.17626927
0.17166039
0.16876483
0.16650362
0.16444697
0.16261312
0.16098759
0.15945297
0.15829513
0.15747914
0.15726358
0.15022257
0.15068572
0.15336227
0.15589721
0.15831759
0.1606199
0.16279469
0.16484607
0.16678796
0.16864075
0.17043276
0.17219491
0.17395487
0.17572386
0.17748932
0.17918684
0.18069844
0.18173827
0.18190448
0.18024187
0.17595902
0.17144936
0.16864111
0.16641116
0.16437866
0.16256209
0.16094861
0.1594208
0.15827474
0.15746609
0.157265
0.15021517
0.15316223
0.15558131
0.15786953
0.16004883
0.16211623
0.16406776
0.16591247
0.1676668
0.16935369
0.17100304
0.17264544
0.17430665
0.17599439
0.17769144
0.1793275
0.18077643
0.18173915
0.18182611
0.18001961
0.1756506
0.17124523
0.16851968
0.16631979
0.16431113
0.16251155
0.16090997
0.15938892
0.15825438
0.15745273
0.15726637
0.15020794
0.15566469
0.15781148
0.15983667
0.16176059
0.16358248
0.16530484
0.1669396
0.16850581
0.17002837
0.17153798
0.17306421
0.17463045
0.1762406
0.17787264
0.17945042
0.18083784
0.18172706
0.18173809
0.17978803
0.17534508
0.17104775
0.16840035
0.16622948
0.16424438
0.1624615
0.16087166
0.15935738
0.15823407
0.15743921
0.15726769
0.15020087
0.15820051
0.16005302
0.16179572
0.16344902
0.16501564
0.16650327
0.16792551
0.16930378
0.17066412
0.17203726
0.17345113
0.17492625
0.17646251
0.17803301
0.17955562
0.18088218
0.18170046
0.18164108
0.17954773
0.17504304
0.17085661
0.16828296
0.16614022
0.16417838
0.16241195
0.1608337
0.15932616
0.15821379
0.15742555
0.15726894
0.15019405
0.16076516
0.16229866
0.16373921
0.16510786
0.16641119
0.16765958
0.16886784
0.1700593
0.17126017
0.1725005
0.17380602
0.17519398
0.17666014
0.17817264
0.17964293
0.1809088
0.18166176
0.18153515
0.17929947
0.17474495
0.17067155
0.16816736
0.16605199
0.16411314
0.16236288
0.16079609
0.15929524
0.15819353
0.15741172
0.15727012
0.15018765
0.1633421
0.16453402
0.16565569
0.16672884
0.16776321
0.16876966
0.16976397
0.1707708
0.17181566
0.17292729
0.17412872
0.17543358
0.1768335
0.17829161
0.17971157
0.18091854
0.1816155
0.18142021
0.17904401
0.1744514
0.17049226
0.16805342
0.16596477
0.16404863
0.1623143
0.16075885
0.15926462
0.15817327
0.15739758
0.15727122
0.1501812
0.1659045
0.16673898
0.16753063
0.16830227
0.16906483
0.16982885
0.17061099
0.1714366
0.17232966
0.17331715
0.17441901
0.17564497
0.17698261
0.17839005
0.17976213
0.18091591
0.1815622
0.18129642
0.17878214
0.17416287
0.17031845
0.16794104
0.16587857
0.16398485
0.1622662
0.16072197
0.15923431
0.15815301
0.15738334
0.15727225
0.15017542
0.1684181
0.16888852
0.16934823
0.16981759
0.17030854
0.17083203
0.17140587
0.17205491
0.17280118
0.17366957
0.17467668
0.17582807
0.17710748
0.17846797
0.17979559
0.18090148
0.18149932
0.18116362
0.17851465
0.17387978
0.1701498
0.1678301
0.16579336
0.16392179
0.16221858
0.16068546
0.15920435
0.15813273
0.15736903
0.15727317
0.15017065
0.17084483
0.17095555
0.17109295
0.17126367
0.17148634
0.17177364
0.17214548
0.17262384
0.17322919
0.17398404
0.17490154
0.17598281
0.17720803
0.17852481
0.17981186
0.18087542
0.18142955
0.18101989
0.17824216
0.17360244
0.16998601
0.16772054
0.16570913
0.16385944
0.16217144
0.16064933
0.15917472
0.15811244
0.15735473
0.15727397
0.15015754
0.17315654
0.17292361
0.17274598
0.17262794
0.1725897
0.17264826
0.17282672
0.17314133
0.17361264
0.17426006
0.17509342
0.17610905
0.17728404
0.17855994
0.17981281
0.1808378
0.18135135
0.18086616
0.17796535
0.17333114
0.16982674
0.16761228
0.16562588
0.16379779
0.16212477
0.16061358
0.15914541
0.15809214
0.15734047
0.15727448
0.15016292
0.17532867
0.17476919
0.17428878
0.17389668
0.17361045
0.17345268
0.17344668
0.1736049
0.17395039
0.17449717
0.17525211
0.17620649
0.17733362
0.17857367
0.17979908
0.18078818
0.18126366
0.18070233
0.17768511
0.17306608
0.16967169
0.16750528
0.16554359
0.16373684
0.16207858
0.16057822
0.15911641
0.15807183
0.15732604
0.15727466
0.15016935
0.17732661
0.17646789
0.17570794
0.1750597
0.17454285
0.17418227
0.1740005
0.17401405
0.17424104
0.17469482
0.17537676
0.1762728
0.17735597
0.17857
0.17976996
0.18072649
0.18116605
0.18052762
0.17740242
0.17280741
0.16952054
0.16739948
0.16546225
0.16367657
0.16203287
0.16054325
0.15908774
0.15805151
0.15731134
0.15727445
0.15017592
0.17912867
0.17800295
0.1769908
0.17610853
0.17537951
0.17483107
0.17448707
0.17436568
0.17448373
0.17485161
0.17546395
0.17630445
0.17735628
0.17854861
0.17972449
0.18065263
0.18105869
0.18034431
0.17711843
0.17255525
0.16937299
0.16729486
0.16538186
0.16361698
0.16198763
0.16050868
0.15905937
0.15803115
0.15729625
0.15727373
0.15018256
0.18071824
0.17936043
0.17812577
0.17703448
0.17611395
0.17539509
0.17490383
0.17465827
0.17467607
0.17496303
0.17550727
0.17630821
0.17733742
0.17850736
0.1796629
0.1805666
0.18094137
0.18015245
0.17683421
0.17230965
0.16922874
0.16719139
0.16530241
0.16355807
0.16194286
0.1604745
0.15903128
0.15801078
0.15728075
0.1572727
0.15018902
0.18208284
0.18052897
0.1791029
0.17782964
0.17674049
0.17587086
0.17524766
0.17488775
0.17481147
0.1750209
0.17551609
0.17629189
0.17729654
0.17844563
0.17958529
0.18046849
0.18081421
0.17995316
0.17655097
0.17207059
0.16908755
0.16708907
0.16522389
0.16349983
0.16189857
0.16044073
0.15900346
0.15799046
0.15726483
0.15727134
0.15019532
0.18321389
0.18149906
0.17991302
0.1784857
0.1772522
0.17625266
0.17550964
0.17504044
0.17488003
0.17503716
0.17550283
0.17625084
0.17722996
0.17836351
0.17949169
0.18035845
0.18067748
0.17974744
0.1762697
0.17183798
0.16894921
0.16698788
0.16514629
0.16344227
0.16185476
0.16040736
0.1589759
0.15797013
0.15724849
0.15726963
0.15020158
0.18410511
0.18225986
0.18054454
0.1789901
0.17763504
0.17652135
0.1756686
0.1751118
0.17490028
0.17502859
0.17546103
0.17617854
0.17713807
0.17826108
0.17938209
0.18023668
0.1805315
0.17953608
0.17599132
0.17161175
0.1688135
0.16688781
0.16506962
0.16338537
0.16181144
0.16037441
0.1589486
0.15794976
0.15723174
0.15726758
0.15020787
0.18469988
0.18276679
0.18095848
0.17930908
0.17786303
0.17666108
0.17573162
0.17513145
0.1748924
0.17498575
0.17538218
0.17607566
0.17702116
0.17813816
0.17925653
0.18010343
0.18037662
0.17932005
0.17571643
0.17139182
0.1686802
0.16678887
0.16499388
0.16332915
0.16176862
0.16034188
0.15892153
0.15792937
0.15721459
0.15726516
0.1502143
0.18499733
0.18302114
0.18115887
0.17945702
0.17796501
0.17670961
0.17574411
0.17512091
0.17484284
0.17489747
0.17526677
0.17594253
0.17687914
0.17799462
0.17911503
0.17995894
0.18021336
0.17910011
0.17544542
0.17117803
0.16854915
0.16669106
0.16491905
0.16327361
0.16172629
0.16030978
0.1588947
0.15790899
0.15719703
0.15726237
0.1502209
0.18511726
0.18311675
0.18122116
0.17950036
0.17799767
0.17671695
0.17572491
0.17505785
0.17473727
0.17476398
0.17511485
0.17577905
0.17671192
0.17783032
0.17895762
0.17980349
0.18004221
0.17887697
0.17517873
0.17097029
0.16842019
0.16659438
0.16484515
0.16321874
0.16168447
0.16027811
0.15886811
0.1578886
0.15717908
0.15725919
0.15022768
0.18513681
0.18313398
0.18123201
0.17949694
0.17796501
0.17666199
0.17563505
0.1749231
0.17457547
0.17458493
0.17492605
0.17558504
0.17651938
0.17764515
0.17878426
0.17963731
0.17986372
0.1786513
0.17491673
0.17076849
0.16829317
0.16649885
0.16477217
0.16316455
0.16164316
0.16024689
0.15884176
0.15786822
0.15716072
0.15725558
0.15023458
0.1849
0.18296507
0.18110612
0.17937226
0.17781422
0.17649329
0.17544566
0.17471517
0.17435642
0.17435938
0.17469985
0.17536032
0.17630146
0.17743903
0.17859493
0.17946052
0.17967842
0.17842375
0.17465975
0.17057252
0.16816799
0.16640447
0.16470013
0.16311105
0.16160239
0.16021612
0.15881565
0.15784784
0.15714198
0.15725154
0.15024147
0.1843081
0.1824917
0.18071535
0.17903487
0.1775087
0.17620157
0.1751596
0.17443269
0.17407859
0.17408636
0.17443576
0.17510476
0.17605808
0.17721189
0.17838954
0.17927297
0.17948685
0.17819493
0.17440798
0.17038232
0.16804454
0.16631125
0.16462901
0.16305824
0.16156214
0.16018581
0.15878977
0.15782745
0.15712285
0.15724702
0.15024808
0.1834446
0.1817579
0.18009271
0.17850541
0.17704987
0.17578916
0.17477785
0.17407462
0.1737406
0.17376496
0.17413331
0.17481822
0.17578922
0.17696371
0.17816799
0.17907528
0.17928957
0.17796546
0.17416165
0.17019769
0.16792276
0.1662192
0.16455885
0.16300613
0.16152245
0.16015597
0.15876411
0.15780706
0.15710334
0.15724191
0.15025329
0.18236347
0.18081405
0.17927448
0.17780213
0.1764438
0.17525719
0.17430015
0.17364018
0.17334127
0.17339443
0.17379205
0.17450053
0.17549487
0.17669448
0.17793013
0.17886744
0.17908715
0.17773595
0.17392094
0.17001848
0.16780261
0.16612833
0.16448964
0.16295472
0.1614833
0.16012659
0.15873867
0.15778673
0.15708348
0.15723602
0.15025345
0.18107176
0.17967248
0.17827338
0.17693403
0.17569481
0.17460664
0.17372637
0.17312898
0.1728796
0.17297408
0.1734115
0.17415157
0.17517504
0.17640424
0.17767596
0.1786494
0.17888003
0.17750703
0.17368598
0.16984454
0.16768407
0.16603865
0.16442139
0.16290404
0.16144473
0.1600977
0.15871347
0.1577664
0.15706329
0.15722951
0.15024973
0.17956347
0.17833105
0.17709107
0.17590438
0.17480552
0.17383853
0.17305691
0.17254107
0.17235452
0.17250329
0.17299119
0.17377116
0.17482974
0.17609309
0.17740549
0.17842077
0.17866853
0.17727933
0.17345685
0.16967575
0.16756715
0.16595018
0.16435415
0.16285409
0.16140673
0.1600693
0.15868853
0.15774618
0.1570428
0.15722268
0.15024536
0.17782665
0.17678238
0.17572502
0.17471376
0.17377744
0.17295384
0.17229265
0.17187681
0.17176487
0.17198157
0.1725307
0.17335911
0.174459
0.17576114
0.17711871
0.17818153
0.17845298
0.17705347
0.17323363
0.16951197
0.16745188
0.16586294
0.16428791
0.16280489
0.16136932
0.16004138
0.15866385
0.15772601
0.15702204
0.15721535
0.15024044
0.1758506
0.17501987
0.17417275
0.17336234
0.17261185
0.17195366
0.17143525
0.17113634
0.17110954
0.1714086
0.17202966
0.17291525
0.17406288
0.17540856
0.1768156
0.17793127
0.17823366
0.17683007
0.1730164
0.16935307
0.16733825
0.16577691
0.16422268
0.16275642
0.16133249
0.16001395
0.15863945
0.1577059
0.157001
0.15720757
0.15023331
0.1736357
0.17304423
0.17243573
0.17185207
0.1713107
0.17084005
0.17048713
0.17031776
0.17038897
0.17078457
0.17148786
0.17243944
0.17364146
0.17503562
0.17649605
0.17766997
0.17801076
0.1766097
0.17280515
0.16919883
0.16722622
0.16569202
0.16415838
0.16270866
0.16129623
0.15998699
0.15861537
0.15768591
0.15697968
0.1571993
0.1502241
0.17120017
0.17086794
0.17052234
0.17018874
0.16987762
0.16961757
0.16944787
0.16941917
0.16960592
0.17010969
0.17090513
0.17193149
0.17319477
0.17464256
0.17616008
0.17739755
0.17778442
0.17639297
0.17259976
0.16904896
0.16711573
0.16560824
0.16409502
0.1626616
0.16126057
0.15996053
0.15859163
0.15766606
0.15695806
0.15719051
0.15021296
0.16857645
0.16851362
0.16844794
0.16838184
0.16832082
0.16828926
0.168313
0.16844176
0.16876262
0.16938409
0.17028098
0.1713908
0.17272244
0.17422926
0.17580745
0.17711389
0.17755467
0.17618087
0.17240021
0.16890348
0.16700706
0.16552589
0.16403295
0.16261553
0.16122565
0.15993467
0.15856822
0.15764635
0.15693605
0.15718118
0.15019977
0.16578773
0.16599537
0.16622171
0.16643659
0.16663879
0.16684443
0.16707791
0.16738285
0.16785276
0.16860452
0.16961252
0.17081468
0.17222235
0.17379415
0.17543705
0.17681807
0.17732132
0.17597537
0.17220775
0.16876398
0.16690151
0.16544595
0.163973
0.16257104
0.1611918
0.1599095
0.15854511
0.15762669
0.15691348
0.15717143
0.15018433
0.16281697
0.163287
0.16381329
0.16432466
0.16480295
0.16526215
0.16572685
0.16622586
0.16685316
0.16775694
0.16889251
0.17019744
0.17168994
0.17333362
0.17504617
0.17650781
0.17708347
0.17577853
0.17202574
0.16863319
0.16680046
0.16536905
0.16391543
0.16252816
0.16115887
0.15988486
0.15852231
0.15760687
0.15689006
0.15716143
0.15016353
0.15969514
0.16029799
0.16106589
0.16187669
0.1626658
0.16342398
0.16416399
0.16488905
0.16568446
0.16677671
0.16807898
0.16950644
0.17109834
0.17282529
0.17461662
0.17616992
0.17683611
0.17558661
0.17186197
0.16851055
0.16670165
0.16529271
0.16385768
0.1624848
0.16112568
0.15986017
0.15850014
0.15758707
0.15686533
0.15715111
0.15017528
0.021694597
0.041005103
0.071680729
0.10147981
0.12211777
0.13475825
0.14275645
0.14860829
0.15347525
0.15780165
0.16175095
0.16540532
0.16880904
0.17198628
0.17495374
0.17765324
0.18005576
0.18171703
0.1821612
0.18013695
0.1752151
0.17083497
0.16791383
0.16547847
0.16337193
0.16155893
0.15992557
0.1585844
0.15764151
0.15724272
0.150345
0.024345688
0.043272398
0.072016641
0.10098309
0.12165398
0.13437989
0.14245709
0.14833782
0.15320443
0.15752644
0.16148241
0.16515619
0.1685894
0.17180128
0.17480437
0.17753893
0.17997054
0.18166782
0.18216935
0.18020823
0.17532203
0.17090021
0.16795689
0.16551044
0.16339611
0.16157808
0.15994444
0.15859649
0.15764883
0.15723805
0.15034753
0.026473703
0.044983465
0.072121984
0.10043511
0.1210798
0.13386641
0.14202972
0.14796071
0.15284704
0.15718186
0.16115724
0.16486
0.16833028
0.17158324
0.1746277
0.1774027
0.17986887
0.18161295
0.18216955
0.18028863
0.17544075
0.17097032
0.16800023
0.16554217
0.16342023
0.16159745
0.15996371
0.15860885
0.15765605
0.15723274
0.15034988
0.028167715
0.046077204
0.072027654
0.099679616
0.12033106
0.13325636
0.14154772
0.14755179
0.15247081
0.15682493
0.16082225
0.16455455
0.16806179
0.17135586
0.17444205
0.17725832
0.17976027
0.18155288
0.18216697
0.18036837
0.17556268
0.17104548
0.16804692
0.16557642
0.16344604
0.16161802
0.15998381
0.15862135
0.15766277
0.15722701
0.15035234
0.029838439
0.047163701
0.071934658
0.0988721
0.1195166
0.1326167
0.14105363
0.14713952
0.15209595
0.15647062
0.1604888
0.1642486
0.16779072
0.17112436
0.17425138
0.17710874
0.17964686
0.18148821
0.1821612
0.18044498
0.17568381
0.17112246
0.16809508
0.16561194
0.16347274
0.16163926
0.16000443
0.15863394
0.1576693
0.1572211
0.15035494
0.031477081
0.04827729
0.071956208
0.098113347
0.11870812
0.13197748
0.1405595
0.14672945
0.15172564
0.15612134
0.16015907
0.16394421
0.16751894
0.17089037
0.17405703
0.17695494
0.17952922
0.18141908
0.18215111
0.18051722
0.17580277
0.17119934
0.16814289
0.16564731
0.16349937
0.16166055
0.1600252
0.15864655
0.15767583
0.15721511
0.15035769
0.033035312
0.049345881