/*--------------------------------*- C++ -*----------------------------------*\
| =========                 |                                                 |
| \\      /  F ield         | OpenFOAM: The Open Source CFD Toolbox           |
|  \\    /   O peration     | Version:  2406                                  |
|   \\  /    A nd           | Website:  www.openfoam.com                      |
|    \\/     M anipulation  |                                                 |
\*---------------------------------------------------------------------------*/
FoamFile
{
    version     2.0;
    format      ascii;
    arch        "LSB;label=32;scalar=64";
    class       volScalarField;
    location    "0.002";
    object      nut;
}
// * * * * * * * * * * * * * * * * * * * * * * * * * * * * * * * * * * * * * //

dimensions      [0 2 -1 0 0 0 0];

internalField   nonuniform List<scalar> 
8951
(
0.03814391
0.041970381
0.046448408
0.051556014
0.057289477
0.063625378
0.070510502
0.077856525
0.085527967
0.093295625
0.10076358
0.10733215
0.11210749
0.11378357
0.11052927
0.10001485
0.079723718
0.048873135
0.021725457
0.0098757406
0.0071085971
0.0059941153
0.0053196542
0.0048879672
0.0046021163
0.0044412445
0.0043714594
0.0043183006
0.0042668669
0.0041481903
0.0040517732
0.042955349
0.046816093
0.051177528
0.056101539
0.061610273
0.067691555
0.074297
0.081334936
0.088666082
0.096058555
0.10311418
0.10920976
0.11343712
0.11447391
0.1104764
0.099132101
0.078044978
0.047006281
0.020176686
0.0096068905
0.0070159737
0.0059577415
0.0052998894
0.0048766788
0.0045955264
0.0044371814
0.0043682757
0.0043166845
0.0042668926
0.0041499357
0.0040521198
0.048624898
0.052383918
0.056597367
0.06131997
0.066579068
0.072370015
0.078649881
0.085328647
0.092261517
0.099209835
0.10576918
0.11130157
0.11487987
0.1151631
0.11029487
0.097986388
0.075978928
0.044696479
0.018785639
0.0092896981
0.0069670668
0.0059373791
0.0052889982
0.0048704777
0.00459185
0.0044342047
0.0043654996
0.0043154172
0.0042674451
0.0041522417
0.004052595
0.055257206
0.058822155
0.062821305
0.067293967
0.072260221
0.07771438
0.083614939
0.089872706
0.096337081
0.10276021
0.10872836
0.11359092
0.11640027
0.11579473
0.10990591
0.09647693
0.073415452
0.041891649
0.017420262
0.0089883505
0.0068969605
0.0059042592
0.0052705274
0.0048595765
0.0045854078
0.0044297024
0.0043614435
0.0043134498
0.0042677192
0.0041549304
0.0040530985
0.062931026
0.066239802
0.069958959
0.074118933
0.07873214
0.083787938
0.089242206
0.095003322
0.10091366
0.106714
0.11197908
0.11604476
0.11794222
0.11628753
0.10920216
0.094471951
0.070217083
0.038535821
0.016030638
0.0086766089
0.0068278873
0.0058720933
0.0052530463
0.0048492544
0.0045794307
0.0044252003
0.0043571031
0.0043112727
0.0042678099
0.0041581333
0.0040537441
0.07169111
0.074684794
0.078066507
0.081850026
0.086041925
0.090626265
0.095554212
0.10072873
0.10598298
0.1110443
0.11547353
0.1185916
0.11940744
0.11651414
0.10802718
0.091790446
0.066207663
0.034585169
0.014608584
0.008360558
0.0067481246
0.005832057
0.0052306807
0.0048357064
0.0045715613
0.0044195233
0.0043521324
0.0043085359
0.0042672449
0.0041619072
0.0040545002
0.081512413
0.08413262
0.087126833
0.090472918
0.094172684
0.098205187
0.10251572
0.10699957
0.11147857
0.11566467
0.11910237
0.12109556
0.12062998
0.11627618
0.10615208
0.088182813
0.06116704
0.030094936
0.013180215
0.0080493868
0.0066636636
0.0057890537
0.0052069346
0.0048211392
0.0045632623
0.0044133341
0.0043472852
0.0043054494
0.0042654039
0.0041664215
0.0040553548
0.092245057
0.094467728
0.097021447
0.09986792
0.10300263
0.10639791
0.10999108
0.11366738
0.11723533
0.12038972
0.12265626
0.12331915
0.12134017
0.11526986
0.10324436
0.083307598
0.054838826
0.025215924
0.011797162
0.0077764452
0.0065694031
0.0057384262
0.0051785036
0.0048033274
0.0045530204
0.0044059954
0.0043422933
0.0043016762
0.0042632253
0.0041717176
0.0040563127
0.10359861
0.10539342
0.10745799
0.10974471
0.11224099
0.11491014
0.11767895
0.1204201
0.12292655
0.12487403
0.12576683
0.12486656
0.12111076
0.11303583
0.098824502
0.076706319
0.046975717
0.020815226
0.010538306
0.0075437371
0.0064663619
0.0056824411
0.0051472348
0.004783384
0.0045415656
0.0043979479
0.0043367426
0.0042971904
0.0042602278
0.0041779839
0.0040573767
0.11501126
0.1163467
0.11787441
0.11954183
0.12132574
0.12317771
0.125011
0.12668269
0.12796737
0.12851906
0.12781772
0.12509933
0.11927813
0.10888902
0.092208265
0.067790211
0.037503184
0.016949375
0.0094240098
0.007297818
0.0063499279
0.0056175479
0.0051106281
0.0047595844
0.0045278534
0.0043886745
0.0043293552
0.0042915996
0.0042568916
0.0041851739
0.0040585461
0.12547396
0.12632187
0.12726935
0.12826197
0.12926334
0.13021067
0.13100045
0.13147046
0.13137331
0.13033788
0.12781645
0.1230165
0.11483275
0.10182756
0.082454647
0.055870522
0.026898978
0.013463121
0.0084669106
0.0070814882
0.0062218156
0.0055449956
0.0050698473
0.0047326142
0.0045126526
0.004378432
0.0043201262
0.0042847888
0.0042533073
0.0041932228
0.00405981
0.13330749
0.13364854
0.13398428
0.13425827
0.13441835
0.13438537
0.13403672
0.13318781
0.13156517
0.12876873
0.1242198
0.1170934
0.10627592
0.090430482
0.068334984
0.040432306
0.019313566
0.010772461
0.0077385872
0.0068414724
0.0060752898
0.0054617443
0.005022366
0.0047008527
0.0044945915
0.0043668951
0.0043105376
0.0042764975
0.0042497207
0.0042014255
0.0040611404
0.13583595
0.13565633
0.13535675
0.13488948
0.13418167
0.13313064
0.13158962
0.12934822
0.12610446
0.12142882
0.11471156
0.10508184
0.091453118
0.072808912
0.048474479
0.024585304
0.013495443
0.0088425841
0.0073958457
0.0066229514
0.0059175656
0.0053701696
0.0049687231
0.0046647065
0.0044741178
0.0043542693
0.0043000208
0.0042669264
0.0042455462
0.0042065183
0.0040624693
0.12886996
0.12816586
0.12724214
0.12604751
0.12449401
0.12245622
0.11975921
0.11615841
0.1113208
0.10479537
0.095958178
0.083788764
0.067389623
0.046943207
0.027836728
0.015331215
0.0098192628
0.0077375856
0.0068844144
0.006331204
0.0057374911
0.0052701942
0.004906644
0.0046222321
0.0044502281
0.00434018
0.0042871957
0.0042560134
0.0042410757
0.0042095191
0.0040637693
0.1060977
0.10498167
0.10356555
0.10179426
0.099553786
0.096687331
0.09299755
0.088220418
0.082021677
0.07400132
0.063812289
0.051817739
0.038721927
0.025764247
0.015849616
0.010317514
0.0081656072
0.0073730125
0.0066206886
0.0061058453
0.0055571549
0.0051594258
0.0048338209
0.0045747139
0.0044232481
0.0043248609
0.0042733095
0.0042435813
0.0042351559
0.0042119873
0.0040649152
0.068826635
0.067678543
0.06629508
0.064645273
0.062622614
0.060097799
0.056933297
0.052983548
0.048108377
0.042191903
0.035284183
0.027522623
0.020348164
0.014140875
0.01003512
0.0082623047
0.0075494251
0.0066495468
0.0060588184
0.0057201778
0.0053504936
0.0050500145
0.0047493756
0.0045217301
0.0043917173
0.0043076538
0.0042578968
0.0042299694
0.0042289789
0.0042144285
0.0040659207
0.035273286
0.034717977
0.034003176
0.033110794
0.031994434
0.030604407
0.028872786
0.026732494
0.024137279
0.021113637
0.017745115
0.014226665
0.011244381
0.0089103597
0.0077208504
0.0074330345
0.0067180936
0.0063068783
0.0058538797
0.0055099689
0.0051780062
0.0049190643
0.0046554733
0.0044680516
0.0043577753
0.0042886896
0.004242025
0.0042154516
0.0042221626
0.0042168579
0.0040748587
0.016535103
0.016410837
0.016173129
0.01581627
0.015342397
0.014753829
0.014040883
0.013181169
0.012161693
0.011034189
0.0097766977
0.0085779735
0.0076200994
0.0070630231
0.0069013069
0.0066106248
0.0062136121
0.0057589725
0.0054217879
0.0051737518
0.0049902166
0.0047944331
0.0045615481
0.0044144415
0.0043223426
0.0042681113
0.0042267033
0.004200521
0.0042155114
0.004218304
0.0041114364
0.0087036633
0.008691623
0.0086432269
0.0085509762
0.0084158031
0.0082266195
0.007998387
0.0077463822
0.0074701124
0.0071994088
0.0068645193
0.0066514312
0.0064438273
0.0062899941
0.0059779851
0.0057486699
0.0056319097
0.0054655799
0.0052084263
0.005018665
0.0048896383
0.004658281
0.004473959
0.0043667473
0.0042921662
0.0042468055
0.0042132061
0.0041889726
0.0042103761
0.0042180429
0.0041377057
0.0060441738
0.0060442316
0.0060450827
0.0060464957
0.0060532064
0.0060634355
0.006042766
0.0059946746
0.005964978
0.0058981658
0.0058417695
0.0058930562
0.0058463578
0.0056857794
0.0054859405
0.0053668951
0.0053416046
0.005068757
0.0049004019
0.0047517866
0.0047063479
0.0045742152
0.0043951898
0.004316615
0.0042692939
0.0042262086
0.0042026217
0.0041825455
0.0042070439
0.0042157978
0.0041416654
0.0054035198
0.0053989822
0.0053949049
0.0053881122
0.0053854747
0.0053868764
0.0053950368
0.0054086908
0.0054081994
0.0054007554
0.005399993
0.0053399199
0.0052589851
0.0052739718
0.0052454883
0.0050480067
0.0049114602
0.0048890601
0.0047917447
0.0046148873
0.0045748418
0.0044356409
0.0043356837
0.0042844939
0.0042462112
0.0042099246
0.0041945288
0.0041784187
0.0042045692
0.0042157722
0.0041441271
0.0048803458
0.004887022
0.0048972262
0.0049088854
0.0049155116
0.0049159145
0.0049132024
0.0049090988
0.0049036677
0.0048919525
0.0048487846
0.004825235
0.0048339309
0.0047856656
0.0047464849
0.0046885667
0.0047065248
0.0046053805
0.0045443673
0.0044571518
0.0043845728
0.0043406274
0.0043005792
0.0042491409
0.0042211001
0.0041952224
0.0041867374
0.0041753262
0.0042041924
0.0042037226
0.0041472686
0.004636626
0.0046374574
0.0046370089
0.0046353489
0.0046342784
0.0046347194
0.0046351848
0.0046329972
0.0046246932
0.0046063523
0.0045751735
0.0045440542
0.0045258037
0.0045059204
0.0044893675
0.0044578137
0.0044283729
0.004415668
0.0043842746
0.004387727
0.0043007145
0.0042836942
0.0042527131
0.0042250855
0.0041932595
0.0041798237
0.0041768809
0.0041699482
0.0042014907
0.0041826515
0.0041223755
0.0043803591
0.0043805673
0.0043804236
0.0043796946
0.0043784646
0.0043767533
0.0043742296
0.0043703094
0.0043643599
0.004356233
0.0043514965
0.0043526604
0.0043479491
0.0043434424
0.0043294585
0.004335335
0.004296863
0.0043122688
0.0042681124
0.0042848979
0.0042440375
0.0042274486
0.0042184106
0.0041882828
0.0041653419
0.0041643884
0.0041621565
0.0041569074
0.0041877889
0.0041607865
0.0040992498
0.004251986
0.0042532879
0.0042545857
0.004255551
0.0042561765
0.0042559597
0.004254191
0.0042493774
0.0042398738
0.0042246487
0.0042059252
0.00419402
0.004188786
0.0041910962
0.0042076445
0.0042182959
0.0042253283
0.0042111468
0.0042090825
0.0041788016
0.0041651472
0.0041703366
0.0041734125
0.0041576007
0.004149167
0.004142559
0.0041445895
0.0041377326
0.0041601625
0.00415009
0.0040816935
0.0041403908
0.0041403215
0.004139991
0.0041392296
0.0041382903
0.004137137
0.0041355205
0.0041333578
0.004130488
0.0041268488
0.0041228342
0.004119676
0.0041199799
0.0041240015
0.0041314918
0.004150093
0.0041561576
0.0041405985
0.0041293071
0.0041125751
0.004106292
0.0041051296
0.004117532
0.0041349137
0.0041251488
0.004120342
0.0041219158
0.0041128393
0.0041249851
0.0041161267
0.0040734784
0.0040876419
0.0040878795
0.0040879836
0.0040878817
0.0040877367
0.0040875883
0.0040873848
0.004086696
0.0040849523
0.0040819662
0.004078762
0.0040760675
0.0040752973
0.0040779111
0.0040862145
0.0040967266
0.004100172
0.0040920841
0.0040823216
0.0040769451
0.004072938
0.0040718149
0.0040794671
0.004085013
0.0040819712
0.0040791428
0.0040825042
0.0040761189
0.0040811687
0.0040891201
0.0040629202
0.0040601044
0.0040599174
0.004059616
0.004059298
0.0040589831
0.004058655
0.0040582854
0.0040578219
0.0040572064
0.004056471
0.0040559054
0.0040558474
0.0040567065
0.0040584612
0.0040618819
0.0040656698
0.0040660814
0.0040619022
0.0040578224
0.004054442
0.0040520874
0.0040508277
0.004053665
0.0040566292
0.0040564382
0.0040546981
0.0040558779
0.0040538056
0.0040572854
0.0040634765
0.0040551082
0.0040499614
0.0040498155
0.0040496242
0.0040494222
0.0040492335
0.0040490651
0.0040489283
0.0040488452
0.0040488509
0.0040489979
0.0040493778
0.0040501296
0.0040513812
0.0040525119
0.0040537416
0.0040547955
0.0040532753
0.0040516527
0.0040500463
0.0040472755
0.0040454284
0.0040445153
0.0040456476
0.0040478949
0.0040483981
0.0040465269
0.0040463758
0.0040454678
0.0040461779
0.0040535247
0.0040518956
0.0040471079
0.0040470394
0.0040469409
0.0040468298
0.0040467172
0.0040466092
0.0040465145
0.0040464452
0.0040464157
0.0040464477
0.0040465937
0.0040469968
0.0040478343
0.004049113
0.0040504335
0.0040506192
0.0040504691
0.0040486229
0.0040477954
0.0040455319
0.0040435002
0.0040421026
0.0040430776
0.004045465
0.0040452866
0.004043791
0.0040432441
0.0040425506
0.0040425575
0.0040453097
0.0040512255
0.0040472841
0.0040472726
0.0040472454
0.0040472089
0.004047178
0.0040471733
0.0040472144
0.0040473131
0.0040474799
0.0040477181
0.0040480202
0.0040483646
0.0040486849
0.004048805
0.0040484568
0.0040478486
0.0040476106
0.0040478743
0.0040483753
0.0040481522
0.0040461953
0.0040443099
0.0040442951
0.0040440513
0.0040437103
0.0040428923
0.0040426684
0.0040424205
0.0040421365
0.0040434017
0.0040476421
0.0018593273
0.0018081646
0.0020570471
0.0026956948
0.0044711271
0.0075044765
0.011623933
0.016681255
0.022729667
0.030102438
0.038568372
0.047889358
0.058134028
0.068779822
0.078869634
0.086845702
0.090263592
0.085445482
0.068542023
0.042132946
0.019403637
0.0090598783
0.0061368601
0.0052462587
0.004818831
0.0045920822
0.0044871759
0.0043549174
0.0042674274
0.004103775
0.0040466218
0.0016980497
0.0018476077
0.0022524164
0.0034600551
0.0059709637
0.0094266144
0.013662888
0.018740172
0.024852048
0.032324664
0.04070101
0.049991928
0.060144897
0.070598548
0.080368655
0.08785858
0.090587439
0.084864628
0.067042269
0.040320256
0.018251311
0.0087323036
0.0060430228
0.005217566
0.0048063441
0.004586119
0.0044835275
0.0043541054
0.0042669558
0.0041037213
0.0040468749
0.001631731
0.0019084677
0.0025691757
0.0044303415
0.0072691043
0.010897218
0.015282778
0.020507837
0.026790247
0.03437188
0.042715588
0.052011997
0.062084284
0.072348691
0.081797066
0.088797477
0.090836724
0.08421527
0.065504352
0.03854957
0.017231621
0.0084168813
0.0059844301
0.0052003211
0.0047982433
0.0045819351
0.0044807684
0.0043536218
0.0042666671
0.0041036782
0.0040471498
0.001655245
0.0020350024
0.0033521366
0.0056151748
0.0086466451
0.012388421
0.016886677
0.022240159
0.028730811
0.036317432
0.044671827
0.053976345
0.063966195
0.074038251
0.083159874
0.089665607
0.091013138
0.083497376
0.063931161
0.036822715
0.01630272
0.0081402169
0.0059254962
0.0051798811
0.0047885793
0.0045770336
0.0044776354
0.0043529232
0.0042662702
0.0041035885
0.0040474224
0.0017007251
0.002573268
0.0043456315
0.0068573627
0.010028321
0.013880305
0.018488806
0.023978155
0.030629811
0.038189673
0.046590924
0.055897287
0.065797919
0.075671725
0.084460334
0.090465983
0.091119984
0.082714655
0.062331025
0.035141769
0.015445329
0.0078926538
0.0058745585
0.005162069
0.0047799919
0.0045725813
0.0044747433
0.0043522523
0.0042659053
0.0041035892
0.004047701
0.0020275262
0.0034034671
0.0054670242
0.0081398182
0.011423002
0.015379782
0.020095432
0.025735122
0.032495036
0.040034477
0.048484718
0.0577811
0.067583795
0.077252226
0.085701073
0.09120135
0.091160427
0.081870853
0.060711521
0.033509154
0.014650204
0.0076711206
0.0058280388
0.005144472
0.0047713284
0.0045680469
0.0044718199
0.0043515171
0.0042654969
0.0041036213
0.004047986
0.0027270376
0.0044053586
0.0066452161
0.0094362794
0.012824037
0.016884424
0.021707883
0.02750638
0.034302676
0.041865858
0.050356398
0.059630627
0.069326377
0.078781914
0.086884219
0.091874187
0.09113749
0.0809698
0.059078367
0.031927808
0.01391292
0.0074731177
0.0057860244
0.0051279613
0.0047630808
0.0045636675
0.0044689987
0.0043507576
0.0042650763
0.0041036689
0.0040482764
0.0035749407
0.0054583774
0.0078385034
0.010740187
0.014230507
0.018392907
0.023332464
0.029274649
0.036062829
0.043685121
0.052206149
0.06144704
0.071027152
0.080262322
0.088011562
0.092486806
0.091054118
0.080015562
0.057436546
0.030400953
0.013230973
0.0072964984
0.0057476933
0.0051121017
0.0047550184
0.0045593293
0.004466225
0.0043499675
0.0042646226
0.0041037519
0.0040485704
0.004547548
0.0065786052
0.0090600677
0.012053631
0.015640234
0.019902665
0.024971225
0.031003548
0.037810411
0.045493397
0.054033111
0.063230638
0.072686957
0.081694595
0.089084689
0.093041427
0.090913239
0.079012315
0.055791143
0.028931915
0.012602438
0.0071393322
0.0057127032
0.0050970047
0.0047472335
0.0045550821
0.0044635292
0.0043491564
0.0042641434
0.0041038688
0.0040488659
0.005581183
0.0077058279
0.01027469
0.013362707
0.017048619
0.021413632
0.026622922
0.032709345
0.039553446
0.047287737
0.055835821
0.064981263
0.074306254
0.083079645
0.090105079
0.093540243
0.090717789
0.077963966
0.054146772
0.027523891
0.012025426
0.0069998881
0.0056806151
0.0050825651
0.0047396742
0.0045508998
0.0044608995
0.0043483289
0.0042636363
0.0041040168
0.0040491616
0.0066174346
0.0088273243
0.011487272
0.014671721
0.018456248
0.022930123
0.028273485
0.034373334
0.04128522
0.04906488
0.057612843
0.06669854
0.075885289
0.084418259
0.091074172
0.093985464
0.09047074
0.076874393
0.052507456
0.026183493
0.011497894
0.0068767958
0.0056510949
0.0050687784
0.0047323553
0.0045467937
0.0044583414
0.0043474901
0.004263108
0.0041042001
0.0040494561
0.0076534394
0.0099477115
0.012698752
0.015978525
0.019859807
0.024452742
0.029878292
0.036022502
0.043005494
0.050822533
0.059362869
0.068382
0.077424201
0.085711179
0.091993416
0.094379355
0.090175141
0.075748221
0.050876994
0.024916255
0.011017423
0.0067694702
0.0056238263
0.0050556048
0.0047252624
0.0045427583
0.0044558494
0.004346645
0.0042625636
0.0041044192
0.0040497456
0.0086817961
0.011062453
0.013905324
0.017279991
0.021258933
0.025975313
0.031450493
0.037665231
0.044711462
0.052558453
0.061084678
0.070031147
0.0789231
0.086959154
0.092864314
0.09472427
0.08983435
0.074590502
0.049258188
0.023718263
0.01058132
0.00667923
0.0055985253
0.0050430267
0.0047183957
0.0045387968
0.0044534188
0.004345798
0.0042620119
0.0041046745
0.0040500264
0.0097024901
0.012170469
0.015104868
0.0185738
0.022656065
0.027486525
0.033004039
0.039296832
0.046399818
0.054270712
0.062777175
0.07164551
0.080382113
0.088162977
0.09368844
0.095022681
0.08945248
0.073405992
0.0476562
0.022584589
0.010186701
0.0065982403
0.0055749284
0.0050310223
0.0047117497
0.0045349092
0.0044510404
0.0043449544
0.0042614618
0.0041049675
0.0040502944
0.010713371
0.01326879
0.01629442
0.019856638
0.024052996
0.028963158
0.034547486
0.040914091
0.048068066
0.055957706
0.064439384
0.073224675
0.08180142
0.089323515
0.094467465
0.095277162
0.089033335
0.072199555
0.046077852
0.021514922
0.0098309911
0.0065268087
0.0055529194
0.0050195758
0.0047053227
0.0045310975
0.0044487036
0.0043441192
0.0042609228
0.0041052987
0.0040505453
0.011711391
0.014354482
0.01747165
0.021128763
0.02543942
0.030412383
0.036078212
0.042513779
0.049714164
0.057618062
0.06607044
0.074768297
0.083181274
0.090441719
0.09520316
0.095490363
0.088580288
0.070976136
0.044529125
0.020510049
0.0095116283
0.0064632856
0.0055323231
0.0050086711
0.0046991121
0.0045273625
0.0044463949
0.0043432989
0.0042604021
0.0041056689
0.004050774
0.012693464
0.015424988
0.018634415
0.022391156
0.026804081
0.031842018
0.037591673
0.044093468
0.051336446
0.059250572
0.067669578
0.076276118
0.084522015
0.091518642
0.095897402
0.095665029
0.088097092
0.069740739
0.043015535
0.019570603
0.0092260474
0.0064068545
0.0055130335
0.0049982949
0.0046931161
0.0045237056
0.0044441
0.0043425003
0.0042599029
0.0041060786
0.0040509752
0.013657101
0.016478303
0.019780047
0.023645949
0.028138018
0.033256505
0.039086706
0.045651447
0.05293348
0.060854161
0.06923613
0.077747963
0.085824076
0.092555438
0.096552177
0.095804017
0.087587935
0.068498369
0.041542038
0.018696771
0.0089716757
0.0063565716
0.0054949417
0.0049884338
0.004687333
0.0045201274
0.0044418041
0.0043417302
0.004259427
0.0041065288
0.0040511435
0.014601058
0.017513458
0.020909572
0.024882694
0.029448274
0.034653815
0.040561511
0.047186143
0.054503979
0.062427859
0.070769519
0.079183751
0.087087988
0.093553365
0.097169578
0.095910292
0.087056902
0.06725418
0.040112972
0.017888232
0.0087459699
0.0063116922
0.0054779662
0.0049790755
0.0046817614
0.004516628
0.0044394928
0.0043409936
0.0042589791
0.0041070198
0.0040512746
0.015524447
0.018529486
0.022023231
0.026095871
0.030738616
0.036031823
0.042014475
0.048696142
0.056046761
0.063970784
0.07226925
0.080583484
0.088314376
0.094513782
0.097751794
0.095987726
0.086508197
0.066013405
0.038732106
0.017144104
0.0085464504
0.0062716175
0.0054620342
0.0049702083
0.0046763996
0.0045132071
0.0044371537
0.0043402918
0.0042585685
0.0041075524
0.0040513638
0.016427272
0.019525214
0.02312316
0.027280028
0.032011297
0.03738912
0.043444177
0.050180142
0.057560735
0.065482131
0.073734907
0.081947247
0.089503956
0.095438135
0.098301037
0.096039111
0.085945649
0.06478111
0.037402692
0.01646294
0.0083707318
0.0062357175
0.0054470839
0.0049618208
0.0046712457
0.004509864
0.0044347778
0.0043396199
0.0042582123
0.0041081272
0.0040514076
0.01731029
0.020502
0.024202532
0.028441809
0.033263618
0.03872407
0.044849299
0.051636918
0.059044877
0.066961163
0.075166139
0.083275198
0.090657529
0.096327962
0.098819629
0.096066551
0.085371796
0.063562115
0.036127506
0.015842789
0.0082165562
0.0062034179
0.0054330657
0.004953902
0.0046662975
0.0045065977
0.0044323613
0.0043389672
0.0042579293
0.0041087447
0.0040514045
0.018174486
0.021460543
0.025259259
0.029582833
0.034494318
0.040035385
0.046228653
0.0530653
0.060498218
0.068407198
0.07656266
0.084567563
0.091775972
0.097184896
0.099310316
0.096073648
0.084789569
0.06236058
0.03490884
0.01528486
0.0080818338
0.0061743241
0.0054199366
0.0049464419
0.0046615529
0.0045034075
0.0044299047
0.0043383184
0.0042577254
0.0041094054
0.0040513476
0.019020816
0.022402422
0.026291282
0.030703848
0.035702476
0.041321905
0.047581153
0.054464149
0.061919836
0.069819599
0.07792423
0.085824623
0.092860219
0.098010605
0.099775556
0.09606403
0.084203136
0.061180351
0.033748501
0.014785552
0.0079645758
0.0061480911
0.0054076587
0.004939431
0.0046570094
0.0045002932
0.0044274112
0.0043376571
0.0042575916
0.0041101095
0.0040512416
0.019849957
0.023326868
0.027301038
0.031803626
0.036887138
0.042582392
0.048904204
0.05583234
0.063308849
0.071197766
0.079250655
0.08704671
0.093911229
0.0988074
0.10021764
0.096041273
0.083616737
0.060024019
0.032648088
0.01433759
0.0078629673
0.0061244346
0.005396198
0.0049328609
0.0046526646
0.0044972549
0.0044248877
0.0043369694
0.0042575477
0.0041108576
0.0040510912
0.020663342
0.024232288
0.028290724
0.032881367
0.038047373
0.04381576
0.050195578
0.057168906
0.064664416
0.072541127
0.080541776
0.088234185
0.094930145
0.099576931
0.10063943
0.096008969
0.083035257
0.058894589
0.031609149
0.013937165
0.0077754745
0.0061031164
0.0053855233
0.004926724
0.0046485161
0.0044942935
0.0044223448
0.0043362451
0.004257523
0.0041116502
0.0040508934
0.021461927
0.025118843
0.02926056
0.033936467
0.039182267
0.045021392
0.051457036
0.058473152
0.065985726
0.073849135
0.081797448
0.089387745
0.095918477
0.10032046
0.10104367
0.095970722
0.082463315
0.057795346
0.030633081
0.013581526
0.0077008755
0.0060839404
0.0053756056
0.004921014
0.0046445617
0.0044914106
0.0044197948
0.0043354785
0.0042575612
0.0041124881
0.0040506532
0.02224665
0.025986421
0.030210653
0.034968293
0.040290904
0.0461984
0.052690495
0.059744307
0.067271886
0.075121216
0.083017867
0.090508511
0.096876966
0.10104014
0.10143311
0.095930139
0.081905213
0.056729665
0.029721111
0.013268228
0.007638429
0.0060667461
0.0053664176
0.0049157249
0.004640799
0.0044886076
0.0044172507
0.0043346704
0.0042576773
0.0041133712
0.0040503749
0.023018889
0.026835584
0.031140051
0.035976029
0.041372277
0.04734532
0.053891493
0.060978618
0.068521952
0.076357129
0.084203629
0.091596266
0.097806358
0.10173788
0.10181051
0.095890805
0.081364988
0.05570036
0.028874087
0.0129949
0.0075883765
0.006051406
0.0053579336
0.0049108552
0.0046372297
0.0044858782
0.0044147277
0.0043338281
0.0042578482
0.0041143016
0.0040500658
0.02377787
0.027667406
0.03204828
0.03695891
0.04242541
0.048460888
0.055057777
0.062176079
0.069735668
0.077557187
0.085353716
0.092650582
0.098707964
0.10241555
0.10217863
0.095856275
0.080846508
0.054709981
0.028092409
0.012759128
0.0075465568
0.006037691
0.0053501377
0.0049064084
0.0046338402
0.0044832174
0.0044122437
0.0043329603
0.0042580688
0.0041152811
0.0040497369
0.024523457
0.028482002
0.032934901
0.037916132
0.043449332
0.049544246
0.056189595
0.063342219
0.070911603
0.078719779
0.086467042
0.093672154
0.099582789
0.10307503
0.10254019
0.095830065
0.080353523
0.053760888
0.027377817
0.01255826
0.0075056723
0.0060250657
0.0053429959
0.0049023818
0.0046306316
0.0044806271
0.0044098167
0.0043320803
0.0042583289
0.0041163125
0.0040494027
0.025257804
0.029281081
0.033801156
0.038848485
0.044444365
0.050595542
0.057286954
0.064471132
0.072047385
0.079843235
0.087543814
0.094661323
0.10043182
0.10371812
0.10289786
0.095815643
0.079889679
0.052858785
0.026735756
0.012374829
0.007465073
0.0060136996
0.0053364846
0.0048987737
0.0046275975
0.0044781034
0.0044074637
0.0043312115
0.0042586104
0.0041173989
0.0040490823
0.025982449
0.030066154
0.034648698
0.039757495
0.045411209
0.051614126
0.05834848
0.065560562
0.073146769
0.080923603
0.088583657
0.095618387
0.10125598
0.10434655
0.10325425
0.095816416
0.079458478
0.052012081
0.026158401
0.012200596
0.007425311
0.0060035079
0.0053305835
0.0048955766
0.0046247351
0.0044756423
0.0044051993
0.0043303777
0.004258901
0.004118544
0.0040487988
0.026693194
0.030832759
0.035472779
0.040639606
0.0463471
0.052597359
0.059369907
0.066607777
0.074204248
0.081968075
0.089585668
0.096543564
0.10205615
0.10496194
0.10361187
0.095835718
0.079063301
0.051227024
0.025641139
0.012034711
0.0073868311
0.0059945056
0.0053252966
0.0048927617
0.0046220405
0.0044732374
0.0044030313
0.0043295891
0.0042592009
0.0041197513
0.0040485784
0.027382748
0.03157505
0.036267573
0.041486197
0.047244001
0.053539435
0.060348173
0.067611975
0.075218721
0.082972126
0.090549037
0.097436967
0.10283308
0.1055658
0.10397307
0.095876797
0.078708295
0.050506867
0.02517926
0.011876351
0.0073497994
0.0059866714
0.0053206315
0.0048902987
0.0046195121
0.0044708821
0.0044009565
0.0043288525
0.0042595142
0.0041210243
0.0040484486
0.028041249
0.032283723
0.037026727
0.042293879
0.048098961
0.054437596
0.061282528
0.06857161
0.076189119
0.083934145
0.0914774
0.098295459
0.10358731
0.1061595
0.1043401
0.095942779
0.07839779
0.049854905
0.024765717
0.011724779
0.0073144233
0.0059799972
0.0053165888
0.0048881674
0.0046171497
0.00446857
0.0043989602
0.0043281709
0.0042598461
0.0041223658
0.0040484365
0.028684833
0.032967376
0.037754041
0.043066213
0.048914273
0.055292723
0.062171751
0.069485456
0.077114354
0.084853207
0.092367158
0.099126312
0.10431544
0.10674413
0.10471498
0.09603661
0.07813615
0.049274499
0.024395421
0.011579281
0.0072808599
0.005974469
0.0053131645
0.0048863559
0.0046149553
0.0044662963
0.0043970155
0.0043275314
0.0042602078
0.0041237775
0.0040485677
0.029324516
0.033636296
0.03845651
0.043805499
0.04969082
0.056104736
0.063015011
0.070352359
0.077993279
0.085728371
0.093217584
0.099925135
0.10502695
0.10731652
0.10509944
0.096161115
0.077927673
0.048768397
0.024065294
0.011439164
0.0072492636
0.0059700729
0.005310353
0.004884856
0.0046129319
0.0044640588
0.00439509
0.0043269137
0.0042606081
0.00412526
0.0040488714
0.029957972
0.034291018
0.039135922
0.044513256
0.050428991
0.056873249
0.063811412
0.07117113
0.078824675
0.086558585
0.094027978
0.1006915
0.10571691
0.1078873
0.10549394
0.096318862
0.077776511
0.048339024
0.023772278
0.011303739
0.0072197905
0.0059667943
0.0053081496
0.0048836609
0.0046110831
0.0044618585
0.0043931551
0.0043263111
0.0042610515
0.0041268137
0.0040492622
0.030582306
0.03492984
0.039791695
0.045189476
0.051128536
0.057597552
0.064559883
0.071940493
0.079607248
0.087342684
0.094797514
0.101425
0.10638532
0.1084516
0.10590292
0.096512113
0.077686572
0.047988753
0.023513477
0.011172287
0.0071926162
0.0059646197
0.0053065513
0.0048827658
0.0046094123
0.0044596992
0.004391192
0.0043257031
0.0042615371
0.0041284399
0.0040486158
0.031195401
0.035550857
0.040422401
0.045833226
0.05178865
0.058276652
0.065259204
0.072659086
0.080339608
0.088079392
0.095525235
0.10212509
0.10703214
0.10900993
0.10632585
0.096741138
0.077661357
0.047720159
0.02328612
0.011044043
0.0071679518
0.0059635383
0.0053055573
0.0048821678
0.0046079219
0.0044575861
0.0043891949
0.0043250765
0.0042620535
0.0041301411
0.0040483458
0.031795879
0.03615249
0.04102652
0.046443223
0.052408215
0.058909363
0.065908063
0.073325472
0.081020268
0.088767325
0.09621005
0.10279104
0.10765712
0.10956263
0.10676367
0.097011179
0.077704036
0.047536253
0.023087439
0.010918175
0.0071463196
0.0059635446
0.0053051686
0.0048818665
0.0046066135
0.0044555254
0.0043871681
0.0043244293
0.0042625879
0.0041319211
0.0040486075
0.032382937
0.036733554
0.04160272
0.04701816
0.052986015
0.05949439
0.066505124
0.073938048
0.081649593
0.089410028
0.096857598
0.10342956
0.108266
0.11011469
0.10722112
0.097325004
0.077819445
0.047440758
0.02291451
0.010793749
0.0071272702
0.0059643695
0.0053053853
0.0048818624
0.0046054885
0.0044535221
0.0043851221
0.0043237523
0.0042631327
0.0041337727
0.0040489666
0.032956277
0.037293262
0.042149939
0.047556855
0.053520907
0.060030315
0.067050596
0.074502964
0.082233767
0.09000083
0.09745196
0.10402338
0.10884516
0.11065565
0.10768969
0.097675858
0.078005002
0.047437813
0.022763988
0.010669723
0.0071121825
0.0059667918
0.0053061416
0.0048821019
0.0046045479
0.004451581
0.0043830709
0.0043230489
0.0042636802
0.0041356924
0.004049369
0.033516361
0.037831361
0.042667433
0.048058326
0.05401175
0.060518145
0.067549613
0.07501228
0.082749726
0.090533129
0.097999752
0.10458016
0.10940065
0.11119074
0.10817434
0.098068547
0.078264598
0.047534163
0.022632016
0.010544849
0.0071011021
0.0059699685
0.0053077009
0.0048826564
0.0046037932
0.0044497065
0.0043810288
0.0043223176
0.0042642246
0.0041376794
0.0040497885
0.034065014
0.038348432
0.043154824
0.048521819
0.054457591
0.060959787
0.067992791
0.075454743
0.083206837
0.091010299