/*--------------------------------*- C++ -*----------------------------------*\
| =========                 |                                                 |
| \\      /  F ield         | OpenFOAM: The Open Source CFD Toolbox           |
|  \\    /   O peration     | Version:  2406                                  |
|   \\  /    A nd           | Website:  www.openfoam.com                      |
|    \\/     M anipulation  |                                                 |
\*---------------------------------------------------------------------------*/
FoamFile
{
    version     2.0;
    format      ascii;
    arch        "LSB;label=32;scalar=64";
    class       volScalarField;
    location    "0.02";
    object      T;
}
// * * * * * * * * * * * * * * * * * * * * * * * * * * * * * * * * * * * * * //

dimensions      [0 0 0 1 0 0 0];

internalField   nonuniform List<scalar> 
2065
(
292.4893
292.47439
292.48765
292.50296
292.51289
292.51739
292.54374
292.57384
292.61233
292.66047
292.70989
292.77214
292.81023
292.83264
292.86254
292.89673
292.93046
292.95541
292.98148
293.01124
293.03916
293.06549
293.0889
293.11097
293.14011
293.16041
293.18163
293.19865
293.20821
293.2197
293.25873
292.67606
292.63188
292.61092
292.59373
292.5861
292.58036
292.60164
292.61887
292.64937
292.69712
292.7521
292.80284
292.83326
292.85341
292.88317
292.91681
292.94777
292.97212
292.9954
293.02191
293.05102
293.07678
293.09918
293.11942
293.14744
293.1668
293.18656
293.20271
293.21072
293.2199
293.25979
292.84981
292.7549
292.71213
292.68351
292.67383
292.66604
292.67358
292.67709
292.69472
292.73218
292.7784
292.82498
292.85224
292.86707
292.89831
292.93208
292.96018
292.98442
293.00782
293.03368
293.06081
293.08574
293.10694
293.12473
293.15228
293.17098
293.18964
293.20577
293.21272
293.22007
293.25984
292.92737
292.85979
292.81708
292.78248
292.75371
292.73668
292.73492
292.73018
292.74499
292.77169
292.8129
292.84849
292.86451
292.87624
292.90989
292.94394
292.9703
292.99316
293.01368
293.03912
293.0655
293.09001
293.11072
293.12878
293.15473
293.17314
293.19168
293.20741
293.2134
293.22024
293.2601
293.08398
293.0235
292.95957
292.90516
292.86388
292.83601
292.81311
292.8135
292.80459
292.81517
292.83026
292.85883
292.87704
292.88502
292.91912
292.95115
292.97605
292.99896
293.01986
293.04454
293.06849
293.09236
293.11269
293.13077
293.15572
293.17382
293.19249
293.20793
293.21354
293.22038
293.26081
293.1418
293.07519
293.01576
292.9669
292.92047
292.88447
292.86925
292.85859
292.84758
292.85108
292.87384
292.88695
292.89674
292.89917
292.93067
292.96242
292.98586
293.00649
293.02299
293.04663
293.0697
293.09323
293.1137
293.13209
293.15588
293.17379
293.19265
293.20831
293.21381
293.22053
293.26206
293.25984
293.20161
293.14876
293.09988
293.04905
292.99827
292.96844
292.9413
292.91127
292.91133
292.90889
292.90686
292.91708
292.91836
292.94053
292.96859
292.99152
293.01094
293.02761
293.04973
293.07054
293.09362
293.11386
293.13205
293.15532
293.17324
293.19204
293.20798
293.21352
293.22066
293.2636
293.31472
293.25018
293.18518
293.12928
293.08871
293.0467
293.00706
292.971
292.95249
292.96188
292.95992
292.94523
292.94135
292.94114
292.95492
292.97851
293.00105
293.01601
293.03044
293.05086
293.07156
293.0938
293.11429
293.13214
293.15442
293.1728
293.19151
293.20762
293.21325
293.22082
293.26414
293.36889
293.33062
293.28107
293.23036
293.18416
293.14033
293.10005
293.06069
293.03424
293.02971
293.0022
292.95696
292.94966
292.96282
292.9705
292.98326
293.00437
293.01942
293.03627
293.05242
293.07275
293.09416
293.11396
293.13142
293.15332
293.1718
293.19047
293.20637
293.21227
293.221
293.26423
293.3853
293.34877
293.30517
293.25471
293.20329
293.16881
293.13987
293.10303
293.07581
293.06406
293.01914
292.97483
292.97012
292.9877
292.99208
293.00187
293.01938
293.02745
293.03798
293.05381
293.07505
293.09565
293.11463
293.13166
293.15217
293.17048
293.18929
293.20518
293.2115
293.22122
293.26354
293.40507
293.379
293.35115
293.32763
293.28308
293.23428
293.20386
293.17067
293.1299
293.09175
293.04052
293.01522
293.01554
293.02142
293.02084
293.01896
293.0286
293.04121
293.04493
293.05625
293.07594
293.09756
293.11557
293.13085
293.15082
293.16886
293.1876
293.2043
293.21071
293.22143
293.26138
293.39343
293.37479
293.35364
293.31967
293.28213
293.24285
293.21981
293.18678
293.13333
293.09211
293.06788
293.0645
293.07012
293.06378
293.05171
293.04691
293.04039
293.05169
293.05696
293.06309
293.08037
293.1011
293.11821
293.13177
293.15012
293.16756
293.1862
293.20263
293.21033
293.22168
293.25934
293.38814
293.37497
293.34928
293.34651
293.32861
293.29412
293.25916
293.20263
293.17031
293.14575
293.13641
293.12103
293.10991
293.09336
293.07567
293.0653
293.05036
293.05973
293.0689
293.07145
293.08579
293.10402
293.12008
293.13239
293.14879
293.1658
293.18443
293.20067
293.20992
293.22188
293.25576
293.36732
293.35557
293.34534
293.32217
293.30088
293.29087
293.25703
293.21434
293.1996
293.1852
293.17432
293.15255
293.1312
293.10789
293.07729
293.06833
293.06875
293.07573
293.08616
293.08587
293.09667
293.10895
293.12276
293.1336
293.14747
293.16478
293.18356
293.19886
293.20951
293.22199
293.24343
293.35113
293.34589
293.33116
293.3256
293.31238
293.30098
293.30396
293.29604
293.25536
293.21677
293.19115
293.16722
293.1443
293.11579
293.10221
293.0822
293.08761
293.08817
293.09585
293.0941
293.10215
293.11256
293.12241
293.13366
293.14619
293.1633
293.182
293.19727
293.20869
293.22194
293.24845
293.32982
293.32037
293.31312
293.30119
293.30127
293.28536
293.26325
293.25402
293.24055
293.21803
293.19381
293.1637
293.14887
293.12656
293.13737
293.12701
293.11246
293.10515
293.10914
293.11006
293.10989
293.11772
293.12353
293.13315
293.1466
293.16368
293.18163
293.19572
293.20753
293.22172
293.24495
293.30622
293.30169
293.29667
293.29055
293.28088
293.27603
293.26526
293.25454
293.24072
293.22066
293.20111
293.17703
293.17078
293.16257
293.15257
293.14034
293.1261
293.12086
293.11898
293.11884
293.11287
293.1176
293.12339
293.1344
293.14827
293.1633
293.17958
293.19376
293.20611
293.22063
293.22977
293.29517
293.29188
293.28757
293.28145
293.2751
293.2616
293.25146
293.23987
293.22686
293.21195
293.19897
293.19188
293.19391
293.17397
293.15945
293.14507
293.13326
293.12705
293.12356
293.1212
293.11837
293.11873
293.12531
293.13546
293.14714
293.16238
293.17829
293.19155
293.20416
293.2185
293.22674
293.27041
293.26738
293.26584
293.26479
293.25996
293.25749
293.25107
293.24627
293.24697
293.24452
293.23799
293.22343
293.19808
293.17665
293.16537
293.15952
293.1496
293.13182
293.11763
293.11496
293.12066
293.1184
293.12299
293.13298
293.14373
293.15928
293.17522
293.18852
293.20188
293.21613
293.23428
293.24482
293.24427
293.24104
293.23615
293.23395
293.22834
293.22629
293.22186
293.21673
293.20914
293.19975
293.19832
293.19469
293.1777
293.16829
293.15946
293.14596
293.13729
293.12834
293.12455
293.12275
293.1176
293.12129
293.13254
293.14178
293.15492
293.1723
293.18622
293.20074
293.21354
293.22467
293.219
293.21586
293.21346
293.21236
293.20939
293.20841
293.20749
293.20566
293.20153
293.19678
293.18906
293.1792
293.17412
293.17396
293.16192
293.15108
293.14695
293.14265
293.13459
293.12607
293.11812
293.11926
293.12246
293.13245
293.13883
293.15096
293.16676
293.1825
293.19959
293.20924
293.21912
293.18314
293.18241
293.18134
293.18085
293.17965
293.17946
293.17832
293.1758
293.1733
293.17072
293.16968
293.16563
293.15865
293.14834
293.14208
293.13928
293.13891
293.1343
293.13075
293.12496
293.11774
293.12121
293.12592
293.12844
293.13593
293.14517
293.16025
293.1763
293.19458
293.20189
293.21973
293.1603
293.16056
293.16074
293.1607
293.16046
293.1603
293.15947
293.15779
293.15545
293.15366
293.15032
293.14577
293.14225
293.1411
293.13535
293.12593
293.11646
293.11057
293.10985
293.11412
293.11616
293.11532
293.11975
293.12036
293.12908
293.13806
293.15031
293.16565
293.18362
293.19007
293.18735
293.12399
293.1234
293.1236
293.12321
293.12317
293.12215
293.11958
293.11882
293.11774
293.11715
293.11569
293.1148
293.11365
293.1129
293.11448
293.11584
293.1134
293.10871
293.10586
293.10381
293.0999
293.10036
293.10619
293.10894
293.11604
293.12774
293.13874
293.15175
293.16967
293.17386
293.20569
293.09478
293.09476
293.09412
293.09375
293.09315
293.09295
293.09296
293.09293
293.09285
293.09256
293.09309
293.09415
293.09581
293.09849
293.09909
293.09877
293.09973
293.10391
293.0997
293.09661
293.09478
293.08919
293.0898
293.09384
293.09893
293.11042
293.12348
293.13599
293.15351
293.15568
293.18909
293.07416
293.07486
293.07553
293.07574
293.07598
293.07594
293.0764
293.07643
293.07676
293.07735
293.07795
293.07823
293.07822
293.0767
293.07584
293.07578
293.07711
293.08101
293.07986
293.07539
293.07805
293.0762
293.07405
293.07885
293.08343
293.09073
293.10274
293.11482
293.1307
293.13391
293.16056
293.05464
293.05507
293.05534
293.05545
293.05559
293.05558
293.05561
293.05567
293.05566
293.05584
293.05552
293.05485
293.05441
293.05386
293.05377
293.05457
293.05699
293.05921
293.05822
293.05686
293.05561
293.05719
293.05992
293.06271
293.0681
293.07397
293.08044
293.08811
293.1025
293.10466
293.15156
293.02279
293.02258
293.02239
293.02238
293.0223
293.0224
293.02218
293.02195
293.02176
293.02129
293.02088
293.02069
293.02061
293.02025
293.0215
293.02249
293.02483
293.02689
293.02691
293.03006
293.03012
293.02935
293.03297
293.03583
293.04196
293.04878
293.05378
293.05992
293.07179
293.06875
293.08304
292.96439
292.96462
292.9646
292.96443
292.96433
292.96416
292.96407
292.96416
292.96387
292.96419
292.9641
292.96383
292.96382
292.96369
292.96393
292.9668
292.96948
292.97185
292.9755
292.97962
292.98296
292.9852
292.98964
292.99389
293.00022
293.00818
293.01919
293.03014
293.03889
293.03881
293.01969
292.91502
292.91513
292.9151
292.91507
292.91506
292.91509
292.91513
292.91518
292.91534
292.91558
292.91597
292.91624
292.91653
292.91674
292.9174
292.9197
292.9225
292.92477
292.92924
292.93234
292.93708
292.93894
292.94886
292.9609
292.96712
292.97544
292.98824
293.0033
293.01442
293.02068
293.00262
292.9171
292.91703
292.917
292.91698
292.91707
292.91717
292.91734
292.91768
292.91788
292.91865
292.91879
292.91912
292.91996
292.91984
292.92165
292.92449
292.92646
292.93285
292.93271
292.93765
292.94203
292.95294
292.96759
292.9672
292.97277
292.98287
292.99271
293.00436
293.01719
293.03378
293.04488
293.37648
293.0231
292.73173
292.53836
292.46019
292.44409
292.46345
292.47821
292.47701
292.49964
292.54242
292.57892
292.62546
292.6748
292.72023
292.76418
292.8131
292.85838
292.90267
292.94431
292.9805
293.01726
293.04676
293.08188
293.11651
293.14405
293.16924
293.18823
293.19646
293.20323
293.25099
292.80071
292.56839
292.40318
292.35081
292.36463
292.40548
292.42764
292.44278
292.44888
292.48614
292.53768
292.58275
292.63173
292.68112
292.72651
292.77039
292.81881
292.86447
292.90817
292.94848
292.98399
293.02018
293.04938
293.08415
293.11873
293.14567
293.17058
293.18915
293.19742
293.20493
293.25314
292.57935
292.38309
292.32285
292.31958
292.36082
292.40344
292.40202
292.41689
292.43617
292.48022
292.53339
292.57784
292.62752
292.67857
292.72561
292.77154
292.81991
292.86537
292.90906
292.95008
292.98578
293.02158
293.05091
293.08526
293.11998
293.14677
293.17142
293.18989
293.19827
293.20643
293.25417
292.36486
292.27803
292.27421
292.30947
292.35117
292.34695
292.36423
292.38952
292.42278
292.47671
292.5296
292.5781
292.6328
292.68494
292.73364
292.77999
292.82686
292.8716
292.91436
292.95411
292.98922
293.02404
293.05292
293.08707
293.12145
293.14787
293.17222
293.19046
293.19901
293.20788
293.25621
292.27219
292.23968
292.26622
292.29816
292.30578
292.31259
292.34173
292.37083
292.41324
292.47353
292.52724
292.57353
292.63033
292.68392
292.73351
292.78107
292.82745
292.87232
292.91506
292.95531
292.99087
293.02531
293.05421
293.08819
293.12236
293.1487
293.17272
293.19105
293.19972
293.20925
293.25855
292.20698
292.19785
292.23891
292.2572
292.27479
292.28033
292.30691
292.35624
292.40275
292.46573
292.52615
292.576
292.63709
292.6919
292.74192
292.79026
292.83472
292.87866
292.92006
292.95933
292.99422
293.02743
293.05598
293.08999
293.1235
293.14956
293.17324
293.19142
293.2003
293.21051
293.25975
292.10746
292.15149
292.19267
292.19604
292.22228
292.24172
292.27665
292.33971
292.39974
292.4598
292.5174
292.57061
292.63439
292.69115
292.74224
292.79145
292.83533
292.87933
292.92065
292.96002
292.99531
293.02843
293.05706
293.09091
293.12411
293.15017
293.17361
293.19184
293.20087
293.21162
293.26198
292.04687
292.09776
292.12495
292.1271
292.1662
292.21276
292.25823
292.32713
292.40145
292.45944
292.51486
292.57483
292.64299
292.69992
292.75032
292.79952
292.84142
292.88522
292.92515
292.96363
292.99846
293.03049
293.05858
293.09247
293.12504
293.15085
293.17413
293.19211
293.20134
293.21256
293.26309
291.94125
292.01101
292.06607
292.077
292.12253
292.1824
292.2411
292.31274
292.39392
292.45726
292.51867
292.57689
292.64296
292.69924
292.74986
292.79985
292.84148
292.88564
292.92566
292.96416
292.99916
293.03105
293.05946
293.09305
293.12544
293.15122
293.17452
293.1925
293.20181
293.21331
293.26382
291.80938
291.92689
291.98073
292.0284
292.08507
292.15205
292.23222
292.30719
292.38493
292.45043
292.51669
292.58405
292.65383
292.70846
292.7577
292.80697
292.84663
292.89099
292.92979
292.96733
293.0019
293.03311
293.06093
293.09434
293.12618
293.15173
293.17499
293.19278
293.20216
293.21389
293.26494
291.73099
291.8431
291.91843
291.97727
292.05229
292.13188
292.22348
292.3105
292.38067
292.44361
292.5159
292.58764
292.6568
292.70873
292.758
292.80724
292.84622
292.89108
292.92998
292.9677
293.00238
293.03349
293.06156
293.09467
293.12636
293.15185
293.17525
293.19314
293.2025
293.21434
293.26576
291.64384
291.78321
291.83999
291.9295
292.03613
292.12395
292.21429
292.31018
292.38719
292.45064
292.52615
292.60115
292.6706
292.71978
292.76767
292.81668
292.85222
292.89618
292.93366
292.97062
293.0048
293.03545
293.06301
293.09571
293.12689
293.15219
293.1755
293.19335
293.20274
293.2147
293.26631
291.59041
291.72417
291.80615
291.88955
292.01167
292.10508
292.2001
292.30375
292.38413
292.45719
292.52969
292.60438
292.67323
292.72055
292.7686
292.81807
292.85242
292.89609
292.93351
292.97075
293.00515
293.03578
293.06342
293.0959
293.12693
293.15213
293.17554
293.19358
293.20296
293.21503
293.26658
291.49365
291.67316
291.78708
291.88345
292.00012
292.09844
292.20065
292.30172
292.38247
292.45364
292.5364
292.6169
292.68382
292.73065
292.77816
292.8268
292.85922
292.90121
292.93733
292.97351
293.00744
293.03769
293.06493
293.0966
293.12737
293.15215
293.17561
293.19366
293.2031
293.21537
293.26581
291.45525
291.61693
291.73895
291.85753
291.98958
292.10535
292.21792
292.30648
292.37995
292.45158
292.53652
292.61798
292.68453
292.73137
292.77905
292.82791
292.86019
292.90136
292.9376
292.97351
293.0077
293.03808
293.06528
293.09661
293.12737
293.1519
293.17552
293.19384
293.20332
293.21574
293.26527
291.47563
291.61058
291.71977
291.84152
291.96876
292.09464
292.20765
292.30256
292.38236
292.45566
292.53929
292.62742
292.69038
292.73737
292.78465
292.83425
292.86772
292.90643
292.94169
292.97655
293.00978
293.03976
293.06677
293.09723
293.12789
293.15188
293.17554
293.19394
293.20361
293.21618
293.26442
291.42408
291.63413
291.76198
291.87094
291.9755
292.08993
292.19818
292.29529
292.38328
292.45981
292.54075
292.62705
292.69021
292.73628
292.78387
292.8348
292.86966
292.90679
292.942
292.97699
293.00992
293.04011
293.06707
293.09731
293.12795
293.15176
293.1755
293.19412
293.20402
293.21674
293.26269
291.53039
291.66666
291.78852
291.90664
292.0168
292.11902
292.22143
292.30494
292.38696
292.4642
292.5478
292.63674
292.69515
292.73948
292.78512
292.83814
292.87292
292.91004
292.945
292.97997
293.0118
293.04162
293.0684
293.09796
293.12853
293.15195
293.1756
293.19418
293.20435
293.2173
293.26144
291.63945
291.74554
291.82672
291.92721
292.02846
292.13884
292.2375
292.32075
292.40236
292.47592
292.55502
292.63851
292.69338
292.73865
292.78353
292.83717
292.87222
292.90985
292.94504
292.98047
293.01206
293.04199
293.06868
293.09806
293.1286
293.15199
293.17559
293.19415
293.20462
293.21791
293.26022
291.74207
291.86586
291.93949
292.01964
292.1013
292.18001
292.2696
292.34575
292.42187
292.4934
292.56946
292.65078
292.69981
292.74245
292.78537
292.83045
292.86995
292.90929
292.94522
292.98084
293.01252
293.0424
293.06888
293.09811
293.12864
293.15194
293.17547
293.19393
293.20465
293.21853
293.25854
291.84115
291.9171
291.98677
292.06715
292.14429
292.22649
292.30998
292.37772
292.44947
292.51231
292.58178
292.65963
292.70513
292.74598
292.78794
292.82918
292.87183
292.9061
292.94315
292.97871
293.01125
293.04117
293.06772
293.09664
293.12738
293.15079
293.17457
293.19318
293.20446
293.21892
293.25795
292.02837
292.09634
292.13368
292.17904
292.23496
292.29054
292.36116
292.42179
292.47977
292.54149
292.60769
292.68206
292.7242
292.75978
292.79879
292.83645
292.87744
292.91037
292.94225
292.97629
293.00772
293.03832
293.06517
293.09428
293.12534
293.14898
293.17306
293.19191
293.20367
293.21918
293.25798
292.10833
292.17187
292.21928
292.26624
292.31339
292.3574
292.41682
292.46894
292.51843
292.5731
292.63314
292.70485
292.74541
292.77727
292.8141
292.85152
292.89036
292.91859
292.94932
292.98401
293.01208
293.04097
293.06709
293.09468
293.12568
293.14839
293.17233
293.19101
293.20325
293.21941
293.25773
292.33095
292.36568
292.3797
292.39537
292.42045
292.43941
292.47351
292.52095
292.56712
292.61766
292.67518
292.74059
292.7787
292.80611
292.83835
292.87286
292.90898
292.9359
292.96264
292.99444
293.02335
293.05118
293.07604
293.10188
293.13186
293.15347
293.17622
293.19379
293.20473
293.21951
293.25866
293.20121
293.07473
292.77209
292.5898
292.49607
292.47177
292.48609
292.49931
292.49669
292.51503
292.55131
292.587
292.63152
292.67685
292.71998
292.76304
292.81218
292.85748
292.9017
292.94253
292.97878
293.01573
293.0452
293.08055
293.1149
293.14277
293.16817
293.1874
293.19549
293.20214
293.25015
293.19213
293.09989
292.82138
292.64293
292.54074
292.50963
292.51824
292.52916
292.52364
292.53439
292.56525
292.59749
292.64017
292.68339
292.72276
292.76437
292.8121
292.85614
292.90038
292.94158
292.97769
293.01448
293.04393
293.07929
293.1131
293.14159
293.16699
293.18651
293.19435
293.20107
293.24928
293.23932
293.11901
292.8545
292.69075
292.59559
292.56443
292.56656
292.56772
292.55451
292.56145
292.58299
292.61182
292.65018
292.69032
292.72838
292.76868
292.81528
292.85754
292.90127
292.94098
292.97689
293.0137
293.04307
293.07819
293.11126
293.14033
293.16589
293.1856
293.19309
293.19994
293.24854
293.33385
293.17267
292.90467
292.7532
292.66535
292.62651
292.61681
292.60616
292.58602
292.58895
292.60418
292.62545
292.66052
292.69817
292.73386
292.77244
292.81805
292.85943
292.9025
292.9416
292.97686
293.01334
293.04255
293.07737
293.10961
293.13919
293.16491
293.18479
293.19194
293.1987
293.2479
293.44508
293.25105
292.97869
292.8152
292.7201
292.67837
292.66682
292.65258
292.62483
292.61827
292.62427
292.64211
292.67208
292.70606
292.73981
292.77644
292.82073
292.86088
292.90338
292.94177
292.977
293.01312
293.04221
293.07661
293.1082
293.1382
293.16406
293.18404
293.57116
293.36118
293.0708
292.90004
292.80521
292.75739
292.73079
292.69744
292.65856
292.64361
292.64557
293.07064
293.1126
293.17372
293.2624
293.36154
292.95833
293.01054
292.34591
292.46146
292.94549
292.99472
293.03668
293.09759
292.96663
293.02755
293.06315
293.14371
293.32019
292.93291
293.04496
293.09449
293.16206
293.2929
292.98703
292.99456
293.10218
293.16735
293.27256
292.83825
292.53278
293.02909
293.10508
293.23182
292.84713
292.5044
292.39307
293.12137
293.20123
292.87522
292.50673
292.3787
292.28105
293.06347
292.81446
292.48627
292.39967
292.23262
292.14068
293.10951
292.61071
292.46802
292.18739
292.00995
292.00755
292.74309
292.20243
292.02374
291.86071
291.84806
291.90676
292.83688
291.86804
291.79612
291.68754
291.68329
291.7564
292.0131
291.35252
291.37543
291.35791
291.48543
291.67378
291.66826
291.11042
291.16549
291.18963
291.3714
291.52371
291.0577
290.76768
290.94166
291.01222
291.23329
291.45642
290.8651
290.6667
290.81281
290.94129
291.1557
291.36466
290.80435
290.50802
290.71178
290.90231
291.16486
291.3604
290.79409
290.50743
290.66592
290.84152
291.06501
291.34092
290.75825
290.56488
290.70317
290.89975
291.05203
291.2596
290.83534
290.47278
290.60663
290.91467
291.22365
291.4431
290.79936
290.61362
290.82779
291.01186
291.2071
291.48387
290.89795
290.61544
290.88124
291.16667
291.41101
291.60693
291.02022
290.8948
291.09251
291.31994
291.5535
291.74332
291.19728
291.02529
291.26005
291.48333
291.70037
291.91039
291.3412
291.5506
291.74978
291.90393
292.02538
291.73261
291.94377
292.13305
292.25968
292.63379
292.76474
292.93287
293.03126
293.1705
293.23232
293.31969
293.36735
293.40286
293.41959
293.42434
293.41798
293.40434
293.39319
293.39315
293.37793
293.36538
293.36207
293.33359
293.3332
293.31803
293.31171
293.2996
293.29821
293.27002
293.27106
293.24706
293.24536
293.22081
293.221
293.18535
293.18438
293.15855
293.15996
293.12358
293.12378
293.09288
293.09402
293.07396
293.07356
293.05274
293.05376
293.02271
293.02276
292.96324
292.96354
292.91459
292.91479
292.91751
292.91745
)
;

boundaryField
{
    Side1
    {
        type            empty;
    }
    Inlet
    {
        type            totalTemperature;
        gamma           1.4;
        T0              uniform 294.31799;
        value           nonuniform List<scalar> 
92
(
292.99589
292.99602
292.9961
292.99623
292.99638
292.99654
292.99673
292.99694
292.99717
292.99743
292.99767
292.99796
294.31799
292.99849
292.99899
292.99948
293.00002
294.31799
293.00132
293.00188
293.0028
293.00409
294.31799
293.00675
293.00788
293.00911
293.01054
293.01126
293.01154
293.01206
293.00245
293.00245
293.00245
293.00245
293.00245
293.00245
293.00245
293.00245
293.00245
293.00245
293.00245
293.00245
293.00245
293.00245
293.00245
293.00245
293.00245
293.00245
293.00245
293.00245
293.00245
293.00245
293.00245
293.00245
293.00245
293.00245
293.00245
293.00245
293.00245
293.00245
293.01366
293.00245
292.99089
294.31799
292.99144
292.99173
294.31799
292.99229
294.31799
294.31799
292.99305
292.99328
292.9935
292.9937
294.31799
292.99405
292.99422
294.31799
292.99453
292.99469
294.31799
292.995
292.99517
294.31799
292.99553
294.31799
292.99067
292.99049
292.9903
292.99011
293.00245
293.00245
)
;
    }
    Side2
    {
        type            empty;
    }
    Outlet
    {
        type            zeroGradient;
    }
    Botwall
    {
        type            zeroGradient;
    }
    Cyli
    {
        type            zeroGradient;
    }
    procBoundary2to0
    {
        type            processor;
        value           nonuniform List<scalar> 
55
(
292.98556
293.01857
293.06941
293.12893
293.18928
292.86991
292.92622
292.86776
292.91039
292.91039
292.08521
292.23821
292.23821
292.61142
292.71323
292.89187
292.89187
292.90247
292.90247
291.37787
291.37787
291.54023
291.54023
292.83868
292.97354
293.09259
293.16279
293.28279
293.33647
293.39492
293.42634
293.44624
293.46313
293.45367
293.42363
293.42363
293.41997
293.39901
293.368
293.33699
293.32363
293.29987
293.2714
293.24721
293.22014
293.18609
293.15706
293.12277
293.09254
293.07415
293.05214
293.02246
292.963
292.91432
292.91753
)
;
    }
    procBoundary2to3
    {
        type            processor;
        value           nonuniform List<scalar> 
35
(
293.19096
293.19736
293.24787
292.65725
292.68272
292.71435
292.74563
292.78032
292.8232
292.86204
292.90384
292.94165
292.97683
293.01307
293.04201
293.07598
293.10697
293.13717
293.16336
293.19096
293.18331
293.7051
293.45348
293.51815
293.21576
293.02499
292.89524
292.81391
292.77292
292.73612
292.69428
292.67285
292.65725
292.66558
293.45348
)
;
    }
}


// ************************************************************************* //
