/*--------------------------------*- C++ -*----------------------------------*\
| =========                 |                                                 |
| \\      /  F ield         | OpenFOAM: The Open Source CFD Toolbox           |
|  \\    /   O peration     | Version:  2406                                  |
|   \\  /    A nd           | Website:  www.openfoam.com                      |
|    \\/     M anipulation  |                                                 |
\*---------------------------------------------------------------------------*/
FoamFile
{
    version     2.0;
    format      ascii;
    arch        "LSB;label=32;scalar=64";
    class       volScalarField;
    location    "0.011";
    object      alphat;
}
// * * * * * * * * * * * * * * * * * * * * * * * * * * * * * * * * * * * * * //

dimensions      [1 -1 -1 0 0 0 0];

internalField   nonuniform List<scalar> 
23203
(
0.0099498517
0.0099498823
0.010102537
0.010424375
0.010929397
0.011628453
0.01252942
0.013637619
0.014956358
0.016487485
0.018231896
0.020189931
0.022361669
0.024747109
0.027346275
0.030159274
0.033186327
0.036427793
0.039884096
0.043554785
0.047443243
0.051554211
0.055893579
0.010040896
0.010055655
0.010222459
0.010557713
0.011075235
0.011785788
0.012697216
0.013814816
0.015141834
0.01668001
0.01843007
0.020392144
0.022566074
0.024951616
0.027548568
0.030356833
0.033376453
0.036607626
0.040050734
0.043706519
0.047577946
0.051669659
0.055987195
0.010160512
0.010191263
0.010373664
0.010723875
0.011255484
0.011979117
0.01290253
0.014030941
0.015367499
0.016913803
0.018670397
0.020637195
0.022813799
0.02519973
0.027794566
0.030598032
0.033610054
0.036830835
0.040261003
0.043902
0.047756921
0.051830206
0.056126164
0.01031103
0.010359255
0.010558736
0.010925417
0.011472626
0.012210808
0.013147578
0.014288033
0.015635185
0.017190474
0.018954253
0.020926219
0.023105748
0.025492141
0.028084787
0.030883278
0.033887508
0.0370978
0.040515144
0.04414161
0.047980866
0.052037969
0.05631635
0.010494934
0.010562127
0.010780157
0.011164767
0.011728998
0.012483067
0.013434408
0.01458795
0.015946545
0.017511453
0.019282837
0.021260187
0.023442673
0.025829406
0.028419627
0.03121285
0.034209001
0.037408594
0.040813016
0.044424988
0.048249348
0.052294873
0.01071463
0.010802252
0.01104025
0.011444168
0.012026728
0.012797881
0.013764834
0.014932316
0.016302991
0.017877936
0.019657125
0.021639861
0.023825139
0.026211914
0.028799325
0.031586854
0.034574498
0.03776296
0.041153911
0.044750327
0.048556817
0.052579499
0.010972342
0.011081791
0.0113411
0.0117656
0.012367664
0.013156937
0.014140363
0.015322442
0.016705632
0.018290824
0.020077817
0.022065753
0.02425348
0.026639844
0.029223919
0.032005194
0.034983749
0.038160437
0.041537089
0.045116687
0.048903368
0.052901843
0.011270039
0.011402637
0.011684499
0.012130729
0.012753319
0.013561573
0.014562142
0.015759276
0.017155218
0.018750678
0.020545295
0.022538076
0.024727763
0.02711313
0.029693226
0.032467568
0.03543632
0.038600449
0.041961866
0.045523491
0.049289131
0.053262982
0.011609423
0.011766398
0.012071929
0.012540883
0.01318484
0.014012743
0.015030927
0.016243376
0.01765212
0.019257691
0.021059594
0.023056731
0.02524777
0.027631452
0.03020683
0.03297347
0.035931618
0.03908233
0.042427566
0.045970201
0.049713889
0.053662718
0.01199199
0.012174436
0.01250458
0.012997055
0.013663017
0.014511024
0.015547083
0.016774911
0.018196323
0.019811693
0.02162041
0.023621302
0.025812997
0.028194232
0.030764094
0.03352221
0.036468909
0.039605326
0.04293347
0.04645621
0.050177168
0.054100491
0.012418908
0.012627766
0.012983288
0.013499879
0.014188261
0.015056606
0.016110591
0.017353665
0.018787445
0.02041216
0.022227109
0.024231069
0.026422663
0.02880065
0.031364168
0.034112922
0.037047325
0.040168592
0.04347879
0.046980823
0.050678351
0.05457563
0.012891059
0.013127081
0.01350854
0.014049622
0.014760616
0.015649309
0.01672106
0.017979066
0.019424757
0.021058241
0.022878748
0.024885035
0.027075736
0.029449659
0.03200601
0.034744581
0.037665873
0.040771188
0.044062664
0.047543266
0.051216727
0.055087431
0.013409072
0.013672792
0.014080517
0.014646227
0.015379786
0.016288615
0.017377769
0.018650214
0.020107218
0.02174879
0.023574113
0.025581944
0.027770954
0.03014001
0.032688402
0.035416014
0.038323444
0.041412084
0.044684152
0.048142693
0.051791531
0.055635172
0.013973335
0.014265049
0.014699117
0.015289342
0.01604518
0.016973707
0.018079704
0.019365932
0.020833523
0.02248241
0.024311755
0.026320329
0.028506856
0.030870278
0.033409973
0.036125924
0.039018825
0.042090163
0.045342244
0.0487782
0.052401949
0.056218117
0.01458401
0.014903755
0.015363986
0.015978359
0.01675595
0.017703522
0.018825614
0.020124814
0.021602151
0.023257505
0.025090035
0.027098548
0.029281827
0.031638896
0.034169227
0.036872899
0.039750708
0.04280423
0.046035864
0.049448827
0.053047133
0.056835515
0.015241024
0.015588586
0.016074544
0.016712455
0.017511051
0.018476814
0.01961408
0.020925304
0.02241144
0.024072345
0.025907195
0.027914842
0.03009414
0.032444197
0.034964576
0.037655453
0.040517716
0.043553032
0.046763884
0.050153573
0.053726202
0.057486599
0.015944269
0.016319152
0.016830145
0.017490743
0.018309368
0.01929227
0.020443621
0.021765786
0.023259675
0.024925152
0.026761426
0.028767409
0.030942027
0.033284471
0.035794394
0.038472058
0.041318436
0.044335278
0.047525143
0.050891409
0.054438255
0.058170593
0.016693541
0.017095015
0.017630119
0.018312325
0.019149796
0.020148596
0.021312787
0.022644681
0.024145184
0.025814191
0.027650963
0.029654481
0.031823747
0.034158032
0.036657068
0.039321195
0.04215146
0.045149681
0.048318483
0.051661307
0.055182395
0.058886727
0.01748856
0.017915681
0.018473761
0.01917631
0.020031274
0.021044584
0.022220238
0.023560539
0.025066431
0.026737864
0.028574174
0.030574418
0.032737677
0.035063295
0.037551077
0.040201425
0.043015444
0.045995007
0.049142787
0.052462272
0.055957752
0.059634256
0.018329179
0.018780793
0.019360526
0.020081983
0.020952938
0.021979237
0.02316486
0.02451215
0.026022122
0.027694817
0.029529661
0.031525801
0.033682397
0.035998864
0.038475064
0.041111451
0.043909171
0.04687013
0.04999703
0.05329339
0.056763527
0.060412501
0.0192154
0.019690192
0.020290103
0.021028894
0.021914214
0.022951868
0.024145868
0.02549864
0.027011308
0.028684033
0.030516356
0.032507526
0.034656785
0.036963615
0.039427926
0.042050206
0.044831623
0.047774098
0.050880343
0.054153881
0.057599039
0.061220886
0.020147455
0.020643983
0.021262484
0.022016932
0.022914895
0.023962183
0.025162888
0.026519558
0.028033467
0.029704925
0.031533613
0.033518896
0.035660105
0.037956786
0.040408889
0.043016921
0.045782056
0.048706207
0.051792073
0.055043161
0.05846378
0.062058988
0.021125867
0.021642605
0.022278025
0.023046384
0.023955205
0.025010349
0.026216026
0.027574949
0.029088578
0.030757407
0.032581279
0.034559693
0.036692081
0.038978052
0.04141759
0.044011211
0.046760075
0.049666069
0.052731855
0.055960899
0.059357472
0.062926595
0.022151486
0.022686854
0.02333749
0.024117974
0.025035839
0.026097031
0.027305915
0.028665405
0.030177183
0.031841956
0.03365976
0.035630249
0.037752966
0.040027593
0.042454144
0.045033136
0.0477657
0.050653677
0.053699673
0.056907088
0.060280129
0.063823756
0.02322566
0.023778048
0.024442156
0.025232978
0.026158069
0.027223489
0.028433792
0.029792128
0.031300433
0.032959662
0.034770071
0.036731492
0.038843599
0.041106154
0.043519207
0.046083266
0.048799428
0.051669472
0.054695922
0.057882096
0.061232111
0.064750841
0.024350157
0.024917994
0.02559387
0.026393262
0.027323769
0.028391596
0.029601519
0.030956955
0.032460123
0.034112261
0.03591387
0.037864989
0.039965442
0.042215088
0.044614017
0.047162734
0.049862291
0.052714392
0.055721469
0.05888673
0.062214183
0.065708595
0.025527189
0.02610893
0.026794914
0.027601154
0.028535317
0.029603774
0.030811542
0.032162334
0.033658683
0.035302134
0.037093471
0.039032962
0.04112061
0.043356386
0.045740439
0.048273272
0.050955894
0.053789926
0.056777694
0.059922283
0.063227568
0.066698186
0.026759503
0.027353675
0.028048162
0.028859586
0.029795702
0.030863061
0.032066938
0.033411358
0.034899196
0.036532331
0.038311858
0.040238308
0.042311887
0.044532707
0.046900989
0.049417251
0.052082459
0.054898154
0.057866545
0.060990581
0.064273989
0.067721257
0.028050393
0.028655609
0.029357076
0.030172106
0.031108547
0.03217314
0.033371433
0.034707781
0.036185414
0.037806578
0.039572703
0.041484614
0.043542753
0.045747397
0.048098864
0.050597705
0.053244857
0.056041782
0.058990572
0.062094029
0.065355722
0.068779973
0.029403707
0.030018687
0.030725713
0.03154287
0.032478093
0.033538329
0.034729407
0.036056018
0.037521771
0.039129291
0.040880375
0.042776173
0.044817393
0.047004509
0.049337966
0.051818369
0.054446644
0.057224185
0.06015297
0.063235654
0.066475637
0.069877065
0.030823943
0.03144753
0.032158788
0.032976676
0.033909244
0.034963625
0.036145924
0.037461183
0.038913397
0.040505595
0.042239963
0.044118003
0.046140723
0.048308831
0.050622928
0.053083702
0.055692092
0.05844944
0.061357622
0.064419149
0.06763725
0.071015887
0.032316163
0.032947324
0.033661632
0.034479011
0.035407596
0.036454714
0.037626749
0.038929095
0.040366145
0.041941345
0.043657292
0.045515871
0.04751842
0.049665914
0.051959149
0.054398928
0.056986231
0.059722375
0.062609147
0.065648926
0.068844774
0.072200467
0.033886087
0.03452394
0.035240239
0.036055983
0.036979385
0.038017939
0.039178322
0.040466275
0.041886592
0.043443143
0.045138956
0.046976325
0.048956951
0.051082112
0.053352837
0.055770082
0.058334903
0.06104862
0.063912956
0.066930175
0.070103183
0.073435573
0.035540234
0.03618406
0.036901431
0.037714523
0.038631635
0.039660449
0.040807899
0.042080063
0.043482132
0.045018412
0.046692377
0.048506751
0.050463631
0.052564636
0.054811064
0.057204068
0.059744818
0.062434671
0.06527532
0.068268935
0.071418285
0.074726791
0.037285836
0.03793507
0.038652736
0.039462334
0.040372219
0.041390248
0.04252359
0.043778652
0.045161023
0.04667545
0.048325862
0.050115435
0.052046691
0.054121622
0.05634184
0.058708734
0.061223634
0.063887975
0.066703454
0.069672182
0.072796812
0.076080616
0.039130853
0.039785111
0.040502457
0.041307877
0.042209776
0.043216124
0.044334308
0.045571072
0.046932395
0.048423458
0.050048653
0.051811624
0.053715342
0.05576221
0.057954192
0.06029296
0.062780049
0.06541702
0.068205618
0.071147931
0.074246532
0.077504566
0.041084214
0.041743326
0.042459937
0.043260672
0.044153928
0.04514781
0.046249942
0.047467355
0.048806393
0.050272667
0.051871036
0.053605625
0.055479878
0.05749664
0.059658268
0.061966763
0.064423914
0.067031459
0.069791239
0.072705366
0.075776371
0.079007309
0.043155735
0.04381974
0.044535374
0.045331089
0.046215269
0.047196123
0.048281481
0.049478631
0.050794271
0.052234433
0.053804444
0.055508917
0.057351788
0.059336372
0.061465458
0.063741421
0.066166358
0.068742235
0.071471046
0.074354977
0.077396567
0.080598821
0.045356133
0.046025302
0.046739933
0.047530511
0.04840541
0.049372914
0.050440977
0.051617124
0.052908414
0.054321287
0.055861525
0.057534234
0.059343853
0.061294194
0.063388515
0.065629611
0.068019935
0.070561741
0.073257233
0.076108732
0.07911884
0.082290562
0.047697222
0.048372108
0.049085975
0.049871575
0.050737215
0.051691177
0.052741583
0.053896231
0.055162446
0.056547045
0.058056259
0.059695684
0.061470274
0.063384361
0.065441701
0.067645551
0.069998778
0.072503979
0.075163633
0.077980258
0.080956582
0.084095674
0.050191802
0.050873244
0.051586838
0.052367854
0.053224509
0.054165105
0.055197887
0.056330805
0.057571431
0.058926977
0.060404106
0.062008897
0.063746819
0.065622736
0.067640931
0.069805167
0.072118771
0.074584744
0.077205905
0.079985039
0.082925072
0.086029199
0.052853792
0.053542976
0.054257118
0.055034294
0.055882601
0.056810315
0.057825685
0.058936857
0.060151716
0.06147775
0.062922019
0.064491072
0.066190896
0.068026896
0.070003907
0.072126232
0.074397707
0.076821798
0.079401729
0.082140626
0.085041685
0.08810831
0.055698124
0.056396606
0.05711246
0.05788688
0.058727805
0.059643446
0.060642087
0.061732031
0.062921322
0.064217693
0.06562863
0.067161137
0.068821702
0.070616275
0.072550257
0.07462852
0.076855454
0.079235046
0.081770992
0.084466834
0.087326122
0.090352542
0.058740794
0.059450562
0.060169708
0.060942892
0.061777856
0.06268272
0.063665758
0.064735252
0.065899473
0.067166512
0.068544114
0.07003969
0.07166022
0.073412198
0.075301602
0.077333899
0.07951407
0.081846678
0.084335956
0.086985937
0.089800604
0.092784019
0.061998699
0.062722203
0.063446663
0.064220581
0.065051465
0.065947291
0.066916279
0.067966756
0.069107162
0.07034573
0.071690438
0.073149147
0.074729317
0.076437964
0.078281641
0.080266422
0.082397912
0.084681292
0.087121395
0.089722818
0.092490062
0.09542765
0.065489614
0.066229833
0.06696215
0.067739317
0.068568569
0.069457706
0.070414858
0.071448331
0.0725665
0.07377793
0.075090932
0.076513507
0.078053606
0.079718769
0.081516114
0.083452326
0.085533655
0.08776594
0.090154669
0.092705073
0.09542225
0.098311278
0.069231973
0.069992465
0.070735749
0.071519274
0.072349956
0.073235379
0.074183531
0.075202661
0.076301178
0.07748761
0.078770545
0.080158424
0.081659479
0.083281709
0.085032783
0.086920001
0.08895027
0.091130118
0.093465731
0.095963034
0.0986278
0.10146575
0.073244626
0.07402957
0.074787553
0.075581193
0.076417048
0.077302441
0.078245173
0.079253377
0.080335425
0.081499846
0.082755501
0.084111052
0.085574888
0.087155534
0.088861205
0.090699792
0.092678856
0.09480562
0.097087004
0.099529677
0.10214015
0.10492488
0.077546568
0.078360812
0.079137901
0.079946127
0.080791651
0.081681494
0.082623224
0.083624811
0.084694548
0.085840977
0.087072802
0.088399109
0.089828716
0.091370204
0.093032361
0.094823673
0.096752334
0.098826267
0.10105314
0.1034404
0.10599537
0.10872527
0.082156602
0.083005697
0.083807025
0.084635079
0.085495579
0.08639521
0.087341267
0.0883415
0.089404046
0.090537403
0.09175029
0.093051667
0.094450745
0.095956647
0.097578389
0.099324942
0.10120512
0.10322755
0.10540064
0.10773267
0.11023176
0.11290601
0.087092893
0.087983114
0.088814558
0.089668467
0.090550084
0.091465718
0.092422348
0.093427449
0.09448896
0.095615251
0.096814987
0.098097119
0.099471157
0.10094641
0.10253202
0.10423757
0.10607247
0.10804598
0.11016727
0.11244539
0.11488934
0.11750809
0.092372568
0.093310921
0.094179135
0.095065754
0.095975511
0.096914306
0.097888765
0.09890605
0.099973856
0.10110033
0.10229406
0.10356398
0.10491925
0.10636981
0.10792534
0.10959525
0.1113896
0.11331831
0.11539123
0.1176182
0.12000907
0.12257369
0.098011198
0.099005414
0.099917826
0.10084484
0.10179065
0.10276071
0.10376127
0.10479913
0.10588169
0.10701679
0.10821287
0.10947879
0.11082375
0.11225727
0.1137897
0.11543108
0.11719127
0.11908089
0.12111048
0.12329063
0.12563199
0.12814531
0.1040223
0.1050808
0.1060456
0.10702151
0.10801215
0.10902253
0.11005847
0.11112638
0.11223327
0.11338672
0.11459487
0.11586642
0.11721052
0.11863668
0.12015488
0.12177594
0.12351033
0.12536841
0.12736151
0.12950093
0.1317981
0.13426462
0.11041681
0.11154867
0.11257475
0.11360883
0.11465392
0.11571457
0.11679611
0.11790458
0.11904655
0.12022924
0.12146049
0.12274873
0.12410295
0.12553264
0.12704766
0.12865852
0.13037661
0.13221286
0.13417828
0.13628499
0.13854519
0.14097127
0.11720265
0.11841749
0.11951441
0.12061662
0.12172653
0.12284818
0.1239865
0.12514703
0.12633588
0.12755989
0.12882651
0.13014385
0.13152065
0.13296625
0.13449049
0.13610365
0.13781685
0.13964214
0.14159096
0.14367508
0.14590755
0.14830155
0.12438425
0.12569219
0.12687008
0.12805102
0.1292368
0.13043098
0.13163803
0.13286296
0.13411147
0.13538991
0.13670533
0.13806544
0.13947865
0.14095403
0.1425013
0.14413073
0.14585304
0.14768005
0.14962455
0.15169858
0.15391475
0.15628715
0.13196218
0.1333737
0.13464318
0.13591397
0.13718727
0.13846611
0.13975448
0.14105696
0.14237872
0.14372565
0.14510431
0.14652199
0.14798667
0.14950709
0.15109269
0.15275361
0.15450058
0.15634483
0.15829898
0.16037661
0.16259038
0.16495389
0.13993284
0.14145868
0.14283073
0.1442029
0.14557577
0.1469519
0.14833481
0.14972857
0.15113788
0.15256809
0.15402529
0.15551626
0.15704856
0.15863047
0.16027108
0.16198022
0.16376851
0.16564719
0.16762806
0.16972451
0.1719506
0.17432018
0.14828826
0.1499393
0.15142512
0.15291045
0.15439527
0.15588166
0.15737266
0.15887188
0.16038351
0.16191238
0.16346404
0.16504477
0.16666161
0.16832238
0.17003568
0.17181097
0.17365852
0.17558939
0.17761537
0.17974894
0.18200484
0.18439754
0.15701601
0.15880312
0.16041404
0.16202443
0.16363372
0.1652435
0.16685639
0.1684755
0.17010453
0.17174779
0.17341029
0.17509776
0.17681671
0.1785744
0.18037896
0.18223932
0.18416534
0.18616772
0.18825807
0.1904488
0.19275317
0.19518671
0.16609922
0.16803314
0.16978046
0.17152782
0.17327408
0.17502043
0.17676902
0.17852255
0.18028418
0.18205773
0.18384766
0.18565915
0.18749812
0.18937128
0.19128619
0.19325125
0.19527576
0.19736997
0.19954509
0.20181326
0.20418756
0.20668196
0.17551676
0.17760796
0.17950283
0.1813989
0.18329451
0.18519044
0.18708846
0.1889908
0.19090017
0.19281987
0.19475383
0.19670666
0.19868371
0.20069109
0.20273575
0.20482549
0.20696903
0.20917604
0.21145718
0.21382417
0.21628974
0.21886762
0.18524339
0.18750199
0.1895553
0.19161153
0.19366859
0.19572685
0.19778772
0.19985301
0.20192499
0.20400647
0.20610084
0.20821218
0.21034523
0.21250551
0.21469932
0.21693384
0.21921714
0.22155825
0.22396719
0.22645509
0.22903417
0.23171778
0.19525024
0.19768588
0.19990811
0.20213558
0.20436574
0.20659865
0.20883537
0.21107732
0.21332635
0.2155848
0.21785557
0.22014218
0.22244882
0.22478037
0.2271425
0.22954173
0.23198543
0.23448195
0.23704062
0.23967186
0.24238724
0.24519953
0.20550513
0.2081269
0.21052806
0.2129373
0.21535172
0.21777106
0.22019604
0.22262778
0.22506771
0.22751775
0.22998031
0.2324584
0.23495564
0.2374763
0.24002544
0.24260886
0.24523326
0.24790623
0.25063637
0.25343335
0.25630796
0.25927227
0.21597317
0.21878953
0.22137904
0.22398001
0.2265892
0.22920606
0.23183108
0.23446502
0.23710899
0.23976449
0.2424335
0.24511852
0.24782263
0.25054954
0.25330364
0.25609009
0.25891486
0.26178479
0.2647077
0.26769245
0.27074903
0.27388865
0.22661733
0.22963603
0.23242269
0.23522463
0.23803837
0.24086314
0.24369916
0.24654694
0.24940724
0.25228123
0.25517045
0.25807696
0.26100333
0.26395271
0.26692888
0.26993632
0.2729803
0.27606692
0.27920318
0.28239712
0.28565785
0.28899572
0.23739904
0.24062711
0.24361897
0.24663041
0.24965771
0.25269993
0.25575708
0.25882942
0.26191744
0.26502198
0.26814421
0.27128578
0.27444876
0.27763578
0.28085005
0.28409542
0.28737645
0.29069848
0.29406774
0.2974914
0.30097767
0.304536
0.24827888
0.25172256
0.25492693
0.25815558
0.26140462
0.26467296
0.26796044
0.27126713
0.27459326
0.27793939
0.28130636
0.28469543
0.28810826
0.29154697
0.29501422
0.29851326
0.30204798
0.30562301
0.30924377
0.31291657
0.31664875
0.32044879
0.25921719
0.26288196
0.26630535
0.26975808
0.27323617
0.27673839
0.28026446
0.28381427
0.28738786
0.29098553
0.29460786
0.29825573
0.30193042
0.30563362
0.30936747
0.31313465
0.31693842
0.32078271
0.32467218
0.32861231
0.33260953
0.33667136
0.27017477
0.2740653
0.2777134
0.28139623
0.28510976
0.28885269
0.29262461
0.2964253
0.30025464
0.3041127
0.30799981
0.31191657
0.31586391
0.31984311
0.32385585
0.32790428
0.33199108
0.33611951
0.34029349
0.34451772
0.34879772
0.3531401
0.28111345
0.28523361
0.28911127
0.29302936
0.29698383
0.30097333
0.30499739
0.30905567
0.31314794
0.31727409
0.32143425
0.32562876
0.32985826
0.33412364
0.33842619
0.34276759
0.34714994
0.35157591
0.35604874
0.36057232
0.36515136
0.36979154
0.29199666
0.29634955
0.3004608
0.30461842
0.3088184
0.31305938
0.31734086
0.32166241
0.3260237
0.33042452
0.3348648
0.3393447
0.34386455
0.34842499
0.35302689
0.35767152
0.3623605
0.36709591
0.37188035
0.376717
0.38160976
0.38656342
0.30278996
0.3073779
0.31172592
0.31612648
0.32057564
0.32507208
0.32961525
0.33420472
0.33884006
0.34352098
0.34824729
0.35301896
0.35783612
0.36269913
0.36760855
0.37256526
0.37757044
0.38262566
0.38773292
0.39289475
0.39811428
0.40339545
0.31346145
0.31828601
0.32287316
0.3275192
0.33222033
0.33697525
0.34178344
0.34664444
0.35155781
0.35652317
0.36154025
0.36660888
0.37172903
0.37690082
0.38212456
0.38740077
0.39273027
0.39811415
0.40355389
0.40905139
0.41460908
0.42023013
0.32398212
0.32904414
0.33387196
0.3387652
0.34372021
0.34873574
0.35381131
0.35894648
0.3641408
0.36939386
0.37470533
0.38007495
0.38550254
0.39098805
0.39653156
0.40213333
0.40779381
0.41351371
0.41929402
0.42513609
0.4310417
0.4370133
0.33432613
0.33962574
0.34469501
0.34983635
0.35504628
0.36032367
0.36566808
0.37107909
0.37655629
0.38209928
0.38770767
0.39338115
0.39911946
0.40492239
0.41078985
0.41672186
0.4227186
0.4287804
0.43490786
0.44110183
0.4473635
0.45369467
0.34447098
0.35000767
0.35531838
0.36070792
0.36617304
0.37171268
0.37732648
0.3830141
0.38877516
0.39460928
0.40051608
0.40649522
0.41254637
0.41866923
0.42486357
0.43112923
0.43746613
0.44387433
0.45035405
0.45690571
0.46353
0.4702281
0.35439763
0.36017022
0.36572165
0.37135876
0.37707851
0.38287999
0.38876291
0.39472702
0.40077199
0.40689751
0.41310322
0.41938877
0.42575381
0.43219797
0.43872094
0.44532239
0.45200207
0.4587598
0.46559548
0.47250917
0.4795011
0.48657192
0.36409047
0.3700972
0.37588794
0.38177126
0.38774437
0.39380649
0.39995746
0.4061971
0.41252518
0.41894145
0.42544561
0.43203734
0.43871628
0.44548205
0.45233425
0.45927248
0.46629633
0.47340542
0.48059942
0.48787805
0.49524117
0.50268896
0.3735373
0.37977585
0.38580382
0.39193132
0.39815581
0.40447668
0.41089385
0.41740728
0.42401685
0.43072238
0.43752365
0.4444204
0.45141228
0.45849894
0.46567993
0.4729548
0.48032303
0.48778411
0.49533749
0.50298264
0.5107191
0.51854665
0.38272918
0.38919669
0.39545921
0.40182824
0.40830149
0.4148785
0.42155935
0.4283441
0.43523277
0.44222527
0.44932148
0.45652121
0.46382418
0.47123005
0.47873839
0.48634871
0.49406045
0.50187298
0.5097856
0.51779759
0.5259082
0.5341169
0.39166024
0.39835337
0.40484721
0.41145453
0.4181733
0.42500325
0.43194458
0.43899751
0.44616217
0.45343861
0.46082682
0.4683267
0.47593805
0.48366058
0.4914939
0.49943752
0.50749086
0.51565323
0.52392382
0.53230176
0.54078609
0.54937599
0.40032744
0.40724242
0.41396383
0.42080567
0.42776619
0.43484528
0.44204331
0.44936065
0.45679755
0.46435423
0.47203079
0.47982723
0.48774347
0.49577929
0.50393436
0.51220823
0.52060032
0.52910991
0.53773614
0.54647803
0.55533446
0.56430441
0.40873032
0.41586298
0.42280775
0.42987987
0.43707785
0.44440178
0.45185219
0.45942959
0.46713441
0.474967
0.4829276
0.49101636
0.49923328
0.50757827
0.51605107
0.5246513
0.5333784
0.54223169
0.55121026
0.56031308
0.56953891
0.57888657
0.41687068
0.42421652
0.43138003
0.43867776
0.44610848
0.45367248
0.46137045
0.46920307
0.47717094
0.48527456
0.49351432
0.50189051
0.51040328
0.51905264
0.52783844
0.53676038
0.54581798
0.55501057
0.56433729
0.57379705
0.58338858
0.59311056
0.4247523
0.4323065
0.43968377
0.44720207
0.45486042
0.46265931
0.47059961
0.47868216
0.48690774
0.49527701
0.50379053
0.51244874
0.52125193
0.53020025
0.53929367
0.548532
0.55791484
0.5674416
0.57711144
0.58692331
0.59687589
0.60696781
0.43238059
0.44013809
0.44772385
0.45545736
0.4633379
0.47136616
0.47954317
0.48786997
0.49634751
0.50497662
0.51375803
0.52269235
0.53178003
0.54102135
0.55041644
0.55996522
0.5696674
0.57952249
0.58952971
0.59968805
0.60999622
0.62045282
0.43976233
0.44771785
0.45550657
0.46344966
0.47154667
0.47979847
0.48820628
0.49677131
0.5054947
0.51437747
0.52342052
0.53262462
0.5419904
0.5515183
0.5612086
0.57106135
0.5810764
0.59125336
0.60159156
0.61209005
0.62274757
0.63356276
0.44690534
0.45505343
0.46303939
0.47118623
0.47949375
0.48796302
0.49659544
0.50539241
0.51435525
0.52348517
0.53278326
0.54225046
0.55188757
0.56169521
0.57167381
0.58182359
0.59214453
0.60263637
0.61329856
0.62413024
0.63513023
0.64629721
0.45381822
0.46215332
0.47033062
0.47867522
0.48718711
0.49586758
0.50471822
0.51374061
0.52293626
0.53230657
0.54185281
0.55157612
0.56147747
0.57155766
0.58181729
0.59225675
0.60287616
0.61367542
0.6246541
0.63581147
0.64714645
0.65865776
0.46051012
0.46902655
0.47738921
0.48592543
0.49463543
0.50352069
0.51258299
0.5218241
0.53124573
0.54084945
0.55063674
0.56060892
0.57076715
0.58111241
0.59164547
0.6023669
0.61327701
0.62437582
0.63566308
0.64713816
0.65880011
0.67064777
0.46699047
0.47568251
0.48422447
0.4929461
0.50184785
0.51093138
0.52019867
0.52965167
0.53929229
0.54912229
0.55914334
0.56935695
0.57976448
0.59036709
0.60116575
0.61216118
0.62335388
0.63474405
0.64633158
0.658116
0.67009649
0.68227202
0.47326883
0.48213074
0.4908459
0.49974668
0.50883376
0.51810898
0.5275745
0.53723248
0.547085
0.55713403
0.56738142
0.57782889
0.58847798
0.59933004
0.61038622
0.62164746
0.63311441
0.64478746
0.65666665
0.6687517
0.68104193
0.69353642
0.47935469
0.48838072
0.49726298
0.50633666
0.51560262
0.52506292
0.53471989
0.54457587
0.55463314
0.56489387
0.5753601
0.58603373
0.59691651
0.60800998
0.61931549
0.63083415
0.64256681
0.65451404
0.66667605
0.67905274
0.69164358
0.70444781
0.48525737
0.4944418
0.50348508
0.5127254
0.52216383
0.53180258
0.54164419
0.55169119
0.56194604
0.5724111
0.5830886
0.59398065
0.60508917
0.61641592
0.62796243
0.63973
0.65171968
0.66393221
0.67636801
0.68902712
0.70190921
0.71501368
0.49098585
0.50032301
0.50952128
0.51892204
0.52852653
0.53833716
0.54835663
0.55858767
0.56903291
0.57969492
0.59057611
0.60167879
0.61300508
0.62455691
0.63633603
0.64834392
0.66058181
0.67305066
0.68575105
0.69868322
0.71184701
0.72524198
0.49654874
0.506033
0.51538031
0.52493536
0.53469957
0.54467554
0.55486613
0.56527426
0.57590276
0.58675435
0.59783167
0.6091372
0.62067324
0.63244195
0.64444524
0.65668479
0.66916205
0.68187813
0.69483383
0.70802956
0.72146535
0.73514093
0.50195416
0.51157999
0.52107046
0.53077373
0.5406914
0.55082623
0.56118128
0.57175961
0.58256425
0.59359812
0.60486403
0.61636464
0.62810247
0.64007983
0.65229886
0.66476142
0.67746914
0.69042333
0.70362499
0.71707471
0.7307727
0.74471889
0.50720972
0.51697168
0.52659952
0.53644504
0.54650999
0.5567973
0.5673102
0.57805193
0.58902569
0.60023458
0.61168159
0.62336958
0.63530124
0.64747909
0.65990543
0.67258234
0.68551163
0.6986948
0.71213304
0.72582714
0.73977747
0.75398418
0.51232251
0.52221522
0.53197476
0.54195665
0.55216281
0.56259631
0.57326055
0.58415896
0.59529489
0.60667162
0.61829234
0.63016006
0.64227767
0.65464788
0.66727317
0.68015581
0.69329779
0.70670083
0.72036627
0.73429511
0.74848792
0.76294502
0.51729901
0.52731722
0.5372029
0.5473154
0.55765679
0.56823029
0.57903949
0.59008794
0.60137919
0.61291669
0.62470378
0.63674367
0.64903944
0.66159394
0.67440988
0.68748968
0.70083555
0.71444936
0.72833267
0.74248665
0.75691206
0.7716094
0.52214516
0.53228372
0.54229008
0.55252754
0.5629983
0.57370574
0.58465359
0.59584558
0.60728541
0.61897669
0.63092294
0.64312755
0.65559374
0.66832458
0.68132293
0.69459142
0.70813241
0.72194797
0.73603985
0.7504094
0.76505756
0.77998505
0.52686631
0.53712016
0.54724187
0.55759876
0.56819316
0.57902859
0.59010892
0.60143805
0.61301982
0.62485801
0.63695631
0.64931827
0.66194728
0.67484659
0.68801922
0.70146799
0.71519543
0.72920381
0.74349503
0.75807064
0.77293178
0.78807934
0.53146725
0.54183144
0.5520633
0.56253421
0.57324662
0.5842042
0.59541096
0.60687094
0.61858815
0.63056651
0.64280986
0.65532192
0.66810626
0.68116627
0.69450516
0.70812591
0.72203123
0.73622356
0.75070499
0.76547725
0.78054165
0.79589927
0.5359522
0.5464219
0.55675881
0.56733845
0.57816338
0.5892374
0.60056465
0.61214933
0.62399558
0.63610748
0.64848901
0.66114406
0.67407633
0.68728941
0.70078664
0.71457118
0.72864592
0.74301345
0.75767606
0.77263563
0.78789366
0.80345143
0.54032486
0.55089532
0.56133232
0.57201551
0.58294758
0.59413245
0.60557439
0.61727774
0.62924677
0.6414857
0.65399867
0.66678969
0.67986265
0.69322126
0.70686905
0.72080931
0.73504511
0.74957922
0.76441407
0.77955174
0.79499389
0.81074197
0.54458838
0.55525497
0.56578719
0.57656889
0.58760284
0.59889309
0.61044405
0.62226015
0.63434581
0.6467054
0.65934319
0.67226332
0.68546983
0.69896659
0.71275726
0.72684531
0.74123396
0.75592613
0.77092442
0.78623107
0.80184794
0.81777663
0.54874541
0.55950359
0.57012631
0.58100156
0.59213227
0.60352256
0.61517695
0.62710003
0.63929632
0.65177032
0.66452643
0.67756893
0.690902
0.70452964
0.71845566
0.73268369
0.74721709
0.76205894
0.777212
0.79267866
0.80846096
0.82456068
0.55279811
0.56364346
0.57435203
0.58531603
0.59653845
0.60802355
0.61977596
0.63180035
0.64410138
0.65668367
0.66955173
0.68271
0.69616276
0.70991415
0.72396814
0.73832847
0.75299866
0.76798194
0.78328122
0.79889907
0.81483764
0.83109894
0.55674818
0.56767634
0.57846624
0.58951427
0.60082352
0.61239831
0.6242434
0.63636357
0.64876359
0.66144818
0.67442197
0.68768952
0.70125524
0.71512339
0.72929808
0.74378318
0.75858234
0.77369895
0.78913606
0.80489638
0.82098224
0.83739578
0.56059684
0.57160355
0.58247038
0.59359784
0.6049891
0.61664861
0.62858118
0.64079172
0.65328508
0.6660661
0.67913952
0.69251001
0.70618209
0.72016016
0.73444842
0.74905089
0.76397136
0.77921334
0.79478002
0.81067426
0.82689854
0.84345517
0.56434489
0.575426
0.58636542
0.59756781
0.60903642
0.62077574
0.63279072
0.64508632
0.65766752
0.67053923
0.68370632
0.69717353
0.71094551
0.72502677
0.73942163
0.75413423
0.76916847
0.78452799
0.80021614
0.8162359
0.83258989
0.84928059
0.56799271
0.57914413
0.59015194
0.60142487
0.61296622
0.6247806
0.63687301
0.6492485
0.66191214
0.67486894
0.68812384
0.70168169
0.71554726
0.72972512
0.74421974
0.75903535
0.77417598
0.78964539
0.80544705
0.82158407
0.83805923
0.85487515
0.57154029
0.58275801
0.59383009
0.60516926
0.61677889
0.62866366
0.64082863
0.65327896
0.66601976
0.67905615
0.69239314
0.7060357
0.71998864
0.73425668
0.74884436
0.76375602
0.7789958
0.79456759
0.81047496
0.82672115
0.84330908
0.86024151
0.57498723
0.58626734
0.59739966
0.60880086
0.6204744
0.63242499
0.64465778
0.65717798
0.6699908
0.6831014
0.6965149
0.71023633
0.7242706