/*--------------------------------*- C++ -*----------------------------------*\
| =========                 |                                                 |
| \\      /  F ield         | OpenFOAM: The Open Source CFD Toolbox           |
|  \\    /   O peration     | Version:  2406                                  |
|   \\  /    A nd           | Website:  www.openfoam.com                      |
|    \\/     M anipulation  |                                                 |
\*---------------------------------------------------------------------------*/
FoamFile
{
    version     2.0;
    format      ascii;
    arch        "LSB;label=32;scalar=64";
    class       volScalarField;
    location    "0.011";
    object      k;
}
// * * * * * * * * * * * * * * * * * * * * * * * * * * * * * * * * * * * * * //

dimensions      [0 2 -2 0 0 0 0];

internalField   nonuniform List<scalar> 
23203
(
317.60104
321.52257
326.99564
334.06688
342.61818
352.38137
362.98176
373.99514
385.00141
395.62391
405.55134
414.54507
422.43633
429.11798
434.53402
438.66911
441.53905
443.1827
443.65539
443.02192
441.35497
438.73243
435.23226
314.02013
317.92033
323.33158
330.29601
338.69886
348.28243
358.68686
369.50393
380.32796
390.79353
400.59706
409.50432
417.34821
424.02117
429.46536
433.66263
436.62532
438.38847
439.0033
438.53159
437.04255
434.60993
431.30852
310.63094
314.52404
319.8857
326.75279
335.01318
344.41906
354.6252
365.23955
375.87138
386.16734
395.83239
404.63746
412.41778
419.06591
424.52252
428.76686
431.80801
433.67731
434.42213
434.10081
432.77905
430.52709
427.41669
307.45733
311.35509
316.67645
323.45251
331.57332
340.80061
350.80376
361.20716
371.63557
381.74842
391.25994
399.94692
407.64747
414.2547
419.70811
423.98457
427.09003
429.05226
429.91491
429.73269
428.56781
426.48716
423.55958
304.52185
308.43296
313.71998
320.408
328.389
337.43414
347.22746
357.41009
367.62281
377.53841
386.88106
395.43397
403.03863
409.58905
415.02383
419.31767
422.4735
424.51561
425.48398
425.4297
424.41144
422.49281
301.84273
305.77327
311.02895
317.62894
325.46715
334.32426
343.8991
353.84989
363.83385
373.5377
382.69605
391.09903
398.59187
405.06986
410.47088
414.76763
417.96012
420.06926
421.13139
421.19394
420.31201
418.5454
299.43389
303.38718
308.61184
315.12123
322.81142
331.47277
340.81917
350.5262
360.26793
369.74543
378.70419
386.94165
394.30716
400.69746
406.04998
410.3355
413.55126
415.71479
416.85883
417.02718
416.27129
414.64736
297.30389
301.28074
306.47242
312.88667
320.42194
328.87855
337.98571
347.43667
356.92267
366.15945
374.90375
382.96062
390.18378
396.47168
401.7614
406.02198
409.24792
411.45347
412.6678
412.93102
412.29101
410.80043
295.45774
299.45653
304.611
310.92368
318.29574
326.53776
335.39451
344.5771
353.79419
362.77643
371.29204
379.15394
386.22043
392.39181
397.60501
401.8274
405.05083
407.28634
408.55954
408.90691
408.37273
407.00621
293.89738
297.91414
303.02493
309.22779
316.42714
324.44413
333.03925
341.94157
350.87722
359.59191
367.8655
375.51892
382.4152
388.4567
393.58028
397.75176
400.96044
403.21418
404.53511
404.95611
404.51788
403.26623
292.61861
296.64754
301.70685
307.79069
314.80736
322.5889
330.91162
339.52254
348.16523
356.60044
364.61975
372.0522
378.7657
384.66477
389.68633
393.79476
396.97692
399.23756
400.5954
401.07975
400.72777
399.5819
291.61325
295.64668
300.64552
306.6007
313.42483
320.96105
329.00151
337.31104
345.65051
353.79565
361.54969
368.74987
375.26906
381.01405
385.92196
389.95586
393.10025
395.35688
396.74113
397.27881
397.0036
395.95456
290.86954
294.89845
299.82705
305.64374
312.26586
319.54777
327.29732
335.29692
343.32445
351.17042
358.64964
365.60753
371.92201
377.50226
382.28572
386.23427
389.3302
391.57237
392.97289
393.55416
393.34644
392.38546
290.37264
294.38704
299.23522
304.90375
311.3151
318.33487
325.78635
333.4691
341.17766
348.71701
355.91338
362.62036
368.72094
374.1268
378.77588
382.62901
385.66637
387.8841
389.29114
389.90656
389.75727
388.87574
290.10501
294.09426
298.85181
304.36305
310.55591
317.30714
324.45504
331.81584
339.2002
346.42721
353.33432
359.78318
365.66192
370.88485
375.39052
379.13888
382.10821
384.29201
385.69621
386.33666
386.237
385.42649
290.04577
293.99917
298.65634
304.00227
309.97044
316.44849
323.28923
330.3249
337.38173
344.29247
350.90554
357.09055
362.74081
367.77336
372.12752
375.76256
378.65501
380.79592
382.18834
382.84503
382.78644
382.03873
290.17507
294.08215
298.62955
303.80289
309.54137
315.74314
322.27484
328.984
335.71179
342.30409
348.61994
354.53684
359.95325
364.78907
368.98458
372.49854
375.30592
377.39552
378.76765
379.43212
379.40634
378.7134
290.47227
294.32226
298.75164
303.74643
309.2516
315.17548
321.39793
327.78098
334.17992
340.45326
346.47032
352.11626
357.29473
361.9286
365.95925
369.34517
372.05998
374.09038
375.43418
376.09834
376.09735
375.45139
290.91441
294.69767
299.0018
303.81357
309.08355
314.72978
320.64459
326.70366
332.7757
338.7312
344.44937
349.8229
354.7606
359.18838
363.04894
366.30068
368.91607
370.87998
372.18784
372.84398
372.86009
372.25353
291.4803
295.18785
299.36046
303.986
309.02042
314.39087
320.00131
325.74019
331.48885
337.12915
342.5498
347.6508
352.34609
356.56474
360.25091
363.36313
365.87297
367.76365
369.02845
369.66924
369.69506
369.12058
292.14965
295.77334
299.8093
304.24667
309.04653
314.14448
319.45524
324.87919
330.30942
335.63857
340.76439
345.59399
350.04639
354.05389
357.56231
360.53048
362.92932
364.74063
365.95575
366.57425
366.60272
366.05326
292.90321
296.43592
300.33126
304.57977
309.1473
313.97727
318.99433
324.10984
329.22788
334.25115
339.08606
343.64654
347.85665
351.65199
354.98017
357.80056
360.08365
361.81004
362.96933
363.55904
363.58343
363.0522
293.72307
297.15878
300.91065
304.97073
309.3093
313.87691
318.60733
323.422
328.23515
332.95893
337.5079
341.8026
345.77203
349.35513
352.50144
355.1711
357.33437
358.97087
360.06873
360.62356
360.63749
360.11799
294.59249
297.92604
301.53274
305.40592
309.51996
313.83189
318.28374
322.80614
327.32267
331.75429
336.02327
340.05647
343.78773
347.15939
350.12305
352.63976
354.6798
356.22205
357.25336
357.76765
357.76513
357.25114
295.4971
298.72459
302.18546
305.87409
309.76877
313.83237
318.01436
322.25371
326.48261
330.63015
334.62585
338.40264
341.89908
345.06088
347.84185
350.20413
352.11818
353.5624
354.52255
354.9911
354.96647
354.4521
296.42477
299.54327
302.85836
306.36565
310.04676
313.86985
317.7911
321.75709
325.70782
329.57992
333.30971
336.83586
340.10152
343.05579
345.65473
347.86174
349.64769
350.99066
351.87556
352.29359
352.24161
351.72127
297.3642
300.37128
303.54138
306.87123
310.34525
313.93624
317.60639
321.30913
324.99162
328.59743
332.0692
335.35108
338.39064
341.14036
343.55859
345.61015
347.26646
348.50552
349.31158
349.67476
349.59055
349.05901
298.30542
301.19966
304.22637
307.38308
310.6568
314.02441
317.45339
320.90333
324.32786
327.6769
330.89901
333.9435
336.76221
339.31091
341.55037
343.44688
344.9726
346.10562
346.82974
347.13419
347.01327
346.4656
299.24035
302.02109
304.90649
307.89478
310.97526
314.12834
317.32622
320.53394
323.71096
326.81304
329.79419
332.60859
335.21216
337.56394
339.62708
341.36949
342.76422
343.78959
344.42914
344.67142
344.50969
343.94131
300.16212
302.82929
305.5758
308.40069
311.29516
314.24271
317.21964
320.19581
323.13592
326.00102
328.75017
331.34211
333.73666
335.89606
337.78585
339.37563
340.63946
341.55606
342.10888
342.28597
342.07971
341.48639
301.06551
303.61951
306.23025
308.89714
311.61284
314.3637
317.12964
319.88478
322.5985
325.23663
327.76286
330.14019
332.33217
334.30409
336.02393
337.46301
338.59649
339.40368
339.86806
339.97735
339.72324
339.10108
301.94673
304.38844
306.86653
309.38067
311.92494
314.48798
317.05278
319.59726
322.09498
324.5161
326.82857
328.9993
330.99539
332.78508
334.33873
335.62945
336.6336
337.33115
337.70582
337.7451
337.44019
336.78563
302.80193
305.13264
307.48146
309.84828
312.22837
314.61228
316.9857
319.32983
321.62191
323.83599
325.94389
327.91619
329.72327
331.33627
332.72785
333.87293
334.74915
335.33727
335.62133
335.5888
335.23049
334.54031
303.62912
305.85039
308.07349
310.29841
312.52142
314.73466
316.92616
319.07997
321.17655
323.19342
325.10591
326.88798
328.51311
329.95516
331.18907
332.19157
332.94165
333.42091
333.61388
333.5081
333.09416
332.36546
304.4274
306.54097
308.64193
310.73049
312.80345
314.85421
316.87289
318.84599
320.75687
322.58612
324.31222
325.91223
327.36253
328.63954
329.72043
330.58372
331.20975
331.5811
331.68285
331.50275
331.03128
330.26148
305.19598
307.20389
309.18643
311.14377
313.07325
314.96953
316.82429
318.62615
320.36094
322.012
323.56066
324.98679
326.26943
327.38747
328.32019
329.04789
329.55229
329.817
329.82775
329.57259
329.04203
328.22886
305.93501
307.83939
309.7072
311.53851
313.33105
315.08049
316.77981
318.41949
319.98751
321.46959
322.84958
324.10991
325.23211
326.19733
326.98691
327.58286
327.96834
328.12798
328.04825
327.71762
327.12673
326.26822
306.64574
308.44889
310.20559
311.91584
313.57786
315.18785
316.73986
318.22602
319.63613
320.95805
322.17788
323.28034
324.24923
325.06784
325.71942
326.18769
326.45716
326.51359
326.34422
325.93802
325.28584
324.38033
307.32935
309.03365
310.68295
312.27708
313.81447
315.29183
316.70435
318.04535
319.30622
320.47662
321.54464
322.49708
323.31978
323.99801
324.51687
324.86165
325.01828
324.97361
324.7157
324.23412
323.52001
322.5661
307.98764
309.59557
311.14106
312.6238
314.04234
315.39394
316.6745
317.87827
318.99812
320.02527
320.94956
321.75961
322.44315
322.98724
323.3787
323.60436
323.65149
323.50805
323.16299
322.60648
321.83006
320.82663
308.6229
310.13707
311.58239
312.95836
314.26365
315.4959
316.65145
317.7256
318.71234
319.60423
320.39262
321.06778
321.61907
322.03524
322.30467
322.41569
322.35683
322.11718
321.68657
321.05585
320.21702
319.16322
309.23739
310.66051
312.00928
313.28301
314.48041
315.59939
316.63683
317.58876
318.44994
319.21424
319.8743
320.42181
320.84765
321.14205
321.29486
321.29578
321.13461
320.80149
320.28717
319.5832
318.68211
317.57734
309.83343
311.16834
312.42422
313.60017
314.69492
315.70659
316.63251
317.46907
318.21199
318.85608
319.39515
319.82212
320.12918
320.30792
320.34954
320.24501
319.98531
319.56165
318.96568
318.18968
317.22671
316.07064
310.41303
311.66273
312.82944
313.91206
314.90929
315.81939
316.64
317.36802
317.99983
318.53087
318.95605
319.26937
319.46419
319.53331
319.46916
319.26388
318.90959
318.39849
317.72313
316.87654
315.85236
314.64489
310.97774
312.14539
313.22673
314.22045
315.12523
315.93941
316.66086
317.28693
317.81427
318.23925
318.55746
318.76392
318.85298
318.81854
318.65409
318.35288
317.90807
317.31284
316.56059
315.64509
314.56063
313.30196
311.52846
312.61739
313.61726
314.52654
315.34387
316.06765
316.69591
317.22633
317.65604
317.98178
318.19982
318.30606
318.29577
318.16379
317.90459
317.51239
316.98131
316.30544
315.47903
314.4966
313.35305
312.04364
312.06534
313.07913
314.00162
314.83107
315.56605
316.20498
316.74602
317.18704
317.5256
317.75874
317.88343
317.89605
317.79278
317.56926
317.22083
316.74263
316.12965
315.37684
314.47924
313.43211
312.23096
310.8716
312.58729
313.5297
314.37901
315.13328
315.79102
316.35062
316.81031
317.16816
317.42197
317.56927
317.6072
317.53285
317.34297
317.034
316.60206
316.04305
315.35277
314.52699
313.56149
312.45221
311.19532
309.78714
313.09199
313.96695
314.74742
315.43127
316.01691
316.50272
316.88697
317.16782
317.3433
317.41125
317.36917
317.21451
316.9445
316.55628
316.04666
315.41227
314.6496
313.75513
312.72535
311.55686
310.24645
308.79099
313.57589
314.3875
315.10361
315.72192
316.24073
316.65838
316.97315
317.18327
317.28686
317.28201
317.16662
316.9383
316.59486
316.13373
315.55245
314.84825
314.01829
313.05967
311.96955
310.74516
309.38386
307.88309
314.03403
314.78651
315.44282
316.0005
316.45775
316.81285
317.06405
317.20961
317.24777
317.17678
316.99473
316.69963
316.28932
315.76188
315.11518
314.34708
313.45528
312.43747
311.2914
310.01488
308.60584
307.06222
314.46022
315.15781
315.75891
316.26089
316.66185
316.95998
317.15352
317.24071
317.2199
317.08933
316.8473
316.4921
316.02187
315.43481
314.72919
313.90332
312.95549
311.88387
310.68671
309.36234
307.90922
306.32579
314.84719
315.49416
316.04462
316.4958
316.8457
317.09244
317.23418
317.26916
317.19576
317.01221
316.71695
316.30842
315.78507
315.14521
314.38739
313.51023
312.51241
311.39267
310.14968
308.78223
307.28923
305.66962
315.18685
315.78736
316.29165
316.69684
317.00081
317.2016
317.2973
317.2861
317.16631
316.93629
316.59447
316.1394
315.56969
314.88396
314.08079
313.15904
312.11771
310.95588
309.67273
308.26744
306.73932
305.08771
315.47058
316.02866
316.4911
316.85492
317.1179
317.278
317.33315
317.28164
317.1216
316.85143
316.46961
315.97471
315.36543
314.64057
313.79897
312.83948
311.76131
310.56384
309.24656
307.8091
306.2511
304.57226
315.68964
316.20908
316.63375
316.96055
317.18719
317.31152
317.33152
317.24526
317.05086
316.74669
316.33122
315.80304
315.16089
314.40364
313.53031
312.53998
311.4318
310.20532
308.86032
307.3967
305.81449
304.1137
315.83552
316.31988
316.71057
317.00444
317.19911
317.29239
317.2822
317.16639
316.94318
316.61084
316.1678
315.61263
314.94408
314.16105
313.26263
312.24806
311.11669
309.86797
308.50182
307.01839
305.41796
303.70088
315.90033
316.35285
316.71305
316.97774
317.14448
317.21098
317.17508
317.03467
316.78782
316.43275
315.96784
315.39163
314.70285
313.90039
312.98336
311.95105
310.80297
309.53871
308.15807
306.66132
305.04891
303.32146
315.87703
316.30063
316.63346
316.87234
317.01477
317.0584
317.00098
316.84038
316.5746
316.20179
315.72028
315.12857
314.42533
313.60945
312.67999
311.63626
310.47779
309.20431
307.81571
306.31212
304.69417
302.96247
315.75977
316.157
316.46522
316.68126
316.80257
316.82676
316.75154
316.5747
316.2942
315.90814
315.41479
314.81259
314.10016
313.27635
312.34018
311.29094
310.12811
308.85147
307.46101
305.95688
304.33957
302.60985
315.54406
315.91715
316.20314
316.39891
316.50187
316.50961
316.41978
316.23016
315.93864
315.54328
315.04228
314.43403
313.71711
312.8903
311.95258
310.90318
309.74156
308.46745
307.08085
305.58203
303.97136
302.24957
315.22692
315.57776
315.84356
316.02125
316.10823
316.10206
316.00039
315.80094
315.50159
315.10033
314.59534
313.98494
313.26766
312.44222
311.50755
310.46282
309.30744
308.04109
306.66371
305.17554
303.57704
301.86878
314.80692
315.13711
315.38444
315.54588
315.61886
315.60093
315.48972
315.28295
314.97845
314.57419
314.06831
313.4591
312.74502
311.92474
310.99713
309.9613
308.81659
307.56262
306.19925
304.72665
303.14525
301.45565
314.28415
314.59504
314.8253
314.97202
315.03264
315.00471
314.88587
314.67382
314.36639
313.96154
313.45737
312.85212
312.14422
311.33228
310.41513
309.39181
308.26158
307.02398
305.6788
304.22612
302.66628
300.99982
313.66014
313.95281
314.16718
314.30042
314.34999
314.31348
314.18854
313.97287
313.66431
313.2608
312.76042
312.1614
311.46212
310.66115
309.75726
308.74943
307.63685
306.41899
305.09554
303.66649
302.13208
300.49274
312.93767
313.21303
313.41244
313.53318
313.57276
313.5288
313.39896
313.18097
312.87268
312.47203
311.97709
311.38607
310.69733
309.90941
309.02102
308.03108
306.93873
305.74334
304.44454
303.04219
301.53643
299.92758
312.12064
312.37941
312.56463
312.67366
312.70406
312.65351
312.51968
312.30037
311.99341
311.59676
311.1085
310.52683
309.8501
309.07681
308.20563
307.23545
306.16533
304.99456
303.72269
302.3495
300.87499
299.29937
311.21385
311.45664
311.62826
311.72618
311.74804
311.69153
311.55441
311.33448
311.02961
310.63779
310.1571
309.58576
308.92208
308.16457
307.31186
306.36279
305.31638
304.17185
302.92865
301.58647
300.14521
298.60495
310.22283
310.45013
310.60862
310.69591
310.70968
310.64769
310.50775
310.28768
309.98543
309.59899
309.12646
308.56607
307.91616
307.17519
306.34179
305.41476
304.39307
303.27588
302.06257
300.75273
299.34617
297.84283
309.15362
309.36583
309.51159
309.58859
309.59461
309.52746
309.385
309.16512
308.86578
308.48504
308.02102
307.47195
306.83619
306.1122
305.29859
304.39414
303.39778
302.30861
301.12595
299.84931
298.47838
297.01301
308.01261
308.21008
308.34339
308.41038
308.40889
308.33678
308.19198
307.97244
307.67617
307.30126
306.84587
306.30825
305.68678
304.97993
304.18631
303.30465
302.33387
301.27304
300.1214
298.87837
297.54358
296.11676
306.80636
306.98938
307.1105
307.16768
307.15882
307.08187
306.93481
306.71565
306.42245
306.05335
305.60656
305.08034
304.4731
303.78332
303.00961
302.1507
301.20548
300.17296
299.05236
297.84303
296.5445
295.15641
305.54146
305.71029
305.81943
305.86694
305.85082
305.76907
305.61975
305.40092
305.1107
304.74728
304.3089
303.79389
303.20065
302.52769
301.77362
300.93718
300.01723
299.01277
297.92295
296.74709
295.48462
294.13511
304.22441
304.37928
304.47662
304.51459
304.49126
304.40471
304.25306
304.03444
303.74703
303.38906
302.95883
302.45469
301.87509
301.21855
300.48371
299.66929
298.77414
297.79725
296.73774
295.59486
294.368
293.05663
302.86152
303.00265
303.08834
303.11686
303.08634
302.99496
302.84088
302.6223
302.33746
301.98466
301.56222
301.06855
300.50213
299.86152
299.14534
298.35234
297.48138
296.53142
295.50154
294.39097
293.19904
291.92515
301.4588
301.58641
301.6606
301.67975
301.64207
301.54578
301.38913
301.17039
300.88786
300.53988
300.12483
299.64117
299.0874
298.4621
297.76395
296.99169
296.14418
295.22036
294.21931
293.14022
291.98237
290.74511
300.02197
300.13626
300.1991
300.20894
300.16408
300.06282
299.90347
299.68434
299.40382
299.06029
298.65219
298.17801
297.63631
297.0257
296.34486
295.59256
294.76767
293.86913
292.896
291.84744
290.7227
289.52108
298.55632
298.65751
298.70913
298.70975
298.65771
298.5514
298.38917
298.16944
297.89061
297.55114
297.14953
296.6843
296.15406
295.55744
294.89316
294.16001
293.35686
292.48266
291.53646
290.51739
289.42469
288.25761
297.06676
297.15507
297.19562
297.18708
297.12787
297.01641
296.85117
296.63059
296.35315
296.01735
295.62175
295.16492
294.64551
294.06218
293.41368
292.69883
291.9165
291.06567
290.14536
289.1547
288.09291
286.9592
295.55777
295.63341
295.66305
295.64543
295.57904
295.46239
295.29398
295.07232
294.79595
294.46344
294.07339
293.62441
293.11519
292.54444
291.91094
291.21353
290.4511
289.62262
288.72714
287.76378
286.73172
285.63017
294.03339
294.09659
294.11548
294.08887
294.01533
293.89341
293.72169
293.49874
293.22315
292.89355
292.50858
292.06691
291.56726
291.0084
290.38912
289.70828
288.96481
288.15769
287.28596
286.34876
285.34524
284.2746
292.49722
292.54823
292.55653
292.52104
292.44037
292.31314
292.13799
291.91355
291.63846
291.31141
290.93108
290.4962
290.00552
289.45784
288.85201
288.18691
287.46147
286.67471
285.82568
284.91349
283.93732
282.89635
290.95246
290.99151
290.98943
290.94516
290.85741
290.72484
290.54616
290.32004
290.0452
289.72035
289.34424
288.91564
288.43335
287.8962
287.30307
286.65287
285.94458
285.1772
284.3498
283.46152
282.51152
281.49898
289.40188
289.42924
289.41696
289.36406
289.26928
289.13137
288.94906
288.72111
288.44627
288.12332
287.75103
287.32824
286.85378
286.32652
285.74538
285.10929
284.41726
283.66831
282.86153
281.99606
281.07107
280.08572
287.84787
287.86382
287.84155
287.78015
287.67843
287.53518
287.3492
287.11928
286.84423
286.52288
286.15406
285.73662
285.26947
284.7515
284.18165
283.55892
282.8823
282.15087
281.36372
280.52
279.61888
278.65954
286.29245
286.29728
286.26525
286.19553
286.08696
285.9384
285.7487
285.5167
285.24126
284.92125
284.55555
284.14307
283.68273
283.17347
282.61429
282.00417
281.34218
280.62738
279.85891
279.03591
278.15757
277.22308
284.73732
284.73131
284.68977
284.6119
284.49661
284.3428
284.14936
283.91519
283.6392
283.3203
282.95743
282.54952
282.09554
281.59447
281.04533
280.44716
279.79902
279.10003
278.34931
277.54606
276.68946
275.7787
283.18384
283.16732
283.11652
283.0307
282.90882
282.74982
282.55265
282.31626
282.03959
281.72161
281.36129
280.9576
280.50956
280.01619
279.47653
278.88965
278.25466
277.57068
276.83687
276.05242
275.21655
274.32845
281.63309
281.60639
281.5466
281.45305
281.32473
281.16065
280.95979
280.72113
280.44369
280.12645
279.76844
279.36868
278.9262
278.44007
277.90936
277.33318
276.71065
276.04094
275.32321
274.55669
273.74058
272.87412
280.08593
280.04937
279.98088
279.87983
279.74525
279.57619
279.37169
279.13077
278.85247
278.53585
278.17994
277.78382
277.34656
276.86725
276.34502
275.77898
275.16829
274.51214
273.80973
273.06029
272.26305
271.41725
278.54293
278.49687
278.41998
278.31167
278.17102
277.99713
277.78906
277.54589
277.2667
276.95057
276.5966
276.20388
275.77153
275.29868
274.78447
274.22805
273.62863
272.98539
272.29758
271.56443
270.7852
269.95914
277.0045
276.9493
276.86432
276.74901
276.60251
276.42393
276.21239
275.96702
275.68691
275.3712
275.01902
274.6295
274.20179
273.73505
273.22845
272.6812
272.09249
271.46157
270.78767
270.07007
269.30805
268.50086
275.47088
275.40689
275.31415
275.19212
275.03998
274.85689
274.642
274.39448
274.11346
273.79812
273.44761
273.06111
272.6378
272.17687
271.67753
271.139
270.56052
269.94134
269.28074
268.578
267.83242
267.04329
273.94212
273.86973
273.76955
273.64109
273.48355
273.29613
273.07804
272.82844
272.54655
272.23154
271.88262
271.499
271.07988
270.6245
270.13208
269.60188
269.03317
268.42522
267.77733
267.0888
266.35896
265.58711
272.41819
272.33777
272.23049
272.09589
271.9332
271.74167
271.52051
271.26895
270.98622
270.67154
270.32415
269.94328
269.52818
269.07811
268.59232
268.07011
267.51074
266.91354
266.27782
265.60291
264.88815
264.13285
270.89891
270.81086
270.69683
270.55638
270.38881
270.19336
269.96931
269.7159
269.4324
269.11807
268.77217
268.39397
267.98274
267.53777
267.05836
266.5438
265.99341
265.40652
264.78247
264.12062
263.42031
262.6809
269.38404
269.28874
269.1683
269.02234
268.85014
268.65101
268.42424
268.16912
267.88494
267.57099
267.22656
266.85095
266.44347
266.00343
265.53015
265.02296
264.4812
263.90422
263.29139
262.64208
261.95566
261.23149
267.87326
267.7711
267.64462
267.49344
267.31689
267.11431
266.88501
266.62832
266.34356
266.03004
265.68709
265.31403
264.9102
264.47494
264.00759
263.50752
262.97407
262.40664
261.8046
261.16734
260.49427
259.78476
266.3662
266.25756
266.12539
265.96931
265.7887
265.5829
265.35128
265.09317
264.80794
264.49491
264.15346
263.78292
263.38267
262.95206
262.49047
261.99728
261.47187
260.91364
260.322
259.69637
259.03615
258.34075
264.86245
264.74772
264.6102
264.44954
264.26514
264.05638
263.82263
263.56328
263.27769
262.96524
262.62532
262.2573
261.86056
261.4345
260.97851
260.49199
259.97436
259.42504
258.84345
258.22902
257.5812
256.89939
263.36155
263.24111
263.0986
262.93368
262.74578
262.53429
262.29863
262.03819
261.75239
261.44061
261.10226
260.73675
260.34349
259.92188
259.47136
258.99135
258.48127
257.94057
257.3687
256.76511
256.12925
255.46056
261.86303
261.73726
261.59011
261.42124
261.23012
261.01616
260.77879
260.51745
260.23156
259.92055
259.58383
259.22085
258.83104
258.41382
257.96866
257.49498
256.99225
256.45992
255.89747
255.30436
254.68007
254.02405
260.36642
260.23568
260.08423
259.91173
259.71766
259.50147
259.26262
259.00055
258.71472
258.40457
258.06956
257.70914
257.32275
256.90987
256.46996
256.00248
255.50691
254.98272
254.42941
253.84646
253.23337
252.58961
258.87122
258.73588
258.58045
258.40463
258.20789
257.98972
257.74959
257.48698
257.20135
256.89218
256.55894
256.20111
255.81815
255.40956
254.97482
254.51341
254.02483
253.50857
252.96415
252.39106
251.78883
251.15694
257.37695
257.23735
257.07828
256.89942
256.70029
256.48037
256.23918
255.97619
255.69092
255.38284
255.05145
254.69625
254.31673
253.91239
253.48275
253.0273
252.54555
252.03704
251.50127
250.93777
250.34607
249.72569
255.8831
255.73959
255.57719
255.39559
255.19432
254.9729
254.73084
254.46767
254.18289
253.87601
253.54655
253.19403
252.81796
252.41785
251.99324
251.54365
251.06861
250.56765
250.04032
249.48615
248.9047
248.29548
254.38918
254.24208
254.07666
253.8926
253.68946
253.46676
253.22405
252.96086
252.67671
252.37115
252.04371
251.69391
251.3213
250.92541
250.50579
250.06197
249.5935
249.09994
248.58085
248.03577
247.46427
246.86591
252.89469
252.74433
252.57618
252.38994
252.18517
251.96142
251.71824
251.4552
251.17184
250.86771
250.54237
250.19535
249.82622
249.43453
249.01984
248.58172
248.11971
247.6334
247.12235
246.58614
246.02435
245.43653
251.39916
251.24583
251.07524
250.88708
250.68091
250.45632
250.21288
249.95016
249.66772
249.36513
249.04196
248.69778
248.33215
247.94466
247.53487
247.10236
246.64671
246.16751
245.66434
245.13679
244.58445
244.0069
249.90207
249.74607
249.57332
249.38348
249.17615
248.95094
248.70741
248.44516
248.16378
247.86284
247.54193
247.20063
246.83854
246.45523
246.05031
245.62335
245.17396
244.70174
244.20628
243.68719
243.14407
242.57654
248.40294
248.24455
248.06989
247.87862
247.67036
247.44471
247.20127
246.93966
246.65946
246.36027
246.0417
245.70334
245.3448
244.96569
244.56559
244.14413
243.7009
243.23554
242.74764
242.23683
241.70272
241.14494
246.90127
246.74075
246.56443
246.37196
246.16297
245.93708
245.69391
245.43307
245.15418
244.85685
244.54069
244.20533
243.85037
243.47543
243.08014
242.66412
242.22698
241.76835
241.28787
240.78516
240.25986
239.7116
245.39653
245.23415
245.0564
244.86296
244.65344
244.42749
244.18474
243.92482
243.64736
243.35198
243.03832
242.70599
242.35464
241.98389
241.59338
241.18274
240.75161
240.29962
239.82641
239.33165
238.81496
238.27599
243.88822
243.72421
243.54527
243.35105
243.1412
242.91537
242.6732
242.41433
242.13841
241.84508
241.53398
241.20474
240.85702
240.49046
240.10471
239.6994
239.2742
238.82874
238.36269
237.87571
237.36745
236.83757
242.37579
242.21039
242.03047
241.83568
241.62568
241.40013
241.15869
240.901
240.62674
240.33554
240.02706
239.70097
239.35691
238.99453
238.61351
238.2135
237.79415
237.35514
236.89612
236.41677
235.91676
235.39577
240.85869
240.69211
240.51142
240.31625
240.10628
239.88117
239.6406
239.38422
239.11171
238.82273
238.51695
238.19404
237.85366
237.49548
237.11917
236.72441
236.31085
235.87819
235.42609
234.95423
234.46231
233.95001
239.33634
239.1688
238.98754
238.79218
238.5824
238.35788
238.11831
237.86336
237.5927
237.30603
237.00301
236.68332
236.34665
235.99267
235.62105
235.23149
234.82367
234.39727
233.95198
233.48749
233.0035
232.49972
237.80815
237.63985
237.45821
237.26282
237.0534
236.82962
236.59118
236.33777
236.06907
235.78478
235.48458
235.16817
234.83522
234.48544
234.1185
233.73412
233.33197
232.91175
232.47317
232.01592
231.53972
231.04427
236.2735
236.10464
235.92279
235.72756
235.51864
235.29574
235.05856
234.8068
234.54015
234.25832
233.961
233.6479
233.31871
232.97313
232.61086
232.23161
231.83508
231.42098
230.989
230.53888
230.07032
229.58305
234.73175
234.5625
234.38063
234.18571
233.97745
233.75557
233.51977
233.26976
233.00526
232.72596
232.43158
232.12183
231.79642
231.45505
231.09744
230.7233
230.33234
229.92428
229.49883
229.05571
228.59466
228.11542
233.18223
233.01279
232.83106
232.63661
232.42915
232.20842
231.97412
231.72597
231.46369
231.18701
230.89563
230.58927
230.26766
229.93052
229.57755
229.20849
228.82306
228.42097
228.00196
227.56575
227.11209
226.64073
231.62426
231.45479
231.27337
231.07955
230.87304
230.65357
230.42089
230.1747
229.91474
229.64074
229.35242
229.0495
228.73173
228.39881
228.05049
227.68648
227.30653
226.91036
226.49771
226.06831
225.62193
225.15831
230.05712
229.88781
229.70686
229.5138
229.30838
229.09032
228.85936
228.61523
228.35768
228.08643
227.80122
227.50179
227.18788
226.85921
226.51552
226.15655
225.78205
225.39174
224.98538
224.56271
224.12349
223.66749
228.48011
228.31111
228.13079
227.93865
227.73444
227.5179
227.28878
227.04682
226.79176
226.52334
226.24131
225.94541
225.63538
225.31097
224.97192
224.61798
224.24888
223.86439
223.46426
223.04823
222.61607
222.16758
226.89247
226.72396
226.54441
226.35334
226.15048
225.93559
225.70841
225.46871
225.21622
224.95071
224.67191
224.37959
224.07348
223.75335
223.41894
223.07001
222.70631
222.32759
221.93362
221.52416
221.09898
220.65788
225.29347
225.1256
224.94699
224.75711
224.55573
224.34261
224.1175
223.88015
223.63033
223.36779
223.09229
222.80359
222.50144
222.18561
221.85585
221.51192
221.15359
220.78061
220.39275
219.98978
219.57149
219.13768
223.68236
223.51529
223.33775
223.14922
222.94945
222.73821
222.51526
222.28037
222.0333
221.77381
221.50167
221.21664
220.91849
220.60698
220.28188
219.94296
219.58997
219.2227
218.84091
218.44438
218.0329
217.60629
222.05839
221.89227
221.71596
221.5289
221.33087
221.12163
220.90096
220.66862
220.42438
220.16801
219.8993
219.618
219.32388
219.01673
218.6963
218.36238
218.01473
217.65313
217.27737
216.88722
216.48249
216.06299
220.42082
220.25579
220.08085
219.89541
219.69924
219.49212
219.27382
219.04413
218.80281
218.54965
218.28442
218.0069
217.71686
217.41409
217.09835
216.76944
216.42712
216.07118
215.70141
215.31759
214.91954
214.50708
218.76891
218.60514
218.4317
218.248
218.05382
217.84893
217.63312
217.40617
217.16786
216.91797
216.6563
216.38261
216.09669
215.79833
215.48731
215.16341
214.82641
214.47612
214.11231
213.73478
213.34335
212.93786
217.10196
216.93957
216.76778
216.58596
216.39388
216.19134
215.97811
215.754
215.51878
215.27225
215.01419
214.74439
214.46264
214.16873
213.86244
213.54357
213.2119
212.86723
212.50936
212.13808
211.75323
211.35464
215.41926
215.25841
215.0884
214.90857
214.71872
214.51863
214.3081
214.08692
213.85488
213.61177
213.35739
213.09154
212.814
212.52457
212.22304
211.90921
211.58287
211.24382
210.89186
210.52681
210.14849
209.75675
213.72016
213.56098
213.39287
213.21517
213.02765
212.83013
212.62239
212.40423
212.17545
211.93585
211.68522
211.42337
211.15008
210.86517
210.56843
210.25966
209.93865
209.60522
209.25916
208.9003
208.52846
208.14352
212.00402
211.84664
211.68057
211.5051
211.32004
211.12518
210.92033
210.70528
210.47984
210.24381
209.997
209.7392