/*--------------------------------*- C++ -*----------------------------------*\
| =========                 |                                                 |
| \\      /  F ield         | OpenFOAM: The Open Source CFD Toolbox           |
|  \\    /   O peration     | Version:  2406                                  |
|   \\  /    A nd           | Website:  www.openfoam.com                      |
|    \\/     M anipulation  |                                                 |
\*---------------------------------------------------------------------------*/
FoamFile
{
    version     2.0;
    format      ascii;
    arch        "LSB;label=32;scalar=64";
    class       volScalarField;
    location    "0.011";
    object      Ma;
}
// * * * * * * * * * * * * * * * * * * * * * * * * * * * * * * * * * * * * * //

dimensions      [0 0 0 0 0 0 0];

internalField   nonuniform List<scalar> 
23203
(
0.093129031
0.097070534
0.10079493
0.10425388
0.10741736
0.11027496
0.11283443
0.11511701
0.1171517
0.11897028
0.1206039
0.12208102
0.1234265
0.12466145
0.12580348
0.12686709
0.12786417
0.12880442
0.12969574
0.13054457
0.13135616
0.13213481
0.13288406
0.092961792
0.09684095
0.10051071
0.10392402
0.10705152
0.10988259
0.112424
0.11469552
0.11672456
0.11854148
0.12017624
0.12165639
0.12300613
0.12424612
0.12539368
0.1264631
0.12746616
0.12841249
0.12930994
0.13016494
0.13098275
0.1317677
0.13252338
0.092808666
0.096624404
0.10023823
0.10360446
0.10669446
0.10949748
0.11201939
0.11427856
0.11630089
0.11811532
0.11975061
0.12123337
0.12258713
0.12383205
0.1249851
0.12606038
0.1270695
0.12802199
0.12892568
0.12978696
0.13061109
0.13140241
0.13216456
0.092670455
0.096421343
0.099977576
0.10329504
0.10634592
0.10911936
0.11162037
0.11386602
0.11588069
0.1176919
0.1193272
0.12081223
0.12216979
0.12341954
0.12457807
0.12565923
0.12667447
0.12763323
0.12854324
0.1294109
0.13024144
0.1310392
0.13180784
0.092545844
0.096230789
0.099728085
0.10299533
0.10600561
0.10874809
0.11122698
0.11345804
0.1154642
0.11727155
0.11890638
0.12039336
0.12175454
0.12300901
0.12417299
0.12526004
0.12628144
0.12724651
0.12816293
0.12903704
0.12987406
0.13067829
0.092434393
0.096052058
0.099489142
0.10270487
0.10567327
0.10838356
0.11083922
0.11305477
0.11505166
0.11685455
0.1184885
0.11997715
0.12134176
0.12260085
0.12377023
0.12486318
0.12589077
0.1268622
0.12778506
0.12866565
0.12950916
0.13031986
0.092335986
0.095884982
0.099260528
0.10242347
0.10534877
0.10802574
0.11045718
0.11265637
0.11464331
0.11644122
0.11807391
0.11956396
0.12093183
0.12219545
0.12337018
0.124469
0.12550279
0.12648059
0.12740992
0.128297
0.12914697
0.12996408
0.092250929
0.09572989
0.099042432
0.10215121
0.10503218
0.10767474
0.110081
0.11226304
0.11423939
0.11603185
0.11766292
0.11915412
0.1205251
0.12179315
0.12297318
0.12407785
0.12511782
0.12610198
0.12703775
0.12793129
0.12878768
0.12961115
0.092178743
0.095586514
0.098834713
0.10188805
0.10472351
0.10733063
0.10971084
0.11187499
0.11384018
0.11562673
0.11725585
0.11874798
0.1201219
0.12139428
0.12257954
0.12369002
0.12473613
0.12572662
0.1266688
0.12756874
0.1284315
0.12926126
0.092117115
0.095452914
0.0986361
0.10163324
0.10442241
0.10699332
0.10934676
0.1114924
0.1134459
0.11522613
0.11685299
0.11834582
0.11972253
0.12099912
0.12218953
0.12330576
0.12435797
0.12535474
0.12630326
0.12720954
0.12807859
0.12891456
0.092066513
0.095329045
0.098446358
0.10138661
0.10412882
0.10666287
0.10898892
0.11111549
0.11305681
0.11483033
0.11645462
0.11794792
0.11932725
0.12060793
0.12180341
0.12292531
0.12398355
0.12498653
0.12594132
0.12685386
0.12772911
0.12857122
0.092026613
0.095215157
0.098265782
0.1011484
0.10384299
0.10633954
0.1086376
0.11074455
0.11267322
0.11443963
0.11606102
0.11755454
0.1189363
0.12022093
0.12142136
0.12254885
0.12361303
0.12462214
0.12558313
0.12650184
0.1273832
0.12823133
0.091996707
0.095110776
0.098094204
0.10091867
0.10356509
0.10602359
0.10829311
0.1103799
0.11229544
0.11405431
0.11567247
0.11716594
0.11854991
0.11983832
0.12104357
0.12217652
0.12324656
0.1242617
0.12522878
0.12615357
0.12704095
0.127895
0.091976255
0.09501553
0.097931476
0.10069747
0.10329534
0.10571532
0.10795577
0.11002188
0.11192378
0.11367468
0.11528923
0.11678232
0.11816827
0.11946026
0.12067017
0.12180846
0.12288423
0.1239053
0.12487837
0.12580914
0.12670241
0.12756228
0.091964649
0.094928927
0.097777382
0.10048483
0.10303392
0.10541502
0.10762594
0.10967086
0.1115586
0.11330104
0.11491155
0.11640392
0.11779154
0.11908689
0.12030127
0.12144474
0.1225261
0.12355299
0.12453194
0.12546857
0.12636764
0.12723319
0.091962089
0.094852034
0.097632917
0.10028155
0.10278149
0.10512324
0.1073041
0.10932724
0.11120026
0.11293369
0.11453969
0.11603094
0.1174199
0.11871832
0.11993695
0.12108542
0.12217223
0.12320478
0.12418949
0.12513187
0.12603661
0.12690774
0.091967241
0.094783543
0.097497456
0.10008744
0.10253812
0.1048402
0.10699053
0.10899134
0.11084904
0.11257291
0.11417388
0.11566355
0.11705347
0.11835465
0.11957727
0.12073052
0.1218226
0.12286068
0.12385102
0.12479901
0.12570931
0.12658588
0.091980672
0.094722815
0.097370035
0.099901842
0.1023035
0.10456586
0.10668536
0.10866337
0.11050521
0.11221894
0.11381433
0.11530192
0.11669237
0.11799595
0.11922227
0.12038007
0.12147722
0.12252065
0.12351646
0.12446994
0.12538567
0.12626758
0.092002353
0.094671085
0.097251937
0.099725717
0.10207835
0.10430078
0.10638904
0.10834373
0.11016908
0.11187205
0.11346125
0.11494622
0.11633673
0.11764231
0.11887198
0.12003406
0.12113604
0.12218464
0.12318576
0.12414459
0.12506561
0.12595273
0.092031855
0.094628259
0.097143415
0.099559488
0.10186311
0.1040454
0.10610201
0.10803279
0.10984101
0.11153252
0.11311489
0.11459663
0.11598666
0.11729379
0.11852644
0.11969247
0.12079904
0.12185259
0.12285885
0.12382286
0.12474905
0.12564124
0.09206932
0.0945943
0.097044496
0.099403312
0.10165807
0.10380005
0.1058246
0.1077309
0.1095213
0.11120065
0.11277546
0.11425333
0.1156423
0.11695047
0.11818568
0.11935531
0.12046617
0.12152443
0.12253562
0.12350466
0.12443586
0.125333
0.092114805
0.09456934
0.096955348
0.09925741
0.1014635
0.10356504
0.10555715
0.10743838
0.10921026
0.11087668
0.11244321
0.11391649
0.11530377
0.11661242
0.11784971
0.11902256
0.12013738
0.12120008
0.12221599
0.12318987
0.12412593
0.12502788
0.092168423
0.094553484
0.096876059
0.099121941
0.10127961
0.10334066
0.10529996
0.10715554
0.10890819
0.1105609
0.11211834
0.1135863
0.11497119
0.11627974
0.1175186
0.11869421
0.11981264
0.12087949
0.12189987
0.12287838
0.12381912
0.12472575
0.092229896
0.094547135
0.096807495
0.098997726
0.1011071
0.10312744
0.10505347
0.10688276
0.1086154
0.11025358
0.11180111
0.11326293
0.11464473
0.11595251
0.11719237
0.11837029
0.11949192
0.12056259
0.12158717
0.12257009
0.12351533
0.12442646
0.092299923
0.094550367
0.096749495
0.098884767
0.10094607
0.10292557
0.10481792
0.10662029
0.10833215
0.10995495
0.11149171
0.11294658
0.11432451
0.11563084
0.11687111
0.1180508
0.11917521
0.12024933
0.1212778
0.12226489
0.12321443
0.12412989
0.092379132
0.094563069
0.09670155
0.098782474
0.10079613
0.10273487
0.10459328
0.10636821
0.10805859
0.1096652
0.11119034
0.11263742
0.11401067
0.11531483
0.11655487
0.11773578
0.11886249
0.11993967
0.12097172
0.12196269
0.1229163
0.1238359
0.09246741
0.09458655
0.096664964
0.098691865
0.10065798
0.10255584
0.10437995
0.10612685
0.10779501
0.1093846
0.11089723
0.11233565
0.11370341
0.11500464
0.11624375
0.1174253
0.1185538
0.1196336
0.12066885
0.12166342
0.12262085
0.12354439
0.092564822
0.094620388
0.096639947
0.098613438
0.1005322
0.10238902
0.1041784
0.10589664
0.10754179
0.10911348
0.11061269
0.11204153
0.11340292
0.11470041
0.11593789
0.11711943
0.11824917
0.11933113
0.12036919
0.12136701
0.12232799
0.12325524
0.092672094
0.09466519
0.096626674
0.098547276
0.10041893
0.10223464
0.10398893
0.1056779
0.10729926
0.10885215
0.110337
0.11175532
0.11310945
0.11440235
0.11563742
0.11681829
0.11794867
0.11903228
0.12007272
0.12107344
0.12203765
0.12296837
0.092789353
0.094721214
0.096625959
0.098494291
0.10031896
0.10209336
0.10381208
0.1054711
0.10706784
0.108601
0.11007051
0.11147733
0.11282325
0.11411069
0.11534254
0.116522
0.11765239
0.1187371
0.11977946
0.12078268
0.1217498
0.12268369
0.092917499
0.094788896
0.096637037
0.098454024
0.10023217
0.10196524
0.10364804
0.10527651
0.10684783
0.10836034
0.10981354
0.11120787
0.1125446
0.11382565
0.11505345
0.11623074
0.11736047
0.11844569
0.11948945
0.12049474
0.1214644
0.12240116
0.093057231
0.094869378
0.0966618
0.098427181
0.10015869
0.10185035
0.10349694
0.10509434
0.1066395
0.1081305
0.10956642
0.11094725
0.11227381
0.11354753
0.11477039
0.1159447
0.11707305
0.11815815
0.11920277
0.12020965
0.12118146
0.12212075
0.093208117
0.094961991
0.096699742
0.098414476
0.10009972
0.10174979
0.1033597
0.10492532
0.10644349
0.10791201
0.10932962
0.11069591
0.11201126
0.11327666
0.11449364
0.11566413
0.11679034
0.11787464
0.11891952
0.11992749
0.120901
0.12184244
0.093371303
0.095067935
0.096751763
0.098416537
0.10005567
0.101664
0.10323678
0.10476996
0.10626028
0.10770535
0.10910361
0.11045429
0.11175736
0.1130134
0.11422355
0.11538932
0.11651256
0.11759535
0.11863986
0.11964835
0.12062309
0.12156628
0.093547698
0.095188032
0.096818371
0.098432753
0.10002604
0.10159266
0.1031281
0.10462836
0.10609015
0.10751089
0.1088888
0.11022281
0.11151253
0.11275817
0.11396047
0.11512058
0.11624002
0.1173205
0.11836396
0.11937239
0.12034782
0.1212923
0.093737192
0.095322167
0.096899927
0.098465007
0.10001237
0.10153707
0.10303471
0.1045014
0.10593382
0.10732929
0.10868581
0.11000205
0.1112773
0.11251144
0.11370484
0.11485832
0.11597303
0.11705041
0.11809207
0.11909978
0.12007535
0.12102063
0.093940379
0.095470906
0.096996788
0.09851306
0.10001513
0.10149788
0.10295736
0.10438982
0.10579203
0.10716123
0.10849528
0.10979262
0.11105225
0.11227375
0.11345717
0.11460298
0.11571201
0.1167854
0.11782448
0.11883077
0.11980585
0.12075139
0.094158291
0.095635382
0.097110084
0.098577716
0.10003385
0.10147467
0.10289576
0.1042936
0.10566497
0.1070071
0.1083177
0.10959506
0.11083796
0.11204569
0.113218
0.11435507
0.11545742
0.11652589
0.11756156
0.11856567
0.11953959
0.12048479
0.094390835
0.095815372
0.097239632
0.098659331
0.10007046
0.10146925
0.10285152
0.10421406
0.10555376
0.10686784
0.10815395
0.1094102
0.11063518
0.11182795
0.11298798
0.11411519
0.1152098
0.11627237
0.11730372
0.11830484
0.11927688
0.12022109
0.094638604
0.096011533
0.097386076
0.098758278
0.10012446
0.1014811
0.10282462
0.10415151
0.10545891
0.10674411
0.10800471
0.10923875
0.11044464
0.11162125
0.11276783
0.11388401
0.11496978
0.11602542
0.11705148
0.11804874
0.1190181
0.11996063
0.094902036
0.096224355
0.097549983
0.098875266
0.10019682
0.10151136
0.10281591
0.10410676
0.10538122
0.10663669
0.10787082
0.10908154
0.11026718
0.11142643
0.11255832
0.11366229
0.11473806
0.11578567
0.11680545
0.1177979
0.11876374
0.11970382
0.095181345
0.096454048
0.097731572
0.099010539
0.10028787
0.10156058
0.10282578
0.10408029
0.10532125
0.10654626
0.107753
0.10893938
0.11010363
0.11124431
0.11236031
0.11345084
0.11451543
0.11555389
0.1165663
0.11755296
0.11851436
0.11945116
0.095476738
0.096700874
0.097931158
0.09916446
0.10039798
0.10162897
0.10285471
0.10407279
0.10527988
0.10647373
0.10765218
0.10881318
0.10995492
0.11107585
0.11217472
0.11325059
0.11430278
0.1153309
0.11633483
0.11731464
0.11827063
0.11920325
0.095788282
0.096964945
0.098148916
0.099337292
0.10052753
0.10171716
0.10290367
0.10408467
0.1052575
0.10641961
0.10756902
0.10870374
0.10982192
0.11092197
0.11200252
0.11306249
0.11410106
0.11511764
0.11611192
0.11708379
0.11803333
0.11896081
0.096115899
0.097246228
0.098384859
0.099529092
0.10067664
0.10182525
0.10297267
0.10411661
0.10525507
0.10638492
0.10750447
0.10861201
0.10970565
0.11078372
0.11184477
0.11288763
0.11391132
0.11491514
0.11589857
0.11686134
0.11780334
0.11872467
0.096459373
0.097544548
0.09863886
0.099739788
0.10084527
0.10195329
0.1030618
0.10416872
0.10527213
0.10637003
0.10745963
0.10853927
0.10960735
0.11066231
0.11170266
0.11272716
0.11373473
0.11472451
0.11569587
0.11664834
0.11758166
0.11849575
0.096818519
0.09785984
0.098910995
0.099969633
0.1010339
0.102102
0.1031721
0.10424227
0.10531063
0.10637557
0.10743446
0.10848551
0.10952731
0.11055828
0.11157696
0.11258201
0.11357229
0.11454684
0.1155049
0.11644588
0.11736936
0.11827508
0.097192781
0.098191566
0.099200744
0.10021811
0.101242
0.10227083
0.10330293
0.10433658
0.10537
0.10640152
0.10742974
0.10845186
0.1094666
0.11047274
0.11146878
0.11245332
0.11342518
0.11438332
0.11532689
0.11625516
0.1171676
0.11806382
0.097581514
0.098539136
0.099507578
0.10048478
0.10146923
0.10245954
0.10345422
0.10445173
0.10545045
0.1064488
0.10744546
0.10843881
0.10942642
0.11040703
0.11137945
0.1123424
0.11329469
0.11423523
0.11516308
0.11607743
0.11697763
0.11786316
0.097984001
0.098901912
0.09983096
0.10076921
0.10171532
0.10266806
0.10362612
0.10458812
0.10555259
0.10651808
0.10748315
0.10844666
0.10940644
0.11036093
0.1113091
0.11224971
0.11318154
0.11410348
0.11501454
0.11591386
0.11680066
0.11767434
0.098399293
0.099278973
0.10017
0.10107056
0.10197945
0.1028956
0.10381784
0.10474494
0.10567561
0.1066085
0.10754225
0.10847563
0.10940761
0.11033567
0.11125888
0.11217634
0.11308685
0.11398925
0.1148825
0.11576568
0.11663797
0.11749867
0.098826346
0.099669311
0.10052374
0.10138792
0.10226079
0.10314139
0.10402872
0.10492167
0.10581909
0.10671976
0.10762246
0.10852596
0.10942931
0.11033146
0.11122975
0.11212341
0.11301175
0.11389368
0.11476814
0.11563415
0.11649084
0.11733743
0.099264053
0.10007186
0.10089115
0.10172034
0.10255847
0.10340471
0.10425818
0.1051179
0.10598284
0.10685193
0.10772405
0.10859806
0.10947284
0.11034761
0.11122111
0.11209105
0.11295669
0.11381744
0.11467229
0.11552023
0.11636035
0.11719181
0.099711189
0.1004854
0.10127105
0.10206667
0.10287139
0.10368449
0.1045052
0.10533265
0.10616594
0.10700411
0.10784616
0.10869104
0.10953772
0.11038521
0.11123287
0.1120792
0.11292219
0.11376121
0.11459573
0.11542481
0.11624749
0.1170629
0.10016649
0.10090868
0.1016622
0.10242569
0.10319836
0.10397961
0.10476874
0.105565
0.10636758
0.10717563
0.10798825
0.10880452
0.10962347
0.11044412
0.11126563
0.1120875
0.11290799
0.11372535
0.11453903
0.11534857
0.11615307
0.11695161
0.10062864
0.10134038
0.10206328
0.1027961
0.10353813
0.10428883
0.10504761
0.1058138
0.10658669
0.10736551
0.10814948
0.10893775
0.10972945
0.11052369
0.11131955
0.11211633
0.11291362
0.11370952
0.11450247
0.11529198
0.11607768
0.11685866
0.10109631
0.10177915
0.10247294
0.10317654
0.10388933
0.10461083
0.10534052
0.10607782
0.1068221
0.10757268
0.10832884
0.10908985
0.1098549
0.1106232
0.11139389
0.11216613
0.11293933
0.11371316
0.11448559
0.11525523
0.11602168
0.11678456
0.10156819
0.10222364
0.10288981
0.10356564
0.10425058
0.10494422
0.10564611
0.10635573
0.10707252
0.10779588
0.10852518
0.10925974
0.10999885
0.11074178
0.11148776
0.11223598
0.11298567
0.11373633
0.11448771
0.11523774
0.11598523
0.11672969
0.10204297
0.10267252
0.1033125
0.10396199
0.10462047
0.1052876
0.10596297
0.10664613
0.10733659
0.10803382
0.10873724
0.10944627
0.11016025
0.11087853
0.11160042
0.11232517
0.11305202
0.11378026
0.11450942
0.11523921
0.11596747
0.11669332
0.1025194
0.10312446
0.10373968
0.1043642
0.10499757
0.1056395
0.10628962
0.10694755
0.10761283
0.10828501
0.10896358
0.10964799
0.11033768
0.11103205
0.11173047
0.11243227
0.11313676
0.1138432
0.11455089
0.11525938
0.11596823
0.11667551
0.10299626
0.10357822
0.10417002
0.10477091
0.10538049
0.10599849
0.1066246
0.10725848
0.10789974
0.10854795
0.10920266
0.1098634
0.11052965
0.11120086
0.11187647
0.11255585
0.1132384
0.11392343
0.11461026
0.11529825
0.11598708
0.11667616
0.10347246
0.10403261
0.10460229
0.10518084
0.10576789
0.10636321
0.10696653
0.10757754
0.10819589
0.10882122
0.10945312
0.11009115
0.11073486
0.11138375
0.11203731
0.11269498
0.11335619
0.11402034
0.1146868
0.11535492
0.1160241
0.11669398
0.10394695
0.10448655
0.10503535
0.10559278
0.10615852
0.10673235
0.10731405
0.10790334
0.10849991
0.10910342
0.10971353
0.11032983
0.11095193
0.11157936
0.11221167
0.11284835
0.11348889
0.11413272
0.11477928
0.11542797
0.11607816
0.11672924
0.1044188
0.10493903
0.10546813
0.10600562
0.10655121
0.10710471
0.10766591
0.10823458
0.10881044
0.10939319
0.10998252
0.11057807
0.11117947
0.11178632
0.1123982
0.11301465
0.11363519
0.11425933
0.11488653
0.11551625
0.11614789
0.11678084
0.10488716
0.10538913
0.10589966
0.10641832
0.10694486
0.10747912
0.10802091
0.10857003
0.10912623
0.10968923
0.11025876
0.11083451
0.11141613
0.11200327
0.11259553
0.11319252
0.11379379
0.11439888
0.11500732
0.11561858
0.11623213
0.1168474
0.10535129
0.10583605
0.10632905
0.10682993
0.10733848
0.10785454
0.10837795
0.10890853
0.10944606
0.1099903
0.11054099
0.11109786
0.11166059
0.11222887
0.11280235
0.11338064
0.11396336
0.11455009
0.11514037
0.11573375
0.11632972
0.11692776
0.10581052
0.10627906
0.10675552
0.10723962
0.10773115
0.10822999
0.108736
0.10924902
0.10976883
0.11029524
0.11082801
0.11136689
0.11191161
0.11246187
0.11301736
0.11357773
0.11414264
0.11471168
0.11528446
0.11586054
0.11643948
0.11702078
0.10626427
0.10671751
0.10717836
0.1076466
0.10812205
0.10860461
0.10909414
0.1095905
0.11009351
0.11060298
0.11111871
0.11164047
0.11216801
0.11270107
0.11323936
0.11378257
0.11433038
0.11488243
0.11543835
0.11599775
0.11656022
0.1171253
0.10671207
0.10715085
0.10759696
0.10805022
0.10851047
0.10897761
0.10945153
0.1099321
0.11041916
0.11091255
0.11141208
0.11191754
0.11242871
0.11294535
0.11346721
0.113994
0.11452542
0.11506116
0.11560088
0.11614421
0.11669079
0.11724019
0.10715348
0.10757861
0.10801079
0.10844988
0.10889574
0.10934829
0.10980742
0.11027302
0.11074495
0.11122306
0.11170718
0.11219712
0.1126927
0.11319368
0.11369985
0.11421093
0.11472667
0.11524677
0.11577093
0.11629881
0.11683008
0.11736435
0.10758817
0.1080004
0.10841941
0.10884509
0.10927733
0.10971604
0.11016115
0.11061255
0.11107011
0.1115337
0.11200317
0.11247835
0.11295907
0.11344512
0.1139363
0.11443238
0.11493311
0.11543823
0.11594745
0.11646049
0.11697702
0.11749671
0.10801586
0.10841588
0.10882242
0.1092354
0.10965473
0.11008034
0.11051215
0.11095007
0.11139398
0.11184377
0.11229931
0.11276043
0.113227
0.11369881
0.11417569
0.11465743
0.1151438
0.11563457
0.11612948
0.11662826
0.11713063
0.11763628
0.10843633
0.10882478
0.10921951
0.10962046
0.11002755
0.11044073
0.11085991
0.11128503
0.11171597
0.11215264
0.11259492
0.11304267
0.11349574
0.11395397
0.1144172
0.11488524
0.11535788
0.11583491
0.1163161
0.1168012
0.11728997
0.11778211
0.10884942
0.10922691
0.10961043
0.10999997
0.11039545
0.11079682
0.11120401
0.11161696
0.11203558
0.11245976
0.11288942
0.11332442
0.11376463
0.11420992
0.11466012
0.11511506
0.11557457
0.11603845
0.1165065
0.11697848
0.11745418
0.11793333
0.10925501
0.10962209
0.10999499
0.11037369
0.11075814
0.11114828
0.11154408
0.11194546
0.11235235
0.11276465
0.11318229
0.11360514
0.11403309
0.11446602
0.11490378
0.11534621
0.11579317
0.11624446
0.11669991
0.11715931
0.11762246
0.11808913
0.10965304
0.11001023
0.11037302
0.11074143
0.11111539
0.11149487
0.11187982
0.11227019
0.11266591
0.1130669
0.11347308
0.11388435
0.11430061
0.11472173
0.11514761
0.11557809
0.11601303
0.11645228
0.11689566
0.11734299
0.11779409
0.11824876
0.11004346
0.11039126
0.11074444
0.11110305
0.11146703
0.11183636
0.11221099
0.11259087
0.11297595
0.11336615
0.11376141
0.11416163
0.11456672
0.11497658
0.1153911
0.11581015
0.1162336
0.1166613
0.11709311
0.11752886
0.1179684
0.11841153
0.1104263
0.11076514
0.11110918
0.11145846
0.11181294
0.11217259
0.11253739
0.11290727
0.11328221
0.11366212
0.11404695
0.11443662
0.11483105
0.11523015
0.1156338
0.11604191
0.11645436
0.11687101
0.11729173
0.11771637
0.11814479
0.11857683
0.11080158
0.11113189
0.11146721
0.1118076
0.11215302
0.11250345
0.11285886
0.11321921
0.11358446
0.11395456
0.11432943
0.11470903
0.11509327
0.11548207
0.11587534
0.11627298
0.11667488
0.11708094
0.11749102
0.11790499
0.11832274
0.11874411
0.11116936
0.11149154
0.11181854
0.11215045
0.11248723
0.11282885
0.11317531
0.11352656
0.11388256
0.11424327
0.11460863
0.1149786
0.11535309
0.11573204
0.11611536
0.11650297
0.11689478
0.11729067
0.11769055
0.11809428
0.11850177
0.11891287
0.11152975
0.11184415
0.11216322
0.11248702
0.11281554
0.11314876
0.11348666
0.1138292
0.11417636
0.1145281
0.11488437
0.11524512
0.11561028
0.1159798
0.1163536
0.1167316
0.11711372
0.11749987
0.11788994
0.11828383
0.11868145
0.11908268
0.11188285
0.11218982
0.1125013
0.11281736
0.11313798
0.11346316
0.11379287
0.11412709
0.1144658
0.11480895
0.11515651
0.11550843
0.11586466
0.11622514
0.11658981
0.1169586
0.11733142
0.11770821
0.11808887
0.1184733
0.11886143
0.11925315
0.11222879
0.11252865
0.11283286
0.11314151
0.11345458
0.11377206
0.11409394
0.11442019
0.1147508
0.11508573
0.11542495
0.11576841
0.11611608
0.11646789
0.1168238
0.11718374
0.11754765
0.11791544
0.11828705
0.11866239
0.11904138
0.11942393
0.11256774
0.11286078
0.11315803
0.11345958
0.11376541
0.11407552
0.11438989
0.1147085
0.11503135
0.1153584
0.11568961
0.11602497
0.11636441
0.11670791
0.11705541
0.11740686
0.11776219
0.11812134
0.11848424
0.11885082
0.11922101
0.11959473
0.11289984
0.11318635
0.11347693
0.11377167
0.11407056
0.11437359
0.11468076
0.11499205
0.11530745
0.11562693
0.11595047
0.11627803
0.11660959
0.1169451
0.11728452
0.1176278
0.11797488
0.11832572
0.11868024
0.11903838
0.11940009
0.11976529
0.11322529
0.11350552
0.1137897
0.1140779
0.11437012
0.11466636
0.11496662
0.11527087
0.11557912
0.11589133
0.1162075
0.11652758
0.11685155
0.11717938
0.11751103
0.11784645
0.1181856
0.11852842
0.11887487
0.11922488
0.11957841
0.11993538
0.11354427
0.11381847
0.11409648
0.1143784
0.11466422
0.11495393
0.11524754
0.11554504
0.11584641
0.11615164
0.11646071
0.11677359
0.11709027
0.11741071
0.11773488
0.11806273
0.11839424
0.11872934
0.11906801
0.11941017
0.1197558
0.12010484
0.11385697
0.11412537
0.11439746
0.11467334
0.11495299
0.11523642
0.11552364
0.11581463
0.11610938
0.11640789
0.11671013
0.11701609
0.11732574
0.11763906
0.11795602
0.11827658
0.11860072
0.11892838
0.11925953
0.11959413
0.11993213
0.12027349
0.11416361
0.11442641
0.1146928
0.11496285
0.11523657
0.11551396
0.11579501
0.11607974
0.11636812
0.11666015
0.11695581
0.11725509
0.11755797
0.11786443
0.11817444
0.11848797
0.11880499
0.11912547
0.11944937
0.11977665
0.12010728
0.12044122
0.11446439
0.11472179
0.11498268
0.11524712
0.11551511
0.11578667
0.11606179
0.11634047
0.1166227
0.11690849
0.11719781
0.11749065
0.117787
0.11808683
0.11839013
0.11869688
0.11900703
0.11932057
0.11963746
0.11995766
0.12028116
0.12060792
0.11475951
0.11501171
0.11526729
0.11552631
0.11578878
0.11605471
0.11632409
0.11659694
0.11687325
0.117153
0.11743619
0.11772282
0.11801286
0.1183063
0.11860312
0.11890331
0.11920682
0.11951365
0.11982376
0.12013712
0.12045371
0.12077351
0.1150492
0.11529637
0.11554681
0.11580059
0.11605772
0.11631822
0.11658207
0.11684928
0.11711986
0.11739378
0.11767106
0.11795168
0.11823562
0.11852288
0.11881344
0.11910727
0.11940437
0.11970471
0.12000825
0.12031498
0.12062489
0.12093794
0.11533366
0.11557596
0.11582143
0.11607015
0.11632212
0.11657735
0.11683585
0.11709762
0.11736265
0.11763094
0.11790249
0.1181773
0.11845534
0.11873662
0.11902112
0.11930881
0.11959969
0.11989374
0.12019093
0.12049124
0.12079466
0.12110118
0.1156131
0.11585069
0.11609135
0.11633516
0.11658214
0.11683228
0.11708559
0.11734208
0.11760175
0.11786459
0.1181306
0.11839978
0.11867211
0.11894759
0.11922622
0.11950797
0.11979282
0.12008078
0.1203718
0.12066588
0.12096302
0.12126318
0.11588774
0.11612075
0.11635675
0.11659581
0.11683794
0.11708315
0.11733144
0.11758282
0.11783729
0.11809484
0.11835548
0.11861921
0.11888601
0.11915588
0.11942881
0.11970479
0.1199838
0.12026585
0.12055089
0.12083893
0.12112996
0.12142396
0.11615779
0.11638636
0.11661783
0.11685228
0.11708971
0.11733013
0.11757355
0.11781997
0.11806939
0.11832182
0.11857726
0.11883569
0.11909712
0.11936155
0.11962895
0.11989934
0.12017269
0.12044899
0.12072823
0.1210104
0.1212955
0.12158351
0.11642344
0.1166477
0.11687477
0.11710474
0.11733761
0.11757338
0.11781207
0.11805368
0.11829821
0.11854566
0.11879604
0.11904934
0.11930556
0.11956469
0.11982674
0.12009169
0.12035953
0.12063026
0.12090387
0.12118033
0.12145966
0.12174185
0.1166849
0.11690497
0.11712777
0.11735338
0.11758181
0.11781307
0.11804716
0.11828409
0.11852386
0.11876648
0.11901195
0.11926026
0.11951142
0.11976541
0.12002225
0.12028192
0.12054441
0.12080972
0.12107784
0.12134876
0.12162248
0.12189901
0.11694238
0.11715836
0.117377
0.11759838
0.11782249
0.11804935
0.11827897
0.11851135
0.1187465
0.11898442
0.11922511
0.11946857
0.1197148
0.11996381
0.12021558
0.12047011
0.1207274
0.12098744
0.12125022
0.12151574
0.12178401
0.12205502
0.11719606
0.11740806
0.11762265
0.1178399
0.11805981
0.1182824
0.11850766
0.11873562
0.11896626
0.11919961
0.11943565
0.11967439
0.11991583
0.12015997
0.12040681
0.12065634
0.12090857
0.12116348
0.12142107
0.12168133
0.12194429
0.12220992
0.11744615
0.11765427
0.11786491
0.11807813
0.11829395
0.11851236
0.11873339
0.11895703
0.11918329
0.11941218
0.11964369
0.11987784
0.12011461
0.12035402
0.12059606
0.12084072
0.12108801
0.12133793
0.12159046
0.1218456
0.12210337
0.12236377
0.11769284
0.11789717
0.11810396
0.11831325
0.11852507
0.11873942
0.11895631
0.11917574
0.11939773
0.11962227
0.11984937
0.12007903
0.12031126
0.12054605
0.12078341
0.12102333
0.12126582
0.12151086
0.12175846
0.12200861
0.12226134
0.12251663
0.11793632
0.11813695
0.11833997
0.11854543
0.11875334
0.11896372
0.11917657
0.1193919
0.11960972
0.11983002
0.12005282
0.12027811
0.1205059
0.12073619
0.12096899
0.12120428
0.12144208
0.12168237
0.12192516
0.12217044
0.12241824
0.12266855
0.11817678
0.11837379
0.11857312
0.11877483
0.11897893
0.11918543
0.11939434
0.11960566
0.1198194
0.12003557
0.12025416
0.12047519
0.12069865
0.12092455
0.12115289
0.12138367
0.12161688
0.12185254
0.12209064
0.12233117
0.12257416
0.1228196
0.1184144
0.11860786
0.11880359
0.11900164
0.11920201
0.11940472
0.11960977
0.11981717
0.12002693
0.12023905
0.12045354
0.1206704
0.12088963
0.12111124
0.12133523
0.1215616
0.12179035
0.12202148
0.12225499
0.12249088
0.12272917
0.12296987
0.11864937
0.11883937
0.11903156
0.11922602
0.11942274
0.11962173
0.11982301
0.12002658
0.12023244
0.12044061
0.12065109
0.12086387
0.12107897
0.12129639
0.12151612
0.12173818
0.12196256
0.12218927
0.1224183
0.12264965
0.12288336
0.12311941
0.11888188
0.11906847
0.1192572
0.11944814
0.11964128
0.11983664
0.12003423
0.12023404
0.12043609
0.12064039
0.12084694
0.12105574
0.12126679
0.12148011
0.12169568
0.12191353
0.12213364
0.12235602
0.12258067
0.12280759
0.12303681
0.12326832
0.1191121
0.11929535
0.11948069
0.11966818
0.11985781
0.12004961
0.12024357
0.12043971
0.12063803
0.12083853
0.12104123
0.12124613
0.12145323
0.12166253
0.12187403
0.12208775
0.12230369
0.12252184
0.1227422
0.12296478
0.12318961
0.12341669
0.11934023
0.1195202
0.1197022
0.1198863
0.12007249
0.12026079
0.1204512
0.12064373
0.12083839
0.12103518
0.12123411
0.12143518
0.1216384
0.12184377
0.12205129
0.12226098
0.12247282
0.12268682
0.12290299
0.12312133
0.12334186
0.12356459
0.11956643
0.11974318
0.11992191
0.12010267
0.12028548
0.12047035
0.12065727
0.12084627
0.12103733
0.12123048
0.12142571
0.12162304
0.12182245
0.12202397
0.12222759
0.12243331
0.12264114
0.12285109
0.12306315
0.12327733
0.12349365
0.12371212
0.1197909
0.11996447
0.12013998
0.12031747
0.12049696
0.12067845
0.12086195
0.12104747
0.12123501
0.12142458
0.12161618
0.12180983
0.12200551
0.12220325
0.12240304
0.12260488
0.12280878
0.12301475
0.12322278
0.12343288
0.12364508
0.12385938
0.12001381
0.12018425
0.12035659
0.12053086
0.12070708
0.12088525
0.12106539
0.12124749
0.12143156
0.12161762
0.12180566
0.12199569
0.12218772
0.12238174
0.12257777
0.12277581
0.12297586
0.12317792
0.123382
0.12358811
0.12379626
0.12400646
0.12023534
0.1204027
0.12057191
0.12074302
0.12091602
0.12109092
0.12126775
0.12144649
0.12162716
0.12180976
0.1219943
0.12218078
0.12236921
0.12255959
0.12275193
0.12294622
0.12314249
0.12334072
0.12354092
0.1237431
0.12394729
0.12415348
0.12045567
0.12062
0.12078613
0.12095411
0.12112394
0.12129563
0.12146919
0.12164462
0.12182194
0.12200114
0.12218223
0.12236523
0.12255012
0.12273692
0.12292563
0.12311625
0.1233088
0.12350327
0.12369966
0.12389799
0.12409828
0.12430053
0.12067499
0.12083632
0.12099941
0.1211643
0.12133101
0.12149953
0.12166988
0.12184205
0.12201607
0.12219192
0.12236962
0.12254918
0.12273059
0.12291387
0.12309901
0.12328603
0.12347492
0.12366569
0.12385834
0.12405289
0.12424934
0.12444773
0.12089347
0.12105184
0.12121193
0.12137378
0.1215374
0.1217028
0.12186997
0.12203894
0.1222097
0.12238225
0.12255662
0.12273279
0.12291078
0.12309058
0.12327222
0.12345568
0.12364097
0.1238281
0.12401708
0.1242079
0.1244006
0.12459518
0.12111129
0.12126674
0.12142386
0.12158271
0.12174329
0.12190559
0.12206964
0.12223544
0.12240299
0.12257229
0.12274336
0.1229162
0.12309081
0.1232672
0.12344538
0.12362534
0.1238071
0.12399065
0.124176
0.12436316
0.12455216
0.12474299
0.12132864
0.12148119
0.12163539
0.12179126
0.12194883
0.12210809
0.12226905
0.12243171
0.12259609
0.12276219
0.12293001
0.12309956
0.12327085
0.12344387
0.12361864
0.12379515
0.12397342
0.12415345
0.12433524
0.12451879
0.12470414
0.12489129
0.12154569
0.12169538
0.12184668
0.12199961
0.1221542
0.12231045
0.12246835
0.12262793
0.12278918
0.12295211
0.12311673
0.12328303
0.12345103
0.12362073
0.12379214
0.12396525
0.12414009
0.12431664
0.12449491
0.12467492
0.12485668
0.1250402
0.12176262
0.12190948
0.1220579
0.12220793
0.12235958
0.12251284
0.12266773
0.12282425
0.1229824
0.1231422
0.12330365
0.12346675
0.12363151
0.12379793
0.12396602
0.12413578
0.12430722
0.12448034
0.12465515
0.12483166
0.12500988
0.12518982
0.12197962
0.12212367
0.12226924
0.12241639
0.12256512
0.12271543
0.12286733
0.12302082
0.12317592
0.12333262
0.12349094
0.12365087