/*--------------------------------*- C++ -*----------------------------------*\
| =========                 |                                                 |
| \\      /  F ield         | OpenFOAM: The Open Source CFD Toolbox           |
|  \\    /   O peration     | Version:  2406                                  |
|   \\  /    A nd           | Website:  www.openfoam.com                      |
|    \\/     M anipulation  |                                                 |
\*---------------------------------------------------------------------------*/
FoamFile
{
    version     2.0;
    format      ascii;
    arch        "LSB;label=32;scalar=64";
    class       volScalarField;
    location    "0.011";
    object      pMean;
}
// * * * * * * * * * * * * * * * * * * * * * * * * * * * * * * * * * * * * * //

dimensions      [1 -1 -2 0 0 0 0];

internalField   nonuniform List<scalar> 
23203
(
100238.48
100246.98
100255.83
100264.57
100273.55
100282.9
100292.58
100302.62
100312.99
100323.66
100334.62
100345.9
100357.48
100369.27
100381.25
100393.43
100405.81
100418.38
100431.09
100443.93
100456.92
100470.09
100483.42
100260.56
100268.74
100277.33
100285.83
100294.56
100303.61
100312.93
100322.57
100332.54
100342.8
100353.37
100364.24
100375.35
100386.71
100398.26
100410
100421.95
100434.08
100446.35
100458.79
100471.37
100484.13
100497.06
100282.61
100290.43
100298.79
100307.06
100315.53
100324.28
100333.3
100342.62
100352.2
100362.06
100372.22
100382.67
100393.35
100404.28
100415.4
100426.71
100438.22
100449.91
100461.78
100473.79
100485.98
100498.35
100510.88
100304.51
100312.01
100320.14
100328.22
100336.46
100344.92
100353.66
100362.65
100371.86
100381.34
100391.1
100401.13
100411.4
100421.9
100432.6
100443.49
100454.57
100465.84
100477.29
100488.9
100500.69
100512.67
100524.81
100326.23
100333.41
100341.34
100349.25
100357.28
100365.48
100373.91
100382.57
100391.45
100400.59
100409.98
100419.6
100429.46
100439.56
100449.85
100460.32
100470.98
100481.84
100492.88
100504.09
100515.5
100527.1
100347.73
100354.59
100362.32
100370.06
100377.9
100385.87
100394.05
100402.4
100410.96
100419.75
100428.78
100438.02
100447.49
100457.19
100467.09
100477.16
100487.42
100497.88
100508.52
100519.35
100530.37
100541.58
100368.95
100375.5
100383.04
100390.65
100398.29
100406.08
100414.02
100422.08
100430.34
100438.81
100447.48
100456.36
100465.47
100474.78
100484.31
100493.99
100503.86
100513.93
100524.18
100534.64
100545.28
100556.11
100389.85
100396.09
100403.47
100410.95
100418.44
100426.03
100433.73
100441.55
100449.53
100457.71
100466.05
100474.59
100483.34
100492.29
100501.45
100510.77
100520.26
100529.96
100539.84
100549.92
100560.19
100570.64
100410.39
100416.32
100423.55
100430.93
100438.29
100445.7
100453.19
100460.78
100468.51
100476.4
100484.45
100492.66
100501.07
100509.68
100518.5
100527.47
100536.61
100545.94
100555.46
100565.17
100575.09
100585.16
100430.48
100436.15
100443.22
100450.52
100457.77
100465.04
100472.34
100479.75
100487.26
100494.87
100502.63
100510.56
100518.66
100526.94
100535.42
100544.05
100552.86
100561.84
100571.01
100580.37
100589.93
100599.65
100450.17
100455.55
100462.5
100469.73
100476.9
100484.04
100491.19
100498.4
100505.69
100513.07
100520.57
100528.22
100536.03
100544.01
100552.17
100560.5
100568.98
100577.63
100586.47
100595.49
100604.71
100614.09
100469.36
100474.47
100481.34
100488.52
100495.61
100502.64
100509.66
100516.7
100523.8
100530.97
100538.25
100545.64
100553.19
100560.88
100568.75
100576.78
100584.96
100593.29
100601.82
100610.51
100619.41
100628.45
100488.09
100492.89
100499.67
100506.87
100513.9
100520.83
100527.74
100534.66
100541.59
100548.56
100555.62
100562.79
100570.09
100577.52
100585.11
100592.87
100600.76
100608.8
100617.02
100625.41
100633.98
100642.72
100506.42
100510.77
100517.43
100524.66
100531.72
100538.58
100545.41
100552.21
100559
100565.8
100572.68
100579.64
100586.71
100593.9
100601.24
100608.72
100616.36
100624.13
100632.06
100640.16
100648.43
100656.87
100524.17
100528.23
100534.78
100541.98
100549.04
100555.92
100562.66
100569.34
100576.01
100582.68
100589.39
100596.17
100603.04
100610.01
100617.11
100624.35
100631.73
100639.25
100646.9
100654.73
100662.73
100670.87
100541.52
100545.25
100551.58
100558.78
100565.83
100572.71
100579.44
100586.06
100592.62
100599.17
100605.74
100612.35
100619.04
100625.81
100632.7
100639.71
100646.86
100654.15
100661.55
100669.11
100676.84
100684.71
100558.25
100561.7
100567.97
100575.14
100582.18
100589.02
100595.74
100602.35
100608.84
100615.27
100621.71
100628.18
100634.71
100641.31
100647.99
100654.79
100661.72
100668.78
100675.97
100683.29
100690.76
100698.37
100574.47
100577.69
100583.85
100591
100598.03
100604.86
100611.54
100618.11
100624.59
100630.96
100637.29
100643.64
100650.02
100656.46
100662.97
100669.58
100676.3
100683.16
100690.13
100697.22
100704.46
100711.82
100590.14
100593.1
100599.22
100606.39
100613.43
100620.22
100626.88
100633.43
100639.86
100646.21
100652.47
100658.7
100664.96
100671.26
100677.62
100684.06
100690.59
100697.24
100704.02
100710.91
100717.93
100725.06
100605.27
100607.98
100614.07
100621.27
100628.32
100635.15
100641.78
100648.28
100654.68
100660.98
100667.21
100673.38
100679.53
100685.69
100691.92
100698.21
100704.57
100711.03
100717.61
100724.31
100731.14
100738.05
100619.87
100622.33
100628.39
100635.65
100642.71
100649.52
100656.19
100662.69
100669.06
100675.32
100681.49
100687.61
100693.69
100699.75
100705.85
100712
100718.22
100724.51
100730.91
100737.43
100744.06
100750.78
100633.94
100636.17
100642.18
100649.5
100656.61
100663.45
100670.12
100676.64
100682.99
100689.21
100695.34
100701.41
100707.43
100713.43
100719.42
100725.44
100731.52
100737.67
100743.9
100750.24
100756.69
100763.23
100647.49
100649.49
100655.45
100662.83
100670
100676.85
100683.55
100690.09
100696.45
100702.66
100708.75
100714.78
100720.75
100726.68
100732.59
100738.51
100744.47
100750.47
100756.56
100762.74
100769.02
100775.39
100660.51
100662.29
100668.23
100675.64
100682.87
100689.78
100696.5
100703.07
100709.47
100715.68
100721.73
100727.71
100733.63
100739.51
100745.35
100751.19
100757.04
100762.93
100768.87
100774.91
100781.03
100787.23
100673.02
100674.61
100680.51
100687.98
100695.26
100702.21
100708.96
100715.54
100721.98
100728.22
100734.28
100740.22
100746.08
100751.91
100757.69
100763.46
100769.23
100775.01
100780.83
100786.72
100792.69
100798.73
100685.03
100686.45
100692.32
100699.81
100707.14
100714.15
100720.94
100727.56
100734
100740.29
100746.36
100752.29
100758.12
100763.87
100769.61
100775.31
100781
100786.7
100792.42
100798.18
100804.02
100809.92
100696.55
100697.85
100703.69
100711.2
100718.55
100725.59
100732.42
100739.09
100745.57
100751.85
100757.96
100763.9
100769.71
100775.42
100781.09
100786.75
100792.36
100797.98
100803.61
100809.27
100814.98
100820.74
100707.59
100708.8
100714.64
100722.13
100729.48
100736.53
100743.41
100750.11
100756.63
100762.94
100769.09
100775.06
100780.85
100786.55
100792.16
100797.74
100803.3
100808.85
100814.4
100819.97
100825.57
100831.21
100718.1
100719.26
100725.1
100732.57
100739.91
100746.97
100753.88
100760.62
100767.17
100773.54
100779.71
100785.71
100791.53
100797.21
100802.79
100808.32
100813.81
100819.31
100824.78
100830.26
100835.78
100841.3
100728.08
100729.2
100735.04
100742.49
100749.82
100756.9
100763.83
100770.61
100777.21
100783.63
100789.84
100795.86
100801.73
100807.43
100812.98
100818.46
100823.89
100829.32
100834.74
100840.15
100845.57
100851
100737.52
100738.59
100744.44
100751.87
100759.18
100766.26
100773.21
100780.05
100786.71
100793.18
100799.45
100805.52
100811.39
100817.13
100822.71
100828.17
100833.57
100838.91
100844.26
100849.62
100854.95
100860.3
100746.43
100747.45
100753.29
100760.71
100768
100775.08
100782.06
100788.95
100795.66
100802.18
100808.52
100814.65
100820.59
100826.34
100831.95
100837.42
100842.79
100848.1
100853.37
100858.65
100863.94
100869.2
100754.8
100755.75
100761.59
100768.99
100776.28
100783.36
100790.36
100797.27
100804.05
100810.65
100817.05
100823.25
100829.26
100835.06
100840.69
100846.19
100851.56
100856.83
100862.06
100867.28
100872.5
100877.69
100762.66
100763.56
100769.36
100776.74
100784.01
100791.1
100798.11
100805.06
100811.89
100818.55
100825.03
100831.31
100837.39
100843.27
100848.95
100854.47
100859.86
100865.13
100870.33
100875.48
100880.63
100885.78
100770.07
100770.88
100776.66
100783.97
100791.21
100798.29
100805.32
100812.29
100819.16
100825.88
100832.45
100838.82
100844.98
100850.94
100856.7
100862.25
100867.67
100872.96
100878.15
100883.28
100888.36
100893.44
100776.99
100777.7
100783.43
100790.71
100797.92
100804.96
100811.97
100818.96
100825.87
100832.66
100839.3
100845.75
100852.01
100858.06
100863.91
100869.56
100875.01
100880.32
100885.53
100890.62
100895.67
100900.7
100783.45
100784.1
100789.79
100796.98
100804.11
100811.11
100818.1
100825.09
100832.02
100838.86
100845.57
100852.12
100858.48
100864.64
100870.57
100876.31
100881.84
100887.2
100892.42
100897.54
100902.58
100907.55
100789.55
100790.08
100795.64
100802.75
100809.81
100816.75
100823.71
100830.69
100837.64
100844.51
100851.28
100857.91
100864.37
100870.63
100876.69
100882.53
100888.17
100893.6
100898.86
100904.01
100909.05
100914.02
100795.16
100795.58
100801.07
100808.09
100815.04
100821.92
100828.85
100835.8
100842.74
100849.63
100856.43
100863.14
100869.69
100876.06
100882.24
100888.2
100893.95
100899.49
100904.84
100910.02
100915.09
100920.05
100800.44
100800.77
100806.12
100812.98
100819.84
100826.64
100833.49
100840.39
100847.31
100854.21
100861.05
100867.8
100874.44
100880.92
100887.22
100893.31
100899.19
100904.85
100910.31
100915.57
100920.68
100925.67
100805.32
100805.53
100810.74
100817.49
100824.24
100830.93
100837.7
100844.54
100851.43
100858.31
100865.16
100871.94
100878.65
100885.22
100891.62
100897.86
100903.87
100909.67
100915.26
100920.63
100925.81
100930.86
100809.9
100809.99
100815.09
100821.65
100828.22
100834.81
100841.47
100848.26
100855.1
100861.95
100868.78
100875.58
100882.32
100888.97
100895.48
100901.83
100907.99
100913.94
100919.68
100925.2
100930.5
100935.62
100814.18
100814.1
100819.06
100825.49
100831.92
100838.38
100844.93
100851.59
100858.35
100865.14
100871.95
100878.76
100885.51
100892.21
100898.8
100905.26
100911.55
100917.65
100923.54
100929.22
100934.69
100939.93
100818.19
100817.98
100822.77
100829.05
100835.29
100841.57
100848
100854.55
100861.22
100867.98
100874.73
100881.5
100888.26
100894.97
100901.62
100908.17
100914.58
100920.82
100926.87
100932.72
100938.35
100943.75
100821.98
100821.61
100826.24
100832.34
100838.46
100844.54
100850.78
100857.22
100863.78
100870.42
100877.12
100883.85
100890.58
100897.3
100903.97
100910.59
100917.09
100923.45
100929.65
100935.65
100941.47
100947.07
100825.57
100825.03
100829.46
100835.39
100841.33
100847.26
100853.35
100859.63
100866.02
100872.54
100879.17
100885.83
100892.53
100899.23
100905.92
100912.56
100919.13
100925.6
100931.93
100938.1
100944.08
100949.86
100828.98
100828.27
100832.51
100838.23
100843.99
100849.77
100855.64
100861.73
100868.01
100874.42
100880.97
100887.54
100894.16
100900.83
100907.49
100914.14
100920.74
100927.28
100933.72
100940.01
100946.15
100952.13
100832.26
100831.39
100835.41
100840.94
100846.51
100852.12
100857.86
100863.76
100869.84
100876.06
100882.42
100888.93
100895.5
100902.1
100908.73
100915.36
100921.98
100928.56
100935.07
100941.49
100947.77
100953.9
100835.42
100834.36
100838.18
100843.49
100848.85
100854.26
100859.83
100865.56
100871.44
100877.51
100883.77
100890.16
100896.63
100903.14
100909.71
100916.31
100922.91
100929.5
100936.06
100942.55
100948.94
100955.21
100838.5
100837.28
100840.87
100845.97
100851.14
100856.34
100861.73
100867.3
100873.02
100878.91
100884.95
100891.12
100897.48
100903.94
100910.43
100916.98
100923.56
100930.14
100936.7
100943.25
100949.73
100956.12
100841.53
100840.13
100843.49
100848.36
100853.32
100858.31
100863.49
100868.88
100874.42
100880.1
100885.96
100892.05
100898.28
100904.59
100911
100917.46
100923.98
100930.52
100937.08
100943.64
100950.17
100956.65
100844.53
100842.95
100846.08
100850.74
100855.48
100860.27
100865.24
100870.44
100875.81
100881.36
100887.02
100892.85
100898.87
100905.07
100911.38
100917.77
100924.21
100930.71
100937.24
100943.78
100950.33
100956.86
100847.52
100845.75
100848.65
100853.1
100857.61
100862.19
100866.96
100871.93
100877.12
100882.47
100887.97
100893.62
100899.5
100905.52
100911.65
100917.94
100924.31
100930.74
100937.21
100943.72
100950.25
100956.8
100850.52
100848.57
100851.24
100855.46
100859.76
100864.13
100868.68
100873.45
100878.43
100883.61
100888.94
100894.41
100900.03
100905.89
100911.9
100918.02
100924.3
100930.65
100937.05
100943.51
100950
100956.55
100853.56
100851.41
100853.85
100857.86
100861.95
100866.09
100870.44
100875
100879.76
100884.74
100889.89
100895.21
100900.66
100906.3
100912.14
100918.09
100924.18
100930.45
100936.79
100943.17
100949.61
100956.12
100856.66
100854.31
100856.52
100860.31
100864.19
100868.12
100872.25
100876.6
100881.15
100885.92
100890.87
100896
100901.29
100906.69
100912.36
100918.24
100924.15
100930.21
100936.46
100942.77
100949.14
100955.59
100859.84
100857.28
100859.25
100862.84
100866.52
100870.24
100874.15
100878.29
100882.63
100887.18
100891.92
100896.87
100901.99
100907.27
100912.65
100918.3
100924.14
100930.02
100936.08
100942.3
100948.6
100954.98
100863.11
100860.35
100862.09
100865.45
100868.93
100872.45
100876.15
100880.08
100884.21
100888.54
100893.08
100897.81
100902.74
100907.83
100913.06
100918.47
100924.14
100929.94
100935.8
100941.83
100948.02
100954.33
100866.49
100863.54
100865.02
100868.18
100871.46
100874.77
100878.27
100881.99
100885.9
100890.03
100894.36
100898.89
100903.61
100908.53
100913.61
100918.82
100924.21
100929.83
100935.58
100941.42
100947.44
100953.66
100870
100866.83
100868.08
100871.03
100874.11
100877.22
100880.52
100884.02
100887.74
100891.66
100895.78
100900.09
100904.6
100909.31
100914.19
100919.22
100924.43
100929.85
100935.47
100941.17
100946.97
100953.01
100873.64
100870.27
100871.27
100874.02
100876.92
100879.84
100882.93
100886.23
100889.74
100893.45
100897.36
100901.46
100905.76
100910.26
100914.94
100919.81
100924.82
100929.98
100935.39
100940.99
100946.65
100952.48
100877.42
100873.85
100874.63
100877.18
100879.89
100882.62
100885.51
100888.61
100891.91
100895.42
100899.1
100903
100907.09
100911.37
100915.85
100920.51
100925.34
100930.34
100935.5
100940.87
100946.43
100952.1
100881.34
100877.59
100878.15
100880.51
100883.04
100885.58
100888.27
100891.18
100894.27
100897.56
100901.06
100904.74
100908.61
100912.69
100916.94
100921.41
100926.04
100930.83
100935.79
100940.93
100946.28
100951.84
100885.4
100881.49
100881.85
100884.03
100886.37
100888.73
100891.23
100893.93
100896.82
100899.91
100903.19
100906.66
100910.33
100914.18
100918.24
100922.47
100926.9
100931.5
100936.27
100941.21
100946.33
100951.68
100889.6
100885.56
100885.71
100887.71
100889.89
100892.05
100894.37
100896.88
100899.58
100902.46
100905.54
100908.8
100912.25
100915.9
100919.74
100923.76
100927.98
100932.38
100936.93
100941.67
100946.57
100951.7
100893.95
100889.78
100889.75
100891.58
100893.58
100895.58
100897.71
100900.03
100902.53
100905.22
100908.09
100911.15
100914.4
100917.82
100921.45
100925.26
100929.26
100933.45
100937.8
100942.33
100947.03
100951.93
100898.45
100894.18
100893.97
100895.63
100897.46
100899.29
100901.24
100903.37
100905.69
100908.19
100910.86
100913.71
100916.75
100919.97
100923.39
100926.98
100930.76
100934.74
100938.88
100943.18
100947.68
100952.4
100903.1
100898.75
100898.38
100899.88
100901.55
100903.2
100904.97
100906.93
100909.05
100911.36
100913.83
100916.49
100919.33
100922.34
100925.54
100928.93
100932.49
100936.24
100940.18
100944.28
100948.55
100953.05
100907.88
100903.48
100902.97
100904.31
100905.81
100907.29
100908.9
100910.68
100912.62
100914.73
100917.02
100919.48
100922.11
100924.93
100927.92
100931.09
100934.45
100937.98
100941.7
100945.59
100949.64
100953.93
100912.79
100908.37
100907.72
100908.9
100910.25
100911.56
100913.01
100914.61
100916.37
100918.3
100920.4
100922.67
100925.11
100927.72
100930.51
100933.48
100936.62
100939.95
100943.46
100947.13
100950.98
100955.04
100917.83
100913.39
100912.62
100913.65
100914.85
100916.02
100917.28
100918.73
100920.32
100922.08
100923.99
100926.07
100928.31
100930.73
100933.32
100936.08
100939.03
100942.14
100945.43
100948.89
100952.52
100956.38
100922.97
100918.54
100917.66
100918.56
100919.6
100920.62
100921.74
100923.01
100924.44
100926.02
100927.76
100929.66
100931.72
100933.95
100936.34
100938.9
100941.65
100944.56
100947.64
100950.89
100954.31
100957.96
100928.22
100923.8
100922.83
100923.59
100924.49
100925.36
100926.33
100927.46
100928.73
100930.14
100931.71
100933.44
100935.31
100937.36
100939.56
100941.94
100944.47
100947.19
100950.06
100953.11
100956.32
100959.77
100933.56
100929.17
100928.12
100928.75
100929.52
100930.25
100931.08
100932.05
100933.17
100934.43
100935.83
100937.39
100939.09
100940.95
100942.98
100945.16
100947.51
100950.03
100952.7
100955.55
100958.56
100961.8
100939
100934.64
100933.51
100934.03
100934.66
100935.26
100935.96
100936.79
100937.76
100938.86
100940.11
100941.5
100943.04
100944.73
100946.58
100948.58
100950.74
100953.07
100955.55
100958.2
100961.01
100964.05
100944.54
100940.21
100939.01
100939.4
100939.92
100940.39
100940.96
100941.65
100942.49
100943.45
100944.55
100945.78
100947.16
100948.68
100950.36
100952.19
100954.17
100956.31
100958.61
100961.06
100963.67
100966.51
100950.16
100945.87
100944.61
100944.89
100945.29
100945.64
100946.08
100946.65
100947.35
100948.17
100949.12
100950.21
100951.43
100952.79
100954.3
100955.96
100957.78
100959.74
100961.85
100964.11
100966.55
100969.2
100955.85
100951.61
100950.28
100950.46
100950.74
100950.99
100951.32
100951.76
100952.33
100953.01
100953.83
100954.78
100955.85
100957.06
100958.41
100959.91
100961.55
100963.34
100965.29
100967.37
100969.61
100972.07
100961.61
100957.42
100956.04
100956.11
100956.29
100956.43
100956.65
100956.97
100957.42
100957.99
100958.67
100959.47
100960.41
100961.48
100962.67
100964.02
100965.5
100967.12
100968.9
100970.8
100972.87
100975.16
100967.44
100963.3
100961.88
100961.85
100961.93
100961.96
100962.08
100962.29
100962.62
100963.07
100963.63
100964.3
100965.1
100966.03
100967.08
100968.27
100969.6
100971.07
100972.67
100974.42
100976.31
100978.42
100973.33
100969.23
100967.76
100967.65
100967.64
100967.58
100967.58
100967.71
100967.92
100968.25
100968.69
100969.24
100969.92
100970.71
100971.63
100972.67
100973.85
100975.16
100976.62
100978.2
100979.93
100981.86
100979.27
100975.21
100973.72
100973.52
100973.41
100973.26
100973.18
100973.19
100973.32
100973.53
100973.87
100974.3
100974.84
100975.51
100976.29
100977.2
100978.24
100979.41
100980.71
100982.14
100983.7
100985.48
100985.26
100981.25
100979.71
100979.43
100979.25
100979.01
100978.84
100978.77
100978.78
100978.91
100979.12
100979.45
100979.88
100980.43
100981.08
100981.86
100982.77
100983.79
100984.95
100986.22
100987.63
100989.25
100991.29
100987.32
100985.75
100985.4
100985.13
100984.82
100984.57
100984.41
100984.34
100984.35
100984.48
100984.69
100985.01
100985.44
100985.98
100986.64
100987.4
100988.3
100989.32
100990.45
100991.72
100993.18
100997.37
100993.44
100991.82
100991.41
100991.07
100990.68
100990.35
100990.1
100989.95
100989.88
100989.91
100990.02
100990.24
100990.55
100990.98
100991.52
100992.16
100992.93
100993.82
100994.81
100995.93
100997.26
101003.47
100999.58
100997.93
100997.46
100997.05
100996.59
100996.19
100995.86
100995.63
100995.47
100995.41
100995.43
100995.55
100995.76
100996.08
100996.5
100997.03
100997.67
100998.43
100999.3
101000.29
101001.47
101009.6
101005.74
101004.07
101003.53
101003.06
101002.54
101002.07
101001.67
101001.36
101001.12
101000.97
101000.9
101000.93
101001.05
101001.26
101001.58
101002
101002.52
101003.16
101003.91
101004.76
101005.8
101015.75
101011.92
101010.23
101009.63
101009.11
101008.52
101007.98
101007.53
101007.13
101006.83
101006.59
101006.44
101006.37
101006.4
101006.52
101006.73
101007.04
101007.46
101007.99
101008.61
101009.34
101010.25
101021.93
101018.12
101016.41
101015.75
101015.17
101014.53
101013.93
101013.41
101012.96
101012.58
101012.26
101012.04
101011.88
101011.83
101011.85
101011.96
101012.18
101012.49
101012.9
101013.41
101014.02
101014.82
101028.11
101024.34
101022.6
101021.89
101021.25
101020.56
101019.92
101019.33
101018.82
101018.36
101017.99
101017.68
101017.45
101017.3
101017.24
101017.27
101017.38
101017.59
101017.9
101018.3
101018.81
101019.47
101034.29
101030.55
101028.79
101028.04
101027.35
101026.62
101025.91
101025.27
101024.7
101024.18
101023.74
101023.36
101023.06
101022.83
101022.69
101022.62
101022.65
101022.77
101022.98
101023.27
101023.66
101024.23
101040.47
101036.76
101034.97
101034.19
101033.45
101032.67
101031.93
101031.23
101030.59
101030.03
101029.52
101029.08
101028.7
101028.41
101028.18
101028.04
101027.98
101028
101028.12
101028.31
101028.61
101029.06
101046.65
101042.95
101041.16
101040.32
101039.55
101038.73
101037.94
101037.19
101036.51
101035.89
101035.32
101034.82
101034.38
101034.01
101033.71
101033.5
101033.35
101033.29
101033.32
101033.42
101033.61
101033.96
101052.8
101049.14
101047.32
101046.45
101045.64
101044.78
101043.95
101043.16
101042.43
101041.76
101041.13
101040.57
101040.08
101039.64
101039.28
101038.98
101038.77
101038.63
101038.56
101038.58
101038.68
101038.93
101058.94
101055.3
101053.47
101052.57
101051.73
101050.83
101049.95
101049.13
101048.35
101047.63
101046.95
101046.34
101045.78
101045.28
101044.86
101044.49
101044.21
101044
101043.86
101043.79
101043.8
101043.95
101065.05
101061.43
101059.59
101058.67
101057.79
101056.86
101055.95
101055.08
101054.26
101053.49
101052.78
101052.11
101051.5
101050.94
101050.46
101050.03
101049.67
101049.38
101049.17
101049.02
101048.95
101049.01
101071.12
101067.54
101065.68
101064.72
101063.82
101062.86
101061.92
101061.02
101060.16
101059.35
101058.58
101057.88
101057.21
101056.61
101056.06
101055.58
101055.15
101054.8
101054.52
101054.29
101054.14
101054.13
101077.16
101073.6
101071.73
101070.75
101069.82
101068.84
101067.86
101066.93
101066.04
101065.19
101064.38
101063.63
101062.92
101062.27
101061.67
101061.12
101060.64
101060.22
101059.87
101059.57
101059.34
101059.25
101083.15
101079.61
101077.74
101076.74
101075.78
101074.77
101073.77
101072.81
101071.89
101071
101070.16
101069.37
101068.62
101067.91
101067.26
101066.66
101066.13
101065.65
101065.23
101064.87
101064.58
101064.41
101089.09
101085.58
101083.71
101082.68
101081.7
101080.66
101079.64
101078.65
101077.7
101076.79
101075.91
101075.08
101074.28
101073.54
101072.84
101072.2
101071.6
101071.08
101070.6
101070.18
101069.81
101069.57
101094.97
101091.49
101089.6
101088.56
101087.57
101086.52
101085.46
101084.45
101083.47
101082.53
101081.62
101080.76
101079.92
101079.13
101078.39
101077.71
101077.07
101076.49
101075.95
101075.48
101075.04
101074.74
101100.79
101097.34
101095.45
101094.39
101093.37
101092.31
101091.24
101090.2
101089.2
101088.23
101087.29
101086.39
101085.53
101084.71
101083.93
101083.2
101082.51
101081.88
101081.29
101080.76
101080.27
101079.91
101106.54
101103.12
101101.23
101100.16
101099.13
101098.04
101096.96
101095.9
101094.88
101093.88
101092.92
101091.99
101091.09
101090.23
101089.42
101088.65
101087.93
101087.25
101086.62
101086.03
101085.48
101085.07
101112.22
101108.82
101106.94
101105.85
101104.81
101103.71
101102.61
101101.54
101100.49
101099.48
101098.49
101097.53
101096.6
101095.72
101094.88
101094.06
101093.3
101092.58
101091.91
101091.27
101090.68
101090.2
101117.82
101114.47
101112.58
101111.48
101110.42
101109.31
101108.2
101107.11
101106.05
101105.01
101104
101103.03
101102.07
101101.16
101100.28
101099.44
101098.64
101097.88
101097.16
101096.48
101095.84
101095.31
101123.34
101120.03
101118.14
101117.04
101115.97
101114.85
101113.72
101112.61
101111.54
101110.49
101109.46
101108.45
101107.49
101106.54
101105.64
101104.76
101103.93
101103.13
101102.38
101101.66
101100.98
101100.39
101128.78
101125.49
101123.62
101122.51
101121.43
101120.3
101119.16
101118.05
101116.96
101115.89
101114.85
101113.83
101112.83
101111.86
101110.93
101110.03
101109.17
101108.34
101107.55
101106.79
101106.07
101105.44
101134.14
101130.89
101129.02
101127.89
101126.81
101125.68
101124.53
101123.41
101122.31
101121.23
101120.16
101119.13
101118.11
101117.13
101116.17
101115.24
101114.35
101113.5
101112.67
101111.88
101111.11
101110.46
101139.41
101136.19
101134.33
101133.2
101132.12
101130.97
101129.82
101128.69
101127.58
101126.48
101125.41
101124.35
101123.32
101122.31
101121.34
101120.39
101119.47
101118.59
101117.74
101116.91
101116.11
101115.41
101144.58
101141.4
101139.55
101138.42
101137.32
101136.18
101135.03
101133.88
101132.76
101131.66
101130.57
101129.51
101128.47
101127.44
101126.44
101125.47
101124.53
101123.63
101122.75
101121.89
101121.06
101120.32
101149.67
101146.52
101144.68
101143.55
101142.46
101141.3
101140.14
101139
101137.86
101136.76
101135.66
101134.58
101133.52
101132.49
101131.47
101130.48
101129.52
101128.59
101127.68
101126.8
101125.94
101125.17
101154.65
101151.55
101149.71
101148.58
101147.48
101146.33
101145.17
101144.02
101142.88
101141.77
101140.66
101139.57
101138.51
101137.45
101136.42
101135.42
101134.44
101133.49
101132.56
101131.65
101130.77
101129.96
101159.54
101156.48
101154.66
101153.52
101152.43
101151.27
101150.11
101148.95
101147.81
101146.69
101145.58
101144.48
101143.4
101142.34
101141.3
101140.28
101139.28
101138.32
101137.36
101136.43
101135.53
101134.7
101164.32
101161.3
101159.49
101158.36
101157.27
101156.12
101154.95
101153.79
101152.65
101151.52
101150.41
101149.3
101148.22
101147.15
101146.09
101145.06
101144.05
101143.06
101142.09
101141.14
101140.22
101139.37
101169.01
101166.03
101164.23
101163.11
101162
101160.85
101159.69
101158.53
101157.4
101156.27
101155.14
101154.03
101152.94
101151.86
101150.8
101149.76
101148.73
101147.73
101146.75
101145.78
101144.83
101143.95
101173.59
101170.66
101168.88
101167.74
101166.65
101165.5
101164.33
101163.19
101162.04
101160.91
101159.78
101158.68
101157.57
101156.49
101155.42
101154.37
101153.33
101152.32
101151.32
101150.34
101149.37
101148.47
101178.06
101175.17
101173.41
101172.28
101171.19
101170.04
101168.88
101167.74
101166.59
101165.46
101164.33
101163.22
101162.12
101161.03
101159.95
101158.9
101157.85
101156.82
101155.82
101154.81
101153.83
101152.92
101182.42
101179.59
101177.84
101176.72
101175.63
101174.49
101173.33
101172.18
101171.04
101169.91
101168.79
101167.67
101166.57
101165.47
101164.39
101163.33
101162.27
101161.24
101160.22
101159.21
101158.21
101157.28
101186.68
101183.89
101182.16
101181.05
101179.97
101178.82
101177.68
101176.53
101175.39
101174.26
101173.14
101172.03
101170.92
101169.82
101168.74
101167.67
101166.61
101165.57
101164.54
101163.52
101162.52
101161.57
101190.84
101188.09
101186.38
101185.27
101184.19
101183.06
101181.91
101180.78
101179.64
101178.52
101177.4
101176.28
101175.18
101174.07
101172.99
101171.91
101170.86
101169.8
101168.77
101167.75
101166.73
101165.77
101194.88
101192.18
101190.49
101189.38
101188.32
101187.19
101186.05
101184.92
101183.79
101182.66
101181.55
101180.44
101179.33
101178.24
101177.15
101176.07
101175.01
101173.96
101172.91
101171.88
101170.86
101169.89
101198.81
101196.16
101194.49
101193.39
101192.33
101191.22
101190.08
101188.96
101187.84
101186.71
101185.6
101184.49
101183.39
101182.3
101181.21
101180.13
101179.07
101178.01
101176.97
101175.93
101174.89
101173.92
101202.63
101200.03
101198.38
101197.3
101196.24
101195.13
101194.01
101192.89
101191.77
101190.66
101189.55
101188.45
101187.35
101186.26
101185.18
101184.09
101183.03
101181.97
101180.92
101179.88
101178.84
101177.87
101206.34
101203.79
101202.17
101201.08
101200.04
101198.94
101197.82
101196.71
101195.61
101194.5
101193.39
101192.3
101191.21
101190.11
101189.04
101187.96
101186.89
101185.83
101184.79
101183.74
101182.7
101181.72
101209.94
101207.44
101205.84
101204.76
101203.73
101202.64
101201.54
101200.44
101199.34
101198.24
101197.14
101196.05
101194.96
101193.88
101192.8
101191.72
101190.66
101189.6
101188.56
101187.51
101186.47
101185.49
101213.42
101210.97
101209.4
101208.34
101207.31
101206.23
101205.14
101204.05
101202.96
101201.86
101200.78
101199.7
101198.61
101197.54
101196.46
101195.39
101194.34
101193.28
101192.23
101191.19
101190.15
101189.16
101216.8
101214.4
101212.85
101211.8
101210.78
101209.71
101208.64
101207.55
101206.47
101205.4
101204.31
101203.24
101202.17
101201.09
101200.02
101198.97
101197.91
101196.86
101195.82
101194.77
101193.73
101192.74
101220.06
101217.71
101216.19
101215.15
101214.15
101213.09
101212.02
101210.95
101209.88
101208.81
101207.74
101206.68
101205.61
101204.55
101203.49
101202.43
101201.38
101200.34
101199.3
101198.26
101197.22
101196.24
101223.21
101220.92
101219.43
101218.4
101217.41
101216.37
101215.31
101214.25
101213.19
101212.14
101211.08
101210.02
101208.97
101207.91
101206.86
101205.81
101204.76
101203.73
101202.7
101201.65
101200.63
101199.64
101226.26
101224.02
101222.56
101221.54
101220.56
101219.53
101218.49
101217.44
101216.4
101215.35
101214.3
101213.26
101212.21
101211.17
101210.13
101209.09
101208.05
101207.02
101205.99
101204.96
101203.93
101202.95
101229.2
101227.02
101225.58
101224.58
101223.61
101222.59
101221.56
101220.53
101219.5
101218.46
101217.43
101216.39
101215.36
101214.32
101213.29
101212.26
101211.24
101210.21
101209.19
101208.17
101207.15
101206.17
101232.03
101229.91
101228.49
101227.51
101226.55
101225.55
101224.54
101223.52
101222.49
101221.48
101220.46
101219.43
101218.41
101217.39
101216.36
101215.35
101214.33
101213.31
101212.3
101211.28
101210.27
101209.3
101234.76
101232.69
101231.31
101230.33
101229.38
101228.41
101227.4
101226.4
101225.39
101224.39
101223.38
101222.37
101221.37
101220.35
101219.34
101218.34
101217.33
101216.32
101215.32
101214.32
101213.31
101212.34
101237.39
101235.37
101234.01
101233.05
101232.12
101231.15
101230.17
101229.19