/*--------------------------------*- C++ -*----------------------------------*\
| =========                 |                                                 |
| \\      /  F ield         | OpenFOAM: The Open Source CFD Toolbox           |
|  \\    /   O peration     | Version:  2406                                  |
|   \\  /    A nd           | Website:  www.openfoam.com                      |
|    \\/     M anipulation  |                                                 |
\*---------------------------------------------------------------------------*/
FoamFile
{
    version     2.0;
    format      ascii;
    arch        "LSB;label=32;scalar=64";
    class       volScalarField;
    location    "0.02";
    object      nut;
}
// * * * * * * * * * * * * * * * * * * * * * * * * * * * * * * * * * * * * * //

dimensions      [0 2 -1 0 0 0 0];

internalField   nonuniform List<scalar> 
2065
(
0.0025044677
0.0027359626
0.0029691451
0.0032051848
0.0034486716
0.0037047836
0.0039778568
0.0042739467
0.0046000133
0.0049625772
0.0053700919
0.0058316157
0.0063474604
0.0069068857
0.0074877731
0.0080521152
0.0085704145
0.009030405
0.0094193678
0.0097426044
0.010042782
0.010290445
0.010323473
0.010144391
0.0098441354
0.0095021467
0.009158245
0.0087393138
0.0083226422
0.008214996
0.0085301422
0.0090593207
0.0094338063
0.0091931565
0.0082773021
0.0073534183
0.0070738118
0.007454538
0.0079854474
0.0081823391
0.0080303077
0.0081103067
0.0085572189
0.0091836187
0.0098961717
0.010568839
0.011254774
0.011994702
0.01266179
0.013251536
0.013680964
0.013972859
0.014077659
0.013908518
0.013795192
0.013486318
0.013286487
0.012687783
0.0015419669
0.0017579904
0.0019915395
0.0022431591
0.0025172009
0.0028157354
0.0031320942
0.003471717
0.0038380997
0.0042344221
0.0046669522
0.0051595727
0.0057231784
0.0063495882
0.0070206956
0.0076985636
0.0083368072
0.008921241
0.0094467717
0.0098638252
0.010240838
0.010502483
0.010470303
0.010246031
0.0099274945
0.0095997695
0.009278022
0.008901546
0.0085690124
0.0085518016
0.0089163239
0.0094401229
0.009755303
0.0094211753
0.008476898
0.0076204291
0.0074523306
0.007926805
0.0085303147
0.0088408766
0.0087766433
0.0089154535
0.0094267889
0.010113114
0.010887427
0.011597318
0.012305737
0.013059889
0.01373881
0.014343887
0.014797867
0.015102364
0.015233042
0.015071875
0.014979812
0.014685313
0.014500252
0.013911633
0.0010227305
0.0012268343
0.0014579458
0.0017166583
0.0019990394
0.002305542
0.002620845
0.0029374066
0.0032760055
0.003616606
0.0039607196
0.0043386101
0.0047787486
0.0053230488
0.0059774779
0.0067132196
0.0074683747
0.0082093952
0.0089377483
0.0095587014
0.010046623
0.010471565
0.010681667
0.01057735
0.010313498
0.0099910668
0.0096872632
0.0093943548
0.0090646356
0.0088204575
0.0088844818
0.0092854299
0.0097995494
0.01006485
0.0096654069
0.0087155451
0.0079334869
0.0078781871
0.0084437795
0.0091304468
0.0095667822
0.0096108719
0.0097937064
0.010352439
0.011088075
0.011908393
0.012646697
0.013367863
0.014128041
0.014812134
0.015428859
0.015900715
0.016210573
0.016364066
0.016210683
0.016135847
0.015854462
0.015680956
0.015103823
0.0013637579
0.001592292
0.0018258234
0.0020701474
0.0023246843
0.0025778689
0.0028272358
0.0030630672
0.0033017724
0.0035434635
0.0037654749
0.0040069175
0.0043219501
0.004700324
0.0051896282
0.0058328223
0.0065845998
0.0073991385
0.0082601999
0.0090806283
0.009748346
0.010288386
0.010694483
0.010804065
0.010642419
0.010345745
0.010033395
0.0097603679
0.009504259
0.0092308059
0.0090718516
0.009208228
0.0096371392
0.01014495
0.010379946
0.0099504944
0.0090151678
0.0083100384
0.0083634457
0.0090184729
0.0097979611
0.010352546
0.010529205
0.010737918
0.011326105
0.012100367
0.01295141
0.013709845
0.014435271
0.015194435
0.015879539
0.016500242
0.016987091
0.017296606
0.017469285
0.017322971
0.017261924
0.016992478
0.016828077
0.016263106
0.0023346352
0.0025838095
0.0028035976
0.0030140856
0.0032178905
0.0034121144
0.0035911133
0.0037492449
0.0038988178
0.0040405045
0.0041615349
0.0043036686
0.0045204683
0.0047963495
0.0052609119
0.0058994126
0.0066826897
0.0075552547
0.0084807155
0.0093304607
0.0099926499
0.010535678
0.010865936
0.010880903
0.010657453
0.010348775
0.010059401
0.0098236188
0.0096085974
0.0093997949
0.0093193795
0.0095187171
0.0099732189
0.010487222
0.010721914
0.010305944
0.0094038414
0.0087715888
0.008923916
0.0096587851
0.010538606
0.011198675
0.011516018
0.011738499
0.012338508
0.01314122
0.014008769
0.014780098
0.015502506
0.016254812
0.016939562
0.017553417
0.018053707
0.018359868
0.018547709
0.018407463
0.018357208
0.01809858
0.017941386
0.0173889
0.0030738211
0.0033624664
0.0035990266
0.0037963903
0.0039607444
0.0040969802
0.004216494
0.0043182602
0.0044015826
0.0044743299
0.0045400395
0.0045974324
0.0046875451
0.0048485636
0.0051114899
0.0054987597
0.006141867
0.0069589014
0.0078625209
0.0087949226
0.0095936676
0.010243447
0.010768816
0.010979131
0.010893264
0.010631429
0.010332424
0.010076962
0.0098827356
0.0097125529
0.0095681359
0.0095659059
0.0098180503
0.010302712
0.010842342
0.011115465
0.010761608
0.0099093751
0.009337953
0.0095725662
0.010367605
0.011348711
0.012108744
0.01255214
0.012784991
0.013379992
0.014201697
0.015073156
0.015851297
0.016565876
0.01730427
0.017987446
0.018587645
0.019097736
0.019400008
0.019598626
0.019463322
0.019421232
0.01917237
0.019020909
0.018481123
0.0035633437
0.0039233034
0.0042149621
0.0044279347
0.0045872174
0.0047111558
0.0048019132
0.004865687
0.0049086758
0.0049358854
0.00496091
0.0049915868
0.005030535
0.0051089174
0.0052645811
0.0055324788
0.0059436747
0.0065425981
0.0073463769
0.0082336284
0.0091164517
0.0098806873
0.010539738
0.010930317
0.01100618
0.010852314
0.010583279
0.010313146
0.010099051
0.0099465342
0.0098213996
0.009739111
0.0098045792
0.010108914
0.010634585
0.011229742
0.011583761
0.011340249
0.010553591
0.010023615
0.01031339
0.011149235
0.012219842
0.01307392
0.013620405
0.01386808
0.014441362
0.01527276
0.01613882
0.01691727
0.01761929
0.01834076
0.019018386
0.019602933
0.020117977
0.020415826
0.020621541
0.020490045
0.020453826
0.020213753
0.020066895
0.019540039
0.0041988853
0.0045674964
0.0048423768
0.0050352711
0.0051677678
0.0052573459
0.0053163136
0.0053481442
0.0053639579
0.0053734837
0.0053865562
0.0054116355
0.0054611066
0.0055586514
0.0057390617
0.0060363423
0.0064806527
0.0070708285
0.0078428894
0.0086943361
0.00951472
0.0102242
0.010746367
0.010976847
0.010964958
0.010784961
0.010543868
0.010318547
0.010146569
0.010029473
0.0099442437
0.0099175981
0.010042402
0.010399516
0.010988519
0.011672132
0.012141196
0.012050348
0.011346403
0.010833709
0.011142438
0.012005173
0.01313996
0.014078752
0.014708438
0.014976584
0.015514961
0.016345527
0.017201773
0.017970862
0.018659075
0.019361327
0.020029873
0.0205978
0.021113551
0.021406348
0.021616148
0.021487392
0.021455051
0.021222877
0.021079754
0.020566144
0.0046850081
0.0050346634
0.0052812422
0.0054470561
0.0055562037
0.0056264173
0.0056719646
0.0057006942
0.0057211577
0.0057418298
0.0057710855
0.0058153727
0.0058890802
0.0060173576
0.0062319177
0.0065724136
0.0070495258
0.0076507476
0.0083782776
0.0091519043
0.0098471053
0.010440729
0.010814031
0.01094314
0.010890181
0.01073818
0.01056065
0.010390521
0.010251562
0.010154762
0.010096745
0.010114599
0.010292724
0.010710787
0.011382159
0.012187355
0.012789745
0.01288099
0.012283511
0.011762146
0.012050688
0.012927804
0.014096696
0.015108562
0.015808099
0.016096268
0.01659343
0.017412052
0.018259055
0.019005619
0.019681883
0.020363425
0.021020088
0.021570732
0.022083759
0.022370873
0.022582304
0.022455326
0.022425152
0.022200077
0.022060027
0.021559934
0.0046035611
0.0050496339
0.0053691856
0.0055864935
0.0057272569
0.0058182552
0.0058793633
0.005925477
0.005964356
0.0060030332
0.0060488545
0.0061088144
0.0061890227
0.0062996378
0.0064635806
0.00670758
0.007069401
0.0075583533
0.0081431589
0.0088049874
0.0094712985
0.010056684
0.010531273
0.010788638
0.010867868
0.010840778
0.010775664
0.010700503
0.010593326
0.010464404
0.010357152
0.010303721
0.010349518
0.010575413
0.011066132
0.011837437
0.012780735
0.013519324
0.013801222
0.013348153
0.012792029
0.013025222
0.013902655
0.015078338
0.016149972
0.016909854
0.017215155
0.017668434
0.01846688
0.019302332
0.02002106
0.020685029
0.021344888
0.021987516
0.022520481
0.023028058
0.023308922
0.023519999
0.023393973
0.023364514
0.023145832
0.023008363
0.02252195
0.0048927043
0.0053057458
0.005600421
0.0057968717
0.0059209987
0.0060030576
0.0060637986
0.0061169165
0.0061714415
0.006233027
0.0063074172
0.0063999736
0.0065158797
0.0066650417
0.0068636592
0.0071343927
0.0074972469
0.0079739975
0.0085116383
0.0090965112
0.0096633007
0.010148985
0.010512202
0.010713369
0.010815356
0.010887622
0.010968263
0.011017305
0.010966579
0.010828055
0.010680062
0.010598922
0.010650064
0.010915864
0.011479777
0.01236951
0.013444324
0.014329078
0.014772177
0.014500526
0.013900496
0.014052618
0.014907943
0.01607608
0.017191465
0.01800483
0.018323292
0.018732827
0.019505294
0.020324525
0.021016981
0.021666284
0.022303898
0.02293091
0.02344603
0.023946044
0.024220194
0.024429337
0.024303583
0.024273632
0.024060733
0.023925496
0.023453052
0.0050794553
0.0054720169
0.0057445639
0.0059262393
0.0060417012
0.0061236439
0.0061922537
0.0062581161
0.0063288042
0.0064102437
0.0065092272
0.0066301891
0.0067764189
0.0069558336
0.0071806171
0.0074676111
0.0078254469
0.0082749271
0.0087517569
0.0092501817
0.0097278652
0.010135367
0.010435426
0.010652011
0.010852416
0.011079727
0.011315667
0.011495298
0.011515493
0.011365269
0.011159184
0.011017039
0.011042323
0.011327256
0.011976787
0.012965034
0.014169591
0.015201503
0.015770088
0.015692222
0.01506094
0.015117612
0.01592503
0.017080258
0.018223712
0.019085069
0.019412399
0.019780614
0.020523234
0.021322572
0.021990733
0.022623746
0.023238946
0.023849261
0.024346573
0.024837436
0.025104537
0.025310509
0.025184502
0.025153079
0.024945452
0.024812231
0.024354061
0.0051524576
0.0055366706
0.0057991186
0.0059775421
0.0060934611
0.0061792867
0.0062562299
0.0063359755
0.0064246895
0.0065266421
0.0066467913
0.0067892903
0.0069583415
0.0071579994
0.0073963033
0.0076854986
0.0080280364
0.0084390734
0.0088648186
0.0092882069
0.0096934526
0.010058068
0.010359018
0.010657738
0.011005418
0.011406353
0.011806088
0.012127003
0.012241176
0.012082465
0.011808695
0.011585921
0.011553372
0.011842433
0.012566669
0.013606644
0.014940246
0.016101795
0.016777611
0.016885123
0.016250466
0.016204991
0.016941083
0.018080265
0.01923932
0.020143655
0.020475712
0.020806893
0.021517332
0.022294282
0.022939986
0.023555831
0.024148802
0.024741767
0.025221483
0.025702061
0.025961914
0.026163796
0.026037149
0.026003489
0.025800718
0.025669444
0.025225761
0.0051254488
0.0055105045
0.0057767055
0.005959991
0.0060826721
0.0061772341
0.0062643952
0.0063556574
0.0064575474
0.0065743279
0.0067099631
0.0068680464
0.00705247
0.0072670188
0.0075116687
0.0077930618
0.0081108568
0.0084807771
0.0088613679
0.0092337252
0.0096018675
0.0099585885
0.010310718
0.010725779
0.011229092
0.011800733
0.012358341
0.012817817
0.013066319
0.012939582
0.012618934
0.012307846
0.012199352
0.012462896
0.013222748
0.014295248
0.015723595
0.017000062
0.017777345
0.018046548
0.017452944
0.017300959
0.01794769
0.019066274
0.020232683
0.021174639
0.021507861
0.021807759
0.022484897
0.023238023
0.023862854
0.024461246
0.025032483
0.025607809
0.026070297
0.026539839
0.026792385
0.026989536
0.026861998
0.026825538
0.026627301
0.026498133
0.026068869
0.0049838227
0.0053784944
0.0056603093
0.0058566329
0.0059928586
0.0061010335
0.006201988
0.0063076631
0.0064248605
0.006557479
0.006708348
0.0068797499
0.007074148
0.0072940696
0.0075374905
0.0078086636
0.0081029462
0.0084280148
0.0087665828
0.0091138534
0.0094690245
0.0098562304
0.010271798
0.010804942
0.011448316
0.012173373
0.012891761
0.013489954
0.0138924
0.013863012
0.013533878
0.013154869
0.012962792
0.013172977
0.01392571
0.015014547
0.016495843
0.017874098
0.018753334
0.019162572
0.018645365
0.0183934
0.018940985
0.020028973
0.021199856
0.022172831
0.022504804
0.022780193
0.023423954
0.024152321
0.024757855
0.025338969
0.02588922
0.026446928
0.026892689
0.02735077
0.027596086
0.027788106
0.027659564
0.027619926
0.027425991
0.027299585
0.026883854
0.0051390025
0.0054417549
0.0056565364
0.0058109956
0.0059358687
0.006052438
0.0061737794
0.0063073264
0.0064570033
0.0066247523
0.0068115876
0.007018307
0.0072463267
0.0074911668
0.0077488684
0.0080231627
0.0083181018
0.0086279112
0.0089549053
0.0093079557
0.0097026905
0.010184817
0.010820652
0.01158352
0.012455107
0.01333933
0.014094935
0.014655428
0.014780687
0.014492927
0.014080429
0.013809527
0.013942918
0.014644843
0.015745834
0.01724154
0.01870947
0.019690703
0.020225943
0.019809777
0.01947212
0.019917811
0.020959474
0.022141056
0.023133507
0.023463857
0.02372209
0.024332857
0.025036278
0.025623862
0.026188213
0.026718434
0.027258804
0.027688455
0.028134925
0.028373218
0.028559917
0.028430391
0.028387372
0.028197593
0.028074913
0.027671625
0.0047868822
0.0051109177
0.005345531
0.0055200981
0.005663059
0.0057960604
0.0059335918
0.0060844178
0.0062531341
0.006441162
0.0066481279
0.0068723818
0.0071136111
0.0073647046
0.0076151943
0.0078694337
0.0081325392
0.0084091031
0.0087116852
0.0090581147
0.0094751907
0.01001115
0.010724014
0.01159633
0.012610959
0.013667476
0.014601789
0.015322592
0.015637989
0.015442876
0.015036323
0.014702995
0.014747495
0.015366893
0.016469368
0.017953121
0.019497283
0.020580011
0.021231536
0.020933145
0.02052903
0.020873418
0.021858465
0.023051489
0.024053589
0.024384156
0.024631671
0.025210372
0.025889186
0.026460046
0.027008398
0.027519704
0.028043236
0.028457493
0.028892438
0.029124033
0.02930541
0.029175042
0.0291286
0.028942921
0.02882462
0.028433407
0.0043095987
0.004651945
0.0049063884
0.0051002703
0.0052604413
0.005408946
0.0055618513
0.0057298617
0.0059190793
0.0061312203
0.0063645978
0.0066153346
0.0068800994
0.0071497846
0.0074085158
0.0076563166
0.0078982565
0.0081476818
0.0084230056
0.0087525675
0.0091738283
0.0097382302
0.010513246
0.011484088
0.012636793
0.01386803
0.014998676
0.01588357
0.016401334
0.016346729
0.01598357
0.015610526
0.015565551
0.016084348
0.017162187
0.018631981
0.020233186
0.021415963
0.022176375
0.022006195
0.021557765
0.021804458
0.022724757
0.023925371
0.024934125
0.02526552
0.025507706
0.02605584
0.02671055
0.027265821
0.027799113
0.028292745
0.028800121
0.029199793
0.029623495
0.029848828
0.030025048
0.029894096
0.029844336
0.029662785
0.029548982
0.029170312
0.0040551944
0.0043233609
0.0045328088
0.0047077195
0.0048698251
0.005036415
0.0052202641
0.0054299642
0.0056684848
0.0059340394
0.0062216789
0.006524367
0.0068308776
0.0071212634
0.0073847038
0.0076237307
0.007856588
0.0081077756
0.0084165539
0.0088194759
0.0093970866
0.010214502
0.011270748
0.012551189
0.01395144
0.015286016
0.016346048
0.017052953
0.017183542
0.016895716
0.016508123
0.016381235
0.016793213
0.017813954
0.019279125
0.020915892
0.022196344
0.023060088
0.023022922
0.022553349
0.022708606
0.023557969
0.024758286
0.025775763
0.026109031
0.0263496
0.026868768
0.027500054
0.028040797
0.028560092
0.029037385
0.029529449
0.029915426
0.030328336
0.030547941
0.030719314
0.03058814
0.030535302
0.030357982
0.030248983
0.029883369
0.023584397
0.024358492
0.025549768
0.026577073
0.026915508
0.027156887
0.027648865
0.028257532
0.028784744
0.029291185
0.029753544
0.03023128
0.030604534
0.031007249
0.031221749
0.031388713
0.031257768
0.031202221
0.031029296
0.030925553
0.030573508
0.014315639
0.012225289
0.0061884701
0.0088968058
0.01182205
0.014292358
0.015544679
0.015321055
0.013890719
0.011841566
0.0042717121
0.0063398366
0.0089613797
0.011757029
0.01407176
0.015197279
0.014904266
0.013465867
0.011461318
0.0044689359
0.0064807068
0.0090092161
0.011673274
0.013834647
0.014841271
0.01448402
0.013040593
0.011083801
0.0046653689
0.0066125004
0.0090420835
0.01157204
0.013579906
0.014464259
0.014058062
0.012622662
0.010716191
0.0048629533
0.0067378315
0.0090626503
0.011456723
0.013312985
0.014075512
0.013626433
0.012201302
0.010349002
0.0050645263
0.0068602037
0.0090744011
0.011328108
0.01302264
0.013647148
0.013185607
0.011776962
0.0099801482
0.0052755452
0.0069848962
0.0090821425
0.011190614
0.012730969
0.013267392
0.012747172
0.011358521
0.0096187306
0.0055032052
0.0071210023
0.0090941488
0.01105146
0.012438488
0.012877206
0.012296414
0.01093928
0.0092594661
0.0057572305
0.0072767223
0.0091159039
0.010915656
0.012143448
0.012476685
0.011840216
0.010516093
0.0088984593
0.0060453239
0.0074585371
0.0091551194
0.010787821
0.011850064
0.012078166
0.011407804
0.010097181
0.0085365962
0.006375007
0.0076757168
0.0092189624
0.010671218
0.011560298
0.011680808
0.010970415
0.0096776974
0.0081725252
0.006752564
0.0079326221
0.0093085842
0.010567531
0.011275629
0.011284533
0.0105306
0.009256262
0.0078053248
0.0071786568
0.0082261219
0.0094229959
0.010469345
0.010991927
0.01088886
0.010089725
0.0088332669
0.0074352365
0.0076372632
0.0085390905
0.0095443618
0.010364834
0.010713031
0.010492096
0.0096490519
0.0084111046
0.0070655961
0.0081020778
0.0088465689
0.0096521352
0.010244005
0.0104332
0.010094707
0.0092112918
0.0079935789
0.0067005222
0.0085396236
0.0091200063
0.0097205635
0.010105139
0.010144917
0.009698531
0.0087812836
0.0075861352
0.0063446229
0.0089207548
0.0093342047
0.0097333658
0.009947753
0.0098453483
0.0093066531
0.0083646975
0.0071951894
0.0060043342
0.0092380715
0.0094885514
0.0097163994
0.0097687919
0.0095430767
0.0089314333
0.0079761317
0.006836193
0.0056950732
0.0094992527
0.0096037864
0.0096744424
0.0095849219
0.0092530588
0.0085859005
0.0076263308
0.0065174519
0.0054228852
0.009709814
0.0096897943
0.0096239389
0.0094165414
0.0089959618
0.0082897325
0.0073342474
0.006257147
0.0052050165
0.0099156689
0.0097911396
0.0096064901
0.0092971249
0.0087979604
0.0080598916
0.0071104922
0.0060617802
0.0050452726
0.010105905
0.0099088455
0.0096333731
0.0092392425
0.0086723563
0.0079036742
0.0069567589
0.00592932
0.0049394148
0.010146054
0.0099261762
0.0096154081
0.009179598
0.0085773337
0.0077915452
0.0068496811
0.0058402481
0.0048710787
0.0099974305
0.0097945472
0.0094923791
0.0090557148
0.0084498149
0.0076644481
0.0067328599
0.0057403992
0.0047893488
0.0097156404
0.009525386
0.0092354952
0.0088104317
0.0082160003
0.0074468341
0.0065382344
0.0055729206
0.0046485118
0.0093672839
0.0091725327
0.0088799206
0.0084522012
0.0078628456
0.0071087373
0.0062273916
0.0052983429
0.0044128756
0.0090091641
0.0087968561
0.0084830456
0.0080372578
0.0074368147
0.0066835764
0.0058207124
0.0049260723
0.0040840854
0.0085601246
0.0083173751
0.0079758629
0.0075093891
0.006900546
0.006157906
0.0053267898
0.0044809348
0.003696158
0.0080815122
0.0077891296
0.007396504
0.0068873272
0.0062576239
0.0055260711
0.0047386252
0.0039593937
0.0032498551
0.0079005443
0.0075525069
0.0070938609
0.0065165375
0.0058312878
0.0050715562
0.0042897978
0.0035449141
0.0028852404
0.0081708353
0.0077919921
0.0072911198
0.0066617039
0.0059204263
0.0051104504
0.0042922007
0.003524661
0.0028529635
0.008698726
0.0083194514
0.0078117753
0.0071629481
0.0063845317
0.0055218796
0.0046406032
0.0038064711
0.0030732646
0.0091150845
0.0087637381
0.0082805886
0.0076435514
0.0068576754
0.0059657244
0.0050403178
0.0041506661
0.0033565998
0.0089578639
0.0086805758
0.0082989315
0.0077676048
0.0070618578
0.0062060017
0.0052687355
0.0043468035
0.0035205283
0.0080786339
0.0078398899
0.0075245397
0.0071176185
0.0065922403
0.0059243665
0.0051244105
0.0042809149
0.0034897724
0.0071129615
0.006847799
0.0065101607
0.0060874636
0.0055713385
0.0049670199
0.0043142487
0.0036500062
0.0030207831
0.0067525515
0.0064282
0.006023806
0.005534071
0.0049634401
0.0043321214
0.0036774557
0.0030455358
0.0024778433
0.007057312
0.0066698771
0.0061908842
0.0056199257
0.0049683413
0.0042653044
0.0035561206
0.0028911124
0.0023111345
0.0075296571
0.0070876038
0.0065495527
0.0059194484
0.0052107266
0.0044520171
0.0036892594
0.0029766992
0.0023592125
0.0076390306
0.0071222678
0.0065231804
0.00586239
0.0051590459
0.0044296824
0.0036990783
0.0030038603
0.0023893242
0.0074227255
0.0068547359
0.0062097945
0.005520311
0.0048151476
0.0041128818
0.0034320715
0.0028021366
0.0022502792
0.0074496455
0.0068340183
0.0061293715
0.0053759283
0.0046160189
0.0038804548
0.0031915693
0.0025720286
0.0020430474
0.0078332496
0.0071548545
0.0063657582
0.0055123938
0.0046517238
0.0038329106
0.0030896543
0.0024445549
0.0019115286
0.0084021848
0.007664381
0.0067856238
0.0058112714
0.004820851
0.0038900951
0.0030699985
0.0023835089
0.0018348569
0.0090504685
0.0082473591
0.0072838889
0.006208617
0.0050913762
0.0040305043
0.0031084846
0.0023596771
0.0017818951
0.0096869879
0.0088484847
0.0078294825
0.0066726221
0.0054661844
0.0043081592
0.0032799316
0.0024399013
0.0018004698
0.010349321
0.0094884578
0.0084306243
0.0072113039
0.0059121196
0.0046476923
0.0035248001
0.0026038509
0.0018989684
0.011074682
0.010202277
0.0091216403
0.0078619987
0.0064968259
0.0051340067
0.0038915612
0.0028567756
0.002063921
0.011730846
0.010852064
0.0097573029
0.0084710152
0.0070620935
0.0056372704
0.0043149131
0.0031892561
0.0023053009
0.012308634
0.01142442
0.010318515
0.009011962
0.0075703803
0.0060990514
0.0047182129
0.0035276839
0.0025801499
0.012721576
0.011831554
0.010717888
0.0093991706
0.0079375616
0.0064375997
0.0050210402
0.0037910683
0.0028042715
0.013000434
0.012104384
0.010978131
0.0096425354
0.0081655487
0.0066506599
0.0052182488
0.0039717498
0.0029680679
0.013089948
0.012192349
0.011066075
0.0097296992
0.0082474542
0.0067290333
0.0052987623
0.0040563594
0.0030553394
0.0129236
0.012043145
0.01094027
0.0096339635
0.0081868046
0.0067011954
0.0052962162
0.004073307
0.0030866217
0.012798976
0.011922555
0.010825706
0.0095287815
0.0080959696
0.0066301547
0.0052486671
0.004048317
0.0030804949
0.012487703
0.01162585
0.010550041
0.0092821777
0.0078869377
0.0064656564
0.0051309739
0.0039739778
0.0030412444
0.012283911
0.011434321
0.010374537
0.0091267429
0.0077551582
0.006359559
0.0050504257
0.0039164712
0.0030028072
0.011690519
0.010866314
0.0098441608
0.0086479172
0.007340616
0.0060173206
0.0047812876
0.0037137941
0.0028547825
0.0099743096
0.0076315526
0.0052701163
0.0030630165
0.0012106714
0.00014441791
0.0096558468
0.0073907585
0.0051127088
0.0029781412
0.0011825543
0.00014076738
0.0093421987
0.0071543567
0.0049550408
0.0028954347
0.0011524826
0.00013699542
0.0090339383
0.0069249026
0.0048028775
0.0028157798
0.0011260921
0.00013311179
0.0087342851
0.0066964166
0.0046558312
0.0027378997
0.0010980277
0.00012914993
0.0084333508
0.0064746657
0.0045118497
0.0026619364
0.0010721825
0.00012511091
0.0081373157
0.0062565985
0.0043698197
0.0025862207
0.0010444562
0.00012100527
0.0078465051
0.0060407505
0.0042286035
0.0025102983
0.0010170007
0.00011681742
0.0075570261
0.0058253168
0.0040865025
0.0024325351
0.00098731017
0.0001125282
0.0072663924
0.0056083291
0.0039420805
0.0023522021
0.00095616492
0.00010810355
0.0069731222
0.0053877547
0.0037935094
0.0022679255
0.00092234773
0.00010349925
0.0066760519
0.0051623735
0.0036398294
0.0021792847
0.00088618515
9.8670179e-05
0.0063745335
0.0049316552
0.0034806555
0.0020860843
0.00084761632
9.3572983e-05
0.0060686647
0.0046955319
0.0033160135
0.0019888541
0.00080770419
8.8191366e-05
0.0057626921
0.0044591274
0.0031516629
0.0018929786
0.00076947469
8.264818e-05
0.0054603599
0.0042250758
0.0029882506
0.0017966392
0.00073009784
7.6969273e-05
0.0051646112
0.0039941171
0.0028242901
0.0016970106
0.00068690018
7.0950484e-05
0.0048817823
0.0037726059
0.0026663968
0.0016007233
0.00064502272
6.4786663e-05
0.0046267224
0.0035742831
0.0025264408
0.0015168759
0.00061019914
5.971909e-05
0.0044034037
0.003401036
0.0024040673
0.0014429169
0.00057867915
5.5545627e-05
0.0042279539
0.0032675531
0.0023120285
0.0013890048
0.00055678903
5.2243609e-05
0.0041023749
0.0031745655
0.0022501455
0.0013547468
0.00054515294
4.9567928e-05
0.0040210469
0.0031153447
0.0022106394
0.0013315763
0.0005356623
4.7308484e-05
0.0039708498
0.0030803825
0.0021879906
0.0013180697
0.00052951437
4.5344339e-05
0.0039054395
0.0030296616
0.002150505
0.001292699
0.00051655527
4.3218574e-05
0.0037891413
0.0029368187
0.0020805873
0.0012456166
0.00049285999
4.0683989e-05
0.0035920576
0.0027791976
0.0019634256
0.0011692037
0.00045599546
3.764636e-05
0.0033107525
0.0025505724
0.0017925055
0.001058842
0.00040485893
3.4156261e-05
0.0029828639
0.0022875133
0.001599139
0.00093719786
0.0003516504
3.0759956e-05
0.0026119782
0.0019945581
0.0013863319
0.00080355346
0.00029293739
2.7631331e-05
0.0023017124
0.0017439457
0.0012008759
0.00068623114
0.00024453134
2.5559251e-05
0.0022623598
0.0017014408
0.0011613888
0.00065732174
0.00023579164
2.5333326e-05
0.0024267373
0.0018128729
0.0012253402
0.00068412399
0.00024279844
2.6242678e-05
0.0026500398
0.001975323
0.0013303214
0.00074070895
0.00026536884
2.7853231e-05
0.0027838549
0.0020784862
0.0014028223
0.00078425039
0.00028327027
2.8933163e-05
0.0027698097
0.0020725931
0.001401375
0.00078472425
0.00028406187
2.8892187e-05
0.0024339002
0.0018472208
0.0012636705
0.00071362746
0.00025828239
2.707888e-05
0.0019683712
0.0014749078
0.00099649438
0.00055408864
0.00019721376
2.4671494e-05
0.0018041687
0.0013269988
0.00088047227
0.00048410612
0.00017726696
2.4165696e-05
0.0018237536
0.0013250465
0.00086700564
0.0004713771
0.00017478099
2.4914643e-05
0.0018498669
0.0013426383
0.00087496604
0.00047195676
0.00017657196
2.5873791e-05
0.0017613284
0.0012931176
0.00085253732
0.00046430594
0.00017426919
2.6199733e-05
0.0015847275
0.0011542959
0.00075652531
0.00041238242
0.00015725234
2.5550338e-05
0.0014619999
0.0010504583
0.000680889
0.00036994738
0.00014463918
2.5063234e-05
0.0013839095
0.00098031865
0.00062699553
0.00033836028
0.00013586064
2.4797984e-05
0.0013212863
0.00092087506
0.00058099165
0.00031156674
0.00012769406
2.4535669e-05
0.0013035225
0.00088572385
0.00054592994
0.00028907944
0.00012035157
2.4199624e-05
0.0013486139
0.0008910038
0.00053217243
0.00027510217
0.00011511486
2.3852871e-05
0.0014484114
0.0009393964
0.00054441002
0.00027155873
0.0001123586
2.3547603e-05
0.0016054918
0.0010220353
0.00057681074
0.00027788388
0.00011178104
2.3290635e-05
0.0018153326
0.0011598931
0.00064468971
0.00029696514
0.00011273139
2.3007757e-05
0.0019980157
0.0012946786
0.00072874622
0.00033096216
0.00011569918
2.2644747e-05
0.0021408655
0.0014087275
0.0008075893
0.00036838197
0.00011726265
2.1997537e-05
0.0022248229
0.0014815582
0.00086307619
0.00039882914
0.00012159566
2.1353664e-05
0.0022646732
0.00152265
0.00089853181
0.00041910526
0.00012237196
2.046046e-05
0.002269173
0.0015314329
0.00090906873
0.00042726269
0.00012427841
1.9635421e-05
0.0022549568
0.0015326448
0.00091750411
0.00043354652
0.0001223434
1.8544545e-05
0.0022295796
0.0015157073
0.00090808586
0.00043009473
0.00012223066
1.7646884e-05
0.0021239828
0.001443561
0.00086285881
0.00040592932
0.0001181994
1.6269885e-05
)
;

boundaryField
{
    Side1
    {
        type            empty;
    }
    Inlet
    {
        type            calculated;
        value           nonuniform List<scalar> 0();
    }
    Side2
    {
        type            empty;
    }
    Outlet
    {
        type            zeroGradient;
    }
    Botwall
    {
        type            nutkWallFunction;
        blending        stepwise;
        value           nonuniform List<scalar> 
59
(
1.3041469e-05
1.2527125e-05
1.1993907e-05
1.1444497e-05
1.0882341e-05
1.0308496e-05
9.7235331e-06
9.1257395e-06
8.5118377e-06
7.8770596e-06
7.2146837e-06
6.518012e-06
5.7802773e-06
4.9985265e-06
4.1901533e-06
3.3575109e-06
2.4676456e-06
1.5492311e-06
7.8657201e-07
1.5221967e-07
0
0
0
0
0
0
0
0
0
0
0
0
0
0
0
0
0
0
0
0
0
0
0
0
0
0
0
0
0
0
0
0
0
0
0
0
0
0
0
)
;
    }
    Cyli
    {
        type            nutkWallFunction;
        blending        stepwise;
        value           nonuniform List<scalar> 0();
    }
    procBoundary1to0
    {
        type            processor;
        value           nonuniform List<scalar> 
44
(
0.002272823
0.0040744562
0.0013423788
0.0013423788
0.00084557415
0.00084557415
0.0011715065
0.0020744104
0.0020744104
0.0027554996
0.0027554996
0.0031189401
0.0037209594
0.0042128981
0.0042128981
0.0040178477
0.0043076535
0.004499609
0.0045781204
0.0045577337
0.0047265844
0.0044217385
0.0047265844
0.0043525605
0.0038667563
0.0037079087
0.0037079087
0.014737074
0.012611144
0.0060261402
0.0088146089
0.011866995
0.014493306
0.015887114
0.015739267
0.015739267
0.0040744562
0.0040744562
0.01029753
0.0078789526
0.0054366567
0.0031543759
0.0012437149
0.00014789568
)
;
    }
    procBoundary1to3
    {
        type            processor;
        value           nonuniform List<scalar> 
62
(
0.0033121171
0.003585263
0.0038038517
0.0039910189
0.0041661752
0.0043457758
0.0045442499
0.0047731846
0.0050384357
0.0053403859
0.0056736937
0.0060291137
0.0063931918
0.0067416145
0.0070538394
0.0073246874
0.0075667536
0.0078099261
0.0080924113
0.0084710403
0.009043263
0.0098702573
0.010978176
0.01235646
0.013909637
0.015447263
0.016718636
0.017603479
0.017961333
0.01779538
0.017417547
0.017207201
0.017492947
0.018413418
0.019863833
0.021516756
0.022903529
0.023877686
0.024001968
0.023533744
0.023533744
0.024440359
0.025121131
0.026289624
0.027331999
0.027690322
0.027932754
0.028396071
0.028981951
0.029496905
0.029991791
0.030440607
0.030905177
0.031266888
0.031660353
0.031871116
0.03203506
0.031905183
0.03184678
0.031677614
0.03157927
0.031240835
)
;
    }
}


// ************************************************************************* //
