/*--------------------------------*- C++ -*----------------------------------*\
| =========                 |                                                 |
| \\      /  F ield         | OpenFOAM: The Open Source CFD Toolbox           |
|  \\    /   O peration     | Version:  2406                                  |
|   \\  /    A nd           | Website:  www.openfoam.com                      |
|    \\/     M anipulation  |                                                 |
\*---------------------------------------------------------------------------*/
FoamFile
{
    version     2.0;
    format      ascii;
    arch        "LSB;label=32;scalar=64";
    class       volScalarField;
    location    "0.03";
    object      Ma;
}
// * * * * * * * * * * * * * * * * * * * * * * * * * * * * * * * * * * * * * //

dimensions      [0 0 0 0 0 0 0];

internalField   nonuniform List<scalar> 
8260
(
0.15585711
0.15841221
0.16093497
0.16334495
0.1655134
0.16735612
0.16880836
0.16984615
0.17046746
0.17069887
0.17060117
0.1702146
0.16960388
0.16883367
0.16796008
0.16702652
0.1660676
0.16511227
0.16418309
0.16329573
0.16246151
0.16168793
0.16097753
0.16032651
0.1597165
0.1591429
0.1585441
0.15786664
0.15694589
0.15549235
0.1537242
0.15132353
0.1541892
0.15707896
0.15982493
0.1623425
0.16454846
0.16637082
0.16776956
0.16872382
0.16926253
0.1694338
0.16927608
0.16885471
0.16823792
0.16748606
0.16664813
0.1657638
0.16486662
0.16398291
0.1631313
0.16232534
0.16157429
0.16088197
0.16024563
0.15964816
0.15908326
0.15849474
0.15782408
0.15691211
0.15546842
0.15370918
0.14622526
0.14938192
0.152679
0.1558346
0.15875779
0.16137259
0.16360622
0.16540624
0.16674062
0.16762718
0.16810372
0.16820798
0.16800468
0.16756405
0.16695163
0.16622314
0.16542381
0.16459245
0.16375985
0.16294816
0.16217358
0.16144744
0.16077509
0.16015499
0.1595711
0.15901772
0.15843914
0.15777736
0.15687446
0.15544192
0.15369226
0.14156159
0.14493118
0.14848522
0.15193811
0.15518286
0.15813958
0.16073301
0.16290047
0.16459958
0.16583097
0.16661958
0.16700001
0.1670322
0.16678675
0.16633033
0.16572641
0.16502513
0.16427044
0.16349781
0.16273322
0.16199583
0.16129927
0.16065063
0.16004978
0.15948189
0.15894174
0.1583749
0.15772326
0.15683094
0.15541149
0.15367562
0.13753666
0.14099513
0.14465166
0.14826348
0.15171828
0.15492747
0.15780977
0.16029292
0.16232345
0.16388337
0.16498198
0.16564588
0.16592877
0.16589547
0.16561317
0.16515
0.16456135
0.1638957
0.1631932
0.16248389
0.1617902
0.16112837
0.1605075
0.1599291
0.15937984
0.15885488
0.15830154
0.15766152
0.15678138
0.15537691
0.15365581
0.13428679
0.13770079
0.14131677
0.14494445
0.14847948
0.15182988
0.15490909
0.15763644
0.15994689
0.16180389
0.16319878
0.16414568
0.16468774
0.16488116
0.16479015
0.16448457
0.16402376
0.16346055
0.16283937
0.1621945
0.1615519
0.16093067
0.16034226
0.15979005
0.15926242
0.15875513
0.15821725
0.15759062
0.15672442
0.15533734
0.15363275
0.13188907
0.13514174
0.13859185
0.14210134
0.14558365
0.14895225
0.1521201
0.15500151
0.15752136
0.15962617
0.16128846
0.16250629
0.16330702
0.16373606
0.16385125
0.1637196
0.16340224
0.16295579
0.16242834
0.16185837
0.16127542
0.16070174
0.16015133
0.15962975
0.15912735
0.15864055
0.15812047
0.15750928
0.1566591
0.15529208
0.15360574
0.13035445
0.13334311
0.1365275
0.13980673
0.14311758
0.146386
0.1495304
0.15246515
0.15510922
0.15739599
0.15928045
0.16074273
0.16179145
0.16245733
0.1627885
0.162845
0.16268692
0.16237201
0.1619517
0.16146827
0.16095475
0.1604366
0.15993065
0.15944484
0.15897184
0.15850881
0.15800921
0.1574158
0.15658403
0.15524021
0.15357408
0.12957921
0.13223372
0.13508947
0.138067
0.14111937
0.14419058
0.14721024
0.15009898
0.15277589
0.15516715
0.15721421
0.15888003
0.16015368
0.16104834
0.16159807
0.16185302
0.16186813
0.16170002
0.16140059
0.16101632
0.16058313
0.16012959
0.15967551
0.15923146
0.15879268
0.15835723
0.1578812
0.15730831
0.15649764
0.15518065
0.15353704
0.12942442
0.13171472
0.13420723
0.13684507
0.13958717
0.14239217
0.14520592
0.14796084
0.15058241
0.1529964
0.15513665
0.15695261
0.15841536
0.15951946
0.16028202
0.1607392
0.16093845
0.16093059
0.16076628
0.16049423
0.1601532
0.15977443
0.15938063
0.15898518
0.15858618
0.15818272
0.15773385
0.15718457
0.15639813
0.15511212
0.15349375
0.12980086
0.1317177
0.13382775
0.13609434
0.13849296
0.14098755
0.14353757
0.14608913
0.14857852
0.15093713
0.15309782
0.15500206
0.15660692
0.15788957
0.15884906
0.15950501
0.15989319
0.16005631
0.16004037
0.15989387
0.15965727
0.15936431
0.15904017
0.15870109
0.15834819
0.15798177
0.15756413
0.15704201
0.15628332
0.1550331
0.15344309
0.13048375
0.13207012
0.13382669
0.13573593
0.13778376
0.13994791
0.1421999
0.14449988
0.14679725
0.14903327
0.15114547
0.15307354
0.154766
0.15618614
0.15731614
0.15815827
0.15873306
0.15907261
0.15921615
0.1592076
0.15908783
0.1588922
0.15864788
0.15837373
0.15807404
0.15775038
0.15736863
0.15687769
0.15615072
0.15494171
0.15338379
0.13130866
0.13260686
0.13405317
0.13563916
0.13735959
0.13920334
0.14115196
0.14317933
0.14524854
0.14731311
0.14931953
0.15121133
0.15293466
0.15444426
0.15570884
0.15671453
0.15746554
0.15798062
0.15828961
0.15842937
0.15843799
0.15835131
0.15819731
0.15799734
0.15775864
0.15748412
0.15714347
0.1566882
0.15599737
0.1548357
0.15331432
0.13213481
0.13319538
0.13438275
0.13569222
0.13712408
0.13867598
0.14033863
0.14209683
0.14392559
0.14579082
0.14765027
0.14945567
0.15115648
0.15270485
0.15406111
0.1551985
0.156106
0.15678795
0.1572621
0.15755598
0.15770267
0.15773544
0.15768232
0.15756601
0.15739661
0.15717817
0.15688435
0.15646972
0.15581989
0.15471232
0.15323299
0.13289041
0.13375779
0.13473316
0.13581593
0.13700961
0.13831266
0.13972101
0.14122754
0.14281907
0.14447353
0.14616042
0.14784178
0.14947425
0.15101256
0.15241416
0.1536441
0.15467923
0.15551018
0.15614154
0.15658969
0.15687972
0.15704022
0.15709751
0.15707422
0.1569825
0.15682744
0.15658663
0.15621794
0.15561435
0.1545682
0.1531378
0.13359424
0.13430451
0.13510533
0.13599742
0.13698645
0.13807644
0.13926512
0.14054761
0.14191749
0.143364
0.14486757
0.1464007
0.14792918
0.14941407
0.15081489
0.15209378
0.15321985
0.15417267
0.15494429
0.15553907
0.15597197
0.15626448
0.15643926
0.15651725
0.15651122
0.15642687
0.1562454
0.15592823
0.15537634
0.15439923
0.1530265
0.13429395
0.1348731
0.13552776
0.13625939
0.13707304
0.13797552
0.13897112
0.14005671
0.1412277
0.14247724
0.1437953
0.14516537
0.14656306
0.14795769
0.14931439
0.150597
0.1517717
0.15281088
0.15369636
0.15442099
0.15498868
0.15541186
0.1557072
0.15589215
0.15597863
0.15597176
0.15585586
0.15559569
0.15510098
0.1542005
0.15289637
0.13505831
0.13552532
0.13605452
0.13664804
0.137311
0.1380487
0.13886812
0.13977449
0.14076461
0.14183276
0.14297143
0.14417114
0.14541819
0.14669198
0.14796555
0.1492077
0.15038587
0.15146955
0.15243376
0.15326191
0.15394726
0.15449223
0.15490563
0.15519924
0.15538234
0.15545844
0.15541358
0.15521552
0.1547831
0.15396626
0.15274399
0.13594636
0.13631672
0.13673723
0.13721032
0.13774081
0.13833377
0.13899409
0.13972806
0.14054244
0.14143655
0.1424047
0.14343917
0.14452828
0.14566005
0.14681835
0.14798001
0.14911706
0.15020009
0.1512013
0.15209783
0.15287425
0.15352329
0.15404481
0.15444328
0.15472319
0.15488501
0.1549152
0.1547834
0.15441757
0.15369016
0.15256478
0.13698019
0.13726783
0.13759501
0.13796417
0.13837966
0.13884617
0.13936843
0.13995074
0.14059787
0.14131676
0.14211187
0.14297798
0.14390732
0.14489013
0.14591393
0.14696304
0.14801871
0.14905637
0.15004942
0.15097265
0.151805
0.15253125
0.15314246
0.15363484
0.15400637
0.15425276
0.15435933
0.15429624
0.15399988
0.15336561
0.15235239
0.13814603
0.13836322
0.13861073
0.13889089
0.13920741
0.13956449
0.13996657
0.14041821
0.14092373
0.1414868
0.1421119
0.14280625
0.14357158
0.14439884
0.14527704
0.14619457
0.14713753
0.1480893
0.14902937
0.14993445
0.15078157
0.15155023
0.15222415
0.15279146
0.15324271
0.1535674
0.1537478
0.15375323
0.15352717
0.15298647
0.15209727
0.1394294
0.13958768
0.1397684
0.13997364
0.14020644
0.14047028
0.14076898
0.14110665
0.14148759
0.14191611
0.14239622
0.14293131
0.1435267
0.1441877
0.14490983
0.14568336
0.14649705
0.14733569
0.14818503
0.14902948
0.14984855
0.1506199
0.15132254
0.15193805
0.15244975
0.15284029
0.15308715
0.15315751
0.15299979
0.1525491
0.15178782
0.14079846
0.14090834
0.14103415
0.14117761
0.14134109
0.14152737
0.14173954
0.14198103
0.14225556
0.14256709
0.14291966
0.14331703
0.14376225
0.14425929
0.14481486
0.14543129
0.14609867
0.14680697
0.14754376
0.14829566
0.14904795
0.14978167
0.15047504
0.15110596
0.15165208
0.1520895
0.15239019
0.15251799
0.15242373
0.15205495
0.15142418
0.14220508
0.14227537
0.14235625
0.14244905
0.14255553
0.14267777
0.14281818
0.14297947
0.14316469
0.14337724
0.14362083
0.14389938
0.14421687
0.14457693
0.14498227
0.14543672
0.14594739
0.1465126
0.14711982
0.14775834
0.14841455
0.14907406
0.14972005
0.15033067
0.15088037
0.15134019
0.15167706
0.15185118
0.1518137
0.15151722
0.15102819
0.14361329
0.14365176
0.14369651
0.1437485
0.14380895
0.14387934
0.14396139
0.14405714
0.14416892
0.14429945
0.14445178
0.14462938
0.14483604
0.14507582
0.14535281
0.14567082
0.14603314
0.14644591
0.14691307
0.14742273
0.14796402
0.14852459
0.14909118
0.14964764
0.15016887
0.15062345
0.15097523
0.15118193
0.15119518
0.1509735
0.15060002
0.14499887
0.14501167
0.14502734
0.14504651
0.14506995
0.14509863
0.14513373
0.14517667
0.14522913
0.14529315
0.14537112
0.14546584
0.14558053
0.14571887
0.14588487
0.14608277
0.14631656
0.14658969
0.14690808
0.14727792
0.14769197
0.14813976
0.14860979
0.14908707
0.1495512
0.1499731
0.15031723
0.15054138
0.1505998
0.15045431
0.15011085
0.14630434
0.14629774
0.14629139
0.14628561
0.1462808
0.1462775
0.14627641
0.1462784
0.1462846
0.14629641
0.14631559
0.14634427
0.14638506
0.14644107
0.14651593
0.1466137
0.14673873
0.14689519
0.14708649
0.14731784
0.14759805
0.14792624
0.14828782
0.14867009
0.14905514
0.14942064
0.14973587
0.14996142
0.15005539
0.14999155
0.14979401
0.14752315
0.14750159
0.14747824
0.14745315
0.14742641
0.1473982
0.14736882
0.14733871
0.14730851
0.14727911
0.14725169
0.14722783
0.14720956
0.14719941
0.14720055
0.1472168
0.14725249
0.14731199
0.14739976
0.14752009
0.1476768
0.14787719
0.14812422
0.14840267
0.14869525
0.14898841
0.14926011
0.14947846
0.14961158
0.14963222
0.14924564
0.14848189
0.14845735
0.14842999
0.14839967
0.14836622
0.14832958
0.14828975
0.14824683
0.14820102
0.14815272
0.14810257
0.14805147
0.1480007
0.14795192
0.14790729
0.14786929
0.14784086
0.14782556
0.14782724
0.14784976
0.14789663
0.14797087
0.14808382
0.14824167
0.14843764
0.14864729
0.14885817
0.14905592
0.14923747
0.14935415
0.14886711
0.14881442
0.14879494
0.14877319
0.14874892
0.14872196
0.14869217
0.14865936
0.14862338
0.14858418
0.14854177
0.14849633
0.14844821
0.14839804
0.1483468
0.14829589
0.14824709
0.14820242
0.14816401
0.14813393
0.14811363
0.1481028
0.14809825
0.14810139
0.14815316
0.14826336
0.14835999
0.14847428
0.1485804
0.14858006
0.14881079
0.14806611
0.14894247
0.14893597
0.14892867
0.14892029
0.14891044
0.14889866
0.14888449
0.14886762
0.14884767
0.14882413
0.14879663
0.14876496
0.14872923
0.14868993
0.14864806
0.14860507
0.14856287
0.14852365
0.14848961
0.14846239
0.14844203
0.14842508
0.1484019
0.14835912
0.14831943
0.14833536
0.14840798
0.14845533
0.14824064
0.14889304
0.14704983
0.13173169
0.13795786
0.1441959
0.15004894
0.15537239
0.16014454
0.1639359
0.16706654
0.16946244
0.17113879
0.17214628
0.17256134
0.17249831
0.17207246
0.1713505
0.17043179
0.1694078
0.16832394
0.16722263
0.16613796
0.16509361
0.16410576
0.16318262
0.16232369
0.16151726
0.16074106
0.15993261
0.15905724
0.15792099
0.1562861
0.15418226
0.14015801
0.14631256
0.15183801
0.15674994
0.1610721
0.16474027
0.16769034
0.17001699
0.17169015
0.17275272
0.17325817
0.17327714
0.17293331
0.17230657
0.17143806
0.17042508
0.16934851
0.16823403
0.16711829
0.16602914
0.16498689
0.164005
0.16308975
0.16223938
0.16144134
0.16067331
0.15987308
0.15900489
0.1578768
0.15624571
0.15416108
0.14837765
0.15348003
0.15803425
0.16206437
0.16554692
0.16842307
0.17068145
0.17236165
0.17346115
0.1740396
0.17414441
0.1738622
0.17329289
0.17249952
0.17150528
0.17041777
0.16929615
0.16815369
0.16702329
0.16592853
0.16488689
0.16390933
0.16300052
0.16215753
0.16136704
0.1606067
0.15981385
0.15895415
0.15783306
0.15620613
0.15413872
0.15697171
0.16098995
0.16449229
0.16750279
0.1700199
0.17202392
0.17352652
0.17454254
0.17507542
0.17518627
0.17492782
0.17437023
0.17359919
0.17264576
0.17154131
0.17039427
0.16923145
0.16806411
0.16692138
0.16582273
0.16478281
0.1638104
0.16290863
0.16207352
0.16129101
0.16053874
0.15975422
0.1589025
0.15778895
0.15616654
0.15411584
0.16566394
0.16840194
0.17071311
0.17264236
0.17418989
0.17534889
0.17612156
0.17650833
0.17650934
0.17619891
0.17561056
0.17480948
0.17384831
0.17274554
0.17155259
0.17035701
0.16915586
0.16796719
0.16681464
0.16571379
0.16467667
0.16371006
0.16281573
0.16198875
0.1612144
0.1604704
0.15969444
0.15885095
0.157745
0.1561273
0.15409239
0.17409303
0.17544533
0.17656705
0.17743084
0.17804242
0.17839058
0.17845337
0.17825207
0.17777623
0.17707708
0.17620022
0.17517459
0.1740381
0.17280442
0.17154512
0.17030555
0.16907053
0.16786413
0.16670404
0.16560244
0.16456895
0.1636086
0.16272196
0.16190324
0.16113716
0.1604016
0.1596345
0.1587992
0.15770108
0.15608843
0.15406784
0.18187026
0.18192779
0.18191688
0.18179495
0.18153367
0.18111682
0.18052384
0.17977437
0.17887305
0.17783305
0.17669199
0.17546403
0.17416672
0.1728317
0.17152119
0.17023893
0.16897569
0.16775504
0.16658958
0.16548862
0.16445959
0.16350599
0.16262731
0.16181705
0.1610594
0.16033243
0.15957446
0.15874735
0.15765728
0.15605005
0.1540473
0.1889609
0.18780716
0.18672782
0.18568004
0.18461568
0.18350053
0.18232336
0.18109097
0.1798031
0.17846219
0.17708595
0.17567381
0.17423975
0.17283461
0.17148014
0.17015783
0.16887166
0.16764005
0.1664714
0.16537247
0.16434873
0.16340238
0.16253195
0.16173032
0.16098123
0.16026299
0.15951431
0.15869547
0.15761366
0.15601225
0.15402524
0.19514715
0.19295535
0.19092989
0.18904262
0.18725623
0.1855332
0.1838468
0.18219287
0.18056811
0.17896478
0.17737786
0.17580398
0.17427297
0.17281682
0.17141928
0.17006277
0.16875878
0.16751944
0.16634974
0.1652542
0.16423658
0.16329795
0.16243605
0.16164319
0.16090278
0.1601934
0.15945407
0.15864361
0.15757026
0.15597508
0.15400733
0.20029348
0.19723263
0.19442281
0.19183888
0.18945074
0.18721217
0.18508929
0.18307803
0.18116696
0.17933083
0.17756133
0.17587017
0.17427858
0.17277711
0.17133683
0.16995422
0.16863741
0.16739352
0.16622487
0.16513403
0.16412332
0.16319287
0.16233974
0.1615558
0.16082417
0.16012373
0.15939382
0.15859183
0.15752712
0.15593862
0.15398846
0.20426308
0.20056779
0.19717126
0.19405797
0.19120162
0.18853694
0.1860463
0.18373511
0.18157927
0.17955352
0.17765578
0.17589498
0.17425739
0.1727096
0.17123406
0.16983282
0.16850793
0.16726262
0.16609706
0.16501219
0.16400916
0.16308732
0.16224319
0.1614683
0.16074553
0.16005411
0.15933364
0.15854021
0.1574843
0.15590287
0.15396929
0.20720874
0.20303032
0.19919869
0.19569176
0.19246413
0.18946169
0.18668797
0.18414865
0.18181439
0.17966398
0.17769462
0.17588721
0.17419982
0.17261104
0.17111181
0.16969908
0.16837074
0.16712709
0.1659666
0.16488895
0.16389433
0.1629815
0.1621466
0.16138085
0.16066699
0.15998463
0.15927361
0.15848881
0.15744185
0.15586788
0.15394968
0.20932818
0.20478114
0.20059424
0.19674065
0.19320991
0.18998277
0.18704717
0.18437227
0.18192656
0.17970371
0.1776889
0.17582966
0.1740982
0.17248323
0.17097087
0.1695535
0.16822628
0.16698728
0.16583381
0.16476459
0.16377907
0.16287564
0.16205014
0.16129361
0.1605887
0.15991539
0.15921381
0.15843768
0.15739981
0.1558337
0.15392968
0.21055507
0.20583295
0.20146129
0.19736839
0.19358224
0.19021251
0.18720703
0.18446166
0.18195212
0.17967869
0.17761204
0.17570982
0.17395429
0.17232759
0.1708119
0.16939659
0.16807499
0.1668436
0.16569905
0.16463939
0.16366365
0.16276996
0.161954
0.16120674
0.16051078
0.1598465
0.15915431
0.15838689
0.15735824
0.15580036
0.15390928
0.21039723
0.20578564
0.20146477
0.19739629
0.19361621
0.19021201
0.18715178
0.18436905
0.1818395
0.17954071
0.17744381
0.17552858
0.17376945
0.17214484
0.17063549
0.16922889
0.16791732
0.16669646
0.16556266
0.16451368
0.16354834
0.16266469
0.1618584
0.16112043
0.16043339
0.15977808
0.15909519
0.15833649
0.15731725
0.15576792
0.15388797
0.20859684
0.20432656
0.20029309
0.1965338
0.19304997
0.18978932
0.18677261
0.18402777
0.18153391
0.17926151
0.17718393
0.17528659
0.17354404
0.17193547
0.17044217
0.1690509
0.16775376
0.16654629
0.16542504
0.16438781
0.16343343
0.1625601
0.16176354
0.16103483
0.16035665
0.15971023
0.15903653
0.15828653
0.15727709
0.15573639
0.15387074
0.20613261
0.20223444
0.19855064
0.19510095
0.19188218
0.18886175
0.18603778
0.18343172
0.18104208
0.17884991
0.17683366
0.17498369
0.17327821
0.17169993
0.17023245
0.16886314
0.1675848
0.16639355
0.1652866
0.16426212
0.16331925
0.16245644
0.16166966
0.16095015
0.16028071
0.15964305
0.15897842
0.15823708
0.15723765
0.15570584
0.15385255
0.20266243
0.19930393
0.19609732
0.19306717
0.19021165
0.18751598
0.18497271
0.18258869
0.18036973
0.17830931
0.17639317
0.17461955
0.17297199
0.17143851
0.17000678
0.16866611
0.16741095
0.16623872
0.16514778
0.16413702
0.16320613
0.16235401
0.16157698
0.16086657
0.16020572
0.15957666
0.15892092
0.15818816
0.15719881
0.15567621
0.1538341
0.19822911
0.19554577
0.19294149
0.19044774
0.18806158
0.18577766
0.18359186
0.18150256
0.17951725
0.17763926
0.17586179
0.17419366
0.17262529
0.17115144
0.16976556
0.16846031
0.16723274
0.16608232
0.16500905
0.16401292
0.16309442
0.1622531
0.16148576
0.16078429
0.16013181
0.15951116
0.15886411
0.15813984
0.15716051
0.15564741
0.1538148
0.19285858
0.19097047
0.18908843
0.18724579
0.18543364
0.18365084
0.18189993
0.18017471
0.17848363
0.17683826
0.17523842
0.17370525
0.17223776
0.17083879
0.16950916
0.16824628
0.1670508
0.16592495
0.16487095
0.16389029
0.16298453
0.16215404
0.16139624
0.16070349
0.16005909
0.15944664
0.15880807
0.15809213
0.15712279
0.15561934
0.15379948
0.18660825
0.18561138
0.18455879
0.18347385
0.18233541
0.18114112
0.17990072
0.17860543
0.17726716
0.17590391
0.17452137
0.17315322
0.17180895
0.17050071
0.16923809
0.16802474
0.16686586
0.16576732
0.16473412
0.16376968
0.1628769
0.16205718
0.16130871
0.16062441
0.15998768
0.15938318
0.15875286
0.15804506
0.15708563
0.15559194
0.15378325
0.17953024
0.17949764
0.17937498
0.17914588
0.17877271
0.17825093
0.17759305
0.17678914
0.17586237
0.17483082
0.17370738
0.17253599
0.17133844
0.17013763
0.16895328
0.16779678
0.16667904
0.16561044
0.16459941
0.16365177
0.16277206
0.16196293
0.16122347
0.16054724
0.15991767
0.15932085
0.15869854
0.15799863
0.15704899
0.1555651
0.15376674
0.17155689
0.17251139
0.17343053
0.17417334
0.1746805
0.17493732
0.17494328
0.17469943
0.1742512
0.17360516
0.17278857
0.17184987
0.170825
0.16974979
0.16865563
0.16756353
0.16649146
0.16545525
0.16446757
0.16353711
0.16267042
0.16187159
0.16114072
0.16047216
0.15984907
0.15925967
0.15864515
0.15795282
0.15701284
0.15553876
0.15374992
0.16288306
0.16443041
0.16626809
0.16804482
0.16958987
0.17081869
0.17167849
0.17216859
0.17232528
0.1721607
0.17172934
0.171079
0.17026435
0.16933918
0.16835008
0.16733092
0.16630891
0.16530695
0.16434295
0.16342923
0.16257473
0.16178522
0.161062
0.16040029
0.15978255
0.15920012
0.15859297
0.15790784
0.15697723
0.15551266
0.15373202
0.12865391
0.13467289
0.14071509
0.14664771
0.15221583
0.15727606
0.16153832
0.16506746
0.16784691
0.16988098
0.17120569
0.17189609
0.17204943
0.17177878
0.17118362
0.1703555
0.16938942
0.16834398
0.16726692
0.1661965
0.16515881
0.16417269
0.16324808
0.16238576
0.16157497
0.16079367
0.15998087
0.15909857
0.15795835
0.1563206
0.15420731
0.12913924
0.13499584
0.14065256
0.14614164
0.15137221
0.15619353
0.1603894
0.16392897
0.16678416
0.16894031
0.17041166
0.17125952
0.17155982
0.17141076
0.17092368
0.17018435
0.16928417
0.16828751
0.16724557
0.16619943
0.16517842
0.16420283
0.163284
0.16242399
0.16161313
0.16082964
0.16001391
0.15912672
0.15798179
0.15634231
0.15422035
0.129796
0.1352315
0.14046002
0.14555976
0.15047316
0.15507818
0.1591888
0.16273531
0.16566751
0.16794835
0.16957176
0.17058189
0.17103558
0.17101842
0.17064575
0.1699992
0.16916862
0.16822522
0.16722253
0.16620289
0.1651995
0.16423523
0.16332261
0.16246508
0.16165414
0.16086835
0.16004968
0.15915716
0.15800716
0.15636617
0.1542364
0.13015219
0.13527998
0.14017582
0.14496895
0.14961989
0.15402772
0.15803966
0.16157131
0.16455686
0.16694313
0.16870603
0.1698706
0.1704758
0.17059503
0.17034132
0.16979278
0.16903782
0.16815218
0.16719238
0.16620231
0.16521858
0.16426724
0.16336194
0.16250759
0.16169696
0.16090898
0.16008739
0.15918925
0.15803387
0.15639158
0.1542556
0.13050683
0.13538186
0.1399926
0.144494
0.1488829
0.15308337
0.15697221
0.16045874
0.16346758
0.16593393
0.16781817
0.16912589
0.16987875
0.17013698
0.17000656
0.16956155
0.16888848
0.16806593
0.16715317
0.16619662
0.16523519
0.16429849
0.16340181
0.16255146
0.16174159
0.16095161
0.16012703
0.15922306
0.15806201
0.1564185
0.15427528
0.13091315
0.13555905
0.13991018
0.14413495
0.14826238
0.15224543
0.15598825
0.15940123
0.16240443
0.16492515
0.1669108
0.16834851
0.16924361
0.16964181
0.16963833
0.16930235
0.16871758
0.16796398
0.167103
0.16618409
0.16524841
0.16432835
0.16344184
0.16259648
0.16178795
0.1609962
0.16016853
0.15925858
0.15809163
0.15644681
0.15429576
0.13134011
0.13576091
0.13987285
0.14384351
0.14772298
0.15149006
0.15507402
0.15839275
0.16136651
0.1639184
0.16598606
0.16754
0.16857063
0.16910829
0.16923457
0.16901278
0.16852268
0.16784412
0.16704025
0.16616351
0.16525713
0.16435612
0.16348159
0.16264241
0.16183591
0.1610427
0.1602119
0.15929581
0.15812269
0.15647622
0.1543169
0.13175182
0.13594998
0.13984065
0.14358028
0.14723073
0.15079111
0.15421259
0.15742429
0.1603506
0.16291395
0.16504554
0.16670198
0.16786039
0.16853568
0.16879366
0.16869078
0.16830155
0.16770429
0.16696321
0.16613359
0.16526026
0.16438099
0.16352056
0.16268892
0.16188528
0.16109101
0.16025713
0.15933471
0.15815522
0.15650661
0.15433867
0.13210644
0.13609586
0.13978502
0.14331456
0.14675559
0.1501228
0.15338519
0.15648424
0.159351
0.16191024
0.1640898
0.16583574
0.16711348
0.16792342
0.16831421
0.1683344
0.16805201
0.16754235
0.16687005
0.16609263
0.16525677
0.16440229
0.1635582
0.16273568
0.16193586
0.16114105
0.1603042
0.15937527
0.15818919
0.15653781
0.15436094
0.13237273
0.13615688
0.13966329
0.14300752
0.14626363
0.14945662
0.15257008
0.15555788
0.15835923
0.16090351
0.1631181
0.16494179
0.16633038
0.16727105
0.16779503
0.16794181
0.16777189
0.16735615
0.16675882
0.16603875
0.16524526
0.16441933
0.16359386
0.16278226
0.16198741
0.16119265
0.1603531
0.15941748
0.1582246
0.15656979
0.15438361
0.13250109
0.13609665
0.13943088
0.14261657
0.14571743
0.14876118
0.15174269
0.15462757
0.15736404
0.15988777
0.16212817
0.16401985
0.16551135
0.16657818
0.16723509
0.16751134
0.16745908
0.16714354
0.1666275
0.16597042
0.16522421
0.16443102
0.16362679
0.16282818
0.16203961
0.16124566
0.16040375
0.15946134
0.15826148
0.15660255
0.15440672
0.13243251
0.13587414
0.13905999
0.14211261
0.14508565
0.14800679
0.15087788
0.15367404
0.15635216
0.15885512
0.16111617
0.16306873
0.16465629
0.1658446
0.16663359
0.16704155
0.16711164
0.16690237
0.16647403
0.165886
0.16519248
0.16443614
0.16365608
0.16287288
0.16209212
0.16129987
0.16045602
0.15950684
0.15829978
0.15663651
0.15442914
0.13215303
0.13543883
0.13851655
0.1414663
0.14434014
0.14716655
0.14995172
0.15267783
0.15530936
0.15779639
0.16007721
0.16208651
0.16376482
0.16507023
0.16598995
0.1665313
0.16672783
0.1666306
0.16629635
0.16578362
0.16514819
0.16443346
0.163681
0.16291571
0.1621445
0.16135499
0.16050969
0.15955389
0.15833949
0.15667099
0.1544606
0.13159549
0.13477611
0.13777078
0.14064781
0.14345389
0.14621588
0.14894234
0.15162067
0.15422164
0.15670208
0.15900597
0.16107082
0.16283636
0.16425516
0.16530389
0.16597979
0.16630618
0.16632634
0.16609245
0.16566132
0.16508921
0.16442163
0.16370087
0.1629559
0.16219622
0.1614107
0.16056455
0.15960237
0.15838052
0.15670607
0.15449155
0.13076207
0.13385838
0.13679869
0.13963529
0.14240644
0.14513566
0.1478323
0.15048747
0.15307692
0.1555636
0.15789727
0.16001936
0.1618704
0.1633997
0.16457567
0.16538656
0.16584566
0.16598798
0.16586042
0.16551716
0.16501403
0.16439881
0.16371446
0.16299257
0.1622467
0.16146657
0.16062036
0.15965203
0.15842278
0.15674178
0.15452251
0.12964859
0.13268689
0.13560022
0.13842518
0.14119123
0.14391737
0.14661219
0.14926898
0.15186717
0.15437482
0.15674725
0.15893046
0.16086691
0.16250466
0.16380608
0.16475176
0.16534568
0.16561422
0.16559853
0.16534931
0.16492121
0.164364
0.16372033
0.16302463
0.16229522
0.16152214
0.1606768
0.15970259
0.15846614
0.15677817
0.15455211
0.1282808
0.13128537
0.13419493
0.13703206
0.1398178
0.14256608
0.14528352
0.14796433
0.15059039
0.15313375
0.15555472
0.1578039
0.15982686
0.16157161
0.16299663
0.16407626
0.1648062
0.16520426
0.16530539
0.16515604
0.16480901
0.16431519
0.16371711
0.16305128
0.16234098
0.16157682
0.16073344
0.15975379
0.15851039
0.15681518
0.15459581
0.12671936
0.12970595
0.13262656
0.13549148
0.13831384
0.14110228
0.1438606
0.14658287
0.14925237
0.15184406
0.15432239
0.15664232
0.15875296
0.16060338
0.16214981
0.16336177
0.16422791
0.16475787
0.16497993
0.16493584
0.1646757
0.16425018
0.16370339
0.16307187
0.16238311
0.16162994
0.16078983
0.15980533
0.15855533
0.15685257
0.15463885
0.12503707
0.12801467
0.13095366
0.13385406
0.1367217
0.13956012
0.14236994
0.14514439
0.14786744
0.15051598
0.15305778
0.15545171
0.15765028
0.15960439
0.16126933
0.1626111
0.16361237
0.16427548
0.16462165
0.16468751
0.16451973
0.16416771
0.1636773
0.16308499
0.16242052
0.16168075
0.1608454
0.15985682
0.15860069
0.1568902
0.15468085
0.12331937
0.12629005
0.1292471
0.13218241
0.13509542
0.13798498
0.14084857
0.1436782
0.14645811
0.14916648
0.15177369
0.15424187
0.15652674
0.15858111
0.16036043
0.16182824
0.16296227
0.16375834
0.16423067
0.16441027
0.16433981
0.16406671
0.16363802
0.16308901
0.16245198
0.16172837
0.1608995
0.15990783
0.15864613
0.1569279
0.1547219
0.12166532
0.12462134
0.12758658
0.13054685
0.13349613
0.13642908
0.13934019
0.1422201
0.14505305
0.1478181
0.15048759
0.15302636
0.15539296
0.15754219
0.15943006
0.16101857
0.16228145
0.16320864
0.16380782
0.16410387
0.16413495
0.16394581
0.16358348
0.16308266
0.1624767
0.16177185
0.16095138
0.15995784
0.15869128
0.15696559
0.15476165
0.12016451
0.12309106
0.12604702
0.12901448
0.13198315
0.13494418
0.13788933
0.14080782
0.14368367
0.14649653
0.14922025
0.15182183
0.15426222
0.15649836
0.15848692
0.16018892
0.16157492
0.16262969
0.16335479
0.1637687
0.16390457
0.16380376
0.16351176
0.16306435
0.16249392
0.16181008
0.16100021
0.16000625
0.15873565
0.15700301
0.15479913
0.11881681
0.12170548
0.12464191
0.12760525
0.13058144
0.1335584
0.13652538
0.13947029
0.14237709
0.14522616
0.14799284
0.15064628
0.15314973
0.15546218
0.15754128
0.15934753
0.16084895
0.16202589
0.16287415
0.16340589
0.1636486
0.16363971
0.16342218
0.16303281
0.16250205
0.16184175
0.16104506
0.16005241
0.15877874
0.15703972
0.15486356
0.1176609
0.12049888
0.12340219
0.12634777
0.12931814
0.13229796
0.13527385
0.1382322
0.14115686
0.14402893
0.14682536
0.14951751
0.15207102
0.154447
0.15660446
0.15850374
0.16011099
0.16140273
0.16236949
0.16301731
0.16336759
0.16345323
0.16331397
0.16298662
0.16249943
0.16186601
0.16108493
0.1600956
0.15882004
0.15707485
0.15492935
0.11673382
0.1195034
0.12235535
0.12526545
0.12821344
0.13118091
0.13415165
0.13711012
0.14003953
0.14292141
0.14573412
0.14845116
0.15104071
0.15346616
0.15568818
0.15766762
0.15936931
0.16076666
0.16184536
0.16260567
0.16306277
0.16324434
0.16318627
0.1629237
0.16248508
0.16188234
0.16111869
0.16013504
0.1588591
0.15710813
0.15499085
0.11601125
0.11869648
0.12148183
0.12434255
0.12725592
0.13020038
0.13315643
0.13610587
0.13903054
0.14191192
0.14472946
0.14745877
0.15007072
0.1525315
0.15480373
0.15684934
0.1586327
0.1601248
0.16130714
0.16217452
0.16273604
0.1630136
0.16303865
0.16284348
0.1624571
0.16188927
0.16114505
0.16016989
0.15889553
0.15713956
0.15504935
0.11551636
0.11810171
0.12080294
0.12359633
0.12645813
0.12936452
0.13229305
0.13522259
0.13813286
0.14100437
0.14381686
0.14654752
0.14916968
0.15165236
0.15396079
0.15605844
0.15790994
0.1594847
0.16076079
0.16172815
0.16239
0.16276221
0.16287118
0.16274587
0.16241463
0.16188504
0.1611632
0.16019925
0.15892893
0.15716739
0.15510481
0.11522655
0.11769897
0.12030115
0.1230117
0.12580704
0.12866205
0.13155183
0.13445229
0.13734051
0.14019518
0.14299543
0.14571922
0.14834187
0.1508351
0.15316697
0.15530313
0.15720918
0.15885387
0.16021273
0.16127146
0.16202788
0.16249191
0.16268436
0.16263037
0.16235584
0.16186853
0.16117259
0.16022207
0.15895863
0.1571956
0.15515917
0.11512906
0.11747866
0.11996839
0.12258114
0.125295
0.12808475
0.13092393
0.13378588
0.13664483
0.13947697
0.14225982
0.14497111
0.1475873
0.15008235
0.15242706
0.15458967
0.15653744
0.15823933
0.15966932
0.16080971
0.1616535
0.16220504
0.16247921
0.16249687
0.16228046
0.16183809
0.16117164
0.16023729
0.15898389
0.15722445
0.15521336
0.11520559
0.11742703
0.1197946
0.12229647
0.12491456
0.1276251
0.13040123
0.13321452
0.13603662
0.13884083
0.14160228
0.14429735
0.1469026
0.14939341
0.15174291
0.153922
0.15590009
0.15764714
0.15913655
0.1603482
0.16127105
0.16190438
0.16225726
0.16234576
0.1621885
0.1617929
0.16115955
0.16024418
0.15900374
0.15725421
0.15526764
0.11544758
0.1175294
0.11977108
0.12215306
0.12466292
0.12728061
0.12998048
0.13273359
0.13550972
0.13827951
0.14101521
0.14369102
0.14628242
0.14876511
0.15111381
0.15330171
0.15530061
0.15708205
0.15861969
0.15989202
0.1608849
0.16159314
0.16202043
0.16217779
0.16207972
0.16173169
0.16113372
0.16024173
0.15901737
0.15728122
0.15531688
0.1158376
0.11777912
0.11988222
0.12214194
0.12453558
0.12704903
0.12966014
0.13234105