/*--------------------------------*- C++ -*----------------------------------*\
| =========                 |                                                 |
| \\      /  F ield         | OpenFOAM: The Open Source CFD Toolbox           |
|  \\    /   O peration     | Version:  2406                                  |
|   \\  /    A nd           | Website:  www.openfoam.com                      |
|    \\/     M anipulation  |                                                 |
\*---------------------------------------------------------------------------*/
FoamFile
{
    version     2.0;
    format      ascii;
    arch        "LSB;label=32;scalar=64";
    class       volScalarField;
    location    "0.03";
    object      rho;
}
// * * * * * * * * * * * * * * * * * * * * * * * * * * * * * * * * * * * * * //

dimensions      [1 -3 0 0 0 0 0];

internalField   nonuniform List<scalar> 
8260
(
1.2195125
1.2175004
1.2159312
1.2140595
1.2121697
1.2104497
1.2089668
1.2077221
1.2067997
1.2061079
1.2055833
1.2052738
1.205111
1.2050499
1.205076
1.205147
1.2052436
1.2053455
1.2054424
1.2055184
1.2055696
1.2055859
1.2055724
1.2055177
1.2054557
1.2053366
1.2052433
1.2051176
1.2050916
1.2050148
1.2055684
1.2215254
1.2198082
1.2179265
1.2158393
1.2138185
1.2119689
1.2103333
1.2089291
1.2078141
1.2069372
1.2062592
1.2057991
1.2055073
1.2053414
1.2052838
1.2052883
1.2053338
1.2053984
1.2054695
1.2055286
1.2055698
1.2055814
1.2055666
1.2055125
1.205455
1.2053366
1.2052416
1.2051164
1.2050868
1.2050185
1.2056001
1.2224304
1.2208876
1.2190011
1.2169259
1.2149228
1.2130685
1.2113939
1.2099259
1.2087098
1.2077259
1.2069489
1.2063874
1.2059974
1.2057501
1.2056258
1.2055737
1.2055723
1.2055989
1.2056392
1.2056731
1.2056933
1.205687
1.205657
1.2055904
1.2055239
1.2053984
1.2052963
1.2051708
1.2051414
1.2050756
1.2056769
1.2228838
1.2214915
1.2197553
1.2178019
1.2158775
1.2140641
1.2123931
1.2108968
1.2096153
1.2085489
1.2076851
1.2070312
1.2065471
1.2062109
1.2060125
1.2058949
1.2058359
1.2058135
1.2058128
1.2058125
1.2058043
1.2057751
1.2057268
1.2056463
1.2055666
1.2054373
1.2053265
1.2051999
1.2051669
1.2051075
1.2057415
1.2230969
1.221858
1.2203196
1.2185439
1.2167462
1.2150133
1.2133795
1.2118805
1.2105556
1.2094197
1.2084739
1.2077264
1.207146
1.2067195
1.2064341
1.2062451
1.2061228
1.2060466
1.2060019
1.2059656
1.2059285
1.2058765
1.2058104
1.2057165
1.2056256
1.2054882
1.2053732
1.2052444
1.2052126
1.2051597
1.2058097
1.2231106
1.2220183
1.2206868
1.2191178
1.2174851
1.2158713
1.2143116
1.2128423
1.2115027
1.2103186
1.2093032
1.2084675
1.207797
1.2072806
1.2069032
1.2066356
1.2064462
1.2063118
1.2062185
1.2061422
1.2060723
1.2059938
1.2059065
1.2057964
1.2056912
1.2055452
1.2054228
1.2052911
1.2052581
1.2052124
1.2058901
1.2229664
1.2220112
1.2208819
1.219528
1.2180816
1.216615
1.2151607
1.213753
1.2124304
1.2112249
1.2101591
1.2092495
1.2084948
1.2078905
1.2074236
1.2070709
1.2068082
1.2066104
1.2064634
1.2063421
1.2062349
1.2061264
1.206015
1.2058864
1.2057654
1.2056098
1.2054797
1.205345
1.2053114
1.2052747
1.2059814
1.2227483
1.221962
1.2209875
1.2198175
1.2185529
1.2172444
1.2159156
1.2145952
1.2133184
1.2121191
1.2110256
1.2100601
1.209232
1.208544
1.2079905
1.2075531
1.2072096
1.2069433
1.2067381
1.2065671
1.2064185
1.2062762
1.2061377
1.2059885
1.2058498
1.2056832
1.2055444
1.205406
1.2053716
1.2053449
1.2060869
1.2224845
1.2219057
1.2210419
1.2200101
1.2189114
1.2177619
1.2165693
1.2153545
1.2141476
1.2129805
1.2118837
1.2108834
1.2099971
1.209235
1.2085984
1.2080788
1.2076538
1.2073121
1.2070443
1.2068194
1.2066251
1.2064452
1.2062765
1.2061039
1.2059454
1.2057663
1.2056176
1.2054751
1.2054396
1.2054247
1.206207
1.2220246
1.2216875
1.221022
1.2201247
1.2191678
1.218169
1.2171158
1.2160185
1.2149001
1.2137885
1.2127127
1.2117004
1.2107747
1.2099522
1.2092413
1.2086418
1.2081375
1.2077203
1.2073826
1.2071002
1.2068565
1.2066351
1.2064327
1.206234
1.2060535
1.2058603
1.2057006
1.2055533
1.2055164
1.2055151
1.2063425
1.2216058
1.221285
1.220792
1.2201295
1.2193257
1.2184672
1.2175503
1.2165763
1.2155599
1.2145228
1.2134904
1.2124895
1.2115457
1.2106802
1.2099077
1.2092347
1.2086561
1.2081657
1.2077546
1.2074097
1.2071135
1.2068472
1.2066079
1.2063802
1.2061754
1.2059664
1.2057943
1.2056416
1.205603
1.205617
1.206494
1.2212164
1.220989
1.2205796
1.2200117
1.2193573
1.2186459
1.217867
1.2170197
1.2161138
1.2151653
1.2141951
1.2132275
1.2122876
1.2113993
1.2105818
1.2098478
1.2092008
1.2086403
1.2081592
1.2077488
1.2073961
1.2070821
1.206803
1.2065438
1.2063123
1.2060858
1.2058999
1.2057411
1.2057005
1.2057314
1.2066617
1.2207955
1.2206205
1.2202964
1.2198796
1.2193795
1.2187723
1.218098
1.2173593
1.2165577
1.2157018
1.2148062
1.2138899
1.2129755
1.212086
1.2112434
1.2104648
1.2097605
1.2091358
1.2085891
1.2081161
1.2077041
1.2073398
1.2070186
1.2067255
1.2064654
1.2062196
1.2060186
1.2058529
1.2058096
1.205859
1.2068447
1.2204456
1.220333
1.220087
1.2197225
1.2192649
1.2187451
1.2181824
1.2175575
1.2168647
1.2161086
1.2152991
1.2144507
1.2135817
1.2127134
1.2118676
1.2110642
1.2103186
1.2096412
1.2090362
1.2085034
1.2080349
1.2076202
1.2072543
1.2069257
1.2066353
1.2063687
1.2061514
1.2059778
1.2059312
1.2059999
1.207041
1.2199868
1.2199168
1.2197254
1.2194306
1.2190661
1.2186395
1.2181587
1.2176262
1.2170318
1.2163731
1.2156544
1.214885
1.2140784
1.2132523
1.2124263
1.2116206
1.2108535
1.2101395
1.2094879
1.2089029
1.2083822
1.2079196
1.2075097
1.2071438
1.2068224
1.2065337
1.2062989
1.2061167
1.2060658
1.2061537
1.2072471
1.2194244
1.2193953
1.2192498
1.2190149
1.2187556
1.2184317
1.2180098
1.2175425
1.2170345
1.2164706
1.2158465
1.2151656
1.2144365
1.2136722
1.2128889
1.2121051
1.2113395
1.2106091
1.2099272
1.2093025
1.2087378
1.2082315
1.2077808
1.2073791
1.207026
1.2067144
1.2064615
1.2062699
1.2062134
1.2063194
1.2074577
1.2187206
1.2187316
1.2186342
1.2184491
1.2182246
1.2179952
1.2177073
1.2173096
1.2168572
1.2163759
1.2158489
1.2152658
1.2146283
1.2139441
1.2132254
1.2124878
1.2117485
1.2110251
1.2103334
1.2096856
1.2090894
1.2085479
1.2080615
1.2076273
1.2072449
1.2069103
1.2066387
1.2064371
1.2063735
1.2064948
1.2076654
1.2178673
1.2179081
1.2178503
1.2177156
1.2175415
1.217344
1.2171454
1.2169022
1.2165521
1.2161285
1.2156695
1.2151764
1.2146366
1.2140461
1.2134106
1.2127414
1.2120528
1.2113611
1.2106828
1.2100325
1.2094215
1.2088572
1.208344
1.2078827
1.207475
1.2071196
1.2068295
1.2066169
1.2065441
1.2066771
1.2078615
1.2168869
1.216947
1.2169186
1.2168247
1.2167
1.2165498
1.216374
1.2162021
1.2160303
1.2157682
1.2153839
1.214941
1.2144735
1.2139727
1.2134298
1.2128458
1.212229
1.2115926
1.2109518
1.2103215
1.2097155
1.2091447
1.2086171
1.2081376
1.2077104
1.207338
1.2070314
1.2068069
1.2067219
1.206862
1.2080359
1.2158447
1.2159165
1.215911
1.2158513
1.2157692
1.2156715
1.2155518
1.2154012
1.2152208
1.2150459
1.2148715
1.2145968
1.2141977
1.2137498
1.2132851
1.2127916
1.2122614
1.2117003
1.2111191
1.2105316
1.2099521
1.2093937
1.2088673
1.2083816
1.2079436
1.2075593
1.2072397
1.207003
1.2069011
1.2070426
1.2081792
1.2147744
1.2148497
1.2148604
1.2148277
1.2147791
1.2147203
1.2146478
1.2145566
1.2144409
1.2142943
1.2141201
1.2139474
1.2137338
1.2134148
1.2130219
1.2125957
1.2121491
1.2116748
1.2111708
1.2106461
1.2101137
1.2095872
1.2090796
1.2086021
1.2081645
1.2077756
1.2074473
1.2071982
1.2070732
1.2072046
1.2082844
1.2137039
1.2137759
1.2137952
1.2137811
1.213756
1.2137243
1.213683
1.2136285
1.2135574
1.2134647
1.2133435
1.2131948
1.2130505
1.2129073
1.2126779
1.2123359
1.2119432
1.2115348
1.2111072
1.2106561
1.2101874
1.2097109
1.2092394
1.2087857
1.2083614
1.207977
1.2076451
1.2073828
1.2072265
1.2073256
1.208339
1.2126954
1.2127614
1.2127859
1.2127857
1.2127786
1.2127681
1.2127517
1.2127265
1.2126901
1.2126395
1.212571
1.2124793
1.2123576
1.2122072
1.2120604
1.2119123
1.2116711
1.2113254
1.2109476
1.2105633
1.2101668
1.2097547
1.2093351
1.2089203
1.2085224
1.2081526
1.2078225
1.2075454
1.2073463
1.2073644
1.2083002
1.2117668
1.211824
1.2118498
1.2118583
1.2118631
1.2118666
1.211867
1.2118624
1.2118507
1.21183
1.2117976
1.2117508
1.2116855
1.2115965
1.2114788
1.2113359
1.2111932
1.2110068
1.2107219
1.2103926
1.2100598
1.2097172
1.2093604
1.2089972
1.2086378
1.2082921
1.2079691
1.2076757
1.2074194
1.2072913
1.2080352
1.2109584
1.2110055
1.2110299
1.2110427
1.2110538
1.2110649
1.2110747
1.2110817
1.2110845
1.2110816
1.2110708
1.2110498
1.211016
1.2109661
1.2108954
1.2107988
1.2106791
1.2105612
1.210416
1.2101892
1.2099095
1.209617
1.2093201
1.2090149
1.2087032
1.2083898
1.2080792
1.2077693
1.2074435
1.2071092
1.2073339
1.210278
1.2103144
1.2103353
1.210349
1.2103624
1.2103765
1.2103903
1.2104029
1.2104133
1.2104204
1.2104227
1.2104183
1.210405
1.2103801
1.2103409
1.2102829
1.2102014
1.2100981
1.2099995
1.2099021
1.2097352
1.2094921
1.2092344
1.208982
1.2087224
1.2084475
1.2081558
1.2078343
1.2074408
1.2068878
1.2058072
1.2097908
1.2098157
1.2098307
1.2098416
1.2098526
1.2098645
1.2098767
1.2098883
1.2098987
1.2099072
1.2099128
1.2099141
1.2099096
1.2098975
1.2098759
1.2098426
1.2097951
1.2097304
1.2096464
1.2095464
1.2094503
1.2093223
1.2091295
1.2089211
1.2087101
1.2084771
1.2082127
1.2078942
1.2074621
1.2068402
1.2063947
1.2094185
1.2094319
1.2094398
1.2094458
1.2094519
1.2094587
1.2094656
1.2094725
1.209479
1.2094847
1.2094889
1.209491
1.2094901
1.2094853
1.2094753
1.2094582
1.2094321
1.2093945
1.2093424
1.2092729
1.2091907
1.2091157
1.2090135
1.2088623
1.2086942
1.2085034
1.2082779
1.2079824
1.2075402
1.2067599
1.2050051
1.209195
1.209204
1.2092098
1.2092141
1.2092179
1.2092218
1.2092254
1.2092286
1.209231
1.2092324
1.2092325
1.2092308
1.2092269
1.2092198
1.2092089
1.2091931
1.2091721
1.2091457
1.2091125
1.2090705
1.2090185
1.2089616
1.2089211
1.2088538
1.2087287
1.2085896
1.2084338
1.2082241
1.2079126
1.2073936
1.2052918
1.2092302
1.2092332
1.2092342
1.2092342
1.2092335
1.2092322
1.2092304
1.209228
1.2092251
1.2092213
1.2092166
1.2092104
1.2092026
1.2091926
1.2091799
1.209164
1.209144
1.2091192
1.2090882
1.2090492
1.2090001
1.2089378
1.2088671
1.20881
1.2087661
1.2087042
1.2086325
1.208571
1.2085024
1.2086697
1.2078655
1.2089536
1.2089749
1.2089898
1.2089989
1.2090032
1.2090034
1.2089996
1.2089919
1.2089802
1.2089644
1.2089448
1.2089215
1.2088948
1.2088652
1.2088331
1.2087988
1.2087625
1.2087241
1.2086832
1.2086389
1.2085896
1.2085312
1.2084554
1.2083595
1.2082628
1.208219
1.2082285
1.2082592
1.2082926
1.2088935
1.2079796
1.1892864
1.1891558
1.1890557
1.1891099
1.1893382
1.1897597
1.1903777
1.191146
1.1920662
1.1931117
1.1942359
1.1954338
1.196607
1.1976813
1.1987754
1.1997734
1.2006606
1.2014606
1.2021544
1.2027464
1.2032362
1.2036201
1.2039103
1.204099
1.2042189
1.2042369
1.2042783
1.2041527
1.2041416
1.2036894
1.204022
1.1885912
1.1886269
1.18867
1.1888828
1.1892666
1.1898243
1.1905446
1.1914059
1.1923819
1.193454
1.1945851
1.1957555
1.1968604
1.1979008
1.198958
1.1999026
1.200748
1.2015124
1.2021829
1.202757
1.2032335
1.2036099
1.2038971
1.204086
1.2042075
1.204229
1.2042772
1.2041548
1.2041477
1.2037293
1.204091
1.1874404
1.1875519
1.1877549
1.1881799
1.1887805
1.1895315
1.1904299
1.1914304
1.192509
1.1936633
1.1948462
1.1960071
1.1970946
1.1981589
1.1991931
1.2000963
1.2009251
1.201671
1.2023233
1.20288
1.2033413
1.2037043
1.2039795
1.204158
1.2042704
1.2042861
1.2043321
1.2042069
1.2041971
1.2037959
1.2041452
1.1860794
1.1864177
1.1868847
1.1875613
1.1883814
1.1893156
1.190364
1.1914837
1.1926524
1.1938852
1.1950842
1.1962366
1.1973471
1.198426
1.1994302
1.2002931
1.2011118
1.2018362
1.2024663
1.2030012
1.2034426
1.2037877
1.2040475
1.2042135
1.2043157
1.2043254
1.2043661
1.2042417
1.2042291
1.2038569
1.2042147
1.1847057
1.1853362
1.1860875
1.187015
1.1880497
1.1891642
1.1903656
1.1916014
1.1928508
1.1941252
1.1953246
1.196498
1.1976214
1.1986934
1.1996505
1.2004883
1.2012922
1.2019923
1.2025998
1.2031137
1.2035365
1.2038658
1.2041126
1.2042684
1.2043625
1.2043677
1.2044053
1.2042792
1.2042673
1.203919
1.2042859
1.1834673
1.1844054
1.1854207
1.1865798
1.1878106
1.1890966
1.1904475
1.1917839
1.1930764
1.194377
1.1956034
1.1967839
1.1979123
1.1989552
1.1998597
1.2006945
1.201473
1.2021486
1.2027342
1.2032278
1.2036328
1.2039468
1.2041807
1.2043261
1.2044115
1.2044115
1.2044433
1.2043179
1.2043053
1.2039809
1.2043592
1.1823999
1.1836528
1.1849348
1.1862882
1.1876919
1.1891423
1.1905934
1.1919964
1.1933496
1.1946688
1.1959088
1.1970927
1.198213
1.1992065
1.2000738
1.2009033
1.201655
1.2023067
1.2028701
1.2033434
1.2037304
1.2040289
1.2042495
1.2043843
1.2044609
1.2044556
1.2044819
1.2043566
1.2043442
1.2040423
1.2044453
1.1816071
1.1830733
1.184603
1.1861741
1.1877439
1.1893014
1.1908214
1.1922765
1.1936673
1.1949957
1.1962426
1.1974274
1.198513
1.1994417
1.2002974
1.2011139
1.2018383
1.2024657
1.2030067
1.2034594
1.2038284
1.2041115
1.204319
1.2044432
1.2045111
1.2045005
1.2045207
1.2043962
1.2043838
1.2041029
1.2045008
1.1811703
1.1828335
1.1845421
1.1862564
1.187937
1.1895715
1.1911405
1.1926254
1.194031
1.195363
1.196613
1.1977718
1.1987865
1.1996806
1.2005404
1.2013269
1.202023
1.2026255
1.2031437
1.203576
1.2039271
1.2041947
1.2043893
1.204503
1.204562
1.204546
1.2045601
1.2044362
1.204424
1.2041629
1.2045773
1.1811607
1.1829509
1.1847588
1.1865443
1.1882845
1.189965
1.1915566
1.1930463
1.1944524
1.1957834
1.1970073
1.1980993
1.1990495
1.1999377
1.2007873
1.2015417
1.2022091
1.2027863
1.2032815
1.2036932
1.2040264
1.2042786
1.2044603
1.2045634
1.2046135
1.204592
1.2046001
1.2044768
1.2044646
1.204222
1.2046225
1.1815991
1.1834357
1.1852602
1.1870452
1.1887924
1.1904828
1.1920686
1.193549
1.1949404
1.1962332
1.197383
1.1983939
1.1993315
1.2002246
1.2010374
1.2017589
1.2023969
1.202948
1.2034199
1.2038109
1.2041261
1.204363
1.2045318
1.2046244
1.2046656
1.2046385
1.2046405
1.2045177
1.2045058
1.2042806
1.2046821
1.182314
1.1841751
1.1859805
1.1877486
1.1894887
1.1911364
1.1926608
1.1940983
1.195444
1.1966608
1.1977217
1.1987142
1.1996619
1.2005187
1.2012911
1.2019786
1.2025862
1.2031106
1.2035588
1.2039291
1.2042263
1.2044479
1.2046038
1.2046859
1.2047181
1.2046854
1.2046815
1.2045588
1.2045473
1.2043385
1.2047415
1.1830064
1.1849084
1.1867306
1.1885406
1.1903182
1.1918893
1.1932919
1.194642
1.1959193
1.197057
1.1980974
1.1991021
1.2000063
1.2008169
1.2015491
1.2022011
1.2027771
1.2032741
1.2036982
1.2040476
1.2043268
1.2045331
1.2046761
1.2047477
1.204771
1.2047326
1.2047228
1.2046002
1.2045892
1.2043956
1.2048066
1.1844745
1.1861397
1.1877465
1.1894351
1.1911787
1.1926679
1.1939796
1.1952467
1.19642
1.1975172
1.1985663
1.1995131
1.2003589
1.2011219
1.2018116
1.2024262
1.2029695
1.2034384
1.2038381
1.2041664
1.2044276
1.2046185
1.2047488
1.2048099
1.2048242
1.20478
1.2047644
1.2046417
1.204631
1.2044517
1.2048762
1.1875117
1.1888242
1.1901141
1.1912999
1.1923412
1.1935636
1.1948712
1.1960448
1.1971146
1.1981217
1.1990729
1.1999397
1.2007232
1.2014345
1.2020788
1.2026539
1.2031634
1.2036034
1.2039784
1.2042853
1.2045284
1.2047041
1.2048216
1.2048723
1.2048776
1.2048276
1.2048062
1.2046834
1.2046727
1.2045066
1.2049463
1.189978
1.1910822
1.192076
1.1930279
1.1939474
1.1949277
1.195959
1.1969478
1.1978793
1.1987653
1.1996034
1.2003852
1.2011003
1.2017548
1.2023504
1.2028843
1.2033586
1.203769
1.2041188
1.2044042
1.2046292
1.2047896
1.2048944
1.2049348
1.2049311
1.2048753
1.2048482
1.204725
1.204714
1.2045604
1.2050286
1.1928526
1.1936389
1.1942894
1.194951
1.1956407
1.1963698
1.1971396
1.1979199
1.1986886
1.1994388
1.2001604
1.2008504
1.2014901
1.2020826
1.2026267
1.2031172
1.2035552
1.2039351
1.2042592
1.204523
1.2047297
1.2048749
1.2049671
1.2049972
1.2049848
1.204923
1.2048902
1.2047666
1.204755
1.2046131
1.2050836
1.1960243
1.1964525
1.1967222
1.1970405
1.1974306
1.1978839
1.1983995
1.1989608
1.1995487
1.2001497
1.2007451
1.2013349
1.2018923
1.202418
1.2029075
1.2033525
1.2037528
1.2041015
1.2043995
1.2046414
1.2048299
1.2049599
1.2050396
1.2050595
1.2050385
1.2049708
1.2049322
1.2048081
1.2047958
1.2046649
1.2051522
1.1994772
1.1995132
1.1993654
1.1992994
1.1993487
1.1994984
1.1997447
1.200071
1.2004615
1.2009003
1.2013574
1.2018385
1.2023071
1.202761
1.2031927
1.2035901
1.2039513
1.2042678
1.2045393
1.2047592
1.2049293
1.2050442
1.2051115
1.2051215
1.2050924
1.2050186
1.2049741
1.2048496
1.2048366
1.2047159
1.2052168
1.2031587
1.2027837
1.2021957
1.2017169
1.2013936
1.2012125
1.2011718
1.201248
1.2014251
1.2016899
1.2019969
1.2023609
1.2027343
1.2031113
1.2034818
1.2038293
1.2041498
1.2044334
1.2046779
1.2048756
1.2050276
1.2051276
1.2051828
1.2051831
1.2051465
1.2050665
1.205016
1.2048911
1.2048777
1.2047666
1.2052947
1.2069948
1.2061991
1.2051646
1.2042601
1.2035444
1.2030096
1.2026712
1.2024892
1.2024388
1.2025201
1.2026642
1.2029019
1.2031734
1.2034678
1.2037734
1.2040686
1.204347
1.2045968
1.2048142
1.2049899
1.205124
1.2052095
1.205253
1.205244
1.2052012
1.2051148
1.2050579
1.2049329
1.2049191
1.2048172
1.2053449
1.2109748
1.2097395
1.2082597
1.2069313
1.2058151
1.2049071
1.2042648
1.2038153
1.203518
1.2034029
1.2033661
1.2034633
1.2036235
1.2038282
1.2040642
1.2043046
1.2045397
1.2047555
1.2049462
1.2051006
1.2052176
1.2052893
1.2053218
1.2053042
1.2052568
1.2051637
1.2051
1.2049755
1.2049613
1.2048686
1.2054086
1.2152577
1.2136194
1.2117444
1.20999
1.2084259
1.207091
1.2060962
1.2053116
1.2047227
1.2043763
1.2041244
1.204055
1.2040875
1.2041916
1.2043521
1.2045348
1.2047258
1.204908
1.2050728
1.2052071
1.2053083
1.2053672
1.2053894
1.2053637
1.2053143
1.2052138
1.2051428
1.2050191
1.2050041
1.2049207
1.2054718
1.2193416
1.2177135
1.215852
1.2137737
1.2117387
1.2099114
1.2083675
1.207074
1.2061355
1.2054846
1.2049729
1.2047015
1.2045835
1.2045725
1.2046489
1.2047692
1.2049135
1.2050607
1.2051993
1.2053133
1.2053985
1.2054448
1.2054569
1.205423
1.2053741
1.2052658
1.2051874
1.2050644
1.2050481
1.2049747
1.2055445
1.1904508
1.1904572
1.1903818
1.1903732
1.19049
1.1907447
1.1911731
1.1917465
1.1924794
1.1933525
1.1943236
1.1953919
1.1964787
1.1975005
1.198547
1.1995253
1.2004092
1.20122
1.2019358
1.202549
1.2030628
1.2034712
1.2037845
1.2039933
1.2041298
1.204159
1.2042048
1.2040801
1.2040691
1.203598
1.2039203
1.1907876
1.190776
1.1907729
1.1908171
1.1909202
1.1911467
1.1915048
1.1920151
1.1926838
1.1934963
1.1944155
1.1954338
1.1964832
1.1974901
1.1985152
1.1994782
1.2003561
1.2011655
1.2018846
1.2024989
1.2030144
1.2034269
1.2037446
1.2039576
1.2040982
1.2041306
1.2041718
1.204051
1.204041
1.2035572
1.2038748
1.1909416
1.1909922
1.1910523
1.1911358
1.19127
1.1914972
1.1918318
1.1923035
1.1929203
1.1936759
1.1945419
1.1955068
1.1965125
1.1974958
1.1984964
1.1994426
1.2003142
1.2011178
1.2018349
1.2024496
1.2029653
1.2033814
1.2037029
1.2039199
1.2040644
1.2040997
1.2041364
1.2040176
1.2040108
1.2035095
1.2038032
1.1911602
1.1912801
1.1913905
1.1915011
1.1916491
1.1918697
1.1921837
1.1926168
1.1931807
1.1938756
1.1946825
1.195589
1.1965466
1.1974997
1.1984728
1.1994008
1.2002643
1.2010624
1.2017771
1.2023943
1.202913
1.2033322
1.2036581
1.2038795
1.2040281
1.2040667
1.2040986
1.2039817
1.2039793
1.2034581
1.203733
1.1913938
1.1915646
1.191714
1.191852
1.192013
1.1922303
1.1925274
1.1929271
1.1934438
1.1940822
1.1948311
1.1956793
1.1965872
1.1975065
1.198449
1.1993569
1.2002098
1.2010018
1.2017132
1.2023331
1.2028572
1.2032791
1.2036098
1.203836
1.203989
1.2040312
1.2040591
1.2039436
1.203946
1.2034031
1.2036614
1.1916069
1.1918102
1.1919913
1.1921581
1.192338
1.1925603
1.1928484
1.1932235
1.1937017
1.1942911
1.1949865
1.1957793
1.196638
1.197521
1.1984306
1.1993161
1.2001557
1.2009399
1.2016476
1.2022687
1.2027973
1.2032225
1.2035581
1.2037894
1.203947
1.203993
1.2040184
1.203903
1.2039107
1.2033457
1.203593
1.1917979
1.1920253
1.1922334
1.1924273
1.1926286
1.1928615
1.1931473
1.1935059
1.1939539
1.1945017
1.1951488
1.1958898
1.1967001
1.1975451
1.1984201
1.199281
1.2001047
1.2008789
1.2015819
1.2022029
1.2027342
1.2031629
1.2035036
1.20374
1.2039023
1.2039522
1.2039769
1.2038604
1.2038734
1.2032873
1.2035287
1.191973
1.1922211
1.1924528
1.1926712
1.1928937
1.1931397
1.1934279
1.1937762
1.1942009
1.1947136
1.1953177
1.1960103
1.1967738
1.1975794
1.1984186
1.1992525
1.2000581
1.2008201
1.2015168
1.2021365
1.2026694
1.2031008
1.2034464
1.2036879
1.203855
1.203909
1.2039345
1.203816
1.2038342
1.2032289
1.2034689
1.1921401
1.1924059
1.1926574
1.1928976
1.1931402
1.1934004
1.1936939
1.1940365
1.1944434
1.1949268
1.1954926
1.1961406
1.1968589
1.1976245
1.1984267
1.1992315
1.2000167
1.2007642
1.2014529
1.2020682
1.2026027
1.2030385
1.2033869
1.2036333
1.2038051
1.2038632
1.2038911
1.2037701
1.2037933
1.203172
1.2034146
1.1923109
1.1925855
1.1928497
1.1931116
1.1933741
1.1936488
1.1939492
1.1942892
1.1946826
1.1951415
1.1956734
1.1962805
1.1969555
1.1976809
1.1984451
1.1992191
1.1999813
1.2007122
1.2013908
1.2020004
1.2025347
1.2029747
1.2033251
1.2035762
1.2037527
1.2038151
1.2038464
1.2037231
1.2037507
1.2031161
1.2033621
1.1924814
1.1927625
1.1930497
1.1933277
1.1936049
1.1938919
1.1941991
1.194538
1.1949208
1.1953589
1.1958606
1.1964301
1.1970637
1.1977489
1.1984746
1.1992161
1.1999527
1.2006649
1.2013312
1.2019341
1.2024665
1.2029084
1.2032609
1.2035168
1.2036978
1.2037645
1.2038
1.2036749
1.2037062
1.2030615
1.2033242
1.1926685
1.192972
1.1932704
1.1935561
1.1938424
1.1941379
1.1944499
1.1947875
1.1951609
1.1955806
1.1960551
1.1965898
1.1971839
1.1978291
1.1985157
1.1992232
1.1999321
1.2006232
1.2012749
1.2018695
1.2023985
1.2028407
1.2031945
1.2034549
1.2036404
1.2037114
1.2037516
1.2036255
1.2036597
1.2030079
1.2032226
1.1929143
1.1932174
1.1935139
1.1938029
1.1940945
1.1943945
1.1947081
1.1950427
1.1954066
1.1958089
1.1962581
1.1967602
1.1973165
1.1979221
1.1985693
1.1992414
1.1999204
1.200588
1.201223
1.201807
1.202329
1.2027714
1.2031287
1.2033909
1.2035803
1.2036557
1.2037007
1.2035746
1.2036111
1.2029554
1.2031534
1.1932061
1.1934944
1.1937878
1.1940771
1.1943692
1.1946689
1.1949802
1.1953089
1.1956618
1.1960466
1.1964713
1.1969421
1.1974618
1.1980284
1.198636
1.1992714
1.1999186
1.2005602
1.2011761
1.2017474
1.2022605
1.2027013
1.2030619
1.2033246
1.2035178
1.2035974
1.2036471
1.2035218
1.2035602
1.2029041
1.2030888
1.193546
1.1938202
1.1941058
1.1943887
1.1946747
1.1949683
1.1952724
1.1955913
1.1959305
1.1962966
1.1966966
1.1971366
1.1976206
1.1981484
1.1987162
1.1993139
1.1999275
1.2005408
1.2011353
1.2016915
1.2021949
1.202632
1.2029925
1.2032562
1.2034528
1.2035365
1.2035908
1.2034669
1.2035069
1.2028543
1.2030406
1.1939449
1.1942014
1.1944728
1.1947427
1.1950165
1.195298
1.1955895
1.1958942
1.1962163
1.1965615
1.1969357
1.1973449
1.1977934
1.1982827
1.1988106
1.1993695
1.1999478
1.2005309
1.2011012
1.2016402
1.2021321
1.2025634
1.2029218
1.2031858
1.2033855
1.2034731
1.2035316
1.2034097
1.2034511
1.2028041
1.2028867
1.194405
1.1946383
1.1948897
1.195141
1.1953968
1.1956607
1.1959344
1.1962202
1.1965216
1.1968431
1.19719
1.1975677
1.1979808
1.1984316
1.1989192
1.1994386
1.1999803
1.2005311
1.201075
1.2015942
1.2020724
1.202494
1.2028499
1.2031167
1.203316
1.2034072
1.2034696
1.2033499
1.2033927
1.2027537
1.202816
1.1949149
1.1951224
1.1953501
1.195579
1.1958129
1.1960549
1.1963066
1.1965696
1.1968469
1.1971421
1.1974599
1.1978053
1.1981827
1.1985949
1.1990423
1.1995216
1.2000254
1.2005422
1.2010574
1.2015544
1.2020166
1.2024265
1.2027782
1.203047
1.2032447
1.203339
1.2034047
1.2032876
1.2033319
1.2027026
1.2027641
1.1954614
1.1956417
1.1958436
1.1960481
1.1962577
1.1964753
1.1967022
1.1969398
1.1971906
1.1974576
1.197745
1.1980572
1.1983986
1.1987723
1.1991795
1.1996184
1.2000832
1.2005645
1.2010492
1.2015215
1.2019655
1.202363
1.2027081
1.202975
1.2031713
1.2032685
1.2033371
1.2032229
1.2032686
1.2026517
1.2027423
1.1960232
1.1961777
1.1963543
1.1965345
1.1967199
1.1969126
1.197114
1.1973252
1.1975484
1.1977864
1.1980428
1.1983217
1.1986272
1.1989627
1.19933
1.1997285
1.2001539
1.2005985
1.2010509
1.2014964
1.2019199
1.2023032
1.2026393
1.2029019
1.2030964
1.2031961
1.2032669
1.2031559
1.2032029
1.2026025
1.2027409
1.1965819
1.1967129
1.1968657
1.1970232
1.1971856
1.1973548
1.1975318
1.1977176
1.1979141
1.1981237
1.1983497
1.198596
1.1988665
1.1991646
1.1994927
1.1998511
1.2002369
1.2006441
1.2010627
1.2014797
1.2018804
1.2022474
1.2025702
1.2028286
1.2030237
1.203122
1.2031943
1.2030869
1.2031349
1.2025546
1.2027109
1.1971111
1.197224
1.1973574
1.1974961
1.1976394
1.1977885
1.1979441
1.1981072
1.1982794
1.1984627
1.1986604
1.1988758
1.199113
1.1993754
1.1996657
1.199985
1.2003316
1.200701
1.2010849
1.2014717
1.2018476
1.2021961
1.2025045
1.2027569
1.2029499
1.2030461
1.2031193
1.2030159
1.2030648
1.2025057
1.2024425
1.1975941
1.1976931
1.1978117
1.1979362
1.1980652
1.198199
1.1983381
1.198483
1.1986349
1.1987958
1.1989684
1.1991561
1.1993627
1.1995918
1.1998463
1.2001281
1.2004366
1.2007686
1.2011173
1.2014727
1.2018221
1.20215
1.2024434
1.2026871
1.2028746
1.2029691
1.2030425
1.2029434
1.202993
1.2024591
1.202404
1.1980484
1.198134
1.198238
1.1983487
1.1984643
1.1985845
1.1987094
1.1988391
1.1989743
1.1991164
1.1992677
1.1994314
1.1996109
1.1998098
1.2000315
1.2002782
1.2005502
1.2008456
1.2011592
1.2014825
1.2018042
1.2021098
1.2023862
1.2026171
1.2027986
1.2028944
1.2029641
1.2028696
1.20292
1.2024164
1.2024135
1.1984389
1.1985152
1.1986091
1.1987107
1.1988177
1.1989294
1.1990452
1.1991648
1.1992883
1.1994167
1.1995516
1.1996958
1.1998525
1.2000254
1.2002177
1.2004322
1.2006702
1.2009306
1.2012098
1.2015009
1.2017938
1.2020757
1.2023335
1.2025497
1.2027241
1.2028203
1.2028842
1.2027948
1.2028466
1.2023799
1.2024955
1.1987995
1.1988655
1.1989482
1.1990397
1.1991375
1.1992407
1.1993484
1.1994599
1.1995746
1.1996927
1.1998153
1.1999445
1.200083
1.2002341
1.2004011
1.2005872
1.200794
1.2010217
1.2012679
1.2015271
1.201791
1.202048
1.2022857
1.2024874
1.2026521
1.2027443
1.2028036
1.2027195
1.202773
1.2023478
1.2026401
1.1991139
1.1991713
1.1992442
1.1993269
1.1994168
1.1995131
1.1996147
1.1997203
1.1998291
1.1999404
1.2000547
1.2001732
1.200298
1.2004319
1.2005781
1.2007397
1.2009189
1.2011167
1.2013318
1.2015603
1.2017953
1.2020268
1.2022432
1.2024291
1.2025804
1.2026679
1.2027255
1.2026441
1.2026991
1.2023147
1.2028317
1.1993933
1.1994438
1.1995073
1.1995809
1.1996627
1.199752
1.1998476
1.1999482
1.2000524
1.2001591
1.2002679
1.2003792
1.2004942
1.2006153
1.2007451
1.2008865
1.201042
1.2012132
1.2013998
1.2015992
1.201806
1.2020118
1.2022062
1.2023751
1.2025116
1.2025938
1.202648
1.2025687
1.2026242
1.2022777
1.2030432
1.1996405
1.1996862
1.1997415
1.1998059
1.1998793
1.1999611
1.2000505
1.200146
1.2002461
1.2003493
1.2004545
1.2005612
1.2006698
1.2007818
1.2008993
1.2010247
1.2011605
1.2013087
1.2014698
1.2016422
1.2018221
1.2020026
1.2021747
1.2023257
1.2024477
1.2025221
1.2025695
1.202495
1.2025486
1.2022331
1.2032288
1.1998707
1.1999047
1.1999545
1.2000105
1.2000746
1.2001478
1.2002298
1.2003192
1.2004145
1.2005141
1.2006162
1.2007197
1.2008241
1.20093
1.2010386
1.2011519
1.201272
1.2014009
1.2015397
1.2016879
1.2018426
1.2019988
1.2021486
1.202281
1.202388
1.2024518
1.2024927
1.2024245
1.2024745
1.2021793
1.203321
1.2000887
1.2001097
1.2001467
1.2001968
1.2002525
1.2003165
1.2003899
1.2004721
1.2005616
1.2006567
1.2007554
1.2008562
1.2009577
1.2010595
1.201162
1.2012663
1.2013743
1.2014876
1.2016076
1.2017344
1.2018662
1.2019994
1.2021275
1.2022413
1.2023327
1.202386
1.2024183
1.2023538
1.2024038
1.202119
1.2032496
1.2002883
1.2003059
1.2003301
1.2003672
1.2004166
1.2004721
1.2005363
1.20061
1.2006922
1.2007815
1.2008759
1.2009733
1.2010721
1.2011709
1.2012691
1.2013671
1.201466
1.201567
1.2016715
1.20178
1.2018915
1.2020035
1.202111
1.2022065
1.2022821
1.202325
1.2023469
1.2022849
1.2023324
1.202059
1.2031394
1.2004714
1.2004843
1.2005044
1.2005295
1.2005662
1.2006154
1.2006711
1.2007356
1.2008095
1.2008917
1.2009805
1.2010738
1.2011694
1.2012654
1.2013604
1.201454
1.2015462
1.2016379
1.20173
1.2018232
1.2019172
1.2020102
1.2020985
1.2021763
1.2022365
1.2022685
1.2022803
1.2022213
1.20226
1.2020046
1.2029863
1.2006426
1.2006505
1.2006652
1.2006857
1.2007109
1.2007475
1.2007967
1.2008527
1.2009175
1.2009914
1.2010732
1.201161
1.2012524
1.2013451
1.2014372
1.2015273
1.2016146
1.2016993
1.2017818
1.2018627
1.2019418
1.2020183
1.2020894
1.2021506
1.2021961
1.2022171
1.2022191
1.2021616
1.2021917
1.2019578
1.2030144
1.2008009
1.2008046
1.2008139
1.2008288
1.200849
1.2008744
1.2009114
1.2009609
1.2010173
1.2010823
1.2011562
1.2012373
1.2013234
1.2014121
1.201501
1.201588
1.2016716
1.201751
1.2018262
1.2018973
1.2019644
1.2020268
1.2020828
1.202129
1.2021607
1.202171
1.2021636
1.2021073
1.2021275
1.2019171
1.2029258
1.2009463
1.2009467
1.2009516
1.2009612
1.2009759
1.2009963
1.2010224
1.2010603
1.2011102
1.201167
1.2012322
1.2013056
1.2013853
1.2014689
1.2015538
1.2016374
1.2017177
1.2017931
1.2018628
1.2019265
1.201984
1.2020349
1.202078
1.2021111
1.2021304
1.2021307
1.2021144
1.2020589
1.2020676
1.2018833
1.2028647
1.2010777
1.2010756
1.2010769
1.201082
1.2010915
1.2011063
1.2011266
1.2011535
1.2011925
1.2012429
1.2012999
1.2013651
1.2014379
1.2015158
1.2015962
1.2016764
1.2017536
1.2018258
1.2018914
1.2019496
1.2019998
1.2020416
1.2020743
1.2020963
1.2021048
1.2020961
1.2020719
1.2020167
1.2020139
1.2018566
1.202795
1.2011969
1.2011929
1.2011915
1.2011932
1.2011984
1.2012082
1.2012236
1.2012448
1.2012737
1.2013127
1.2013612
1.2014185
1.2014837
1.2015551
1.2016303
1.2017064
1.2017805
1.2018498
1.2019123
1.2019665
1.2020114
1.2020465
1.2020711
1.2020841
1.2020837
1.2020673
1.2020362
1.2019812
1.2019682
1.2018369
1.2027774
1.2013006
1.2012951
1.2012916
1.2012904
1.201292
1.2012973
1.2013075
1.2013231
1.201344
1.2013754
1.201418
1.2014674
1.2015245
1.2015886
1.2016577
1.201729
1.2017995
1.201866
1.2019259
1.2019773
1.2020186
1.2020489
1.2020677
1.2020741
1.2020667
1.202044
1.2020074
1.2019528
1.2019325
1.201823
1.2025805
1.2013923
1.2013854
1.2013799
1.2013763
1.201375
1.2013766
1.2013822
1.2013929
1.2014092
1.2014314
1.2014639
1.2015071
1.2015565
1.2016135
1.2016767
1.2017433
1.2018102
1.2018742
1.2019322
1.2019818
1.202021
1.2020486
1.2020636
1.2020655
1.2020533
1.202026
1.2019853