/*--------------------------------*- C++ -*----------------------------------*\
| =========                 |                                                 |
| \\      /  F ield         | OpenFOAM: The Open Source CFD Toolbox           |
|  \\    /   O peration     | Version:  2406                                  |
|   \\  /    A nd           | Website:  www.openfoam.com                      |
|    \\/     M anipulation  |                                                 |
\*---------------------------------------------------------------------------*/
FoamFile
{
    version     2.0;
    format      ascii;
    arch        "LSB;label=32;scalar=64";
    class       volScalarField;
    location    "0.03";
    object      T;
}
// * * * * * * * * * * * * * * * * * * * * * * * * * * * * * * * * * * * * * //

dimensions      [0 0 0 1 0 0 0];

internalField   nonuniform List<scalar> 
8260
(
292.24786
292.24705
292.25293
292.27065
292.29877
292.33526
292.37822
292.42569
292.47536
292.52575
292.57544
292.62289
292.66727
292.70819
292.74549
292.77937
292.81018
292.83837
292.86442
292.88887
292.91222
292.93501
292.95777
292.98108
293.00549
293.03166
293.05999
293.09103
293.12607
293.16748
293.22637
292.34679
292.33956
292.34017
292.35003
292.36819
292.39404
292.42664
292.4646
292.50608
292.54954
292.59349
292.63642
292.67735
292.71564
292.75099
292.78344
292.81321
292.84064
292.86614
292.89017
292.91321
292.93577
292.95835
292.98152
293.00582
293.03191
293.06018
293.09113
293.12601
293.16688
293.2238
292.44843
292.43732
292.43204
292.43387
292.44249
292.45801
292.4802
292.50826
292.54089
292.57667
292.61417
292.65194
292.68886
292.7241
292.75718
292.78797
292.81653
292.84309
292.86795
292.89153
292.91424
292.93655
292.95894
292.98197
293.00617
293.03216
293.06037
293.09124
293.12594
293.16618
293.22104
292.54828
292.53372
292.52307
292.5178
292.51807
292.52434
292.53686
292.55536
292.57907
292.60688
292.63752
292.66965
292.70211
292.73392
292.7644
292.79328
292.82045
292.84599
292.87013
292.89317
292.91548
292.9375
292.95967
292.98253
293.0066
293.03249
293.06061
293.09139
293.12589
293.16541
293.21613
292.64336
292.62606
292.61117
292.60009
292.59335
292.59162
292.59547
292.60508
292.62015
292.63998
292.66356
292.68971
292.71731
292.7453
292.77287
292.79954
292.82509
292.84944
292.8727
292.89511
292.91695
292.93861
292.96052
292.98317
293.00709
293.03286
293.06089
293.09157
293.12584
293.16456
293.21085
292.7319
292.71288
292.69504
292.67959
292.66725
292.65885
292.65519
292.65678
292.66376
292.67581
292.69228
292.71223
292.73461
292.75839
292.7827
292.80687
292.83054
292.85351
292.87575
292.8974
292.91868
292.93993
292.96152
292.98394
293.00768
293.0333
293.06123
293.09179
293.12581
293.16364
293.20525
292.8124
292.79265
292.77306
292.75467
292.73824
292.72466
292.71484
292.70954
292.70922
292.71397
292.7235
292.73716
292.75409
292.77336
292.79405
292.81542
292.83695
292.85831
292.87935
292.90011
292.92073
292.94148
292.9627
292.98483
293.00836
293.03383
293.06163
293.09207
293.12581
293.16264
293.19936
292.88338
292.8636
292.84342
292.82352
292.80456
292.7874
292.77296
292.76213
292.75561
292.75382
292.75683
292.76435
292.77576
292.79029
292.80707
292.82533
292.84445
292.86396
292.88361
292.90332
292.92316
292.94332
292.9641
292.9859
293.00918
293.03445
293.06211
293.09243
293.12586
293.16158
293.19324
292.94406
292.92484
292.90504
292.88488
292.86481
292.84558
292.82808
292.8132
292.80179
292.7945
292.79171
292.79348
292.79949
292.8092
292.82187
292.83674
292.85317
292.8706
292.88863
292.90713
292.92605
292.94551
292.96576
292.98715
293.01014
293.03519
293.06269
293.09287
293.12597
293.16048
293.18698
292.99491
292.97674
292.95772
292.9381
292.91803
292.89805
292.87891
292.86147
292.84657
292.835
292.82739
292.82405
292.82502
292.83001
292.83847
292.84977
292.86326
292.87834
292.89455
292.91163
292.92947
292.94811
292.96773
292.98865
293.01128
293.03608
293.0634
293.09344
293.12618
293.1594
293.18069
293.03557
293.01928
293.00171
292.98308
292.96375
292.94404
292.9245
292.90583
292.88882
292.87429
292.86298
292.85543
292.85194
292.8525
292.85684
292.86447
292.87483
292.88733
292.90149
292.91695
292.93352
292.95119
292.97006
292.99042
293.01264
293.03714
293.06426
293.09415
293.12653
293.15838
293.17452
293.06666
293.0522
293.03653
293.01973
293.00188
292.98324
292.96425
292.94548
292.92761
292.9114
292.89759
292.88685
292.87969
292.87635
292.87681
292.88082
292.88794
292.89768
292.90956
292.92319
292.93831
292.95484
292.97284
292.99253
293.01425
293.03841
293.0653
293.09506
293.12706
293.15751
293.16867
293.08988
293.07733
293.06357
293.04858
293.03245
293.01544
292.9978
292.97991
292.96228
292.94555
292.93041
292.91758
292.90765
292.90109
292.89811
292.89869
292.90259
292.90946
292.91889
292.93047
292.94394
292.95916
292.97613
292.99503
293.01618
293.03993
293.06658
293.0962
293.12786
293.15691
293.16336
293.1064
293.09563
293.0838
293.07089
293.05691
293.0419
293.02599
293.00949
292.99279
292.9764
292.9609
292.94696
292.93522
292.92622
292.92037
292.91787
292.91871
292.9227
292.92954
292.9389
292.95052
292.96424
292.98002
292.998
293.01847
293.04176
293.06815
293.09765
293.12901
293.15675
293.15888
293.11893
293.1098
293.0997
293.08861
293.07651
293.0634
293.04936
293.03455
293.01925
293.00382
292.98873
292.97454
292.96183
292.9512
292.94316
292.93806
292.93611
292.93731
292.94153
292.94855
292.95815
292.97018
292.98459
293.00151
293.02118
293.04394
293.07005
293.09947
293.13064
293.15723
293.15558
293.12882
293.12105
293.11244
293.10294
293.09249
293.08114
293.06894
293.05593
293.04222
293.02809
293.01389
293.00006
292.9871
292.97557
292.966
292.95887
292.95453
292.95316
292.95482
292.95943
292.96687
292.97705
292.98993
293.00562
293.02439
293.04654
293.07237
293.10177
293.1329
293.15866
293.15389
293.13726
293.13063
293.12329
293.11517
293.10622
293.09639
293.08574
293.07437
293.06229
293.0496
293.03654
293.02344
293.01074
292.99889
292.98843
292.97984
292.97357
292.96997
292.96924
292.97148
292.9767
292.98489
292.99608
293.01041
293.02814
293.04962
293.07516
293.10464
293.13599
293.16141
293.15432
293.14462
293.13897
293.13269
293.12573
293.11804
293.10958
293.10031
293.09028
293.07962
293.06839
293.05664
293.04455
293.03247
293.02078
293.00995
293.00046
292.99279
292.98736
292.98453
292.98455
292.98756
292.9937
293.00309
293.01591
293.03249
293.05324
293.07851
293.10821
293.14015
293.16596
293.15754
293.15067
293.14587
293.14053
293.1346
293.12802
293.12076
293.11277
293.10401
293.09448
293.08437
293.07387
293.06302
293.05189
293.04076
293.03004
293.02017
293.01161
293.00483
293.00028
292.99832
292.99927
293.00337
293.01089
293.02212
293.03746
293.05741
293.08246
293.11261
293.14567
293.17287
293.16442
293.15464
293.1506
293.14609
293.14108
293.13551
293.12934
293.12255
293.1151
293.10698
293.09812
293.08859
293.07865
293.06853
293.05831
293.04813
293.03835
293.02941
293.02178
293.01595
293.01237
293.01149
293.01369
293.01937
293.02897
293.04301
293.06215
293.08705
293.11794
293.15288
293.18289
293.17618
293.15608
293.15271
293.14896
293.14476
293.14009
293.13491
293.12916
293.12284
293.11592
293.1084
293.10028
293.09154
293.08233
293.07295
293.06356
293.0543
293.04546
293.03749
293.03087
293.02612
293.02375
293.0243
293.02827
293.03628
293.04903
293.06736
293.09224
293.12429
293.16211
293.19697
293.19465
293.15468
293.15193
293.14886
293.14542
293.14158
293.13731
293.13256
293.12731
293.12152
293.11518
293.10828
293.10083
293.0928
293.08429
293.07561
293.06709
293.05885
293.05109
293.04425
293.03884
293.03545
293.03467
293.03719
293.04374
293.05526
293.07285
293.09788
293.13161
293.17367
293.21636
293.22281
293.14976
293.14755
293.14508
293.14231
293.13921
293.13576
293.13191
293.12764
293.12291
293.11771
293.11202
293.10584
293.0992
293.09211
293.08457
293.07673
293.06903
293.06181
293.05527
293.04976
293.04583
293.04416
293.04553
293.05086
293.06128
293.07823
293.10362
293.13962
293.18765
293.24264
293.2661
293.14134
293.13962
293.13768
293.13551
293.13308
293.13036
293.12732
293.12393
293.12017
293.11602
293.11144
293.10643
293.101
293.09516
293.08898
293.08252
293.07584
293.06926
293.06323
293.05804
293.05407
293.05196
293.05257
293.05694
293.06643
293.08284
293.10871
293.14755
293.20351
293.27733
293.33545
293.12912
293.12783
293.12638
293.12474
293.12291
293.12086
293.11856
293.116
293.11314
293.10997
293.10646
293.10261
293.09838
293.0938
293.08889
293.08369
293.07829
293.07279
293.06746
293.06278
293.05918
293.05711
293.05737
293.06108
293.06977
293.08562
293.11189
293.15369
293.21912
293.32
293.45357
293.1128
293.11191
293.11091
293.10977
293.1085
293.10706
293.10545
293.10365
293.10163
293.09938
293.09687
293.09409
293.09102
293.08767
293.08404
293.08015
293.07606
293.07187
293.06765
293.06366
293.06047
293.0587
293.05893
293.06218
293.07006
293.08505
293.1111
293.15491
293.22903
293.361
293.65168
293.09126
293.09078
293.09022
293.0896
293.08888
293.08807
293.08715
293.08611
293.08492
293.08358
293.08207
293.08038
293.07847
293.07635
293.07401
293.07146
293.06871
293.06584
293.06296
293.06021
293.0578
293.05625
293.05638
293.05909
293.06586
293.07924
293.10354
293.14652
293.22352
293.3642
293.57976
293.06617
293.06608
293.06596
293.06582
293.06565
293.06545
293.0652
293.06489
293.06451
293.06406
293.06351
293.06284
293.06203
293.06108
293.05995
293.05863
293.05712
293.05546
293.05369
293.05194
293.05035
293.04919
293.04902
293.05079
293.05579
293.06628
293.08629
293.1237
293.19643
293.35387
293.75256
293.039
293.03913
293.03928
293.03944
293.03962
293.03983
293.04005
293.04028
293.04052
293.04076
293.04099
293.0412
293.04137
293.04147
293.04147
293.04136
293.04109
293.04066
293.04004
293.03927
293.0384
293.03756
293.03697
293.03726
293.03972
293.04569
293.058
293.08219
293.1317
293.25059
293.61335
293.02063
293.02088
293.02117
293.02149
293.02185
293.02224
293.02266
293.02312
293.0236
293.02411
293.02462
293.02514
293.02563
293.02609
293.02648
293.02679
293.02699
293.02706
293.02698
293.02675
293.02639
293.02594
293.02542
293.02492
293.02463
293.02567
293.02915
293.0363
293.05109
293.08253
293.14946
293.01979
293.02016
293.02056
293.02098
293.02142
293.02189
293.02238
293.02289
293.02341
293.02393
293.02445
293.02497
293.02546
293.02591
293.02631
293.02663
293.02686
293.02696
293.02691
293.0267
293.02634
293.02586
293.02533
293.02473
293.02393
293.02279
293.02137
293.02059
293.02079
293.02071
293.01865
293.50564
293.39352
293.28445
293.18012
293.08275
292.99471
292.91969
292.85849
292.81215
292.78056
292.76261
292.75621
292.75982
292.77107
292.78656
292.80528
292.82577
292.8469
292.86823
292.88959
292.91103
292.93278
292.95513
292.97854
293.00341
293.03045
293.0602
293.09413
293.13437
293.19008
293.30955
293.38006
293.26353
293.16019
293.06583
292.98079
292.90694
292.84643
292.79915
292.76569
292.74551
292.73707
292.73846
292.74815
292.76348
292.78187
292.8027
292.82452
292.84648
292.86832
292.88999
292.9116
292.93343
292.9558
292.97919
293.004
293.03096
293.06058
293.09432
293.1343
293.18962
293.30709
293.25372
293.14794
293.05404
292.96881
292.89412
292.83208
292.78346
292.74802
292.72565
292.7152
292.71494
292.72315
292.73788
292.7565
292.77751
292.80022
292.82317
292.84587
292.8682
292.89017
292.91197
292.93391
292.95632
292.97972
293.00449
293.03138
293.06089
293.09444
293.13417
293.18908
293.30509
293.11364
293.02025
292.93817
292.86599
292.80551
292.75789
292.72289
292.69994
292.68864
292.6876
292.69522
292.70958
292.72851
292.75019
292.77364
292.79801
292.82193
292.84531
292.8681
292.89036
292.91234
292.93438
292.95683
292.98022
293.00496
293.03177
293.06118
293.09454
293.13402
293.18849
293.30352
292.95755
292.88128
292.81627
292.76139
292.71784
292.68596
292.66501
292.6546
292.65427
292.66246
292.67744
292.69713
292.71995
292.74456
292.77029
292.79605
292.82084
292.84485
292.86803
292.89056
292.9127
292.93482
292.95731
292.98069
293.00539
293.03213
293.06143
293.09461
293.13383
293.18784
293.3024
292.7895
292.73605
292.69239
292.65763
292.63251
292.61694
292.61024
292.61236
292.62287
292.63965
292.66111
292.68575
292.71219
292.73962
292.76738
292.79425
292.81987
292.84443
292.86799
292.89075
292.91303
292.93523
292.95775
292.98112
293.00578
293.03246
293.06165
293.09464
293.1336
293.18714
293.30177
292.61997
292.59147
292.57052
292.55692
292.55061
292.55139
292.55928
292.57377
292.59408
292.61872
292.64623
292.67541
292.70525
292.73532
292.76476
292.79262
292.81899
292.84406
292.86795
292.89092
292.91333
292.9356
292.95815
292.98151
293.00613
293.03274
293.06183
293.09464
293.13335
293.18639
293.29879
292.45239
292.45142
292.4539
292.4608
292.47291
292.49019
292.5122
292.5383
292.56781
292.5997
292.63274
292.66607
292.69916
292.7316
292.76238
292.79115
292.81821
292.84373
292.86791
292.89108
292.9136
292.93593
292.9585
292.98185
293.00644
293.03299
293.06198
293.09461
293.13306
293.18557
293.29627
292.29135
292.31677
292.3429
292.37078
292.40117
292.43406
292.46912
292.50596
292.544
292.58247
292.62054
292.6578
292.69395
292.72827
292.76016
292.78982
292.8175
292.84342
292.86787
292.89121
292.91384
292.93622
292.95881
292.98215
293.00671
293.03319
293.0621
293.09455
293.13275
293.18471
293.29139
292.14169
292.19233
292.24097
292.2887
292.3361
292.38323
292.43015
292.47675
292.52252
292.56694
292.60974
292.6507
292.6894
292.72521
292.75815
292.78862
292.81685
292.84314
292.86783
292.89132
292.91404
292.93648
292.95908
292.98241
293.00694
293.03336
293.06217
293.09446
293.13241
293.1838
293.28696
292.01027
292.08231
292.1505
292.21569
292.2781
292.33785
292.39538
292.45068
292.5034
292.55336
292.60054
292.64469
292.68527
292.72234
292.75633
292.78753
292.81625
292.84286
292.86777
292.8914
292.91421
292.93668
292.9593
292.98262
293.00712
293.03349
293.06222
293.09435
293.13205
293.18284
293.28298
291.90206
291.99038
292.07382
292.15275
292.22743
292.29821
292.36528
292.4283
292.48714
292.54196
292.59282
292.63926
292.68138
292.71975
292.75468
292.78653
292.81569
292.84259
292.86769
292.89145
292.91433
292.93685
292.95948
292.98279
293.00727
293.03358
293.06223
293.09421
293.13167
293.18186
293.27944
291.81533
291.9172
292.01252
292.10164
292.18541
292.26516
292.34036
292.40988
292.47375
292.53245
292.5859
292.63415
292.67787
292.71743
292.75319
292.78561
292.81516
292.84232
292.86759
292.89146
292.91442
292.93696
292.95961
292.98291
293.00736
293.03363
293.06221
293.09405
293.13127
293.18084
293.27634
291.73004
291.84884
291.95851
292.05912
292.15163
292.23862
292.31976
292.39421
292.46224
292.5239
292.57944
292.6296
292.67477
292.71534
292.75183
292.78475
292.81465
292.84205
292.86747
292.89144
292.91445
292.93703
292.95969
292.98298
293.00741
293.03365
293.06215
293.09386
293.13086
293.17979
293.27366
291.65261
291.7811
291.90171
292.01538
292.12129
292.21622
292.30165
292.37999
292.45141
292.51588
292.57376
292.62563
292.67202
292.71348
292.75059
292.78395
292.81415
292.84175
292.86732
292.89137
292.91444
292.93705
292.95972
292.983
293.00742
293.03362
293.06207
293.09366
293.13044
293.17872
293.27137
291.63455
291.75883
291.87822
291.99161
292.09802
292.19657
292.2866
292.36842
292.44254
292.50926
292.56898
292.62223
292.66963
292.71182
292.74946
292.7832
292.81366
292.84144
292.86713
292.89127
292.91439
292.93703
292.9597
292.98298
293.00739
293.03356
293.06195
293.09344
293.13001
293.17762
293.26663
291.6305
291.75191
291.86881
291.98038
292.08591
292.1849
292.2765
292.36017
292.43596
292.50416
292.56515
292.61941
292.66759
292.71037
292.74844
292.78249
292.81317
292.84111
292.86691
292.89112
292.91428
292.93695
292.95963
292.98291
293.00731
293.03346
293.06181
293.09321
293.12956
293.1765
293.26236
291.6454
291.76073
291.87277
291.98058
292.08341
292.18067
292.27158
292.35537
292.43169
292.50058
292.56228
292.61717
292.66591
292.70912
292.74752
292.78182
292.81269
292.84076
292.86665
292.89092
292.91413
292.93682
292.95951
292.98279
293.00719
293.03333
293.06164
293.09296
293.12912
293.17537
293.2585
291.67927
291.78507
291.8895
291.99125
292.08936
292.18308
292.27159
292.35402
292.42975
292.49852
292.56038
292.61553
292.66456
292.70806
292.74669
292.78118
292.81219
292.84038
292.86635
292.89068
292.91393
292.93664
292.95935
292.98263
293.00703
293.03315
293.06145
293.09269
293.12866
293.17422
293.255
291.73138
291.82451
291.91859
292.01192
292.10331
292.19177
292.27633
292.35607
292.43013
292.49797
292.55944
292.61447
292.66355
292.70717
292.74594
292.78056
292.81169
292.83997
292.866
292.89039
292.91368
292.93642
292.95914
292.98242
293.00682
293.03295
293.06123
293.09242
293.12821
293.17306
293.24905
291.80044
291.87827
291.95952
292.04222
292.12494
292.20648
292.28564
292.3614
292.43279
292.4989
292.55945
292.61398
292.66286
292.70645
292.74526
292.77996
292.81116
292.83951
292.86561
292.89005
292.91337
292.93614
292.95887
292.98217
293.00657
293.03271
293.06099
293.09213
293.12775
293.1719
293.24359
291.88374
291.94428
292.01075
292.08095
292.15335
292.22659
292.29905
292.36972
292.43754
292.50122
292.56033
292.61403
292.66247
292.70588
292.74464
292.77936
292.81061
292.83902
292.86518
292.88966
292.91302
292.93581
292.95856
292.98187
293.00629
293.03243
293.06072
293.09184
293.1273
293.17075
293.23854
291.97952
292.02006
292.06923
292.12512
292.18601
292.2501
292.31519
292.38027
292.44394
292.50467
292.56195
292.61453
292.66234
292.70543
292.74406
292.77875
292.81003
292.83848
292.86469
292.88922
292.91261
292.93543
292.95821
292.98153
293.00596
293.03213
293.06044
293.09153
293.12685
293.1696
293.23387
292.09555
292.1144
292.14169
292.17944
292.22582
292.27846
292.33513
292.39388
292.45242
292.50953
292.5644
292.6155
292.66242
292.70505
292.74347
292.77809
292.80937
292.83787
292.86412
292.8887
292.91214
292.93499
292.9578
292.98115
293.00559
293.03178
293.06013
293.09122
293.12641
293.16847
293.22958
293.51164
293.40164
293.30063
293.20387
293.11181
293.02727
292.95205
292.88932
292.84004
292.80457
292.78241
292.77195
292.7718
292.77987
292.79297
292.80975
292.8288
292.84888
292.86946
292.8903
292.91137
292.93288
292.95507
292.9784
293.00322
293.03026
293.06006
293.09408
293.13448
293.19036
293.31153
293.48519
293.38274
293.28999
293.20259
293.11956
293.04169
292.97098
292.91014
292.86084
292.82392
292.7994
292.78627
292.78339
292.78886
292.79982
292.81483
292.83247
292.85149
292.87127
292.89154
292.91221
292.93343
292.95543
292.97863
293.00339
293.03039
293.06021
293.09429
293.13482
293.19091
293.31257
293.46983
293.3756
293.28974
293.20877
293.13146
293.05817
292.99062
292.93117
292.88173
292.84346
292.81675
292.80108
292.79551
292.79838
292.80715
292.82031
292.83646
292.85434
292.87328
292.89292
292.91315
292.93406
292.95585
292.97891
293.00358
293.03055
293.06037
293.09452
293.13517
293.1915
293.31251
293.45796
293.36978
293.2893
293.21371
293.14149
293.07264
293.00842
292.95087
292.90191
292.86286
292.8344
292.81644
292.8083
292.80859
292.8151
292.82632
292.84088
292.85753
292.87554
292.89449
292.91422
292.93477
292.95632
292.97923
293.00381
293.03073
293.06056
293.09476
293.13556
293.1921
293.31106
293.44478
293.36234
293.287
293.21659
293.14946
293.08519
293.02461
292.96945
292.92148
292.88215
292.85235
292.83235
292.82177
292.8195
292.82371
292.8329
292.84577
292.86109
292.87807
292.89625
292.91543
292.93559
292.95687
292.9796
293.00407
293.03094
293.06077
293.09503
293.13597
293.19274
293.30977
293.43134
293.35469
293.28434
293.21874
293.15637
293.09653
293.03967
292.98715
292.94055
292.90132
292.87054
292.84876
292.83588
292.8311
292.83297
292.84007
292.85114
292.86503
292.8809
292.89825
292.9168
292.93653
292.95751
292.98003
293.00438
293.03118
293.061
293.09532
293.13641
293.19341
293.30871
293.41873
293.34779
293.28223
293.22103
293.16296
293.10723
293.05397
293.00417
292.95918
292.92037
292.88892
292.86561
292.8506
292.84338
292.8429
292.84784
292.85704
292.8694
292.88407
292.90049
292.91837
292.9376
292.95824
292.98053
293.00474
293.03146
293.06126
293.09564
293.13688
293.1941
293.30796
293.40756
293.34208
293.28105
293.22391
293.16973
293.11773
293.06785
293.02074
292.97747
292.93932
292.90748
292.88288
292.8659
292.85635
292.8535
292.85624
292.86349
292.87422
292.88759
292.90301
292.92013
292.93882
292.95907
292.9811
293.00516
293.03178
293.06156
293.09598
293.13737
293.19482
293.30759
293.39843
293.338
293.28118
293.22781
293.17714
293.12849
293.08168
293.0371
292.99559
292.95824
292.92622
292.90054
292.88178
292.87
292.86479
292.86529
292.87051
292.87952
292.89149
292.90583
292.92212
292.94021
292.96003
292.98177
293.00563
293.03215
293.0619
293.09634
293.13789
293.19556
293.30773
293.39172
293.33615
293.28343
293.2334
293.18576
293.14
293.09586
293.05356
293.01371
292.97722
292.94517
292.91859
292.8982
292.88431
292.87678
292.87501
292.87814
292.88533
292.89582
292.90897
292.92436
292.94177
292.96112
292.98253
293.00619
293.03258
293.06228
293.09674
293.13844
293.19631
293.30848
293.38858
293.33747
293.28821
293.24111
293.19606
293.15271
293.11081
293.07045
293.03207
292.99638
292.96437
292.93702
292.91516
292.89928
292.88948
292.88541
292.8864
292.8917
292.90059
292.91247
292.92687
292.94355
292.96237
292.98341
293.00682
293.03307
293.06271
293.09717
293.13901
293.19706
293.30999
293.38976
293.34206
293.29575
293.25123
293.20838
293.16699
293.12688
293.08808
293.05089
293.01589
292.9839
292.95586
292.93264
292.91487
292.90287
292.89649
292.8953
292.89863
292.90585
292.91636
292.92969
292.94555
292.96378
292.98441
293.00755
293.03363
293.0632
293.09764
293.1396
293.19779
293.31253
293.39483
293.35026
293.30657
293.26415
293.22304
293.18316
293.14437
293.10671
293.0704
293.03587
293.00383
292.97513
292.95064
292.93108
292.91693
292.90827
292.90486
292.90616
292.91161
292.92066
292.93284
292.94781
292.96539
292.98555
293.00839
293.03427
293.06375
293.09815
293.14021
293.19849
293.31049
293.40459
293.36266
293.32103
293.2802
293.24033
293.20146
293.16352
293.12657
293.09077
293.05647
293.02424
292.99485
292.96913
292.94787
292.93166
292.92075
292.91508
292.9143
292.91791
292.92541
292.93634
292.95034
292.9672
292.98685
293.00934
293.035
293.06437
293.09871
293.14083
293.19912
293.30925
293.41908
293.37917
293.33907
293.29936
293.26028
293.22197
293.18444
293.14777
293.11211
293.07776
293.04518
293.01504
292.98812
292.96522
292.947
292.93388
292.92596
292.92306
292.92476
292.93063
292.94023
292.95318
292.96925
292.98834
293.01043
293.03583
293.06507
293.09931
293.14145
293.19967
293.30908
293.43773
293.39932
293.36033
293.32134
293.28268
293.24454
293.20703
293.17028
293.13444
293.09976
293.06665
293.03567
293.00755
292.98307
292.96293
292.94766
292.9375
292.93244
292.93218
292.93635
292.94453
292.95635
292.97156
292.99002
293.01167
293.03678
293.06585
293.09997
293.14207
293.2001
293.31041
293.45953
293.42225
293.38406
293.34553
293.30702
293.26879
293.23103
293.19391
293.15762
293.1224
293.08859
293.0567
293.02738
293.00136
292.97937
292.96202
292.94966
292.94244
292.94018
292.94258
292.94927
292.95989
292.97416
292.99192
293.01309
293.03785
293.06672
293.10068
293.14267
293.20034
293.30336
293.48315
293.4468
293.40924
293.37103
293.33254
293.2941
293.25594
293.2183
293.1814
293.14549
293.11088
293.07802
293.0475
293.02
292.99625
292.9769
292.96241
292.95304
292.94876
292.94934
292.95447
292.96381
292.97706
292.99405
293.01468
293.03907
293.06768
293.10143
293.14324
293.20038
293.29725
293.50719
293.47171
293.43475
293.39684
293.35838
293.31971
293.28115
293.24295
293.2054
293.16874
293.1333
293.09947
293.06778
293.03889
293.01348
292.99223
292.97569
292.96421
292.9579
292.95663
292.96014
292.96814
292.9803
292.99646
293.01649
293.04044
293.06876
293.10224
293.14376
293.20017
293.29239
293.52994
293.49543
293.45921
293.42176
293.38347
293.34474
293.3059
293.26725
293.22912
293.19178
293.15555
293.12081
293.08804
293.05786
293.03091
293.0079
292.98942
292.97591
292.96759
292.96445
292.9663
292.97288
292.9839
292.99916
293.01852
293.04198
293.06994
293.10309
293.14422
293.19968
293.28915
293.54997
293.5167
293.48149
293.44476
293.40692
293.36838
293.32949
293.2906
293.25207
293.2142
293.17731
293.14178
293.10807
293.07674
293.04842
293.0238
293.00351
292.98807
292.9778
292.97279
292.97296
292.97807
292.98789
293.00218
293.02079
293.0437
293.07125
293.10398
293.14459
293.19882
293.28803
293.56658
293.53479
293.50085
293.46514
293.42805
293.38999
293.35134
293.31248
293.27378
293.23559
293.19825
293.16212
293.12764
293.09534
293.06583
293.03978
293.01785
293.00061
292.98847
292.98163
292.9801
292.98372
292.99227
293.00553
293.02333
293.04563
293.07268
293.10491
293.14484
293.1975
293.28998
293.57996
293.54987
293.51741
293.48292
293.44679
293.40941
293.37122
293.3326
293.29396
293.25567
293.21808
293.18156
293.14652
293.11346
293.08297
293.0557
293.03232
293.01343
292.99954
292.99093
292.98772
292.98982
292.99707
293.00923
293.02616
293.04777
293.07424
293.10587
293.14495
293.1955
293.27142
293.58841
293.56044
293.52991
293.49709
293.46234
293.42606
293.38867
293.35061
293.31232
293.27418
293.23658
293.19988
293.1645
293.13092
293.09968
293.07141
293.04678
293.02644
293.01093
293.00065
292.99579
292.99638
293.00229
293.01332
293.02931
293.05014
293.07594
293.10685
293.14487
293.19283
293.25353
293.59279
293.56722
293.53892
293.50809
293.47503
293.44012
293.40381
293.36655
293.32882
293.29104
293.25362
293.21696
293.18146
293.14757
293.1158
293.08677
293.06112
293.03952
293.02256
293.01072
293.0043
293.00338
293.00793
293.01779
293.03277
293.05274
293.07779
293.10785
293.1446
293.18955
293.23643
293.5925
293.5696
293.54387
293.51542
293.48446
293.45133
293.41646
293.38031
293.3434
293.30621
293.26918
293.23274
293.1973
293.1633
293.13122
293.10165
293.07521
293.05256
293.03434
293.02109
293.01318
293.01082
293.01401
293.02266
293.03657
293.0556
293.07978
293.10885
293.1441
293.18571
293.22024
293.58806
293.56796
293.545
293.5192
293.49068
293.45969
293.42662
293.39192
293.35612
293.31974
293.28329
293.24724
293.21202
293.17807
293.14587
293.11596
293.08894
293.06546
293.04618
293.03167
293.0224
293.01865
293.02051
293.02792
293.04073
293.05875
293.08192
293.10985
293.14338
293.1814
293.20506
293.57985
293.56257
293.5425
293.51955
293.49374
293.46522
293.43429
293.40137
293.36699
293.33168
293.29602
293.26051
293.22565
293.1919
293.15972
293.12964
293.10223
293.07813
293.05797
293.04239
293.0319
293.02684
293.0274
293.03359
293.04525
293.06216
293.0842
293.11084
293.14243
293.17672
293.19106
293.56835
293.55383
293.53667
293.51667
293.49375
293.46795
293.43948
293.40868
293.37603
293.34207
293.30741
293.27263
293.23826
293.20481
293.17279
293.14268
293.11504
293.09049
293.06966
293.05318
293.0416
293.03535
293.03468
293.03964
293.05012
293.06586
293.08665
293.11182
293.14126
293.17178
293.17844
293.55397
293.54208
293.52772
293.51066
293.49073
293.46784
293.4421
293.41372
293.38313
293.35084
293.31746
293.2836
293.24988
293.21687
293.18509
293.15507
293.12735
293.10251
293.08117
293.06396
293.05146
293.04414
293.04231
293.04607
293.05534
293.06985
293.08927
293.11278
293.13991
293.16676
293.16745
293.53726
293.52778
293.51606
293.50181
293.48483
293.46493
293.44207
293.41639
293.38817
293.35787
293.32606
293.29339
293.26052
293.22808
293.19667
293.16684
293.13914
293.11414
293.09245
293.07467
293.06141
293.05315
293.05025
293.05285
293.06091
293.07411
293.09205
293.11376
293.1384
293.16177
293.15858
293.51871
293.51132
293.502
293.4904
293.47622
293.45926
293.43937
293.41655
293.39096
293.36296
293.33305
293.30186
293.27009
293.23842
293.20751
293.17798
293.15041
293.12537
293.10346
293.08527
293.07139
293.06233
293.05846
293.05997
293.06681
293.07867
293.09501
293.11476
293.13681
293.15684
293.15077
293.49883
293.49325
293.48602
293.4768
293.46526
293.45109
293.43411
293.41421
293.39142
293.36596
293.33826
293.30887
293.27848
293.24781
293.21758
293.18849
293.16115
293.13619
293.11417
293.09571
293.08136
293.07163
293.0669
293.06738
293.07303
293.0835
293.09816
293.11582
293.13517
293.15208
293.14252
293.47799
293.47396
293.46853
293.46139
293.45223
293.44068
293.42647
293.40944
293.38951
293.36677
293.34151
293.31421
293.2855
293.25611
293.2268
293.19831
293.17135
293.14657
293.12457
293.10595
293.09126
293.08099
293.07553
293.07506
293.07954
293.08859
293.10151
293.11699
293.13358
293.14763
293.13343
293.45668
293.45393
293.45002
293.44468
293.43758
293.4284
293.41679
293.40249
293.38537
293.36542
293.34277
293.3178
293.29104
293.2632
293.23505
293.20738
293.18096
293.15649
293.13463
293.11598
293.10107
293.09039
293.0843
293.08297
293.08633
293.09396
293.10505
293.11829
293.13216
293.14379
293.13175
293.4354
293.43369
293.43104
293.42719
293.42186
293.41471
293.40542
293.39367
293.37921
293.36199
293.34201
293.31952
293.29496
293.26894
293.24221
293.2156
293.18991
293.16592
293.14432
293.12575
293.11075
293.09978
293.09318
293.09109
293.09338
293.09958
293.10882
293.11976
293.13097
293.14063
293.13033
293.41424
293.41335
293.41172
293.40912
293.40529
293.39992
293.3927
293.38331
293.37145
293.35689
293.33959
293.31964
293.29739
293.27337
293.24828
293.22293
293.19817
293.17481
293.15362
293.13525
293.12027
293.10913
293.10213
293.09936
293.10065
293.10545
293.11282
293.12142
293.13005
293.13814
293.12939
293.39396
293.39372
293.39291
293.39133
293.38874
293.38486
293.37936
293.37192
293.36222
293.35004
293.33525
293.31785
293.29805
293.27625
293.25306
293.22924
293.20564
293.18312
293.16249
293.14446
293.12962
293.11842
293.11112
293.10778
293.10813
293.11157
293.11707
293.12332
293.12941
293.13615
293.12561
293.37389
293.37417
293.37402
293.37328
293.37173
293.36911
293.36515
293.35952
293.35191
293.34199
293.3296
293.31467
293.29731
293.2778
293.25664
293.23454
293.2123
293.1908
293.1709
293.15334
293.13876
293.12761
293.12012
293.1163
293.11581
293.11794
293.12159
293.12545
293.12896
293.13451
293.13046
293.35425
293.35492
293.35529
293.35522
293.35453
293.35299
293.35035
293.34629
293.34051
293.33273
293.32275
293.31033
293.29537
293.27816
293.25913
293.23887
293.21816
293.19786
293.17883
293.16189
293.14769
293.13669
293.12911
293.1249
293.12365
293.12453