/*--------------------------------*- C++ -*----------------------------------*\
| =========                 |                                                 |
| \\      /  F ield         | OpenFOAM: The Open Source CFD Toolbox           |
|  \\    /   O peration     | Version:  2406                                  |
|   \\  /    A nd           | Website:  www.openfoam.com                      |
|    \\/     M anipulation  |                                                 |
\*---------------------------------------------------------------------------*/
FoamFile
{
    version     2.0;
    format      ascii;
    arch        "LSB;label=32;scalar=64";
    class       volScalarField;
    location    "0.01";
    object      Ma;
}
// * * * * * * * * * * * * * * * * * * * * * * * * * * * * * * * * * * * * * //

dimensions      [0 0 0 0 0 0 0];

internalField   nonuniform List<scalar> 
2065
(
0.11581832
0.11729532
0.11863419
0.11980785
0.12083413
0.12168724
0.12233746
0.12272994
0.12268293
0.12228861
0.12127747
0.11970861
0.11753292
0.11489425
0.11192858
0.10876954
0.10561727
0.10261489
0.1000008
0.097898284
0.096380809
0.095492306
0.095167037
0.095292898
0.095759596
0.096326805
0.096796046
0.097050676
0.097071558
0.097022192
0.097111654
0.097464985
0.098241313
0.099468545
0.10067818
0.10184408
0.10307072
0.10430314
0.10560897
0.10705446
0.10851228
0.11011207
0.11169699
0.11338925
0.11499032
0.11675907
0.11836932
0.12018896
0.12176021
0.12360451
0.12504214
0.1268967
0.12812567
0.13011186
0.13114623
0.13315679
0.1339697
0.13637419
0.088949894
0.092484358
0.095643157
0.098419977
0.10092168
0.10319822
0.10520098
0.10690371
0.1081127
0.10877615
0.10869661
0.10804437
0.10653838
0.10452767
0.10210119
0.099447676
0.09681373
0.094352546
0.092334964
0.090842982
0.08994492
0.089638726
0.089849747
0.090506196
0.091459811
0.092465393
0.093362546
0.094039532
0.094478463
0.094850394
0.09529732
0.095959562
0.097000268
0.098379892
0.099749409
0.10116702
0.10266674
0.1041391
0.10562224
0.10718001
0.10874676
0.11045208
0.11212048
0.11386499
0.1155052
0.11729256
0.1189169
0.12073197
0.12230104
0.12412779
0.12555367
0.12738172
0.12859659
0.13053414
0.1315518
0.13352128
0.13432289
0.13669086
0.048207266
0.053526185
0.058830873
0.063971715
0.068908654
0.073646971
0.078119656
0.082230403
0.085944588
0.089008917
0.091379211
0.092871063
0.093413251
0.09311063
0.092129441
0.090569498
0.08874231
0.086905271
0.08525084
0.08406029
0.083341958
0.083195893
0.083539459
0.084408081
0.085656151
0.08712103
0.08860689
0.08996981
0.091103407
0.091997538
0.092814303
0.093646299
0.094641535
0.095942676
0.097477
0.099019141
0.10068667
0.10244396
0.10413769
0.10577794
0.10743492
0.10909511
0.11088607
0.11261932
0.11440126
0.11606897
0.11786506
0.11949551
0.12129973
0.12286159
0.12466658
0.12607771
0.12787604
0.12907456
0.13096176
0.13196111
0.13388778
0.1346767
0.13700548
0.021096829
0.024549137
0.028388879
0.032850796
0.037607959
0.04264323
0.047857311
0.05311754
0.058279639
0.063234547
0.067722986
0.071622388
0.074653591
0.076655518
0.07776111
0.07798363
0.077687242
0.076985915
0.076216433
0.075619557
0.07543329
0.075621862
0.076306718
0.077449502
0.079015134
0.080869468
0.082872929
0.084864335
0.086716214
0.088328636
0.089710716
0.090988264
0.092228896
0.093571575
0.095123007
0.096811408
0.098527651
0.1004267
0.10241637
0.1043045
0.10607644
0.10781586
0.10955174
0.11140775
0.11318763
0.11499297
0.11667708
0.11847267
0.12010184
0.12188945
0.12343943
0.12521888
0.12661253
0.12837825
0.12955846
0.13139385
0.13237338
0.13425593
0.1350308
0.13731803
0.011993949
0.013660815
0.01564804
0.018086976
0.021023821
0.024529833
0.028444257
0.0328202
0.037465177
0.042284977
0.047095909
0.051705021
0.05576998
0.059046298
0.061506239
0.063073511
0.06412912
0.064760605
0.065245608
0.065868183
0.066776019
0.067992726
0.069617241
0.071582112
0.073856271
0.076324306
0.078872076
0.081371578
0.083716432
0.085821239
0.087706276
0.08945482
0.091116314
0.092806327
0.094592405
0.096425525
0.098303088
0.10040165
0.10258896
0.10463854
0.10651336
0.1083157
0.11010864
0.11200955
0.11381888
0.1156347
0.11732482
0.11911149
0.12073262
0.12249841
0.12403224
0.12578278
0.12715645
0.12888702
0.13004713
0.13182959
0.13278791
0.1346253
0.13538485
0.13762856
0.0080870083
0.0080758671
0.0082664955
0.0086684484
0.0093875908
0.010480095
0.012009152
0.014082607
0.016919809
0.020380738
0.024369339
0.02876229
0.03337378
0.037894176
0.042002603
0.045559697
0.048408921
0.050783363
0.052760201
0.054575342
0.056462621
0.058525367
0.060827343
0.063408227
0.066199594
0.069170983
0.072231674
0.075299073
0.078281997
0.081102025
0.083694253
0.086077199
0.088295692
0.090371776
0.09238921
0.094386123
0.096342527
0.098356738
0.10061514
0.10295885
0.10513197
0.10708053
0.1089248
0.11075627
0.11268309
0.11450622
0.1163208
0.11800742
0.11977757
0.12138455
0.12312385
0.12463769
0.12635634
0.1277078
0.12940102
0.13053946
0.13226815
0.13320409
0.1349955
0.1357386
0.13793711
0.0091273323
0.0084749589
0.0078843031
0.0073673716
0.0067987207
0.0061856375
0.0054015352
0.0045259277
0.0039034945
0.0043352265
0.0063363807
0.0094914651
0.013343578
0.017719387
0.022410511
0.026903926
0.031175957
0.034998735
0.038489095
0.04169494
0.044781492
0.047897368
0.051122686
0.054505123
0.058023653
0.061609208
0.065230386
0.068825481
0.0723521
0.075762647
0.079013704
0.082062695
0.084916683
0.087580976
0.090040007
0.09234338
0.094513276
0.096567492
0.098684828
0.10105902
0.10351354
0.10577197
0.10776595
0.10963205
0.1114842
0.11341963
0.11524265
0.11704549
0.11872007
0.12046696
0.12205432
0.12376303
0.12525346
0.12693767
0.12826493
0.12991898
0.13103432
0.13270872
0.13362132
0.1353661
0.1360918
0.13824366
0.010687617
0.010445219
0.010295733
0.010191273
0.010065559
0.0098541226
0.0094793267
0.0088764968
0.0079721658
0.0067556066
0.0052701985
0.0042006754
0.0047510917
0.0072282854
0.010945886
0.014981376
0.019337622
0.023645547
0.027908382
0.032141974
0.036367163
0.040652315
0.045013244
0.049433605
0.053833516
0.058136125
0.062313805
0.06634238
0.070229313
0.073978434
0.077586105
0.081030863
0.084299988
0.087355699
0.090138556
0.092669137
0.094965049
0.097086424
0.09926904
0.10171376
0.10423503
0.10654269
0.10855555
0.11042537
0.11228169
0.11421034
0.11602113
0.11780299
0.11945798
0.12117574
0.12273869
0.12441324
0.12587726
0.12752487
0.12882621
0.13043961
0.13153062
0.1331505
0.13403901
0.13573672
0.13644419
0.13854821
0.012313536
0.012686712
0.013161155
0.01369206
0.0142349
0.014741634
0.015160128
0.015404277
0.015432483
0.015098945
0.014322099
0.013072558
0.011399843
0.0096967078
0.0085400627
0.008594469
0.010942692
0.014801668
0.019413974
0.024509165
0.029795429
0.035211592
0.04065203
0.046020303
0.051187048
0.056075739
0.060670274
0.064989305
0.069098942
0.073061588
0.076921607
0.080669693
0.084266743
0.087627807
0.090656643
0.093345298
0.095716478
0.09787087
0.10008124
0.10255407
0.10510215
0.1074265
0.10943499
0.11129251
0.11313804
0.11504653
0.11683468
0.1185876
0.12021644
0.12190001
0.12343441
0.1250718
0.12650684
0.12811606
0.12939005
0.13096166
0.13202728
0.13359267
0.1344566
0.13610693
0.13679552
0.13885072
0.01275045
0.013619876
0.014556873
0.015562257
0.01660894
0.017671655
0.018714128
0.019678373
0.020499151
0.021072959
0.021258025
0.020952996
0.019994333
0.01828765
0.015769964
0.012759028
0.0093408204
0.0071956672
0.0086804445
0.013223129
0.019194579
0.025558964
0.032050909
0.038443806
0.044582241
0.050321691
0.05559047
0.06040611
0.064844455
0.069028523
0.07307317
0.077061298
0.080994498
0.084806504
0.088374093
0.091558713
0.094334396
0.096731157
0.098884596
0.10108839
0.10355218
0.10609238
0.10840516
0.1103899
0.11222135
0.1140428
0.11591975
0.11767651
0.11939374
0.12099082
0.122636
0.12413832
0.12573607
0.12713998
0.12870942
0.12995486
0.13148392
0.13252326
0.13403446
0.1348735
0.13647635
0.13714551
0.13915115
0.01304945
0.014369671
0.015691196
0.017056259
0.018443241
0.019840703
0.021217123
0.022514613
0.023658299
0.024556237
0.024987846
0.024952454
0.024116275
0.022418205
0.019729774
0.016093188
0.011399918
0.0067331577
0.0046770789
0.0096336917
0.016715112
0.024144429
0.031522794
0.038601569
0.045219656
0.051248447
0.056651517
0.06148557
0.065874874
0.069988322
0.073982519
0.077972237
0.081967096
0.085877038
0.089540858
0.092792776
0.095589796
0.097967628
0.10008906
0.10225636
0.10468005
0.1071833
0.10946083
0.11140628
0.11320013
0.11498595
0.11682188
0.11854002
0.12021599
0.12177664
0.12337998
0.12484733
0.12640349
0.12777452
0.12930314
0.13051913
0.13200517
0.13301753
0.1344751
0.13528914
0.13684454
0.13749391
0.13944944
0.012924331
0.014466591
0.015973824
0.017487228
0.019014604
0.020545015
0.022045185
0.023454699
0.024692546
0.025662961
0.026146469
0.026127088
0.025216494
0.023425418
0.020522294
0.016482772
0.011206654
0.0054456982
0.0023949484
0.0095664701
0.017681682
0.025805841
0.033667779
0.041034967
0.04777181
0.053784595
0.059077781
0.063740932
0.0679323
0.071850744
0.075680546
0.079558821
0.083500958
0.087396792
0.0910585
0.094299941
0.097062018
0.099383867
0.10144664
0.10355227
0.10591051
0.10835346
0.11057668
0.11247067
0.11421749
0.11595797
0.11774521
0.1194189
0.12104915
0.12256957
0.12412838
0.12555845
0.12707155
0.12840836
0.12989547
0.13108137
0.13252424
0.13350912
0.13491389
0.13570294
0.13721112
0.13784044
0.13974551
0.012285276
0.013812756
0.015296946
0.01677321
0.01824893
0.019710893
0.02112087
0.022414399
0.023515385
0.024294488
0.024609256
0.024345363
0.023198149
0.021136825
0.017961304
0.01359457
0.0081755315
0.0024973273
0.0061839875
0.013730288
0.022140671
0.030342446
0.038177215
0.045405148
0.051908811
0.057626244
0.06259861
0.066936015
0.070812179
0.07443996
0.078017023
0.081693161
0.08548744
0.089276191
0.092854429
0.096021085
0.098702984
0.10093984
0.10292221
0.10494565
0.10721855
0.10958292
0.11173714
0.11357041
0.1152626
0.1169499
0.11868244
0.12030715
0.12188824
0.12336549
0.12487776
0.12626881
0.12773787
0.12903949
0.13048473
0.13164014
0.13304
0.13399709
0.13535009
0.13611435
0.13757567
0.13818487
0.14003928
0.011251491
0.012479617
0.013697298
0.014923088
0.016144521
0.017333277
0.018437663
0.019386794
0.020110516
0.020447785
0.020354859
0.019617575
0.018053348
0.015675396
0.012354857
0.008277262
0.0049563263
0.007393978
0.01378941
0.021400741
0.029411325
0.037204094
0.044566055
0.051281041
0.057255359
0.062450085
0.066936176
0.070830311
0.074305185
0.077573727
0.080834551
0.084241737
0.087816299
0.091426807
0.094858838
0.09790098
0.10046823
0.10259863
0.10448367
0.10640895
0.10858141
0.11085346
0.1129279
0.11469376
0.11632524
0.11795338
0.11962675
0.12119909
0.12272857
0.12416047
0.12562486
0.12697566
0.12840014
0.12966597
0.1310693
0.1321941
0.13355135
0.13448055
0.13578298
0.13652278
0.13793779
0.13852694
0.14033066
0.0099432506
0.010594703
0.011309157
0.012071756
0.01283611
0.013546606
0.014137694
0.014501579
0.014591528
0.014279271
0.013511725
0.012216239
0.010397679
0.008527051
0.0069216487
0.007700772
0.011779631
0.017529307
0.024312576
0.031508283
0.038806091
0.04580395
0.052332621
0.058234281
0.063448987
0.067952671
0.071834203
0.075203404
0.078220007
0.081084919
0.083988013
0.087081025
0.090385789
0.093767552
0.097008198
0.099889951
0.1023178
0.10432689
0.1061021
0.10791761
0.10997867
0.11214858
0.11413587
0.11582982
0.11739599
0.11896072
0.12057177
0.12208944
0.12356571
0.1249508
0.12636657
0.1276764
0.12905619
0.13028599
0.13164765
0.13274193
0.13405722
0.13495863
0.13621185
0.13692767
0.13829709
0.13886645
0.14061952
0.0083380024
0.0083558269
0.0084523909
0.008553537
0.0085644847
0.0083812444
0.0079168942
0.0070993491
0.0060420127
0.0050620886
0.0048154896
0.0062765923
0.009610141
0.013901355
0.018881117
0.02461392
0.030692048
0.037052229
0.043436618
0.049678596
0.055555187
0.060974416
0.065848017
0.070148658
0.07385823
0.077064918
0.079862525
0.082390512
0.084828618
0.087351296
0.090103215
0.093106736
0.096227069
0.099246451
0.10194408
0.10421655
0.10609478
0.10775182
0.10944994
0.11139222
0.11345355
0.11534921
0.11696852
0.11846633
0.11996484
0.12151166
0.12297329
0.12439555
0.12573305
0.1271
0.12836861
0.12970398
0.13089783
0.13221834
0.13328242
0.13455662
0.13543052
0.13663603
0.13732847
0.13865319
0.13920318
0.14090574
0.0061863138
0.0054458306
0.0047710668
0.0040914078
0.0032277402
0.0020568663
0.00096376118
0.0025467903
0.0054146502
0.0091821859
0.013462358
0.018183019
0.023570468
0.029059476
0.034660312
0.040310971
0.045851394
0.051249345
0.056418626
0.061312102
0.065843803
0.069992133
0.073728435
0.077043255
0.079920978
0.082429214
0.084641577
0.086674766
0.088681822
0.090817644
0.093217009
0.095903225
0.098744127
0.10152513
0.10402512
0.10613367
0.10787594
0.10941047
0.11098703
0.11280615
0.11475529
0.11655723
0.11810072
0.11952856
0.12095935
0.12244104
0.12384611
0.12521428
0.12650402
0.12782247
0.12905002
0.1303416
0.13149987
0.13278002
0.13381443
0.1350486
0.13589543
0.13705487
0.13772466
0.13900574
0.13953687
0.14118927
0.0055938534
0.0053516762
0.0054137322
0.0059140384
0.0070126176
0.0087580686
0.011448082
0.014970809
0.01934092
0.024561692
0.030178158
0.035994218
0.041851381
0.047431774
0.052644818
0.057464489
0.061846571
0.065867164
0.069553167
0.072946478
0.076057409
0.078909877
0.081511413
0.083854235
0.085921664
0.087753526
0.089398936
0.090952953
0.092541934
0.094298599
0.09634682
0.098712085
0.10126734
0.10380316
0.10610026
0.10804237
0.10964746
0.11105868
0.11251246
0.11420679
0.11604236
0.11775039
0.11921818
0.12057578
0.12193848
0.12335507
0.12470381
0.12601845
0.12726077
0.12853149
0.12971853
0.13096727
0.13209062
0.13333142
0.13433688
0.13553225
0.13635263
0.1374678
0.13811577
0.13935436
0.13986724
0.14147006
0.010229111
0.012196929
0.014677407
0.017917582
0.021910344
0.026841864
0.032436034
0.038585309
0.045006295
0.051278178
0.057191282
0.062520911
0.067167674
0.071129091
0.074491325
0.077326957
0.079766683
0.081909663
0.083844401
0.085630488
0.087303628
0.088879741
0.090345594
0.091677313
0.09289427
0.094019255
0.095128084
0.096326103
0.097722847
0.099431577
0.10148185
0.10375435
0.10604627
0.10814181
0.10991977
0.11138992
0.11267993
0.11401219
0.11558225
0.11730479
0.11892028
0.12031361
0.12160182
0.12289702
0.12424936
0.12554261
0.12680482
0.12800057
0.12922471
0.13037211
0.13157924
0.13266858
0.13387124
0.13484868
0.13600668
0.13680144
0.13787428
0.13850137
0.1396988
0.14019409
0.1417481
0.12005958
0.12138064
0.1226013
0.12383044
0.12512003
0.12635922
0.12757059
0.12872104
0.12990011
0.13100904
0.13217605
0.1332325
0.13439846
0.13534894
0.13647115
0.13724128
0.13827382
0.13888107
0.14003873
0.14051718
0.14202332
0.17898709
0.18189301
0.14106257
0.14977861
0.1574154
0.16405984
0.16966972
0.17423681
0.17784364
0.18063479
0.13138252
0.14150152
0.14994676
0.15725531
0.16357667
0.16890857
0.17325683
0.17670182
0.17937733
0.13205637
0.14186388
0.15004488
0.15705297
0.16306641
0.16812978
0.17226473
0.17555102
0.17811249
0.13262509
0.1421134
0.15003258
0.15677572
0.16250139
0.16731135
0.17124348
0.17437728
0.17682869
0.13307837
0.1422379
0.14992051
0.15637948
0.16184399
0.16642322
0.17016875
0.1731604
0.17550778
0.13338194
0.1421895
0.14962362
0.15582833
0.16106165
0.16543505
0.16901281
0.17187541
0.17412633
0.13343513
0.14194499
0.1490967
0.15508722
0.16011886
0.16431256
0.1677434
0.1704922
0.17265597
0.13324893
0.14136446
0.14828676
0.15409856
0.15896611
0.16301293
0.16632095
0.16897335
0.17106176
0.13267168
0.14041909
0.14714226
0.15281008
0.15755465
0.16149163
0.16470491
0.16728013
0.16930628
0.13167177
0.13908051
0.14561754
0.15117597
0.15584069
0.15970707
0.16285593
0.16537489
0.16735267
0.13015772
0.13725474
0.14364775
0.14914896
0.15378456
0.15762312
0.16073993
0.16322512
0.16516947
0.12812478
0.13493984
0.14122686
0.14671823
0.15137227
0.15522376
0.15833955
0.16081287
0.16273856
0.12556838
0.13215842
0.13838414
0.14390887
0.14862161
0.1525204
0.15566211
0.15814276
0.16006308
0.12260173
0.12901255
0.13520873
0.14079498
0.14559269
0.14956166
0.15274829
0.15525052
0.15717584
0.11935826
0.12562952
0.13181792
0.13748085
0.14237688
0.1464268
0.14966779
0.15219897
0.15413487
0.11595642
0.12212483
0.12832874
0.13408112
0.13908284
0.14321899
0.14651782
0.14908042
0.15102881
0.1125566
0.11863169
0.12485779
0.13070666
0.13582011
0.14004764
0.14340709
0.14600288
0.14796584
0.10929603
0.11527837
0.12152399
0.12747297
0.13270793
0.13703829
0.1404697
0.14311055
0.14510092
0.10637819
0.11223719
0.11847349
0.12450831
0.1298664
0.13430953
0.13782438
0.14052043
0.14254595
0.10392447
0.1096081
0.11578092
0.12186695
0.1273403
0.13190557
0.1355182
0.13828241
0.14035269
0.10201951
0.10747753
0.11352387
0.11960683
0.12516738
0.12985188
0.13357259
0.13641833
0.13854503
0.10072696
0.10591276
0.11176348
0.11777162
0.12336859
0.12815052
0.13197857
0.13491407
0.13710624
0.10000184
0.10488371
0.11047899
0.11633453
0.12189627
0.12672825
0.1306425
0.13366488
0.1359294
0.099738462
0.10429825
0.10958456
0.11521566
0.12066778
0.12548906
0.12944939
0.13253563
0.13485983
0.099795443
0.103988
0.10892932
0.11427448
0.11954167
0.12428309
0.12823825
0.1313563
0.13372282
0.099975003
0.10379332
0.10834173
0.11333759
0.11834787
0.12294045
0.12683503
0.12994694
0.13233318
0.10005761
0.1034907
0.10762419
0.11223073
0.11693072
0.12131671
0.12509809
0.12816121
0.13053471
0.099935419
0.10296765
0.10666648
0.11085575
0.11520344
0.11933629
0.12296168
0.12594108
0.12827527
0.099575716
0.10221861
0.10548308
0.10923418
0.11320519
0.11705722
0.12050173
0.12338054
0.12566781
0.099141555
0.10141056
0.10426137
0.10759848
0.11119763
0.11475817
0.11800505
0.12076928
0.12300262
0.098922537
0.10088477
0.1033774
0.106345
0.10960504
0.11289144
0.11594317
0.1185862
0.12075609
0.099035887
0.10078581
0.10303229
0.1057362
0.1087473
0.11181652
0.11470327
0.1172374
0.11934445
0.099570992
0.10111418
0.1031797
0.10572859
0.10858268
0.11150932
0.11428398
0.11674041
0.11879814
0.10065482
0.10203193
0.10387453
0.10618188
0.10884485
0.11163699
0.11431179
0.11669641
0.11870881
0.10172433
0.1029571
0.10462918
0.10673855
0.10917576
0.11176664
0.11430525
0.11660642
0.11856152
0.10265878
0.10364934
0.10503559
0.10684375
0.10902572
0.11140725
0.11375952
0.11590372
0.11774846
0.10362073
0.10432645
0.10535654
0.10675641
0.10846907
0.11037864
0.1123212
0.11415338
0.11578066
0.10461879
0.10507654
0.10579905
0.10684618
0.10819194
0.10972889
0.11134044
0.11289729
0.11430868
0.10574796
0.10601766
0.10650099
0.10726636
0.10836433
0.10971469
0.1111502
0.11254997
0.11382874
0.10708088
0.10722918
0.10755624
0.10813431
0.10898949
0.11009637
0.11136202
0.11264676
0.11384457
0.10842708
0.10845171
0.10861429
0.10899386
0.10964237
0.11054633
0.11162201
0.11275118
0.1138418
0.10991378
0.10980955
0.10979119
0.10993454
0.11030532
0.11092109
0.11173384
0.11264797
0.1135686
0.11140639
0.11119596
0.11102476
0.11096187
0.11108006
0.11142281
0.11197903
0.11268113
0.11341958
0.11303788
0.11275569
0.11247676
0.11226037
0.11217621
0.11227656
0.11256955
0.11302586
0.11359961
0.11459385
0.11425934
0.11390098
0.11357019
0.11333423
0.11325444
0.11336019
0.11363714
0.11403659
0.11633753
0.11597207
0.11556236
0.11515107
0.11479859
0.11456609
0.11449295
0.11458279
0.11480668
0.1179291
0.11754148
0.11709428
0.11662326
0.1161829
0.11583323
0.11562036
0.11556145
0.11564288
0.11974819
0.11935752
0.118899
0.11840251
0.11791615
0.11749567
0.11718749
0.1170151
0.11697525
0.12131838
0.12092581
0.12045928
0.11994447
0.11942509
0.11895398
0.11857803
0.11832512
0.11819906
0.12317564
0.12279494
0.12233862
0.12182861
0.12130384
0.12081284
0.12040046
0.12009572
0.1199065
0.12462283
0.12425232
0.12380587
0.12330326
0.12278085
0.12228477
0.12185858
0.12153186
0.12131442
0.12649908
0.12614956
0.12572632
0.12524634
0.12474208
0.12425573
0.12382804
0.12348756
0.12324535
0.12774053
0.12740525
0.12699826
0.12653499
0.12604584
0.12557095
0.12514984
0.12481098
0.12456618
0.12976792
0.12947195
0.12911215
0.12870175
0.12826702
0.1278425
0.1274622
0.12715082
0.12691901
0.13081729
0.13053737
0.1301965
0.12980673
0.12939239
0.12898607
0.12862043
0.12831964
0.12809475
0.13286221
0.13261492
0.13231347
0.13196813
0.13160005
0.13123772
0.13090984
0.13063781
0.13043146
0.13368524
0.13344994
0.13316233
0.13283177
0.13247808
0.13212851
0.13181088
0.13154647
0.13134542
0.13612143
0.1359134
0.13565873
0.13536534
0.13505048
0.13473806
0.13445285
0.13421372
0.13402979
0.18430338
0.1865586
0.18871647
0.19081679
0.19281676
0.1935565
0.1829544
0.18512716
0.18721062
0.18924275
0.19118316
0.19191324
0.18160617
0.18369652
0.18570466
0.18766678
0.18954508
0.19026286
0.18025203
0.18226176
0.18419562
0.18608735
0.18790153
0.18860231
0.17888192
0.18081332
0.18267409
0.18449569
0.18624436
0.18692276
0.17747914
0.17933582
0.18112579
0.18287819
0.1845601
0.18521077
0.17602145
0.17780827
0.17953075
0.18121574
0.18283059
0.18344843
0.1744815
0.17620403
0.17786314
0.17948346
0.1810318
0.18161291
0.17282602
0.17449095
0.17609159
0.17765067
0.17913419
0.17967755
0.17101875
0.17263373
0.17418177
0.17568402
0.17710581
0.17761427
0.16902334
0.17059645
0.17209819
0.17354863
0.17491336
0.17539696
0.16680893
0.16834865
0.16981124
0.17121629
0.17253165
0.17300687
0.1643569
0.165871
0.16730094
0.16866658
0.16994164
0.17043876
0.16166938
0.16316502
0.1645696
0.1659048
0.16715668
0.16770979
0.15877704
0.16025953
0.16164416
0.16295523
0.16419253
0.16485266
0.15573429
0.15720624
0.15857564
0.15987259
0.16112325
0.16206833
0.15262671
0.15408742
0.15544263
0.15673257
0.15803048
0.15948865
0.14956426
0.15101761
0.15237093
0.15368444
0.15509928
0.15709167
0.1467126
0.14817178
0.14953619
0.15087397
0.15233283
0.15422379
0.14417573
0.14564231
0.14701358
0.14835948
0.14982506
0.15168349
0.14200775
0.14348704
0.14486811
0.14622264
0.14769728
0.14959557
0.14023541
0.14173642
0.14313452
0.1445038
0.14599575
0.14798355
0.13884033
0.1403701
0.14178861
0.14317183
0.14467783
0.14673616
0.13772074
0.13929881
0.14076128
0.14218605
0.14373654
0.14587303
0.13670238
0.13832698
0.13983361
0.14130513
0.14292325
0.14522745
0.13560942
0.13728
0.13883283
0.14035057
0.14201299
0.14428636
0.1342523
0.135965
0.13756452
0.13913033
0.14083128
0.14303191
0.1324611
0.1341946
0.1358229
0.13742674
0.13918992
0.14158814
0.13018787
0.13192437
0.13356914
0.13521187
0.13708092
0.13995894
0.12756511
0.12930881
0.13098399
0.13269435
0.13472927
0.13824365
0.1248826
0.12663703
0.12835595
0.13016019
0.13240455
0.13658429
0.12260737
0.12435983
0.12611061
0.12799576
0.13042363
0.13514257
0.12115933
0.12289397
0.1246499
0.12656977
0.12908493
0.13405161
0.12058108
0.12229549
0.12404364
0.12596741
0.12849343
0.13340915
0.1204626
0.12215751
0.12389215
0.12580725
0.12832522
0.13319524
0.12027712
0.12194674
0.12366439
0.12557153
0.1281026
0.1330476
0.11939204
0.1210191
0.12271873
0.12464029
0.12725004
0.13243632
0.11727584
0.11880659
0.12046785
0.12244082
0.12529876
0.13149071
0.1156296
0.11701329
0.11856261
0.1204791
0.12341724
0.13032441
0.11503571
0.11630947
0.11774658
0.11954607
0.1223586
0.12919167
0.1149877
0.11620643
0.11759341
0.11934464
0.12210403
0.12882241
0.11491466
0.11608147
0.11743093
0.11916324
0.12194432
0.1288082
0.11450115
0.11555599
0.11682651
0.11853178
0.12139416
0.12866382
0.11419873
0.11512066
0.11628506
0.11792365
0.12081181
0.12848313
0.11426243
0.11508053
0.11614126
0.11769439
0.12055749
0.12840628
0.11454294
0.11523527
0.11620451
0.1176869
0.12051809
0.1285187
0.11514657
0.11566351
0.1164663
0.11782436
0.12061356
0.12874846
0.11584736
0.11622991
0.11689873
0.11812986
0.12084293
0.12907834
0.11704992
0.11728089
0.11776885
0.11878216
0.121266
0.12949023
0.1181812
0.11830437
0.11866707
0.11953167
0.12184477
0.12994622
0.11981255
0.11983457
0.12005741
0.1207141
0.12268725
0.13042409
0.12118526
0.12115967
0.12131501
0.1218644
0.12363967
0.13088432
0.1230794
0.1229958
0.12305897
0.12344043
0.124842
0.13135448
0.12439361
0.12429839
0.12434217
0.12468925
0.12601161
0.13188616
0.12674545
0.12662859
0.12661567
0.12682443
0.12774091
0.13281837
0.12792554
0.12781221
0.12780395
0.12802432
0.12898939
0.13373206
0.1302715
0.13015504
0.13012182
0.13026662
0.13098129
0.13494501
0.13118914
0.13107684
0.13105144
0.13121657
0.13200858
0.13589496
0.13388193
0.13376772
0.13371956
0.13380937
0.1343352
0.13754459
)
;

boundaryField
{
    Side1
    {
        type            empty;
    }
    Inlet
    {
        type            calculated;
        value           nonuniform List<scalar> 0();
    }
    Side2
    {
        type            empty;
    }
    Outlet
    {
        type            calculated;
        value           nonuniform List<scalar> 
35
(
0.13637419
0.13669086
0.13700548
0.13731803
0.13762856
0.13793711
0.13824366
0.13854821
0.13885072
0.13915115
0.13944944
0.13974551
0.14003928
0.14033066
0.14061952
0.14090574
0.14118927
0.14147006
0.1417481
0.14202332
0.13612143
0.1359134
0.13565873
0.13536534
0.13505048
0.13473806
0.13445285
0.13421372
0.13402979
0.13388193
0.13376772
0.13371956
0.13380937
0.1343352
0.13754459
)
;
    }
    Botwall
    {
        type            calculated;
        value           nonuniform List<scalar> 
59
(
0.1500267
0.15001521
0.1500038
0.14999244
0.14998113
0.14996979
0.14995835
0.14994673
0.14993479
0.14992243
0.14990953
0.14989603
0.1498819
0.14986733
0.14985222
0.14983761
0.14982397
0.14981152
0.14979617
0.14978345
0.14977236
0.14976244
0.14975283
0.14974385
0.14973496
0.14972511
0.14971511
0.14970635
0.14969933
0.14969371
0.14968854
0.14968252
0.14967444
0.14966387
0.14965182
0.14964304
0.14963907
0.14963815
0.14963763
0.14963334
0.14962459
0.14962142
0.14962405
0.14962977
0.14963536
0.14964068
0.1496509
0.14966548
0.14968407
0.1497038
0.14972676
0.14974633
0.14976274
0.14977037
0.14977165
0.14976657
0.14976033
0.14974189
0.14971337
)
;
    }
    Cyli
    {
        type            calculated;
        value           nonuniform List<scalar> 0();
    }
    procBoundary1to0
    {
        type            processor;
        value           nonuniform List<scalar> 
44
(
0.11421578
0.13066478
0.085109652
0.085109652
0.043015496
0.043015496
0.018038064
0.010581757
0.010581757
0.008268879
0.008268879
0.0099012122
0.011048032
0.012051431
0.012051431
0.012071637
0.011798651
0.011394634
0.010785654
0.010166021
0.0084329303
0.0095824247
0.0084329303
0.0070126831
0.0061867892
0.0086328977
0.0086328977
0.18014064
0.18315826
0.14060201
0.14957637
0.15755641
0.16453997
0.17043281
0.17521908
0.17521908
0.13066478
0.13066478
0.18565715
0.18799249
0.19022145
0.19238479
0.19443623
0.19518504
)
;
    }
    procBoundary1to3
    {
        type            processor;
        value           nonuniform List<scalar> 
62
(
0.022201489
0.02645706
0.031394973
0.03731951
0.043752207
0.050459107
0.057193406
0.063739667
0.069738553
0.07497633
0.079407132
0.08302417
0.085872614
0.088062294
0.089715641
0.090964237
0.091932532
0.092734369
0.093459522
0.094166315
0.094883943
0.095616004
0.096351482
0.097058407
0.097744876
0.098414718
0.099125649
0.099968745
0.10103304
0.10242187
0.10417083
0.10617104
0.1082271
0.11012766
0.11174731
0.11308714
0.11426
0.11547392
0.11692224
0.11853416
0.11853416
0.12116215
0.12241383
0.12356945
0.1247347
0.12596368
0.1271507
0.12831319
0.12941996
0.13055575
0.13162765
0.13275625
0.13378112
0.13491199
0.13583677
0.13692491
0.13767159
0.13866601
0.13925455
0.14037393
0.14083639
0.14229569
)
;
    }
}


// ************************************************************************* //
