/*--------------------------------*- C++ -*----------------------------------*\
| =========                 |                                                 |
| \\      /  F ield         | OpenFOAM: The Open Source CFD Toolbox           |
|  \\    /   O peration     | Version:  2406                                  |
|   \\  /    A nd           | Website:  www.openfoam.com                      |
|    \\/     M anipulation  |                                                 |
\*---------------------------------------------------------------------------*/
FoamFile
{
    version     2.0;
    format      ascii;
    arch        "LSB;label=32;scalar=64";
    class       volScalarField;
    location    "0.01";
    object      nut;
}
// * * * * * * * * * * * * * * * * * * * * * * * * * * * * * * * * * * * * * //

dimensions      [0 2 -1 0 0 0 0];

internalField   nonuniform List<scalar> 
2065
(
0.002566802
0.0028330245
0.0031087778
0.0033972282
0.003703715
0.0040320104
0.0043838721
0.0047667839
0.0051785278
0.005622156
0.0060972327
0.0065974054
0.0071165131
0.0076297865
0.0081309308
0.0086006173
0.0090179387
0.0093622335
0.009652026
0.0098531497
0.0099569126
0.0099699661
0.0099119125
0.0098088077
0.0096831727
0.0095371471
0.0093645096
0.0091754709
0.0090099758
0.008931744
0.0089666646
0.0090605326
0.0090317221
0.0086795517
0.008156002
0.0079644695
0.0083118586
0.0088521021
0.0091524116
0.0091164643
0.0092705894
0.0097767801
0.01038708
0.010924843
0.011489026
0.012087907
0.012680905
0.013225513
0.013726047
0.014208318
0.014680462
0.015063451
0.015313923
0.015387755
0.015446027
0.015323227
0.015140737
0.014574687
0.0016157513
0.0018646998
0.0021367029
0.0024345176
0.0027626407
0.0031163322
0.0034981535
0.0039175068
0.0043657868
0.0048528861
0.0053767034
0.0059371727
0.0065310403
0.0071367487
0.0077446092
0.0083206842
0.0088146781
0.0092635719
0.009635682
0.0098696013
0.0099859347
0.01000144
0.0099486626
0.0098600517
0.0097573235
0.009638754
0.0094952965
0.0093374459
0.0092055116
0.0091639319
0.0092405029
0.0093730071
0.0093632758
0.0090203772
0.0085451145
0.00844936
0.0088947772
0.009517075
0.0099359524
0.0099725731
0.010176658
0.010743638
0.011415354
0.012004369
0.012604613
0.013232521
0.013851617
0.014415787
0.014937032
0.015440831
0.015942973
0.01635571
0.016640851
0.016750354
0.016855585
0.01676983
0.016611933
0.01606861
0.0011387446
0.0013626393
0.0016134238
0.001893099
0.0022083896
0.0025431898
0.0028849851
0.0032609873
0.0036501578
0.0040587012
0.0045087787
0.0050053275
0.0055725077
0.0062016143
0.0068572641
0.0075239252
0.0081758483
0.0087364038
0.0092473644
0.0096592163
0.0098924039
0.0099993429
0.010010214
0.0099619842
0.0098879348
0.0098080882
0.0097170237
0.0096042655
0.0094802637
0.0093881086
0.0093944315
0.0095287268
0.0097215206
0.0097508467
0.0094328928
0.0090154031
0.0090173131
0.0095600122
0.010265939
0.010801438
0.01092634
0.011166062
0.01178298
0.012505742
0.013134734
0.013764136
0.014414071
0.01505232
0.015630445
0.016166358
0.016686196
0.017212185
0.017649677
0.017964309
0.018105583
0.018254271
0.018202907
0.018066462
0.017548042
0.0015431448
0.0017607023
0.0019873845
0.0022197151
0.0024566195
0.0026877372
0.0029179133
0.0031813638
0.0034684833
0.0037650401
0.0041154597
0.0045283659
0.0049970927
0.0055276324
0.0061387936
0.0068035368
0.0075167731
0.0081945307
0.0087752178
0.0093073892
0.0096910988
0.0099005232
0.0099887637
0.0099890916
0.0099460391
0.009892103
0.0098389151
0.0097775668
0.0096972848
0.009610872
0.0095673687
0.0096384804
0.0098547864
0.01013267
0.010222023
0.0099432397
0.0095889828
0.0096851398
0.010320734
0.011108766
0.011750659
0.011968663
0.012233503
0.012889482
0.013652841
0.014309844
0.014962344
0.015627872
0.016279007
0.016865932
0.017411048
0.017942015
0.018486176
0.018943774
0.019282964
0.019452159
0.019641037
0.019620972
0.019503561
0.019011048
0.0024838474
0.0026872911
0.0028720219
0.00305133
0.0032302223
0.003402332
0.003573606
0.0037638754
0.0039723584
0.0041952168
0.0044635566
0.0047891262
0.0051785288
0.0056938534
0.006304289
0.0069766494
0.0076743218
0.0083099225
0.0088840777
0.0093766901
0.0097098142
0.0098813286
0.0099420874
0.0099381725
0.0099107342
0.009883847
0.0098615755
0.0098325799
0.0097879316
0.009746103
0.0097652513
0.0099236762
0.010247416
0.010634359
0.010804676
0.010576557
0.010285398
0.010464915
0.011184619
0.01204999
0.012781668
0.013087885
0.013371333
0.014056075
0.014849288
0.015524379
0.016194016
0.016869302
0.01752777
0.018118874
0.018668297
0.019205954
0.019763068
0.020236462
0.020595624
0.020788991
0.021014932
0.021022938
0.020922673
0.020456401
0.0031604401
0.0033747833
0.0035489091
0.003698817
0.0038288945
0.0039501182
0.0040691357
0.0041948765
0.0043378272
0.0044974961
0.0046805175
0.0049149244
0.0052134272
0.0055875174
0.0060266361
0.0065884293
0.0072203979
0.007867212
0.0084653527
0.0090212597
0.0094398143
0.0096948415
0.0098203665
0.0098663698
0.0098744535
0.009876823
0.0098863451
0.009899957
0.0099060504
0.0099011639
0.0099135743
0.010013303
0.010282573
0.010738466
0.011250845
0.011520773
0.011350237
0.011116112
0.011361454
0.012150543
0.013085757
0.013892427
0.014272151
0.014570504
0.015274801
0.016086609
0.01677388
0.017454077
0.018133923
0.018794868
0.01938608
0.019935479
0.020475846
0.021041172
0.021526398
0.0219013
0.022115258
0.022375225
0.02240812
0.02232349
0.021883442
0.0035829682
0.0038520466
0.0040484782
0.0041957663
0.004313484
0.0044165543
0.0045074702
0.0045981781
0.0047005375
0.0048230556
0.0049677803
0.0051460602
0.0053770278
0.0056744097
0.0060491984
0.0064932496
0.0070084644
0.0075897632
0.0081568863
0.0086773554
0.0091291351
0.0094364107
0.0096276109
0.0097300058
0.009788434
0.0098346122
0.0098858251
0.0099421385
0.0099956533
0.010038169
0.010076766
0.010153707
0.010351184
0.010752087
0.011354345
0.011996319
0.01238032
0.012269935
0.012081833
0.012371614
0.013211594
0.014207729
0.015076566
0.015509835
0.015821457
0.016537357
0.017358243
0.018052438
0.018737608
0.019417512
0.020076755
0.020664541
0.021210133
0.021749672
0.022318952
0.022812394
0.023199165
0.023430345
0.02372136
0.023776144
0.023705917
0.02329191
0.0040714571
0.0043171853
0.0044898911
0.0046148179
0.0047131016
0.0047980451
0.0048806411
0.0049705139
0.0050758354
0.0052017
0.0053543193
0.0055449273
0.0057867323
0.00609332
0.0064759187
0.0069093226
0.0073792312
0.0078854284
0.0083448142
0.0087848252
0.0091354215
0.0093731787
0.0095353483
0.0096545992
0.0097665612
0.0098834923
0.01000389
0.010115805
0.010208453
0.010284696
0.010367173
0.010513718
0.010817652
0.011363814
0.012109754
0.012871453
0.013377211
0.013330121
0.013172816
0.013485539
0.014357126
0.015405193
0.016323906
0.016789741
0.017114783
0.017835615
0.018657912
0.01935445
0.020039941
0.020716088
0.02137008
0.021951421
0.022489946
0.023025544
0.023594997
0.024093385
0.024488514
0.024733789
0.025052913
0.02512688
0.025070037
0.024681834
0.0043981228
0.004611996
0.0047543447
0.0048567511
0.004940252
0.0050199044
0.0051067372
0.0052079015
0.0053276415
0.0054703158
0.0056433101
0.0058541163
0.0061106002
0.0064165385
0.0067964397
0.0071981662
0.0076246698
0.008045065
0.0084233137
0.0087915874
0.0090777353
0.0092951403
0.0094846346
0.0096747328
0.0098853101
0.010105078
0.010308459
0.010475817
0.010602557
0.010704953
0.010823363
0.011036284
0.01144945
0.012129996
0.013003239
0.013870513
0.014489635
0.014512106
0.014371564
0.0146889
0.015574781
0.016666454
0.017621567
0.018101626
0.018441684
0.019161954
0.019979703
0.020674687
0.021356686
0.02202591
0.022671689
0.023244048
0.023772736
0.024301683
0.024867992
0.025368399
0.025768737
0.026025248
0.026369552
0.0264604
0.026416061
0.026053458
0.0043231405
0.0046033159
0.0047828014
0.0048969904
0.0049808779
0.0050565775
0.005136502
0.0052287092
0.0053393766
0.0054724603
0.0056307565
0.0058213164
0.00604972
0.0063175308
0.0066205055
0.0069778688
0.0073440368
0.0077212408
0.0080811319
0.0084104905
0.0087387439
0.009026785
0.009289864
0.0095677051
0.0098763931
0.010214854
0.010549651
0.010840464
0.011063765
0.011219397
0.0113386
0.011482964
0.011751031
0.012252562
0.013043989
0.014019623
0.01498084
0.01569502
0.015783407
0.01565657
0.015965336
0.016852324
0.017979724
0.01895496
0.019437032
0.019794235
0.020509425
0.021318109
0.022008316
0.022683753
0.023343479
0.023978613
0.024539897
0.025056438
0.025576407
0.026136702
0.026636538
0.027039293
0.027304459
0.027671004
0.027776943
0.027744306
0.027407177
0.0044484689
0.0047000656
0.0048554662
0.0049494395
0.005019396
0.0050868785
0.0051638698
0.0052571476
0.0053713162
0.0055100904
0.0056771563
0.0058769652
0.0061113257
0.0063824421
0.0066781417
0.0070230595
0.007358803
0.0077005565
0.0080376251
0.0083647175
0.0087147635
0.0090633364
0.0094338612
0.0098360356
0.010284194
0.010757582
0.011211881
0.0115904
0.011869261
0.012052632
0.012184231
0.012344318
0.012648189
0.013211034
0.014081605
0.015138199
0.016179143
0.016968485
0.017115878
0.017006425
0.017298554
0.018175575
0.019329152
0.020315116
0.02079038
0.021165462
0.0218718
0.022668053
0.023350889
0.024017336
0.024665519
0.025288054
0.025836577
0.026339085
0.026848113
0.02739995
0.027896958
0.02829969
0.028571214
0.028957018
0.029076897
0.029055159
0.028743504
0.0044703052
0.0047065299
0.0048499635
0.0049340193
0.0049967103
0.0050593197
0.0051325059
0.0052220615
0.0053328671
0.0054689798
0.0056341803
0.0058316527
0.0060629522
0.0063263598
0.0066188448
0.0069418878
0.0072677597
0.0076197986
0.0079732244
0.0083415355
0.0087623257
0.0092130729
0.0097119566
0.010254979
0.010837193
0.011447516
0.012025693
0.01249818
0.012842197
0.013060061
0.013204944
0.013373936
0.013696404
0.014293755
0.015211793
0.016332521
0.017441212
0.018287605
0.018487638
0.01840209
0.018673592
0.01953201
0.020700477
0.021692871
0.022157916
0.022549212
0.023243529
0.024024885
0.024698318
0.025353895
0.025988956
0.02659737
0.027131815
0.027618797
0.028115267
0.028656607
0.029148854
0.02954947
0.029825341
0.030227336
0.03036079
0.030349053
0.030063041
0.0043850706
0.004621658
0.0047632091
0.0048458539
0.0049063236
0.0049650783
0.005032709
0.0051159843
0.0052200628
0.0053497137
0.0055081104
0.0056986515
0.005920746
0.0061753532
0.0064626323
0.0067787532
0.0071157226
0.0074948933
0.0078864695
0.0083294987
0.0088410743
0.0094070831
0.010039711
0.010726633
0.011441726
0.012190143
0.012900086
0.013481038
0.013907521
0.014176261
0.014345984
0.014524855
0.014854615
0.015465819
0.016408459
0.017576657
0.018743102
0.019633581
0.019883342
0.019827755
0.020077485
0.02091093
0.022084061
0.023077582
0.02353666
0.023939973
0.024619662
0.025384349
0.026046829
0.026690127
0.027310897
0.02790405
0.028423438
0.028893764
0.029376388
0.029905574
0.030391449
0.030788194
0.031066677
0.031482049
0.031628897
0.031626442
0.031366452
0.0041877284
0.004436966
0.0045867701
0.0046766086
0.0047400868
0.0047971841
0.0048599033
0.0049360584
0.005031822
0.00515183
0.0053005919
0.0054810407
0.0056915398
0.0059357123
0.0062186959
0.0065377825
0.0069022091
0.007305076
0.0077473865
0.008275764
0.0088817247
0.0095688544
0.010339294
0.011176272
0.012037185
0.012927096
0.013773876
0.01448292
0.015011915
0.015349914
0.015558268
0.015752299
0.016085106
0.016697257
0.017648663
0.018848635
0.020066557
0.020992735
0.021292959
0.021270745
0.021499389
0.022303411
0.023472117
0.0244605
0.024923561
0.025332682
0.025995752
0.026742543
0.027392923
0.028022934
0.028628601
0.029205698
0.029709358
0.030162234
0.030630038
0.031145779
0.031623978
0.032015429
0.03229506
0.032721356
0.032881448
0.032887791
0.032654334
0.0038733943
0.0041383282
0.0043027168
0.004405133
0.0044752043
0.0045326425
0.0045908501
0.0046600305
0.004746051
0.0048546824
0.0049930968
0.0051641143
0.0053668786
0.0056141482
0.0059003185
0.0062326128
0.0066192776
0.00704686
0.007551381
0.0081623907
0.0088710909
0.0096838019
0.010595747
0.011589963
0.012611608
0.013647098
0.014636373
0.01548375
0.016125275
0.01654472
0.016804258
0.017022793
0.017359813
0.017966293
0.018915966
0.020135121
0.021394859
0.022354868
0.02271064
0.022720996
0.022930387
0.023702071
0.024858443
0.025839062
0.026311095
0.026722602
0.027367764
0.02809586
0.028733331
0.029349386
0.029939456
0.030500012
0.030987558
0.031422504
0.031874811
0.032376161
0.032845683
0.033230735
0.033510318
0.033945472
0.034118678
0.034133574
0.033927012
0.0037041632
0.0038814009
0.0039962468
0.0040737597
0.0041331078
0.0041881956
0.0042508891
0.0043294493
0.0044307449
0.004567958
0.004742516
0.004950514
0.0052122763
0.005513159
0.005872569
0.0062843078
0.0067550293
0.007341387
0.0080498643
0.0088773706
0.0098215737
0.010874755
0.01201728
0.013190609
0.014354944
0.015478164
0.01646643
0.017230845
0.017743047
0.018065211
0.018316442
0.018660798
0.019258921
0.020199887
0.021428049
0.022718639
0.023714074
0.024128379
0.024170317
0.02436313
0.025100766
0.026238144
0.027210162
0.027693302
0.028105392
0.028731982
0.029440935
0.030064965
0.030666694
0.03124095
0.031784762
0.032256072
0.032672901
0.033109326
0.033595663
0.034055801
0.03443366
0.034712259
0.035154599
0.035340829
0.03536426
0.035185073
0.0031084763
0.0032864484
0.0034047809
0.0034860125
0.0035485219
0.0036071964
0.0036740007
0.0037553379
0.0038607004
0.0040134241
0.0042140759
0.0044443108
0.004737715
0.0050755207
0.0054882732
0.0059602062
0.0065508675
0.0072434699
0.0080521673
0.0089765361
0.010028725
0.011199681
0.012468534
0.013787707
0.01507515
0.016323856
0.017448256
0.018335237
0.018942195
0.019332663
0.019622593
0.019977769
0.020566861
0.021494223
0.022722777
0.024034735
0.025066016
0.025537523
0.025611991
0.025791454
0.026494266
0.027607243
0.028570427
0.029065264
0.029477063
0.030084937
0.030774584
0.03138488
0.031972171
0.032530651
0.033057778
0.033512977
0.033911781
0.03433221
0.034803226
0.035253555
0.035623729
0.035900667
0.036348913
0.036548132
0.036580308
0.03642928
0.0023312354
0.0024938422
0.0026077244
0.0026952898
0.0027717525
0.0028494405
0.0029423036
0.0030528946
0.0031782091
0.0033654049
0.0036202205
0.0038897437
0.0042647614
0.0046885833
0.0052202079
0.0058274664
0.0065000967
0.0072766331
0.0081794051
0.0092155739
0.010378553
0.011656475
0.013030491
0.014463363
0.015861346
0.01720375
0.018442743
0.019447533
0.02014438
0.020604338
0.020936332
0.02130512
0.021885288
0.022795294
0.024016619
0.025341401
0.02640649
0.026932236
0.027040431
0.027210013
0.027877964
0.028962318
0.029916414
0.030422719
0.030833896
0.031423326
0.032093756
0.032690235
0.033263211
0.033806185
0.034316929
0.034756379
0.035137509
0.035542097
0.035997777
0.036438146
0.036800439
0.037075291
0.037528548
0.03774081
0.037782206
0.037660342
0.0015935309
0.0017071434
0.0018082739
0.0019114497
0.0020265398
0.0021746824
0.0023441638
0.0025072964
0.0027652818
0.003109983
0.0035162881
0.0040097048
0.0045601826
0.0051730459
0.0058696759
0.0066706255
0.0075759926
0.0085923248
0.009723244
0.010967027
0.012315612
0.013754888
0.015258398
0.016737335
0.018146526
0.019470441
0.02057517
0.021353776
0.021880598
0.022255396
0.022639451
0.023210919
0.024100483
0.02530769
0.02663729
0.027731931
0.028308029
0.028450791
0.028613967
0.029247619
0.030300218
0.031244708
0.031761799
0.032172359
0.032743952
0.033395482
0.033978259
0.034537258
0.035065216
0.035560113
0.035984401
0.036348457
0.036737615
0.037178225
0.03760875
0.037963254
0.038235846
0.038693589
0.038919064
0.038970449
0.038878908
0.031617834
0.032551938
0.033078863
0.033489028
0.034043678
0.034676846
0.035246224
0.035791794
0.036305435
0.036785241
0.037195175
0.037542993
0.037917378
0.03834345
0.038764503
0.039111604
0.039382007
0.039844077
0.040083074
0.040145537
0.040085532
0.01467072
0.012547047
0.0063593733
0.0091832122
0.012225459
0.014742997
0.015973644
0.015719955
0.014242008
0.012157249
0.0043965935
0.0065503331
0.0092802934
0.0121809
0.014528955
0.015622872
0.015299217
0.013811549
0.011768685
0.004640285
0.0067362474
0.0093642039
0.012119448
0.014297467
0.015253489
0.014870313
0.013382897
0.011388312
0.0048913982
0.0069192017
0.009437891
0.01204314
0.014044511
0.01485275
0.014431052
0.012946612
0.011001623
0.0051535315
0.0071037454
0.0095046127
0.011952811
0.013776593
0.014460057
0.01398657
0.012510442
0.010616257
0.0054276575
0.0072911314
0.0095657207
0.011851385
0.013503213
0.014081419
0.013535755
0.012076843
0.010238371
0.0057189964
0.0074863978
0.009624766
0.011742527
0.013222906
0.01368777
0.013069207
0.011639873
0.0098612643
0.0060322205
0.0076931584
0.0096865184
0.011630489
0.012934455
0.01328665
0.01261662
0.01120516
0.0094855278
0.006366456
0.0079129583
0.0097521374
0.011514403
0.012641771
0.012883866
0.012171786
0.010774443
0.0091118329
0.0067248389
0.0081482862
0.0098235103
0.011396595
0.012344298
0.012479124
0.011724268
0.010345735
0.0087398346
0.0071078854
0.0083981339
0.0098995213
0.011275144
0.012045627
0.012072526
0.011276433
0.0099189594
0.0083694733
0.0075087007
0.0086578227
0.0099783971
0.011146764
0.011743029
0.011664781
0.010829776
0.0094948769
0.0080013633
0.0079193239
0.0089186
0.010050516
0.011006103
0.011441246
0.011256113
0.010386045
0.0090753387
0.0076372974
0.0083181859
0.0091632486
0.010104127
0.010850731
0.011137379
0.010848258
0.0099475577
0.0086628171
0.0072797305
0.0086941232
0.0093806737
0.010131473
0.010676959
0.010829368
0.010444292
0.0095185573
0.0082618561
0.0069331459
0.0090329294
0.0095593607
0.010121573
0.010492937
0.01051553
0.010046811
0.0091030564
0.0078767305
0.0066017595
0.0093242786
0.0096981889
0.01008378
0.010301486
0.010201527
0.0096617725
0.0087072496
0.0075134055
0.0062909447
0.0095571154
0.0097934821
0.010024332
0.010100162
0.009892926
0.0092953361
0.00833671
0.0071762779
0.0060037205
0.0097439348
0.0098582922
0.0099503839
0.00990012
0.0095986598
0.0089545832
0.0079971979
0.0068701416
0.0057442385
0.0098727412
0.0098921196
0.0098696809
0.0097125215
0.0093296044
0.0086480739
0.0076956589
0.0066011668
0.0055183967
0.0099321369
0.0098861039
0.0097786905
0.0095375444
0.0090876973
0.0083755587
0.0074289366
0.0063638332
0.0053192157
0.0099197991
0.0098328869
0.0096687877
0.0093676366
0.0088679744
0.0081330281
0.0071934741
0.0061552847
0.0051447568
0.0098442507
0.0097309411
0.0095297695
0.0091875791
0.0086537101
0.0079036511
0.0069726164
0.0059593987
0.0049799192
0.0097247261
0.0095900114
0.0093599742
0.0089854012
0.0084262192
0.0076656119
0.0067437043
0.0057541158
0.0048041193
0.009578987
0.0094211469
0.0091627933
0.0087592797
0.0081769673
0.0074078126
0.006495952
0.0055306697
0.0046111466
0.0094088676
0.0092254911
0.00893707
0.0085042214
0.0078981657
0.0071202936
0.0062182855
0.0052776558
0.0043898877
0.0092096737
0.0089985865
0.0086783784
0.008214105
0.0075840629
0.0067978569
0.0059066831
0.0049925074
0.0041391661
0.0089927821
0.0087548103
0.0084041859
0.0079102365
0.0072581325
0.0064652423
0.0055863583
0.0047002007
0.0038829805
0.0088011789
0.008542181
0.0081686338
0.0076519512
0.0069825172
0.0061838956
0.0053144458
0.0044509593
0.0036636008
0.0086982669
0.0084239753
0.0080359958
0.0075070503
0.0068286165
0.0060261302
0.0051596803
0.004305883
0.0035325369
0.0087082692
0.0084202922
0.0080236191
0.0074918455
0.0068144819
0.0060137796
0.0051476437
0.0042923845
0.0035166366
0.0087800706
0.0084792286
0.0080777741
0.0075502363
0.0068827312
0.0060910936
0.0052278118
0.0043677559
0.0035819441
0.0087416288
0.0084353849
0.0080404434
0.0075314791
0.0068896286
0.0061228131
0.0052765734
0.0044230076
0.0036345108
0.0083862734
0.0080777763
0.0076914696
0.007206184
0.0066026478
0.005883075
0.0050850745
0.0042744108
0.0035212309
0.0078318013
0.007501934
0.007100319
0.0066134359
0.0060290866
0.0053515117
0.0046133408
0.0038713762
0.0031860721
0.0075708354
0.0071892847
0.0067340814
0.0062010395
0.0055874153
0.0049043798
0.0041863868
0.0034845946
0.0028491956
0.0078415631
0.0073970454
0.0068709671
0.0062655041
0.00558578
0.0048500914
0.0040961068
0.0033750416
0.0027341318
0.0083097612
0.0077943942
0.0071874298
0.0065023672
0.0057561155
0.0049707593
0.0041806397
0.0034315235
0.002768249
0.0085081702
0.0078982407
0.0071993598
0.0064428269
0.0056572816
0.0048634628
0.0040849105
0.0033558972
0.0027130163
0.008414441
0.0077544104
0.0070035411
0.0062028645
0.0053924824
0.0045993035
0.0038432253
0.0031486003
0.0025424
0.0085235331
0.007823139
0.0070197948
0.006159825
0.0052941926
0.0044609769
0.0036853348
0.002989618
0.0023945107
0.0089735131
0.0082184237
0.0073400383
0.0063872822
0.0054229337
0.004502549
0.0036639974
0.0029316685
0.0023207192
0.0095228087
0.0087044379
0.0077389492
0.0066783075
0.0055990771
0.0045773217
0.0036662367
0.0028922104
0.0022628716
0.010011396
0.0091451785
0.0081145221
0.0069714016
0.0057992349
0.0046881351
0.0037058238
0.0028854785
0.0022318454
0.010541288
0.0096425433
0.0085633838
0.007352806
0.0060964816
0.0048943354
0.0038292998
0.0029457778
0.0022510843
0.011113574
0.010191504
0.0090763136
0.0078134039
0.0064855974
0.0051971954
0.0040415426
0.0030779083
0.002323308
0.01168279
0.010740642
0.0095932269
0.0082826113
0.0068907423
0.0055268293
0.0042952777
0.003262974
0.0024511558
0.012211441
0.01125928
0.010094424
0.0087524819
0.0073144697
0.0058889806
0.0045844399
0.0034799647
0.0026082428
0.012695402
0.011733526
0.010551883
0.0091845179
0.007708722
0.0062334725
0.0048715727
0.0037081952
0.0027822301
0.01316175
0.012192779
0.010998598
0.0096108046
0.008103806
0.0065876118
0.0051778567
0.0039646786
0.0029921171
0.013610911
0.01262941
0.011416751
0.01000583
0.0084692923
0.0069155125
0.0054630666
0.0042064458
0.0031939231
0.013972877
0.012982847
0.011757101
0.010321616
0.0087559572
0.0071693876
0.0056829976
0.0043943882
0.003353936
0.014199002
0.013198945
0.011959679
0.010509487
0.0089219616
0.0073155423
0.0058112813
0.0045061894
0.0034519644
0.014250197
0.013245016
0.012000497
0.010546608
0.0089583729
0.0073467665
0.0058381051
0.0045337996
0.0034816345
0.014277793
0.013262069
0.012005594
0.010539502
0.0089420705
0.0073289943
0.0058242029
0.0045240472
0.0034786808
0.014134965
0.013121101
0.011869311
0.010412008
0.0088284099
0.0072340442
0.0057518052
0.0044760724
0.0034505517
0.013942424
0.012938442
0.011699753
0.010259375
0.0086966128
0.0071261058
0.005668373
0.0044153235
0.0034098617
0.013374345
0.012393418
0.01118936
0.009797152
0.0082954255
0.0067945839
0.0054080879
0.0042204799
0.0032695223
0.010265828
0.0078899122
0.005485402
0.003215068
0.0012874655
0.00016006208
0.0099403784
0.0076417183
0.0053148192
0.0031221304
0.0012513637
0.00015590389
0.0096195213
0.0073961755
0.0051501793
0.003032623
0.0012200545
0.00015158734
0.0093017503
0.007151766
0.0049889074
0.0029445527
0.0011865154
0.00014715692
0.0089830885
0.0069140192
0.0048308864
0.0028587844
0.0011561427
0.00014261336
0.0086707148
0.0066793006
0.0046750882
0.0027735759
0.0011236072
0.0001379816
0.0083621761
0.0064473444
0.0045209256
0.0026891414
0.0010927543
0.00013325215
0.0080558265
0.0062171543
0.0043673694
0.0026040379
0.0010596956
0.00012842912
0.0077508206
0.0059877105
0.0042135637
0.0025180557
0.0010266789
0.00012349147
0.0074467269
0.0057581297
0.0040585705
0.002430221
0.00099166499
0.00011842456
0.0071431814
0.0055278717
0.0039018844
0.0023403922
0.00095566999
0.00011320391
0.0068400712
0.0052967097
0.0037432571
0.002248363
0.0009181487
0.0001078113
0.0065379449
0.0050651286
0.0035831616
0.0021546409
0.00087974897
0.00010223578
0.006238462
0.0048345759
0.0034227913
0.0020601151
0.00084089133
9.6484549e-05
0.0059439765
0.0046072295
0.0032640787
0.0019663481
0.00080260429
9.0589689e-05
0.005658719
0.0043869026
0.0031102726
0.0018758526
0.00076633367
8.4647794e-05
0.0053867736
0.0041774636
0.0029647613
0.0017909745
0.00073278548
7.8779836e-05
0.0051325951
0.0039820384
0.0028288577
0.001711102
0.00070049922
7.3054777e-05
0.004897832
0.003800952
0.0027017901
0.0016349521
0.00066829631
6.7390731e-05
0.0046862531
0.0036377727
0.0025870976
0.0015660329
0.00063921096
6.1955545e-05
0.00450371
0.0034983009
0.002490219
0.0015088539
0.00061598871
5.7003755e-05
0.0043425592
0.0033748816
0.0024040963
0.0014575694
0.00059481358
5.2938134e-05
0.0042017268
0.0032670579
0.0023284953
0.0014117853
0.00057508414
4.9465197e-05
0.0040676881
0.0031635475
0.0022550629
0.0013665965
0.00055510646
4.6296076e-05
0.0039217506
0.0030479692
0.0021702907
0.0013120257
0.00052938263
4.3112407e-05
0.0037600855
0.0029186112
0.0020742102
0.0012492401
0.00049914513
3.9910994e-05
0.0035724264
0.0027667778
0.0019605317
0.0011748938
0.00046363105
3.66048e-05
0.0033586488
0.002593086
0.0018303124
0.0010900724
0.00042380653
3.3217333e-05
0.0031408924
0.0024167733
0.0016987002
0.0010047622
0.00038436236
3.0031256e-05
0.0029533333
0.0022637222
0.0015833869
0.00092922227
0.00034958151
2.7358669e-05
0.0028376219
0.0021654454
0.0015059724
0.00087615648
0.00032475
2.5490675e-05
0.0028184564
0.0021429236
0.0014823581
0.00085574925
0.0003143727
2.4596566e-05
0.0028708761
0.0021800621
0.0015040487
0.000864485
0.00031628843
2.4437812e-05
0.0029144983
0.0022111087
0.0015221695
0.00087208047
0.00031800694
2.427799e-05
0.002832461
0.0021555258
0.0014870822
0.00085258482
0.00031083842
2.3355998e-05
0.0025603425
0.0019457982
0.0013403111
0.00076534201
0.00027418893
2.1016226e-05
0.002276157
0.0017189624
0.0011748844
0.0006629373
0.00023172006
1.8720159e-05
0.0021639308
0.0016168533
0.0010916102
0.00060746039
0.00021114337
1.770276e-05
0.0021799934
0.0016178228
0.0010827362
0.00059618429
0.00020679223
1.7751823e-05
0.0021419898
0.0015932595
0.0010680991
0.00058764313
0.00020339198
1.7946649e-05
0.0020061926
0.0014912456
0.00099869997
0.00054941203
0.00018974555
1.7312974e-05
0.0018755726
0.0013832494
0.00091840313
0.00049921901
0.00016957945
1.6288258e-05
0.0017982366
0.0013110267
0.00085971471
0.00046130309
0.00015648684
1.5597998e-05
0.0017350646
0.0012510159
0.00081050591
0.00042896211
0.00014457564
1.5075963e-05
0.0016927951
0.0012060117
0.00077086707
0.00040147811
0.00013350978
1.4572481e-05
0.0016863673
0.0011847205
0.00074546372
0.00038128318
0.00012525984
1.4089345e-05
0.0017158921
0.0011845376
0.00073040899
0.00036521936
0.00011818902
1.3607601e-05
0.0017941933
0.0012199902
0.00073599187
0.00035792669
0.00011296328
1.3137899e-05
0.0019033349
0.0012871939
0.00076933584
0.00036578037
0.0001085766
1.2648981e-05
0.0020269923
0.0013638214
0.00080857715
0.0003802117
0.00010898099
1.2270564e-05
0.0021911907
0.0014788468
0.00087637653
0.00040812944
0.00011187706
1.1982565e-05
0.0023540989
0.0016002424
0.00095739424
0.00044935923
0.00012031561
1.1894667e-05
0.0024865326
0.0017018617
0.0010283029
0.00048868632
0.00012970125
1.1867883e-05
0.0025702693
0.0017679899
0.0010761123
0.00051691078
0.00013859141
1.1831496e-05
0.0025984846
0.0017902767
0.0010926084
0.00052739474
0.00014615649
1.162904e-05
0.0026004606
0.0017943616
0.0010988182
0.00053378752
0.00014746919
1.1144979e-05
0.002585382
0.0017866043
0.0010964909
0.00053416517
0.00014763126
1.0381107e-05
0.0025591564
0.0017702696
0.0010887528
0.00053202591
0.00014602583
9.6589026e-06
0.0024610467
0.001705482
0.0010509785
0.00051350091
0.00013891717
8.4525579e-06
)
;

boundaryField
{
    Side1
    {
        type            empty;
    }
    Inlet
    {
        type            calculated;
        value           nonuniform List<scalar> 0();
    }
    Side2
    {
        type            empty;
    }
    Outlet
    {
        type            zeroGradient;
    }
    Botwall
    {
        type            nutkWallFunction;
        blending        stepwise;
        value           nonuniform List<scalar> 
59
(
1.5280866e-05
1.469767e-05
1.4092195e-05
1.3468784e-05
1.2828885e-05
1.2174654e-05
1.1505708e-05
1.0821662e-05
1.0120044e-05
9.3981875e-06
8.652645e-06
7.880386e-06
7.0795192e-06
6.2505459e-06
5.3973771e-06
4.533395e-06
3.675383e-06
2.8326368e-06
1.9911604e-06
1.1759053e-06
4.2414841e-07
0
0
0
0
0
0
0
0
0
0
0
0
0
0
0
0
0
0
0
0
0
0
0
0
0
0
0
0
0
0
0
0
0
0
0
0
0
0
)
;
    }
    Cyli
    {
        type            nutkWallFunction;
        blending        stepwise;
        value           nonuniform List<scalar> 0();
    }
    procBoundary1to0
    {
        type            processor;
        value           nonuniform List<scalar> 
44
(
0.0023070329
0.004158327
0.0013883088
0.0013883088
0.0009409551
0.0009409551
0.0013338361
0.0022510209
0.0022510209
0.0028901394
0.0028901394
0.0032327883
0.0037281616
0.0040828688
0.0040828688
0.0039413174
0.0040864179
0.0041198986
0.0040391474
0.0038400242
0.0034338406
0.0035269672
0.0034338406
0.0028535471
0.002123651
0.0014568024
0.0014568024
0.015095423
0.012937348
0.0061612807
0.0090715781
0.012250823
0.014936702
0.016300644
0.016130414
0.016130414
0.004158327
0.004158327
0.010593466
0.0081422292
0.0056555384
0.0033093857
0.0013208379
0.00016405449
)
;
    }
    procBoundary1to3
    {
        type            processor;
        value           nonuniform List<scalar> 
62
(
0.00085987902
0.00096453963
0.0010755219
0.0012238704
0.0013926452
0.0016101194
0.0018789177
0.0022147917
0.0025868305
0.0030255971
0.0035206323
0.0040877121
0.0047438067
0.0054938299
0.0063300317
0.0072497021
0.0082549539
0.0093489426
0.010535606
0.011816894
0.013190621
0.014648999
0.016176399
0.017698602
0.019154165
0.020538281
0.021724007
0.022586212
0.023182585
0.023600877
0.023995509
0.024546873
0.025399247
0.026575307
0.027901139
0.029030362
0.029667571
0.029853479
0.030008335
0.030595631
0.030595631
0.032902064
0.033829393
0.034371698
0.034782161
0.035318289
0.035932986
0.036489923
0.037022955
0.037523306
0.037989312
0.038386384
0.038718933
0.039078392
0.039490014
0.039902105
0.040243111
0.040510522
0.040976393
0.04123003
0.041304959
0.041277396
)
;
    }
}


// ************************************************************************* //
