/*--------------------------------*- C++ -*----------------------------------*\
| =========                 |                                                 |
| \\      /  F ield         | OpenFOAM: The Open Source CFD Toolbox           |
|  \\    /   O peration     | Version:  2406                                  |
|   \\  /    A nd           | Website:  www.openfoam.com                      |
|    \\/     M anipulation  |                                                 |
\*---------------------------------------------------------------------------*/
FoamFile
{
    version     2.0;
    format      ascii;
    arch        "LSB;label=32;scalar=64";
    class       volScalarField;
    location    "0.077";
    object      alphat;
}
// * * * * * * * * * * * * * * * * * * * * * * * * * * * * * * * * * * * * * //

dimensions      [1 -1 -1 0 0 0 0];

internalField   nonuniform List<scalar> 
8260
(
0.040013201
0.045375774
0.051679632
0.058799042
0.066571306
0.07482292
0.08333411
0.091808375
0.099843684
0.10686287
0.11205092
0.11427969
0.11202131
0.10336709
0.086302147
0.060057871
0.031895877
0.015113368
0.0098670145
0.0081615618
0.007170547
0.0065037973
0.0060100955
0.0056554675
0.0054031612
0.0052359683
0.005130728
0.0050531889
0.0050002121
0.0049636028
0.0049442335
0.047364434
0.052887824
0.058949383
0.065617696
0.072851029
0.080518351
0.088411496
0.096233661
0.10357462
0.10984898
0.1142119
0.11551213
0.11220098
0.10238106
0.084092062
0.057139359
0.029162475
0.014216333
0.0095822087
0.0080480604
0.0071007168
0.0064621876
0.0059848635
0.0056404518
0.0053949141
0.0052311639
0.0051279871
0.0050514686
0.0049991454
0.0049628631
0.0049437159
0.055787754
0.061102669
0.06685965
0.073096586
0.07979001
0.086835016
0.094041434
0.10112073
0.10765779
0.11305289
0.1164478
0.11666486
0.11213619
0.10098427
0.081342894
0.053616209
0.026477991
0.013305873
0.0093975982
0.0079866647
0.007062632
0.0064394293
0.0059712167
0.0056323541
0.0053905209
0.0052285405
0.0051264655
0.0050503742
0.0049983613
0.0049622034
0.0049431485
0.065391985
0.070275095
0.07558766
0.081307706
0.087396601
0.093750087
0.10018396
0.10641333
0.11201904
0.11638996
0.11865314
0.11760864
0.11167339
0.099001824
0.077876807
0.049414884
0.023710098
0.01250651
0.0092153547
0.007887969
0.0069976907
0.0063993009
0.0059468013
0.005617565
0.0053823579
0.0052236296
0.0051235619
0.0050484833
0.0049971425
0.0049613098
0.0049425027
0.076172757
0.080458206
0.085201276
0.090288373
0.095667342
0.10122575
0.10677506
0.11202635
0.11655273
0.1197316
0.12067466
0.11816317
0.11060599
0.096206817
0.073473804
0.044455326
0.02088575
0.01173332
0.0090238207
0.0077959362
0.006938895
0.0063634922
0.0059256741
0.0056049331
0.0053754227
0.0052195859
0.0051211888
0.0050468359
0.0049960107
0.0049603989
0.0049417676
0.087923319
0.091540799
0.095599713
0.099935661
0.10448443
0.10912324
0.11365406
0.11777804
0.12105598
0.1228514
0.12226111
0.11805093
0.1086337
0.092288398
0.067861127
0.038707987
0.018377549
0.01101842
0.0088291083
0.0076820848
0.0068627159
0.0063157349
0.0058970939
0.0055875082
0.005365661
0.0052138389
0.0051177916
0.0050445767
0.0049945273
0.0049592733
0.0049409299
0.10027483
0.10318293
0.10646921
0.10995083
0.11355219
0.11714006
0.12050522
0.12333578
0.12517722
0.12537712
0.12301781
0.11685466
0.10532583
0.086824281
0.060716506
0.032275679
0.016017809
0.010377295
0.0086262635
0.007564482
0.0067857016
0.0062674189
0.0058690057
0.0055704737
0.0053560787
0.0052083809
0.0051145813
0.0050423529
0.0049930144
0.0049580613
0.0049399763
0.11262329
0.11479137
0.11723641
0.11977533
0.12232101
0.12472894
0.12677731
0.12813947
0.12834409
0.12672208
0.12234296
0.11395968
0.10007504
0.07925475
0.051716443
0.025523138
0.013866399
0.0099022322
0.0084157489
0.0074292406
0.0066946083
0.0062085312
0.0058346015
0.0055492617
0.0053438884
0.0052013947
0.0051104572
0.0050395622
0.0049911562
0.004956614
0.0049388913
0.1240135
0.12541466
0.12696076
0.12848168
0.12987574
0.1309844
0.13157113
0.13129275
0.1296604
0.12598948
0.11934092
0.10847805
0.092043691
0.068878663
0.040729684
0.019977299
0.012068753
0.0094507232
0.0081885908
0.0072870214
0.0066007909
0.0061465635
0.0057993847
0.0055275227
0.0053312654
0.0051943736
0.0051062986
0.0050366673
0.004989176
0.0049550131
0.0049376573
0.13294634
0.13357306
0.13417386
0.1346162
0.13478067
0.13449044
0.13349075
0.13141953
0.1277707
0.12184882
0.11271599
0.099163267
0.080117723
0.0549623
0.028421147
0.015631273
0.010697376
0.0090622532
0.0079510181
0.0071312672
0.006496191
0.0060740523
0.0057582432
0.0055017349
0.0053160056
0.0051858285
0.0051011754
0.0050331711
0.0049868019
0.0049531259
0.0049362519
0.13716928
0.13703395
0.13667905
0.13601189
0.13489609
0.13313839
0.13046342
0.12648902
0.12069636
0.1123929
0.10066599
0.084346839
0.06299319
0.037201194
0.0196411
0.012540404
0.0099683072
0.0086791757
0.0076992955
0.0069724621
0.0063904166
0.0059973778
0.0057155508
0.0054746477
0.0053000305
0.0051770276
0.0050957758
0.0050294459
0.0049841991
0.0049510096
0.0049346463
0.13340246
0.13248687
0.13120088
0.12944782
0.12707034
0.12385073
0.11949031
0.1135923
0.10564445
0.094998978
0.080843434
0.06196207
0.039710042
0.022767273
0.014160018
0.010531811
0.0092885719
0.0082712424
0.0074535684
0.0068050281
0.0062795236
0.0059133927
0.0056668834
0.0054428237
0.0052815341
0.0051666018
0.0050892107
0.0050250557
0.0049811088
0.0049485439
0.0049323337
0.11701026
0.11544937
0.11333312
0.11056978
0.10699801
0.10238559
0.096412202
0.088699823
0.078817598
0.06632088
0.051124317
0.036315201
0.023361738
0.014842373
0.010916736
0.0096932032
0.0087214468
0.0079378613
0.0072099022
0.0066516839
0.0061634416
0.005830242
0.0056171062
0.005408824
0.0052625802
0.005155775
0.0050821621
0.0050203784
0.0049776819
0.0049457886
0.0049296915
0.082514986
0.080324181
0.077649669
0.074522165
0.070794661
0.066283235
0.060788836
0.054246956
0.046609209
0.037945144
0.028719084
0.02034314
0.014281043
0.010959911
0.0094994159
0.0087454884
0.0082054088
0.0075264757
0.0069770546
0.0064845234
0.0060607732
0.0057513873
0.005558245
0.0053708393
0.0052415933
0.0051431529
0.0050739298
0.00501504
0.004973682
0.0049426412
0.0049267738
0.046513405
0.045118641
0.043395399
0.041342731
0.038818133
0.035760646
0.032392088
0.028635413
0.02451493
0.020136216
0.015879595
0.012471912
0.010344329
0.009304977
0.0088046621
0.0083319488
0.0076827338
0.0072336753
0.0067469439
0.0063499257
0.0059591469
0.0056724536
0.0055036469
0.0053350444
0.0052197772
0.0051299843
0.0050653057
0.0050095129
0.0049692744
0.004939166
0.0049236445
0.02302464
0.022527073
0.021789323
0.020852773
0.019689952
0.01830473
0.016771108
0.015117327
0.013400566
0.011721483
0.010282863
0.0093166415
0.008740777
0.0086796945
0.0079772118
0.0075739073
0.0073502986
0.0068708707
0.0065180802
0.0061796987
0.0058671514
0.0056085005
0.0054441338
0.0052985679
0.0051964101
0.0051157289
0.0050555322
0.0050031983
0.0049642402
0.0049352453
0.0049204183
0.012221117
0.012101269
0.011853624
0.011508907
0.011084496
0.010603469
0.01009156
0.0095472778
0.0089646337
0.0084944799
0.0082616813
0.008139059
0.0082034205
0.0076803671
0.0074602095
0.0072268323
0.0068102637
0.0065510563
0.0062838391
0.0060490234
0.0057668143
0.0055349136
0.0053962546
0.0052681216
0.0051734865
0.0051008118
0.0050454859
0.0049968864
0.0049586217
0.004930904
0.0049167347
0.0082708306
0.0082411213
0.0081651837
0.0080603627
0.0079301528
0.0077904515
0.0076676126
0.0075566608
0.007491788
0.0074859404
0.0075695875
0.00747718
0.0070997065
0.0071099258
0.0067923462
0.0066155019
0.0065109807
0.0062393775
0.0060850903
0.0058646091
0.0056600115
0.0054785591
0.0053435843
0.0052346448
0.0051507314
0.005086043
0.0050339727
0.0049890792
0.0049523367
0.0049260823
0.0049124935
0.0069800413
0.0069344292
0.0069046249
0.0068877067
0.0068841952
0.006888078
0.0069116325
0.0068803954
0.0068451724
0.0068324651
0.0067462288
0.0065839534
0.00661151
0.0064496778
0.0064408165
0.0062960756
0.0060692799
0.0059303718
0.005816103
0.005734189
0.0055586799
0.0054077138
0.0052938102
0.0052049033
0.0051306705
0.0050699788
0.0050228682
0.0049807845
0.0049453456
0.0049207923
0.0049080303
0.0064015835
0.0063996174
0.0063989954
0.0064053735
0.0064241343
0.0064457953
0.0064082884
0.0063872962
0.0063317851
0.0062182524
0.0061424931
0.0060960678
0.0060199362
0.0059395624
0.0059462261
0.0058910387
0.0058204509
0.005699148
0.0056059418
0.0055317575
0.0054405831
0.0053632853
0.0052318771
0.005173343
0.0051089934
0.0050541804
0.0050099659
0.0049703707
0.0049376375
0.0049149811
0.0049031094
0.0059755376
0.0059689435
0.0059566293
0.0059297529
0.0058903802
0.0058370664
0.0058512906
0.0058434853
0.0058284274
0.0058093789
0.0057684899
0.0057172231
0.0056852094
0.0057040654
0.0056366325
0.0056413982
0.005558693
0.0055206506
0.0054306318
0.005360238
0.0053490605
0.0052998599
0.005193715
0.0051348505
0.0050903912
0.005037992
0.004997023
0.0049597058
0.0049291058
0.0049087171
0.004897741
0.0055739697
0.0055753126
0.0055734991
0.0055685935
0.0055642864
0.0055746095
0.0055777323
0.0055775207
0.005567955
0.0055504671
0.0055421139
0.0055427539
0.0054990234
0.0054423096
0.0054384682
0.0053891381
0.0053719176
0.0053297889
0.0053132182
0.0052630762
0.0052143052
0.0052297106
0.00516001
0.0050991288
0.0050644239
0.005019578
0.0049812523
0.0049469814
0.0049201878
0.0049019639
0.0048922481
0.0053562613
0.0053576566
0.0053561666
0.0053521021
0.0053449798
0.0053330671
0.0053185331
0.0053015482
0.0052971597
0.0052956302
0.005298261
0.005302298
0.0053193016
0.0053173524
0.0052905736
0.0052450619
0.0052573546
0.0052257374
0.0052040103
0.0051647454
0.0051382017
0.0051293506
0.0051093466
0.0050634462
0.005039278
0.0049980055
0.0049641872
0.0049349551
0.0049110806
0.0048946478
0.0048861123
0.0051456433
0.0051467411
0.0051460242
0.0051439173
0.0051414363
0.005139153
0.0051378859
0.0051413083
0.0051470449
0.0051495413
0.005149632
0.0051473524
0.005140633
0.0051364525
0.0051291449
0.0051350486
0.0051088006
0.0050712091
0.0050913992
0.005067708
0.0050687926
0.005047407
0.0050421517
0.0050326522
0.0050019258
0.0049725898
0.0049439404
0.0049204208
0.0049013614
0.0048873653
0.0048798949
0.0050435076
0.0050451845
0.0050451738
0.0050440771
0.0050422531
0.0050398849
0.0050366483
0.0050321858
0.0050291878
0.0050299224
0.0050319772
0.0050349338
0.005036856
0.005042607
0.0050457613
0.0050263145
0.005025803
0.0050125979
0.0050151084
0.0050168271
0.0050237193
0.0050035626
0.0049865728
0.0049845346
0.0049604619
0.0049494894
0.0049233009
0.0049079986
0.0048914787
0.0048800575
0.004873735
0.0049527273
0.0049537938
0.0049541099
0.0049541164
0.0049543021
0.0049548396
0.0049557613
0.0049572708
0.0049611923
0.0049655182
0.0049703471
0.0049752385
0.0049761177
0.0049667038
0.0049602603
0.0049620625
0.0049618137
0.0049756013
0.0049703783
0.0049778366
0.004979844
0.0049661074
0.0049553358
0.0049342747
0.0049268191
0.0049199348
0.0049043769
0.004894498
0.0048821393
0.0048733202
0.0048676914
0.0049111499
0.00491206
0.0049126315
0.00491315
0.0049137708
0.0049142919
0.0049143931
0.0049139937
0.004913963
0.0049140363
0.0049139963
0.0049138987
0.0049148433
0.0049164464
0.004917843
0.004919008
0.0049238462
0.0049234653
0.0049260017
0.0049208066
0.004918307
0.0049163609
0.0049160071
0.0049094925
0.0049045403
0.0048981209
0.0048938149
0.0048823992
0.0048747746
0.0048677891
0.0048637905
0.0048863783
0.0048868695
0.0048871106
0.0048872508
0.0048874049
0.0048875839
0.0048877917
0.0048881193
0.0048885791
0.0048891363
0.0048898337
0.0048910061
0.0048930451
0.0048951465
0.0048968472
0.0048974147
0.0048977905
0.0048984115
0.0048976144
0.0048967567
0.0048945525
0.0048953249
0.0048932516
0.0048929931
0.0048908308
0.0048864526
0.0048815599
0.0048756833
0.0048695449
0.0048645109
0.0048619983
0.0048737196
0.0048739145
0.0048739968
0.004874065
0.0048741934
0.0048743961
0.0048746739
0.0048750963
0.0048756043
0.0048761982
0.0048770518
0.0048782475
0.0048797244
0.0048805954
0.0048816402
0.0048841258
0.0048856801
0.0048853448
0.0048858665
0.0048853752
0.004884639
0.0048861151
0.0048831915
0.0048819963
0.0048817464
0.0048782904
0.0048748213
0.0048706537
0.0048664643
0.0048621781
0.0048581437
0.004866396
0.0048665323
0.0048666508
0.0048668057
0.0048670314
0.00486732
0.0048676336
0.004867819
0.0048678325
0.0048679131
0.0048685686
0.0048699066
0.0048710641
0.0048711196
0.0048711522
0.0048713469
0.0048719764
0.0048729684
0.0048739418
0.0048755291
0.0048752332
0.0048742486
0.0048760006
0.0048741004
0.0048738202
0.0048725725
0.0048707404
0.0048681096
0.0048624666
0.0048584947
0.0048585735
0.0048594485
0.0048595657
0.0048597074
0.0048598866
0.0048601434
0.0048605068
0.0048609982
0.0048616451
0.0048624732
0.0048634801
0.0048645578
0.004866001
0.0048665898
0.0048669279
0.0048667261
0.0048664933
0.0048663327
0.0048664253
0.004866742
0.0048667305
0.004869069
0.0048670752
0.0048692983
0.0048695522
0.0048691456
0.0048685826
0.0048674427
0.0048644558
0.0048625443
0.0048616855
0.0048599641
0.00084372923
0.0018297782
0.0036870131
0.0064952397
0.010226359
0.01497074
0.02082461
0.02784382
0.03615347
0.04517425
0.055077394
0.065422072
0.075426262
0.083862708
0.088883632
0.087863884
0.077512495
0.056669365
0.032174335
0.015590052
0.0092317271
0.0073034638
0.0064850918
0.0059535422
0.0055884464
0.0053539822
0.0051985024
0.0050991952
0.0050306139
0.0049863064
0.0049632086
0.002063511
0.0041902442
0.0070375391
0.010441064
0.01459652
0.019636804
0.025632021
0.032907985
0.040980035
0.049939654
0.059647675
0.069596045
0.078950534
0.086421243
0.090103281
0.087343485
0.074967816
0.052639161
0.028369925
0.014079341
0.008738542
0.0071599811
0.006422237
0.005916518
0.005566503
0.0053418889
0.0051920269
0.005095648
0.0050286086
0.0049851373
0.0049625373
0.0038646093
0.006201773
0.0090806194
0.012682642
0.017156851
0.022600993
0.029125275
0.036625304
0.044920304
0.05401571
0.063644991
0.073269564
0.082017951
0.088551015
0.090920928
0.086468917
0.0722021
0.048769486
0.025424327
0.012622618
0.0083925876
0.007098075
0.0063932334
0.0058988404
0.0055557271
0.0053354609
0.0051883749
0.0050933835
0.0050271574
0.0049841598
0.0049617724
0.0056622745
0.0082178456
0.011448772
0.015448529
0.020264856
0.026016524
0.032819601
0.040366389
0.048776406
0.057895415
0.067379147
0.076642109
0.084761577
0.090345548
0.091407864
0.085299546
0.06926027
0.045064431
0.022846777
0.011781046
0.0082030234
0.0070215637
0.0063482533
0.0058705663
0.0055383806
0.0053256023
0.0051829902
0.0050903053
0.0050253644
0.004983056
0.0049611129
0.0074010089
0.010315175
0.013898718
0.01820477
0.023327085
0.029395478
0.036280132
0.044007439
0.052524665
0.061621068
0.070914001
0.079776935
0.087237603
0.091854471
0.091609587
0.083877891
0.066186953
0.041501313
0.020566394
0.010883846
0.0080065068
0.0069664765
0.0063180821
0.0058519563
0.0055270348
0.0053189312
0.0051792265
0.0050879605
0.0050238873
0.0049820582
0.0049604373
0.0092531117
0.012471581
0.016331879
0.020911526
0.026374103
0.032659428
0.039722117
0.047603632
0.056181136
0.065209938
0.074272605
0.082701111
0.08947571
0.093109774
0.091560215
0.082234705
0.063027924
0.03808843
0.018571715
0.010314976
0.0078816734
0.0069106923
0.0062818662
0.0058288564
0.0055126943
0.0053106285
0.0051746209
0.0050852061
0.0050222404
0.0049809943
0.0049597136
0.011046905
0.014552409
0.018712802
0.023626915
0.029360235
0.035841827
0.043113107
0.051125167
0.059731025
0.06866013
0.077461864
0.085428338
0.091495591
0.094136733
0.091289442
0.080409705
0.059828055
0.034880622
0.016873778
0.0097694929
0.0077636644
0.0068636077
0.0062532874
0.0058110935
0.0055017724
0.0053041765
0.0051709756
0.0050828842
0.0050207824
0.004979992
0.0049589581
0.012783952
0.016607569
0.021082335
0.026343643
0.032289728
0.038993181
0.046442442
0.054556431
0.063164432
0.071968326
0.080484906
0.087968448
0.093314071
0.094959291
0.090827115
0.078442635
0.056625732
0.031919864
0.015466869
0.0093986037
0.0076780613
0.0068189112
0.0062231526
0.005791814
0.0054896945
0.0052970478
0.0051669779
0.0050803805
0.0050192512
0.004978958
0.0049581875
0.014518648
0.018641194
0.023435723
0.028965229
0.035155175
0.042076738
0.049687347
0.057883898
0.066473365
0.075131566
0.083344528
0.090330923
0.0949482
0.095603287
0.090211937
0.076371768
0.053484949
0.029241505
0.014349776
0.0091024756
0.0075998363
0.0067788793
0.0061974723
0.0057757487
0.0054797053
0.0052910509
0.0051635817
0.0050781467
0.0050178397
0.0049779622
0.0049574079
0.016195921
0.020623172
0.025742586
0.031506616
0.037952339
0.045082079
0.052837575
0.061098711
0.069651822
0.07814813
0.086044597
0.092526393
0.096416466
0.096094791
0.089482301
0.074246342
0.050433525
0.026863865
0.013404901
0.0088925311
0.0075367703
0.0067417042
0.0061721918
0.0057595852
0.0054694839
0.0052848678
0.0051600933
0.0050758565
0.0050164076
0.0049769545
0.0049566227
0.017858386
0.022581691
0.027981889
0.033990893
0.040681227
0.048000499
0.055883616
0.064192953
0.072695025
0.081017678
0.088590497
0.094567212
0.097739364
0.09646205
0.088670217
0.072107414
0.047514744
0.024795812
0.012676229
0.0087194899
0.0074788274
0.0067078806
0.0061499462
0.0057455887
0.0054606665
0.0052794305
0.0051570119
0.0050737506
0.0050150576
0.0049759727
0.0049558318
0.019476548
0.024497945
0.030145767
0.036411771
0.043328621
0.050820128
0.05881623
0.067159622
0.075599405
0.083741286
0.090989256
0.096467402
0.098937942
0.096736937
0.087810425
0.069996872
0.044773316
0.023036131
0.012082451
0.0085900519
0.0074295485
0.0066768717
0.0061289157
0.0057321578
0.0054520796
0.0052740554
0.0051539725
0.0050716576
0.005013715
0.0049749904
0.0049550362
0.021068514
0.026362337
0.03225292
0.038760357
0.045873155
0.053530782
0.061626524
0.069992865
0.078362748
0.086321532
0.093249399
0.098242014
0.10003318
0.09694381
0.086936046
0.067955541
0.042241897
0.021567868
0.011638141
0.0084853137
0.0073843594
0.0066487446
0.0061102377
0.0057203615
0.0054445418
0.0052692192
0.0051512319
0.0050697051
0.0050124341
0.0049740278
0.0049542358
0.022632145
0.028170992
0.034299826
0.041027658
0.048311111
0.056126867
0.064306363
0.072686964
0.08098438
0.088763551
0.095381195
0.099908283
0.10104835
0.09711135
0.086079371
0.06601248
0.03994595
0.02037138
0.011313948
0.0084042815
0.0073447657
0.0066233188
0.0060930665
0.0057094213
0.0054374668
0.0052645724
0.005148598
0.005067804
0.0050111754
0.0049730707
0.0049534314
0.024174211
0.029930095
0.036280044
0.043209399
0.050668562
0.05857559
0.066851205
0.075240004
0.083463961
0.09107322
0.097393904
0.10148115
0.10201001
0.09727706
0.085286441
0.064189588
0.037901552
0.019426593
0.011087879
0.0083398224
0.0073090071
0.0066005792
0.0060778723
0.0056998223
0.0054312563
0.0052603571
0.0051461994
0.0050660213
0.0050099685
0.004972131
0.004952622
0.025674317
0.031634314
0.038183562
0.045292055
0.052903552
0.060928087
0.06923046
0.077639458
0.085795312
0.093242488
0.099296422
0.10297752
0.10294218
0.097473932
0.084599227
0.062522398
0.036120117
0.018720265
0.010921259
0.0082873684
0.0072777082
0.0065804241
0.0060642444
0.005691174
0.0054256194
0.0052563994
0.005143934
0.0050643107
0.0050087937
0.004971202
0.0049518063
0.027084329
0.033244243
0.039978068
0.047249277
0.054994334
0.063118091
0.071469321
0.079847382
0.087946477
0.095273529
0.10108861
0.10441092
0.10386666
0.097732649
0.084055584
0.061075572
0.034649913
0.018128881
0.010750482
0.0082415664
0.0072502789
0.0065628109
0.0060523584
0.0056836731
0.0054207444
0.005252822
0.0051418633
0.0050627068
0.0050076653
0.0049702887
0.0049509844
0.028363093
0.034693445
0.041591592
0.049012113
0.056887348
0.065110231
0.07352718
0.081918791
0.089955548
0.097137957
0.10276467
0.10579262
0.1048038
0.098081111
0.083688498
0.059902498
0.033468442
0.017636832
0.010606377
0.0082052132
0.0072269313
0.0065476574
0.0060420078
0.0056771113
0.0054164834
0.0052495424
0.0051399339
0.0050611859
0.0050065735
0.0049693877
0.0049501568
0.029713344
0.036118101
0.043104712
0.050622436
0.058590369
0.066894145
0.075370641
0.083788859
0.09180417
0.098904786
0.10436111
0.1071084
0.10576945
0.098543878
0.083526452
0.059042139
0.032555217
0.017225513
0.010475053
0.0081766367
0.0072074789
0.0065349319
0.0060332578
0.0056715565
0.0054129152
0.0052466249
0.005138176
0.0050597659
0.0050055265
0.0049685017
0.0049493239
0.031055189
0.037510856
0.044542855
0.05210967
0.060130293
0.068486681
0.077008235
0.085454099
0.093465098
0.10051765
0.10586184
0.10842524
0.10678185
0.099109043
0.083591729
0.058523315
0.031897149
0.016879626
0.010358944
0.0081566718
0.0071920599
0.0065246191
0.0060260374
0.0056669125
0.0054099653
0.0052440368
0.0051365649
0.0050584353
0.0050045199
0.004967629
0.0049484863
0.032369338
0.038837855
0.04587836
0.053457251
0.061496139
0.06988069
0.07843412
0.086909377
0.094933205
0.10197343
0.10725964
0.10970475
0.10785166
0.099871578
0.083901388
0.058370975
0.031492593
0.016578411
0.01025231
0.0081450521
0.007180854
0.0065167847
0.0060204254
0.0056632251
0.005407665
0.0052418139
0.0051351168
0.0050572018
0.0050035571
0.0049667697
0.004947644
0.03364185
0.040083629
0.047092998
0.054648068
0.062671793
0.071068765
0.079670125
0.088201317
0.096278432
0.10332941
0.10858216
0.1109568
0.10897911
0.10078835
0.084484606
0.058599166
0.031368022
0.016294668
0.010152194
0.0081422968
0.0071742046
0.0065115076
0.0060164296
0.0056604586
0.0054059614
0.0052399346
0.005133815
0.005056054
0.0050026318
0.0049659206
0.0049467963
0.034884685
0.041230654
0.048152501
0.055645971
0.063666937
0.072092073
0.080732887
0.089300698
0.097401604
0.10449042
0.10977863
0.11216688
0.11016362
0.10187126
0.08533969
0.059236742
0.031484456
0.015991934
0.010059211
0.0081459125
0.0071721896
0.0065087238
0.0060139851
0.0056585608
0.0054048054
0.0052383839
0.0051326509
0.0050549855
0.0050017399
0.0049650797
0.0049459424
0.03609203
0.042239365
0.048973494
0.056316885
0.064248858
0.072638038
0.081284899
0.089903396
0.098091291
0.10527961
0.11067249
0.11315378
0.11120869
0.10291374
0.086254566
0.060040789
0.031892411
0.01558878
0.0099692308
0.0081562885
0.0071733299
0.0065079619
0.0060127807
0.0056573316
0.0054040587
0.0052370964
0.0051315934
0.0050539817
0.005000876
0.0049642474
0.0049450833
0.00086436683
0.0017680351
0.0035162988
0.0061728071
0.0097169473
0.014177225
0.01970364
0.026407172
0.034448825
0.043279687
0.053071236
0.063406182
0.073541818
0.082315276
0.087931122
0.087799704
0.078569767
0.058562608
0.033867344
0.016178913
0.0093597475
0.0073387861
0.0065028745
0.0059652349
0.0055962727
0.0053590512
0.0052013872
0.0051009693
0.0050317593
0.0049870685
0.004963466
0.0009167842
0.0018137484
0.0035340171
0.0061144543
0.0095620519
0.013948657
0.01939084
0.025986581
0.033887731
0.042629723
0.05227133
0.062483738
0.072594675
0.081444116
0.087271395
0.087521426
0.078880809
0.05942865
0.034760486
0.016565174
0.0094399587
0.0073578917
0.00651327
0.0059726711
0.0056016706
0.0053622578
0.0052032604
0.0051021485
0.0050325478
0.0049876442
0.0049637226
0.00098133494
0.0018647301
0.0035595803
0.0060900437
0.0094693075
0.013767505
0.019096177
0.025557835
0.033283183
0.041900134
0.051418637
0.061539533
0.07161571
0.080533978
0.08656947
0.087205179
0.079167148
0.060306479
0.035709197
0.016985908
0.0095273883
0.0073796195
0.0065247683
0.0059804906
0.0056070142
0.0053661819
0.0052054812
0.005103515
0.0050334484
0.0049882257
0.0049640628
0.0010582696
0.0019195333
0.0035832936
0.0060632557
0.0093730424
0.013582111
0.018797688
0.025127637
0.03267501
0.041159499
0.050548767
0.060568837
0.070604555
0.079583748
0.085822842
0.086847005
0.079421756
0.061190652
0.03671201
0.017449194
0.0096315713
0.0074000174
0.0065355903
0.0059887672
0.0056133924
0.0053695002
0.0052074868
0.0051047933
0.0050343218
0.0049888848
0.0049644877
0.0011510264
0.0019841285
0.0036092579
0.0060362866
0.0092759131
0.013394856
0.018496561
0.024685622
0.032062895
0.040409325
0.049663064
0.059574759
0.069561782
0.078593174
0.085029927
0.086443718
0.079637997
0.062079916
0.037764466
0.017963708
0.0097419463
0.0074287861
0.0065497732
0.0059978469
0.0056192404
0.0053741868
0.0052101198
0.0051063994
0.0050353747
0.0049895728
0.0049649036
0.0012647794
0.0020561425
0.003639639
0.0060114053
0.0091796488
0.013207598
0.018194715
0.024241363
0.031449392
0.039653059
0.048765029
0.058561014
0.06848994
0.077563821
0.084190549
0.085992827
0.079812881
0.062970026
0.038848382
0.018519511
0.0098768225
0.0074512592
0.0065615527
0.0060072609
0.0056266875
0.0053787251
0.0052127482
0.0051080177
0.0050364541
0.0049903061
0.004965211
0.0014039866
0.0021515632
0.0036780436
0.0059911572
0.0090876583
0.013024696
0.017897443
0.023805216
0.030839025
0.038896371
0.047858546
0.057530368
0.067390227
0.076496193
0.083304027
0.085492895
0.079949121
0.063864032
0.039988044
0.01913733
0.010018719
0.0074799972
0.0065752705
0.0060173049
0.0056340786
0.0053835615
0.0052155429
0.0051097416
0.0050376007
0.0049910866
0.0049655732
0.0015747293
0.0022622596
0.0037299229
0.005979796
0.0090028198
0.012848193
0.017606012
0.023373908
0.030236978
0.038136358
0.046943117
0.056482021
0.06625935
0.075388667
0.08236818
0.084941371
0.080040778
0.064746117
0.041205984
0.019816721
0.01018703
0.0075111172
0.0065897106
0.0060278027
0.0056419107
0.0053887386
0.0052185538
0.0051115817
0.005038826
0.0049919138
0.0049661287
0.0017806441
0.0023969982
0.0037985301
0.0059810198
0.0089291547
0.012682677
0.017325763
0.02295415
0.029651282
0.037383127
0.046026855
0.055424444
0.065113556
0.074248163
0.081386578
0.084336264
0.080081462
0.065608582
0.042478883
0.020562627
0.010370848
0.0075455388
0.0066046423
0.0060388817
0.0056502661
0.0053942368
0.0052217366
0.0051135418
0.0050401233
0.0049927877
0.0049669366
0.0020264432
0.0025681974
0.0038896935
0.005998748
0.0088703518
0.012532355
0.017061233
0.022549024
0.029066666
0.036638682
0.045114883
0.054363162
0.06395821
0.073078607
0.080360959
0.083676002
0.080066148
0.066452797
0.04380125
0.021380409
0.010584429
0.0075829855
0.0066205003
0.0060504883
0.0056591085
0.0054001156
0.0052251909
0.0051156344
0.00504151
0.004993711
0.0049677067
0.0023227938
0.0027834981
0.0040120451
0.0060424684
0.008834348
0.012403756
0.01681826
0.022164615
0.028508615
0.035908902
0.044213333
0.053303545
0.062784636
0.071883496
0.079293781
0.082960122
0.079990929
0.067267321
0.045173386
0.022277622
0.010822496
0.0076256449
0.006636748
0.0060625119
0.0056685156
0.0054063546
0.0052288216
0.0051178685
0.0050429736
0.0049946863
0.0049684124
0.0026592059
0.0030384831
0.0041745761
0.006112868
0.0088228627
0.012301019
0.016602702
0.021809058
0.027989926
0.035217975
0.043332504
0.052253036
0.061607382
0.070668047
0.078188394
0.082189164
0.079851737
0.068031704
0.046549384
0.023252314
0.011094424
0.0076717772
0.0066541247
0.0060753932
0.005678496
0.005412974
0.0052327913
0.0051202422
0.0050445336
0.0049957195
0.0049691386
0.0030360877
0.0033471293
0.0043837453
0.0062302521
0.0088522889
0.012236155
0.016424354
0.021491071
0.027507938
0.034538428
0.042475588
0.051219015
0.060433572
0.069437395
0.077048963
0.081364682
0.079645855
0.068739182
0.047915912
0.024310373
0.011401387
0.0077265446
0.0066718514
0.0060880211
0.0056889409
0.005420034
0.005236948
0.0051227875
0.0050461787
0.0049968093
0.0049699586
0.0034416616
0.0036990007
0.0046393617
0.0063916826
0.0089254127
0.01221583
0.016291621
0.021219793
0.027070237
0.033893249
0.0416503
0.050209952
0.059270747
0.068189536
0.07588027
0.080489312
0.079371854
0.06938261
0.049287679
0.025453456
0.011749579
0.0077846866
0.0066906315
0.0061024382
0.0057001886
0.0054273831
0.0052415022
0.0051254551
0.0050479187
0.0049979633
0.0049708459
0.0038623707
0.0041010272
0.0049725143
0.0066324798
0.0090708256
0.012261462
0.016222249
0.02100785
0.026690994
0.033321765
0.04089695
0.049241639
0.05813143
0.066966874
0.074692081
0.079567214
0.079029412
0.069954665
0.050653998
0.026686513
0.012144325
0.0078566514
0.0067103459
0.0061152422
0.005711536
0.005435366
0.0052463062
0.0051283452
0.0050497663
0.0049991745
0.0049717867
0.0042896646
0.0045367081
0.0053642389
0.0069423519
0.0092923804
0.012384486
0.016229453
0.020870508
0.026379796
0.032814271
0.040161582
0.048314477
0.057024295
0.065754411
0.073491618
0.078603741
0.078619433
0.070448186
0.052009516
0.02799169
0.012589435
0.0079325038
0.0067301347
0.0061313535
0.0057240663
0.0054433926
0.0052514897
0.0051312958
0.0050516904
0.0050004499
0.0049727736
0.0047258947
0.0050164196
0.0058336767
0.0073561443
0.0096183098
0.012608552
0.016332973
0.020825568
0.026151687
0.032383208
0.039497056
0.047444732
0.055959279
0.064553747
0.072286213
0.077605455
0.078144806
0.070857843
0.053350128
0.029414072
0.013095851
0.0080292274
0.0067530108
0.0061446116
0.0057362347
0.0054524023
0.0052571115
0.0051345518
0.0050537692
0.0050017812
0.0049738029
0.0051990166
0.0055644332
0.0064113428
0.0079012809
0.010082051
0.012963347
0.016556896
0.020892799
0.026024373
0.032047747
0.038940267
0.046667858
0.054953119
0.063387207
0.071086013
0.07658026
0.077610969
0.071187108
0.054675605
0.030927883
0.013664768
0.0081397651
0.0067735651
0.0061614918
0.0057494922
0.0054610608
0.0052628906
0.0051377644
0.0050558804
0.0050031692
0.0049748731
0.0057608708
0.0062133769
0.0071064001
0.0085769589
0.010684735
0.01345842
0.016914769
0.021086031
0.026012528
0.031818933
0.038473629
0.045931653
0.054005649
0.062263904
0.069901152
0.07553656
0.077022357
0.071442151
0.05597826
0.032466745
0.014303305
0.0082630027
0.0068021314
0.0061775939
0.0057630382
0.005471041
0.0052694616
0.0051413851
0.0050582144
0.0050046156
0.0049759846
0.0064982174
0.0070372027
0.0079734147
0.009424373
0.01147337
0.014119472
0.017422627
0.021416332
0.026127456
0.031705734
0.038109767
0.045299195
0.053130857
0.061191961
0.068729432
0.074480992
0.076382509
0.071611801
0.057216122
0.034082952
0.015033669
0.0084221251
0.006822666
0.0061918795
0.0057753478
0.0054804247
0.0052757039
0.0051449109
0.005060517
0.005006102
0.0049771349
0.0074852354
0.0080796428
0.0090356498
0.010454973
0.012406507
0.014929282
0.018074489
0.021881564
0.026371672
0.031711471
0.037855857
0.04477796
0.052348983
0.060183807
0.067611116
0.073424735
0.075697391
0.071697775
0.058385292
0.035792488
0.015835371
0.0085822886
0.0068636549
0.0062141202