/*--------------------------------*- C++ -*----------------------------------*\
| =========                 |                                                 |
| \\      /  F ield         | OpenFOAM: The Open Source CFD Toolbox           |
|  \\    /   O peration     | Version:  2406                                  |
|   \\  /    A nd           | Website:  www.openfoam.com                      |
|    \\/     M anipulation  |                                                 |
\*---------------------------------------------------------------------------*/
FoamFile
{
    version     2.0;
    format      ascii;
    arch        "LSB;label=32;scalar=64";
    class       volVectorField;
    location    "0.077";
    object      U;
}
// * * * * * * * * * * * * * * * * * * * * * * * * * * * * * * * * * * * * * //

dimensions      [0 1 -1 0 0 0 0];

internalField   nonuniform List<vector> 
8260
(
(40.167964 29.029626 0)
(41.547105 27.739712 -2.4738225e-20)
(42.862441 26.450039 2.1376108e-20)
(44.13579 25.157298 -3.6565441e-20)
(45.36444 23.822463 1.5506024e-20)
(46.53021 22.463412 -2.6171485e-20)
(47.622275 21.116654 -1.0932537e-20)
(48.63239 19.815277 -1.4574425e-23)
(49.595951 18.583525 4.902716e-21)
(50.552939 17.421666 0)
(51.447688 16.34514 4.6216383e-20)
(52.301684 15.346078 0)
(53.107142 14.405594 0)
(53.830281 13.486414 -7.1124345e-20)
(54.306523 12.531664 1.8730774e-23)
(54.366375 11.447644 0)
(53.765339 9.9417336 0)
(52.868849 8.2999892 6.7920588e-19)
(52.398738 7.148402 5.6904756e-21)
(52.119922 6.2351734 -6.936889e-19)
(51.888361 5.4058179 -1.2654906e-18)
(51.701201 4.6569605 -1.1392714e-18)
(51.51316 3.9862387 -2.0683881e-18)
(51.346731 3.3662744 1.8513017e-18)
(51.218997 2.8207652 1.6459536e-18)
(51.106383 2.3320278 0)
(51.009164 1.8766975 2.5896178e-18)
(50.924442 1.4488754 2.2850738e-18)
(50.851632 1.0376058 4.0334825e-18)
(50.806989 0.62548183 0)
(50.773138 0.21434296 6.2598473e-18)
(39.170192 28.255932 2.4231257e-20)
(40.608998 27.088603 -1.7447503e-23)
(41.976199 25.981759 -1.8845514e-20)
(43.306545 24.840458 4.9590822e-20)
(44.601168 23.64126 0)
(45.844311 22.401241 2.4694454e-20)
(47.022334 21.150732 4.2352475e-20)
(48.1291 19.920796 2.7135905e-20)
(49.18106 18.736567 -3.1011048e-20)
(50.197835 17.604135 1.3353616e-20)
(51.155786 16.534649 -5.2377971e-20)
(52.060858 15.528873 0)
(52.902791 14.571279 0)
(53.643366 13.629994 1.4641643e-19)
(54.119792 12.62097 -1.5330542e-19)
(54.147312 11.495178 1.9045867e-19)
(53.52892 9.9008055 2.6356675e-24)
(52.682428 8.2650495 -2.1361041e-20)
(52.281029 7.1365721 2.2197077e-20)
(52.034303 6.2293085 -6.6516577e-19)
(51.820698 5.4015282 -9.5217806e-21)
(51.647572 4.6540975 1.1037366e-18)
(51.47021 3.9844377 1.9861128e-18)
(51.312616 3.3659904 -3.4711948e-21)
(51.192412 2.8209246 6.2131913e-21)
(51.08499 2.3325521 -2.7460716e-21)
(50.99151 1.8772123 -2.4903034e-18)
(50.909611 1.4492583 -2.201732e-18)
(50.838844 1.0376798 -3.8939687e-18)
(50.79567 0.62518524 3.4378492e-18)
(50.762695 0.21405929 -6.066807e-18)
(38.130129 27.207181 -2.0336058e-20)
(39.549098 26.265841 1.8253829e-20)
(40.961206 25.363574 0)
(42.355704 24.396317 -3.0172191e-20)
(43.723025 23.352646 2.6945786e-20)
(45.048166 22.249982 0)
(46.316675 21.114082 -4.1689136e-20)
(47.519793 19.973015 -9.0978939e-21)
(48.663518 18.852129 3.9653646e-20)
(49.757009 17.761222 0)
(50.786805 16.710296 4.9067299e-20)
(51.751404 15.705484 0)
(52.638077 14.734631 0)
(53.402839 13.770958 -7.4860349e-20)
(53.887651 12.710561 -5.2742717e-21)
(53.893424 11.53461 -2.1044263e-19)
(53.264989 9.8416532 2.8150238e-19)
(52.489184 8.2468946 -1.3602668e-18)
(52.154606 7.147108 0)
(51.938551 6.2444202 6.3001101e-19)
(51.743963 5.4164868 0)
(51.586514 4.6676824 -8.0664796e-21)
(51.421473 3.9962546 1.4456906e-20)
(51.273688 3.3767303 -1.2898595e-20)
(51.161886 2.8293925 -1.4623699e-18)
(51.060437 2.3393472 0)
(50.971297 1.8823942 0)
(50.892675 1.4530488 1.9889027e-21)
(50.82427 1.0401776 -1.7567571e-21)
(50.78279 0.62671363 -3.176524e-18)
(50.750807 0.21465913 -4.2742545e-23)
(37.261316 26.018874 6.7708e-20)
(38.634245 25.29818 -4.6742731e-20)
(40.041837 24.598526 2.9359207e-20)
(41.45961 23.81804 2.7230246e-20)
(42.869211 22.945972 -7.483929e-20)
(44.252781 21.997133 -2.2582665e-20)
(45.59335 20.993341 2.0260404e-20)
(46.877938 19.958751 -1.804554e-20)
(48.104076 18.917017 1.6034413e-20)
(49.273724 17.881152 0)
(50.374159 16.861748 5.1212266e-20)
(51.398964 15.867055 0)
(52.331712 14.888203 -8.7707478e-20)
(53.119952 13.902738 0)
(53.610541 12.792599 -1.8449274e-19)
(53.589483 11.555018 6.9799802e-21)
(52.958291 9.7609056 4.422629e-23)
(52.272923 8.2316021 6.5906714e-19)
(52.009642 7.1537905 -6.4399686e-19)
(51.828207 6.2542693 0)
(51.655646 5.4262233 -1.0647031e-18)
(51.516129 4.6764015 -7.4601422e-21)
(51.36529 4.0037345 6.6624501e-21)
(51.228922 3.3840974 -1.5181723e-18)
(51.126839 2.8352527 0)
(51.032279 2.3442201 0)
(50.948141 1.8861385 0)
(50.873268 1.4557939 -1.8651003e-18)
(50.807624 1.0418915 0)
(50.768087 0.62760025 2.9076094e-18)
(50.73728 0.21493085 5.1303638e-18)
(36.577139 24.733755 -1.3973552e-20)
(37.883327 24.211645 0)
(39.249927 23.700801 -2.5481927e-20)
(40.653308 23.106151 2.4310835e-20)
(42.072307 22.412931 2.2834889e-20)
(43.486297 21.629732 4.2309139e-20)
(44.875466 20.772889 1.9405244e-20)
(46.222721 19.861447 -1.7665485e-20)
(47.517931 18.915617 -1.5997678e-20)
(48.755472 17.949954 8.6969047e-20)
(49.921304 16.975905 -1.3183921e-20)
(51.003777 16.001908 0)
(51.981265 15.021874 1.7446687e-19)
(52.790274 14.015948 -4.6195874e-24)
(53.280492 12.85599 2.1231303e-19)
(53.226628 11.539267 1.5072421e-20)
(52.604075 9.659303 -3.2140204e-19)
(52.038536 8.2151133 6.2043706e-19)
(51.847198 7.1569168 6.376033e-19)
(51.703492 6.2623876 2.3336898e-24)
(51.555696 5.4363159 9.6351833e-19)
(51.436223 4.6863433 8.7465667e-19)
(51.301609 4.0128174 6.0864122e-21)
(51.178135 3.3933958 1.3785233e-18)
(51.086969 2.8427942 1.2267321e-18)
(51.000237 2.3505636 0)
(50.92181 1.8910232 -3.7471685e-21)
(50.851182 1.4594136 1.6978128e-18)
(50.788713 1.0442144 -2.9919228e-18)
(50.751366 0.62892363 -2.6412246e-18)
(50.721898 0.21540577 5.6872381e-22)
(36.092413 23.375391 2.3008101e-20)
(37.313862 23.030552 -2.2145886e-20)
(38.611784 22.690665 -2.1935847e-20)
(39.968172 22.271349 4.2862119e-20)
(41.363324 21.754567 -4.1229877e-20)
(42.776185 21.141313 0)
(44.185451 20.44082 0)
(45.570911 19.665801 0)
(46.916162 18.83151 3.1554031e-20)
(48.208135 17.951474 3.4963297e-23)
(49.429802 17.03685 -5.394272e-20)
(50.563665 16.095008 1.1411091e-19)
(51.58136 15.12179 -2.0795193e-19)
(52.405799 14.096615 -1.1127758e-19)
(52.885681 12.884762 2.6809157e-20)
(52.795336 11.466236 -1.599695e-20)
(52.201938 9.537695 1.8774118e-20)
(51.784541 8.1953587 -6.2031807e-19)
(51.664641 7.1544557 -1.7280561e-20)
(51.562368 6.2660596 -4.9820057e-19)
(51.442559 5.4439736 -8.7820477e-19)
(51.345339 4.6944818 -1.5894854e-18)
(51.229174 4.0205087 -1.4235732e-18)
(51.120337 3.4019645 -8.1826697e-25)
(51.041525 2.8498304 8.6963993e-21)
(50.963715 2.3566916 1.9611759e-18)
(50.891836 1.8957378 0)
(50.826004 1.4629389 1.5325283e-18)
(50.767207 1.0464346 2.6973771e-18)
(50.732322 0.63013494 0)
(50.704412 0.21581385 0)
(35.822075 21.966413 8.6653973e-21)
(36.945506 21.782772 -3.7063287e-20)
(38.153653 21.594496 3.7576225e-20)
(39.434984 21.333309 -1.8749189e-20)
(40.774279 20.981534 -1.8468197e-20)
(42.152887 20.533566 0)
(43.550078 19.991136 0)
(44.94417 19.359867 0)
(46.314424 18.648786 -3.075753e-20)
(47.641512 17.867791 -5.7828625e-20)
(48.903972 17.025691 0)
(50.077871 16.127303 -1.0419802e-19)
(51.126455 15.169208 1.2756673e-19)
(51.956675 14.123804 -3.5742304e-23)
(52.411194 12.856071 1.708965e-19)
(52.284059 11.309354 3.3224476e-20)
(51.760853 9.4030914 -3.626061e-20)
(51.509661 8.1678676 5.9124438e-19)
(51.460381 7.1441312 0)
(51.403166 6.2637075 4.523247e-19)
(51.315116 5.4490866 8.0719986e-19)
(51.24239 4.7011974 1.4347999e-18)
(51.147121 4.027553 -1.0009479e-20)
(51.054791 3.4107196 8.8055765e-21)
(50.989871 2.8572315 3.3367846e-23)
(50.922179 2.3634185 -1.7619754e-18)
(50.857787 1.9009104 0)
(50.797356 1.466865 2.5473028e-23)
(50.742789 1.0489151 0)
(50.710641 0.63152539 0)
(50.684551 0.21629962 1.886706e-18)
(35.777909 20.576603 -2.3938352e-23)
(36.790671 20.514883 -2.3320385e-20)
(37.891799 20.448124 8.0304839e-21)
(39.07525 20.319973 1.6368513e-20)
(40.3309 20.112674 1.6444569e-20)
(41.644058 19.815625 0)
(42.996395 19.423781 0)
(44.366728 18.935541 0)
(45.732241 18.352824 0)
(47.069151 17.679739 -2.8518075e-20)
(48.351136 16.920354 2.738775e-20)
(49.547318 16.074952 0)
(50.610618 15.139111 -2.6439105e-20)
(51.43158 14.065489 2.7343498e-20)
(51.839346 12.738763 -4.7842213e-19)
(51.678961 11.045044 3.3536908e-20)
(51.293725 9.260619 -3.4210214e-20)
(51.21171 8.1280565 -5.0825591e-19)
(51.232033 7.1229055 0)
(51.223922 6.2526209 0)
(51.172174 5.450067 0)
(51.125961 4.7049635 2.0177621e-20)
(51.05425 4.0325775 1.132114e-18)
(50.980579 3.4184846 5.120936e-25)
(50.931211 2.8640521 -1.7915632e-18)
(50.874973 2.370085 1.5700473e-18)
(50.819091 1.9060076 1.3967531e-18)
(50.764739 1.470812 -2.4557519e-18)
(50.715047 1.0513743 0)
(50.685922 0.63288813 0)
(50.662005 0.21676064 -1.6864539e-18)
(35.945775 19.224421 -6.1748376e-21)
(36.843162 19.251146 2.6206773e-20)
(37.82679 19.277689 -3.4490113e-20)
(38.896778 19.25485 -1.4309597e-20)
(40.047718 19.166492 1.4666391e-20)
(41.269122 18.998916 -2.9650749e-20)
(42.5463 18.741759 2.9634015e-20)
(43.860433 18.387021 0)
(45.188901 17.929518 0)
(46.505542 17.366275 0)
(47.779691 16.694503 0)
(48.972952 15.907741 1.0816715e-19)
(50.025339 14.997669 -1.3643723e-19)
(50.818465 13.869301 2.8272961e-20)
(51.14744 12.49653 2.4535878e-19)
(50.982883 10.664241 0)
(50.820565 9.117598 0)
(50.888068 8.0713775 4.6013943e-19)
(50.977284 7.0868193 2.5709886e-20)
(51.022648 6.2297846 -2.2883218e-20)
(51.012421 5.4454914 0)
(50.994392 4.7048717 -5.5786694e-19)
(50.949374 4.0351104 8.74071e-25)
(50.896957 3.4250711 -9.0083315e-19)
(50.864737 2.8702917 -3.3726564e-23)
(50.821401 2.3768385 -1.4160415e-18)
(50.775076 1.9111441 -1.2399725e-18)
(50.727576 1.4749012 1.0941436e-18)
(50.683499 1.0539051 -1.8854653e-21)
(50.657702 0.63431725 8.316989e-22)
(50.636404 0.21724093 7.336472e-22)
(36.298104 17.929089 0)
(37.084739 18.008691 -4.4591262e-20)
(37.949135 18.100498 4.791286e-20)
(38.897231 18.155658 0)
(39.928367 18.157551 -7.9070219e-20)
(41.036849 18.09247 2.2283616e-23)
(42.212579 17.946505 5.5217047e-20)
(43.440346 17.706781 2.7795516e-20)
(44.699356 17.361868 0)
(45.96283 16.901335 -2.3606354e-23)
(47.196571 16.314189 -6.5408219e-24)
(48.353731 15.585375 -1.6511607e-19)
(49.357919 14.696901 5.6262283e-20)
(50.084892 13.499971 5.8773319e-20)
(50.313567 12.030523 6.223018e-20)
(50.249757 10.20577 2.4883228e-19)
(50.352715 8.9670237 -5.7258473e-20)
(50.536154 7.9925157 9.0510696e-23)
(50.695216 7.03182 0)
(50.797679 6.192088 -3.4561546e-19)
(50.833606 5.4326918 -5.6082172e-19)
(50.845755 4.6990192 0)
(50.831016 4.0337301 0)
(50.802947 3.4293429 7.8889734e-19)
(50.789421 2.8751644 7.186948e-19)
(50.760536 2.3831178 1.249193e-18)
(50.724848 1.9158945 -8.6110006e-21)
(50.68512 1.4788393 3.7984016e-21)
(50.647538 1.0562959 1.7191495e-18)
(50.625433 0.63567981 0)
(50.607275 0.21766829 1.335189e-18)
(36.796089 16.68392 -3.0184678e-20)
(37.471654 16.801465 3.4231526e-20)
(38.219825 16.931706 -4.2763509e-20)
(39.046566 17.031209 -4.5754717e-20)
(39.952101 17.090992 1.2105174e-20)
(40.935525 17.095061 5.0569811e-20)
(41.991444 17.028705 0)
(43.10861 16.876291 -2.6749139e-20)
(44.268776 16.621149 0)
(45.445533 16.245297 -4.2067785e-23)
(46.601514 15.728761 0)
(47.679783 15.045425 -5.6607914e-20)
(48.583693 14.154681 5.8452867e-20)
(49.182492 12.846684 6.0318256e-20)
(49.360751 11.29926 -2.4239803e-19)
(49.565208 9.8143987 -5.1287751e-19)
(49.871101 8.8524799 5.1497395e-20)
(50.166361 7.8376123 -4.1617062e-19)
(50.385257 6.9826937 -2.8761156e-19)
(50.550605 6.1253451 -3.6347616e-20)
(50.632922 5.3951458 4.8103904e-19)
(50.678915 4.6849681 4.8353671e-19)
(50.697531 4.0273428 2.5176411e-20)
(50.697001 3.4304422 6.892006e-19)
(50.704102 2.8782879 0)
(50.691197 2.3886117 -2.2163922e-18)
(50.667351 1.9200881 -7.6381442e-21)
(50.636534 1.4825271 6.7380881e-21)
(50.606472 1.0584871 4.0236671e-23)
(50.588545 0.63698007 1.310936e-21)
(50.574023 0.2180354 -1.1852211e-18)
(37.444879 15.440926 0)
(38.000536 15.56206 0)
(38.625072 15.700278 0)
(39.321694 15.822007 0)
(40.093971 15.911604 0)
(40.942904 15.954748 -1.1006764e-19)
(41.86541 15.93698 1.0259397e-19)
(42.852304 15.841029 0)
(43.886355 15.645785 -1.0977504e-19)
(44.940223 15.325911 1.1254317e-19)
(45.971138 14.851456 5.7708565e-20)
(46.907278 14.178517 0)
(47.647046 13.222127 1.8227912e-19)
(48.102204 11.881175 -6.0536022e-20)
(48.481829 10.459965 1.7069588e-19)
(48.931399 9.5404748 5.1647571e-20)
(49.409191 8.5540863 -1.8557934e-19)
(49.764295 7.7126281 -3.7093066e-19)
(50.058942 6.8620834 6.2116645e-19)
(50.273894 6.0927008 5.1755983e-19)
(50.408798 5.3507291 0)
(50.494436 4.6444712 -2.5178645e-20)
(50.546886 4.0147517 2.2252115e-20)
(50.576879 3.4267797 -6.2969613e-19)
(50.607507 2.8787494 0)
(50.612001 2.3924626 1.962164e-18)
(50.601483 1.9231701 0)
(50.580974 1.4855622 -5.9668921e-21)
(50.559576 1.0602076 -2.689588e-18)
(50.546488 0.63807421 0)
(50.535934 0.21826552 0)
(38.099882 14.110204 0)
(38.551077 14.206733 0)
(39.065004 14.321983 0)
(39.640275 14.43388 8.8447205e-20)
(40.282501 14.5195 -1.789028e-19)
(40.995243 14.565989 2.1669698e-19)
(41.776606 14.559219 -1.3496361e-19)
(42.616519 14.480481 2.831159e-20)
(43.495329 14.304538 1.4709432e-19)
(44.383412 13.999873 -7.3556931e-23)
(45.243071 13.520294 -6.1958147e-20)
(46.006117 12.810952 -2.4840702e-19)
(46.590739 11.819676 1.2119557e-19)
(47.111299 10.747676 0)
(47.747849 9.9239699 0)
(48.390583 9.0962367 9.2967652e-20)
(48.903161 8.3365707 3.3041087e-19)
(49.346422 7.5096518 7.3232236e-19)
(49.708646 6.7418334 -3.2418834e-19)
(49.985542 5.9805697 -5.73045e-20)
(50.165945 5.2806402 5.0687134e-20)
(50.287789 4.6306973 -3.8043574e-19)
(50.377443 3.9898941 1.9752631e-20)
(50.441398 3.4093582 0)
(50.498308 2.8784722 0)
(50.521774 2.3913274 -8.6717225e-19)
(50.526419 1.9246421 0)
(50.517746 1.4875869 0)
(50.506198 1.0612526 1.1916588e-18)
(50.498795 0.63886687 -1.0512271e-18)
(50.492235 0.21833008 -9.2723725e-19)
(38.718993 12.312058 -2.4771591e-23)
(39.083287 12.380825 -1.7762988e-19)
(39.496023 12.470993 9.1059542e-20)
(39.966498 12.55128 0)
(40.495287 12.619148 9.8001414e-24)
(41.077816 12.662375 1.3548286e-19)
(41.711175 12.654476 -4.5604361e-23)
(42.387573 12.575658 -3.2523028e-20)
(43.089202 12.401273 -3.2973506e-20)
(43.789064 12.110743 -6.5781119e-20)
(44.460137 11.663541 -6.4335295e-20)
(45.095523 11.085245 0)
(45.747898 10.432265 0)
(46.477593 9.8671687 0)
(47.198884 9.3073517 0)
(47.836667 8.7013699 -1.6551758e-19)
(48.417935 7.9807217 -1.4665634e-19)
(48.907996 7.2788386 -2.5969203e-19)
(49.339517 6.5636166 0)
(49.676348 5.8748212 -2.0302065e-19)
(49.908135 5.2091094 0)
(50.068767 4.5591656 3.1668573e-19)
(50.189733 3.9528306 0)
(50.289005 3.3988747 0)
(50.375046 2.8739512 0)
(50.420171 2.3885211 0)
(50.441736 1.9212161 0)
(50.446379 1.4879762 -9.3228366e-21)
(50.445795 1.0612806 8.2262376e-21)
(50.445044 0.63908274 1.8594687e-18)
(50.442197 0.21817654 8.1765799e-19)
(39.20755 10.289126 2.6075498e-23)
(39.434196 10.354084 0)
(39.719874 10.439958 1.9663551e-21)
(40.075593 10.516592 1.1880846e-19)
(40.519345 10.536914 -2.5621008e-19)
(41.005325 10.547079 -3.5946783e-20)
(41.522543 10.503833 -2.1627361e-19)
(42.078575 10.412424 5.660953e-19)
(42.672045 10.267203 -2.7451604e-19)
(43.280269 10.117542 -6.605965e-20)
(43.912538 9.898467 -2.2506792e-23)
(44.577347 9.6651581 5.7720624e-20)
(45.306992 9.4071984 0)
(46.025741 9.0957048 0)
(46.703746 8.7024292 0)
(47.358261 8.1830862 2.9353177e-19)
(47.942913 7.6189848 0)
(48.469955 6.9895949 -2.2993964e-19)
(48.949228 6.35998 0)
(49.348669 5.7197411 0)
(49.636849 5.0902139 0)
(49.834975 4.502025 -2.4478673e-19)
(49.98982 3.9047709 -3.085506e-20)
(50.12264 3.3661969 -4.6272481e-19)
(50.238594 2.8539752 2.4007333e-20)
(50.306827 2.3810713 0)
(50.347135 1.9229404 0)
(50.366667 1.4835848 5.2706127e-19)
(50.377874 1.060037 9.3686439e-19)
(50.384775 0.63836586 -3.1716563e-21)
(50.38524 0.2178275 -2.8255531e-21)
(40.129722 8.0257539 0)
(40.290839 8.1272433 -1.0727122e-20)
(40.460868 8.265489 1.0929221e-20)
(40.648047 8.4094815 -1.0960534e-20)
(40.862912 8.6112544 -2.0984954e-20)
(41.159705 8.7447701 2.0311551e-20)
(41.521641 8.8776923 -3.8879389e-20)
(41.95241 8.9759388 -3.6460111e-20)
(42.477504 8.8633602 0)
(43.030014 8.7902949 -2.4270623e-19)
(43.653596 8.6438457 5.0039568e-19)
(44.313997 8.5920364 -5.1655146e-20)
(44.997308 8.4752106 -9.3120757e-20)
(45.658141 8.2762868 1.6539722e-19)
(46.299226 7.9995698 -2.9352142e-19)
(46.925165 7.6375394 8.3337697e-24)
(47.525773 7.1723399 -1.1499363e-19)
(48.059046 6.6661082 4.0655663e-19)
(48.556721 6.1008376 0)
(48.995572 5.534116 0)
(49.343259 4.9663093 6.9980473e-20)
(49.591811 4.3983579 -6.9890013e-24)
(49.780875 3.8401158 -2.7241796e-20)
(49.94548 3.3287413 -2.4069581e-20)
(50.08911 2.832087 -3.3904517e-19)
(50.182576 2.3661804 0)
(50.242332 1.9090614 0)
(50.278231 1.4808062 -4.5785421e-19)
(50.301871 1.0583242 -1.6410168e-18)
(50.317462 0.63560806 -7.2934199e-19)
(50.320938 0.21689291 0)
(40.896587 6.4556051 0)
(41.067836 6.5305085 1.1965783e-20)
(41.259271 6.6328726 -4.1088088e-19)
(41.472985 6.7382856 4.3662235e-23)
(41.693073 6.8604729 3.8267115e-19)
(41.928707 6.9835422 -2.1026559e-20)
(42.18856 7.0847115 3.9041521e-20)
(42.434939 7.1981213 3.5706987e-20)
(42.680497 7.5305548 0)
(43.068309 7.6666534 5.5870474e-20)
(43.597194 7.6422774 -4.869273e-20)
(44.145591 7.5574476 1.7720866e-19)
(44.743556 7.427302 -3.2412945e-19)
(45.385649 7.3947018 1.4635444e-19)
(45.97345 7.2513394 0)
(46.546152 6.9906827 1.1491871e-19)
(47.143507 6.6755215 2.342958e-23)
(47.695981 6.2924859 -1.7954813e-19)
(48.187769 5.8164325 2.3790871e-19)
(48.634582 5.3017488 6.9987841e-20)
(49.028115 4.7808215 -3.0887347e-19)
(49.328372 4.28582 -2.1800478e-19)
(49.563742 3.7585314 0)
(49.761653 3.2721662 3.3914489e-19)
(49.928644 2.7894003 2.6170941e-19)
(50.046448 2.3440345 3.2974052e-20)
(50.126093 1.8995086 0)
(50.180034 1.4692684 0)
(50.217346 1.0512156 -5.6932191e-21)
(50.242423 0.63349746 4.9880956e-21)
(50.248918 0.21601388 0)
(41.51994 5.5603875 -8.8929769e-19)
(41.62482 5.6388668 8.4286977e-19)
(41.747459 5.7286047 7.8744846e-19)
(41.893021 5.8224408 -7.2673982e-19)
(42.067398 5.9208579 -6.8439768e-19)
(42.278845 6.0251964 6.4795574e-19)
(42.542013 6.133287 -6.0754274e-19)
(42.868303 6.2310345 5.1684765e-19)
(43.189473 6.3492047 -4.6038714e-19)
(43.50021 6.3830711 -5.1522102e-20)
(43.738923 6.692781 4.0322819e-19)
(44.121519 6.790685 3.5846716e-19)
(44.620799 6.6127499 -4.1756578e-19)
(45.176285 6.4399337 0)
(45.737692 6.4082034 2.2854783e-19)
(46.251702 6.2843636 -4.0629178e-19)
(46.811864 6.0619643 8.9796864e-20)
(47.366372 5.8455935 0)
(47.859426 5.4800204 -2.0993937e-19)
(48.29477 5.0375415 1.2865471e-23)
(48.704479 4.5820642 4.3598244e-19)
(49.047367 4.1180203 2.4035885e-19)
(49.327919 3.64954 4.2398887e-20)
(49.571258 3.2029076 -3.7396179e-19)
(49.756252 2.7433808 2.9680821e-19)
(49.896812 2.3066452 2.0357913e-19)
(49.997718 1.873052 1.2823944e-20)
(50.070737 1.4561787 3.7320717e-19)
(50.123484 1.0421362 6.4831422e-19)
(50.158877 0.62885435 5.5429378e-19)
(50.168909 0.21421344 0)
(42.263239 4.6065473 -6.5340022e-21)
(42.362845 4.6746913 -2.4071424e-20)
(42.476747 4.7531852 -7.2403977e-19)
(42.605536 4.8355141 1.3449942e-18)
(42.749083 4.9225232 -1.23663e-18)
(42.90613 5.0134666 5.8136679e-19)
(43.073467 5.1051251 0)
(43.251818 5.1942682 0)
(43.464313 5.2715089 -2.5773044e-20)
(43.738998 5.3642426 4.6058128e-20)
(44.089796 5.3702511 2.8722798e-19)
(44.405769 5.3509211 -6.2013576e-19)
(44.656052 5.8346725 3.1404456e-19)
(45.085476 5.6781211 0)
(45.585651 5.5035516 0)
(46.08384 5.5426273 0)
(46.576257 5.4134212 -1.5845376e-19)
(47.081728 5.2939465 2.0992609e-19)
(47.560037 5.0661266 0)
(47.997488 4.7300315 -1.0897959e-19)
(48.409867 4.3330999 9.6158335e-20)
(48.762027 3.9289638 -3.3919816e-19)
(49.068801 3.4987624 1.4957226e-19)
(49.366765 3.1110015 -9.896456e-20)
(49.572918 2.6752206 -2.0353817e-19)
(49.732814 2.2597738 -2.0513429e-19)
(49.856197 1.8429157 3.3922201e-19)
(49.949658 1.431245 -2.9913779e-19)
(50.019346 1.0275481 0)
(50.066014 0.62156077 -4.9647224e-19)
(50.080713 0.21266804 0)
(42.849654 3.9223521 7.6355383e-19)
(42.914257 3.9805228 2.9379892e-24)
(42.989004 4.0462138 1.0148582e-20)
(43.076189 4.1149045 0)
(43.179036 4.1883698 -1.7218615e-20)
(43.301914 4.2676233 5.0138095e-19)
(43.451221 4.3534846 -4.5349259e-19)
(43.631385 4.4467747 0)
(43.836264 4.5485908 2.284838e-20)
(44.051329 4.6474274 3.4677375e-19)
(44.270498 4.7578035 3.6283482e-20)
(44.55759 4.8773395 -5.1612132e-19)
(44.896808 4.7149021 5.7234788e-20)
(45.112821 5.0790398 1.9719107e-19)
(45.52277 4.9012994 0)
(45.967545 4.8367049 0)
(46.432498 4.7329115 -6.9168625e-20)
(46.881904 4.68148 1.0012221e-23)
(47.300939 4.5465876 1.0892651e-19)
(47.734071 4.3399745 -2.0406129e-23)
(48.152341 4.0759469 -2.5432129e-19)
(48.504486 3.6949926 7.4763908e-20)
(48.802578 3.328665 6.5946541e-20)
(49.141394 2.98136 2.9072294e-19)
(49.378594 2.5892948 -5.715758e-24)
(49.557681 2.1929931 -2.2611603e-20)
(49.703287 1.7924865 -6.3799157e-19)
(49.816998 1.4009586 -1.7583286e-20)
(49.904086 1.0067005 0)
(49.963217 0.6120003 0)
(49.983967 0.20934919 0)
(43.499085 3.1832155 1.363394e-18)
(43.558466 3.2323268 1.2561572e-18)
(43.626528 3.287724 -1.1722047e-18)
(43.704182 3.3457785 1.0742738e-18)
(43.792327 3.4081636 -9.6824247e-19)
(43.891695 3.475745 8.7956798e-19)
(44.001528 3.5475894 -8.0641168e-19)
(44.121419 3.6217671 0)
(44.256933 3.6959576 0)
(44.420127 3.7704761 5.5940695e-19)
(44.619373 3.8411158 -4.815658e-19)
(44.824761 3.8997983 0)
(45.048485 4.0559184 -5.0503374e-20)
(45.345385 3.9857036 0)
(45.576231 4.2844888 0)
(45.925729 4.3602354 -6.8146e-20)
(46.291039 4.1874282 2.9802478e-19)
(46.690539 4.0322212 -4.2977478e-19)
(47.098479 3.9764625 -9.5688301e-20)
(47.50673 3.8817965 2.5426524e-19)
(47.915441 3.7397372 -2.5720614e-23)
(48.273119 3.4426627 -6.5929137e-20)
(48.570201 3.1242367 0)
(48.908584 2.8224873 0)
(49.175893 2.4716377 0)
(49.374797 2.1062497 0)
(49.540978 1.7304931 3.1635169e-19)
(49.674863 1.3547171 -1.5501759e-20)
(49.777879 0.97779822 -1.3671006e-20)
(49.849662 0.59705854 -6.0290728e-21)
(49.878096 0.20575089 3.4567354e-19)
(44.025702 2.657629 1.2161605e-18)
(44.063733 2.6998474 -1.1170478e-18)
(44.107677 2.7468979 8.1155699e-21)
(44.158735 2.7963676 9.64181e-19)
(44.218578 2.8501664 -8.7356014e-19)
(44.289294 2.9092949 7.918911e-19)
(44.373694 2.974076 -1.4275558e-18)
(44.475109 3.0447453 -1.9973524e-20)
(44.595145 3.1214888 5.545404e-19)
(44.732253 3.2031797 0)
(44.88588 3.2884039 -4.8177209e-19)
(45.072291 3.3769425 2.5183556e-20)
(45.292194 3.4203617 3.7875716e-19)
(45.51519 3.5050969 -3.1542681e-19)
(45.766811 3.5379443 2.4404253e-19)
(46.007931 3.4183105 1.9629155e-24)
(46.260466 3.7568892 2.1284918e-19)
(46.572284 3.5674418 -2.3215389e-19)
(46.932456 3.4129587 3.3229945e-19)
(47.328909 3.3828012 -7.4587307e-20)
(47.693609 3.3345578 6.5899893e-20)
(48.049823 3.1199628 1.5877198e-23)
(48.388725 2.9084263 1.0251136e-19)
(48.69833 2.6254184 0)
(48.970675 2.3170023 -1.5940828e-19)
(49.187046 1.9928319 1.4056565e-19)
(49.370925 1.644276 3.0986016e-20)
(49.523859 1.2977934 -2.7328479e-20)
(49.641455 0.94076485 1.2050528e-20)
(49.724879 0.57766937 3.2420942e-19)
(49.762226 0.19938523 -2.9531682e-19)
(44.612761 2.0695035 2.1852581e-18)
(44.649022 2.1039158 -1.9876712e-18)
(44.690617 2.1420433 -1.4418913e-20)
(44.738107 2.1820684 -6.6306721e-21)
(44.79203 2.2255992 -6.0464571e-21)
(44.852828 2.2734372 1.4133035e-18)
(44.920859 2.3255639 -4.8989234e-23)
(44.996621 2.3815607 -1.1238296e-18)
(45.081193 2.4408225 2.9582571e-24)
(45.17764 2.5027416 0)
(45.289426 2.566534 -2.5018327e-20)
(45.412503 2.6297636 -4.4382352e-20)
(45.548452 2.7107655 -1.9655305e-20)
(45.721098 2.7754477 2.7820324e-19)
(45.897277 2.8248534 -2.4595627e-19)
(46.095607 2.9783552 2.7159769e-20)
(46.34308 2.8423749 0)
(46.560363 3.1535083 -4.1511827e-20)
(46.858077 3.0010657 -7.2211005e-20)
(47.191891 2.8668219 -6.5135314e-20)
(47.516221 2.8387368 0)
(47.840829 2.7154539 -1.0246822e-19)
(48.231814 2.6297274 0)
(48.518485 2.4120178 0)
(48.764707 2.1323156 1.4050694e-19)
(48.995084 1.8505559 -2.4780913e-19)
(49.192673 1.5424575 1.0926788e-19)
(49.36396 1.2230181 0)
(49.495186 0.89088906 -1.8059381e-19)
(49.589119 0.55017544 -2.9045043e-19)
(49.635731 0.19167528 0)
(45.045628 1.675538 -1.9477927e-18)
(45.066172 1.7036192 3.4524947e-21)
(45.089889 1.7342772 1.2803863e-20)
(45.117391 1.7664326 1.5049743e-18)
(45.149555 1.8015772 -1.3656699e-18)
(45.187611 1.840542 -2.0997201e-24)
(45.233477 1.8834504 0)
(45.289544 1.929773 1.5612798e-24)
(45.356037 1.9804541 8.9274925e-19)
(45.434237 2.0357991 -7.8266396e-19)
(45.5285 2.093491 2.2078189e-20)
(45.642387 2.1546134 1.9578751e-20)
(45.775976 2.2084874 0)
(45.918097 2.2652371 0)
(46.088896 2.3170264 4.8798436e-19)
(46.258076 2.3321589 2.3908914e-20)
(46.422677 2.4589876 -3.3829949e-19)
(46.670637 2.2537598 3.7315715e-19)
(46.869213 2.5550298 -2.2464075e-19)
(47.125729 2.4764806 -5.6613086e-20)
(47.392082 2.3511062 0)
(47.691396 2.3209444 -9.0171761e-20)
(48.053186 2.2924683 7.9667637e-20)
(48.330114 2.1487393 -8.3269897e-24)
(48.56052 1.9194281 -6.1939963e-20)
(48.801053 1.6785461 1.092198e-19)
(49.00734 1.409979 -9.6312183e-20)
(49.196055 1.1320164 -1.6988772e-19)
(49.339944 0.83120076 1.8713912e-20)
(49.44317 0.51608225 -2.4779045e-20)
(49.498847 0.17991843 7.2852855e-21)
(45.540628 1.2571686 -1.7239178e-18)
(45.561543 1.279967 -6.0967298e-21)
(45.585539 1.3047935 1.4441283e-18)
(45.612925 1.3310266 0)
(45.643979 1.3599241 -1.211335e-18)
(45.678879 1.3920799 -8.5399042e-21)
(45.71745 1.4277043 2.1923622e-23)
(45.759417 1.4674069 1.7722982e-18)
(45.807132 1.5102409 -2.1232542e-23)
(45.86173 1.5557192 -7.1249125e-19)
(45.921533 1.6053552 0)
(45.988114 1.6572151 0)
(46.065938 1.7142423 0)
(46.165136 1.7726229 0)
(46.285739 1.8403345 -2.3907018e-20)
(46.441266 1.9126222 3.3782381e-19)
(46.609331 1.926718 -2.6098428e-19)
(46.762325 2.0822363 -2.9600469e-19)
(46.952997 2.0119299 2.0165617e-19)
(47.113998 2.1882776 1.9948701e-25)
(47.338523 2.0260069 0)
(47.606667 2.0190648 1.590253e-19)
(47.875491 1.9382377 -1.4046666e-19)
(48.117529 1.8093642 6.186105e-20)
(48.366323 1.6751191 0)
(48.613916 1.4778493 -1.444363e-19)
(48.82698 1.2580287 4.2457361e-20)
(49.023319 1.0159056 1.8718741e-19)
(49.179179 0.7559304 9.9050429e-20)
(49.289537 0.47210087 0)
(49.352429 0.16570746 -2.055183e-19)
(45.890136 0.98637377 0)
(45.90003 1.0037748 2.7053476e-21)
(45.911687 1.022483 0)
(45.925563 1.0421106 0)
(45.942103 1.0636406 -4.1786774e-21)
(45.962009 1.0875331 -1.9343394e-18)
(45.986321 1.11395 1.7395512e-18)
(46.016341 1.1430296 6.0843154e-21)
(46.053361 1.1750147 1.0861645e-20)
(46.098978 1.2100619 -1.2276897e-18)
(46.155231 1.2486899 2.1983719e-18)
(46.225308 1.2915038 -9.7454566e-19)
(46.310913 1.3369391 0)
(46.405807 1.385526 0)
(46.503392 1.427571 0)
(46.605722 1.4593898 0)
(46.720702 1.5173158 -1.6436476e-20)
(46.862066 1.4963143 2.6098199e-19)
(46.986193 1.5700724 -2.5608479e-20)
(47.153855 1.530025 -1.5801222e-19)
(47.346827 1.599695 1.5500917e-19)
(47.570704 1.6372663 -2.8086693e-19)
(47.779763 1.5420532 2.4765907e-19)
(47.984393 1.4717204 -1.0910245e-19)
(48.211496 1.3786136 1.4440599e-19)
(48.452145 1.2369321 8.4883269e-20)
(48.668326 1.0839297 0)
(48.85527 0.88340261 3.3005176e-20)
(49.017198 0.66608822 -2.2272333e-24)
(49.131437 0.42137942 -1.2838572e-19)
(49.198005 0.14700316 1.8116703e-19)
(46.270427 0.66903398 -2.7103446e-18)
(46.280432 0.68188751 2.4460681e-18)
(46.291676 0.69575262 0)
(46.304321 0.7105894 0)
(46.318784 0.72712694 7.3753145e-21)
(46.335478 0.74576736 0)
(46.354751 0.76666619 0)
(46.37693 0.78988363 -1.3794073e-18)
(46.402342 0.81542503 1.2261898e-18)
(46.431392 0.84321431 -1.2013437e-24)
(46.464667 0.87259656 7.5729194e-21)
(46.501783 0.90255534 0)
(46.542022 0.93265003 0)
(46.588775 0.96092305 0)
(46.645823 0.99245532 0)
(46.713713 1.0303945 0)
(46.801899 1.0598237 -1.4491713e-20)
(46.916301 1.0987965 -1.2788906e-20)
(47.056627 1.104884 -3.1587223e-19)
(47.192347 1.1486221 6.3685708e-19)
(47.376262 1.1671244 -3.0850356e-19)
(47.548745 1.1406978 -3.0622909e-20)
(47.721928 1.130599 -1.0879287e-19)
(47.916208 1.1262481 9.6272386e-20)
(48.120554 1.0883167 -4.2439127e-20)
(48.320533 0.99889035 -7.4841473e-20)
(48.52664 0.8917843 5.7811581e-24)
(48.700288 0.74086208 5.8204354e-20)
(48.854882 0.56340851 2.5668069e-20)
(48.970881 0.36044284 1.1318396e-19)
(49.038802 0.12705048 7.9870991e-20)
(46.489958 0.51304963 -2.3932778e-18)
(46.497127 0.5224417 2.1565897e-18)
(46.505652 0.53241364 -1.9493329e-21)
(46.51567 0.54305823 1.8299733e-18)
(46.527317 0.55491966 -1.6679067e-18)
(46.54072 0.56826848 -1.5075345e-18)
(46.555987 0.58323305 1.1547089e-23)
(46.573211 0.59994732 2.4225727e-18)
(46.592479 0.6185884 -1.0808765e-18)
(46.613942 0.63936549 -3.7581972e-21)
(46.638048 0.66251808 -7.6709332e-25)
(46.666286 0.68843082 5.9179901e-21)
(46.702191 0.71698502 0)
(46.748628 0.74889918 9.2718791e-21)
(46.807102 0.78232127 -5.2442471e-19)
(46.876013 0.81563319 4.5594706e-19)
(46.950054 0.84833384 0)
(47.032286 0.88090353 -3.720859e-19)
(47.141433 0.91510138 2.984318e-19)
(47.257419 0.91591871 1.7548212e-20)
(47.369005 0.97144806 1.5313603e-20)
(47.500004 0.93351334 2.6753303e-20)
(47.651561 0.87059841 0)
(47.84224 0.8563293 1.6872836e-19)
(48.030142 0.85799238 -1.8676887e-19)
(48.201152 0.78563853 -3.2998056e-20)
(48.382629 0.70151236 -5.8190756e-20)
(48.549503 0.59489199 0)
(48.693911 0.45346659 4.1112346e-24)
(48.809673 0.2911202 -7.9845099e-20)
(48.878872 0.1027883 6.4500963e-24)