/*--------------------------------*- C++ -*----------------------------------*\
| =========                 |                                                 |
| \\      /  F ield         | OpenFOAM: The Open Source CFD Toolbox           |
|  \\    /   O peration     | Version:  2406                                  |
|   \\  /    A nd           | Website:  www.openfoam.com                      |
|    \\/     M anipulation  |                                                 |
\*---------------------------------------------------------------------------*/
FoamFile
{
    version     2.0;
    format      ascii;
    arch        "LSB;label=32;scalar=64";
    class       volVectorField;
    location    "0.03";
    object      U;
}
// * * * * * * * * * * * * * * * * * * * * * * * * * * * * * * * * * * * * * //

dimensions      [0 1 -1 0 0 0 0];

internalField   nonuniform List<vector> 
2065
(
(44.264372 31.982656 -1.2675809e-20)
(45.791099 30.558051 -1.410724e-23)
(47.244086 29.129447 9.6503686e-21)
(48.649227 27.694184 8.2357988e-21)
(50.000969 26.208414 -6.9796613e-21)
(51.276432 24.689842 -5.8771264e-21)
(52.465234 23.18138 1.9774831e-20)
(53.557217 21.719746 0)
(54.583327 20.333948 0)
(55.589316 19.029506 1.4855729e-21)
(56.525112 17.822211 -1.2750598e-21)
(57.414951 16.705213 -3.5688003e-20)
(58.252339 15.663202 -3.3112189e-20)
(59.021052 14.654237 6.2266574e-20)
(59.557686 13.641755 -9.5192171e-22)
(59.71656 12.529941 0)
(59.17268 11.035261 1.5286063e-21)
(58.027728 9.1227549 -2.2515611e-21)
(57.274171 7.7178479 0)
(56.866011 6.6557988 -3.2173026e-19)
(56.53373 5.713162 -1.1836135e-18)
(56.225352 4.8674819 -5.3716093e-19)
(55.925224 4.1076095 0)
(55.606552 3.404433 1.7333716e-18)
(55.284829 2.7763798 -1.5044047e-21)
(55.025237 2.1668053 1.3656542e-18)
(54.722395 1.6462917 -5.8958521e-22)
(54.502412 1.0490559 1.0680199e-18)
(54.306478 0.6304459 0)
(54.039856 0.03863184 4.0793003e-19)
(51.961158 -0.092326304 1.7781805e-24)
(43.134084 31.115914 -2.1354133e-23)
(44.727623 29.829768 -4.8747819e-24)
(46.239134 28.605202 7.4278868e-24)
(47.70705 27.338523 7.4593028e-21)
(49.131496 26.004 1.2938695e-20)
(50.493951 24.619913 1.1126558e-20)
(51.778855 23.220438 -3.8039319e-20)
(52.977952 21.839972 -4.0561767e-21)
(54.105219 20.508477 -1.0392941e-20)
(55.183326 19.237204 2.9708687e-21)
(56.192653 18.039134 -2.5734223e-21)
(57.142491 16.916316 0)
(58.024369 15.856463 -2.0680217e-21)
(58.818144 14.826524 -2.7234656e-20)
(59.363779 13.760288 -1.9769457e-21)
(59.498266 12.610108 0)
(58.917298 11.022141 -2.0299293e-19)
(57.802179 9.0844713 4.5774753e-21)
(57.131266 7.7087326 -5.1178126e-21)
(56.765842 6.6562826 0)
(56.455649 5.7139304 2.191641e-21)
(56.163448 4.8687432 -4.0195444e-21)
(55.875353 4.1082593 1.8087241e-21)
(55.566241 3.4050634 -1.6552421e-18)
(55.252337 2.776796 7.3630445e-19)
(54.998934 2.1681304 -1.2753607e-21)
(54.699954 1.6468044 1.1279803e-21)
(54.483987 1.0492173 -2.0447302e-18)
(54.289926 0.63135291 -1.8026358e-18)
(54.02666 0.03510463 -3.9872374e-19)
(51.953911 -0.095643319 -4.533187e-24)
(41.960018 29.946346 -9.1812649e-21)
(43.529983 28.910807 1.0050214e-23)
(45.090842 27.913713 -7.5408361e-21)
(46.629897 26.841251 6.81196e-21)
(48.135376 25.680721 -1.2129737e-20)
(49.589643 24.451035 -1.0698567e-20)
(50.97605 23.180844 3.7459482e-20)
(52.283414 21.901201 0)
(53.515536 20.641958 1.4164205e-20)
(54.683203 19.417953 3.0869759e-21)
(55.775776 18.24205 -2.7112587e-21)
(56.795151 17.122276 4.1135093e-20)
(57.730917 16.049456 3.5450072e-20)
(58.557593 14.9986 3.1795971e-20)
(59.121719 13.881891 0)
(59.23964 12.686065 0)
(58.6305 10.989065 -1.4527749e-23)
(57.568024 9.0572761 0)
(56.983161 7.729759 0)
(56.656196 6.6848342 2.9290712e-19)
(56.36897 5.7397257 1.0686724e-18)
(56.094631 4.8912068 -4.8314246e-19)
(55.820118 4.1262837 0)
(55.52161 3.4195207 7.6302011e-19)
(55.21568 2.7879807 -6.7628272e-19)
(54.968388 2.1776145 -1.1766626e-21)
(54.673362 1.6535279 0)
(54.461628 1.053804 9.420654e-19)
(54.269537 0.63553493 -2.6653791e-23)
(54.011024 0.031310504 -3.8541141e-19)
(51.944794 -0.10349348 -6.4678382e-21)
(40.978569 28.620949 7.6249357e-21)
(42.495544 27.829739 -7.0304713e-21)
(44.049941 27.057929 1.3232468e-20)
(45.614078 26.193934 -1.2284888e-20)
(47.166479 25.225529 1.1239689e-20)
(48.686227 24.168578 -1.0160627e-20)
(50.153669 23.047217 -1.8172769e-20)
(51.5531 21.888309 0)
(52.879677 20.719486 7.15398e-21)
(54.135788 19.558504 -6.3392723e-21)
(55.310627 18.419523 2.2614489e-20)
(56.400728 17.31348 -5.0925895e-21)
(57.392525 16.234262 4.736829e-21)
(58.252517 15.163986 -3.6648003e-20)
(58.833921 13.999105 0)
(58.929283 12.748672 -2.7648365e-21)
(58.294355 10.92888 1.1933694e-19)
(57.303264 9.0319218 4.6264633e-21)
(56.812746 7.7483927 3.0234714e-19)
(56.528657 6.707711 -2.8144479e-19)
(56.267955 5.7593922 -4.889335e-19)
(56.014192 4.9077615 4.4531192e-19)
(55.755343 4.1388202 5.2441431e-25)
(55.469136 3.429478 -7.0764541e-19)
(55.173052 2.7955542 6.2748955e-19)
(54.933015 2.1844684 -2.1517389e-21)
(54.642866 1.6582107 0)
(54.436263 1.0568956 0)
(54.245908 0.63903399 1.5177778e-18)
(53.99357 0.027363364 4.0294105e-19)
(51.934182 -0.11003261 0)
(40.20268 27.187138 6.2974697e-21)
(41.643895 26.615871 0)
(43.151308 26.054047 -5.7452995e-21)
(44.698434 25.39743 -1.0929525e-20)
(46.260864 24.62923 1.0476197e-23)
(47.814658 23.758235 1.9003915e-20)
(49.336888 22.8024 -8.7108042e-21)
(50.807445 21.783048 5.4532938e-24)
(52.213589 20.723765 1.7939217e-24)
(53.54904 19.643394 1.2861478e-20)
(54.800771 18.557317 -3.4946389e-20)
(55.959408 17.477494 -3.7392982e-20)
(57.00664 16.400333 0)
(57.89862 15.313681 3.930302e-20)
(58.49288 14.101567 0)
(58.55711 12.783429 9.6112709e-20)
(57.90194 10.83478 -1.1752549e-19)
(57.013499 9.0059584 -2.958942e-19)
(56.624247 7.765285 -2.6852764e-19)
(56.384599 6.7312916 1.3690407e-24)
(56.1536 5.7815377 -7.0588308e-21)
(55.923021 4.9274155 3.1534465e-21)
(55.681968 4.154505 4.4935201e-25)
(55.409749 3.4424641 6.3588765e-19)
(55.124845 2.8057465 -5.6537068e-19)
(54.892576 2.1934896 0)
(54.608137 1.664615 0)
(54.407049 1.0612631 0)
(54.218201 0.64377582 1.374367e-18)
(53.974078 0.023311849 9.841758e-23)
(51.923677 -0.1157924 1.7032218e-23)
(39.649 25.671039 5.1861585e-21)
(40.994997 25.297024 -9.9610101e-21)
(42.424855 24.925464 1.4809073e-20)
(43.918565 24.46443 9.6263676e-21)
(45.453696 23.893636 -1.8516596e-20)
(47.006064 23.213383 8.1045582e-24)
(48.551131 22.433679 4.1097841e-20)
(50.065492 21.568863 -2.2860638e-20)
(51.529903 20.636871 0)
(52.929802 19.654937 0)
(54.248232 18.638219 0)
(55.469187 17.598316 -3.8725645e-20)
(56.567946 16.533199 3.6887632e-20)
(57.488117 15.434378 -8.3537284e-20)
(58.08722 14.17401 0)
(58.111042 12.771374 -1.0955727e-19)
(57.443805 10.697734 1.2796025e-19)
(56.700689 8.9801844 2.8064595e-19)
(56.413223 7.7782453 0)
(56.220936 6.7520021 -2.2974491e-19)
(56.023286 5.8019946 -4.1725994e-19)
(55.818827 4.945637 -3.5447005e-19)
(55.597885 4.1689005 -6.5562153e-19)
(55.341687 3.4545903 -5.765716e-19)
(55.069958 2.8153378 0)
(54.846219 2.2021228 0)
(54.568938 1.6707901 0)
(54.373749 1.0654894 0)
(54.18627 0.64886706 -1.2393135e-18)
(53.952289 0.01914437 1.9173271e-22)
(51.911703 -0.1217267 -6.66973e-20)
(39.336051 24.102507 -1.5629835e-20)
(40.571711 23.906542 3.3296054e-20)
(41.90043 23.703213 -3.372106e-20)
(43.309392 23.418255 1.6831632e-20)
(44.781412 23.031804 1.6538987e-20)
(46.295247 22.536918 -4.0111767e-20)
(47.827161 21.93526 2.5718773e-24)
(49.352314 21.233275 -7.5163158e-24)
(50.847027 20.441856 -1.3664058e-20)
(52.289924 19.573919 -1.278215e-20)
(53.658783 18.642091 3.5955124e-20)
(54.930405 17.655895 4.5345264e-20)
(56.07198 16.613462 -8.7695732e-20)
(57.012011 15.506804 8.8061252e-20)
(57.602657 14.193836 0)
(57.577196 12.684429 -1.3624397e-20)
(56.920456 10.516505 1.5820492e-20)
(56.368311 8.9535011 -2.5356925e-19)
(56.178346 7.7848516 0)
(56.035766 6.7688091 2.081896e-19)
(55.875479 5.8211442 3.710198e-19)
(55.700519 4.9634904 -2.5153633e-23)
(55.502183 4.1835943 -3.5606575e-23)
(55.264323 3.4675725 5.1788746e-19)
(55.007866 2.8259591 -4.6141392e-19)
(54.793171 2.2116167 3.1582393e-21)
(54.524798 1.6778114 0)
(54.335599 1.0704327 6.2982227e-19)
(54.14975 0.65500681 1.1104816e-18)
(53.92793 0.01474882 -1.8387304e-22)
(51.898495 -0.12768704 2.7883453e-23)
(39.27595 22.560493 0)
(40.38728 22.497694 3.479637e-21)
(41.595826 22.428505 0)
(42.894898 22.291341 0)
(44.273095 22.066112 -1.4690016e-20)
(45.713759 21.74042 1.4553433e-20)
(47.196037 21.308447 -1.1711766e-23)
(48.695927 20.768592 0)
(50.187832 20.123774 1.3181522e-20)
(51.645713 19.380351 0)
(53.041959 18.545835 -4.7948045e-20)
(54.345966 17.625393 5.7686186e-20)
(55.515179 16.615404 -2.6239008e-23)
(56.459636 15.503127 -1.0367378e-19)
(57.021543 14.127209 1.1115173e-19)
(56.93943 12.48482 -2.823811e-20)
(56.347035 10.306581 1.521804e-20)
(56.015509 8.9191755 2.3274075e-19)
(55.917161 7.7818082 -2.1030374e-19)
(55.826618 6.778919 0)
(55.707859 5.836619 3.3329136e-19)
(55.566177 4.9787019 5.8185286e-19)
(55.393067 4.1966172 8.1465523e-21)
(55.176124 3.4797723 3.6189743e-21)
(54.937456 2.8363352 -6.4124688e-21)
(54.732443 2.2208441 2.8216519e-21)
(54.47499 1.6848961 0)
(54.29199 1.0755509 -1.0804857e-21)
(54.108767 0.66197537 9.9932099e-22)
(53.900629 0.0098960196 3.5122782e-19)
(51.883833 -0.13343807 5.1387907e-20)
(39.451871 21.062376 0)
(40.434416 21.096894 8.7582089e-21)
(41.511935 21.131147 -1.2293842e-20)
(42.684351 21.11122 0)
(43.945704 21.018924 6.5223103e-21)
(45.284185 20.838637 6.5824494e-21)
(46.683247 20.558738 1.3126375e-20)
(48.121885 20.170566 -1.2942124e-20)
(49.57518 19.669199 8.725906e-24)
(51.014886 19.053177 3.6859221e-20)
(52.408958 18.32259 3.5787678e-20)
(53.719652 17.475666 -5.834674e-20)
(54.893005 16.504617 5.8158687e-20)
(55.816799 15.38175 5.9942923e-20)
(56.320797 13.923344 -1.2886793e-19)
(56.172739 12.124631 -9.9328239e-20)
(55.750991 10.101127 -1.4278066e-20)
(55.638086 8.8706663 1.3200458e-20)
(55.627916 7.7648187 -3.6576295e-23)
(55.591512 6.7793895 1.0503478e-20)
(55.518441 5.8466273 -9.2768431e-21)
(55.413969 4.9902552 -2.6390209e-19)
(55.269034 4.2077595 4.6712777e-19)
(55.075782 3.4914056 4.0640587e-19)
(54.857512 2.846901 3.7021689e-19)
(54.663017 2.2300357 0)
(54.418504 1.692379 0)
(54.242072 1.0811374 -5.0064564e-19)
(54.063266 0.67015604 -8.8269583e-19)
(53.870373 0.0043803757 -2.9013867e-19)
(51.865979 -0.13679356 0)
(39.833465 19.634312 -1.9232896e-20)
(40.693335 19.727562 -2.4699865e-21)
(41.639594 19.833062 -2.6496425e-21)
(42.676639 19.901091 -2.2383832e-20)
(43.80466 19.91013 1.1656188e-20)
(45.017579 19.845345 2.3941805e-20)
(46.304363 19.691466 -2.4322984e-20)
(47.648464 19.43463 0)
(49.027502 19.06321 -3.6438972e-20)
(50.413036 18.56768 1.5324154e-23)
(51.769866 17.93897 -4.7482775e-20)
(53.053406 17.165875 4.7249271e-20)
(54.196377 16.23328 -4.7809284e-20)
(55.063833 15.075511 -2.4924536e-20)
(55.46761 13.515734 0)
(55.30558 11.605341 -4.8847998e-23)
(55.165778 9.9046828 -2.6239489e-20)
(55.235051 8.7992031 2.3742997e-20)
(55.308588 7.7282662 -3.6253945e-23)
(55.328869 6.7662156 0)
(55.305275 5.8478571 -2.6559665e-19)
(55.241382 4.9955287 0)
(55.128208 4.2151322 0)
(54.961549 3.5011611 -3.6122553e-19)
(54.766293 2.8566983 -1.0121828e-20)
(54.58371 2.238251 -5.6258218e-19)
(54.354188 1.6996884 -3.9374396e-21)
(54.185028 1.0867572 1.7369418e-21)
(54.012439 0.67936146 -7.869573e-19)
(53.836378 -0.001710842 6.1836497e-22)
(51.848599 -0.14311764 0)
(40.378906 18.271301 0)
(41.111952 18.416695 2.1641882e-21)
(41.93194 18.560539 2.1045192e-20)
(42.835702 18.678839 -2.0067015e-20)
(43.825347 18.752775 1.058982e-20)
(44.900474 18.765957 0)
(46.055724 18.702819 -2.2810563e-20)
(47.279518 18.546848 4.6593487e-20)
(48.552961 18.281091 -3.5371891e-20)
(49.848583 17.887974 2.3725134e-20)
(51.128737 17.347867 -1.196094e-23)
(52.341325 16.637818 -2.0794795e-24)
(53.402672 15.72908 -2.4705994e-20)
(54.169659 14.461764 2.5530677e-20)
(54.423259 12.869777 1.5889201e-19)
(54.430207 11.01181 7.766313e-20)
(54.604389 9.696941 2.3595771e-20)
(54.805679 8.691713 1.2597968e-19)
(54.958119 7.6679982 1.8642881e-20)
(55.037411 6.7347039 -1.1639182e-19)
(55.066458 5.8365455 -2.9509333e-20)
(55.045735 4.9920345 -4.9574821e-25)
(54.968927 4.2172661 1.1521653e-20)
(54.831856 3.5085006 -3.2552514e-19)
(54.661986 2.8654437 0)
(54.49335 2.2451313 -3.0547395e-23)
(54.280824 1.7067351 -4.468429e-19)
(54.120049 1.0924079 -3.079117e-21)
(53.95453 0.68944148 6.9614429e-19)
(53.799899 -0.0084946543 1.0077636e-21)
(51.826419 -0.14448231 0)
(41.0921 16.932744 3.1012677e-20)
(41.702341 17.066971 0)
(42.37875 17.236248 -3.4554301e-20)
(43.137711 17.378731 4.6821197e-21)
(43.980705 17.488418 3.4911058e-20)
(44.909039 17.548833 3.6889676e-20)
(45.91975 17.544445 -4.4130101e-20)
(47.004003 17.457454 -5.7135744e-20)
(48.145068 17.267116 5.8720373e-20)
(49.315418 16.948564 -2.3999567e-20)
(50.473367 16.471225 -2.351271e-23)
(51.555768 15.797996 -1.202257e-23)
(52.456505 14.866374 -3.2094344e-24)
(53.058954 13.459366 -7.8004275e-20)
(53.324449 11.841249 -1.0056617e-19)
(53.651666 10.57441 1.1718291e-19)
(54.033846 9.5296904 -2.1230176e-20)
(54.358323 8.4960015 -1.5115082e-19)
(54.576258 7.6021665 -3.4223359e-23)
(54.719661 6.6457534 1.1810593e-19)
(54.80015 5.8075338 0)
(54.825233 4.9759395 0)
(54.789815 4.2112671 1.0207295e-20)
(54.685302 3.5118002 2.7924196e-19)
(54.542828 2.8717507 0)
(54.39088 2.2495805 4.4850679e-19)
(54.19708 1.7127295 7.9103204e-19)
(54.046386 1.0976792 -3.4879545e-19)
(53.887898 0.69967281 6.1496476e-19)
(53.753401 -0.015650893 0)
(51.794411 -0.15939292 0)
(41.85096 15.490116 3.1232603e-20)
(42.337355 15.62384 1.943379e-21)
(42.894406 15.768638 -3.6486375e-20)
(43.519097 15.910117 -4.6625638e-21)
(44.218548 16.025335 0)
(44.997449 16.099039 -3.7521684e-20)
(45.854323 16.116762 9.0649649e-20)
(46.781143 16.059511 -2.515377e-23)
(47.761049 15.903008 -6.1640381e-20)
(48.763187 15.615208 5.086861e-20)
(49.740662 15.155351 2.6076055e-20)
(50.633449 14.466076 2.6527497e-20)
(51.344678 13.465419 -2.3235058e-23)
(51.83917 12.16762 5.1059549e-20)
(52.402576 10.994494 9.4619185e-20)
(53.013754 10.052908 -4.2550406e-20)
(53.504721 9.1757927 3.7861247e-20)
(53.877803 8.3273604 -1.0069177e-19)
(54.172486 7.4392243 2.3756168e-19)
(54.3663 6.6138278 5.2502411e-20)
(54.506779 5.7401135 2.0808899e-19)
(54.580674 4.9336963 0)
(54.590108 4.1941322 0)
(54.521348 3.5094345 0)
(54.40732 2.8742015 0)
(54.275643 2.2509832 3.9659684e-19)
(54.102055 1.7170227 -3.4968051e-19)
(53.963283 1.1023994 6.1670328e-19)
(53.812289 0.70936137 -5.436519e-19)
(53.700827 -0.02169602 -4.1737604e-19)
(51.765915 -0.1358673 -1.1889077e-22)
(42.561233 13.731546 -3.6874213e-20)
(42.963839 13.803479 3.1394817e-20)
(43.415802 13.915983 -3.6833744e-20)
(43.92419 14.023584 4.2738493e-20)
(44.491411 14.122598 -4.633616e-20)
(45.121531 14.184996 1.0541565e-19)
(45.814935 14.195092 -1.0468799e-19)
(46.565639 14.132887 1.2243637e-19)
(47.356311 13.971778 -1.2541765e-19)
(48.154616 13.674097 8.4144809e-20)
(48.922965 13.205347 -5.5458929e-20)
(49.625763 12.547607 5.3952948e-20)
(50.269086 11.73302 -5.1369991e-20)
(50.979902 10.944611 4.2184296e-23)
(51.752462 10.311976 -8.5182271e-20)
(52.406862 9.6330678 -3.7894858e-20)
(52.950176 8.8766039 -6.7163971e-20)
(53.400578 8.0468711 1.189209e-19)
(53.747628 7.2737255 -1.3143174e-19)
(53.999244 6.4454153 2.3244751e-20)
(54.181662 5.6830062 -1.4344958e-19)
(54.313681 4.8880029 -9.5098751e-25)
(54.370165 4.1498929 -1.591801e-20)
(54.340373 3.4979879 0)
(54.254081 2.8700482 6.2085657e-21)
(54.146862 2.2483966 -7.0616288e-19)
(53.994823 1.7184246 0)
(53.86967 1.1059486 -2.7661802e-19)
(53.726826 0.71788023 -4.7649464e-19)
(53.638473 -0.028868506 5.1288593e-19)
(51.733294 -0.18102329 1.6383883e-23)
(43.113618 11.502853 1.4966597e-21)
(43.36776 11.577439 0)
(43.68953 11.667348 0)
(44.100662 11.730444 0)
(44.57332 11.79351 0)
(45.083809 11.80708 -7.450089e-21)
(45.637892 11.770774 0)
(46.244748 11.685208 -1.3663716e-19)
(46.897255 11.540947 1.5009769e-19)
(47.557928 11.357834 0)
(48.226035 11.104223 -2.7547862e-20)
(48.915045 10.761998 0)
(49.666037 10.412773 0)
(50.475025 10.090678 4.2601012e-20)
(51.199891 9.6318407 -4.7499448e-23)
(51.86589 9.0507417 -3.3610361e-20)
(52.455171 8.4020059 0)
(52.932414 7.743248 0)
(53.322445 7.0200288 0)
(53.60942 6.3112692 -1.0259759e-19)
(53.841807 5.5356043 1.6299133e-19)
(54.020545 4.8261965 -1.5976936e-20)
(54.133027 4.1021203 1.4076605e-20)
(54.141792 3.4626513 1.9866437e-19)
(54.082912 2.8562732 -1.7538348e-19)
(54.003059 2.2414837 -9.6950517e-21)
(53.874879 1.7158104 8.520923e-21)
(53.764289 1.1078384 0)
(53.629341 0.72473063 4.2722297e-19)
(53.57117 -0.036570868 -2.4164593e-19)
(51.682381 -0.18875908 0)
(44.053921 9.0576665 0)
(44.220581 9.1704099 1.4018218e-19)
(44.399251 9.320641 -1.444112e-19)
(44.597533 9.5219887 4.4775137e-21)
(44.866176 9.6775799 -1.4290717e-19)
(45.199543 9.8321458 1.4967441e-19)
(45.601827 9.9554642 1.7023259e-20)
(46.072528 10.047564 3.2349426e-20)
(46.643193 9.8920027 1.03155e-19)
(47.257606 9.8003245 -4.425824e-23)
(47.907671 9.7183672 -7.6529671e-20)
(48.576387 9.5599808 -1.1861758e-19)
(49.29325 9.4359416 4.2622649e-20)
(49.999182 9.1984711 0)
(50.675428 8.8549615 3.3568036e-20)
(51.327083 8.4322572 0)
(51.950954 7.9424147 -5.2607211e-20)
(52.486156 7.3561711 9.3000036e-20)
(52.900401 6.7399934 -4.1071738e-20)
(53.222287 6.0588793 -1.0873956e-19)
(53.479867 5.3891382 -9.5912338e-20)
(53.713332 4.7000689 2.8206956e-20)
(53.872957 4.0484749 -2.4881264e-20)
(53.925685 3.4070014 -1.7534786e-19)
(53.895418 2.8282936 1.5462458e-19)
(53.842142 2.2296736 4.0082438e-19)
(53.741375 1.7074281 7.5183409e-21)
(53.645938 1.1073663 -3.3149215e-21)
(53.520709 0.72750908 -3.7112108e-19)
(53.494738 -0.038821232 3.008799e-19)
(51.639611 -0.13879396 2.2241259e-20)
(45.020396 7.0202497 -2.9294341e-21)
(45.194868 7.1053328 3.5775938e-19)
(45.383213 7.2154657 -2.0229805e-23)
(45.582531 7.3408158 -1.6885269e-19)
(45.799373 7.4719742 1.5084316e-19)
(46.044166 7.5928951 -1.520181e-19)
(46.294689 7.7402096 -1.7672625e-20)
(46.557029 7.8726515 -1.624323e-20)
(46.860885 8.2386021 1.4074379e-20)
(47.319194 8.396179 2.5494208e-20)
(47.895723 8.3909394 -2.2556554e-20)
(48.484472 8.3645677 2.1128014e-20)
(49.067458 8.3769783 -3.7831277e-20)
(49.658111 8.212522 6.7094071e-20)
(50.245603 7.9849546 0)
(50.8414 7.666661 5.2560928e-20)
(51.461164 7.2800348 0)
(52.032156 6.8838739 -4.1077443e-20)
(52.483513 6.3614109 3.6254075e-20)
(52.825705 5.8028916 3.1970904e-20)
(53.116153 5.1550253 -2.8221275e-20)
(53.388572 4.5604722 -2.488742e-20)
(53.59394 3.941018 2.1950606e-20)
(53.690769 3.3533589 0)
(53.693363 2.7729562 0)
(53.663607 2.2117887 -1.2034954e-19)
(53.591157 1.69197 6.6322918e-21)
(53.513537 1.1036699 1.8125961e-19)
(53.404524 0.72434025 3.2729797e-19)
(53.407263 -0.04099724 -2.6514114e-19)
(51.603504 -0.19920386 -6.3549777e-21)
(45.596544 6.0685115 3.2106362e-21)
(45.708044 6.1532503 -5.9560366e-21)
(45.840737 6.2509035 0)
(46.000695 6.3526826 -5.2927318e-21)
(46.192235 6.4620801 9.8155743e-21)
(46.425927 6.5833415 -9.0262899e-21)
(46.727165 6.6970359 2.6298876e-19)
(47.084706 6.7936632 -2.3767203e-19)
(47.386777 6.9421546 -1.3160337e-20)
(47.693221 6.9963785 -2.3640079e-20)
(48.025159 7.1638703 -1.2328042e-19)
(48.506941 7.04467 4.4965598e-23)
(49.02681 7.1005491 2.3100899e-19)
(49.546836 7.0800931 -1.1873817e-19)
(50.069214 7.0251318 0)
(50.57539 6.8927597 -9.2833466e-20)
(51.06434 6.6154713 4.0950123e-20)
(51.579715 6.2662626 -3.2558518e-23)
(52.059411 5.9012859 -9.5963506e-20)
(52.436683 5.4256235 5.6437314e-20)
(52.751852 4.8931882 -2.4890204e-20)
(53.063406 4.355895 -6.5862482e-20)
(53.299207 3.8005543 0)
(53.43537 3.27018 -1.5362124e-19)
(53.478988 2.7064751 3.0074892e-20)
(53.469289 2.183102 -1.3257482e-20)
(53.422571 1.6681432 -1.8128631e-19)
(53.365888 1.0948197 -1.649631e-19)
(53.270579 0.71938341 -4.544173e-21)
(53.308568 -0.047613749 -2.3793442e-19)
(51.546548 -0.20605927 0)
(46.498913 4.9364962 0)
(46.597405 5.0118408 5.6464696e-21)
(46.706194 5.0985393 0)
(46.826328 5.1895617 -3.1736027e-19)
(46.962978 5.283975 2.7738669e-19)
(47.117755 5.3757357 0)
(47.277322 5.4717626 0)
(47.448775 5.564526 2.1179925e-19)
(47.663029 5.6431445 -3.264704e-23)
(47.926185 5.730501 -1.6927789e-19)
(48.24605 5.7350741 -1.8832305e-20)
(48.554277 6.0786364 0)
(48.973761 5.8525354 -1.1357423e-19)
(49.458077 5.7697198 1.272668e-19)
(50.001276 5.8700436 0)
(50.488785 5.9070446 4.1009726e-20)
(50.90124 5.7939394 -3.6220316e-20)
(51.281261 5.5714881 9.5951588e-20)
(51.685922 5.2928315 0)
(52.063265 4.9830772 4.9778961e-20)
(52.414843 4.5631816 -4.3910495e-20)
(52.750584 4.1233704 -1.4046539e-23)
(53.003881 3.6205678 0)
(53.16688 3.1414737 2.4076664e-19)
(53.24829 2.6384774 0)
(53.261777 2.125509 1.1686647e-20)
(53.238561 1.6355233 -1.0326475e-20)
(53.202373 1.0792058 0)
(53.126056 0.70811361 -1.2821021e-19)
(53.20467 -0.046174467 4.2316324e-19)
(51.493419 -0.09981433 0)
(47.041982 4.2269554 0)
(47.106387 4.2899962 -3.2544352e-19)
(47.182531 4.361056 1.7880905e-23)
(47.272652 4.4351501 2.8824315e-19)
(47.379319 4.514224 2.4930449e-24)
(47.505699 4.6014978 2.3184237e-19)
(47.660512 4.695774 -2.0924892e-19)
(47.846167 4.7975252 0)
(48.053469 4.9071333 -1.0502465e-20)
(48.273786 5.0080062 0)
(48.492957 5.1264112 1.1658698e-19)
(48.726261 5.1138125 -1.1825856e-19)
(48.963279 5.3823222 -5.0989278e-20)
(49.345077 5.269612 -2.2537039e-20)
(49.78307 5.0297753 9.8681066e-20)
(50.291863 4.9663924 1.0632891e-19)
(50.759972 4.9795257 -9.4957618e-20)
(51.132945 4.8865313 0)
(51.456964 4.6993061 -9.892217e-24)
(51.763632 4.4449142 -4.3912777e-20)
(52.114602 4.1749135 -3.871583e-20)
(52.472177 3.8495791 3.4117336e-20)
(52.727323 3.4182838 -3.7384604e-24)
(52.890847 2.9814348 -1.3264267e-19)
(52.999713 2.5365057 2.3388794e-20)
(53.044874 2.0545945 6.1832563e-20)
(53.043078 1.5907925 1.5442966e-19)
(53.023984 1.0559269 -8.0114921e-21)
(52.967754 0.69793719 1.1300081e-19)
(53.083253 -0.048729016 -3.7588576e-19)
(51.438669 -0.23333607 7.7324548e-21)
(47.82511 3.3693065 6.3860994e-19)
(47.882582 3.4236273 -2.304592e-21)
(47.947405 3.4844807 -1.0895106e-18)
(48.02003 3.5473789 4.9549197e-19)
(48.100605 3.6153057 4.6267141e-19)
(48.189888 3.6876092 6.4169316e-21)
(48.284694 3.7642687 -3.715959e-19)
(48.385669 3.843735 -3.3306501e-19)
(48.501899 3.9228113 9.3297596e-21)
(48.64826 4.0041534 2.6493537e-19)
(48.837247 4.0773135 2.9422021e-20)
(49.051796 4.1898784 2.0874642e-19)
(49.273554 4.1873915 -3.9289295e-19)
(49.44257 4.520608 1.4223519e-19)
(49.714724 4.6386628 -1.5875267e-19)
(50.071438 4.4333213 9.1812373e-20)
(50.465379 4.2571981 2.7265984e-20)
(50.882391 4.1898975 2.4500564e-20)
(51.284759 4.1468078 4.3711034e-20)
(51.558835 3.966075 3.8696023e-20)
(51.863323 3.7783021 -5.4721756e-24)
(52.210083 3.5174905 3.0077796e-20)
(52.469298 3.18794 2.652377e-20)
(52.621698 2.7973378 -1.4031289e-19)
(52.744032 2.4024238 2.0615021e-20)
(52.818414 1.9705596 -7.2685801e-20)
(52.838307 1.5323048 1.6016531e-20)
(52.836187 1.0248826 -1.2001406e-19)
(52.797638 0.69445177 6.0892894e-25)
(52.949366 -0.042386312 1.9429991e-19)
(51.378639 -0.19143742 -7.7506168e-21)
(48.313236 2.8186118 5.7326621e-19)
(48.348159 2.8639577 4.083265e-21)
(48.390099 2.913764 4.8769748e-19)
(48.440183 2.9652832 -4.4735021e-19)
(48.499375 3.0211078 -3.1553017e-21)
(48.569493 3.0826253 3.5382296e-19)
(48.653693 3.1507923 -2.1288665e-23)
(48.755018 3.2270459 -5.7959556e-19)
(48.875159 3.3103318 2.6279287e-19)
(49.00844 3.3994401 0)
(49.151281 3.4945917 -2.7707839e-24)
(49.321856 3.5730358 0)
(49.541968 3.670207 0)
(49.77123 3.6332454 2.0893996e-24)
(49.908254 3.734819 1.5905321e-20)
(50.074187 3.9876848 -2.7469355e-20)
(50.362072 3.9133797 2.4311874e-20)
(50.654531 3.7451982 6.3513403e-20)
(50.973642 3.5660002 -2.0662799e-23)
(51.342335 3.4781728 -3.3881829e-20)
(51.654633 3.4191354 -3.0087614e-20)
(51.946271 3.1816625 0)
(52.199428 2.9187445 0)
(52.365863 2.57262 1.2365539e-19)
(52.492882 2.2395312 7.2679099e-20)
(52.586473 1.8643849 -1.6016731e-20)
(52.627356 1.4565825 -8.4719818e-20)
(52.643806 0.98301846 8.7108734e-20)
(52.620113 0.69322012 9.3253535e-20)
(52.830765 -0.026592993 -5.5351683e-20)
(51.343422 0.0063364014 5.3879227e-22)
(49.001428 2.1394778 0)
(49.031884 2.1770417 -1.8152913e-21)
(49.064937 2.2184495 3.3553861e-21)
(49.101308 2.2613209 7.8708867e-19)
(49.142583 2.3075703 -7.1571283e-19)
(49.190286 2.3583106 6.5171515e-19)
(49.245687 2.4130287 -2.9808362e-23)
(49.308989 2.469999 -4.0986162e-21)
(49.378041 2.5299078 -4.6426463e-19)
(49.455924 2.5915382 0)
(49.548405 2.6532483 -1.1460414e-20)
(49.65399 2.7186899 0)
(49.767415 2.7789486 0)
(49.927021 2.8791117 1.5901451e-20)
(50.152498 2.919736 -1.4027645e-20)
(50.329777 2.9290831 2.4750968e-20)
(50.475046 3.0571741 -2.1663268e-20)
(50.624977 3.3332342 0)
(50.834274 3.1392698 0)
(51.109757 2.9800736 -2.0798096e-24)
(51.431253 2.9997708 -2.6469108e-20)
(51.692997 2.8207417 0)
(51.931798 2.6003284 0)
(52.121575 2.3509809 -3.6325087e-20)
(52.244478 2.0366029 -9.6067638e-20)
(52.354407 1.7206013 5.6461118e-20)
(52.415628 1.3682826 7.4652334e-20)
(52.448895 0.92986085 8.7742619e-20)
(52.435537 0.66483305 6.1773175e-24)
(52.621708 -0.03960298 -1.3214271e-19)
(51.302581 -0.17808219 -6.7459581e-23)
(49.39841 1.7341689 -1.8168585e-18)
(49.415877 1.7636313 8.2454653e-19)
(49.43702 1.7954153 7.5831551e-19)
(49.462426 1.8283055 5.424152e-21)
(49.492735 1.8643767 -1.2628778e-18)
(49.528646 1.9046685 1.1421735e-18)
(49.571074 1.9494889 -5.1294019e-19)
(49.621466 1.9992538 -7.1698389e-21)
(49.681919 2.0544752 0)
(49.753447 2.1159271 -5.6874797e-21)
(49.83488 2.1856332 3.2326734e-19)
(49.930906 2.2615282 -2.8660984e-19)
(50.048936 2.3322069 0)
(50.159536 2.3990722 0)
(50.277081 2.4572679 -1.9816663e-19)
(50.438847 2.4998993 1.7500193e-19)
(50.607913 2.5420323 0)
(50.74555 2.4690507 1.5328562e-19)
(50.833784 2.7286967 -2.3372872e-19)
(51.03119 2.5922156 1.3135138e-19)
(51.23987 2.5265387 1.3998231e-19)
(51.477177 2.4008828 -1.2359053e-19)
(51.703442 2.2358594 3.6320813e-20)
(51.898603 2.0621915 3.2017868e-20)
(52.014722 1.825728 0)
(52.125683 1.5545227 0)
(52.202535 1.2507468 0)
(52.251325 0.85802091 -7.7319682e-20)
(52.239718 0.60659154 4.3816587e-24)
(52.395891 -0.064906285 1.8405409e-19)
(51.25544 0.036561882 0)
(49.95809 1.2480144 1.5705846e-21)
(49.970414 1.2721322 -7.2961298e-19)
(49.984489 1.2979146 6.7177932e-19)
(50.000701 1.3246613 -6.203484e-19)
(50.019492 1.3538877 5.6100214e-19)
(50.041348 1.3862276 0)
(50.06679 1.4216958 4.5629087e-19)
(50.096406 1.4601243 6.3135426e-21)
(50.130932 1.5011181 -3.6102321e-19)
(50.171233 1.5437427 1.0034331e-20)
(50.217766 1.5850342 0)
(50.264848 1.6258715 0)
(50.312686 1.6760142 0)
(50.387116 1.7207461 -6.1783217e-21)
(50.470417 1.7783398 1.7467512e-19)
(50.556542 1.8371991 -1.5424808e-19)
(50.661233 1.9312038 0)
(50.806115 1.9597754 -3.0025278e-20)
(50.931786 1.8675308 0)
(51.024861 2.1052201 -2.335453e-20)
(51.150427 1.9832933 -1.0295186e-19)
(51.346029 1.9354358 8.5561759e-24)
(51.541317 1.8604975 9.6028578e-20)
(51.703375 1.7420167 -2.8214323e-20)
(51.813077 1.5807816 0)
(51.907708 1.3675657 -4.3854067e-20)
(51.989542 1.1130806 0)
(52.050446 0.77154082 8.5183871e-20)
(52.038247 0.53912967 -8.2597156e-20)
(52.232195 -0.085881242 -7.4729554e-20)
(51.2204 -0.22055173 -6.1466569e-20)
(50.260204 1.0244123 -1.4211753e-18)
(50.26696 1.0421985 1.2579578e-21)
(50.275072 1.0610829 1.1619214e-21)
(50.284674 1.0806709 2.1244514e-21)
(50.296028 1.102266 -1.9280749e-21)
(50.309432 1.1264597 8.9042354e-19)
(50.325214 1.1534686 -8.0250258e-19)
(50.343782 1.1834996 -2.792574e-21)
(50.365779 1.2167689 0)
(50.392322 1.2534717 -8.8524559e-21)
(50.425174 1.2947633 5.0274791e-19)
(50.468419 1.341354 -8.9094317e-19)
(50.523173 1.38867 1.9860142e-23)
(50.580564 1.4393803 7.0252955e-19)
(50.651845 1.4761035 9.6017942e-21)
(50.719776 1.5153012 -3.9933272e-19)
(50.777259 1.5158329 1.1998198e-19)
(50.851641 1.5325603 1.3231678e-20)
(50.952257 1.5656963 -1.1669942e-20)
(51.017525 1.5568777 2.0309497e-20)
(51.094251 1.4989123 0)
(51.273078 1.5648844 1.5999455e-20)
(51.420603 1.5232893 -5.6418869e-20)
(51.531117 1.4386742 0)
(51.620671 1.3312617 0)
(51.70285 1.157082 3.8643065e-20)
(51.781098 0.95075387 -3.4068362e-20)
(51.845099 0.66676183 -6.005494e-20)
(51.838243 0.47424002 -1.3236471e-20)
(52.048844 -0.11661599 0)
(51.149637 -0.25915777 2.2345018e-20)
(50.68636 0.70638823 6.0816708e-22)
(50.688324 0.72103431 -1.1075414e-21)
(50.690647 0.73679644 0)
(50.693503 0.75311974 0)
(50.697281 0.77107403 0)
(50.702471 0.7910591 0)
(50.709529 0.81306045 0)
(50.718759 0.83713183 0)
(50.730307 0.86343403 0)
(50.744515 0.89224706 3.9020333e-21)
(50.761937 0.92303348 0)
(50.781325 0.95422051 -3.9264457e-19)
(50.799969 0.98598926 3.4747943e-19)
(50.819783 1.0165356 0)
(50.842309 1.05854 -8.4818112e-21)
(50.883331 1.0953602 -7.488869e-21)
(50.928274 1.1528789 -6.6085933e-21)
(50.960262 1.1968294 1.8074488e-19)
(50.970206 1.2517439 1.0276056e-20)
(50.987891 1.2742538 -1.5060075e-19)
(51.043311 1.2689989 -1.5957016e-20)
(51.181075 1.2387798 8.4601704e-20)
(51.29343 1.213267 -7.4592739e-20)
(51.371188 1.1556799 0)
(51.429184 1.0563561 0)
(51.504627 0.9451198 3.4059671e-20)
(51.571449 0.76931923 0)
(51.634869 0.55286011 -2.6469951e-20)
(51.639011 0.37600212 0)
(51.878387 -0.1167691 0)
(51.04932 -0.24292475 0)
(50.934315 0.46192098 -1.1076302e-18)
(50.932149 0.4717037 2.0025209e-18)
(50.930048 0.48190851 -9.2280484e-19)
(50.928266 0.49267882 0)
(50.927202 0.50483186 0)
(50.927323 0.51853075 0)
(50.928922 0.53331684 -6.1813627e-19)
(50.932204 0.55009475 1.0887118e-21)
(50.936983 0.56901276 4.9324041e-19)
(50.943497 0.59079289 -1.7127925e-21)
(50.952089 0.61517855 3.0396499e-21)
(50.962522 0.6418279 3.4474486e-19)
(50.974277 0.67275272 -6.1016699e-19)
(50.985866 0.70857792 2.7395728e-19)
(50.99608 0.74832622 0)
(51.005026 0.7834212 3.2888214e-21)
(51.018413 0.81713988 -1.7980944e-19)
(51.029165 0.8505242 5.104292e-21)
(51.022268 0.89094333 1.4343867e-19)