/*--------------------------------*- C++ -*----------------------------------*\
| =========                 |                                                 |
| \\      /  F ield         | OpenFOAM: The Open Source CFD Toolbox           |
|  \\    /   O peration     | Version:  2406                                  |
|   \\  /    A nd           | Website:  www.openfoam.com                      |
|    \\/     M anipulation  |                                                 |
\*---------------------------------------------------------------------------*/
FoamFile
{
    version     2.0;
    format      ascii;
    arch        "LSB;label=32;scalar=64";
    class       volScalarField;
    location    "0.00105933";
    object      Ma;
}
// * * * * * * * * * * * * * * * * * * * * * * * * * * * * * * * * * * * * * //

dimensions      [0 0 0 0 0 0 0];

internalField   nonuniform List<scalar> 
8951
(
0.15067691
0.15846743
0.15722813
0.15648312
0.15449055
0.15069154
0.14346118
0.14777327
0.15216868
0.15649694
0.16055337
0.16406032
0.16644473
0.16735203
0.16585786
0.16347801
0.16218889
0.16106157
0.16006222
0.15921485
0.15843556
0.15720624
0.15646564
0.15448596
0.15070697
0.1148372
0.11582426
0.11697492
0.11831462
0.11987229
0.12167919
0.12376712
0.12616603
0.12890069
0.13198612
0.13542068
0.1391825
0.14322652
0.14747719
0.15182473
0.15611894
0.16015461
0.16365611
0.16606317
0.16701028
0.16559364
0.16328287
0.1620299
0.16093807
0.15997309
0.159158
0.15840253
0.15718379
0.15644721
0.15448137
0.150723
0.11556806
0.11650396
0.11759644
0.11887035
0.12035434
0.12207986
0.12407948
0.12638469
0.12902242
0.13200998
0.13535051
0.13902666
0.14299518
0.14718298
0.15148155
0.15574098
0.15975563
0.16325173
0.16568169
0.16666802
0.165328
0.16308551
0.16186757
0.16081238
0.15988273
0.15909975
0.15836835
0.15716077
0.1564276
0.15447661
0.15073941
0.11628977
0.11717696
0.11821371
0.11942437
0.12083723
0.12248374
0.12439702
0.12660981
0.12915113
0.13204125
0.13528735
0.13887611
0.14276758
0.14689109
0.15113951
0.15536339
0.15935676
0.1628475
0.16530062
0.16632564
0.16506124
0.16288599
0.16170203
0.16068475
0.15979127
0.15904009
0.15833302
0.15713718
0.15640698
0.15447158
0.15075623
0.11700033
0.11784121
0.11882487
0.11997501
0.12131949
0.1228896
0.12471885
0.12684102
0.12928706
0.13208032
0.13523155
0.13873153
0.14254436
0.14660204
0.15079904
0.15498649
0.15895826
0.1624437
0.16492022
0.16598349
0.16479372
0.16268433
0.1615335
0.1605554
0.1596988
0.15897901
0.15829655
0.15711299
0.15638534
0.15446641
0.15077333
0.11769826
0.11849529
0.11942852
0.12052098
0.12179996
0.12329649
0.12504427
0.12707796
0.12943026
0.13212737
0.13518344
0.13859348
0.14232615
0.14631639
0.15046057
0.15461063
0.15856043
0.16204058
0.16454076
0.16564192
0.16452556
0.16248047
0.16136222
0.16042457
0.15960541
0.15891655
0.15825898
0.15708818
0.15636269
0.15446076
0.15079049
0.11838206
0.11913775
0.12002326
0.12106093
0.12227742
0.12370337
0.12537249
0.12732011
0.1295805
0.13218247
0.13514334
0.13846249
0.14211361
0.14603476
0.15012461
0.1542362
0.15816357
0.16163843
0.16416248
0.16530128
0.16425673
0.16227438
0.16118848
0.16029247
0.15951118
0.15885276
0.15822033
0.15706272
0.15633915
0.15445477
0.15080758
0.1190503
0.11976714
0.12060767
0.12159351
0.1227506
0.12410909
0.12570256
0.1275668
0.12973741
0.13224559
0.13511152
0.13833904
0.14190736
0.14575775
0.14979167
0.15386361
0.15776802
0.16123751
0.16378565
0.16496195
0.16398734
0.1620661
0.16101257
0.16015928
0.15941618
0.15878775
0.15818063
0.15703657
0.15631477
0.1544493
0.15082457
0.11970168
0.12038215
0.12118041
0.12211736
0.1232182
0.12451246
0.12603343
0.12781715
0.12990039
0.13231652
0.13508803
0.13822358
0.14170806
0.14548602
0.1494623
0.15349328
0.15737409
0.16083814
0.16341054
0.1646243
0.1637176
0.16185573
0.16083479
0.16002517
0.15932047
0.15872165
0.15813992
0.1570097
0.15628953
0.15444409
0.15084156
0.12033509
0.12098158
0.12174023
0.12263121
0.12367893
0.12491223
0.12636394
0.12807014
0.13006841
0.13239428
0.13507247
0.138117
0.14151648
0.14522018
0.14913701
0.15312563
0.15698212
0.16044057
0.16303737
0.16428865
0.16344772
0.16164342
0.16065547
0.15989025
0.15922411
0.15865466
0.15809823
0.15698206
0.15626358
0.15443903
0.15085872
0.1209496
0.1215644
0.12228601
0.12313389
0.12413159
0.12530722
0.12669297
0.12832466
0.13024015
0.13247658
0.13506529
0.13802174
0.14133348
0.14496079
0.14881629
0.15276106
0.15659242
0.16004509
0.16266638
0.16395532
0.16317795
0.16142938
0.16047493
0.15975462
0.15912719
0.15858701
0.15805559
0.15695359
0.15623696
0.15443437
0.15087625
0.12154449
0.12212978
0.12281682
0.12362436
0.12457516
0.12569647
0.1270198
0.12858055
0.13041665
0.13256625
0.1350679
0.13793563
0.1411588
0.14470816
0.14850056
0.15239996
0.1562053
0.15965193
0.16229775
0.16362459
0.16290851
0.16121384
0.16029352
0.15961835
0.15902983
0.158519
0.15801202
0.15692419
0.15620966
0.15442997
0.15089426
0.1221192
0.122677
0.12333181
0.12410172
0.12500867
0.12607907
0.12734369
0.12883751
0.13059871
0.13266639
0.1350782
0.13785405
0.14099129
0.14446236
0.14819018
0.15204267
0.15582104
0.15926133
0.16193166
0.1632967
0.16263965
0.1609971
0.16011158
0.1594815
0.15893216
0.1584509
0.15796753
0.15689376
0.15618182
0.15442602
0.15091275
0.12267336
0.12320553
0.12383029
0.12456512
0.12543115
0.12645388
0.12766329
0.12909377
0.13078349
0.13277212
0.13509534
0.13777949
0.14083136
0.14422363
0.14788549
0.15168951
0.15543987
0.15887346
0.16156825
0.16297173
0.16237154
0.16077951
0.15992947
0.15934415
0.15883437
0.15838305
0.1579221
0.15686221
0.15615322
0.15442305
0.15093151
0.12320671
0.12371511
0.12431193
0.12501408
0.12584188
0.12681994
0.12797731
0.12934764
0.13096862
0.13287996
0.13511836
0.13771443
0.14067994
0.14399239
0.14758679
0.15134079
0.15506203
0.15848852
0.16120773
0.16265038
0.16210455
0.16056149
0.15974754
0.15920641
0.15873668
0.15831568
0.15787569
0.15682942
0.15612377
0.15441912
0.15094999
0.12371906
0.12420556
0.12477652
0.1254483
0.12624042
0.1271766
0.12828494
0.12959823
0.13115355
0.1329906
0.13514765
0.13765782
0.140537
0.14376882
0.14729435
0.15099672
0.15468774
0.15810669
0.16085045
0.16233272
0.16183874
0.16034351
0.15956613
0.1590684
0.15863933
0.15824907
0.15782825
0.15679527
0.15609336
0.15441441
0.15096804
0.12421061
0.12467693
0.12522399
0.12586755
0.1266264
0.12752334
0.12858554
0.12984487
0.13133774
0.13310372
0.13518234
0.1376086
0.14040217
0.14355296
0.14700838
0.15065752
0.15431715
0.15772818
0.16049667
0.16201783
0.16157408
0.16012616
0.15938562
0.15893033
0.15854255
0.15818331
0.1577797
0.15675964
0.15606188
0.1544097
0.1509854
0.12468184
0.12512965
0.12565463
0.12627196
0.1269997
0.12785984
0.1288786
0.13008692
0.13152046
0.13321856
0.1352215
0.13756592
0.14027505
0.14334471
0.14672896
0.15032337
0.15395039
0.15735313
0.16014645
0.16170583
0.16131117
0.15991001
0.15920638
0.15879244
0.15844654
0.15811848
0.15772992
0.1567224
0.15602933
0.15440558
0.15100177
0.12513333
0.12556405
0.12606856
0.12666147
0.12736014
0.12818575
0.1291636
0.13032371
0.13170094
0.13333421
0.13526424
0.13752907
0.14015515
0.14314391
0.14645613
0.14999437
0.15358757
0.15698165
0.15979977
0.1613971
0.16105056
0.15969559
0.15902884
0.15865502
0.15835147
0.15805457
0.15767879
0.15668346
0.15599594
0.1543998
0.15101696
0.12556566
0.12598036
0.12646577
0.12703591
0.12770741
0.12850064
0.12944001
0.13055461
0.13187841
0.13344983
0.13530974
0.13749733
0.14004197
0.14295032
0.1461899
0.14967061
0.15322881
0.1566138
0.15945653
0.16109165
0.16079256
0.15948351
0.15885336
0.15851835
0.15825742
0.15799121
0.15762609
0.15664278
0.15596123
0.15439355
0.15103088
0.12597949
0.12637913
0.12684661
0.12739541
0.12804145
0.12880429
0.12970746
0.13077907
0.13205221
0.13356465
0.13535721
0.13747001
0.13993498
0.14276366
0.1459302
0.14935218
0.15287414
0.15624954
0.1591166
0.16078977
0.16053898
0.15927436
0.15868027
0.1583827
0.15816438
0.15792852
0.15757154
0.1566003
0.155925
0.15438665
0.15104361
0.1263756
0.12676104
0.12721165
0.12774037
0.12836246
0.1290967
0.12996572
0.13099669
0.13222178
0.133678
0.13540595
0.13744645
0.13983367
0.14258361
0.145677
0.14903917
0.15252364
0.15588884
0.15877989
0.16049227
0.16028958
0.15906864
0.15850988
0.15824827
0.15807225
0.15786564
0.15751486
0.15655599
0.15588715
0.15437929
0.1510553
0.12675484
0.12712689
0.12756156
0.12807132
0.12867079
0.12937801
0.13021475
0.13120724
0.1323867
0.13378933
0.13545536
0.13742605
0.13973752
0.14240986
0.14543039
0.1487318
0.15217738
0.15553164
0.15844595
0.16019455
0.16004679
0.15886685
0.15834238
0.15811535
0.15798083
0.1578025
0.15745584
0.15650979
0.15584756
0.15437179
0.15106615
0.12711815
0.12747748
0.12789704
0.12838882
0.12896685
0.12964847
0.13045462
0.13141062
0.13254671
0.13389824
0.13550494
0.13740832
0.13964611
0.14224216
0.14519096
0.14843069
0.15183546
0.1551778
0.15811438
0.15990242
0.15980481
0.15866939
0.15817797
0.15798416
0.15788978
0.15773868
0.15739424
0.15646157
0.15580603
0.15436397
0.1510763
0.12746646
0.12781363
0.12821879
0.12869346
0.12925113
0.12990843
0.13068553
0.13160685
0.13270168
0.13400447
0.13555433
0.13739286
0.13955909
0.14208019
0.14495651
0.14813537
0.15149798
0.1548272
0.15778502
0.15961641
0.15956892
0.15847652
0.15801696
0.15785477
0.1577984
0.1576733
0.15733001
0.1564111
0.15576269
0.15435206
0.1510859
0.12780075
0.12813624
0.12852762
0.12898596
0.1295242
0.13015835
0.1309078
0.1317961
0.13285161
0.13410786
0.13560329
0.1373794
0.13947627
0.14192396
0.1447278
0.14784546
0.15116506
0.15447977
0.15745801
0.15933518
0.15933717
0.15828817
0.15785949
0.1577273
0.15770613
0.15760606
0.15726311
0.1563584
0.15571731
0.15433563
0.15109517
0.12812203
0.12844629
0.12882443
0.12926711
0.12978678
0.13039881
0.13112186
0.13197866
0.13299664
0.13420842
0.13565169
0.13736774
0.13939749
0.14177355
0.1445063
0.14756082
0.15083697
0.15413554
0.15713352
0.15905806
0.15911004
0.15810439
0.15770537
0.15760181
0.15761288
0.15753578
0.15719338
0.15630394
0.15566961
0.15431737
0.15110421
0.12843135
0.12874477
0.12911017
0.1295378
0.13003964
0.13063047
0.13132826
0.13215492
0.13313701
0.13430623
0.13569949
0.13735776
0.13932259
0.14162887
0.14429162
0.14728183
0.15051408
0.15379466
0.1568118
0.15878522
0.15888821
0.15792461
0.15755404
0.15747805
0.15751861
0.15746548
0.15712071
0.15624825
0.15561959
0.15429906
0.15111314
0.12872975
0.1290327
0.12938579
0.12979893
0.13028361
0.13085406
0.13152761
0.13232538
0.13327307
0.13440149
0.13574677
0.13734942
0.13925147
0.14148981
0.14408346
0.14701032
0.15019684
0.15345744
0.15649329
0.15851823
0.15867113
0.15774925
0.15740502
0.15735562
0.15742283
0.15739074
0.15704525
0.15619139
0.15556729
0.15428097
0.15112203
0.1290183
0.1293111
0.12965229
0.13005141
0.13051953
0.13107035
0.13172056
0.13249055
0.13340519
0.13449447
0.13579367
0.13734277
0.13918412
0.14135636
0.14388205
0.14674611
0.14988548
0.1531243
0.1561782
0.15825509
0.15845857
0.15757662
0.15725806
0.15723415
0.15732494
0.15730994
0.15696719
0.15613314
0.15551293
0.15426111
0.15113099
0.12929806
0.12958101
0.12991066
0.1302962
0.13074829
0.13128013
0.1319078
0.132651
0.13353384
0.13458546
0.13584039
0.13733792
0.13912061
0.14122864
0.1436877
0.14648958
0.14958037
0.15279569
0.15586637
0.15799422
0.15824972
0.15740532
0.15711243
0.15711249
0.15722497
0.15722703
0.15688664
0.15607343
0.15545678
0.15423997
0.15114016
0.1295701
0.12984347
0.13016191
0.13053425
0.13097076
0.13148418
0.13209002
0.13280733
0.13365945
0.13467477
0.13588709
0.13733497
0.13906117
0.14110685
0.14350069
0.14624112
0.14928188
0.15247209
0.15555758
0.15773691
0.1580432
0.15723507
0.15696689
0.15698954
0.15712311
0.15714143
0.15680362
0.15601242
0.15539897
0.15421738
0.15114969
0.12983544
0.13009948
0.13040697
0.13076643
0.13118776
0.13168325
0.13226788
0.1329601
0.13378251
0.13476267
0.13593366
0.13733426
0.1390065
0.14099127
0.14332127
0.14600091
0.14899045
0.152154
0.15525167
0.15748203
0.15783805
0.15706582
0.15682016
0.15686513
0.15701917
0.15705272
0.15671817
0.1559503
0.15533985
0.1541933
0.15115973
0.13009504
0.13034991
0.13064666
0.13099351
0.1314
0.13187802
0.13244208
0.13311002
0.13390377
0.13485011
0.13598132
0.13733625
0.13895605
0.14088184
0.14314955
0.14576905
0.14870678
0.15184204
0.15494872
0.15723062
0.1576341
0.15689777
0.15667124
0.15673914
0.15691296
0.15696045
0.15663036
0.15588709
0.15527946
0.15416672
0.15117031
0.13034972
0.1305955
0.13088166
0.13121611
0.1316081
0.13206911
0.1326132
0.13325767
0.13402383
0.13493776
0.136031
0.13734096
0.13890926
0.14077847
0.14298565
0.14554564
0.14843175
0.15153673
0.15464896
0.15697837
0.15743048
0.15672664
0.15652004
0.15661105
0.15680449
0.15686466
0.15654032
0.15582272
0.15521814
0.15413985
0.15118143
0.13060029
0.13083697
0.13111262
0.13143488
0.13181266
0.1322571
0.13278179
0.13340352
0.13414297
0.13502557
0.13608207
0.13734873
0.13886728
0.14068158
0.14282981
0.14533097
0.14816599
0.15123868
0.15435278
0.15672608
0.15722571
0.15655206
0.1563667
0.15648058
0.15669381
0.15676554
0.15644807
0.15575706
0.15515577
0.15411103
0.15119302
0.13084742
0.13107504
0.13134031
0.13165059
0.13201448
0.13244273
0.13294854
0.13354815
0.13426167
0.13511383
0.13613466
0.13735982
0.13883073
0.1405916
0.14268232
0.14512559
0.14790975
0.15094846
0.15406069
0.15647389
0.15701876
0.1563759
0.15621079
0.15634784
0.15658096
0.15666367
0.1563536
0.15569008
0.15509255
0.15408381
0.15120505
0.13109189
0.13131062
0.13156567
0.13186416
0.1322144
0.13262681
0.13311416
0.13369222
0.13438053
0.13520317
0.13618951
0.13737468
0.13879963
0.14050871
0.14254346
0.14493003
0.14766341
0.15066659
0.15377336
0.15622196
0.15680781
0.15619652
0.15605231
0.15621281
0.15646596
0.15655959
0.1562572
0.15562174
0.15502859
0.15406097
0.15121751
0.13133437
0.13154441
0.13178942
0.13207633
0.13241316
0.13281003
0.13327931
0.13383633
0.1345001
0.13529409
0.13624706
0.13739359
0.13877412
0.14043308
0.14241346
0.14474477
0.14742744
0.15039356
0.15349148
0.15597017
0.15659069
0.15601244
0.15589168
0.15607514
0.15634882
0.1564531
0.15615941
0.15555191
0.1549635
0.15403996
0.1512305
0.13157542
0.13177692
0.13201208
0.1322876
0.13261127
0.13299289
0.13344449
0.13398096
0.13462082
0.135387
0.13630764
0.13741681
0.13875441
0.14036491
0.14229253
0.14457006
0.14720222
0.15012988
0.15321572
0.1557181
0.15636643
0.15582406
0.15572892
0.15593436
0.15622952
0.15634387
0.15606062
0.15548046
0.154896
0.15401473
0.15124419
0.13181552
0.13200861
0.13223408
0.13249841
0.13280915
0.13317582
0.1336101
0.13412651
0.13474308
0.13548222
0.13637152
0.13744453
0.13874067
0.1403044
0.14218083
0.14440602
0.14698804
0.14987605
0.15294676
0.15546674
0.15613475
0.15563198
0.15556356
0.15579007
0.15610802
0.15623232
0.15596092
0.15540739
0.154826
0.1539781
0.15125864
0.13205505
0.13223985
0.13245577
0.1327091
0.13300715
0.13335916
0.13377651
0.13427332
0.13486719
0.13558003
0.13643891
0.1374769
0.1387331
0.14025178
0.14207855
0.14425248
0.14678505
0.14963257
0.15268523
0.15521607
0.15589565
0.15543643
0.15539463
0.15564203
0.15598437
0.15611897
0.1558601
0.15533279
0.1547554
0.15393271
0.15127362
0.13229434
0.13247096
0.13267749
0.13292
0.13320559
0.13354324
0.13394402
0.13442171
0.13499349
0.13568078
0.13651014
0.13751414
0.13873207
0.14020739
0.14198581
0.14410918
0.1465933
0.14939987
0.1524317
0.15496567
0.15564976
0.15523683
0.15522057
0.15549051
0.15585867
0.15600392
0.15575792
0.15525683
0.15468542
0.15388492
0.15128835
0.13253367
0.13270222
0.13289949
0.13313137
0.13340473
0.13372832
0.13411292
0.13457197
0.13512228
0.13578485
0.13658573
0.13755698
0.13873749
0.14017078
0.14190263
0.14397639
0.14641304
0.14917835
0.15218672
0.15471567
0.15539805
0.1550321
0.15504024
0.15533589
0.15573087
0.15588719
0.15565429
0.15517955
0.15461478
0.15383881
0.15130106
0.13277323
0.13293384
0.133122
0.13334343
0.1336048
0.13391462
0.13428342
0.13472431
0.13525376
0.13589237
0.1366658
0.13760563
0.13874978
0.140142
0.14182919
0.14385507
0.14624452
0.14896839
0.15195087
0.15446627
0.15514054
0.15482178
0.15485336
0.15517803
0.15560075
0.15576901
0.15554932
0.15510092
0.15454369
0.15379577
0.15131235
0.1330132
0.13316598
0.13334519
0.13355636
0.13380597
0.13410233
0.13445569
0.13487889
0.13538806
0.13600341
0.13675019
0.13765952
0.13876887
0.14012188
0.1417659
0.14374533
0.14608794
0.14877039
0.15172467
0.15421752
0.1548771
0.15460533
0.1546597
0.15501658
0.15546812
0.15564973
0.15544294
0.15502084
0.15447195
0.15374971
0.15132386
0.13325374
0.13339881
0.13356922
0.13377033
0.13400844
0.13429163
0.13462994
0.13503593
0.13552539
0.13611819
0.13683915
0.13771899
0.13879494
0.14011052
0.14171307
0.14364736
0.14594354
0.1485848
0.1515086
0.15396989
0.15460785
0.15438229
0.1544588
0.15485148
0.15533294
0.15552935
0.15533527
0.15493934
0.15440007
0.15370344
0.15133724
0.13349497
0.13363248
0.13379427
0.13398553
0.13421239
0.13448275
0.1348064
0.13519567
0.13566605
0.13623705
0.13693311
0.13778455
0.13882827
0.14010831
0.14167103
0.14356135
0.14581179
0.14841205
0.1513031
0.15372317
0.15433294
0.15415184
0.15425059
0.15468277
0.15519516
0.15540772
0.15522626
0.15485617
0.15432797
0.15365361
0.15135398
0.13373706
0.13386716
0.1340205
0.13420215
0.13441804
0.1346759
0.13498533
0.1353584
0.13581034
0.13636035
0.13703253
0.13785683
0.13886975
0.140115
0.14163924
0.14348736
0.14569342
0.14825261
0.15110857
0.15347708
0.15405181
0.15391248
0.15403602
0.15451035
0.15505478
0.1552852
0.15511601
0.15477107
0.15425579
0.15359769
0.15137535
0.13398016
0.13410301
0.13424812
0.13442039
0.13462562
0.13487136
0.13516701
0.13552442
0.13595858
0.13648841
0.13713769
0.13793605
0.13891966
0.14013122
0.14161783
0.14342575
0.14558891
0.14810688
0.15092527
0.15323222
0.15376281
0.15366341
0.15381691
0.15433412
0.15491204
0.15516226
0.15500464
0.15468426
0.15418388
0.15353579
0.15139916
0.13422447
0.13434026
0.13447736
0.13464052
0.1348354
0.1350694
0.13535173
0.13569405
0.13611111
0.13662154
0.13724884
0.13802225
0.1389775
0.14015674
0.14160807
0.14337751
0.14549847
0.14797522
0.15075325
0.15298744
0.15346437
0.1534043
0.15359536
0.15415406
0.15476717
0.15503923
0.15489212
0.1545956
0.15411221
0.15347175
0.15141732
0.13447024
0.13457918
0.13470851
0.13486285
0.13504772
0.13527039
0.1355399
0.13586771
0.13626836
0.13676023
0.13736651
0.13811608
0.13904425
0.14019281
0.14161041
0.14334234
0.1454223
0.14785802
0.15059216
0.15274112
0.15315566
0.15313516
0.15337344
0.1539704
0.15462016
0.15491628
0.1547786
0.15450577
0.15404183
0.153409
0.15142231
0.13471779
0.1348201
0.13494191
0.13508775
0.13526299
0.13547476
0.13573197
0.13604589
0.13643085
0.13690502
0.13749128
0.13821822
0.13912079
0.14024047
0.14162446
0.14331986
0.1453608
0.1477558
0.15044134
0.15249152
0.15283483
0.15285935
0.15315226
0.1537836
0.15447087
0.15479313
0.15466429
0.1544149
0.15397258
0.15334508
0.15141882
0.13496752
0.13506343
0.13517803
0.13531569
0.13548169
0.13568304
0.13592848
0.13622914
0.13659917
0.1370565
0.13762376
0.1383292
0.13920742
0.14029946
0.14165143
0.14331188
0.14531512
0.14766942
0.15030114
0.15223629
0.15250299
0.15258258
0.15293146
0.15359432
0.15431925
0.15466908
0.15454955
0.15432331
0.15390402
0.15327702
0.15141312
0.13521992
0.13530971
0.13541739
0.13554724
0.13570442
0.13589582
0.13613007
0.13641814
0.136774
0.13721537
0.13776462
0.13844968
0.13930477
0.14037045
0.14169215
0.14331863
0.14528498
0.14759988
0.15016897
0.15196015
0.15216402
0.15230868
0.15271046
0.15340331
0.1541655
0.15454363
0.15443455
0.15423131
0.1538359
0.1532163
0.15140849
0.13547561
0.13555956
0.13566066
0.13578308
0.13593188
0.13611385
0.13633749
0.13661364
0.1369561
0.13738238
0.13791462
0.13858041
0.13941362
0.14045439
0.14174779
0.14334043
0.14527102
0.14754844
0.15004086
0.15165788
0.15182352
0.1520388
0.15248959
0.15321139
0.15400998
0.15441652
0.15431957
0.15413811
0.15376767
0.15316208
0.15139449
0.13573534
0.13581376
0.13590862
0.13602401
0.13616489
0.13633796
0.13655159
0.13681651
0.13714634
0.13755841
0.13807458
0.13872217
0.13953462
0.14055166
0.14181796
0.14337882
0.14527473
0.1475135
0.14991054
0.15131801
0.15148746
0.15177338
0.15226955
0.15301938
0.15385308
0.15428759
0.15420504
0.15404424
0.15370013
0.15311424
0.15136739
0.13600002
0.13607323
0.13616221
0.13627099
0.13640442
0.13656911
0.13677336
0.13702772
0.13734568
0.13774437
0.13824541
0.13887577
0.13966848
0.14066282
0.14190302
0.14343413
0.14529488
0.14749251
0.14976849
0.15096741
0.15116098
0.15151301
0.15205132
0.15282815
0.15369523
0.15415681
0.1540911
0.15394989
0.15363504
0.1530707
0.15133018
0.13627071
0.13633905
0.13642252
0.1365251
0.13665157
0.13680843
0.13700387
0.13724836
0.13755519
0.13794132
0.13842807
0.13904209
0.13981596
0.14078841
0.14200318
0.14350511
0.14533143
0.14748402
0.1496116
0.15060908
0.15084718
0.15125856
0.15183608
0.15263845
0.15353686
0.15402382
0.15397783
0.15385616
0.15357163
0.1530284
0.15129677
0.13654867
0.13661246
0.1366908
0.1367876
0.13690757
0.13705713
0.13724437
0.13747962
0.13777603
0.13815033
0.13862359
0.13922206
0.13997784
0.14092906
0.14211876
0.14359112
0.14538174
0.14748323
0.14942707
0.1502436
0.15054871
0.15101136
0.15162493
0.15245113
0.15337844
0.15388946
0.15386565
0.15376402
0.15351033
0.15297744
0.15127278
0.13683531
0.13689488
0.13696845
0.13705989
0.13717382
0.13731659
0.13749618
0.1377228
0.13800945
0.13837261
0.13883306
0.13941665
0.14015496
0.14108547
0.14225048
0.14369323
0.14544608
0.14748183
0.14919519
0.14988857
0.15026765
0.15077332
0.15141914
0.15226697
0.15322029
0.15375311
0.15375415
0.15367239
0.15345018
0.15293503
0.15125576
0.13713223
0.1371879
0.13725704
0.13734351
0.13745183
0.13758828
0.13776075
0.1379793
0.13825676
0.13860937
0.13905759
0.13962682
0.14034808
0.1412582
0.1423988
0.1438122
0.14552457
0.14746942
0.14892752
0.14955622
0.15000504
0.15054644
0.15122003
0.15208673
0.15306266
0.15361691
0.15364292
0.15358155
0.15339181
0.15288909
0.15124225
0.13744116
0.13749322
0.13755825
0.13764008
0.13774319
0.13787376
0.13803958
0.13825056
0.13851933
0.13886188
0.13929828
0.13985347
0.14055785
0.14144751
0.14256334
0.14394671
0.14561573
0.14743251
0.14863512
0.1492535
0.14976194
0.15033226
0.15102867
0.1519112
0.15290593
0.15348038
0.15353168
0.15349155
0.15333148
0.15283315
0.15123335
0.13776403
0.1378127
0.13787388
0.13795138
0.13804961
0.1381747
0.13833429
0.13853813
0.13879863
0.13913146
0.13955627
0.14009747
0.14078477
0.14165336
0.14274274
0.14409241
0.1457107
0.14733006
0.14834254
0.14898519
0.14953916
0.15013264
0.15084639
0.15174105
0.15275051
0.15334242
0.15342055
0.15339918
0.15327638
0.1527706
0.15122409
0.13810274
0.13814804
0.13820547
0.13827891
0.13837268
0.13849274
0.13864656
0.13884368
0.13909623
0.13941951
0.13983275
0.14035973
0.14102944
0.14187588
0.14293601
0.14424487
0.1457943
0.14718471
0.14807336
0.14874848
0.14933845
0.14994882
0.15067409
0.15157707
0.15259619
0.15320357
0.15330972
0.15330223
0.15321647
0.1527066
0.15121416
0.13845947
0.13850173
0.13855576
0.1386255
0.13871519
0.1388305
0.13897881
0.13916939
0.13941404
0.13972767
0.14012903
0.14064127
0.14129254
0.1421157
0.14314512
0.14440497
0.1458376
0.14701464
0.14784195
0.14854258
0.14915839
0.14978153
0.15051274
0.15141978
0.15244263
0.15306819
0.15320077
0.15320438
0.15316564
0.15262232
0.15119602
0.13883521
0.13887606
0.13892804
0.13899489
0.1390808
0.13919151
0.13933417
0.13951788
0.13975419
0.14005762
0.14044633
0.14094273
0.14157401
0.14237257
0.1433758
0.14459539
0.14582172
0.14680412
0.14765009
0.14836826
0.14900147
0.14963159
0.15036307
0.15126947
0.15229061
0.15294445
0.15309405
0.15311083
0.15310313
0.15255631
0.15117561
0.13923325
0.13927268
0.13932279
0.13938706
0.13946955
0.13957586
0.13971298
0.13988978
0.14011746
0.14041006
0.14078501
0.14126376
0.14187242
0.14264356
0.14361743
0.14475976
0.14577539
0.14665905
0.1474827
0.14820947
0.14886482
0.1494985
0.15022515
0.15112662
0.15214233
0.15281952
0.15298947
0.15302165
0.15303779
0.15252085
0.15116085
0.13965603
0.13969296
0.13974032
0.13980161
0.13988072
0.13998291
0.14011483
0.14028492
0.1405039
0.1407852
0.14114559
0.14160583
0.14219102
0.14292778
0.14382269
0.14481193
0.14575795
0.14659628
0.14734368
0.14807387
0.14874952
0.14938063
0.15009987
0.1509913
0.15199853
0.15268674
0.15288771
0.1529334
0.15297016
0.15247262
0.15113046
0.14010521
0.14013975
0.14018433
0.14024246
0.14031795
0.14041579
0.14054229
0.14070557
0.14091604
0.14118694
0.14153492
0.14197984
0.1425406
0.14321846
0.14398441
0.14484334
0.145744
0.14652763
0.14726512
0.14798845
0.14865988
0.14927995
0.14998722
0.15086348
0.15185922
0.15256453
0.15278964
0.15284501
0.15290035
0.1524041
0.15108671
0.14058062
0.14061363
0.14065627
0.14071202
0.14078468
0.14087907
0.14100136
0.14115962
0.14136416
0.14162779
0.14196493
0.14238841
0.14290199
0.14349203
0.14414466
0.14489975
0.14570798
0.14648367
0.14725343
0.14793664
0.14857391
0.14919235
0.14988541
0.15074352
0.15172472
0.15244897
0.15269518
0.15275774
0.15282992
0.15233426
0.15104269
0.14109454
0.14112696
0.14116877
0.14122349
0.14129477
0.14138707
0.14150616
0.14165944
0.14185593
0.14210577
0.14241747
0.14279625
0.14324214
0.14375038
0.1443188
0.14497539
0.14570963
0.14648522
0.1472476
0.14788523
0.14849801
0.14911965
0.14979416
0.15063174
0.15159564
0.1523376
0.15260382
0.15267217
0.15275925
0.15226398
0.15100026
0.14165316
0.14168511
0.14172529
0.14177776
0.14184556
0.14193233
0.14204303
0.1421837
0.14236118
0.14258255
0.14285416
0.14318117
0.14356714
0.14401336
0.1445192
0.14510919
0.14578021
0.14650862
0.14720489
0.14784628
0.14846549
0.14906091
0.14971537
0.15052739
0.15147307
0.15223108
0.15251507
0.15258785
0.15268925
0.15220117
0.15096343
0.14222241
0.1422522
0.14228943
0.14233663
0.1423965
0.14247239
0.14256853
0.14268999
0.14284246
0.14303219
0.14326559
0.14354873
0.1438865
0.14428213
0.14473549
0.14526296
0.14588204
0.14652683
0.14717746
0.14784027
0.14844623
0.14900442
0.14964565
0.15043027
0.15135744
0.1521284
0.15242864
0.15250495
0.15262058
0.15214165
0.15093743
0.14275824
0.14278397
0.14281611
0.1428566
0.14290775
0.14297252
0.14305456
0.14315831
0.14328889
0.14345198
0.14365382
0.14390059
0.14419765
0.14454901
0.14495535
0.14541873
0.145969
0.14657753
0.14720118
0.14783458
0.14841804
0.14896786
0.14958716
0.15034173
0.15124894
0.15203059
0.15234382
0.15242314
0.15255346
0.15207167
0.15092388
0.14324264
0.1432648
0.14329256
0.1433275
0.14337166
0.14342761
0.14349852
0.14358822
0.14370123
0.14384277
0.14401865
0.14423499
0.14449746
0.1448106
0.14517655
0.14559117
0.14607946
0.14666515
0.14725954
0.14782015
0.14840919
0.14895693
0.14953729
0.15026035
0.15114776
0.15193633
0.15226071
0.1523419
0.15248855
0.15200255
0.15091291
0.14367777
0.14369746
0.14372207
0.14375296
0.14379192
0.14384119
0.14390354
0.14398229
0.14408146
0.14420575
0.14436053
0.14455168
0.14478506
0.14506565
0.14539695
0.14577532
0.14621034
0.14674629
0.14730391
0.14783559
0.14842093
0.14894218
0.14949035
0.15018442
0.15105335
0.15184508
0.15217978
0.15226119
0.1524253
0.15193767
0.15090133
0.14407055
0.14408863
0.1441111
0.14413913
0.1441743
0.14421855
0.14427431
0.14434449
0.14443266
0.14454307
0.14468068
0.14485104
0.14505996
0.14531271
0.14561349
0.14596138
0.14635554
0.14683287
0.14735861
0.14789858
0.14843489
0.14892848
0.14946147
0.15011599
0.1509656
0.15175833
0.15210123
0.15218076
0.15236312
0.15186869
0.15088584
0.14442797
0.14444494
0.14446584
0.14449175
0.14452404
0.14456447
0.14461514
0.14467866
0.14475818
0.14485751
0.14498114
0.14513422
0.14532236
0.14555105
0.1458249
0.14614547
0.14650945
0.14693394
0.14742544
0.14795514
0.14844874
0.14892909
0.14944418
0.15005637
0.15088439
0.15167522
0.15202536
0.15210152
0.15230177
0.15179635
0.15087045
0.14475591
0.14477209
0.14479188
0.14481621
0.14484633
0.1448838
0.14493048
0.14498868
0.1450612
0.14515146
0.14526353
0.14540217
0.14557271
0.14578059
0.14603078
0.14632657
0.14666662
0.1470512
0.14750457
0.14800346
0.14848181
0.14894825
0.14942392
0.15000144
0.15080851
0.15159476
0.15195105
0.15202262
0.15224143
0.15171895
0.15085441
0.14505925
0.14507483
0.14509374
0.14511685
0.14514527
0.14518039
0.14522387
0.14527778
0.14534459
0.14542737
0.14552979
0.14565625
0.14581172
0.14600153
0.14623088
0.14650385
0.14682222
0.14717854
0.14758953
0.14805248
0.14853055
0.14898195
0.14941002
0.14995462
0.15073758
0.15151714
0.15188157
0.15194389
0.15218137
0.1516377
0.150834
0.14534184
0.14535692
0.14537511
0.14539719
0.14542418
0.14545732
0.14549811
0.14554838
0.14561038
0.14568688
0.14578121
0.14589736
0.14603993
0.14621398
0.1464249
0.14667722
0.1469739
0.14730881
0.14768671
0.14811442
0.1485766
0.14900929
0.14940925
0.14991775
0.1506733
0.15144267
0.15181414
0.15186637
0.15212089
0.15155368
0.15080253
0.14560682
0.14562147
0.14563903
0.14566023
0.14568601
0.14571749
0.14575604
0.1458033
0.14586126
0.14593242
0.14601979
0.14612703
0.14625839
0.14641861
0.1466129
0.14684608
0.14712159
0.14743656
0.14779134
0.14819035
0.14862504
0.14904339
0.14941526
0.14988498
0.15061583
0.15137139
0.15174828
0.15178936
0.15206036
0.15146797
0.15074763
0.14585653
0.14587074
0.1458877
0.14590808
0.14593274
0.14596272
0.14599926
0.14604383
0.14609825
0.14616475
0.14624605
0.14634546
0.14646693
0.14661495
0.14679454
0.1470106
0.14726702
0.14756084
0.14789478
0.14827375
0.14868305
0.14908301
0.14942846
0.14985963
0.15056407
0.15130332
0.15168366
0.15171385
0.15200046
0.1513814
0.150675
0.14609295
0.14610673
0.14612311
0.14614272
0.14616636
0.14619496
0.14622965
0.14627179
0.14632302
0.14638539
0.14646139
0.14655403
0.1466669
0.14680417
0.14697057
0.14717085
0.1474091
0.14768515
0.14800104
0.14835919
0.14874354
0.14912479
0.14944811
0.14984292
0.15051729
0.15123788
0.15161924
0.1516384
0.15194043
0.15129611
0.15060998
0.14631737
0.14633069
0.14634648
0.14636534
0.146388
0.14641533
0.14644838
0.14648836
0.14653681
0.14659557
0.14666689
0.14675346
0.14685859
0.14698616
0.14714072
0.14732688
0.14754786
0.14780901
0.14810975
0.14844628
0.1488061
0.14916943
0.14947371
0.14983319
0.15047483
0.15117454
0.15155426
0.15156237
0.15187754
0.15121124
0.15055653
0.14653087
0.14654372
0.14655892
0.14657703
0.14659873
0.14662485
0.14665632
0.14669429
0.14674013
0.14679555
0.14686261