/*--------------------------------*- C++ -*----------------------------------*\
| =========                 |                                                 |
| \\      /  F ield         | OpenFOAM: The Open Source CFD Toolbox           |
|  \\    /   O peration     | Version:  2406                                  |
|   \\  /    A nd           | Website:  www.openfoam.com                      |
|    \\/     M anipulation  |                                                 |
\*---------------------------------------------------------------------------*/
FoamFile
{
    version     2.0;
    format      ascii;
    arch        "LSB;label=32;scalar=64";
    class       volScalarField;
    location    "0.08";
    object      nut;
}
// * * * * * * * * * * * * * * * * * * * * * * * * * * * * * * * * * * * * * //

dimensions      [0 2 -1 0 0 0 0];

internalField   nonuniform List<scalar> 
2065
(
0.0027323587
0.0030042749
0.003284761
0.0035767551
0.0038849081
0.0042107559
0.0045555252
0.0049168113
0.0052894248
0.0056658764
0.0060392336
0.0064033386
0.0067658592
0.0071279843
0.0074328625
0.0077164045
0.0079748991
0.008125248
0.0081635357
0.0082006281
0.0083088154
0.0084965546
0.0087184638
0.0088872316
0.0089806812
0.0091831419
0.0096151636
0.010062015
0.010281196
0.010223085
0.0098252176
0.0089306223
0.0077970994
0.0071429667
0.0073576644
0.008079147
0.0085642273
0.0082723817
0.0075214303
0.0072870719
0.0076550935
0.0082797185
0.0088551094
0.0093334668
0.0098692898
0.010499166
0.011244839
0.011930305
0.01256343
0.013137837
0.013551324
0.013847436
0.013997591
0.013935081
0.013841812
0.0135395
0.013309846
0.012610154
0.0016667237
0.0019105348
0.0021783923
0.002470275
0.0027946944
0.0031510963
0.0035428042
0.0039660703
0.0044133434
0.0048781086
0.0053591427
0.00584826
0.0063497367
0.0068364291
0.0072438357
0.0076113669
0.0079235116
0.0080594511
0.0080730889
0.008110215
0.008252719
0.0085043565
0.0088016231
0.009043378
0.0092405834
0.0095512554
0.010018492
0.010413942
0.010549478
0.010405996
0.0099205201
0.0089914055
0.0079306167
0.0074112078
0.0077468299
0.0085249634
0.0090264022
0.008742697
0.0080428363
0.0078891713
0.0083435011
0.0090539016
0.0097376924
0.010292438
0.010862938
0.011524741
0.012289182
0.012991996
0.013636367
0.014225485
0.014661233
0.01496896
0.015151635
0.015098124
0.015031168
0.014742668
0.014526021
0.013829146
0.0010094425
0.0012243791
0.0014742806
0.0017330401
0.0020170628
0.0023454887
0.002701873
0.0030945481
0.0035328216
0.0040136198
0.0045348631
0.0050982984
0.0056728045
0.0062760853
0.0068563558
0.0073082158
0.0077057047
0.0079967085
0.0080571683
0.0080357365
0.0080671026
0.00823711
0.0085486857
0.0089124504
0.0092281285
0.0095232207
0.0099171795
0.010387568
0.010716567
0.010774823
0.010555529
0.0099978087
0.0090540312
0.0080791012
0.007697987
0.0081485255
0.0089835612
0.0095212553
0.0092965888
0.0086597715
0.0085765827
0.0091038806
0.0098896973
0.010672433
0.011292941
0.011888371
0.012573196
0.013344206
0.014057108
0.014706435
0.01530504
0.015757735
0.016069772
0.016282117
0.016235213
0.016191895
0.015915617
0.015709045
0.015017054
0.0011901122
0.0013630638
0.0015363759
0.0017252711
0.0019259419
0.0021631888
0.0024443946
0.0027579387
0.0031439314
0.0035889063
0.004088581
0.0046383373
0.0052418286
0.0058792355
0.0065268081
0.0071005208
0.0075473914
0.0079219042
0.0081110883
0.0080945207
0.008035975
0.0080671173
0.0082641279
0.0086269576
0.009052233
0.0094395456
0.0098199488
0.010268046
0.010713837
0.010974535
0.010965122
0.010687639
0.010074891
0.0091315201
0.0082512447
0.0080086536
0.0085696509
0.0094650474
0.010061766
0.0099472908
0.0093815489
0.0093520821
0.0099348263
0.010783339
0.01165036
0.012326526
0.012938573
0.013636335
0.014404531
0.015120797
0.015771686
0.016370524
0.016837924
0.017149022
0.017387242
0.017344814
0.017322703
0.017057111
0.016858386
0.016172521
0.0020046198
0.0021573074
0.0022963152
0.0024389342
0.0025966703
0.0027875481
0.003020368
0.0032855174
0.0036239695
0.0040270675
0.0045003353
0.0050585482
0.0056751992
0.0063283278
0.0069727396
0.0074984895
0.0079015002
0.0081735226
0.0082330666
0.0081483429
0.0080621671
0.0081041407
0.0083352148
0.0087429544
0.0092228798
0.0096735994
0.010118958
0.010589416
0.010994591
0.011188141
0.01113726
0.010827944
0.010179036
0.0092450093
0.0084603333
0.0083527629
0.0090186908
0.0099829616
0.010658372
0.010696753
0.010211701
0.010213132
0.01083141
0.011727808
0.012662299
0.013384942
0.01400642
0.014704822
0.015466073
0.016179285
0.016828821
0.017418631
0.017898449
0.018206078
0.01846551
0.018426034
0.018422569
0.018166523
0.017973846
0.017294943
0.0027577515
0.0029366828
0.0030745165
0.0031884168
0.0032922182
0.0034108823
0.0035639102
0.0037628149
0.0040126989
0.0043362313
0.0047305716
0.0052107411
0.005753015
0.0063588798
0.0069702005
0.0075296991
0.0079308565
0.0082248395
0.0083608303
0.0083237335
0.0082017371
0.0081195595
0.0081930424
0.0084647064
0.0089051454
0.0094246136
0.0099206075
0.010405919
0.010873028
0.011229343
0.011369835
0.011315932
0.011012139
0.010346698
0.009423007
0.0087241304
0.008743755
0.0095083859
0.010552571
0.01131755
0.011532537
0.011147394
0.011152488
0.011785202
0.012714256
0.01369876
0.014460096
0.015084171
0.015772672
0.016525821
0.017226058
0.017872819
0.018449235
0.018936963
0.019240182
0.019515601
0.019478551
0.019490935
0.019243518
0.019055497
0.018384211
0.0033617312
0.0036277451
0.0038158982
0.0039488547
0.0040490677
0.0041374601
0.0042371639
0.0043719418
0.0045564697
0.0048010104
0.0051150479
0.0055003505
0.0059619944
0.0064780961
0.0070162325
0.0075402732
0.0079777593
0.008256719
0.0084362561
0.0084646696
0.008379882
0.0082632816
0.008214342
0.0083318207
0.0086425004
0.009111033
0.0096471571
0.010168344
0.010673142
0.011121036
0.011414565
0.011543859
0.011534457
0.011286459
0.010623147
0.0096989488
0.0090640014
0.0091906407
0.010047039
0.011178093
0.012057171
0.012428182
0.012181411
0.012159498
0.012784719
0.013732955
0.014750501
0.01554446
0.016163583
0.016835814
0.017578401
0.01825772
0.018899813
0.019461409
0.019952272
0.020250118
0.020536745
0.020502113
0.020527563
0.020288023
0.020103618
0.01944056
0.0040640959
0.0043482285
0.004544654
0.004679732
0.0047803898
0.0048712893
0.0049745538
0.0051105005
0.0052925856
0.0055315409
0.005833261
0.0061985878
0.006623962
0.0070853826
0.0075477656
0.0079580334
0.0082700149
0.0084448316
0.0085267952
0.0085029709
0.0084224941
0.0083504234
0.0083566405
0.0085163626
0.0088575099
0.0093417078
0.0098904642
0.010421682
0.010915397
0.011309083
0.011573601
0.01174158
0.011831491
0.011682337
0.011042826
0.010106898
0.0095062036
0.0097198267
0.010642037
0.011864397
0.012873892
0.013374877
0.013287881
0.013220636
0.013817026
0.01477397
0.015809133
0.016631174
0.017237024
0.017889407
0.018617271
0.019274025
0.01990769
0.020453337
0.02094341
0.021234962
0.0215288
0.021496343
0.021532457
0.021300191
0.02111865
0.020464447
0.0046189547
0.0049085387
0.0051053075
0.0052422688
0.0053486815
0.0054488382
0.0055625935
0.0057057243
0.0058886044
0.0061190438
0.0064024567
0.0067365738
0.0071101212
0.0074985463
0.0078750079
0.0081843075
0.0083999738
0.0085126431
0.0085454551
0.0085222808
0.0084852861
0.008477987
0.00855126
0.0087376267
0.0090958635
0.0095769963
0.010124615
0.010647194
0.011101553
0.011458546
0.011733209
0.011998355
0.012237274
0.012226996
0.011641081
0.010678645
0.010074745
0.010340805
0.011300648
0.01261126
0.01375282
0.014362724
0.014440734
0.014321723
0.014870089
0.015827643
0.016867855
0.017712481
0.018298753
0.018929264
0.019639219
0.020272448
0.020894637
0.021423505
0.021909612
0.022194036
0.022491765
0.022461115
0.022505817
0.022280346
0.022101151
0.021456372
0.0046375459
0.005033421
0.005319175
0.0055110445
0.0056460335
0.0057544946
0.005859592
0.0059781754
0.0061224941
0.0063009751
0.0065186401
0.0067774554
0.0070739325
0.0073937089
0.0077115143
0.0080059087
0.0082482355
0.0084177818
0.0085219906
0.0085723998
0.008590844
0.0086061698
0.0086575735
0.0087879443
0.0090016915
0.0093378243
0.0098045893
0.0103394
0.0108352
0.011248686
0.011590771
0.011926005
0.012344436
0.012764186
0.012916403
0.012425694
0.01142906
0.010783649
0.011055697
0.012034065
0.013407904
0.014674584
0.01538061
0.015615822
0.015448557
0.01593341
0.016884334
0.017920483
0.018781091
0.019343644
0.019951814
0.020641525
0.021250805
0.021859128
0.022370663
0.022850287
0.02312687
0.023425753
0.023396497
0.023447999
0.023228953
0.023051778
0.022416703
0.0049333442
0.0053171507
0.0055914886
0.0057773549
0.0059065833
0.0060113947
0.0061138662
0.0062285557
0.0063650237
0.0065294293
0.0067256858
0.0069538868
0.007210197
0.0074823251
0.0077505017
0.0079975546
0.0082137086
0.0083945888
0.0085467963
0.0086747448
0.0087754271
0.0088474451
0.0089206054
0.0090634102
0.0092890967
0.0095913298
0.010021628
0.010529918
0.010993641
0.011374124
0.011735092
0.012182986
0.012788458
0.013400004
0.013715834
0.013375973
0.012348368
0.011633028
0.011860104
0.01284134
0.014242476
0.015619035
0.016417263
0.016789053
0.016589271
0.016999477
0.017934313
0.018962347
0.019830109
0.020367663
0.020954059
0.02162193
0.022207226
0.022799889
0.023293795
0.023764993
0.024033162
0.024330971
0.024302699
0.024359477
0.024146582
0.023971264
0.023346232
0.0051033808
0.0054791038
0.0057428916
0.0059226978
0.0060447667
0.0061422084
0.0062365204
0.0063407317
0.0064627515
0.0066076033
0.0067783712
0.0069757527
0.0071968244
0.0074341684
0.0076759679
0.007912816
0.0081466385
0.0083793842
0.0086076105
0.0088185928
0.0090030419
0.0091668066
0.0092899896
0.0094184331
0.0096030587
0.0098623625
0.010242164
0.010706446
0.011132716
0.011502918
0.011923257
0.012519688
0.013325751
0.014116588
0.014595004
0.014445576
0.013412507
0.0126079
0.012743675
0.013709754
0.015103721
0.016569769
0.017455431
0.017942234
0.017735772
0.018062158
0.018967172
0.019992005
0.020852627
0.021368064
0.021933525
0.022578577
0.023140138
0.02371588
0.024192091
0.024653418
0.024912751
0.025207705
0.025180046
0.025240818
0.025033887
0.024860395
0.024245671
0.0051522665
0.0055304178
0.0057888789
0.0059657831
0.0060821437
0.0061718946
0.0062561573
0.0063473153
0.0064526605
0.0065769606
0.0067235035
0.0068944188
0.0070890626
0.0073066702
0.0075451296
0.0078023884
0.0080825081
0.0083870391
0.0087142329
0.0090344453
0.0093204304
0.0095481073
0.0096990525
0.0098197387
0.0099715725
0.010173049
0.010489173
0.010891175
0.011278028
0.011666564
0.012179003
0.012923016
0.013918758
0.014898635
0.01550536
0.01555107
0.014584991
0.013682383
0.013693875
0.014615582
0.01598358
0.017512843
0.018480666
0.019067713
0.018874126
0.019113905
0.019980625
0.021003771
0.021842418
0.022343896
0.022888199
0.023509952
0.024048249
0.024606263
0.02506492
0.025515362
0.025765595
0.026056302
0.026028942
0.026092659
0.025891579
0.025719994
0.025115571
0.0050919635
0.0054799002
0.005743958
0.0059226068
0.0060380491
0.0061228085
0.0061980303
0.0062763482
0.0063654264
0.0064706008
0.0065961237
0.0067464073
0.0069261523
0.0071358497
0.0073794783
0.007660153
0.007991611
0.0083775732
0.0088146725
0.0092535074
0.0096635009
0.0099952866
0.010211133
0.010322376
0.010412359
0.010549854
0.010785126
0.01111408
0.011466625
0.0118914
0.012489316
0.013379568
0.014544144
0.015692432
0.01642368
0.016645096
0.015813806
0.014824455
0.014693393
0.015536196
0.016872516
0.018436682
0.019481818
0.020159111
0.019993117
0.020148512
0.020970601
0.021990821
0.022799273
0.023293823
0.023816428
0.024414842
0.024930516
0.025470386
0.025911812
0.026350721
0.026591749
0.026877161
0.02684986
0.026915683
0.026720409
0.026550919
0.025956636
0.0049226284
0.0053298605
0.0056145747
0.0058067097
0.0059303419
0.0060171988
0.0060888175
0.006158698
0.0062356609
0.0063257999
0.0064338117
0.0065638125
0.0067195295
0.0069094413
0.007147399
0.0074466545
0.0078193406
0.0082784575
0.0088122486
0.0093768322
0.0099272819
0.010396087
0.010719042
0.010881736
0.010946475
0.011007935
0.011144718
0.011391283
0.011709649
0.012159065
0.01287289
0.01384486
0.015168454
0.01645952
0.017323742
0.017700125
0.017049644
0.016002891
0.015725009
0.016457054
0.017761863
0.019331086
0.020450728
0.021211253
0.02108399
0.021160953
0.021934032
0.022947395
0.023725184
0.024215275
0.024716873
0.025292289
0.025786122
0.026307758
0.026732431
0.027159477
0.027391346
0.027670722
0.027643316
0.027710608
0.027521159
0.027354044
0.026769925
0.0050880803
0.0054027206
0.0056182688
0.0057585492
0.0058531306
0.0059238785
0.0059852636
0.0060470301
0.006114992
0.0061967811
0.0062997486
0.0064329109
0.0066052335
0.0068317508
0.0071309582
0.0075234265
0.0080385196
0.0086530331
0.0093471571
0.010048088
0.010677223
0.011145342
0.011420701
0.011515323
0.011536248
0.011592035
0.011748116
0.012027855
0.012514319
0.013283791
0.014306934
0.01575019
0.017174105
0.018179962
0.018700078
0.018255972
0.017190731
0.016772794
0.017368842
0.018642761
0.020189276
0.021381835
0.022220203
0.02214
0.022147236
0.022868637
0.023869492
0.024620747
0.02510677
0.025588495
0.026141557
0.026614444
0.02711803
0.027526562
0.027941687
0.028164588
0.028437457
0.028409869
0.028478178
0.028294633
0.028130259
0.027556506
0.0047583396
0.0051048307
0.0053504031
0.0055154854
0.0056261784
0.005703281
0.0057616687
0.0058114628
0.0058610275
0.0059208224
0.0059962776
0.0060966284
0.0062341936
0.0064296981
0.006708871
0.0071013978
0.0076518962
0.0083344038
0.0091416376
0.0099928354
0.010797673
0.011437504
0.011872402
0.012058027
0.012090595
0.012096392
0.012185052
0.012419211
0.012895351
0.013685497
0.014752957
0.01626982
0.017820632
0.018976909
0.01963421
0.019406688
0.01836676
0.017823302
0.018268726
0.019498895
0.021013532
0.022271896
0.023183181
0.023156009
0.023104238
0.023772817
0.024755743
0.025484977
0.025967257
0.026430505
0.026962099
0.02741503
0.027900977
0.028294091
0.028697472
0.028911737
0.02917787
0.02915011
0.029219157
0.029041651
0.028880482
0.028317569
0.0043307145
0.0047072725
0.004986989
0.0051855483
0.0053227006
0.0054170068
0.0054830181
0.0055310493
0.0055697554
0.0056069734
0.0056524499
0.0057158154
0.0058120906
0.0059663424
0.0062119721
0.0065880436
0.007137763
0.0078580599
0.008760835
0.0097623525
0.010750683
0.011582076
0.012190853
0.012524417
0.012621417
0.012618031
0.012653387
0.012834993
0.013278485
0.014067595
0.015170699
0.016723094
0.018392454
0.019706395
0.020496979
0.020483569
0.01951568
0.018865704
0.019157943
0.020313759
0.021809056
0.023119478
0.024098715
0.024128505
0.024029777
0.024645342
0.025605559
0.026316985
0.026796002
0.027242329
0.027753533
0.028187576
0.028656481
0.029034995
0.029427017
0.029633108
0.029892492
0.029864661
0.029934327
0.02976305
0.02960564
0.029054216
0.0041827076
0.0044946207
0.0047282217
0.0048986606
0.0050228275
0.0051108226
0.0051732057
0.005215129
0.0052428843
0.0052677281
0.0053025505
0.0053635324
0.0054780003
0.0056823472
0.0060184098
0.0065281167
0.0072499549
0.0082201447
0.0093551567
0.010536564
0.011588551
0.012368712
0.012884951
0.013092939
0.013122897
0.013130054
0.013261125
0.013655339
0.014418058
0.015555345
0.017117665
0.018889976
0.020365204
0.021288099
0.021473981
0.02062814
0.019891733
0.020033413
0.021091736
0.022570592
0.023924551
0.024965228
0.025054502
0.024921717
0.025485008
0.026419038
0.027116044
0.027592497
0.028023576
0.028515625
0.028931915
0.029384526
0.029749338
0.030130563
0.030329065
0.030581886
0.030554178
0.030624491
0.030459686
0.030306671
0.029767473
0.024686914
0.025781745
0.025932189
0.025778478
0.026291467
0.027196471
0.02788166
0.028356415
0.028774012
0.029248267
0.029648
0.030085193
0.030437266
0.030808412
0.031000024
0.031246648
0.031219348
0.03129047
0.031132427
0.030984521
0.030458332
0.014236539
0.012131748
0.0064888048
0.0091794645
0.012042742
0.014426207
0.015574071
0.015274146
0.013802259
0.011738312
0.0045869383
0.0066799852
0.0092774872
0.012001768
0.014213908
0.015226248
0.014850891
0.013367276
0.011347349
0.0048325075
0.0068658753
0.0093626244
0.011943083
0.013982356
0.014857335
0.0144214
0.012931597
0.010959147
0.0050856693
0.0070489207
0.0094365914
0.011868204
0.013734771
0.014474989
0.013985725
0.012500229
0.01057894
0.0053485829
0.0072317016
0.0095006175
0.011777539
0.013465005
0.014061186
0.013543288
0.012070944
0.010204358
0.0056206784
0.0074136906
0.0095551779
0.011671285
0.013185746
0.013674604
0.013100049
0.011638864
0.0098281462
0.0059006243
0.0075941995
0.0095998609
0.011551059
0.012899766
0.013286615
0.012649053
0.011213548
0.0094608052
0.0061866357
0.0077706804
0.0096328321
0.011416903
0.01260578
0.012888537
0.012194978
0.010792879
0.0091033746
0.0064731198
0.0079387387
0.0096519576
0.011270041
0.012301377
0.012488661
0.011763285
0.010383572
0.0087550421
0.0067522362
0.0080914841
0.0096517457
0.011103937
0.011992088
0.012090166
0.011338203
0.0099863155
0.0084181114
0.0070177377
0.0082236375
0.0096287304
0.010920458
0.011676192
0.011694192
0.010921969
0.0096022955
0.0080939631
0.0072611376
0.0083283196
0.0095788641
0.010718009
0.011354538
0.011302751
0.010517948
0.0092339566
0.0077848708
0.0074849931
0.0084054039
0.0095013062
0.010496855
0.01102872
0.010918116
0.010128679
0.0088832789
0.00749244
0.0076988087
0.0084629417
0.0094011954
0.010259736
0.01070026
0.010541441
0.0097546358
0.0085498739
0.0072157369
0.0078777363
0.008495447
0.0092814226
0.010011009
0.010371787
0.010175129
0.0093981049
0.008236299
0.0069577422
0.0080401088
0.0085210832
0.0091559218
0.0097618939
0.01004503
0.0098158238
0.0090509426
0.0079309683
0.0067050802
0.0081950425
0.0085471173
0.0090392046
0.0095218423
0.009725522
0.0094653309
0.0087139496
0.0076358825
0.0064616389
0.0082896875
0.0085512224
0.008925157
0.0092919662
0.0094112093
0.0091153108
0.0083723546
0.0073315883
0.0062054224
0.0083159571
0.008528172
0.0088155816
0.0090764804
0.009101511
0.0087579603
0.0080119001
0.0070010586
0.0059199781
0.0083390751
0.0085114527
0.0087231178
0.0088766058
0.0088011444
0.0083964389
0.0076380551
0.0066535393
0.0056182393
0.0084116286
0.0085322372
0.008656177
0.0086867976
0.0085014407
0.0080180895
0.0072313517
0.0062608484
0.0052636226
0.0085361383
0.0085811007
0.0085965148
0.0084882387
0.0081902572
0.0076213559
0.0068026981
0.0058461037
0.0048896663
0.0086737379
0.0086224934
0.0085078997
0.0082700395
0.007850388
0.0071998538
0.0063548933
0.0054183842
0.004508571
0.0087633415
0.0086117761
0.0083759158
0.0080204235
0.0074912398
0.006771523
0.0059061315
0.00498926
0.0041218455
0.0087627429
0.0085114866
0.0081701068
0.0077067512
0.0070942195
0.0063327864
0.0054693422
0.0045868543
0.003769914
0.0088600618
0.0085140296
0.0080578253
0.0074778611
0.006772227
0.0059616019
0.0050961587
0.0042460875
0.0034776125
0.0092383679
0.0088394041
0.0083075538
0.0076339093
0.0068316471
0.0059412888
0.0050257923
0.0041550749
0.0033857981
0.0097081221
0.0093200403
0.008786334
0.0080906923
0.0072463357
0.0063017443
0.0053292292
0.0044035301
0.0035858178
0.0099896327
0.0096514584
0.0091697855
0.0085113085
0.0076779219
0.006718887
0.0057110552
0.0047342997
0.003859553
0.010001195
0.0097245804
0.0093186977
0.0087480043
0.0079806575
0.0070439476
0.0060201581
0.0050126822
0.0041007769
0.0096773466
0.0094640553
0.0091372203
0.0086564384
0.0079982109
0.0071442126
0.0061583411
0.0051471918
0.0042123174
0.0088199492
0.0086369151
0.0083583225
0.0079470621
0.0073769664
0.006658776
0.0058176315
0.004918787
0.0040535589
0.0076443689
0.0074320883
0.0071353774
0.0067293078
0.0061971426
0.0055460973
0.0048140745
0.0040670782
0.0033709937
0.0068930412
0.0066119587
0.0062430102
0.0057760879
0.0052134782
0.004576169
0.0039044954
0.0032497153
0.0026587799
0.0070161694
0.0066699352
0.0062253782
0.0056792525
0.0050444097
0.0043534171
0.0036535856
0.0029945865
0.0024159701
0.0076873937
0.0072958654
0.0067946457
0.0061801976
0.0054674369
0.004693927
0.0039141708
0.0031835218
0.0025447369
0.0081572831
0.0077445998
0.0072251969
0.0065921026
0.0058530234
0.0050392009
0.0042071048
0.0034215526
0.0027324084
0.0078824494
0.0074975938
0.0070398492
0.0064990727
0.0058505985
0.0051038335
0.0043040526
0.0035204456
0.0028202939
0.0071014645
0.0066999978
0.0062412062
0.0057324495
0.0051831368
0.0045839979
0.0039403968
0.0032889508
0.0026833059
0.0068033453
0.0063517254
0.0058348642
0.005267707
0.0046629864
0.0040333369
0.0033999421
0.0027964576
0.0022591252
0.0070971374
0.0065799324
0.0059820039
0.0053245077
0.0046308467
0.0039262277
0.0032419175
0.0026141082
0.002074231
0.0076398909
0.0070393251
0.0063354829
0.0055606997
0.0047578063
0.003968801
0.0032301508
0.0025727757
0.0020198401
0.0081166067
0.0074165017
0.0065922134
0.0056921556
0.0047830609
0.003924218
0.0031526531
0.0024884805
0.0019420593
0.0085198754
0.0077497278
0.0068383436
0.0058384832
0.0048299893
0.0038912949
0.0030717495
0.0023893712
0.0018442166
0.0090226667
0.0082189859
0.0072540389
0.0061741605
0.0050609749
0.004009502
0.0030969991
0.0023557301
0.0017825388
0.0096213848
0.0087880674
0.0077776488
0.0066342657
0.0054400893
0.0042942906
0.0032768295
0.0024424072
0.0018053165
0.010344792
0.0094889346
0.0084367791
0.0072235974
0.0059286045
0.0046621619
0.0035350412
0.0026118055
0.0019042785
0.011013445
0.01014395
0.0090674171
0.0078134275
0.0064558559
0.0051034786
0.0038705299
0.002842638
0.0020552311
0.011636269
0.010761176
0.0096714798
0.0083918618
0.0069912403
0.0055760166
0.0042636644
0.0031474743
0.0022724189
0.012199306
0.011319325
0.010219145
0.00892006
0.0074877004
0.006027009
0.0046575246
0.0034781889
0.0025408952
0.012597826
0.011713187
0.010606091
0.0092946815
0.0078420251
0.0063524617
0.004947115
0.0037283395
0.002751945
0.012882368
0.011993423
0.010876703
0.0095536027
0.0080882376
0.0065835915
0.0051611878
0.0039240062
0.0029285165
0.013012098
0.012117281
0.010995261
0.0096649313
0.0081929859
0.0066872891
0.0052669378
0.0040313643
0.0030342868
0.012949148
0.012067384
0.010961935
0.0096513361
0.0081979238
0.0067052699
0.0052952211
0.0040697039
0.0030839218
0.012841503
0.01196148
0.010860131
0.0095579587
0.0081195435
0.006648295
0.0052621829
0.0040582262
0.0030868912
0.01253738
0.011672477
0.010592762
0.0093200675
0.0079191531
0.0064918019
0.0051513414
0.0039890619
0.0030517028
0.012305351
0.011454027
0.010392069
0.0091416703
0.0077671701
0.0063686018
0.0050567668
0.0039205941
0.0030052781
0.011617323
0.010796792
0.0097793681
0.0085889432
0.0072883857
0.0059723468
0.0047434887
0.0036825291
0.0028290397
0.0098825869
0.0075523778
0.0052100342
0.0030257824
0.001194468
0.00014293394
0.0095552572
0.0073040581
0.0050461248
0.0029349175
0.0011609232
0.00013914066
0.0092314528
0.0070583495
0.0048832071
0.0028489003
0.001131521
0.00013518154
0.0089131368
0.0068220012
0.0047236506
0.0027644617
0.0011008639
0.00013109933
0.0086040786
0.0065856139
0.0045707493
0.0026830245
0.0010730318
0.00012690695
0.008295279
0.0063551553
0.0044209944
0.0026032969
0.0010442215
0.00012263481
0.0079914607
0.0061318018
0.0042750482
0.0025256049
0.0010171277
0.00011829283
0.0076976025
0.0059138606
0.0041325099
0.0024491534
0.00098929763
0.00011389928
0.0074110907
0.005701684
0.0039935347
0.0023742597
0.00096228379
0.00010946581
0.0071325015
0.0054954236
0.0038580088
0.0023005836
0.00093504181
0.0001050069
0.0068635053
0.0052962622
0.0037267906
0.0022288161
0.00090845936
0.00010054475
0.006605102
0.0051047955
0.003600206
0.0021591073
0.00088236207
9.6103537e-05
0.0063592953
0.0049226422
0.0034794236
0.0020921631
0.00085712292
9.1715872e-05
0.0061274418
0.0047509928
0.0033655076
0.0020288997
0.00083329715
8.7424789e-05
0.0059082865
0.0045883895
0.0032568947
0.0019677574
0.00080962943
8.3237159e-05
0.0057052065
0.0044384199
0.0031569979
0.001911578
0.00078794195
7.9206161e-05
0.0055044179
0.0042880995
0.0030547975
0.001852223
0.00076355055
7.5221873e-05
0.0053113265
0.004143525
0.0029559522
0.0017939481
0.00073896113
7.1279997e-05
0.0051035075
0.0039839976
0.0028437393
0.0017259362
0.00070953027
6.7154566e-05
0.0048667375
0.0037983745
0.0027105314
0.0016436118
0.00067303457
6.2708525e-05
0.0046165994
0.0036035479
0.0025724257
0.0015599177
0.00063716701
5.801507e-05
0.0043100484
0.0033529
0.0023841453
0.0014377108
0.00057987706
5.2298036e-05
0.0039882437
0.0030917123
0.002190079
0.0013128296
0.00052059085
4.7031198e-05
0.0036643897
0.0028331128
0.0020025636
0.0011972899
0.00047123611
4.2270763e-05
0.0033291566
0.0025569679
0.0017926233
0.0010580425
0.00040426033
3.7861638e-05
0.0030322378
0.0023191487
0.0016176529
0.00094602953
0.00035142282
3.4787503e-05
0.0027914485
0.0021322165
0.0014861908
0.00086771231
0.00032053927
3.2504054e-05
0.0027066951
0.0020595605
0.0014306193
0.00083290139
0.00031121545
3.1442426e-05
0.0028626736
0.0021730542
0.0015046412
0.00087227142
0.00032467335
3.1511077e-05
0.0030789353
0.0023302961
0.0016044176
0.00092198998
0.00034160371
3.2054835e-05
0.0032794528
0.0024847819
0.0017093226
0.0009797192
0.00036205107
3.2550498e-05
0.0033646905
0.0025432465
0.0017439051
0.00099620658
0.00036621912
3.2218197e-05
0.0032529554
0.0024667723
0.0016963428
0.00097086264
0.00035691173
3.0802399e-05
0.0027282779
0.0020886885
0.001446853
0.00083043061
0.00030019864
2.7336306e-05
0.0021277263
0.001612001
0.0011051424
0.00062455038
0.00021868466
2.3859152e-05
0.0019058546
0.0014207459
0.00095697441
0.00053189264
0.00018936507
2.2866925e-05
0.0019850989
0.0014584674
0.0009652409
0.00052711726
0.00018815323
2.3790625e-05
0.0021278585
0.0015580603
0.0010265244
0.00055924892
0.00020394727
2.574201e-05
0.0022013206
0.0016162362
0.0010684612
0.00058364175
0.00021299183
2.7116376e-05
0.0021270851
0.001580184
0.0010540975
0.00057975089
0.00021175022
2.7142753e-05
0.001781649
0.0013236253
0.0008859484
0.00048976218
0.00018118747
2.5671725e-05
0.0016069388
0.0011705913
0.00076892323
0.00042035038
0.00015806028
2.4867815e-05
0.0015486406
0.0011147631
0.00072329109
0.00039297896
0.00015178191
2.500888e-05
0.0014819834
0.0010610892
0.00068400097
0.0003691289
0.00014629032
2.5247544e-05
0.0013949357
0.0009908795
0.00063486267
0.00034204396
0.00013633253
2.5069584e-05
0.0013242899
0.00092467242
0.00058431352
0.00031352364
0.00012787665
2.4730455e-05
0.0013088087
0.00089027876
0.00054919141
0.00029087494
0.00012079972
2.4348857e-05
0.0013517828
0.00089291607
0.0005335202
0.00027593035
0.00011536934
2.3960827e-05
0.0014431673
0.00093616077
0.00054242849
0.0002707933
0.00011200309
2.3601524e-05
0.001581714
0.0010078699
0.0005699912
0.00027551215
0.00011151599
2.3298591e-05
0.0017855685
0.0011394621
0.00063373504
0.00029321786
0.00011136982
2.2919811e-05
0.0019556793
0.0012630602
0.00070853417
0.00032192556
0.00011471074
2.2576854e-05
0.0021087857
0.0013842673
0.00079098079
0.00036000194
0.00011615063
2.1962364e-05
0.0022070115
0.0014672582
0.00085322159
0.00039431467
0.00012152857
2.1404071e-05
0.0022629014
0.0015215512
0.00089787639
0.00041889489
0.00012278562
2.0535807e-05
0.0022733679
0.0015343381
0.00091098043
0.00042851741
0.00012513006
1.9721756e-05
0.0022615283
0.0015357457
0.00091835563
0.00043363752
0.0001232105
1.8592358e-05
0.0022308352
0.0015160534
0.00090797655
0.00043009403
0.00012263761
1.7605314e-05
0.0021031969
0.0014278179
0.00085211522
0.00040015658
0.00011665882
1.614485e-05
)
;

boundaryField
{
    Side1
    {
        type            empty;
    }
    Inlet
    {
        type            calculated;
        value           nonuniform List<scalar> 0();
    }
    Side2
    {
        type            empty;
    }
    Outlet
    {
        type            zeroGradient;
    }
    Botwall
    {
        type            nutkWallFunction;
        blending        stepwise;
        value           nonuniform List<scalar> 
59
(
1.2829544e-05
1.2294161e-05
1.173518e-05
1.1157234e-05
1.0563061e-05
9.9560104e-06
9.3380676e-06
8.7112264e-06
8.0773737e-06
7.4382389e-06
6.7969857e-06
6.1567965e-06
5.5222721e-06
4.8992625e-06
4.2886587e-06
3.6977875e-06
3.1101502e-06
2.524959e-06
1.9072133e-06
1.2369023e-06
5.2194761e-07
0
0
0
0
0
0
0
0
0
0
0
0
0
0
0
0
0
0
0
0
0
0
0
0
0
0
0
0
0
0
0
0
0
0
0
0
0
0
)
;
    }
    Cyli
    {
        type            nutkWallFunction;
        blending        stepwise;
        value           nonuniform List<scalar> 0();
    }
    procBoundary1to0
    {
        type            processor;
        value           nonuniform List<scalar> 
44
(
0.0024648552
0.0043484954
0.001443603
0.001443603
0.00083200479
0.00083200479
0.0010132305
0.0018187489
0.0018187489
0.0025186176
0.0025186176
0.0030125251
0.0036748963
0.0042174099
0.0042174099
0.0041044083
0.0043814836
0.004541861
0.0045855783
0.0045205769
0.00465495
0.0043477257
0.00465495
0.0042930744
0.0038378427
0.0037844658
0.0037844658
0.014668191
0.012527476
0.0062927941
0.009069077
0.012067592
0.014621346
0.015915653
0.015698408
0.015698408
0.0043484954
0.0043484954
0.010214721
0.0078072521
0.0053821446
0.0031195314
0.0012262667
0.00014656186
)
;
    }
    procBoundary1to3
    {
        type            processor;
        value           nonuniform List<scalar> 
62
(
0.0035026904
0.0038324592
0.0041011006
0.0043095964
0.0044755103
0.0046064402
0.0047089126
0.0047806879
0.0048250377
0.0048552354
0.0048842419
0.0049286571
0.0050090806
0.0051666342
0.0054534497
0.0059255218
0.0066265138
0.0076429003
0.0088575774
0.010166834
0.011430109
0.012441118
0.013139989
0.013516423
0.013622714
0.013626122
0.013704943
0.014029696
0.014730469
0.015874975
0.017430566
0.019278292
0.020928095
0.02200245
0.022393118
0.021741948
0.020928895
0.020901611
0.021826578
0.023273895
0.023273895
0.025389353
0.026540486
0.026775018
0.026608737
0.027063911
0.027934171
0.028612469
0.029088488
0.029494369
0.029951913
0.030336185
0.030758632
0.031098856
0.031460752
0.031646308
0.031887416
0.031860939
0.031932768
0.031781781
0.031639828
0.031127576
)
;
    }
}


// ************************************************************************* //
