/*--------------------------------*- C++ -*----------------------------------*\
| =========                 |                                                 |
| \\      /  F ield         | OpenFOAM: The Open Source CFD Toolbox           |
|  \\    /   O peration     | Version:  2406                                  |
|   \\  /    A nd           | Website:  www.openfoam.com                      |
|    \\/     M anipulation  |                                                 |
\*---------------------------------------------------------------------------*/
FoamFile
{
    version     2.0;
    format      ascii;
    arch        "LSB;label=32;scalar=64";
    class       volScalarField;
    location    "0.07";
    object      rho;
}
// * * * * * * * * * * * * * * * * * * * * * * * * * * * * * * * * * * * * * //

dimensions      [1 -3 0 0 0 0 0];

internalField   nonuniform List<scalar> 
8260
(
1.2135504
1.2116902
1.2102858
1.2086298
1.2069663
1.2054403
1.204199
1.2032093
1.2024003
1.2018227
1.2014827
1.2013101
1.2012545
1.2013294
1.2014767
1.2016761
1.2019309
1.2022048
1.2024957
1.2027984
1.2031601
1.2035298
1.2039064
1.2043321
1.204797
1.2052652
1.2056067
1.2056911
1.2057512
1.2056559
1.2040752
1.2156133
1.2139954
1.212261
1.2103602
1.2085399
1.2068834
1.2054677
1.2042893
1.2033194
1.2025847
1.202093
1.201794
1.2016313
1.2016238
1.2017068
1.2018575
1.2020782
1.2023266
1.2026005
1.2028909
1.2032398
1.2035971
1.2039617
1.204369
1.2048231
1.2052697
1.205605
1.205693
1.2057603
1.2056677
1.204081
1.2166848
1.2152373
1.2134723
1.2115437
1.2097008
1.2080109
1.2065187
1.2052407
1.2041711
1.2033272
1.2027286
1.2023171
1.2020639
1.2019763
1.2019914
1.2020841
1.2022583
1.2024671
1.2027095
1.2029764
1.2033043
1.203646
1.2040036
1.204404
1.204866
1.2052946
1.2056187
1.2057014
1.2057739
1.2056847
1.2041119
1.2173559
1.2160392
1.2143839
1.2125349
1.210731
1.2090486
1.2075239
1.2061834
1.2050376
1.2041043
1.2034002
1.2028882
1.2025433
1.2023685
1.2023093
1.2023384
1.2024602
1.2026246
1.2028324
1.2030742
1.203379
1.203704
1.2040529
1.204444
1.2049108
1.2053228
1.205636
1.2057128
1.20579
1.2057031
1.204141
1.2177897
1.2165879
1.2150934
1.2133829
1.2116679
1.2100321
1.2085112
1.2071369
1.2059328
1.2049211
1.2041185
1.2035072
1.2030679
1.2028036
1.2026599
1.2026234
1.2026867
1.2028027
1.2029735
1.203187
1.2034658
1.2037722
1.2041105
1.2044904
1.2049516
1.205353
1.205654
1.2057259
1.2058083
1.2057225
1.2041687
1.217977
1.2169
1.2155851
1.214049
1.2124658
1.2109176
1.20944
1.2080672
1.2068311
1.2057594
1.2048729
1.204169
1.2036374
1.2032781
1.2030505
1.2029432
1.20294
1.2030045
1.203134
1.2033143
1.2035643
1.2038497
1.2041757
1.2045432
1.204992
1.205387
1.2056733
1.2057409
1.205829
1.2057442
1.2041974
1.2179607
1.2170068
1.2158731
1.2145277
1.2131042
1.2116764
1.2102781
1.2089425
1.2077051
1.2065983
1.205648
1.2048636
1.204245
1.203793
1.2034809
1.2032963
1.2032232
1.2032314
1.2033142
1.2034576
1.2036757
1.2039378
1.2042493
1.204603
1.2050374
1.2054257
1.2056946
1.2057583
1.2058527
1.205768
1.2042225
1.2177803
1.216948
1.215991
1.2148375
1.2135865
1.2123001
1.2110078
1.2097399
1.2085313
1.2074168
1.2064261
1.2055783
1.2048825
1.2043438
1.2039475
1.2036832
1.2035373
1.2034845
1.2035162
1.2036187
1.2038016
1.2040377
1.2043326
1.2046709
1.2050902
1.2054692
1.2057177
1.2057784
1.2058797
1.2057955
1.204309
1.2175265
1.2168766
1.2160397
1.2150317
1.2139359
1.2127927
1.2116199
1.2104413
1.2092876
1.2081923
1.2071868
1.2062962
1.2055378
1.2049223
1.2044456
1.2041022
1.2038817
1.2037644
1.203741
1.2037988
1.2039434
1.2041507
1.2044266
1.204748
1.2051507
1.2055179
1.2057428
1.2058014
1.2059105
1.2058283
1.2043854
1.2171963
1.2167434
1.216002
1.2151036
1.2141487
1.2131486
1.212104
1.2110304
1.2099532
1.208902
1.2079074
1.2069974
1.2061949
1.2055165
1.2049677
1.2045487
1.2042542
1.2040705
1.2039892
1.2039988
1.2041021
1.2042781
1.2045325
1.2048351
1.2052197
1.2055718
1.2057698
1.2058279
1.2059455
1.2058692
1.2045438
1.2166302
1.2163823
1.2158503
1.2150827
1.2142412
1.2133698
1.2124536
1.2114944
1.2105096
1.2095237
1.2085643
1.2076593
1.2068344
1.2061109
1.2055022
1.2050153
1.2046505
1.2044007
1.2042598
1.204219
1.2042785
1.2044208
1.2046514
1.2049335
1.2052985
1.205631
1.2057988
1.2058581
1.2059854
1.2059194
1.2046928
1.2160913
1.2158618
1.2154789
1.2149184
1.2142115
1.2134534
1.2126607
1.2118212
1.2109408
1.2100376
1.2091348
1.2082581
1.2074339
1.2066862
1.206034
1.2054907
1.205063
1.2047505
1.2045509
1.2044585
1.2044729
1.2045798
1.2047842
1.2050444
1.2053882
1.2056952
1.2058297
1.2058922
1.2060309
1.2059767
1.2048372
1.2155184
1.2153559
1.2150303
1.2145992
1.2140682
1.2134249
1.2127369
1.2120098
1.2112375
1.2104279
1.2095982
1.2087707
1.2079698
1.2072202
1.2065443
1.2059603
1.2054811
1.205113
1.2048583
1.2047155
1.2046848
1.2047555
1.2049318
1.2051688
1.2054897
1.2057633
1.2058633
1.2059308
1.2060826
1.2060351
1.2049822
1.2149351
1.2148283
1.2145721
1.2141971
1.2137873
1.2132973
1.2126987
1.2120638
1.2113934
1.2106818
1.2099369
1.2091755
1.2084187
1.2076895
1.2070115
1.2064061
1.2058908
1.2054781
1.2051755
1.2049863
1.2049126
1.2049475
1.2050949
1.2053079
1.2056035
1.2058334
1.2059015
1.2059743
1.2061407
1.2060891
1.2051379
1.2143266
1.2142674
1.2140771
1.2137769
1.21342
1.2130138
1.2125274
1.2119746
1.2113971
1.2107852
1.2101342
1.209453
1.2087584
1.2080709
1.207413
1.2068075
1.2062752
1.205833
1.2054937
1.2052654
1.2051533
1.2051548
1.2052735
1.2054625
1.2057291
1.2059028
1.2059475
1.2060237
1.2062048
1.2061409
1.2053036
1.2136109
1.2135882
1.2134437
1.2131955
1.2128999
1.2126049
1.2122703
1.2118232
1.211302
1.2107576
1.2101895
1.2095917
1.2089716
1.2083436
1.2077271
1.2071439
1.2066157
1.2061628
1.2058018
1.2055456
1.2054028
1.2053754
1.2054675
1.2056329
1.2058636
1.2059686
1.2060022
1.2060798
1.2062746
1.2061951
1.2054268
1.2128195
1.2128336
1.212734
1.2125404
1.2122974
1.2120244
1.2117581
1.211496
1.2111318
1.210641
1.2101126
1.2095841
1.2090437
1.2084898
1.2079345
1.2073959
1.2068948
1.2064523
1.206088
1.2058184
1.2056558
1.2056067
1.2056759
1.2058181
1.2060009
1.2060322
1.2060636
1.2061433
1.2063494
1.2062554
1.2054645
1.211948
1.2119952
1.2119356
1.2117926
1.2116127
1.2114074
1.2111707
1.2109055
1.2106475
1.2103487
1.2099394
1.2094662
1.2089822
1.2085024
1.2080229
1.2075499
1.2070986
1.2066889
1.2063416
1.2060758
1.2059068
1.2058453
1.205897
1.2060141
1.2061307
1.2061028
1.2061304
1.2062148
1.2064282
1.2063286
1.2054407
1.2109784
1.2110479
1.2110179
1.2109131
1.2107781
1.2106252
1.2104491
1.2102416
1.2100063
1.2097874
1.2095856
1.2092924
1.2088789
1.2084342
1.2080099
1.207607
1.2072224
1.2068661
1.2065561
1.2063118
1.2061511
1.2060881
1.2061273
1.2062114
1.2062443
1.2061845
1.2062046
1.2062946
1.2065107
1.2064235
1.2054243
1.2100195
1.2101044
1.2100985
1.2100281
1.2099343
1.2098281
1.2097062
1.2095643
1.2093974
1.2092002
1.2089786
1.208784
1.2086157
1.2083464
1.2079668
1.2075969
1.2072761
1.2069874
1.2067319
1.2065255
1.2063873
1.2063343
1.2063624
1.2063959
1.2063446
1.2062705
1.2062895
1.2063821
1.2065948
1.2065416
1.205771
1.2091257
1.2092147
1.2092243
1.2091809
1.2091209
1.2090535
1.2089759
1.2088851
1.2087791
1.2086557
1.2085118
1.2083463
1.2081713
1.208033
1.2078594
1.2075793
1.2073006
1.2070752
1.2068836
1.2067276
1.2066225
1.2065861
1.2065932
1.2065486
1.20643
1.2063602
1.2063867
1.2064759
1.2066768
1.2066411
1.2060026
1.2084348
1.208514
1.2085279
1.2085014
1.2084642
1.2084229
1.2083754
1.2083193
1.2082534
1.208177
1.2080891
1.2079875
1.2078715
1.2077568
1.2076946
1.2076133
1.2074232
1.2072199
1.2070725
1.2069613
1.2068787
1.2068267
1.2067648
1.2066366
1.2065099
1.2064625
1.2064933
1.2065776
1.2067589
1.2066985
1.2059421
1.2079669
1.208023
1.2080365
1.2080264
1.2080112
1.2079944
1.2079745
1.2079498
1.2079193
1.2078822
1.2078376
1.2077844
1.20772
1.2076415
1.2075612
1.2075431
1.2075882
1.2075472
1.2073995
1.2072433
1.2071053
1.2069696
1.2068235
1.2066874
1.2066002
1.206571
1.2066018
1.2066837
1.2068467
1.2067694
1.2059778
1.207806
1.2078287
1.2078351
1.2078325
1.2078282
1.2078231
1.2078163
1.2078069
1.207794
1.2077768
1.2077541
1.2077246
1.2076869
1.207639
1.2075773
1.2074991
1.2074113
1.2073791
1.2074001
1.207349
1.2072055
1.2070255
1.2068632
1.2067573
1.206693
1.2066707
1.2067
1.2067785
1.2069315
1.2068698
1.2059965
1.2078103
1.207807
1.2078037
1.2077989
1.2077926
1.2077849
1.2077752
1.2077632
1.2077483
1.2077302
1.2077082
1.2076812
1.2076482
1.207608
1.2075591
1.2074985
1.2074228
1.2073277
1.207213
1.2071356
1.207118
1.2070466
1.2069212
1.2068223
1.2067673
1.2067526
1.2067808
1.2068512
1.2069894
1.2069328
1.2062412
1.2076645
1.2076609
1.2076557
1.2076495
1.2076423
1.2076338
1.2076239
1.2076122
1.2075984
1.207582
1.2075627
1.20754
1.2075131
1.2074811
1.2074433
1.2073988
1.2073464
1.2072854
1.2072205
1.2071539
1.2070668
1.2069949
1.2069422
1.2068703
1.2068247
1.2068189
1.2068496
1.2069137
1.207033
1.2069751
1.2064561
1.207516
1.2075125
1.2075079
1.2075026
1.2074966
1.2074896
1.2074814
1.2074718
1.2074605
1.207447
1.207431
1.2074117
1.2073886
1.2073609
1.2073282
1.2072907
1.2072488
1.2072034
1.2071543
1.2071006
1.2070418
1.2069758
1.206916
1.2068758
1.2068549
1.2068649
1.2069068
1.2069779
1.2070926
1.2070341
1.206299
1.2072622
1.2072607
1.2072586
1.2072562
1.2072534
1.2072501
1.2072463
1.2072417
1.2072362
1.2072295
1.2072215
1.2072116
1.2071991
1.2071838
1.2071655
1.2071443
1.207121
1.2070955
1.2070669
1.2070298
1.2069842
1.2069586
1.2069377
1.2069065
1.2068919
1.2069046
1.2069433
1.2070062
1.2071072
1.2070326
1.2066924
1.207065
1.2070683
1.2070719
1.2070757
1.2070796
1.2070836
1.2070875
1.2070911
1.2070941
1.2070964
1.2070977
1.2070981
1.2070975
1.207096
1.2070935
1.2070899
1.2070847
1.2070784
1.2070733
1.2070747
1.2070758
1.2070551
1.2070237
1.2069967
1.2069761
1.2069755
1.2069848
1.2070041
1.2070588
1.2069138
1.2063882
1.2075492
1.2075375
1.2075255
1.2075133
1.2075007
1.2074874
1.2074734
1.2074588
1.2074435
1.2074279
1.207412
1.2073956
1.2073784
1.20736
1.2073398
1.2073174
1.2072928
1.2072662
1.2072376
1.207207
1.2071846
1.2071734
1.2071523
1.2071167
1.2070867
1.2070671
1.2070547
1.2070305
1.207033
1.2069704
1.2062867
1.2074923
1.207478
1.2074603
1.2074409
1.20742
1.2073982
1.2073758
1.2073533
1.2073309
1.2073087
1.2072869
1.2072656
1.2072446
1.2072241
1.2072041
1.2071847
1.2071663
1.2071494
1.2071346
1.2071216
1.2071054
1.2070858
1.2070414
1.2070535
1.2070393
1.2069866
1.2069688
1.2069485
1.2068884
1.2068936
1.2066168
1.1873766
1.1873347
1.1872929
1.1873749
1.1875788
1.1879489
1.1885051
1.1892173
1.1900648
1.1910322
1.1920912
1.1932029
1.1943348
1.1954527
1.1965079
1.1975139
1.1984789
1.1993627
1.2001679
1.2009069
1.2016033
1.2022469
1.2028394
1.2034485
1.2040406
1.20459
1.2051173
1.2053926
1.2053947
1.2052368
1.2044991
1.1869015
1.186955
1.186999
1.187185
1.1875166
1.1880036
1.1886493
1.1894424
1.1903482
1.1913442
1.1924084
1.1935083
1.1946163
1.1956893
1.1967054
1.1976906
1.1986319
1.1994888
1.2002734
1.2010047
1.2016923
1.2023252
1.2029065
1.2035055
1.2040834
1.2046131
1.2051324
1.2054016
1.2054058
1.2052445
1.2044835
1.1859248
1.1860295
1.186196
1.1865513
1.1870655
1.1877234
1.1885254
1.1894476
1.1904499
1.1915134
1.1926251
1.1937493
1.1948502
1.1959013
1.1969108
1.197883
1.1988017
1.1996251
1.2003907
1.2011064
1.2017776
1.2023958
1.2029649
1.203557
1.2041265
1.2046471
1.2051577
1.2054138
1.2054169
1.20525
1.2044644
1.1847718
1.1850295
1.1853973
1.1859606
1.1866678
1.1874969
1.188438
1.1894665
1.1905537
1.1916775
1.1928351
1.1939667
1.1950589
1.1961098
1.1971136
1.1980729
1.1989604
1.1997524
1.2005073
1.2012037
1.2018588
1.2024635
1.203021
1.2036066
1.2041686
1.2046819
1.2051853
1.2054279
1.2054287
1.2052553
1.2044447
1.183444
1.1839649
1.1845982
1.1853987
1.1863117
1.1873175
1.1883961
1.1895282
1.1906982
1.1918747
1.1930519
1.1941808
1.1952794
1.1963257
1.1973199
1.1982578
1.1991054
1.1998802
1.2006211
1.2012988
1.201939
1.2025308
1.2030771
1.2036557
1.2042104
1.2047155
1.2052115
1.2054418
1.2054408
1.2052608
1.2044262
1.1822329
1.1830218
1.1838969
1.1849212
1.1860302
1.1872063
1.1884131
1.1896361
1.1908829
1.192084
1.1932712
1.1944152
1.1955111
1.1965486
1.1975307
1.1984304
1.1992444
1.2000124
1.2007332
1.2013925
1.202018
1.2025973
1.2031326
1.203704
1.2042523
1.2047488
1.2052367
1.2054554
1.2054532
1.2052662
1.2044107
1.1811576
1.1822049
1.1832926
1.1845423
1.1858383
1.1871773
1.1884989
1.1897784
1.1910764
1.1923147
1.1935158
1.1946622
1.1957502
1.1967806
1.1977368
1.1985885
1.1993877
1.200143
1.2008433
1.2014845
1.2020954
1.2026625
1.2031869
1.203751
1.2042942
1.2047817
1.2052613
1.2054689
1.2054658
1.2052716
1.2044018
1.1802083
1.1815146
1.1828856
1.1843283
1.1857772
1.1872199
1.1886219
1.18998
1.1913105
1.1925728
1.1937774
1.1949206
1.1960037
1.1970149
1.1979199
1.1987446
1.1995384
1.2002715
1.2009515
1.2015745
1.2021712
1.2027263
1.20324
1.2037969
1.2043351
1.2048143
1.2052853
1.2054823
1.2054787
1.2052771
1.2043575
1.1795854
1.1811077
1.1826778
1.1842682
1.1858324
1.1873575
1.188826
1.1902346
1.1915844
1.1928561
1.1940574
1.1952003
1.1962715
1.1972289
1.1980909
1.1989147
1.1996877
1.2003978
1.2010577
1.2016627
1.2022455
1.2027886
1.2032917
1.2038416
1.2043744
1.2048462
1.2053086
1.2054957
1.205492
1.2052838
1.2043219
1.1793046
1.1809893
1.1826935
1.1843841
1.1860256
1.1876058
1.1891136
1.1905436
1.1918986
1.19317
1.1943675
1.1955042
1.1965291
1.1974221
1.1982713
1.1990864
1.1998345
1.2005224
1.201162
1.201749
1.2023181
1.2028493
1.2033422
1.2038851
1.204412
1.2048776
1.2053313
1.205509
1.2055056
1.2052934
1.2042528
1.1794331
1.1812017
1.1829666
1.1846983
1.1863704
1.1879692
1.1894855
1.1909143
1.1922614
1.1935272
1.1947102
1.1958017
1.1967508
1.1976212
1.1984704
1.1992571
1.1999798
1.2006453
1.2012644
1.2018334
1.202389
1.2029085
1.2033914
1.2039271
1.2044477
1.2049082
1.2053532
1.2055223
1.2055198
1.2053078
1.2041917
1.1799712
1.1817503
1.1835034
1.1852158
1.1868682
1.1884463
1.1899425
1.191359
1.192692
1.1939222
1.1950463
1.1960598
1.1969709
1.1978503
1.1986708
1.1994267
1.2001241
1.2007665
1.2013649
1.2019157
1.202458
1.2029662
1.2034391
1.2039675
1.2044815
1.2049381
1.2053744
1.2055356
1.2055346
1.2053282
1.2041395
1.1807177
1.1825262
1.1842513
1.1859132
1.1875115
1.1890377
1.1904859
1.1918587
1.193147
1.1943066
1.195356
1.1963129
1.1972134
1.1980837
1.1988704
1.1995962
1.2002672
1.2008861
1.2014635
1.201996
1.2025253
1.2030223
1.2034852
1.2040063
1.2045133
1.2049673
1.2053949
1.2055488
1.2055499
1.2053536
1.2040958
1.1814631
1.1832951
1.1850187
1.1866586
1.188217
1.1896897
1.1910721
1.1923604
1.1935701
1.1946665
1.1956586
1.1965925
1.1974939
1.1983203
1.1990712
1.1997657
1.2004094
1.2010043
1.2015604
1.2020743
1.2025907
1.203077
1.2035298
1.2040433
1.2045429
1.2049957
1.2054147
1.205562
1.2055658
1.2053818
1.2040605
1.1830663
1.1846
1.1860874
1.1875649
1.1890076
1.1903858
1.1916836
1.1928903
1.1939971
1.1950456
1.1960418
1.19694
1.1977847
1.1985617
1.1992742
1.1999354
1.2005506
1.2011209
1.2016554
1.2021504
1.2026541
1.2031299
1.2035727
1.2040785
1.2045702
1.2050233
1.2054338
1.205575
1.205582
1.2054106
1.2040328
1.1859479
1.1870691
1.1881225
1.1892115
1.1903359
1.1914621
1.1925627
1.1936177
1.1946108
1.1955664
1.1964725
1.1973029
1.1980823
1.1988085
1.1994795
1.2001054
1.2006911
1.201236
1.2017486
1.2022244
1.2027157
1.2031812
1.203614
1.2041118
1.2045955
1.2050502
1.2054522
1.2055879
1.2055985
1.2054381
1.2040126
1.188427
1.1893505
1.1901416
1.1909503
1.1918023
1.1926809
1.1935675
1.1944451
1.1952966
1.1961286
1.1969271
1.197677
1.1983889
1.1990608
1.199687
1.2002756
1.2008307
1.2013497
1.2018399
1.2022964
1.2027754
1.2032306
1.2036539
1.204143
1.2046193
1.2050764
1.2054699
1.2056004
1.2056151
1.2054641
1.2039997
1.191224
1.1918378
1.1922987
1.1927989
1.1933675
1.193989
1.194649
1.1953327
1.1960228
1.1967188
1.1974054
1.1980667
1.1987057
1.1993189
1.199897
1.2004461
1.2009695
1.201462
1.2019292
1.2023663
1.2028331
1.203278
1.2036924
1.2041722
1.2046434
1.2051018
1.205487
1.2056127
1.2056319
1.205489
1.2039945
1.1943075
1.1945712
1.1946567
1.1948088
1.1950625
1.1954023
1.1958154
1.1962864
1.1967964
1.1973442
1.1979099
1.1984736
1.199033
1.1995829
1.2001097
1.2006171
1.2011075
1.2015726
1.2020166
1.2024344
1.2028887
1.2033233
1.2037293
1.2041998
1.2046684
1.2051264
1.2055035
1.2056245
1.2056487
1.2055135
1.2039992
1.1976468
1.19753
1.1972093
1.1969822
1.1968905
1.1969229
1.1970683
1.197309
1.1976205
1.1980066
1.1984411
1.198898
1.1993708
1.199853
1.2003249
1.2007884
1.2012447
1.2016817
1.2021019
1.2025007
1.2029424
1.2033663
1.2037649
1.2042257
1.2046926
1.20515
1.2055195
1.2056357
1.2056656
1.2055374
1.2040184
1.2011865
1.2006643
1.199918
1.1992952
1.1988359
1.1985389
1.1984009
1.1983996
1.1984957
1.1987059
1.1989992
1.1993403
1.1997192
1.2001287
1.2005426
1.2009596
1.2013805
1.2017888
1.2021851
1.2025654
1.202994
1.2034071
1.2037991
1.2042501
1.2047149
1.2051724
1.2055347
1.2056463
1.2056824
1.2055598
1.204057
1.2049153
1.2039516
1.2027632
1.2017488
1.2009103
1.2002638
1.1998268
1.1995768
1.1994372
1.1994507
1.1995889
1.199803
1.2000785
1.2004095
1.2007616
1.2011299
1.2015144
1.2018936
1.202266
1.2026287
1.2030436
1.2034457
1.2038318
1.2042729
1.204735
1.205193
1.2055487
1.2056557
1.205699
1.2055813
1.2040767
1.2089777
1.207564
1.2059738
1.2045667
1.2033062
1.2022446
1.201452
1.2009169
1.2004975
1.2002723
1.2002274
1.2002952
1.2004529
1.2006968
1.2009826
1.2012993
1.2016464
1.2019962
1.2023455
1.2026916
1.2030916
1.2034827
1.2038635
1.2042946
1.204753
1.2052114
1.2055611
1.205664
1.2057155
1.2056037
1.204083
1.2128795
1.2114282
1.209822
1.2080438
1.2063107
1.2047168
1.2034585
1.2025237
1.2017449
1.2012174
1.2009439
1.2008372
1.2008565
1.2010007
1.2012127
1.201473
1.2017797
1.2020985
1.2024246
1.2027541
1.2031374
1.2035178
1.2038936
1.2043155
1.2047698
1.205229
1.2055742
1.2056734
1.2057333
1.2056307
1.2040803
1.1882055
1.1883399
1.1884024
1.1884648
1.1885895
1.1888401
1.1892456
1.1897939
1.190479
1.1912982
1.1922274
1.1932335
1.1942848
1.1953518
1.1963875
1.1973821
1.1983492
1.1992479
1.2000766
1.2008364
1.2015496
1.2022071
1.2028077
1.2034169
1.2039981
1.2045472
1.2050695
1.2053616
1.2053765
1.2052277
1.2045261
1.1884647
1.1886063
1.1887032
1.1888201
1.1889581
1.1891938
1.1895536
1.1900402
1.1906691
1.1914355
1.192317
1.193283
1.1943015
1.1953431
1.1963655
1.1973511
1.1983098
1.1992049
1.2000347
1.2007989
1.2015151
1.2021756
1.2027809
1.2033931
1.2039725
1.2045319
1.2050595
1.2053587
1.2053725
1.2052267
1.2045483
1.1886039
1.1887944
1.1889469
1.1890737
1.1892508
1.1894978
1.1898426
1.1902996
1.1908877
1.1916066
1.19244
1.1933622
1.1943436
1.1953547
1.1963568
1.1973302
1.1982782
1.1991675
1.1999962
1.2007616
1.2014808
1.2021441
1.2027538
1.203369
1.203952
1.2045148
1.2050469
1.2053522
1.2053655
1.205222
1.2045723
1.1888048
1.1890335
1.1892143
1.1893813
1.1895779
1.189826
1.1901551
1.1905842
1.1911309
1.1917996
1.1925808
1.1934543
1.1943939
1.1953712
1.1963496
1.1973085
1.1982456
1.1991291
1.1999568
1.200724
1.2014448
1.2021114
1.2027259
1.2033439
1.2039332
1.204495
1.2050301
1.2053417
1.2053555
1.2052141
1.2045988
1.1890054
1.1892728
1.1894984
1.1896918
1.189899
1.190147
1.1904631
1.1908675
1.1913768
1.191999
1.1927301
1.193555
1.1944514
1.1953931
1.1963459
1.1972878
1.1982129
1.1990904
1.1999167
1.2006864
1.2014083
1.2020775
1.202697
1.2033176
1.2039141
1.204473
1.2050105
1.2053289
1.205344
1.2052046
1.2046323
1.189203
1.189486
1.1897316
1.1899588
1.1901863
1.1904417
1.1907522
1.1911384
1.1916175
1.1921996
1.1928852
1.193664
1.1945177
1.195423
1.1963484
1.1972714
1.1981825
1.199053
1.1998769
1.2006464
1.2013717
1.2020445
1.2026676
1.2032903
1.2038934
1.2044493
1.2049886
1.2053147
1.2053316
1.2051942
1.2046775
1.1893818
1.1896783
1.1899482
1.1901983
1.190445
1.1907117
1.1910224
1.1913969
1.1918525
1.1924009
1.1930459
1.1937816
1.1945936
1.195462
1.1963584
1.1972603
1.1981558
1.1990173
1.1998375
1.200605
1.201333
1.2020113
1.2026368
1.2032614
1.2038706
1.204424
1.2049652
1.2052994
1.2053183
1.2051824
1.2047018
1.1895553
1.1898636
1.1901516
1.19042
1.1906839
1.190963
1.1912772
1.1916449
1.1920826
1.1926028
1.1932119
1.1939076
1.1946793
1.1955106
1.1963767
1.1972555
1.1981333
1.1989842
1.199799
1.2005647
1.2012932
1.2019754
1.2026044
1.2032307
1.203846
1.2043972
1.2049402
1.2052831
1.2053042
1.2051692
1.2047079
1.1897302
1.190043
1.1903426
1.1906272
1.1909076
1.1911994
1.1915193
1.1918839
1.1923084
1.1928054
1.193383
1.1940418
1.1947749
1.1955692
1.1964037
1.1972576
1.1981159
1.198954
1.1997616
1.2005249
1.2012531
1.2019372
1.2025697
1.203198
1.203818
1.2043688
1.2049138
1.2052658
1.2052889
1.2051547
1.2046979
1.1899065
1.1902212
1.1905293
1.1908264
1.191121
1.191425
1.191752
1.192116
1.1925309
1.193009
1.1935591
1.1941842
1.1948805
1.1956383
1.1964404
1.1972674
1.1981042
1.1989276
1.1997261
1.2004855
1.2012123
1.2018978
1.2025329
1.203162
1.2037855
1.2043387
1.2048859
1.2052472
1.2052722
1.2051387
1.2046722
1.1900809
1.1903923
1.19071
1.1910203
1.1913285
1.1916442
1.1919788
1.192344
1.1927521
1.1932146
1.1937407
1.194335
1.1949966
1.1957185
1.1964873
1.1972859
1.1980993
1.198906
1.1996935
1.2004473
1.2011695
1.201857
1.2024967
1.2031235
1.2037496
1.2043065
1.204856
1.2052271
1.2052538
1.2051209
1.2046309
1.1902655
1.1905841
1.1909043
1.1912205
1.191538
1.1918633
1.1922047
1.1925716
1.1929745
1.1934239
1.1939286
1.1944948
1.1951234
1.1958102
1.1965453
1.1973141
1.1981023
1.1988901
1.1996646
1.200411
1.2011281
1.2018151
1.2024586
1.2030853
1.2037117
1.2042719
1.204824
1.2052052
1.2052333
1.2051007
1.2045743
1.1904465
1.1907748
1.1911037
1.1914279
1.1917541
1.1920878
1.192435
1.1928032
1.1932015
1.193639
1.1941244
1.1946642
1.1952614
1.195914
1.196615
1.1973527
1.198114
1.1988809
1.1996402
1.2003774
1.2010888
1.2017739
1.2024189
1.2030467
1.2036721
1.2042346
1.2047898
1.2051814
1.2052106
1.2050777
1.2045013
1.1906823
1.1910041
1.1913317
1.1916579
1.1919882
1.1923265
1.1926765
1.1930442
1.193437
1.1938628
1.1943297
1.1948446
1.1954114
1.1960305
1.1966971
1.1974025
1.1981352
1.1988791
1.1996211
1.200347
1.2010514
1.2017333
1.2023789
1.2030062
1.2036311
1.2041949
1.204753
1.2051553
1.2051853
1.2050516
1.2044094
1.1909443
1.1912626
1.1915899
1.1919166
1.1922478
1.1925867
1.192936
1.1933002
1.1936854
1.1940985
1.1945467
1.195037
1.1955742
1.19616
1.1967922
1.1974643
1.1981668
1.1988857
1.1996082
1.2003206
1.2010161
1.201691
1.2023378
1.2029668
1.2035888
1.2041528
1.2047138
1.2051269
1.2051571
1.2050217
1.2042946
1.1912682
1.1915742
1.1918953
1.1922168
1.192543
1.192877
1.1932205
1.193577
1.1939512
1.1943493
1.1947777
1.195243
1.1957505
1.1963032
1.1969007
1.1975386
1.1982095
1.1989013
1.1996022
1.2002989
1.2009836
1.20165
1.2022959
1.2029264
1.2035457
1.2041078
1.2046718
1.2050959
1.2051256
1.2049875
1.2041565
1.1916689
1.1919562
1.1922623
1.19257
1.1928832
1.193205
1.1935362
1.1938794
1.1942384
1.1946183
1.1950247
1.1954639
1.1959412
1.1964606
1.197023
1.1976259
1.1982638
1.1989268
1.1996039
1.2002827
1.2009546
1.2016126
1.2022547
1.2028836
1.2035019
1.2040595
1.2046269
1.205062
1.2050904
1.204947
1.2040194
1.1921419
1.1924046
1.1926889
1.192976
1.1932697
1.1935726
1.1938854
1.1942098
1.194549
1.194907
1.195289
1.1957005
1.1961469
1.1966325
1.1971594
1.1977266
1.1983303
1.1989627
1.199614
1.2002726
1.2009298
1.2015779
1.2022148
1.2028403
1.2034569
1.2040113
1.2045788
1.2050251
1.2050509
1.2048967
1.2038754
1.1926766
1.1929101
1.1931672
1.1934288
1.1936979
1.1939769
1.1942663
1.1945673
1.1948825
1.1952155
1.1955705
1.1959527
1.1963672
1.1968186
1.1973097
1.1978407
1.1984093
1.1990096
1.1996331
1.2002695
1.2009097
1.2015461
1.2021756
1.2027975
1.2034088
1.2039661
1.2045284
1.2049849
1.2050069
1.2048351
1.2036719
1.1932407
1.1934453
1.1936747
1.1939101
1.1941534
1.1944068
1.1946707
1.194946
1.1952351
1.1955409
1.1958674
1.1962193
1.1966014
1.1970183
1.1974733
1.1979679
1.1985008
1.1990677
1.1996618
1.2002738
1.2008949
1.2015174
1.2021346
1.2027539
1.2033626
1.2039212
1.2044763
1.204941
1.2049584
1.2047618
1.2035463
1.1938143
1.1939915
1.1941938
1.1944035
1.1946216
1.1948496
1.195088
1.1953375
1.1956001
1.1958785
1.1961762
1.1964976
1.1968473
1.1972299
1.1976493
1.1981075
1.1986044
1.1991371
1.1997004
1.2002862
1.2008862
1.2014926
1.2020975
1.2027064
1.2033149
1.2038759
1.2044222
1.2048933
1.2049061
1.2046768
1.2034764
1.1943655
1.1945189
1.1946976
1.1948852
1.1950816
1.1952877
1.1955035
1.1957298
1.195968
1.1962207
1.1964911
1.1967833
1.1971018
1.1974513
1.1978359
1.1982582
1.1987193
1.1992175
1.1997489
1.2003069
1.2008839
1.2014725
1.2020645
1.2026587
1.2032654
1.2038281
1.204365
1.2048416
1.2048506
1.2045859
1.2035562
1.1948923
1.1950241
1.1951805
1.1953477
1.1955243
1.1957109
1.1959071
1.1961131
1.19633
1.19656
1.1968058
1.1970713
1.1973609
1.1976793
1.1980307
1.1984184
1.1988444
1.1993082
1.1998072
1.2003362
1.2008886
1.2014573
1.202035
1.2026161
1.2032166
1.2037755
1.2043042
1.2047859
1.2047921
1.2044993
1.2035939
1.1953662
1.1954808
1.1956195
1.1957704
1.1959319
1.1961037
1.1962851
1.1964757
1.1966761
1.1968877
1.1971131
1.1973557
1.1976198
1.19791
1.1982308
1.1985859
1.1989782
1.1994083
1.1998748
1.200374
1.2009005
1.2014477
1.2020089
1.2025735
1.2031686
1.2037242
1.2042399
1.204726
1.2047307
1.2044216
1.2035834
1.1958084
1.1959067
1.1960282
1.1961631
1.19631
1.196468
1.1966364
1.1968142
1.1970013
1.1971985
1.1974075
1.1976314
1.1978738
1.1981394
1.1984327
1.198758
1.1991186
1.1995163
1.1999509
1.20042
1.2009195
1.2014438
1.2019869
1.2025365
1.2031222
1.2036694
1.204173
1.2046623
1.2046665
1.2043522
1.2035708
1.1962054
1.1962901
1.1963965
1.1965175
1.1966515
1.196798
1.1969558
1.1971237
1.1973009
1.1974874
1.1976842
1.1978935
1.1981186
1.1983636
1.1986332
1.1989318
1.1992634
1.1996306
1.2000343
1.2004737
1.2009457
1.2014459
1.2019692
1.2025044
1.2030785
1.203613
1.2041041
1.2045947
1.2045998
1.2042899
1.2034566
1.1965808
1.1966515
1.1967426
1.1968488
1.196969
1.1971029
1.1972496
1.1974077
1.1975759
1.1977537
1.1979409
1.1981391
1.1983507
1.1985792
1.1988289
1.1991045
1.1994101
1.1997492
1.2001237
1.2005341
1.2009785
1.2014539
1.2019561
1.2024756
1.203034
1.2035592
1.2040388
1.2045235
1.2045309
1.2042348
1.2033893
1.1969222
1.1969824
1.1970602
1.1971527
1.19726
1.1973818
1.1975177
1.1976664
1.1978265
1.1979968
1.1981766
1.1983664
1.1985677
1.1987834
1.1990171
1.1992733
1.1995563
1.19987
1.2002175
1.2006001
1.2010175
1.2014678
1.2019476
1.2024495
1.2029867
1.2035068
1.2039787
1.2044508
1.2044597
1.2041843
1.2033093
1.1972415
1.1972937
1.1973597
1.1974392
1.1975332
1.1976424
1.1977667
1.1979051
1.1980565
1.1982193
1.1983924
1.1985753
1.1987687
1.1989744
1.1991955
1.1994358
1.1996995
1.1999911
1.200314
1.2006706
1.2010617
1.2014871
1.2019438
1.2024265
1.2029393
1.2034538
1.2039197
1.2043782
1.2043866
1.2041384
1.2032335
1.1975437
1.1975842
1.197642
1.19771
1.1977913
1.1978877
1.1979998
1.1981273
1.1982691
1.1984238
1.19859
1.1987667
1.1989535
1.1991514
1.1993625
1.19959
1.1998378
1.2001103
1.2004113
1.2007441
1.2011105
1.2015112
1.2019447
1.2024069
1.202894
1.2034005
1.203861
1.2043052
1.204312
1.2040913
1.2031595
1.1978339
1.1978616
1.197907
1.1979669
1.1980369
1.1981208
1.1982205
1.1983363
1.1984676
1.1986133
1.1987719
1.198942
1.1991228
1.1993142
1.1995173
1.1997346
1.1999694
1.2002257
1.2005077
1.200819
1.2011625
1.2015396
1.2019503
1.2023913
1.2028524
1.2033485
1.2038045
1.2042326
1.2042365
1.2040365
1.2031721
1.1981047
1.1981274
1.1981601
1.1982076
1.1982696
1.1983426
1.1984302
1.1985339
1.198654
1.1987898
1.19894
1.199103
1.1992776
1.1994631
1.1996596
1.1998687
1.2000929
1.2003359
1.2006016
1.200894
1.2012166
1.2015718
1.2019605
1.2023804
1.2028183
1.2033024
1.2037487
1.2041627
1.2041614
1.2039785
1.2029876
1.1983553
1.1983744
1.1984016
1.1984371
1.1984872
1.1985522
1.1986291
1.1987212
1.1988298
1.198955
1.1990959
1.1992511
1.1994191
1.1995986
1.1997893
1.1999916
1.2002074
1.2004395
1.2006915
1.2009677
1.2012718
1.201607
1.2019752
1.2023754
1.2027961
1.2032609
1.2036908
1.2040989
1.204086
1.2039149
1.2028577
1.1985873
1.1986024
1.1986255
1.1986555
1.198694
1.1987474
1.1988163
1.198898
1.1989953
1.1991096
1.1992406
1.1993872
1.199548
1.1997215
1.1999066
1.2001031
1.200312
1.2005353
1.2007762
1.2010387
1.2013269
1.2016445
1.2019944
1.2023766
1.2027829
1.2032239
1.2036403
1.204043
1.20401
1.2038406
1.2027583
1.1987998
1.1988117
1.1988305
1.1988561
1.1988891
1.1989317
1.1989897
1.1990635
1.1991508
1.1992543
1.199375
1.1995124
1.1996654
1.1998323
1.2000118
1.2002031
1.2004062
1.2006225
1.2008546
1.2011061
1.2013811
1.2016837
1.2020175
1.2023839
1.2027772
1.2031988
1.2035975
1.2039878
1.2039396
1.2037557
1.2026641
1.1989986
1.199008
1.1990231
1.1990444
1.1990728
1.1991092
1.1991562
1.1992174
1.1992945
1.199388
1.1994988
1.1996269
1.1997715
1.1999316
1.2001053
1.2002916
1.2004898
1.2007007
1.200926
1.201169
1.2014335
1.201724
1.2020446
1.2023974
1.2027787
1.2031842
1.2035651
1.2039293
1.2038732
1.2036741
1.2026016
1.1991793
1.1991867
1.1991988
1.1992161
1.1992396
1.1992708
1.1993108
1.1993644
1.1994335
1.1995168
1.1996167
1.1997344
1.1998697
1.2000217
1.2001889
1.2003698
1.2005635
1.2007699
1.2009902
1.2012269
1.2014838
1.2017652
1.2020755
1.2024174
1.2027882
1.2031794
1.2035428
1.2038776
1.2038092
1.203597
1.202507
1.1993488
1.1993548
1.1993646
1.1993788
1.1993983
1.1994248
1.1994596
1.199504
1.1995626
1.1996376
1.1997277
1.1998351
1.1999605
1.2001038
1.2002638
1.200439
1.2006283
1.200831
1.2010476
1.2012801
1.2015319
1.2018072
1.2021104
1.2024443
1.2028062
1.2031847
1.2035311
1.2038259
1.2037426
1.2035071
1.202296
1.1995026
1.1995077
1.199516
1.1995279
1.1995444
1.1995669
1.199597
1.1996361
1.199686
1.199751
1.1998329
1.1999306
1.2000463
1.2001804
1.2003325
1.2005014
1.2006859
1.2008851
1.2010991
1.2013292
1.2015783
1.2018505
1.2021497
1.2024783
1.2028329
1.2031986
1.2035261
1.2037774
1.2036786
1.2034369
1.2022799
1.1996441
1.1996489
1.1996563
1.1996668
1.1996812
1.1997007
1.1997269
1.1997613
1.1998057
1.199862
1.1999331
1.2000215
1.200128
1.2002532
1.2003972
1.2005593
1.2007387
1.2009345
1.2011464
1.2013755
1.2016241
1.2018956
1.2021935
1.2025191
1.2028671
1.2032186
1.203522
1.2037307
1.2036148
1.2033593
1.2023168