/*--------------------------------*- C++ -*----------------------------------*\
| =========                 |                                                 |
| \\      /  F ield         | OpenFOAM: The Open Source CFD Toolbox           |
|  \\    /   O peration     | Version:  2406                                  |
|   \\  /    A nd           | Website:  www.openfoam.com                      |
|    \\/     M anipulation  |                                                 |
\*---------------------------------------------------------------------------*/
FoamFile
{
    version     2.0;
    format      ascii;
    arch        "LSB;label=32;scalar=64";
    class       volScalarField;
    location    "0.097";
    object      omega;
}
// * * * * * * * * * * * * * * * * * * * * * * * * * * * * * * * * * * * * * //

dimensions      [0 0 -1 0 0 0 0];

internalField   nonuniform List<scalar> 
8260
(
19418.488
16554.222
13859.495
11452.513
9369.5541
7595.6045
6102.1884
4858.3858
3833.7996
2998.6869
2325.532
1789.2236
1366.8626
1037.8202
781.85937
577.92024
397.19257
263.68343
199.50106
167.98454
145.68074
130.59747
120.93657
114.87148
110.52624
106.75434
103.94097
101.89988
100.51101
99.638827
99.185442
16033.276
13811.384
11769.424
9915.454
8259.3426
6803.2385
5542.2125
4466.1095
3561.3155
2811.2332
2197.663
1702.7089
1308.7673
999.08926
755.69489
558.57474
380.89499
253.22375
195.17669
165.77184
144.38623
129.87152
120.51476
114.62773
110.36593
106.65249
103.87408
101.86021
100.48743
99.62454
99.176571
13131.555
11494.801
9955.0477
8525.1917
7215.195
6032.8047
4982.6396
4065.4677
3278.1466
2613.516
2061.242
1609.5931
1245.8177
956.87909
727.05249
537.28359
364.33197
246.13454
192.81188
164.56767
143.69367
129.49173
120.29473
114.49852
110.27937
106.59755
103.83666
101.83703
100.47093
99.61241
99.166839
10638.596
9471.355
8335.1977
7250.6695
6230.6735
5286.3955
4427.0252
3659.0511
2985.6449
2406.1335
1916.3194
1509.642
1177.6648
910.79378
695.48554
513.38092
346.34323
237.88585
189.34199
162.5743
142.49654
128.82406
119.90204
114.26145
110.11782
106.49365
103.76597
101.79392
100.44432
99.595335
99.155467
8523.4809
7713.6024
6892.4542
6087.0569
5309.2966
4570.6867
3881.8372
3251.718
2686.8954
2190.8173
1763.698
1403.0936
1104.2424
860.59081
660.56506
486.10269
326.42489
229.68941
186.07848
160.72047
141.423
128.24556
119.57196
114.0629
109.98058
106.40382
103.70578
101.75728
100.42
99.578257
99.142469
6755.1855
6202.4203
5621.7936
5037.2926
4458.0738
3893.888
3354.5615
2849.2969
2385.8985
1970.0055
1604.6805
1290.5012
1025.6592
806.09088
621.78265
454.72119
304.86199
221.39397
182.29463
158.412
140.0401
127.47668
119.12347
113.78829
109.78787
106.27678
103.62047
101.70527
100.38757
99.556733
99.127571
5292.6316
4921.3358
4519.5729
4105.3237
3684.6528
3264.6753
2853.2164
2458.2755
2087.3607
1746.7732
1441.0556
1172.7362
942.19976
747.14116
578.42771
418.60258
282.47488
213.27433
178.38463
156.01696
138.64516
126.72051
118.69429
113.52442
109.59776
106.14908
103.53611
101.65417
100.35475
99.533729
99.11056
4096.0378
3851.0844
3579.2275
3292.7544
2995.1443
2690.9529
2385.6765
2085.4364
1796.509
1524.7579
1275.0858
1050.9933
854.32039
683.54607
529.38357
377.37986
260.60194
205.3319
174.03466
153.25513
137.00894
125.80625
118.16605
113.19443
109.355
105.98597
103.42833
101.58842
100.31397
99.505903
99.091094
3128.5273
2970.2424
2790.5804
2597.5036
2392.6735
2178.6207
1958.7549
1737.2333
1518.7044
1307.9397
1109.3922
926.71669
762.55325
614.87258
472.92617
332.18765
240.97524
197.56092
169.41009
150.33422
135.31546
124.87268
117.63807
112.85797
109.09757
105.81209
103.3151
101.51961
100.27059
99.475207
99.06883
2355.68
2255.7938
2140.1464
2013.6222
1876.7748
1730.7509
1577.3558
1419.0482
1258.8615
1100.2268
946.67155
801.37618
667.14181
539.98136
407.06518
287.35681
224.68296
189.73836
164.37426
147.10106
133.42057
123.80428
117.01975
112.45199
108.7808
105.60041
103.17701
101.43525
100.21798
99.438679
99.043299
1745.9663
1684.4935
1612.441
1532.1905
1443.7343
1347.4051
1243.924
1134.4663
1020.7076
904.78851
789.12748
675.92885
567.3592
455.09881
333.51922
251.01399
211.39066
181.68907
159.11825
143.71454
131.45861
122.72435
116.39148
112.02024
108.43543
105.37003
103.02724
101.345
100.16021
99.397719
99.014009
1270.1242
1233.5367
1190.2352
1141.229
1086.1976
1024.9602
957.52623
884.18112
805.59151
722.82545
637.19251
549.10627
458.74444
357.93073
269.80442
227.31877
198.70954
173.04834
153.82104
139.96063
129.3351
121.56564
115.6678
111.50425
108.02848
105.09691
102.84732
101.23816
100.09108
99.349536
98.980401
900.99408
880.34342
855.49793
826.78983
793.72641
755.82578
712.69927
664.10674
610.07277
550.85067
486.9431
417.11841
342.57104
274.6419
233.55403
208.88166
185.50228
165.03179
148.22632
136.43424
127.13618
120.31449
114.92657
110.95198
107.5901
104.79444
102.64811
101.12288
100.01458
99.295527
98.936764
610.24646
598.58088
584.30117
567.64265
547.99139
524.54108
496.91239
464.89815
428.37288
386.90021
342.56627
298.75862
260.86089
229.97686
209.40133
190.61455
174.08585
156.0407
142.88208
132.59883
125.00093
119.0799
114.02791
110.28977
107.09266
104.43881
102.41544
100.98695
99.925238
99.233404
98.884788
390.62891
383.8156
376.10188
367.54625
357.21559
344.5051
329.60564
313.12622
294.55915
274.51542
254.03903
234.34858
218.18896
205.00714
188.64668
175.11047
161.43303
148.87534
137.89699
129.50572
122.91833
117.64231
113.11518
109.59899
106.5252
104.05284
102.16572
100.83547
99.827472
99.165246
98.82661
267.16503
263.89954
259.96073
255.79966
251.19829
245.93676
239.76797
233.24446
224.63946
216.42664
207.05453
199.86954
194.29474
182.15621
169.83768
158.66439
151.57907
141.70953
133.85418
126.25655
120.98852
116.38658
111.96955
108.71649
105.89328
103.62102
101.8907
100.65658
99.715045
99.089514
98.763786
201.43721
200.24932
198.88301
197.27086
195.65602
193.73036
191.30661
189.02261
186.72003
184.88873
179.72795
174.27149
168.19661
163.47399
155.83508
147.73463
140.63741
135.94856
130.10417
123.96639
119.18657
114.70356
110.82268
107.79171
105.15235
103.18084
101.60022
100.46488
99.593745
99.007119
98.698329
167.15729
166.29576
165.6556
165.05359
164.72434
165.0651
165.24151
163.91088
161.88135
157.86485
156.2715
156.27342
152.61405
148.6373
146.77291
140.00115
133.47775
128.59986
125.51815
120.99725
117.07355
113.00151
109.42963
106.72471
104.34424
102.69879
101.27759
100.25145
99.459284
98.917043
98.630896
147.99188
148.06037
147.93718
147.45775
146.4614
144.73482
142.39433
141.07303
140.446
140.45609
139.8947
136.23798
134.02277
132.03958
133.01134
133.01296
127.79483
122.47527
119.95381
117.3618
113.82242
110.9128
107.9494
105.66928
103.47234
102.19193
100.96023
100.02928
99.316203
98.820608
98.553773
130.2044
130.05161
129.89517
129.68626
129.47614
129.54076
130.25026
130.2895
129.55791
127.61095
125.41953
124.15614
124.16981
123.40644
120.46196
120.81132
121.42522
118.03519
114.73028
111.89583
110.39396
108.31925
106.15881
104.44401
102.66523
101.66277
100.5889
99.80505
99.160357
98.716273
98.474371
121.09898
121.21071
121.19895
121.05403
120.73115
120.15144
118.91567
118.40369
118.03731
117.66001
117.74134
117.39101
115.35177
114.28928
113.67247
112.31722
111.84229
112.41625
111.15575
108.94526
106.9511
105.43884
104.26331
103.20548
102.00035
101.10058
100.24855
99.567711
99.005944
98.606284
98.385614
112.41388
112.42728
112.40167
112.32373
112.22208
112.15442
112.43305
112.68489
112.52625
112.09235
111.30492
110.5737
110.97381
109.54447
109.41722
108.43544
107.3958
107.06863
107.07671
106.44017
105.18637
103.79751
102.58849
101.84037
101.34312
100.57722
99.876503
99.332767
98.851441
98.490742
98.297798
107.88796
107.98654
108.00436
107.95382
107.83649
107.63839
107.28131
106.80141
106.61992
106.51775
106.50729
106.59921
106.22012
106.61519
105.56292
105.66242
105.2614
104.51651
103.93698
103.93014
104.03958
102.83151
101.68192
100.84844
100.72837
100.10238
99.59127
99.087631
98.701915
98.377332
98.206871
103.64934
103.68539
103.68224
103.6506
103.60338
103.54957
103.50273
103.56813
103.65231
103.64651
103.58952
103.43377
103.34536
103.01161
103.20277
102.8095
102.94195
102.95106
102.33103
101.71414
101.82782
102.0627
101.16567
100.28877
100.10996
99.733645
99.252065
98.890004
98.567756
98.270876
98.124258
101.61832
101.66715
101.67779
101.6598
101.61931
101.55723
101.4668
101.34057
101.23284
101.21788
101.22416
101.24314
101.26459
101.30259
101.25381
101.40952
101.12899
100.87419
101.01699
100.71748
100.52774
100.68838
100.73058
99.990209
99.572665
99.317989
99.075822
98.726365
98.414783
98.181394
98.051456
99.790942
99.809238
99.808653
99.798889
99.79007
99.788993
99.797903
99.822879
99.895619
99.981191
100.07736
100.16872
100.24247
100.28529
100.25932
100.05666
100.16695
99.990742
99.837702
100.17587
99.90383
99.779756
99.905194
99.76449
99.245839
99.08632
98.848076
98.533679
98.300554
98.110087
98.007901
98.957292
98.969559
98.968599
98.963624
98.963409
98.969502
98.981051
98.992731
99.001363
99.019194
99.041025
99.066529
99.101718
99.143544
99.181865
99.280609
99.218713
99.329093
99.355241
99.363255
99.490677
99.221281
99.107836
99.235983
99.02512
98.801117
98.622845
98.426229
98.217813
98.069755
97.982878
98.428031
98.436812
98.442092
98.447171
98.454869
98.465785
98.479696
98.496264
98.515248
98.536841
98.562568
98.595534
98.642162
98.693921
98.708412
98.706958
98.746483
98.782913
98.872919
98.81464
98.804841
98.840693
98.721261
98.733377
98.709833
98.579301
98.456521
98.320357
98.173513
98.052982
97.970253
98.245777
98.250287
98.252548
98.255176
98.260185
98.267964
98.278195
98.290591
98.305304
98.323097
98.345627
98.377868
98.417998
98.452507
98.471116
98.493447
98.523057
98.551918
98.557829
98.557223
98.575911
98.553748
98.550937
98.527826
98.522606
98.465252
98.377177
98.275917
98.158544
98.066862
98.026494
98.164599
98.169626
98.174372
98.179957
98.186975
98.195378
98.205026
98.216053
98.229138
98.245899
98.269699
98.305277
98.346343
98.376458
98.39144
98.401925
98.408989
98.42456
98.444711
98.45768
98.475022
98.463309
98.470517
98.461206
98.454303
98.420512
98.352762
98.269839
98.219445
98.174734
98.129002
98.283985
98.282562
98.281314
98.280234
98.279378
98.278898
98.27904
98.2801
98.2825
98.286654
98.293562
98.307394
98.337058
98.35916
98.368573
98.378409
98.391104
98.399667
98.41073
98.425239
98.432929
98.451369
98.439591
98.44987
98.44669
98.42809
98.391072
98.361771
98.343924
98.309054
98.304635
106480.26
90135.865
70957.926
54567.895
41651.727
31413.968
23405.731
17302.642
12699.763
9235.2707
6650.6176
4747.0801
3361.7752
2364.1524
1652.3049
1147.6697
789.52334
529.77131
345.24766
230.5158
174.36502
147.33243
131.29615
120.42252
113.55365
108.60916
105.23511
102.74451
101.07643
100.03058
99.491782
94092.097
70988.176
54330.37
42445.474
33026.942
25439.952
19429.285
14673.023
10946.386
8067.1845
5880.3945
4245.1219
3038.2825
2157.872
1522.0449
1065.9515
737.79572
496.46862
323.78023
218.74105
169.24568
144.92015
129.93455
119.70266
113.18873
108.39464
105.1119
102.6724
101.03719
100.01045
99.483717
75259.842
59675.223
47769.885
37810.793
29447.735
22636.112
17232.911
13006.207
9726.1402
7203.9936
5286.534
3845.3531
2774.004
1985.9322
1411.7468
995.90478
693.20583
468.13868
307.04752
211.8557
166.86221
143.78826
129.28081
119.36078
113.0184
108.29243
105.0516
102.63516
101.01265
99.994383
99.472333
66120.652
53246.21
42299.468
33204.683
25837.347
19948.674
15278.513
11597.49
8720.2977
6496.574
4797.2982
3512.6873
2551.5359
1839.5405
1316.8453
935.05303
654.1744
443.44772
292.24243
204.7347
163.65455
142.08361
128.25328
118.81798
112.74238
108.12515
104.95192
102.57457
100.97831
99.975434
99.462247
58923.691
46953.753
37193.278
29294.914
22914.606
17782.367
13681.305
10431.307
7882.1129
5904.085
4385.1662
3230.5006
2361.3557
1713.3803
1234.3968
881.7103
619.684
421.20867
278.79745
198.88471
161.4104
140.92501
127.56893
118.46708
112.56653
108.01591
104.88527
102.53341
100.95237
99.958773
99.452782
52379.635
41785.375
33196.595
26211.728
20551.637
15993.579
12346.451
9451.7769
7175.4921
5402.4035
4034.3717
2988.8886
2197.4746
1603.9376
1162.37
834.65331
589.02951
400.7941
266.69071
193.68751
159.07314
139.58966
126.7452
118.03168
112.34305
107.87654
104.79966
102.4807
100.92142
99.940558
99.442096
47297.549
37712.699
29943.54
23653.308
18576.806
14493.079
11224.16
8625.9695
6577.3164
4975.6155
3734.3452
2781.0779
2055.6968
1508.6861
1099.2666
793.06801
561.66189
382.15446
255.88592
189.26705
157.17876
138.5235
126.10293
117.7024
112.17577
107.77003
104.73234
102.43889
100.89532
99.923625
99.430588
43198.7
34328.55
27225.156
21518.346
16927.027
13235.688
10280.525
7928.7076
6069.8509
4611.7092
3477.1769
2601.9938
1932.8525
1425.6936
1043.9298
756.34404
537.14794
365.17907
246.32718
185.45244
155.37146
137.43268
125.42514
117.34491
111.9901
107.65165
104.65682
102.39189
100.86688
99.905907
99.41848
39681.085
31481.766
24959.655
19739.127
15546.701
12180.3
9485.7763
7339.1396
5638.862
4301.1677
3256.629
2447.6338
1826.434
1353.4294
995.52148
723.93723
515.38744
349.78399
237.95325
182.20228
153.81782
136.49623
124.85485
117.05063
111.83754
107.55323
104.59209
102.35134
100.84135
99.888934
99.406124
36797.823
29128.782
23075.739
18252.236
14389.3
11293.309
8815.9401
6840.5056
5272.8803
4036.3045
3067.6544
2314.752
1734.4004
1290.6428
953.33068
695.44697
495.82305
335.86335
230.6852
179.42396
152.38809
135.59216
124.29381
116.75446
111.68063
107.45223
104.52474
102.30892
100.81489
99.871605
99.393578
34338.277
27144.224
21492.181
17003.57
13417.74
10547.871
8251.7395
6419.2447
4962.5807
3810.8433
2906.1159
2200.6761
1655.0595
1236.291
916.67778
670.50347
478.30634
323.34034
224.42958
177.05929
151.13536
134.79285
123.80539
116.49992
111.54466
107.36464
104.46444
102.27066
100.79028
99.85475
99.38086
32263.262
25473.369
20161.58
15955.66
12603.188
9922.3664
7777.5931
6064.3352
4700.3535
3619.6371
2768.6027
2103.1879
1586.9939
1189.5556
884.99648
648.84453
462.69902
312.14889
219.09491
175.04861
150.0095
134.04672
123.34457
116.25544
111.41092
107.27912
104.40446
102.23227
100.76548
99.837785
99.367985
30491.763
24060.198
19042.308
15077.476
11921.476
9399.1951
7380.7933
5766.8267
4479.9942
3458.4639
2652.2976
2020.4417
1529.0516
1149.6182
857.76217
630.20411
448.85244
302.23879
214.58827
173.34645
149.0271
133.38329
122.93884
116.04131
111.29175
107.2036
104.34972
102.19686
100.74195
99.821155
99.354954
28979.718
22865.085
18102.015
14343.631
11353.825
8964.3888
7051.0464
5519.4373
4296.4807
3323.9427
2554.938
1951.0243
1480.2338
1115.7697
834.57336
614.26575
436.63809
293.56669
210.82271
171.91235
148.16747
132.78103
122.5672
115.84217
111.17799
107.13239
104.29685
102.16224
100.71861
99.804552
99.341775
27692.03
21859.467
17318.175
13736.139
10886.44
8607.4693
6780.7406
5316.7293
4145.9854
3213.5962
2474.8695
1893.691
1439.7252
1087.5802
815.19311
600.73416
425.92538
286.0862
207.71816
170.71492
147.4345
132.25261
122.24104
115.66737
111.07551
107.06932
104.24835
102.12999
100.69624
99.788236
99.328427
26625.328
21034.74
16681.208
13245.856
10510.974
8321.8233
6564.9164
5155.1217
4025.8119
3125.1291
2410.4999
1847.3418
1406.8854
1064.6552
799.40073
589.56663
416.63639
279.76896
205.18893
169.72833
146.81787
131.78972
121.9504
115.50945
110.97988
107.01152
104.20252
102.09899
100.67431
99.772066
99.314872
25780.75
20388.133
16184.806
12865.645
10220.918
8101.6577
6398.7345
5030.4256
3932.9459
3056.3717
2360.2895
1811.1601
1381.1782
1046.6668
786.99652
580.77054
408.79564
274.58088
203.11242
168.93221
146.31592
131.39816
121.69963
115.37213
110.89416
106.96075
104.16057
102.07005
100.6532
99.756151
99.301109
25004.841
19829.74
15777.398
12565.3
9998.0479
7935.682
6274.9848
4938
3864.4218
3005.8439
2323.3411
1784.495
1362.192
1033.3551
777.80807
574.24777
402.45256
270.40442
201.47735
168.31104
145.92134
131.07476
121.48395
115.25163
110.81645
106.91554
104.12167
102.04261
100.63264
99.740423
99.28716
24198.563
19284.886
15405.999
12310.402
9821.4395
7811.8722
6187.1953
4874.973
3818.6099
2972.3974
2298.9677
1766.877
1349.6233
1024.5279
771.70555
569.92807
397.64466
267.17614
200.23824
167.85274
145.63023
130.82183
121.30512
115.14948
110.74833
106.87672
104.08639
102.01709
100.61286
99.724946
99.27308
23538.048
18843.144
15112.604
12117.793
9696.171
7730.5974
6134.2079
4839.7045
3794.413
2955.3164
2286.6824
1758.0006
1343.2748
1020.0547
768.6038
567.74435
394.40514
264.84125
199.37472
167.55062
145.43822
130.63827
121.1617
115.06417
110.68924
106.84361
104.05438
101.99324
100.59376
99.709682
99.258922
22952.47
18482.118
14893.191
11988.271
9623.0828
7691.8479
6115.5108
4831.6244
3791.3111
2954.2416
2286.2539
1757.7152
1343.0328
1019.8762
768.46655
567.64182
392.77392
263.36445
198.87166
167.4057
145.34518
130.52569
121.05567
114.99693
110.64028
106.81665
104.02592
101.97124
100.57542
99.694631
99.244639
22429.12
18186.985
14739.132
11918.243
9601.4657
7695.0616
6128.6784
4847.4818
3806.2435
2967.3532
2296.9921
1765.8587
1348.8753
1023.9904
771.30516
569.57871
392.79822
262.75079
198.73527
167.41737
145.34954
130.48378
120.98733
114.94738
110.60126
106.79534
104.00069
101.95087
100.55774
99.679718
99.230081
21940.57
17941.044
14640.982
11903.179
9625.7004
7734.5609
6171.7233
4888.8274
3843.0863
2997.3981
2320.0377
1782.7885
1360.8826
1032.4373
777.1743
573.66586
394.34056
262.9339
198.87618
167.54992
145.41785
130.4977
120.95553
114.91466
110.57159
106.77908
103.97839
101.93195
100.54064
99.664899
99.215202
21437.101
17714.467
14579.664
11928.799
9689.0603
7809.4945
6244.2065
4951.9183
3894.699
3037.7391
2350.2992
1804.699
1376.285
1043.1142
784.44014
578.6336
397.02812
263.76171
199.29405
167.80255
145.56438
130.54888
120.95248
114.89469
110.5489
106.76642
103.95833
101.9142
100.52403
99.650201
99.20018
103787.28
87993.026
69844.678
54235.89
41876.255
32093.551
24223.907
18041.143
13281.274
9676.3514
6973.8407
4976.5673
3520.0916
2470.5454
1722.093
1192.43
817.60067
546.62735
354.85357
234.7542
175.94871
148.1112
131.77583
120.66201
113.6634
108.67029
105.27224
102.77037
101.09477
100.04298
99.494452
98405.962
83702.129
67290.963
53029.152
41354.972
31844.712
24148.921
18066.288
13361.641
9770.2892
7060.768
5048.1273
3574.8261
2510.2327
1749.6527
1210.8376
829.57924
554.15639
359.74749
237.18836
176.91857
148.61383
132.09901
120.81592
113.72555
108.71497
105.30021
102.7891
101.10778
100.05126
99.496824
93125.801
79737.663
64567.069
51442.361
40496.76
31438.223
24016.725
18076.529
13435.849
9862.743
7148.8675
5121.9722
3632.0022
2552.0582
1778.8828
1230.4479
842.34695
562.15881
364.97045
239.8368
177.96828
149.13167
132.42212
120.97712
113.8009
108.74701
105.31915
102.80461
101.12049
100.06073
99.500747
88139.519
76013.327
61942.424
49842.797
39603.588
30998.776
23858.237
18071.406
13501.895
9952.3325
7237.2903
5197.6499
3691.4342
2595.9817
1809.8083
1251.3093
855.92779
570.70107
370.51002
242.70777
179.12585
149.72265
132.80224
121.1488
113.8612
108.80547
105.35574
102.82791
101.13586
100.06994
99.505729
83376.011
72583.574
59437.956
48241.273
38674.921
30522.668
23670.723
18050.957
13557.769
10037.54
7325.0931
5274.6609
3752.9081
2641.948
1842.4491
1273.4686
870.33478
579.80887
376.32245
245.84417
180.38749
150.2988
133.14255
121.33396
113.96179
108.84004
105.37588
102.84519
101.15039
100.08011
99.510107
78667.717
69350.662
57067.042
46658.247
37719.175
30010.648
23451.411
18005.239
13600.39
10116.412
7411.0472
5352.3244
3816.1048
2689.8436
1876.7931
1296.9549
885.6471
589.53565
382.20266
249.0997
181.7661
150.99892
133.59131
121.53153
114.02739
108.88858
105.40491
102.86658
101.16665
100.09088
99.51233
74069.028
66235.602
54771.373
45062.555
36715.431
29447.861
23190.293
17929.925
13625.546
10186.578
7493.8958
5430.0326
3880.7887
2739.6314
1912.897
1321.8654
902.08131
600.08056
388.5917
252.68993
183.2658
151.70304
134.01731
121.73716
114.11479
108.9397
105.43497
102.8891
101.18376
100.10221
99.515037
69544.524
63191.871
52566.003
43481.852
35683.01
28845.288
22892.986
17827.5
13630.466
10247.784
7573.4836
5507.6918
3946.9697
2791.4068
1950.9092
1348.3548
919.60695
611.36365
395.68835
256.55203
184.90068
152.45871
134.46699
121.95452
114.20432
108.99124
105.46532
102.9121
101.20167
100.1141
99.521405
65211.792
60153.984
50393.741
41895.013
34611.376
28193.901
22551.44
17692.132
13619.02
10297.016
7647.4234
5583.8381
4013.8466
2844.7659
1990.6318
1376.3064
938.25217
623.43947
403.30157
260.70111
186.68231
153.25875
134.93183
122.17856
114.29837
109.04601
105.49685
102.93648
101.22045
100.12644
99.532726
61045.94
57141.066
48269.283
40309.846
33502.267
27491.708
22162.27
17520.381
13584.708
10331.789
7713.9572
5657.3776
4080.8247
2899.4426
2031.9796
1405.7183
958.0459
636.43987
411.47093
265.16613
188.62476
154.12509
135.4263
122.4189
114.39387
109.09987
105.5282
102.96097
101.23997
100.13929
99.543613
57073.52
54036.376
46109.965
38694.805
32346.545
26734.498
21721.508
17307.065
13516.801
10346.897
7770.8831
5727.0566
4147.2018
2955.0951
2074.8272
1436.5737
979.00647
650.346
420.29865
269.9887
190.73778
155.03242
135.92513
122.65733
114.49253
109.15771
105.56105
102.98738
101.26039
100.1526
99.551709
53408.064
50910.221
43869.013
37030.176
31137.492
25918.745
21225.642
17048.481
13416.467
10341.521
7816.2276
5791.4988
4212.1747
3011.3142
2119.006
1468.836
1001.1496
665.09395
429.47123
275.1475
193.04016
156.02514
136.46355
122.9202
114.59436
109.21322
105.59313
103.01319
101.28131
100.16648
99.559558
49942.571
47761.388
41568.19
35316.396
29873.545
25042.909
20672.427
16742.019
13281.909
10318.427
7848.5636
5849.2956
4274.8479
3067.6181
2164.3011
1502.4442
1024.4866
680.7336
438.97701
280.6928
195.52172
157.05532
136.99066
123.16569
114.69331
109.27193
105.62662
103.04164
101.30318
100.1808
99.568773
46680.891
44573.016
39173.47
33531.105
28548.459
24105.834
20060.935
16385.859
13109.542
10266.032
7864.2147
5898.8012
4334.2471
3123.4621
2210.4509
1537.3105
1049.0178
697.29288
449.09188
286.65126
198.21335
158.17693
137.55782
123.44143
114.80438
109.32895
105.65947
103.06864
101.32513
100.19558
99.579523
43521.997
41354.35
36661.551
31655.034
27153.259
23105.89
19391.37
15979.469
12897.419
10184.132
7860.9927
5938.4304
4389.3407
3178.2525
2257.1629
1573.3217
1074.7298
714.78874
459.85447
293.07491
201.10025
159.36133
138.11596
123.69226
114.89905
109.38383
105.69195
103.09885
101.34818
100.2107
99.590756
40370.732
38100.219
34044.384
29691.026
25692.722
22048.537
18668.108
15525.199
12646.317
10074.708
7844.2663
5967.6926
4439.2278
3231.3697
2304.1062
1610.3421
1101.5969
733.2298
471.40378
299.82854
204.22694
160.59331
138.66341
123.95314
115.02275
109.44346
105.72667
103.12713
101.37066
100.22603
99.60217
37205.417
34915.906
31438.344
27709.491
24205.633
20956.71
17904.563
15030.282
12359.441
9937.5296
7805.7013
5985.2814
4483.0847
3282.2067
2350.9192
1648.2188
1129.5972
752.64018
483.85625
307.44301
207.54534
161.94922
139.25402
124.22642
115.11443
109.48845
105.75539
103.15799
101.39463
100.24172
99.613588
34076.236
31888.597
28925.158
25768.609
22728.744
19855.333
17117.919
14505.523
12042.532
9774.4999
7746.5224
5988.4608
4519.9803
3330.1893
2397.2471
1686.7887
1158.7196
773.12459
497.37732
315.61929
211.18663
163.30662
139.73232
124.44013
115.24339
109.55166
105.79453
103.18799
101.41718
100.25724
99.625005
31099.853
29110.519
26608.043
23937.128
21308.819
18776.875
16330.227
13965.197
11703.989
9590.0534
7670.4464
5982.4647
4549.9662
3374.8848
2442.7464
1725.8619
1188.8755
794.74856
511.92683
323.70027
214.85624
164.70782
140.26073
124.74806
115.34553
109.58642
105.81783
103.21689
101.44191
100.2731
99.636365
28417.975
26671.247
24554.787
22277.35
19992.534
17754.66
15565.761
13426.071
11354.482
9390.3812
7580.3818
5965.8023
4573.0867
3416.0033
2487.0989
1765.2164
1219.9274
817.35873
527.32757
332.44048
219.08489
166.25144
140.76459
124.95062
115.45621
109.65022
105.86283
103.24912
101.46423
100.28816
99.64755
26100.921
24607.273
22802.689
20833.07
18819.716
16820.738
14848.687
12905.661
11005.814
9182.5496
7479.2955
5937.5833
4589.2982
3453.3624
2530.0269
1804.6205
1251.7486
840.92294
543.59909
341.96118
223.24182
167.57232
141.01498
125.2099
115.58631
109.68507
105.88603
103.2723
101.48934
100.30361
99.658443
24172.481
22906.9
21355.04
19622.693
17815.979
16001.155
14201.233
12420.901
10669.899
8974.1841
7371.6166
5901.8623
4599.2746
3486.8885
2571.2987
1843.8696
1284.2017
865.36541
560.64626
352.01703
227.86811
169.03296
141.5973
125.53265
115.66839
109.74872
105.93511
103.30682
101.51103
100.3175
99.668916
22593.919
21529.915
20189.417
18647.225
16996.932
15315.231
13641.146
11986.454
10357.656
8772.6721
7261.8804
5860.9282
4603.965
3516.7207
2610.7143
1882.7327
1317.1338
890.59989
578.38651
362.24795
233.05247
170.73253
141.86259
125.67763
115.81846
109.806
105.96675
103.3235
101.53541
100.33181
99.678699
21270.611
20391.212
19242.34
17869.882
16351.229
14768.625
13180.861
11614.601
10078.666
8584.5224
7153.9155
5816.3033
4603.1848
3542.6987
2648.0301
1920.9533
1350.3738
916.54988
596.87016
373.04721
237.61716
171.82068
142.02024
126.03405
115.93651
109.85676
106.01344
103.35913
101.55578
100.3439
99.68745
20108.141
19394.715
18424.668
17217.656
15828.916
14337.086
12815.089
11308.81
9838.36
8414.2112
7050.6376
5769.9387
4599.6181
3564.9896
2682.9327
1958.2237
1383.7193
943.13094
616.07813
384.88667
242.65375
173.31171
142.73694
126.30747
116.03603
109.98236
106.0724
103.37748
101.57762
100.35698
99.694804
19026.108
18461.227
17655.871
16610.681
15359.044
13966.583
12510.808
11054.361
9632.5696
8261.5974
6952.7857
5722.1551
4591.6495
3583.1943
2715.013
1994.1454
1416.8713
970.18947
636.02184
397.46954
248.2666
175.23009
143.01991
126.45615
116.29017
110.06103
106.10554
103.41272
101.59644
100.36723
99.700396
17932.656
17503.468
16852.554
15967.47
14863.667
13590.291
12218.98
10820.356
9444.6619
8118.9255
6856.9295
5671.1259
4578.1525
3596.8035
2743.7071
2028.2479
1449.5194
997.53027
656.53808
410.60743
254.04591
176.63213
143.31032
127.02062
116.45079
110.19737
106.19068
103.44315
101.6149
100.37826
99.703954
16764.54
16451.03
15944.792
15219.601
14274.319
13141.502
11880.899
10562.22
9245.5969
7969.5044
6754.0243
5611.6579
4555.6094
3601.3782
2767.0285
2059.6164
1481.2334
1024.9714
677.63655
424.52972
260.44245
178.47388
144.11204
127.27595
116.66806
110.4174
106.24182
103.47245
101.63361
100.38557
99.705114
15533.123
15296.962
14902.168
14319.926
13536.033
12561.796
11439.419
10232.32
9001.0247
7791.6085
6631.7425
5537.4851
4521.744
3598.541
2784.7159
2087.6272
1511.5167
1052.2828
699.28875
439.32329
267.29005
180.59882
144.84135
127.5379
117.18227
110.5294
106.33629
103.52869
101.64868
100.3933
99.703807
14257.235
14072.442
13759.352
13289.946
12647.159
11832.124
10868.635
9801.4657
8684.455
7565.2683
6477.2579
5441.4947
4473.2709
3587.1497
2795.2471
2111.243
1539.779
1079.1873
721.46497
455.19395
275.28697
183.40847
145.9297
128.29966
117.43954
110.80603
106.46012
103.55847
101.6646
100.39747
99.699451
12970.003
12815.916
12562.381
12184.343
11663.733
10994.476
10187.795
9272.9069
8290.4132
7282.3308
6283.2317
5317.9497
4404.8205
3559.6805
2795.1555
2129.2699
1565.3876
1105.3286
744.02485
472.17787
284.91752
187.09986
147.54164
129.08583
117.97526
111.09258
106.53443
103.63118
101.67547
100.40069
99.692101
11738.327
11601.927
11390.316
11082.681
10662.386
10119.776
9456.7071
8689.0612
7844.2614
6955.7452
6055.3224
5169.116
4317.8953
3519.3809
2789.6226
2142.2961
1588.1
1130.4004
766.70119
489.97921
295.69355
191.25644
149.18859
129.87313
118.60023
111.25827
106.73645
103.68066
101.68473
100.39958
99.680798
10633.943
10508.129
10325.358
10069.335
9725.8906
9284.4304
8741.4216
8102.5365
7384.1463
6610.6583
5808.7753
5003.6675
4217.1333
3468.2634
2774.577
2149.8265
1607.741
1154.1634
789.25898
508.34772
307.32997
195.49431
150.61284
130.71468
119.10825
111.67529
106.8536
103.73154
101.6986
100.3959
99.66578
9715.5184
9596.2487
9432.2514
9211.3557
8921.9446
8553.95
8101.0374
7563.6942
6950.7719
6277.7423
5565.3234
4835.9979
4111.3115
3410.9349
2752.8191
2152.7713
1624.5499
1176.5462
811.49651
527.03348
319.69268
199.95479
151.82407
131.43223
119.75631
111.9794
107.00767
103.82174
101.70643
100.3887
99.645771
9008.1815
8893.6643
8741.7217
8543.5833
8290.0106
7972.1111
7583.1665
7120.2388
6586.488
5991.8155
5351.8528
4685.7969
4014.036
3356.2721
2730.7549
2154.0407
1639.6633
1197.8547
833.32997
545.80015
332.5985
204.39784
152.71917
131.84562
120.22829
112.28362
107.20539
103.85241
101.72407
100.37343
99.621026
8494.2893
8388.6847
8249.7112
8070.5691
7843.0453
7559.2673
7212.6255
6799.1399
6319.2765
5779.179
5190.9638
4571.4274
3939.7203
3315.1375
2715.6634
2157.526
1655.0264
1218.8188
854.92474
564.56222
345.89091
209.27881
153.23083
131.95586
120.40405
112.59001
107.28973
103.92602
101.73106
100.35755
99.590302
8077.2724
7987.1769
7867.4862
7711.9161
7512.4256
7260.8957
6950.3022
6576.0069
6136.8687
5636.8555
5085.812
4498.9785
3894.9379
3293.1864
2712.3762
2166.4332
1672.5329
1240.4358
876.64271
583.39316
359.51537
214.55157
153.52528
131.93529
120.42258
112.7047
107.41954
103.97108
101.72496
100.32965
99.553433
7664.2851
7593.0506
7496.3854
7368.3703
7201.4952
6987.4231
6717.835
6385.9662
5988.6658
5527.8829
5011.3576
4452.7739
3870.5461
3285.1864
2715.97
2181.0157
1692.9404
1263.1812
898.8206
602.52909
373.62594
220.44383
153.92918
131.76361
120.38817
112.71769
107.5
103.96691
101.71933
100.30724
99.509555
7209.8183
7157.497
7083.7773
6982.6669
6847.1718
6669.5901
6441.9043
6156.6361
5808.2277
5394.9812
4921.3168
4398.3279
3842.8583
3275.4102
2719.9057
2196.5109
1714.303
1286.6453
921.49443
622.2379
388.70344
227.71834
154.75775
131.32719
120.20004
112.70468
107.50357
103.97679
101.70238
100.26282
99.458138
6713.8257
6674.9987
6619.0238
6540.2306
6432.1858
6287.5504
6098.4598
5857.2863
5557.8193
5196.7654
4775.278
4300.5023
3786.0604
3250.1619
2714.1144
2202.214
1731.3554
1308.3771
943.65627
642.24971
404.69088
236.40318
156.39335
131.05653
119.79034
112.63983
107.48099
103.96926