/*--------------------------------*- C++ -*----------------------------------*\
| =========                 |                                                 |
| \\      /  F ield         | OpenFOAM: The Open Source CFD Toolbox           |
|  \\    /   O peration     | Version:  2406                                  |
|   \\  /    A nd           | Website:  www.openfoam.com                      |
|    \\/     M anipulation  |                                                 |
\*---------------------------------------------------------------------------*/
FoamFile
{
    version     2.0;
    format      ascii;
    arch        "LSB;label=32;scalar=64";
    class       surfaceScalarField;
    location    "0.097";
    object      phi;
}
// * * * * * * * * * * * * * * * * * * * * * * * * * * * * * * * * * * * * * //

dimensions      [1 0 -1 0 0 0 0];

oriented        oriented;

internalField   nonuniform List<scalar> 
16284
(
0.010499812
-0.014636748
0.015082519
-0.010945656
0.010057867
-0.01718598
0.017627847
0.0095945816
-0.020111109
0.020574316
0.0091131898
-0.023491422
0.023972734
0.0086209407
-0.027396167
0.027888335
0.0081280591
-0.031891931
0.032384732
0.0076463929
-0.03705372
0.037535306
0.0071855897
-0.042971615
0.043432347
0.0067513908
-0.049768728
0.050202869
0.0063460287
-0.057586334
0.057991653
0.0059699601
-0.066552127
0.066928165
0.0056185637
-0.076831312
0.077182683
0.005281442
-0.088589408
0.088926498
0.0049408668
-0.1019502
0.10229074
0.0045680029
-0.11675176
0.11712457
0.0040953482
-0.13263003
0.13310261
0.0035118658
-0.14878108
0.14936446
0.0029888824
-0.16607695
0.16659985
0.0026023205
-0.18692578
0.18731228
0.002276697
-0.21112534
0.21145091
0.0019886057
-0.2386656
0.23895363
0.0017322351
-0.26989807
0.27015438
0.0014981969
-0.30534578
0.30557975
0.0012807311
-0.34558972
0.34580713
0.0010736666
-0.39114296
0.39135002
0.00087950529
-0.44285264
0.44304685
0.00069734011
-0.50155484
0.50173705
0.00052346471
-0.56832138
0.56849516
0.00035340673
-0.6441277
0.64429762
0.0001817088
-0.7304224
0.730594
-0.82839037
0.82857185
0.01163938
-0.014246137
-0.012030071
0.011200484
-0.016747167
0.010734908
-0.019645617
0.010246463
-0.023003059
0.0097398814
-0.026889667
0.0092243304
-0.031376461
0.0087115783
-0.036541047
0.0082133991
-0.042473505
0.0077359493
-0.04929133
0.007282383
-0.057132802
0.0068552739
-0.066125041
0.0064513458
-0.076427405
0.0060601567
-0.088198249
0.005658122
-0.1015482
0.0052141036
-0.11630779
0.0046517251
-0.13206772
0.0039702948
-0.14809975
0.0033842611
-0.16549101
0.002951541
-0.18649313
0.0025834579
-0.21075731
0.0022570227
-0.23833924
0.0019661828
-0.26960732
0.0017006246
-0.30508031
0.0014537382
-0.3453429
0.001218626
-0.39090785
0.000998209
-0.44263216
0.00079153239
-0.50134811
0.00059411893
-0.56812407
0.00040111685
-0.64393485
0.00020609076
-0.73022748
-0.82818453
0.012778405
-0.013904571
-0.01312005
0.012379996
-0.01634884
0.011938119
-0.019203823
0.01146082
-0.022525843
0.010954581
-0.026383507
0.010428399
-0.030850356
0.0098938639
-0.036006582
0.0093638607
-0.041943561
0.008846732
-0.048774245
0.0083455716
-0.056631669
0.0078653674
-0.065644856
0.0074040429
-0.075966102
0.0069513344
-0.087745579
0.0064783842
-0.1010753
0.0059495066
-0.11577898
0.0052786118
-0.13139692
0.0044879225
-0.14730918
0.0038421234
-0.16484532
0.0033583291
-0.18600941
0.0029413268
-0.21034036
0.0025702013
-0.2379682
0.0022387743
-0.26927599
0.0019360805
-0.30477772
0.0016546021
-0.34506151
0.0013866332
-0.39063988
0.001135556
-0.442381
0.00090037258
-0.50111287
0.00067569593
-0.56789952
0.00045626851
-0.64371559
0.00023437966
-0.73000571
-0.82795043
0.013933563
-0.013620908
-0.014217299
0.013591069
-0.016006421
0.013193872
-0.018806701
0.012748012
-0.022080057
0.012260167
-0.025895732
0.011739035
-0.03032929
0.011195852
-0.035463457
0.010643552
-0.041391308
0.010092183
-0.048222908
0.0095465128
-0.056086019
0.0090125639
-0.065110925
0.008489611
-0.075443176
0.007967524
-0.087223539
0.0074125793
-0.10052042
0.0067815905
-0.11514807
0.0059797515
-0.13059518
0.0050680866
-0.14639765
0.0043624502
-0.1641398
0.0038191342
-0.18546618
0.0033462564
-0.20986754
0.0029244305
-0.23754645
0.0025469236
-0.2688986
0.0022022262
-0.30443315
0.0018815999
-0.34474099
0.0015764858
-0.39033477
0.0012907977
-0.44209522
0.001023453
-0.50084545
0.00076794014
-0.56764413
0.00051863254
-0.64346646
0.00026627412
-0.72975349
-0.82768446
0.015101437
-0.013403746
-0.015318654
0.014825548
-0.01573059
0.014489318
-0.018470528
0.014094511
-0.021685306
0.013645276
-0.025446551
0.013148421
-0.029832484
0.012613696
-0.034928773
0.012053029
-0.040830674
0.011477182
-0.047647083
0.010892989
-0.055501842
0.010306936
-0.064524893
0.0097193503
-0.074855627
0.0091198942
-0.086624144
0.0084698393
-0.09987044
0.0077141243
-0.11439244
0.0067562638
-0.12963745
0.0057176555
-0.14535919
0.0049522836
-0.16337457
0.0043422456
-0.18485623
0.0038069862
-0.20933232
0.0033283972
-0.23706795
0.0028986484
-0.26846898
0.0025061276
-0.30404079
0.0021407265
-0.34437572
0.00179316
-0.38998721
0.0014679701
-0.44176992
0.0011639314
-0.50054133
0.0008731915
-0.56735354
0.00058986615
-0.64318333
0.00030267641
-0.72946646
-0.82738213
0.016272371
-0.013260329
-0.016415823
0.016072969
-0.01553122
0.015811694
-0.018209286
0.0154859
-0.021359545
0.015095637
-0.025056319
0.014644106
-0.029380982
0.014137997
-0.034422687
0.013586896
-0.040279591
0.01300087
-0.047061071
0.01238776
-0.054888748
0.011754108
-0.06389127
0.011100544
-0.074202113
0.01041563
-0.08593931
0.0096545884
-0.09910949
0.0087454667
-0.11348341
0.0076041522
-0.12849628
0.006444714
-0.14419992
0.0056185368
-0.16254856
0.0049344851
-0.18417228
0.0043293325
-0.20872721
0.003787126
-0.23652584
0.0032981889
-0.26798021
0.0028513897
-0.30359417
0.0024349797
-0.34395948
0.002039159
-0.3895914
0.0016691814
-0.44139981
0.0013235164
-0.50019558
0.00099274186
-0.56702292
0.00067083331
-0.64286163
0.00034395385
-0.72913975
-0.82703856
0.017442165
-0.013195505
-0.017507001
0.017326562
-0.015415625
0.017151537
-0.018034264
0.01690985
-0.021117864
0.016596825
-0.024743304
0.016211049
-0.028995215
0.015754765
-0.033966411
0.01523364
-0.039758475
0.014655191
-0.046482634
0.01402635
-0.05425993
0.013352543
-0.063217505
0.012633269
-0.073482909
0.011854018
-0.085160158
0.010961965
-0.098217543
0.0098625118
-0.11238407
0.0085149667
-0.1271489
0.0072609849
-0.14294613
0.0063675724
-0.16165534
0.0056032119
-0.18340803
0.0049207252
-0.20804475
0.0043079681
-0.23591317
0.0037524144
-0.26742485
0.0032441815
-0.30308616
0.0027696276
-0.34348512
0.0023189513
-0.38914073
0.0018981793
-0.44097889
0.0015052027
-0.4998025
0.0011288467
-0.56664672
0.00076311324
-0.64249611
0.00039091534
-0.72876774
-0.82664808
0.01862291
-0.013209573
-0.018608833
0.01859321
-0.015385914
0.018508712
-0.017949755
0.018359356
-0.020968499
0.018136238
-0.02452018
0.017832776
-0.02869175
0.017445568
-0.033579204
0.016974704
-0.039287619
0.016422965
-0.045930915
0.015793843
-0.053630844
0.015089396
-0.062513118
0.014305244
-0.072698846
0.013419725
-0.084274753
0.012370273
-0.097168211
0.011036275
-0.1110502
0.009477986
-0.1255908
0.0081739508
-0.14164232
0.0072056283
-0.16068722
0.0063551725
-0.18255768
0.0055881424
-0.20727774
0.0048975252
-0.23522265
0.0042673682
-0.26679492
0.0036898234
-0.30250889
0.0031491498
-0.34294469
0.0026363579
-0.38862795
0.0021582255
-0.44050058
0.0017116055
-0.49935576
0.0012835327
-0.56621881
0.00086806537
-0.64208087
0.00044419722
-0.72834409
-0.82620435
0.019824623
-0.013296047
-0.019738135
0.019877087
-0.015438364
0.019882081
-0.017954735
0.01982721
-0.020913615
0.019700227
-0.024393188
0.019489544
-0.028481065
0.01918562
-0.033275285
0.01878178
-0.038883795
0.018274032
-0.045423198
0.017659538
-0.053016403
0.0169337
-0.061787357
0.016083321
-0.071848571
0.01506989
-0.083261441
0.013827448
-0.095925893
0.012220719
-0.1094436
0.010492832
-0.12386311
0.0091857771
-0.14033553
0.0081385312
-0.15964019
0.0071959065
-0.18161516
0.0063387549
-0.20642059
0.0055628761
-0.23444687
0.0048500288
-0.26608236
0.0041946523
-0.30185384
0.003579079
-0.3423294
0.0029962521
-0.38804514
0.002453484
-0.43995761
0.0019460599
-0.4988482
0.0014594333
-0.56573234
0.00098747308
-0.64160914
0.00050474541
-0.72786161
-0.82570012
0.021057598
-0.013443252
-0.020910387
0.021180589
-0.01556135
0.021266814
-0.018040952
0.021301901
-0.020948697
0.021269425
-0.024360713
0.021153209
-0.028364857
0.020938001
-0.033060095
0.020610014
-0.038555839
0.020156925
-0.044970156
0.019566649
-0.052426194
0.018823825
-0.061044618
0.017900059
-0.070924904
0.016732908
-0.082094392
0.015226752
-0.094419846
0.013342249
-0.10755924
0.011572407
-0.12209348
0.010288074
-0.13905148
0.009169977
-0.15852232
0.008128377
-0.18057367
0.0071799853
-0.20547222
0.006310135
-0.23357717
0.0055065697
-0.26527913
0.0047641742
-0.30111185
0.0040644821
-0.34163003
0.0034032626
-0.38738394
0.0027879117
-0.43934204
0.002211721
-0.49827185
0.001659153
-0.56517991
0.0011230617
-0.64107327
0.00057344069
-0.72731227
-0.82512725
0.022321769
-0.013645692
-0.022119328
0.022504344
-0.015743928
0.022656419
-0.018193037
0.022763387
-0.021055681
0.022808523
-0.024405869
0.022773177
-0.028329537
0.022637364
-0.032924315
0.022380093
-0.038298612
0.021979062
-0.04456918
0.02140942
-0.051856619
0.020639903
-0.060275174
0.019616128
-0.069901198
0.018230792
-0.080709113
0.016393943
-0.09258307
0.014408313
-0.10557373
0.012796743
-0.12048212
0.011498644
-0.13775367
0.010279686
-0.15730361
0.0091658878
-0.17946003
0.0080995691
-0.20440596
0.0071345429
-0.23261234
0.006243121
-0.26438812
0.0054034536
-0.30027265
0.004610803
-0.34083773
0.0038625837
-0.38663574
0.0031659033
-0.43864513
0.002512165
-0.49761792
0.001885651
-0.56455348
0.0012768794
-0.6404647
0.00065141234
-0.72668714
-0.82447644
0.023508002
-0.013879265
-0.023274442
0.023729203
-0.015965145
0.0239271
-0.018390953
0.024085788
-0.021214391
0.024187495
-0.0245076
0.024211747
-0.028353818
0.024134737
-0.032847339
0.023928269
-0.038092184
0.02355801
-0.044198967
0.022980937
-0.051279594
0.022140698
-0.059434975
0.020949229
-0.06870975
0.019302678
-0.079062574
0.017286487
-0.090566911
0.015502485
-0.10378976
0.014077969
-0.11905774
0.012727816
-0.13640376
0.011483686
-0.15605976
0.010279332
-0.17825591
0.0091492527
-0.20327603
0.0080693657
-0.23153275
0.0070516571
-0.26337092
0.0061134411
-0.29933498
0.0052228899
-0.33994757
0.004378836
-0.38579172
0.0035914578
-0.43785751
0.0028506966
-0.49687695
0.0021415975
-0.56384441
0.0014509337
-0.6397742
0.00073975706
-0.72597636
-0.82373734
0.024438177
-0.014114648
-0.024202791
0.024661964
-0.016188932
0.024862683
-0.018591673
0.025027449
-0.021379162
0.025139076
-0.024619235
0.02517569
-0.028390443
0.02510953
-0.032781193
0.024903719
-0.037886393
0.02450881
-0.043804083
0.023857968
-0.050628778
0.02286697
-0.058443996
0.021474626
-0.06731741
0.019783724
-0.07737168
0.01816757
-0.088950738
0.016742086
-0.1023642
0.015391649
-0.11770728
0.014076941
-0.13508915
0.01276022
-0.15474327
0.011487111
-0.17698313
0.010247497
-0.20203672
0.0090750814
-0.23036077
0.0079713419
-0.26226777
0.0069064523
-0.29827072
0.0058958103
-0.33893737
0.0049560484
-0.38485204
0.0040687246
-0.43696993
0.0032308732
-0.49603884
0.0024295246
-0.56304301
0.0016473838
-0.6389922
0.00083974952
-0.72516921
-0.82289828
0.024286282
-0.014313323
-0.024087593
0.024472922
-0.016375561
0.024638919
-0.018757664
0.02477995
-0.021520193
0.024885608
-0.024724891
0.024925232
-0.028430058
0.024855473
-0.032711422
0.024628417
-0.037659328
0.024194651
-0.043370314
0.023503155
-0.04993728
0.022539992
-0.05748084
0.021379257
-0.06615668
0.020222174
-0.076214625
0.01913541
-0.087863981
0.017996533
-0.10122516
0.016736249
-0.1164468
0.015410653
-0.1337635
0.014090872
-0.15342361
0.012763597
-0.17565625
0.011465557
-0.20073911
0.010185864
-0.2290816
0.008943275
-0.26102586
0.0077744766
-0.2971026
0.0066533391
-0.33781676
0.005588771
-0.38378759
0.0046012664
-0.4359822
0.0036572237
-0.49509448
0.0027518231
-0.56213742
0.0018680177
-0.63810854
0.00095250387
-0.7242543
-0.82194649
0.023189847
-0.014557119
-0.022946018
0.023418925
-0.016604598
0.023611073
-0.01894976
0.023735493
-0.021644551
0.023766162
-0.024755491
0.023701909
-0.028365734
0.023542785
-0.032552217
0.023298143
-0.037414578
0.022984501
-0.043056525
0.022580943
-0.049533539
0.022100914
-0.057000673
0.021557299
-0.065612957
0.020940495
-0.075597751
0.020164907
-0.087088385
0.019182516
-0.1002426
0.01803434
-0.11529832
0.016785456
-0.13251456
0.015466501
-0.15210477
0.014102273
-0.17429235
0.012715889
-0.19935317
0.011350543
-0.22771675
0.010021507
-0.2596975
0.0087163589
-0.29579814
0.0074647018
-0.33656564
0.0062947402
-0.38261784
0.0051885617
-0.43487588
0.0041347262
-0.49404029
0.0031125387
-0.56111488
0.0021122986
-0.63710845
0.0010791141
-0.72322187
-0.82086812
0.02083394
-0.014861763
-0.020529276
0.021167691
-0.016938327
0.021531819
-0.019313865
0.021922283
-0.022034988
0.022311791
-0.025144967
0.022660458
-0.028714356
0.022911488
-0.032803193
0.022961019
-0.037464052
0.022793652
-0.042889079
0.022513815
-0.049253517
0.02225
-0.056736526
0.021967353
-0.06532993
0.021553049
-0.075183152
0.020959455
-0.086494559
0.020199262
-0.099482074
0.01923751
-0.11433595
0.018094827
-0.13137173
0.016831471
-0.15084175
0.015459783
-0.17292094
0.014040465
-0.1979342
0.012586258
-0.2262629
0.011130181
-0.25824185
0.0097249548
-0.29439346
0.0083575985
-0.3351988
0.0070557206
-0.38131633
0.005833919
-0.43365405
0.0046588125
-0.49286476
0.0035146354
-0.55997023
0.0023856345
-0.63597965
0.0012204114
-0.7220576
-0.81964848
0.019280501
-0.015103057
-0.019039194
0.019541352
-0.017199166
0.019822077
-0.01959458
0.020120565
-0.022333468
0.020441159
-0.025465557
0.02078452
-0.029057729
0.021178227
-0.033196932
0.021685961
-0.037971833
0.02218024
-0.043383435
0.022479479
-0.049552938
0.022441312
-0.056698574
0.022203155
-0.065091838
0.021927287
-0.074907099
0.021543619
-0.086110718
0.020979122
-0.098917174
0.020231644
-0.11358741
0.019270208
-0.13040915
0.018101643
-0.14967313
0.016771153
-0.17159085
0.015321538
-0.19648488
0.013820056
-0.22476151
0.012298313
-0.25672014
0.010777765
-0.29287305
0.0092976354
-0.33371898
0.0078871068
-0.37990633
0.0065392722
-0.4323064
0.0052350387
-0.49156007
0.0039549025
-0.55868949
0.0026839775
-0.63470908
0.0013764553
-0.72075123
-0.81827283
0.019040163
-0.015347495
-0.018795726
0.019303039
-0.017462043
0.019583866
-0.019875411
0.019882484
-0.022632091
0.020201711
-0.025784793
0.02053919
-0.029395222
0.020876391
-0.033534149
0.021188593
-0.038284057
0.021531264
-0.043726156
0.021988601
-0.050010391
0.022415877
-0.057126124
0.022493382
-0.065169828
0.022180923
-0.074595253
0.021820532
-0.085751084
0.021413197
-0.098510703
0.020855601
-0.11302971
0.020082209
-0.129634
0.019080968
-0.14867037
0.017886856
-0.17039647
0.016523486
-0.1951218
0.015011806
-0.22324982
0.013442219
-0.25515024
0.011852214
-0.29128258
0.010285338
-0.33215192
0.0087599943
-0.37838151
0.0072859017
-0.43083279
0.0058618144
-0.49013568
0.0044400613
-0.55726709
0.0030147277
-0.6332843
0.0015479621
-0.71928582
-0.81672573
0.018156097
-0.015576562
-0.017927052
0.018407618
-0.017713587
0.018681365
-0.020149185
0.018975969
-0.022926729
0.019287109
-0.026095974
0.019605901
-0.029714064
0.019918151
-0.033846465
0.020203186
-0.038569179
0.020455457
-0.043978533
0.020625943
-0.05018098
0.020837326
-0.057337536
0.021340551
-0.065673049
0.021742175
-0.074997136
0.021604953
-0.085614608
0.021346518
-0.098253585
0.021032837
-0.11271831
0.020513774
-0.12911547
0.019702303
-0.14785718
0.018646858
-0.16933926
0.017432347
-0.19390664
0.016055029
-0.22187265
0.014534293
-0.25362913
0.012909671
-0.28965705
0.011275977
-0.33051737
0.0096785738
-0.37678442
0.0080855405
-0.42924052
0.0065191381
-0.48856933
0.0049591496
-0.55570669
0.0033717161
-0.63169765
0.001733989
-0.71764955
-0.81499268
0.017796415
-0.015790757
-0.017582222
0.01803122
-0.017948392
0.018287471
-0.020405431
0.0185655
-0.023204745
0.018865603
-0.026396057
0.019188575
-0.030037003
0.019536677
-0.034194519
0.019913185
-0.038945618
0.02031169
-0.04437695
0.020718719
-0.050587913
0.021065892
-0.057684633
0.021178218
-0.065785349
0.021318421
-0.07513706
0.021474723
-0.08576968
0.021123526
-0.097902033
0.02072113
-0.11231782
0.020373508
-0.12877077
0.019846946
-0.14733214
0.019068966
-0.16856132
0.018053989
-0.19289113
0.016842255
-0.22066071
0.015461782
-0.25224877
0.013894051
-0.28808855
0.012248321
-0.32887038
0.010600717
-0.37513672
0.0089001539
-0.42754079
0.0072155951
-0.48688546
0.0055052997
-0.55399652
0.0037553934
-0.62994871
0.0019346433
-0.71583016
-0.81305912
0.016800634
-0.015991113
-0.01660026
0.017022542
-0.018170272
0.017266765
-0.020649611
0.017533631
-0.023471545
0.017822315
-0.026684645
0.018130126
-0.03034467
0.018451176
-0.034515358
0.01877604
-0.039270167
0.019095296
-0.044695741
0.019402992
-0.05089491
0.019708954
-0.05798955
0.020039749
-0.066114582
0.020307112
-0.075402344
0.020675334
-0.086135787
0.021000069
-0.098223503
0.020622315
-0.11193695
0.020080278
-0.12823071
0.019678086
-0.14693498
0.019163342
-0.16805289
0.018393287
-0.19212471
0.017389186
-0.21965746
0.016195672
-0.25105595
0.014771662
-0.28666458
0.01315577
-0.32725363
0.011493604
-0.37347411
0.0097279668
-0.42577581
0.0079110526
-0.48506995
0.0060641326
-0.55215045
0.0041526417
-0.62803814
0.0021449408
-0.71382347
-0.81091547
0.016330434
-0.016180565
-0.016140952
0.016540712
-0.01838051
0.01677353
-0.020882371
0.017030384
-0.023728321
0.017312704
-0.026966854
0.017621815
-0.030653628
0.017959386
-0.034852711
0.018327386
-0.039637855
0.018725056
-0.045092956
0.019143543
-0.051312728
0.019559826
-0.058404849
0.019942879
-0.066496243
0.020284667
-0.075742299
0.020435524
-0.086284924
0.020638026
-0.098426187
0.020949135
-0.11224793
0.020589867
-0.12786843
0.019874643
-0.1462164
0.019299503
-0.16748227
0.018679734
-0.19151169
0.017833618
-0.21881227
0.016744835
-0.24996747
0.015460033
-0.28538017
0.013952876
-0.32574659
0.012305941
-0.3718272
0.010508958
-0.42397927
0.0086132599
-0.48317587
0.0066237796
-0.55016246
0.0045514522
-0.62596643
0.0023586634
-0.71163118
-0.80855831
0.015135612
-0.016353619
-0.014962586
0.015328376
-0.018573305
0.01554218
-0.021096215
0.01577821
-0.023964409
0.016037171
-0.027225895
0.01631898
-0.030935556
0.016622362
-0.035156271
0.016944552
-0.039960323
0.017281177
-0.045430014
0.017629247
-0.051661478
0.017991849
-0.058768497
0.018372455
-0.066878351
0.018763026
-0.076134737
0.019199845
-0.086723079
0.019591895
-0.098817679
0.019999924
-0.11265534
0.020454161
-0.12832151
0.020302916
-0.14606307
0.019581055
-0.1667562
0.018858477
-0.19078774
0.01809479
-0.21805168
0.017164458
-0.24903756
0.01601918
-0.28423513
0.014599917
-0.32432832
0.012993265
-0.37022185
0.011219037
-0.42220572
0.0092426196
-0.48120059
0.0071461138
-0.54806766
0.0049347665
-0.6237554
0.002571192
-0.70926782
-0.80598853
0.014617715
-0.016510667
-0.014460624
0.014792762
-0.018748312
0.014987429
-0.021290843
0.015203247
-0.024180187
0.015441664
-0.027464277
0.015703967
-0.031197831
0.015991122
-0.035443414
0.01630349
-0.040272709
0.016641219
-0.045767798
0.017001794
-0.052022162
0.017375373
-0.059142301
0.017747795
-0.067251239
0.018102441
-0.076490166
0.01838834
-0.08701008
0.018577759
-0.099007782
0.018680405
-0.11275715
0.018994995
-0.12863707
0.019548429
-0.14661941
0.019601047
-0.16680207
0.018935526
-0.19011588
0.018141402
-0.21725869
0.017308418
-0.24820802
0.01635081
-0.28327919
0.015138307
-0.32311822
0.01353347
-0.36861925
0.01176636
-0.4204403
0.0098039766
-0.47923899
0.0076212468
-0.54588649
0.0052697142
-0.62140444
0.0027569923
-0.70675555
-0.80323231
0.013395756
-0.016652339
-0.013253917
0.013554562
-0.018906943
0.013731932
-0.021468026
0.013929527
-0.024377584
0.014148832
-0.027683376
0.014391013
-0.031439801
0.014656666
-0.035708858
0.014945181
-0.040561025
0.015255477
-0.046077933
0.01558654
-0.052353145
0.015936312
-0.0594921
0.016302279
-0.067617337
0.016682396
-0.076870555
0.017097136
-0.087425254
0.017555636
-0.099467015
0.017961051
-0.11316317
0.018058152
-0.12873268
0.018116282
-0.14667525
0.018535105
-0.16722205
0.018676464
-0.19025479
0.018084467
-0.21666418
0.017304964
-0.24743051
0.016470665
-0.28244869
0.015418087
-0.3220682
0.013909552
-0.36711251
0.012156004
-0.41868903
0.010179161
-0.4772635
0.0079632313
-0.54367253
0.0055408267
-0.61898355
0.0029140732
-0.70412948
-0.80031788
0.012967198
-0.016774661
-0.01284474
0.013103904
-0.019043487
0.013256007
-0.021619945
0.01342455
-0.024545919
0.013610587
-0.027869182
0.013815275
-0.031644233
0.014040058
-0.035933364
0.014287147
-0.04080782
0.014558508
-0.046348991
0.014855673
-0.052650013
0.015181608
-0.059817771
0.015538756
-0.067974302
0.015925385
-0.077257135
0.016315177
-0.08781515
0.01667437
-0.099826356
0.017032802
-0.11352196
0.017436316
-0.129137
0.017627152
-0.14686564
0.017590145
-0.16718357
0.017819524
-0.19048439
0.01777093
-0.21661123
0.017056782
-0.24671402
0.016219514
-0.28161392
0.015266321
-0.32111719
0.013964268
-0.36581091
0.012241369
-0.41696643
0.010305778
-0.47532975
0.0081457083
-0.54151518
0.0057041572
-0.6165434
0.0030104787
-0.70143579
-0.79730647
0.011676521
-0.016875458
-0.011575799
0.011789873
-0.019156924
0.011917142
-0.021747309
0.012059739
-0.024688621
0.012219115
-0.028028676
0.012396636
-0.031821881
0.01259334
-0.036130205
0.012809596
-0.041024219
0.013044786
-0.046584326
0.01329683
-0.052902191
0.013561348
-0.060082397
0.013831925
-0.068244924
0.014105279
-0.077530424
0.014387216
-0.088096891
0.014689871
-0.10012872
0.01499685
-0.11382847
0.015292279
-0.12943193
0.015649794
-0.14722315
0.015832096
-0.16736432
0.015786647
-0.19043724
0.016067078
-0.21689479
0.016066916
-0.24671328
0.015359951
-0.28090745
0.014420677
-0.3201784
0.013380227
-0.36476971
0.011951455
-0.41553649
0.010130938
-0.47350967
0.0080576075
-0.53944361
0.0056929622
-0.61417833
0.003022914
-0.69876475
-0.79428353
0.011192499
-0.016948185
-0.01111988
0.011273972
-0.019238524
0.011365444
-0.021838931
0.011468095
-0.024791447
0.011583192
-0.028143974
0.011712088
-0.031951013
0.011856242
-0.036274628
0.012017216
-0.0411855
0.0121967
-0.046764153
0.012396515
-0.053102381
0.01261846
-0.060304736
0.012863034
-0.068489878
0.01312439
-0.077792123
0.013393534
-0.08836632
0.013656949
-0.10039233
0.013888194
-0.11405984
0.014042966
-0.12958668
0.014090381
-0.14727055
0.01417666
-0.16745192
0.014203297
-0.19046465
0.014094366
-0.21678711
0.013965047
-0.24658697
0.013675725
-0.2806168
0.013017323
-0.31951979
0.012200723
-0.36395254
0.011081866
-0.41441726
0.0095481963
-0.47197716
0.0076687699
-0.53756405
0.0054670405
-0.61197441
0.0029182428
-0.69621454
-0.79136684
0.010365978
-0.017005254
-0.010308898
0.010430389
-0.019302924
0.010502824
-0.021911357
0.010584022
-0.024872641
0.010674736
-0.02823469
0.010775683
-0.032051971
0.010887448
-0.036386418
0.011010331
-0.041308426
0.011144124
-0.046898014
0.01128786
-0.053246218
0.011439642
-0.060456669
0.011596854
-0.068647317
0.011755071
-0.07795066
0.011906215
-0.088517876
0.012044318
-0.10053097
0.012184399
-0.11420064
0.012365942
-0.12976923
0.012580184
-0.14748597
0.012779588
-0.16765235
0.012872598
-0.190559
0.012694713
-0.21660843
0.012536636
-0.2464271
0.012257832
-0.28033739
0.011595469
-0.31885532
0.010741642
-0.36309922
0.0097772242
-0.41345486
0.0085252802
-0.47072713
0.0068823901
-0.53592015
0.0049274761
-0.61001737
0.0026559123
-0.69394178
-0.78871318
0.0099291444
-0.017032521
-0.0099020015
0.0099591249
-0.019333044
0.009991781
-0.021944172
0.010027217
-0.024908256
0.010065451
-0.028273129
0.010106389
-0.032093138
0.010149798
-0.036430086
0.010195333
-0.04135425
0.010242608
-0.04694561
0.010291342
-0.053295309
0.010341555
-0.060507274
0.01039417
-0.06870036
0.01045507
-0.078012024
0.010533787
-0.088597085
0.010627147
-0.10062485
0.010718359
-0.11429237
0.010777722
-0.12982904
0.010790835
-0.14749937
0.010748727
-0.16761025
0.010711569
-0.1905215
0.010742381
-0.21663929
0.010705256
-0.24639009
0.010551011
-0.28018348
0.010241115
-0.31854513
0.0094675025
-0.36232367
0.0084731199
-0.41245963
0.0073281054
-0.46958056
0.0059556516
-0.53454495
0.0042742377
-0.60833589
0.0022958322
-0.69196389
-0.78641867
0.0095752027
-0.0095703984
0.0095807268
0.0095875328
0.0095959277
0.0096062789
0.0096190147
0.0096346169
0.0096535937
0.009676407
0.0097033148
0.0097340957
0.0097675628
0.0098002861
0.0098290573
0.0098503398
0.009863184
0.0098650195
0.009849682
0.0098048842
0.009701591
0.0094981161
0.0091650945
0.0087457018
0.0083395121
0.0079128723
0.0072571041
0.0063402114
0.0051640038
0.0037207285
0.0020002128
0.011477068
-0.011230531
0.0088085587
-0.0090551435
0.013291745
-0.014516213
0.012701482
0.01464177
-0.017804843
0.016454766
0.015715869
-0.021428711
0.02035453
0.016649323
-0.025571163
0.024637604
0.017505846
-0.030352531
0.0294959
0.018296055
-0.03584542
0.035055086
0.019038715
-0.042122021
0.041379217
0.019735188
-0.049331988
0.048635357
0.020362773
-0.057588615
0.056960856
0.020903257
-0.067020891
0.066480226
0.021345957
-0.077786448
0.07734358
0.021682115
-0.090063676
0.089727386
0.021900127
-0.10402906
0.10381097
0.021982665
-0.11985909
0.1197765
0.021868651
-0.13757841
0.13769237
0.021494025
-0.15699031
0.15736484
0.020755031
-0.17761122
0.17835012
0.019579969
-0.19825126
0.19942627
0.018326991
-0.21995626
0.22120916
0.017192207
-0.24588929
0.247024
0.016056606
-0.27624282
0.27737843
0.014865084
-0.3110451
0.31223669
0.013586296
-0.35082515
0.35210399
0.012191742
-0.39603758
0.39743208
0.010661266
-0.44732753
0.44885791
0.0089733263
-0.50563538
0.50732326
0.0071021228
-0.57204513
0.57391634
0.0050120024
-0.64763197
0.64972187
0.0026602118
-0.73388422
0.73623575
-0.83206946
0.83472957
0.012743511
-0.01274856
-0.011225532
0.013768157
-0.015540907
0.014605788
-0.018642544
0.015381336
-0.022204354
0.016145731
-0.026335663
0.016899402
-0.031106319
0.017625129
-0.036571277
0.018315747
-0.042812785
0.018953428
-0.049969834
0.019516715
-0.058152084
0.019994944
-0.067499306
0.020381167
-0.078172843
0.020667751
-0.090350392
0.020843409
-0.1042048
0.020890232
-0.11990597
0.020739604
-0.13742785
0.020335402
-0.15658622
0.019566226
-0.17684213
0.018392583
-0.19707764
0.017211614
-0.21877543
0.016147803
-0.24482555
0.015074839
-0.27516984
0.01394841
-0.3099186
0.012740608
-0.34961729
0.011425437
-0.39472245
0.0099850171
-0.4458872
0.0083993083
-0.50404973
0.0066445171
-0.57029033
0.0046869097
-0.64567459
0.0024871153
-0.73168469
-0.82958247
0.012357177
-0.013576248
-0.011529544
0.013083328
-0.016267126
0.013817611
-0.019376903
0.014579829
-0.022966663
0.015345922
-0.027101864
0.016085664
-0.031846182
0.016782725
-0.03726847
0.017432873
-0.043463083
0.01801812
-0.050555249
0.018527706
-0.058661852
0.018954794
-0.067926583
0.019294396
-0.078512614
0.019539722
-0.090595846
0.019680016
-0.10434517
0.019696056
-0.11992207
0.019516574
-0.13724843
0.019092919
-0.15616267
0.018300607
-0.17604989
0.017148384
-0.19592544
0.016048585
-0.21767574
0.015053061
-0.2438301
0.014042985
-0.27415976
0.012983945
-0.30885949
0.0118504
-0.3484837
0.01061865
-0.39349075
0.0092729373
-0.44454158
0.0077948301
-0.50257166
0.0061624974
-0.568658
0.0043445348
-0.64385687
0.0023042265
-0.72964464
-0.82727845
0.011467568
-0.014315378
-0.010728509
0.012231219
-0.017030857
0.01300408
-0.020149849
0.01376836
-0.023731038
0.014507443
-0.027841055
0.015206921
-0.032545781
0.015858342
-0.037920026
0.016456079
-0.044060971
0.016986686
-0.051086025
0.017442923
-0.059118275
0.017820299
-0.068304147
0.018115177
-0.07880766
0.018321285
-0.090802079
0.018427828
-0.10445179
0.018409736
-0.11990403
0.018205215
-0.13704397
0.017771145
-0.1557287
0.016963965
-0.17524277
0.0158467
-0.19480819
0.014827574
-0.21665672
0.013899395
-0.24290201
0.01295513
-0.27321548
0.011967327
-0.30787163
0.010912436
-0.34742875
0.0097690462
-0.3923474
0.0085235739
-0.44329619
0.007159187
-0.50120731
0.0056560477
-0.56715487
0.0039851479
-0.64218622
0.0021126553
-0.72777241
-0.82516608
0.010562911
-0.015104515
-0.0097738765
0.011347185
-0.01781522
0.01211605
-0.020918807
0.012860973
-0.02447606
0.013570191
-0.02855038
0.014232057
-0.033207767
0.014839426
-0.038527529
0.015386192
-0.04460789
0.015864033
-0.051564039
0.016269015
-0.059523445
0.01659886
-0.068634181
0.016851136
-0.079060103
0.017020015
-0.090971081
0.01709447
-0.10452633
0.017044175
-0.1198538
0.016820584
-0.13682043
0.016378282
-0.15528649
0.015562193
-0.17442674
0.014492445
-0.19373848
0.013555754
-0.21572017
0.012695823
-0.24204217
0.011819971
-0.27233963
0.010906558
-0.30695815
0.0099339405
-0.34645608
0.0088829993
-0.39129649
0.0077423289
-0.4421556
0.0064967235
-0.49996173
0.005128401
-0.56578657
0.0036108225
-0.6406689
0.001913201
-0.72607505
-0.82325318
0.0096229056
-0.0159082
-0.0088193074
0.010406609
-0.018599009
0.011163943
-0.02167623
0.011885575
-0.025197788
0.012560135
-0.029225047
0.013179239
-0.033826989
0.013738069
-0.039086494
0.014232344
-0.045102318
0.014657816
-0.051989685
0.015013007
-0.059878826
0.015297196
-0.06891856
0.015508845
-0.079271918
0.015642564
-0.09110492
0.015687404
-0.10457125
0.015609564
-0.11977603
0.015375057
-0.13658598
0.014924363
-0.15483587
0.014102673
-0.1736051
0.013092514
-0.19272839
0.012237892
-0.21486568
0.011446326
-0.24125071
0.010641005
-0.27153431
0.0098048103
-0.30612189
0.0089178139
-0.34556904
0.0079631486
-0.39034186
0.0069315821
-0.44112411
0.005809539
-0.49883971
0.0045813241
-0.56455838
0.0032229259
-0.63931077
0.0017066587
-0.72455904
-0.82154684
0.0086497239
-0.016719837
-0.007838151
0.0094282966
-0.019377662
0.010165675
-0.022413692
0.010853627
-0.025885832
0.011485099
-0.02985662
0.012055431
-0.034397437
0.01256188
-0.039593077
0.013002517
-0.045543109
0.013376001
-0.052363343
0.013682593
-0.060185608
0.013922706
-0.069158862
0.014095488
-0.079444864
0.01419617
-0.091205722
0.014214546
-0.10458971
0.01411595
-0.1196775
0.013876705
-0.13634676
0.013416311
-0.15437554
0.012593755
-0.17278261
0.011653246
-0.19178798
0.01087924
-0.21409184
0.010156555