/*--------------------------------*- C++ -*----------------------------------*\
| =========                 |                                                 |
| \\      /  F ield         | OpenFOAM: The Open Source CFD Toolbox           |
|  \\    /   O peration     | Version:  2406                                  |
|   \\  /    A nd           | Website:  www.openfoam.com                      |
|    \\/     M anipulation  |                                                 |
\*---------------------------------------------------------------------------*/
FoamFile
{
    version     2.0;
    format      ascii;
    arch        "LSB;label=32;scalar=64";
    class       volScalarField;
    location    "0.032";
    object      nut;
}
// * * * * * * * * * * * * * * * * * * * * * * * * * * * * * * * * * * * * * //

dimensions      [0 2 -1 0 0 0 0];

internalField   nonuniform List<scalar> 
8260
(
0.03341155
0.037917977
0.043204492
0.049182846
0.055711882
0.06264062
0.069781013
0.076881539
0.083602887
0.089461679
0.093774025
0.095594627
0.093638942
0.086298944
0.071872849
0.049743489
0.026225363
0.012429457
0.0081481517
0.0067126771
0.0059205968
0.0053714324
0.0049778937
0.0046918081
0.0044899848
0.0043566894
0.0042678386
0.004205116
0.0041593438
0.0041286222
0.0041117645
0.039496558
0.044130878
0.049220009
0.054825659
0.060906444
0.067348391
0.073974374
0.080532571
0.086678113
0.091920487
0.095551969
0.096608346
0.093789098
0.085493402
0.070064949
0.047359704
0.023971332
0.011687725
0.0078999933
0.0066132675
0.0058589517
0.0053342621
0.0049556322
0.0046782548
0.0044825247
0.0043522533
0.0042653046
0.0042035497
0.0041583644
0.0041279538
0.0041113113
0.046481969
0.050939589
0.055777149
0.061025474
0.066657317
0.072581301
0.078635933
0.08457643
0.090054409
0.094569793
0.097401868
0.097566271
0.093747229
0.08435814
0.067818753
0.044475226
0.021771917
0.010933597
0.0077456401
0.0065582294
0.0058242342
0.005313421
0.0049432159
0.0046706683
0.0044783827
0.0043496936
0.0042637334
0.0042024522
0.0041575995
0.0041273441
0.0041108146
0.054449006
0.058545838
0.063013731
0.067832723
0.072962119
0.078311139
0.083723672
0.088958747
0.09366463
0.097331785
0.099229059
0.098354242
0.093379109
0.082741278
0.064979907
0.041026782
0.019502988
0.010275004
0.0075851533
0.0064716185
0.005765419
0.0052772332
0.0049212257
0.0046569807
0.0044708141
0.0043450407
0.0042609995
0.0042007021
0.0041564677
0.0041265349
0.0041102503
0.063391834
0.066990522
0.070983967
0.075276262
0.079815111
0.084502866
0.089180211
0.093603592
0.097415102
0.10009545
0.1009029
0.098820321
0.092512507
0.080455507
0.061367662
0.036948937
0.017231352
0.0096389784
0.0074221833
0.0063925942
0.005713367
0.0052459614
0.0049024185
0.0046454278
0.0044644731
0.0043411547
0.004258653
0.0041991104
0.0041553852
0.004125701
0.004109609
0.073140639
0.07618358
0.079606706
0.083272824
0.087120076
0.091042337
0.094872781
0.098360283
0.10113725
0.10267317
0.10221563
0.098735558
0.090900328
0.077245316
0.05675605
0.032213422
0.015180829
0.0090489278
0.0072548387
0.0062958212
0.005646463
0.0052046966
0.0048769955
0.004629587
0.0044556192
0.0043357253
0.0042554295
0.0041969991
0.0041539976
0.0041246808
0.0041088793
0.083391409
0.085844513
0.088623711
0.091576489
0.094633305
0.097679931
0.10054059
0.10295399
0.10454057
0.10475733
0.1028414
0.097755956
0.088187657
0.072761996
0.05087372
0.026895718
0.013238218
0.0085155657
0.0070852551
0.0061989522
0.0055810551
0.0051647686
0.0048523953
0.0046144231
0.0044471334
0.0043305286
0.0042523066
0.004194876
0.0041525625
0.0041235777
0.0041080502
0.093644462
0.095481766
0.097558636
0.099723651
0.10189912
0.10396206
0.10572678
0.10692054
0.10715082
0.10586197
0.10228209
0.095373078
0.083871532
0.066539194
0.04343853
0.021284718
0.011458291
0.0081072193
0.0069117758
0.0060894012
0.005505411
0.0051169575
0.0048222798
0.0045957271
0.0044364333
0.0043239503
0.0042483889
0.0041922553
0.0041508249
0.0041222697
0.0041071092
0.10310545
0.10430524
0.10563138
0.10694491
0.10815806
0.10913713
0.10968486
0.10951573
0.1082239
0.10524244
0.099794193
0.09084941
0.077253379
0.057983644
0.034309753
0.016717371
0.0099750069
0.0077466731
0.006732197
0.0059792272
0.0054314567
0.0050688379
0.0047920545
0.0045771479
0.0044256905
0.004317298
0.0042443914
0.0041895027
0.0041489676
0.0041208237
0.0041060426
0.11053017
0.11108248
0.11162026
0.11203165
0.11221633
0.11202747
0.11125354
0.10959431
0.1066311
0.10179003
0.094296961
0.083142836
0.067393402
0.046451167
0.023987031
0.013063642
0.008834196
0.0074517274
0.0065503827
0.0058623667
0.0053516596
0.0050134351
0.0047571375
0.0045555535
0.0044128525
0.0043092696
0.00423957
0.0041862039
0.0041467765
0.0041191307
0.0041048333
0.11404917
0.11395577
0.11369047
0.11317275
0.11228781
0.11087399
0.10870331
0.10546026
0.10071761
0.093906518
0.08427634
0.070843584
0.053165686
0.031607299
0.016560322
0.01043341
0.0081897457
0.0071635254
0.0063637229
0.0057499515
0.005274984
0.0049575371
0.0047222215
0.0045339079
0.0043998158
0.004301014
0.0042345163
0.0041826458
0.0041443954
0.0041172369
0.0041034588
0.11092005
0.11017114
0.10912158
0.10769197
0.10574797
0.10310794
0.099525425
0.094674082
0.088134381
0.079378076
0.067742662
0.052181938
0.033681491
0.019319582
0.011854419
0.0087358102
0.0077575129
0.006899947
0.0061927925
0.0056334589
0.0051957166
0.0048985882
0.0046835742
0.0045092517
0.0043846745
0.0042914485
0.0042285449
0.0041784395
0.0041416202
0.0041150391
0.0041015186
0.097263744
0.09596213
0.094209183
0.091928685
0.088978673
0.085164662
0.080223624
0.073844302
0.065678246
0.055369074
0.042859223
0.030583012
0.019711177
0.01245092
0.0091238248
0.0080451079
0.0072941505
0.0066311298
0.0060118514
0.0055273754
0.0051166669
0.0048432198
0.0046460992
0.0044841078
0.0043691454
0.0042818344
0.0042222678
0.0041738806
0.0041385653
0.0041125834
0.0040992896
0.06854774
0.066736273
0.064518745
0.06192182
0.058821266
0.055062448
0.050483344
0.045028211
0.03868055
0.031516979
0.023968852
0.016958507
0.011935221
0.0091626476
0.0079851084
0.0073988168
0.0068876551
0.0063371459
0.005837643
0.0054116977
0.0050528011
0.0047895592
0.0046046838
0.0044559544
0.0043514343
0.0042711533
0.0042151354
0.0041686423
0.0041350089
0.0041097847
0.0040968171
0.038624337
0.037463635
0.036029905
0.034320015
0.032214008
0.029658435
0.026820098
0.023670837
0.020235249
0.016635952
0.013142865
0.010302979
0.0086003638
0.007793055
0.0074877556
0.0069903244
0.0064568478
0.0060689102
0.0056399393
0.0053095139
0.0049806323
0.0047365584
0.0045699564
0.0044295277
0.004333135
0.0042603674
0.0042080419
0.0041630832
0.0041310691
0.0041067102
0.0040941689
0.019100594
0.018688629
0.018077472
0.017299842
0.016329046
0.015167122
0.013874349
0.01248148
0.011032393
0.0096648071
0.0084432558
0.0076444061
0.0072459631
0.0072697312
0.0067403654
0.0063036065
0.0060594213
0.005718505
0.0054372706
0.005172826
0.004909253
0.0046891101
0.0045340493
0.004401561
0.0043142897
0.0042487508
0.0042000215
0.0041568299
0.0041265924
0.0041032743
0.0040914533
0.010120627
0.010021115
0.009816269
0.0095308275
0.0091782904
0.0087740637
0.0083452788
0.0078901992
0.0073776287
0.0070030924
0.0067962706
0.0066825025
0.0068254112
0.006449028
0.0061716264
0.0060453114
0.0057309967
0.0055012905
0.0052488934
0.0050477956
0.0048145067
0.0046343942
0.0045043849
0.0043786477
0.0042961946
0.0042368942
0.0041920254
0.0041504834
0.004121685
0.0040995256
0.0040880134
0.0068369319
0.0068100316
0.0067462302
0.0066591115
0.0065573994
0.0064398112
0.0063417913
0.0062642384
0.0062250045
0.006207252
0.0062277302
0.006204672
0.0058893334
0.0058571276
0.0057002102
0.0054907316
0.0054113745
0.0051842848
0.0050430498
0.004869801
0.0047184572
0.0045838563
0.0044649794
0.0043524569
0.0042791524
0.0042253471
0.0041820575
0.0041434848
0.0041163352
0.0040953203
0.0040844959
0.0057609596
0.0057228493
0.0056949285
0.005678207
0.0056755817
0.0056772062
0.0057095031
0.0056848582
0.0056556091
0.0056217205
0.0055202068
0.0053868292
0.0054017963
0.005271552
0.0052589106
0.0051738707
0.0050326391
0.0049395904
0.0048247437
0.0047496327
0.0046121387
0.0045123305
0.004423549
0.004331348
0.0042623132
0.0042124487
0.0041722723
0.0041367268
0.0041104756
0.004090752
0.0040802938
0.0052931051
0.0052893473
0.0052830687
0.0052794757
0.0052895493
0.0053077799
0.0052983721
0.0052790978
0.0052448139
0.0051542354
0.0050952029
0.0050351729
0.0049778187
0.0049438433
0.0048809916
0.004830528
0.0048232877
0.0047678763
0.0046615313
0.0045723947
0.0045092067
0.0044562563
0.0043680151
0.0043038817
0.004245262
0.004198092
0.0041612866
0.0041287278
0.0041042585
0.0040857491
0.0040761535
0.0049445257
0.0049411749
0.0049346484
0.0049183864
0.0048909608
0.004853142
0.0048364158
0.0048304166
0.0048187536
0.0048096248
0.004811854
0.0048086548
0.0047284274
0.0047337905
0.0046812469
0.0046830378
0.0046245573
0.0045899835
0.0045365652
0.0044722343
0.0044230282
0.0043903745
0.004331824
0.0042671565
0.0042285458
0.0041828886
0.0041509222
0.0041207889
0.0040976601
0.0040803557
0.004071216
0.0046117709
0.0046116713
0.0046093919
0.0046043102
0.0045993604
0.0046018899
0.0046111857
0.004606266
0.0046007552
0.0045840883
0.0045634056
0.0045507294
0.0045595582
0.0045175542
0.0045147742
0.0044486031
0.0044547283
0.004417124
0.0044106095
0.0043790347
0.004322935
0.0043312369
0.0042827437
0.0042387655
0.0042050952
0.0041668175
0.0041396554
0.0041115845
0.0040900295
0.0040746447
0.0040666454
0.0044334084
0.0044339718
0.0044325512
0.0044284802
0.0044220049
0.0044115164
0.0043934499
0.0043915913
0.0043890325
0.0043869726
0.0043861053
0.004390134
0.0044051883
0.0044010514
0.0043886145
0.0043533161
0.0043491689
0.0043320708
0.0043004929
0.0042856078
0.0042689541
0.0042410235
0.0042439906
0.0042136159
0.0041803486
0.004152926
0.0041261917
0.0041020442
0.0040822357
0.0040684754
0.0040611904
0.0042653906
0.0042666734
0.0042664645
0.0042653552
0.0042642622
0.0042646132
0.0042712737
0.0042766998
0.0042796341
0.0042812956
0.0042812285
0.0042782459
0.0042722433
0.0042862207
0.0042779219
0.0042799585
0.0042451632
0.004225124
0.0042378806
0.0042118767
0.0042119643
0.0041916585
0.0041828989
0.004179068
0.0041596975
0.0041332511
0.0041096669
0.0040906298
0.0040736844
0.0040622274
0.0040564088
0.0041788611
0.0041801505
0.004180273
0.0041796891
0.004178629
0.0041767411
0.0041730307
0.0041708091
0.0041712667
0.0041732581
0.0041765833
0.0041800535
0.0041819675
0.0041811448
0.0041887255
0.0041783459
0.0041825154
0.0041666624
0.0041609477
0.0041701314
0.0041721912
0.0041608276
0.0041409494
0.0041436554
0.0041276007
0.0041135261
0.0040924393
0.0040788495
0.0040656254
0.0040560963
0.0040512008
0.0041088195
0.0041096895
0.0041099787
0.004110055
0.0041103559
0.0041110596
0.004112169
0.0041143364
0.0041179098
0.0041221513
0.004126107
0.0041292294
0.0041289966
0.0041247902
0.0041201302
0.0041229997
0.0041212698
0.0041323293
0.0041243186
0.0041328682
0.0041339509
0.0041324386
0.0041158349
0.0041003447
0.0040944129
0.0040899012
0.0040758209
0.0040683904
0.0040579525
0.0040502679
0.0040456802
0.0040765242
0.0040773333
0.0040776538
0.0040776971
0.0040777097
0.0040777462
0.0040778021
0.0040781259
0.004078621
0.0040791239
0.0040794995
0.0040795578
0.0040804642
0.0040821154
0.0040843821
0.0040854567
0.0040879644
0.0040879605
0.0040892508
0.004088029
0.0040865784
0.0040837809
0.0040848362
0.0040775152
0.0040746792
0.0040700856
0.004066676
0.0040579241
0.0040506972
0.0040453271
0.004042117
0.0040557921
0.0040561394
0.0040563042
0.0040564251
0.0040566221
0.004056924
0.0040573355
0.0040578936
0.0040585714
0.0040593294
0.0040602331
0.0040614416
0.0040633349
0.0040652249
0.0040659568
0.0040662367
0.0040665377
0.004067901
0.0040679341
0.0040674609
0.0040664043
0.0040654244
0.0040649799
0.004063931
0.0040625891
0.0040596526
0.0040558951
0.004051063
0.0040463023
0.0040423445
0.0040402813
0.0040458735
0.0040460571
0.004046166
0.0040462847
0.0040464725
0.0040467399
0.0040470851
0.0040475273
0.0040480323
0.0040485928
0.0040492802
0.0040502893
0.0040518442
0.0040527636
0.0040531914
0.0040544761
0.0040565657
0.0040570185
0.0040582206
0.0040567392
0.0040568231
0.004057595
0.0040554529
0.0040549621
0.004054658
0.0040523481
0.0040499029
0.0040467717
0.0040434469
0.0040402248
0.0040369358
0.0040407585
0.0040409228
0.0040410618
0.0040412244
0.004041425
0.0040416634
0.004041931
0.004042145
0.0040423104
0.0040425025
0.004042792
0.0040436682
0.0040449935
0.0040455421
0.0040452603
0.0040452052
0.0040456529
0.0040463493
0.0040474449
0.0040485629
0.0040488688
0.0040490915
0.0040494516
0.0040484276
0.0040483993
0.0040475357
0.0040463064
0.0040444682
0.0040400128
0.0040368067
0.004036942
0.0040354588
0.0040355258
0.0040356452
0.0040358163
0.0040360479
0.004036352
0.0040367418
0.0040372334
0.0040378471
0.0040386068
0.0040395147
0.0040406564
0.0040417167
0.0040419718
0.0040417634
0.0040415599
0.0040415399
0.0040423474
0.0040425267
0.0040432701
0.004044409
0.0040428661
0.0040448427
0.0040447071
0.0040446235
0.0040442762
0.0040435305
0.0040412043
0.0040398886
0.0040392641
0.0040380253
0.00072207817
0.0015645455
0.0031411158
0.0055080863
0.0086453579
0.012631518
0.017543684
0.023426854
0.030384408
0.037928565
0.046197917
0.054821514
0.063143716
0.070139402
0.074268633
0.073350007
0.06469088
0.047348733
0.026981823
0.013181096
0.007792253
0.0061456379
0.0054266674
0.0049801808
0.0046729833
0.004472509
0.00433558
0.0042480674
0.0041879952
0.0041492583
0.0041286555
0.0017709247
0.003572387
0.0059619039
0.0088207385
0.012312094
0.016542655
0.021571422
0.027668063
0.034424293
0.041912814
0.050014025
0.058300711
0.066073619
0.072255403
0.075258274
0.072880661
0.062526717
0.043957133
0.023797338
0.0117098
0.0073748488
0.0060211364
0.0053722611
0.004948013
0.0046536353
0.0044617141
0.0043296567
0.0042448473
0.0041861997
0.0041482132
0.004128079
0.003289971
0.0052524101
0.0076731358
0.010703538
0.014464604
0.019036088
0.024507414
0.030788962
0.037728084
0.045325643
0.053355864
0.061365862
0.068625069
0.074014926
0.075911212
0.072112115
0.060173567
0.040697843
0.021317529
0.010732406
0.0070924267
0.005966769
0.0053470086
0.0049323748
0.0046438809
0.0044556328
0.0043261
0.0042427148
0.0041848688
0.0041473336
0.0041274939
0.0047943573
0.0069473984
0.009668859
0.013033567
0.017080167
0.021907779
0.02761019
0.033929082
0.040961349
0.0485746
0.05647809
0.06417965
0.070905689
0.075493289
0.076285314
0.07109452
0.057672892
0.037577754
0.019153687
0.009829899
0.0069222687
0.0058982708
0.0053079038
0.0049072276
0.0046282726
0.0044466681
0.0043211131
0.004239916
0.0041832425
0.0041463452
0.0041268727
0.0062630109
0.0087181132
0.011733972
0.015354169
0.019656774
0.024748391
0.030518248
0.036985808
0.044104172
0.051693989
0.05943249
0.066793061
0.072960462
0.076730073
0.076417402
0.069862382
0.055061187
0.034579696
0.017243041
0.0092288936
0.0067602035
0.0058488536
0.0052813667
0.0048903436
0.0046178452
0.0044403451
0.0043174777
0.0042377445
0.0041818793
0.0041454467
0.0041262111
0.0078238383
0.010534703
0.013783866
0.017634634
0.022223106
0.027494468
0.033411556
0.040005076
0.047169766
0.054698122
0.062238269
0.069228706
0.074814236
0.077752172
0.07633654
0.068441799
0.052378257
0.031712212
0.015571011
0.008642304
0.0066484683
0.0057976842
0.0052495826
0.0048694373
0.0046047363
0.0044326323
0.0043131422
0.0042352417
0.0041803641
0.0041444902
0.0041255279
0.0093404045
0.012293497
0.01579491
0.019926132
0.024739165
0.030173941
0.036262683
0.042961769
0.05014574
0.057585536
0.064901454
0.071498412
0.076483982
0.078581373
0.076068666
0.066867546
0.049662101
0.029018044
0.014145167
0.0082467011
0.0065464011
0.0057542593
0.0052241755
0.0048530046
0.004594531
0.0044264569
0.0043096104
0.0042331178
0.0041790057
0.0041435856
0.0041248381
0.010811243
0.01403214
0.017797586
0.022219311
0.02720908
0.032827571
0.039062108
0.045842569
0.053023718
0.060353488
0.067424822
0.073610707
0.077984225
0.079238155
0.075639535
0.065172146
0.046944895
0.026532942
0.012967811
0.0079053558
0.0064683314
0.0057122502
0.005197365
0.0048352069
0.0045832622
0.0044197003
0.0043057801
0.0042308514
0.0041775785
0.0041426531
0.0041241414
0.012280866
0.015754034
0.019788341
0.024433601
0.029626151
0.035424404
0.041790505
0.048635952
0.055796912
0.062999532
0.06981089
0.075573862
0.079329666
0.079744072
0.075080797
0.063389235
0.044281243
0.024286545
0.011999464
0.0076627146
0.0063969351
0.0056742502
0.005174195
0.0048200742
0.0045737289
0.0044138912
0.0043024532
0.0042288255
0.0041762508
0.0041417524
0.004123441
0.013706036
0.017434821
0.021740869
0.026580681
0.03198527
0.037955002
0.044438854
0.051334257
0.058460217
0.06552231
0.072063147
0.077397193
0.080536284
0.080122227
0.074426693
0.061563121
0.041697998
0.022294152
0.011236621
0.00747764
0.0063370276
0.0056383877
0.0051512635
0.0048048429
0.004563942
0.0044079271
0.0042990422
0.0042267583
0.0041749016
0.0041408406
0.0041227363
0.015117051
0.019094516
0.023634541
0.028678255
0.034285781
0.040411558
0.046998753
0.053930622
0.061009588
0.067921663
0.074186389
0.079091426
0.081621548
0.080397783
0.07370681
0.059729521
0.039230667
0.020562612
0.010598042
0.0073266606
0.0062815732
0.0056053436
0.0051307368
0.0047914115
0.0045552982
0.0044025984
0.0042959718
0.0042248538
0.0041736222
0.0041399502
0.0041220281
0.016488745
0.020716222
0.02546315
0.030721199
0.036516468
0.042783494
0.049461918
0.056418882
0.063441932
0.070198536
0.076186646
0.08066852
0.08260395
0.080600217
0.072951858
0.05792353
0.03691791
0.019089959
0.01010876
0.0072098836
0.0062328532
0.0055745789
0.0051110991
0.0047784699
0.0045468115
0.0043973349
0.0042929307
0.0042229604
0.0041723483
0.0041390584
0.0041213164
0.017837073
0.022291958
0.027241621
0.032700857
0.038658086
0.045061971
0.051820855
0.058793582
0.065754943
0.072354721
0.078070859
0.082141465
0.083504548
0.080751488
0.072190102
0.056181205
0.034787179
0.017861678
0.009724498
0.007113639
0.0061876529
0.0055462418
0.0050932618
0.004766895
0.004539177
0.0043925402
0.0042901422
0.0042211855
0.0041711291
0.0041381826
0.0041206017
0.019158703
0.023817431
0.028965835
0.034608463
0.040707323
0.047241442
0.054067775
0.061049422
0.067947129
0.074393929
0.079848112
0.083528151
0.08434311
0.080874126
0.07144919
0.054529128
0.032859753
0.016860412
0.0094493066
0.0070368743
0.0061471053
0.0055201717
0.0050765326
0.0047560557
0.0045319178
0.0043879215
0.0042874428
0.004219448
0.0041699306
0.0041373105
0.0041198841
0.02045866
0.025297462
0.030629511
0.036439703
0.042684376
0.049293207
0.056197964
0.063185181
0.070019872
0.076324183
0.08153099
0.084841138
0.085139519
0.08100083
0.07076886
0.052987883
0.031149658
0.01606881
0.009246246
0.0069734739
0.0061098438
0.0054963771
0.0050612935
0.0047463353
0.0045253778
0.0043836812
0.0042849477
0.0042178037
0.0041687794
0.0041364529
0.004119163
0.021720285
0.026730166
0.032227217
0.038185423
0.044556043
0.051262236
0.058188973
0.065193582
0.071973772
0.07814161
0.083121469
0.08608973
0.085915361
0.0811601
0.070184707
0.051583001
0.029665526
0.015475713
0.009095758
0.0069200424
0.006076346
0.0054747843
0.0050472335
0.0047374134
0.0045193306
0.004379671
0.0042825714
0.0042162101
0.0041676582
0.0041356042
0.0041184373
0.022885783
0.028069786
0.033725967
0.039822808
0.046306189
0.053096245
0.060066368
0.067044497
0.073771631
0.079838303
0.084619168
0.087287921
0.086689489
0.081378092
0.069729202
0.050367596
0.028444555
0.014977702
0.0089411686
0.0068716377
0.0060460763
0.0054553726
0.0050345228
0.0047294348
0.0045139399
0.0043759916
0.0042803712
0.0042146965
0.0041665799
0.0041347686
0.004117707
0.023936652
0.029257874
0.035053813
0.041279431
0.047875458
0.054751362
0.061778464
0.068769503
0.075446973
0.081394446
0.086019441
0.088445508
0.087478972
0.081678284
0.069430478
0.049388766
0.027466228
0.014563033
0.0088098155
0.0068308276
0.0060191697
0.0054380851
0.0050230381
0.0047222255
0.0045090937
0.004372571
0.0042783023
0.0042132418
0.0041655351
0.0041339434
0.0041169726
0.025043826
0.030425097
0.036293165
0.042600819
0.049276886
0.056223843
0.063304105
0.070321213
0.076984829
0.082867652
0.087354883
0.089551076
0.088295968
0.082080986
0.069312328
0.048678102
0.026712838
0.014216026
0.008689372
0.0067960164
0.0059954689
0.0054228995
0.0050128785
0.0047158326
0.0045048605
0.0043694615
0.0042763932
0.0042118624
0.0041645307
0.004133131
0.0041162345
0.0261376
0.031558941
0.037464777
0.043814541
0.050537113
0.057531822
0.064653536
0.071697907
0.078363352
0.08421075
0.088610084
0.090658552
0.089157321
0.082575176
0.069392968
0.048259252
0.026172863
0.013924156
0.0085823465
0.0067679494
0.0059751021
0.0054098049
0.0050040335
0.0047101813
0.0045011827
0.0043666343
0.0042746225
0.0042105495
0.0041635619
0.0041323298
0.0041154932
0.027200586
0.03263077
0.038543849
0.044905455
0.051646562
0.058669597
0.065821758
0.072895417
0.079578203
0.085420847
0.08977879
0.091736131
0.090069925
0.083239634
0.069686341
0.04815164
0.025844257
0.013670096
0.0084841246
0.0067463845
0.0059582627
0.005398862
0.0049966036
0.004705314
0.004498085
0.0043641194
0.0042730043
0.0042093118
0.004162631
0.0041315403
0.0041147488
0.028220678
0.033627205
0.039514589
0.045858512
0.052591012
0.059628419
0.066825478
0.073952574
0.080685581
0.086546065
0.090885662
0.092795181
0.091033134
0.084039326
0.07021582
0.048378901
0.025740065
0.013430783
0.0083924283
0.0067318815
0.0059452865
0.0053901425
0.0049906169
0.0047012144
0.0044955224
0.0043618981
0.0042715223
0.0042081414
0.0041617321
0.0041307596
0.004114002
0.029205691
0.034529797
0.040342644
0.046636933
0.053370637
0.060436173
0.067673767
0.074839182
0.081600258
0.08749998
0.091879457
0.093813061
0.092043148
0.084979507
0.070977606
0.048961431
0.025850911
0.013170086
0.0083089222
0.0067245276
0.005936321
0.0053835997
0.004986027
0.0046978533
0.0044934514
0.0043599584
0.0042701679
0.0042070348
0.0041608614
0.0041299864
0.0041132525
0.030155731
0.035306508
0.040953506
0.047119157
0.053781034
0.0608233
0.068074708
0.075292044
0.082135924
0.088130318
0.092608431
0.094632834
0.092928228
0.085878044
0.071781431
0.049669834
0.02619675
0.012826004
0.0082301779
0.0067240306
0.0059309484
0.005378855
0.0049825585
0.0046950788
0.004491754
0.0043582463
0.0042689133
0.0042059809
0.0041600138
0.0041292211
0.004112501
0.00074094952
0.001512501
0.0029964268
0.0052356518
0.0082163611
0.011961606
0.016596695
0.022212747
0.02894378
0.03632809
0.044505091
0.053122594
0.061558828
0.068843453
0.073481368
0.07332072
0.065609273
0.048970117
0.028423955
0.013642008
0.0079046449
0.0061769674
0.005441892
0.0049908853
0.0046802953
0.0044773096
0.0043384233
0.004249766
0.0041890432
0.0041499448
0.0041289592
0.00078600963
0.0015533546
0.00301283
0.0051882815
0.0080863703
0.011768789
0.016332255
0.021858167
0.028470839
0.035780083
0.043831626
0.052347354
0.060766795
0.068118989
0.072939476
0.073105873
0.065894192
0.049723514
0.029191839
0.013960186
0.0079740284
0.006193643
0.0054503935
0.0049976593
0.0046853493
0.004480313
0.0043402244
0.0042508764
0.0041897564
0.0041504666
0.0041292527
0.00084128358
0.00159807
0.0030369108
0.0051706901
0.0080108702
0.011617981
0.016084926
0.021497033
0.027961035
0.035164902
0.043113341
0.051553531
0.059946288
0.067360161
0.072360888
0.072858707
0.06615933
0.050487999
0.030008357
0.014319017
0.0080494131
0.0062126316
0.0054600239
0.0050047484
0.0046903158
0.0044840576
0.0043424801
0.0042522138
0.0041905764
0.0041509809
0.0041296476
0.00090770422
0.001647531
0.0030613238
0.0051523466
0.007933209
0.011463991
0.015834379
0.021134142
0.02744727
0.034539217
0.042379187
0.050737042
0.059097171
0.066566307
0.071744006
0.072576641
0.066400803
0.051261841
0.03087277
0.014717657
0.0081363414
0.0062298585
0.0054682859
0.0050121053
0.0046962318
0.0044870456
0.004344316
0.0042533761
0.0041913504
0.0041515786
0.0041300496
0.00098729192
0.0017048723
0.0030868473
0.005133372
0.0078545869
0.011308387
0.015581547
0.020761107
0.026929843
0.033904781
0.041630717
0.049898507
0.058220451
0.065737899
0.071088297
0.072257943
0.066616086
0.052047673
0.031783077
0.015159315
0.0082303271
0.0062546924
0.0054802467
0.0050200243
0.004701454
0.0044915158
0.0043470109
0.004254958
0.0041923084
0.0041521952
0.0041304314
0.0010835559
0.0017708615
0.0031200045
0.0051200047
0.0077797953
0.011154859
0.015329099
0.020386464
0.026410486
0.033263817
0.040870167
0.049041774
0.057318075
0.064876445
0.070394409
0.071902083
0.066798395
0.052838886
0.032731997
0.015644292
0.0083433643
0.0062733387
0.0054888744
0.0050282893
0.0047083355
0.0044957038
0.0043495785
0.0042564957
0.0041932706
0.004152852
0.0041307424
0.0012000651
0.0018558741
0.0031575628
0.005107335
0.0077047686
0.011000858
0.015076336
0.020014534
0.025890351
0.032619598
0.040100252
0.048169176
0.056391354
0.063982054
0.069660368
0.071504132
0.066932348
0.053612684
0.033714669
0.016178306
0.0084675179
0.0062970848
0.0054993006
0.0050367949
0.0047149092
0.0045001619
0.004352319
0.0042581279
0.0041942966
0.00415355
0.0041311382
0.0013431288
0.0019543885
0.0032093115
0.0051053719
0.0076388555
0.010855138
0.014831216
0.019649115
0.025378018
0.03197464
0.039324687
0.047283007
0.055439665
0.063052556
0.068880335
0.071053176
0.067026939
0.054375237
0.034763031
0.016766232
0.0086085025
0.0063225987
0.0055100157
0.0050454396
0.0047217697
0.0045049003
0.0043552442
0.0042598651
0.0041953826
0.0041542888
0.0041316709
0.0015170683
0.0020738655
0.003274462
0.0051136389
0.0075818762
0.01071778
0.01459417
0.019291883
0.024880205
0.031333879
0.038546593
0.046387009
0.054467794
0.062093408
0.068060319
0.070555181
0.067076775
0.055120339
0.035859403
0.01741257
0.008769009
0.0063503005
0.0055209431
0.0050545429
0.0047289882
0.0045099433
0.0043583547
0.0042616997
0.004196542
0.0041550698
0.0041323961
0.0017310543
0.0022270584
0.003362244
0.0051370746
0.0075369573
0.010591602
0.014368099
0.018944709
0.024382273
0.03069856
0.037769706
0.04548566
0.053490456
0.061108056
0.067201454
0.070008787
0.067077722
0.055847577
0.03699641
0.018122119
0.0089503522
0.006380507
0.0055322306
0.0050635224
0.004736406
0.0045152858
0.0043616655
0.0042636604
0.0041977665
0.0041558919
0.0041330796
0.0019871207
0.0024117988
0.0034698045
0.0051763431
0.0075061347
0.010479146
0.01415579
0.018610342
0.023898067
0.030071209
0.036998043
0.044582879
0.052497939
0.060099173
0.066305458
0.069413388
0.067025321
0.056545157
0.038171422
0.018901051
0.0091568609
0.0064136861
0.0055438175
0.0050732573
0.0047442953
0.004520985
0.0043651714
0.0042657169
0.0041990741
0.0041567623
0.0041337366
0.0022890851
0.002639574
0.0036169397
0.0052386032
0.0074928855
0.010383349
0.013960525
0.018293922
0.023441555
0.029461571
0.036237232
0.043683438
0.051495759
0.059070235
0.06537472
0.068769095
0.066916004
0.057197469
0.039347992
0.019747405
0.0093909601
0.0064509874
0.0055557574
0.005082389
0.0047521842
0.0045269522
0.0043688749
0.0042679332
0.0042004518
0.0041576752
0.0041344175
0.0026354058
0.0029118988
0.0037892234
0.0053260871
0.0075005534
0.010307438
0.01378599
0.017999974
0.023009881
0.028877857
0.035494501
0.042793269
0.050492397
0.058025118
0.064412313
0.06807683
0.066747254
0.057798481
0.040513963
0.020665611
0.0096565556
0.0064914927
0.0055685132
0.0050927055
0.0047607354
0.0045333304
0.0043727767
0.0042702322
0.0042019153
0.0041586457
0.0041351468
0.0030203796
0.0032302452
0.0040046408
0.0054471904
0.0075360066
0.010257109
0.013637417
0.017733348
0.022604731
0.028301712
0.034770899
0.041917978
0.049493341
0.056962597
0.063421852
0.067338466
0.066517581
0.058341458
0.041680456
0.021656177
0.0099594541
0.0065405801
0.005580914
0.0051018835
0.0047690603
0.0045398724
0.0043768469
0.0042727432
0.00420346
0.0041596525
0.0041359258
0.0034321043
0.0035915089
0.0042709736
0.0056079185
0.0076046004
0.010237753
0.013520338
0.017499998
0.022233363
0.02776433
0.034082162
0.041066511
0.048507384
0.055911097
0.062410649
0.066557198
0.066226378
0.058819764
0.042837102
0.022721501
0.01029994
0.0065900126
0.0055962654
0.0051124442
0.0047781318
0.0045468382
0.0043811285
0.0042753084
0.0042050761
0.0041607281
0.0041367464
0.0038605757
0.003987324
0.0045817188
0.0058152806
0.0077152902
0.01025813
0.013444029
0.01730799
0.021904781
0.027278627
0.033434194
0.040247458
0.047543185
0.054869813
0.061385488
0.065737468
0.065874268
0.059226051
0.043979435
0.023846625
0.010690336
0.0066598045
0.0056082465
0.0051219275
0.0047871541
0.004553861
0.0043855217
0.0042781501
0.0042068025
0.0041618219
0.0041376012
0.0042914767
0.0044136882
0.004951705
0.006091295
0.0078918298
0.010338743
0.013424425
0.017171778
0.021627654
0.026842228
0.032808309
0.039461909
0.046606757
0.053830698
0.060352095
0.064884917
0.065464256
0.059555929
0.045100545
0.025060254
0.011124423
0.00672717
0.0056285428
0.0051318242
0.0047962193
0.0045611109
0.0043901756
0.0042809925
0.004208553
0.0041630032
0.0041384854
0.0046996527
0.0048428948
0.005357715
0.0064272144
0.008139058
0.010491598
0.013475474
0.017105471
0.021415508
0.026469352
0.032255657
0.038749448
0.045714798
0.05281602
0.059319446
0.064006532
0.065001453
0.059814775
0.04620057
0.026355015
0.011623355
0.0068309417
0.0056403252
0.0051425065
0.0048066199
0.0045686005
0.004394855
0.00428416
0.0042104761
0.0041641727
0.0041393964
0.0050884518
0.0052775271
0.0058032707
0.0068356645
0.0084752766
0.010737018
0.013617048
0.017127256
0.021285012
0.026175955
0.031782892
0.038075515
0.04487074
0.051834731
0.058290321
0.063109164
0.064488945
0.060005993
0.047272046
0.027660405
0.012171623
0.0069257587
0.0056655184
0.0051504873
0.0048147298
0.0045755996
0.004399896
0.0042872401
0.0042123306
0.004165454
0.0041403316
0.0054989716
0.0057582952
0.0063279221
0.0073567281
0.0089347049
0.011107204
0.01387818
0.017260747
0.02125904
0.025977311
0.031392011
0.037463997
0.044081008
0.05089629
0.057287686
0.062202358
0.063931083
0.060121213
0.048281833
0.029006799
0.012787144
0.0070534763
0.005682161
0.0051633589
0.0048268507
0.0045836738
0.0044048224
0.004290646
0.0042144552
0.0041666839
0.0041412869
0.00601025
0.006348959
0.0069771206
0.0080176521
0.0095531399
0.011637127
0.014288438
0.017529977
0.021358888
0.025891385
0.031105166
0.036971872
0.043398277
0.050023555