/*--------------------------------*- C++ -*----------------------------------*\
| =========                 |                                                 |
| \\      /  F ield         | OpenFOAM: The Open Source CFD Toolbox           |
|  \\    /   O peration     | Version:  2406                                  |
|   \\  /    A nd           | Website:  www.openfoam.com                      |
|    \\/     M anipulation  |                                                 |
\*---------------------------------------------------------------------------*/
FoamFile
{
    version     2.0;
    format      ascii;
    arch        "LSB;label=32;scalar=64";
    class       volScalarField;
    location    "0.03";
    object      p;
}
// * * * * * * * * * * * * * * * * * * * * * * * * * * * * * * * * * * * * * //

dimensions      [1 -1 -2 0 0 0 0];

internalField   nonuniform List<scalar> 
2065
(
100228.41
100207.36
100176.07
100137.33
100089.75
100261.6
100224.52
100179.64
100115.39
100020.25
100262.92
100212.72
100146.32
100049.42
100235.56
100166.49
100068.31
100169.12
100077.04
99948.551
100042.63
99930.349
99859.969
99640.593
99407.388
99627.863
99693.711
99642.736
99515.641
99493.95
99402.368
99371.16
99360.254
99312.148
99299.674
99383.396
99319.071
99249.054
99223.583
99466.602
99369.955
99273.038
99226.549
99281.935
100220.23
100144.72
100074.54
100032.7
100012.54
100001.29
99998.289
100017.54
100025.62
100205.75
100152.07
100102.81
100073.12
100059.89
100055.26
100061.91
100081.04
100091.97
100166.38
100130.98
100109.33
100100.02
100101.44
100111.2
100130.27
100148.79
100162.4
100126.02
100109.25
100109.76
100119.09
100141.55
100169.4
100197.39
100218.56
100234.29
100097.42
100094.16
100105.29
100140.13
100185.77
100227.49
100263
100059.81
100030.11
100030.31
100027.17
100023.05
100021.65
100020.66
100097.81
100096.69
100093.66
100090.16
100089.24
100091.33
100168.4
100166.7
100165.32
100165.15
100166.28
100167.24
100241.7
100241.67
100242.8
100244.82
100247.47
100248.99
100970.55
100965.19
100960.51
100959.05
100958.63
100957.6
100802.22
100799.52
100796.77
100795.54
100795.77
100797.5
100617.95
100618.38
100618.88
100620.02
100621.17
100622.13
100422.89
100425.42
100429.3
100432.88
100434.67
100435.4
100216.22
100222.47
100228.59
100233.43
100235.83
100236.19
100006.74
100015.31
100023.63
100029.53
100032.4
100033.28
99794.214
99806.439
99817.108
99824.508
99828.339
99829.233
99594.187
99608.114
99620.701
99629.067
99633.529
99635.212
99406.947
99424.14
99438.857
99448.36
99453.535
99455.159
99246.582
99264.031
99281.007
99290.863
99296.227
99298.6
99116.643
99135.989
99152.47
99162.585
99168.274
99170.246
99020.963
99041.791
99058.159
99068.541
99074.991
99078.206
98965.121
98984.461
99000.935
99011.373
99019.797
99023.555
98971.12
98987.546
99000.929
99009.439
99016.302
99019.105
99019.867
99034.021
99044.39
99050.902
99055.311
99056.295
99087.232
99099.44
99107.884
99113.17
99116.374
99117.358
99169.212
99179.129
99185.793
99189.949
99192.044
99192.99
99264.247
99272.443
99278.438
99282.071
99284.484
99285.107
99372.34
99378.825
99383.357
99386.551
99388.583
99387.926
99487.94
99491.969
99494.041
99494.634
99494.471
99494.994
99608.467
99610.4
99611.768
99613.179
99614.551
99613.644
99727.628
99728.854
99728.385
99727.847
99727.526
99726.355
99841.762
99841.755
99841.023
99840.696
99840.271
99838.887
99948.841
99947.508
99945.676
99945.044
99943.668
99940.622
100866.77
100891.7
100921.29
100937.56
100939.4
100938.64
100951.3
100963.96
100969.5
100544.65
100606.39
100660.12
100698.65
100728.66
100746.03
100765.37
100783.66
100796.51
100232.88
100305.39
100375.74
100436.24
100492.07
100533.36
100565.78
100591.49
100608.99
99904.4
99985.733
100071.98
100156.08
100235.84
100298.5
100347.78
100385.14
100410.45
99553.584
99648.384
99759.978
99870.919
99973.845
100058.82
100123.09
100169.11
100200.25
99183.383
99303.686
99446.931
99588.041
99715.219
99816.127
99894.034
99949.179
99986.532
98817.538
98962.83
99146.457
99318.337
99466.887
99586.817
99672.221
99729.502
99771.324
98479.917
98654.311
98867.39
99063.277
99229.097
99359.226
99456.63
99522.739
99568.597
98177.223
98379.52
98620.266
98835.182
99015.581
99161.17
99262.632
99326.256
99377.808
97956.211
98167.934
98418.549
98643.23
98833.098
98983.099
99091.39
99161.726
99217.217
97728.105
97989.998
98261.955
98493.682
98689.615
98843.827
98955.629
99028.579
99085.647
97747.693
97942.546
98189.972
98401.595
98592.597
98737.701
98861.131
98940.6
98991.008
97764.52
97973.678
98208.616
98404.871
98587.592
98727.704
98827.167
98892.012
98937.767
97880.131
98080.409
98284.909
98473.343
98642.405
98767.175
98854.621
98907.855
98947.173
98095.139
98260.961
98433.783
98591.851
98727.118
98834.992
98914.423
98964.523
98998.678
98366.042
98490.117
98615.62
98731.506
98839.26
98928.614
98994.045
99038.966
99068.561
98682.268
98749.157
98820.754
98897.032
98972.289
99038.126
99091.661
99129.383
99153.688
99018.576
99031.767
99048.031
99077.15
99120.672
99166.265
99204.344
99232.983
99252.16
99336.776
99304.636
99276.025
99272.068
99284.558
99305.308
99329.785
99348.443
99362.048
99600.481
99544.266
99494.472
99462.755
99451.173
99452.941
99461.798
99471.674
99481.033
99809.713
99745.005
99677.979
99630.356
99604.885
99593.552
99593.117
99597.592
99603.558
99963.926
99905.78
99826.266
99766.574
99737.492
99723.167
99719.703
99720.482
99723.73
100074.15
100009.13
99929.285
99877.964
99850.475
99836.394
99832.948
99833.943
99837.637
100114.82
100057.73
100011.05
99968.746
99944.894
99931.785
99929.26
99936.397
99944.423
100038.12
100322.43
100479.5
100629.64
100749.86
100831.88
99541.392
99857.47
100026.54
100211.08
100366.06
100480.55
99023.637
99375.281
99551.362
99768.079
99963.301
100130.91
98504.957
98888.604
99079.785
99333.42
99566.499
99777.534
97991.927
98416.373
98624.056
98900.76
99150.192
99396.398
97529.301
97962.696
98182.737
98486.8
98745.108
99008.832
97062.098
97542.683
97776.096
98087.037
98337.729
98618.779
96718.142
97169.313
97391.674
97725.553
97984.755
98269.42
96336.566
96871.187
97092.056
97408.322
97661.759
97949.356
96184.38
96638.047
96805.433
97164.077
97441.045
97732.042
95957.777
96658.003
96776.581
97083.675
97268.51
97511.034
95889.641
96476.635
96675.084
97013.803
97242.251
97535.951
95681.548
96474.428
96693.134
97053.314
97300.993
97553.828
95748.02
96691.164
96866.504
97154.229
97406.353
97660.407
96277.783
97052.018
97167.83
97415.932
97660.946
97905.395
97104.419
97576.981
97623.582
97856.027
98059.206
98231.112
97863.964
98183.153
98223.137
98368.776
98498.326
98604.471
98581.513
98803.141
98793.537
98863.722
98932.801
98989.73
99224.638
99401.761
99329.383
99318.357
99329.754
99344.149
99717.014
99797.635
99715.06
99670.575
99648.845
99635.132
99973.21
99986.254
99954.117
99910.776
99877.705
99850.542
100017.58
100044.86
100056.93
100050.24
100027.53
99999.894
100091.12
100137.82
100138.9
100142.02
100128.59
100102.03
100159.45
100186.49
100199.04
100209.2
100193.36
100162.25
100175.82
100189.42
100214.07
100221.38
100222.13
100240.57
100182.63
100196.45
100214
100236.05
100255.65
100288.03
100161.75
100181.79
100205.74
100238.1
100266.96
100288.47
100123.03
100147.05
100173.07
100214.46
100244.77
100255.68
100059.95
100094.78
100116.81
100151.46
100175.79
100191.01
99965.013
100009.92
100024.94
100052.57
100067.64
100072.03
99806.003
99877.386
99891.675
99911.779
99915.762
99905.535
99590.117
99694.184
99716.258
99732.241
99729.37
99709.019
99339.743
99489.216
99523.255
99535.933
99527.691
99492.358
99138.294
99308.933
99346.426
99360.306
99345.619
99295.425
99057.84
99222.613
99245.918
99252.434
99230.442
99172.324
99148.799
99235.897
99246.763
99240.953
99216.693
99179.315
99340.198
99360.815
99366.519
99349.641
99307.661
99243.234
99584.576
99567.375
99547.594
99520.539
99461.596
99376.769
99826.355
99795.294
99756.836
99719.702
99665.917
99580.872
100056.08
99984.264
99926.524
99875.637
99814.641
99733.014
100175.18
100066.65
99995.882
99934.618
99865.133
99780.822
100098.23
100005.68
99932.591
99868.869
99798.069
99716.582
99885.482
99834.405
99778.476
99720.333
99651.381
99574.071
99734.929
99691.846
99647.931
99598.587
99535.346
99466.945
99625.95
99606.039
99578.211
99537.462
99488.59
99433.698
99590.976
99584.074
99566.49
99536.368
99495.1
99450.503
99612.079
99612.373
99604.64
99586.563
99561.254
99533.073
99658.692
99663.16
99665.858
99666.569
100094.85
100334.07
100489.92
100633.05
100487.98
100697.64
100835.87
100957.02
101058.87
101167.59
100885.99
101054.16
101172.71
101274.9
101362.65
101452.41
101263.47
101399.55
101497.66
101576.87
101643.1
101709.78
101638.17
101733.87
101808.56
101866.52
101915.46
101961.17
101979.69
102040.59
102090.21
102124.59
102157.27
102192.92
102283.22
102328.13
102365.6
102384.3
102385.45
102388.96
102542.01
102569.91
102593.23
102605.58
102607.76
102600.24
102785.09
102797.26
102802.5
102794.98
102776.75
102757.21
102971.67
102971.87
102970.26
102959.98
102936.4
102900.87
103154.03
103130.62
103106.87
103079.76
103048.91
103011.42
103256.8
103235.79
103214.28
103182.75
103139.36
103088.29
103303.99
103270.67
103244.24
103209.4
103165.93
103114.33
103299.39
103267.35
103239.08
103203.67
103160.92
103111.32
103229.45
103221.38
103207.16
103178.61
103135.76
103084.73
103133.38
103111.26
103089.22
103061.17
103032.9
103001.74
102928.07
102937.26
102939.81
102934.65
102922.83
102897.1
102741.92
102754.24
102763.47
102766.61
102757.09
102746.92
102478.59
102507.15
102535.9
102558.86
102572.92
102581.63
102199.2
102248.83
102291.27
102322.72
102338.72
102347.82
101836.63
101918.42
101983.89
102038.68
102082.2
102130.41
101448.82
101568.93
101663.92
101739.68
101798
101863.85
101006.72
101175.47
101295.31
101391.71
101470.96
101566.57
100544.56
100757.9
100903.34
101026.52
101123.94
101223.91
99693.427
99700.215
99703.854
99303.973
99679.577
99966.829
101440.34
101706.23
101964.83
102204.04
102394.4
102592.38
102742.62
102868.96
102965.15
103030.34
103055.32
103056.59
103032.22
102966.55
102866.19
102739.45
102590.97
102414.58
102241.25
102026.23
101805.37
101571.27
101326.92
101620.13
101846.14
102063.35
102273.81
102446.14
102606.24
102730.54
102836.12
102918.46
102970.96
102992.82
102992.27
102968.48
102913.51
102825.61
102717.15
102596.81
102445.43
102285.79
102094.93
101899.2
101691.61
101476.55
101767.7
101966.8
102152.84
102329.7
102481.64
102608.41
102707.51
102794.78
102861.78
102904.36
102921.96
102921.57
102899.78
102851.5
102776.51
102687.89
102582.59
102455.5
102317.11
102156.42
101987.2
101803.5
101614.79
101903.88
102068.1
102227.2
102374.04
102494.12
102596.74
102680.04
102748.72
102800.82
102831.44
102843.96
102845.06
102824.6
102781.62
102720.39
102645.26
102557.08
102455.44
102338.54
102204.04
102061.79
101902.28
101738.83
102007.56
102151.72
102279.46
102395.02
102491.68
102571.53
102639.67
102692.52
102731.08
102755.06
102763.19
102762.07
102741.24
102705.66
102659.22
102597.54
102521.67
102436.92
102342.26
102229.69
102115.53
101982.33
101840.72
102093.93
102214.36
102319.2
102401.96
102476.57
102538.77
102588.4
102627.8
102653.05
102670.96
102683.34
102674.71
102654.56
102629.27
102593.06
102540.59
102476.47
102412.69
102331.26
102242.95
102157.63
102050.7
101929.7
102158.05
102251.02
102328.22
102391.14
102444.15
102489.82
102527.19
102555.92
102577.93
102590.03
102594.56
102585.98
102574.59
102550.39
102514.56
102478.58
102431.92
102373.86
102313.63
102244.2
102170.28
102092.42
101997.69
102213.34
102278.04
102326.27
102364.45
102404.45
102438.32
102464.23
102484.15
102501.45
102507.13
102505.91
102503.22
102489.92
102467.89
102444.77
102413.63
102374.61
102330.78
102282.26
102229.78
102169.16
102101.57
102041.69
102217.42
102259.65
102302.11
102331.74
102357.79
102381.9
102403.07
102418.17
102421.03
102423.95
102424.42
102417.22
102403.32
102391.49
102372.03
102344.24
102315.13
102282.6
102242.63
102202.25
102152.63
102102.71
102061.13
102221.7
102242.16
102264.65
102288.08
102310.42
102325.42
102335.64
102342.65
102345.97
102345.49
102342.35
102333.47
102326.07
102313.46
102296.95
102282.19
102257.04
102231.18
102203.39
102171.15
102136.61
102100.25
102055.53
102204.8
102220.28
102236.02
102251.1
102260.1
102267.8
102272.32
102272.86
102274.09
102271.5
102266
102262.27
102254.05
102240.42
102229.55
102213.41
102198.43
102180.62
102156.9
102132.47
102106.19
102076.69
102046.65
102180.44
102188.11
102197.6
102203.75
102207.39
102207.91
102209.05
102209.53
102206.86
102203.07
102198.62
102191.28
102181.93
102176.62
102167.51
102154.19
102141.01
102126.75
102112.68
102094.3
102074.88
102053.74
102029.1
102145.66
102148.73
102152.31
102151.29
102152.61
102152.03
102149.37
102146.44
102142.58
102139.33
102134.61
102127.11
102122.27
102114.94
102106.42
102097.71
102087.8
102076.79
102064
102052.33
102038.27
102024.07
102108.16
102106.25
102106.01
102104.54
102101.73
102098.94
102095.63
102091.28
102087.86
102082.62
102076.41
102072.29
102066.79
102060.68
102052.93
102045.39
102039.24
102031.34
102020.87
102010.48
102000.28
101988.66
102069.63
102063.48
102062.22
102059.14
102055.43
102051.8
102047.97
102043.79
102039.09
102033.23
102028.87
102023.52
102016.56
102011.37
102006.84
102000.66
101992.68
101985.9
101980.74
101973.08
101965.1
101956.34
102030.72
102025.29
102021.2
102016.4
102011.88
102006.88
102002
101997.39
101991.97
101987.89
101983.36
101978.12
101974.24
101968.8
101962.4
101957.4
101953.44
101947.54
101941.6
101936.28
101930.4
101925.48
101989.64
101982.91
101978.53
101973.96
101969.37
101964.58
101960
101955.39
101950.46
101945.61
101940.95
101936.02
101931.09
101927.59
101924.03
101919.28
101914.86
101910.77
101906.6
101902.94
101898.46
101893.77
101948.85
101942.68
101938.01
101933.02
101928.09
101923.48
101918.64
101914.15
101910.27
101906.21
101902.29
101898.79
101894.94
101890.89
101887.05
101883.25
101879.72
101876.62
101872.79
101868.9
101866.16
101863.08
101907.96
101902.13
101897.67
101893.5
101889.01
101884.92
101880.94
101876.66
101872.74
101868.72
101864.73
101861.01
101857.51
101853.89
101850.27
101847.64
101844.09
101841.15
101838.97
101836.28
101833.88
101832.04
101867.03
101862.41
101858.54
101854.46
101850.72
101846.85
101843.09
101839.76
101836.28
101833.04
101830.3
101827.33
101824.44
101822.1
101819.6
101816.71
101814.35
101811.73
101809.09
101806.82
101804.36
101802.13
101829.43
101825.23
101822.07
101818.79
101815.81
101812.81
101810.04
101807.32
101804.59
101801.98
101799.15
101796.62
101794.18
101791.68
101789.55
101787.7
101785.68
101783.81
101782.37
101780.88
101779.45
101777.87
101791.23
101788.05
101785.37
101782.76
101780.04
101777.58
101775.21
101772.82
101770.72
101768.72
101766.97
101765.27
101763.76
101762.27
101760.97
101759.56
101758.19
101757.2
101755.99
101754.86
101753.96
101753.19
101752.22
101749.52
101747.51
101745.48
101743.56
101741.77
101740
101738.36
101736.76
101735.17
101733.66
101732.18
101730.75
101729.52
101728.28
101727.33
101726.5
101725.63
101725.04
101724.51
101724.02
101723.73
101717.63
101715.79
101714.33
101712.85
101711.45
101710.07
101708.73
101707.51
101706.3
101705.25
101704.26
101703.35
101702.55
101701.77
101701.06
101700.18
101699.38
101698.67
101697.93
101697.28
101696.69
101696.08
101688.8
101687.56
101686.55
101685.51
101684.54
101683.53
101682.71
101681.81
101681
101680.2
101679.42
101678.74
101678.03
101677.42
101676.85
101676.46
101676.09
101675.73
101675.41
101675.14
101674.93
101674.77
101662.94
101662.08
101661.45
101660.86
101660.29
101659.75
101659.18
101658.62
101658.06
101657.62
101657.3
101656.93
101656.65
101656.35
101656.02
101655.68
101655.34
101655.03
101654.75
101654.52
101654.31
101654.14
101636.76
101635.89
101635.07
101634.26
101633.5
101632.7
101632
101631.38
101630.8
101630.28
101629.59
101629.24
101628.72
101628.36
101628.06
101627.82
101627.67
101627.55
101627.48
101627.44
101627.44
101627.47
101606.73
101606.27
101605.87
101605.51
101605.15
101604.87
101604.6
101604.35
101604.12
101603.87
101603.65
101603.4
101603.19
101602.99
101602.83
101602.69
101602.56
101602.46
101602.37
101602.3
101602.25
101602.22
101581.1
101580.77
101580.43
101580.09
101579.77
101579.45
101579.15
101578.85
101578.56
101578.29
101578.03
101577.8
101577.57
101577.36
101577.17
101577
101576.86
101576.73
101576.62
101576.54
101576.47
101576.42
101550.22
101550.09
101549.96
101549.85
101549.75
101549.66
101549.59
101549.54
101549.49
101549.46
101549.45
101549.45
101549.47
101549.5
101549.55
101549.61
101549.69
101549.78
101549.88
101549.99
101550.12
101550.24
101516.7
101516.67
101516.64
101516.62
101516.61
101516.61
101516.61
101516.62
101516.65
101516.68
101516.73
101516.78
101516.85
101516.92
101517
101517.1
101517.2
101517.33
101517.5
101517.83
101518.07
101518.24
101091.18
101085.24
101078.16
101079.73
101091.23
101105.89
101114.41
101121.46
101200.95
101186.55
101177.14
101175.03
101189.88
101209.09
101235.63
101269.05
101303.75
101405.39
101284.81
101279.78
101281.53
101298.42
101333.14
101374.68
101423.23
101485.04
101591.89
101384.65
101384.93
101392.96
101416.32
101460.84
101516.57
101574.53
101643.16
101749.01
101482.87
101487.88
101505.12
101538.74
101583.61
101643.7
101715.17
101787.69
101875.35
101588.46
101601.48
101623.36
101657.57
101704.03
101760.32
101824.36
101897.36
101983.57
101692.45
101705.08
101728.79
101762.68
101808.72
101867.05
101924.24
101986.46
102063.25
101792.73
101805.08
101823.21
101850.7
101892.67
101940.91
101995.8
102067.08
102141.34
101865.84
101878.28
101896.64
101928.35
101971.95
102016.11
102063.27
102114.89
102167.21
101942.23
101952.41
101969
101989
102016.16
102056.63
102110
102167.59
102201.22
101990.25
101999.69
102016.38
102038.96
102063.4
102085.67
102111.83
102144.5
102177.13
102024.46
102034.73
102046.45
102059.28
102079.77
102106.2
102139.72
102155.36
102168.39
102049.81
102053.38
102059.52
102070.64
102085.7
102100.63
102113.48
102125.02
102138.07
102045.91
102049.94
102054.16
102057.96
102061.44
102071.54
102084.14
102092.9
102103.6
102026.5
102028.62
102030.49
102035.23
102045.72
102046.18
102057.29
102060.25
102067.35
102003.84
102005.48
102007.8
102011.11
102014.72
102019.42
102024.01
102026.03
102031.23
101979.08
101979.98
101981.19
101982.47
101984.16
101985.7
101987.8
101988.56
101990.91
101946.46
101947.21
101947.8
101948.5
101949.33
101949.88
101950.28
101950.04
101951.37
101908.72
101909.21
101909.61
101910.12
101910.3
101910.29
101910.35
101909.6
101909.98
101871.48
101871.54
101871.51
101871.19
101870.83
101870.43
101869.95
101869.16
101869.43
101833.51
101833.74
101833.71
101833.72
101833.65
101832.8
101832.55
101831.44
101831.51
101793.34
101793.41
101793.48
101793.46
101793.28
101793.18
101792.99
101792.52
101792.81
101754.32
101754.47
101754.55
101754.54
101754.44
101754.17
101753.91
101753.31
101753.45
101718.13
101718.24
101718.32
101718.39
101718.43
101718.4
101718.51
101718.2
101718.49
101689.9
101689.96
101689.99
101689.95
101689.85
101689.71
101689.51
101689.34
101689.41
101662.41
101662.48
101662.59
101662.71
101662.84
101662.97
101663.09
101663.06
101663.27
101638.39
101638.37
101638.31
101638.2
101638.02
101637.81
101637.57
101637.37
101637.3
101606.52
101606.56
101606.61
101606.68
101606.75
101606.81
101606.85
101606.87
101606.97
101581.46
101581.48
101581.5
101581.5
101581.49
101581.47
101581.43
101581.4
101581.38
101550.16
101550.18
101550.21
101550.24
101550.27
101550.3
101550.34
101550.37
101550.4
101516.79
101516.8
101516.82
101516.84
101516.88
101516.91
101516.95
101516.98
101517.01
101092.37
101186.59
101283.59
101378.84
101477.19
101580.4
101685.02
101784.07
101856.47
101933.4
101986.78
102016.14
102046.43
102043.36
102025.89
102002.97
101978.66
101946.27
101908.57
101871.54
101833.52
101793.35
101754.3
101718.11
101689.88
101662.38
101638.42
101606.5
101581.45
101550.14
101516.7
101087.64
101180.05
101274.31
101369.6
101469.25
101572.5
101679.1
101776.04
101849.38
101924.76
101985.24
102009.86
102043.72
102041.29
102025.38
102002.77
101978.61
101946.33
101908.71
101871.8
101833.71
101793.53
101754.4
101718.19
101689.95
101662.41
101638.48
101606.52
101581.47
101550.15
101516.71
101083.79
101175.57
101266.73
101362.21
101463.57
101567.75
101674.73
101768.53
101845.59
101918.48
101984.22
102006.24
102040.99
102039.78
102024.65
102002.42
101978.47
101946.3
101908.73
101871.94
101833.79
101793.62
101754.45
101718.22
101689.97
101662.42
101638.52
101606.53
101581.48
101550.15
101516.7
101082.82
101173.27
101262.48
101356.75
101459.36
101566.15
101671.4
101762.74
101842.77
101914.92
101983.4
102004.19
102039.24
102038.77
102024.64
102002.29
101978.37
101946.28
101908.74
101872.02
101833.85
101793.68
101754.47
101718.25
101690
101662.42
101638.55
101606.53
101581.48
101550.15
101516.7
101081.02
101171.12
101261.27
101353.64
101456.47
101565.58
101669.43
101760.14
101839.47
101913.44
101982.78
102003.35
102037.67
102037.9
102024.32
102002.26
101978.34
101946.26
101908.74
101872.07
101833.88
101793.71
101754.48
101718.26
101690
101662.43
101638.56
101606.53
101581.48
101550.15
101516.7
101078.64
101171.35
101264.91
101353.04
101454.18
101564.97
101668.22
101758.9
101837.9
101913.15
101982.39
102003.25
102036.64
102037.55
102024.27
102002.3
101978.32
101946.23
101908.74
101872.08
101833.89
101793.71
101754.49
101718.27
101690.01
101662.43
101638.57
101606.53
101581.48
101550.15
101516.69
)
;

boundaryField
{
    Side1
    {
        type            empty;
    }
    Inlet
    {
        type            totalPressure;
        rho             rho;
        psi             none;
        gamma           1;
        p0              uniform 102920.87;
        value           uniform 101328.54;
    }
    Side2
    {
        type            empty;
    }
    Outlet
    {
        type            freestreamPressure;
        freestreamValue nonuniform List<scalar> 0();
        value           nonuniform List<scalar> 0();
    }
    Botwall
    {
        type            zeroGradient;
    }
    Cyli
    {
        type            zeroGradient;
    }
    procBoundary0to1
    {
        type            processor;
        value           nonuniform List<scalar> 
44
(
100022.9
100022.9
99917.147
99928.026
99928.026
99946.853
99946.853
99803.377
99775.876
99775.876
99740.337
99740.337
99506.685
99270.469
99195.551
99195.551
99064.989
99102.747
99167.131
99299.972
99469.76
99469.76
99520.787
99617.516
99595.699
99595.699
99502.353
100287.77
100306.48
100078.76
100110.59
100174.74
100233.94
100287.57
100287.77
100328.78
100078.76
100014.31
100316.54
100319.35
100322.43
100325.49
100328
100328.6
)
;
    }
    procBoundary0to2
    {
        type            processor;
        value           nonuniform List<scalar> 
55
(
99624.976
99558.635
99471.999
99415.91
99435.594
99657.304
99652.846
99709.717
99657.304
99716.77
100144.29
100755.9
100314.57
100755.9
100877.43
99709.717
99712.251
99712.251
99691.515
98914.454
99616.462
99616.462
100144.29
101078.88
101261.6
101423.19
101572.2
101699.37
101807.26
101890.11
101958.82
102009
102014.61
102014.93
102003.92
102008.2
102008.2
101977.97
101946.12
101918.3
101890.24
101859.84
101829.59
101800.26
101776.42
101752.33
101723.49
101695.55
101674.6
101654.01
101627.55
101602.21
101576.38
101550.38
101518.4
)
;
    }
    procBoundary0to3
    {
        type            processor;
        value           nonuniform List<scalar> 7(99383.91 99383.91 99350.701 99350.701 99291.219 99291.219 99523.841);
    }
}


// ************************************************************************* //
