/*--------------------------------*- C++ -*----------------------------------*\
| =========                 |                                                 |
| \\      /  F ield         | OpenFOAM: The Open Source CFD Toolbox           |
|  \\    /   O peration     | Version:  2406                                  |
|   \\  /    A nd           | Website:  www.openfoam.com                      |
|    \\/     M anipulation  |                                                 |
\*---------------------------------------------------------------------------*/
FoamFile
{
    version     2.0;
    format      ascii;
    arch        "LSB;label=32;scalar=64";
    class       volVectorField;
    location    "0.03";
    object      U;
}
// * * * * * * * * * * * * * * * * * * * * * * * * * * * * * * * * * * * * * //

dimensions      [0 1 -1 0 0 0 0];

internalField   nonuniform List<vector> 
2257
(
(27.119874 4.4280673 -4.7225346e-18)
(28.946086 4.6411531 4.3173411e-18)
(30.362025 4.7941343 -3.9593117e-18)
(31.486596 4.9718848 3.63622e-18)
(32.370776 5.1665788 1.3064218e-20)
(33.021289 5.346743 -2.403565e-20)
(33.458596 5.5031538 0)
(33.716826 5.6399578 2.5957851e-18)
(33.815458 5.7573057 -4.6010728e-18)
(33.777198 5.8019105 4.200357e-18)
(33.638056 5.78103 -2.0082399e-18)
(33.425633 5.7110357 -1.8965722e-18)
(33.191244 5.58493 1.7622236e-18)
(32.949025 5.3895468 1.2852875e-20)
(32.727712 5.1362128 -2.4052465e-20)
(32.548705 4.839785 -1.4685498e-18)
(32.423729 4.511023 2.704835e-18)
(32.359057 4.161296 -2.557355e-18)
(32.356412 3.7784639 2.4268135e-18)
(32.403039 3.4455199 -1.1203331e-18)
(32.482472 3.1170128 -3.3848201e-20)
(32.589291 2.7947294 0)
(32.701282 2.5025048 9.466379e-19)
(32.805865 2.2363603 -9.5082014e-19)
(32.891633 1.9927594 0)
(32.955162 1.766085 -5.1502092e-20)
(32.997379 1.5515642 -4.8707652e-20)
(33.030745 1.3450204 -6.4372804e-19)
(33.066746 1.1413209 7.3558409e-19)
(33.132922 0.95110162 0)
(33.244872 0.77219091 -7.597123e-20)
(33.429822 0.61403689 7.0946251e-20)
(33.684114 0.45942653 0)
(34.072836 0.33420327 0)
(34.521062 0.20067614 0)
(35.100515 0.09344411 -1.0673042e-19)
(35.777383 0.0051197193 0)
(36.573451 -0.056572859 -8.8105294e-20)
(37.547633 -0.1085692 0)
(38.727252 -0.18918963 0)
(40.054865 -0.28661039 0)
(41.394575 -0.3974142 2.2773437e-19)
(42.615555 -0.49250399 1.8188763e-19)
(43.695575 -0.55092599 5.0978714e-20)
(44.641021 -0.56860233 -8.9394478e-20)
(45.478959 -0.55213658 1.6081669e-19)
(46.226903 -0.51459941 -7.3237544e-20)
(46.905139 -0.46644318 6.7041733e-20)
(47.515527 -0.41346738 -6.160473e-20)
(48.087756 -0.36299043 5.6704328e-20)
(48.602838 -0.31611756 3.1435873e-19)
(49.095656 -0.27344975 -1.4534855e-19)
(49.528994 -0.23383598 0)
(49.948833 -0.19589351 0)
(50.28515 -0.15891987 1.7500222e-20)
(50.620918 -0.13192973 -1.5356468e-20)
(50.866744 -0.1041667 9.9420458e-20)
(51.130444 -0.08429505 -2.5310765e-25)
(51.268702 -0.062800556 6.5014399e-21)
(51.477091 -0.048001226 -8.3242836e-20)
(51.523866 -0.028312802 -1.4497088e-20)
(51.660043 -0.027031504 0)
(13.894951 1.0761106 -8.5656409e-22)
(16.633452 1.9945397 9.5088401e-18)
(18.990617 2.7475851 -4.3115444e-18)
(20.991951 3.3835992 0)
(22.667126 3.9418875 0)
(24.040052 4.4336777 -6.4073865e-21)
(25.13317 4.8482537 1.1749637e-20)
(25.976124 5.1816684 2.762022e-18)
(26.60756 5.4440774 -2.52849e-18)
(27.066948 5.6288209 -9.1336814e-21)
(27.385241 5.7180615 0)
(27.594057 5.726365 -7.7994546e-21)
(27.738122 5.6541865 1.44782e-20)
(27.851908 5.5054387 0)
(27.958454 5.2838047 -2.5264344e-20)
(28.084793 5.0066761 2.371122e-20)
(28.244633 4.6903007 0)
(28.444937 4.3455139 2.1141982e-20)
(28.691181 3.982899 -2.0048791e-20)
(28.975081 3.6119492 -1.9036668e-20)
(29.290621 3.2770374 0)
(29.625024 2.9563458 1.1480666e-18)
(29.960398 2.6544232 3.2737754e-20)
(30.279072 2.3823204 -9.7947952e-19)
(30.570843 2.1355604 9.2449902e-19)
(30.826277 1.9094397 -1.7444416e-18)
(31.045451 1.6971279 1.6456469e-18)
(31.234294 1.4933051 -1.5021317e-18)
(31.410906 1.2930174 7.743027e-19)
(31.592232 1.0923191 -4.2698388e-20)
(31.80808 0.90197227 0)
(32.073328 0.72043649 7.4501056e-20)
(32.417334 0.55856278 -6.9414948e-20)
(32.831059 0.39858017 0)
(33.377017 0.26494228 0)
(33.982427 0.12875891 -5.650125e-19)
(34.713173 0.01846023 4.1349977e-19)
(35.543212 -0.073596832 0)
(36.496959 -0.14192947 8.4271031e-20)
(37.625546 -0.2044207 -2.8974808e-19)
(38.929775 -0.29231664 2.3706516e-19)
(40.324874 -0.38790833 0)
(41.680181 -0.48739584 0)
(42.890498 -0.56705418 -1.7393538e-19)
(43.950297 -0.61111102 1.4708168e-19)
(44.873204 -0.61708246 -8.6313626e-20)
(45.688106 -0.59174921 -7.7807664e-20)
(46.41376 -0.54756614 0)
(47.070133 -0.49424142 0)
(47.660959 -0.43742301 0)
(48.214151 -0.38381239 -1.1004034e-19)
(48.712809 -0.33435573 -1.5250857e-19)
(49.189185 -0.28933666 -9.4032715e-20)
(49.60917 -0.24762741 1.3139837e-19)
(50.014438 -0.20747765 -4.0152461e-20)
(50.34113 -0.16867245 0)
(50.665235 -0.14033095 -1.1885994e-19)
(50.903225 -0.1112068 -2.1089069e-19)
(51.158153 -0.089577782 5.3418388e-20)
(51.29178 -0.067109319 1.9617777e-21)
(51.492522 -0.050849243 3.6745647e-20)
(51.536799 -0.030405925 1.5110345e-20)
(51.667192 -0.027546134 0)
(6.6126202 -1.2166317 -4.6727416e-21)
(8.748267 -0.054286986 -4.2645541e-21)
(10.943564 1.0679968 0)
(12.934786 2.0464642 3.5846862e-21)
(14.703718 2.8950337 3.3574072e-18)
(16.239751 3.6228067 -3.0645406e-18)
(17.547641 4.2272613 -2.8216924e-18)
(18.643611 4.7104218 2.6062378e-18)
(19.556976 5.0798324 -4.6869272e-21)
(20.322122 5.3349412 -8.6652434e-21)
(20.966344 5.4702603 0)
(21.51767 5.4980253 1.4926804e-20)
(22.012457 5.4331182 -1.7899142e-18)
(22.477568 5.2796118 1.6699792e-18)
(22.936141 5.048589 1.226486e-20)
(23.408867 4.7643047 0)
(23.902095 4.442719 0)
(24.421935 4.0958738 -1.040834e-20)
(24.968811 3.7369616 -1.2679252e-18)
(25.531267 3.3800335 2.4329113e-18)
(26.106719 3.0623753 -1.1483814e-18)
(26.683479 2.7618638 1.5552877e-24)
(27.238535 2.4828247 -1.0812572e-18)
(27.758862 2.2349392 9.4497254e-19)
(28.237378 2.0113207 5.7508904e-20)
(28.668037 1.80554 0)
(29.055307 1.6092944 0)
(29.410522 1.4166825 -2.3925109e-20)
(29.756313 1.2224157 -7.6176534e-19)
(30.111997 1.0240683 4.1773431e-20)
(30.506519 0.83281409 6.2419192e-19)
(30.95246 0.64829093 3.6308886e-20)
(31.478458 0.48245736 -5.3995142e-19)
(32.072222 0.3171959 5.0127283e-19)
(32.786108 0.17616922 1.5559096e-20)
(33.561517 0.039599832 0)
(34.447823 -0.074739079 4.4633187e-19)
(35.430644 -0.17007679 -4.0549519e-19)
(36.531436 -0.24444087 -3.1911446e-19)
(37.79213 -0.31470617 1.1520332e-23)
(39.189337 -0.40488659 1.1292123e-24)
(40.623907 -0.49369305 1.7209159e-19)
(41.977869 -0.57871038 1.3405435e-19)
(43.168994 -0.64173317 -2.165283e-19)
(44.204306 -0.67120545 9.1766114e-20)
(45.102426 -0.66553018 8.0862503e-20)
(45.893157 -0.63139781 -7.2859101e-20)
(46.595938 -0.58057702 0)
(47.230416 -0.52208317 -3.0360844e-20)
(47.801735 -0.46140106 3.4612267e-24)
(48.336123 -0.40462749 -5.1203726e-20)
(48.818566 -0.35255526 9.4417444e-20)
(49.27887 -0.30516519 8.7132072e-20)
(49.68575 -0.26133217 -1.2147412e-19)
(50.076952 -0.21896944 -5.6428841e-20)
(50.394274 -0.1782901 4.9049884e-20)
(50.707184 -0.1486303 1.0872804e-19)
(50.93765 -0.11816762 9.1388444e-20)
(51.184109 -0.094649644 -6.0595211e-20)
(51.313286 -0.071218911 3.7136503e-21)
(51.506754 -0.053547871 4.1689525e-20)
(51.548714 -0.032303351 8.4913079e-21)
(51.673721 -0.028002408 0)
(2.5323128 -2.2985224 4.7558323e-21)
(3.9454252 -1.1886587 -3.798029e-18)
(5.4540142 -0.1038369 0)
(7.0276344 0.98571912 -2.3722922e-25)
(8.5074162 1.9680386 0)
(9.8787145 2.8277964 -5.4999578e-21)
(11.129012 3.5519412 -5.0850977e-21)
(12.259124 4.1335957 -4.7100674e-21)
(13.281777 4.5762957 4.3715824e-21)
(14.215102 4.8816389 1.2200697e-20)
(15.074927 5.0517889 0)
(15.880342 5.1022116 1.810548e-18)
(16.65432 5.0468186 -1.6991981e-18)
(17.412829 4.8963222 -1.6023455e-18)
(18.173479 4.6702047 1.5133321e-18)
(18.944779 4.3934767 -5.6316946e-21)
(19.728462 4.0815414 -1.072198e-20)
(20.527715 3.7480831 1.0229241e-20)
(21.337769 3.4076279 1.2509136e-18)
(22.145777 3.0768398 9.7754805e-21)
(22.950646 2.7857786 -1.130107e-18)
(23.741583 2.5141733 1.0665001e-18)
(24.496621 2.2659793 -9.9430176e-19)
(25.206479 2.0481733 0)
(25.867716 1.8518178 -2.8561354e-20)
(26.478741 1.6690183 -8.5953452e-19)
(27.048667 1.4902186 8.3140005e-19)
(27.592804 1.3093648 4.7155155e-20)
(28.13504 1.1212787 -7.2627458e-19)
(28.692765 0.92547537 -4.1068921e-20)
(29.291865 0.7338777 5.9071511e-19)
(29.94166 0.54756102 -7.0758905e-20)
(30.667534 0.37866399 -3.2794438e-20)
(31.454682 0.21021605 -5.1610512e-19)
(32.34136 0.068260224 -5.6144059e-20)
(33.287699 -0.070117367 2.5571578e-20)
(34.323628 -0.18737317 3.3259842e-19)
(35.445824 -0.28459823 5.5418126e-25)
(36.672558 -0.36291312 0)
(38.036242 -0.43736894 2.5528355e-19)
(39.494409 -0.52504465 -1.1086518e-24)
(40.944487 -0.60287536 -2.0026111e-19)
(42.283479 -0.67098171 0)
(43.448649 -0.71643313 0)
(44.456087 -0.73109392 0)
(45.327668 -0.71375713 -5.686129e-20)
(46.093393 -0.67084429 3.4127494e-20)
(46.77297 -0.6133917 3.1054282e-20)
(47.385673 -0.54974694 3.3510435e-25)
(47.937654 -0.48521123 7.8012506e-20)
(48.453568 -0.42528101 -4.7694891e-20)
(48.920087 -0.3705957 2.1941508e-20)
(49.364746 -0.320841 -4.041242e-20)
(49.758824 -0.27488099 7.4962725e-20)
(50.136494 -0.23033192 3.4771021e-20)
(50.444716 -0.18775402 -6.209885e-20)
(50.746913 -0.15683764 1.2426067e-20)
(50.970169 -0.12509467 1.2035205e-20)
(51.208463 -0.099583379 -7.6179954e-21)
(51.333374 -0.075173084 0)
(51.519901 -0.056269366 0)
(51.559755 -0.034123784 -8.0127905e-21)
(51.679719 -0.028398872 0)
(-0.11070595 -3.0612482 -3.8084223e-18)
(0.78442947 -1.9057979 6.8678589e-18)
(1.7787438 -0.78081563 -3.1710859e-18)
(2.8198113 0.28947455 2.9350185e-18)
(3.8687434 1.2760159 -2.7425785e-18)
(4.9365106 2.168229 0)
(5.9889388 2.9228087 0)
(7.0163161 3.5309489 -2.2389646e-18)
(8.0201405 3.9947906 9.3809677e-22)
(9.0052476 4.3158921 3.9156735e-18)
(9.9747702 4.4991321 -1.8396369e-18)
(10.937742 4.5602919 1.7336474e-18)
(11.903995 4.5128473 -1.6405495e-18)
(12.879689 4.3719466 -6.0633957e-21)
(13.870172 4.1604642 5.7622901e-21)
(14.873266 3.9021421 5.4960095e-21)
(15.887686 3.611992 1.5768381e-20)
(16.910336 3.3044637 1.2940967e-18)
(17.932031 2.9951642 -1.2342354e-18)
(18.94051 2.7014133 1.1725491e-18)
(19.934506 2.4451941 3.6683356e-22)
(20.905113 2.2098991 8.7094876e-21)
(21.834679 1.9988285 -1.0340745e-18)
(22.718336 1.8151835 9.619036e-19)
(23.556943 1.6485485 1.435647e-20)
(24.353665 1.4901315 -8.4968123e-19)
(25.120853 1.3294502 -2.4850556e-20)
(25.874439 1.1607536 -2.3190719e-20)
(26.635412 0.97962112 2.1588567e-20)
(27.416747 0.78783251 -6.4182166e-19)
(28.239106 0.59791245 5.9512462e-19)
(29.107333 0.4123592 -5.1652342e-19)
(30.040993 0.24323906 3.1799248e-20)
(31.022482 0.075495137 4.9918131e-19)
(32.076538 -0.065755894 -2.7054363e-20)
(33.179057 -0.20195899 -2.3390146e-25)
(34.346361 -0.31852265 2.2727376e-20)
(35.584365 -0.41497652 4.0833462e-20)
(36.90906 -0.49469674 2.8555547e-19)
(38.343987 -0.56949441 -1.0717556e-23)
(39.834086 -0.6504407 -3.8450884e-19)
(41.280027 -0.7139576 3.739205e-20)
(42.593357 -0.76340929 1.1699681e-19)
(43.727339 -0.79073662 -9.4967322e-20)
(44.704307 -0.79052429 1.8159638e-19)
(45.548049 -0.76158576 -8.8909739e-20)
(46.28819 -0.70995018 -1.6000919e-20)
(46.944468 -0.64590626 -2.9087971e-20)
(47.535624 -0.57714942 1.3270593e-19)
(48.068534 -0.50878624 -1.2138538e-19)
(48.566382 -0.44571899 2.2222425e-20)
(49.017338 -0.38843493 -2.0407103e-20)
(49.446827 -0.33633052 0)
(49.828454 -0.28824969 0)
(50.19314 -0.24153659 1.6079125e-20)
(50.492558 -0.19707233 1.4848309e-20)
(50.78453 -0.16496467 1.1323018e-20)
(51.00089 -0.13202766 -1.0943991e-20)
(51.231338 -0.10445478 -1.8717178e-20)
(51.352164 -0.079018767 3.2079123e-21)
(51.532084 -0.058844802 -1.7399856e-21)
(51.570022 -0.035952477 -1.0562837e-22)
(51.685238 -0.028755271 3.784273e-23)
(-2.0491556 -3.2848776 3.4131733e-18)
(-1.5869677 -2.1512166 0)
(-1.0051943 -1.0823906 -2.8745044e-18)
(-0.37676147 -0.077386716 5.4008284e-18)
(0.3159971 0.85057926 -1.6337961e-21)
(1.0745616 1.6734381 -2.3718351e-18)
(1.9109857 2.3763513 0)
(2.787567 2.9471193 0)
(3.7125946 3.3837348 -1.9308881e-21)
(4.6880796 3.6854082 1.8213019e-21)
(5.6997033 3.857445 1.7205295e-21)
(6.7525486 3.9143271 0)
(7.8428459 3.8684049 1.5918844e-18)
(8.9681393 3.7379023 3.8128513e-21)
(10.122363 3.5455345 -2.8853488e-18)
(11.296886 3.312747 2.7629253e-18)
(12.485868 3.0531775 -7.1369394e-21)
(13.680682 2.781268 -2.5471261e-18)
(14.868907 2.5129307 1.2190831e-18)
(16.03703 2.26377 -4.5639057e-21)
(17.183386 2.0484511 -8.7242381e-21)
(18.302801 1.8541236 -4.151512e-21)
(19.383405 1.6829739 0)
(20.425714 1.53463 0)
(21.435865 1.3977325 -1.3967431e-20)
(22.421084 1.2631468 -6.5434464e-21)
(23.394323 1.1200291 0)
(24.36913 0.96372164 0)
(25.360926 0.79098176 0)
(26.375912 0.6057511 0)
(27.427193 0.42087121 1.8114452e-20)
(28.513549 0.24012355 0)
(29.646642 0.075387932 0)
(30.806446 -0.086511147 0)
(32.007317 -0.22267221 -3.903806e-19)
(33.238215 -0.35332869 -2.3860496e-20)
(34.509312 -0.4651075 -1.0840087e-20)
(35.833357 -0.55833256 3.1080746e-19)
(37.225463 -0.63659492 -2.701834e-19)
(38.701311 -0.70816605 2.2552666e-19)
(40.198726 -0.77882614 1.8015923e-19)
(41.624933 -0.82553122 -2.8018464e-19)
(42.904396 -0.85519795 9.6003012e-20)
(44.003247 -0.86419135 0)
(44.947833 -0.84921394 -2.8433799e-20)
(45.762826 -0.80882674 -8.3484638e-21)
(46.477056 -0.74858235 -1.5007612e-20)
(47.11013 -0.67802857 0)
(47.680055 -0.60422253 0)
(48.194251 -0.53207411 2.267365e-20)
(48.674505 -0.46590198 -1.0359828e-20)
(49.110314 -0.40604349 2.8488077e-20)
(49.52515 -0.35161209 -1.7425934e-20)
(49.894712 -0.30142413 0)
(50.24697 -0.25257187 -1.4885346e-20)
(50.537902 -0.20625895 -3.5478484e-25)
(50.820133 -0.17302466 -1.0238191e-20)
(51.029914 -0.1390005 4.8733161e-21)
(51.252839 -0.10927989 2.1878028e-25)
(51.36976 -0.082774449 -5.9119649e-21)
(51.543392 -0.061303181 -8.1447849e-22)
(51.57956 -0.037730898 -1.9647699e-22)
(51.690277 -0.029109024 0)
(-3.5574735 -3.0951694 -3.1229909e-18)
(-3.4381692 -2.0554177 2.8312516e-18)
(-3.1964752 -1.0949779 -5.324271e-18)
(-2.8709315 -0.20560045 -1.2851764e-21)
(-2.4449806 0.60376889 -7.7533671e-22)
(-1.9274868 1.3060232 2.2155418e-18)
(-1.3182613 1.9029164 0)
(-0.58512754 2.3942251 -1.9968755e-18)
(0.2420736 2.760052 1.8861381e-18)
(1.1933345 3.0150628 1.795158e-18)
(2.2097876 3.1557552 -3.4119546e-18)
(3.3148425 3.1938754 -9.7861069e-22)
(4.4847308 3.1431672 -3.944294e-21)
(5.7135416 3.0223138 1.4743141e-18)
(6.985595 2.8509648 -1.4153027e-18)
(8.2893137 2.647937 1.3561158e-18)
(9.6124355 2.4245208 -1.3034526e-18)
(10.941911 2.1946953 2.5089199e-18)
(12.263625 1.9738584 -2.4072124e-18)
(13.561249 1.7739361 1.1597036e-18)
(14.833322 1.6034688 -1.1019189e-18)
(16.079442 1.4523776 2.091749e-18)
(17.293605 1.3212626 -1.9847811e-18)
(18.482046 1.2068406 9.3210323e-19)
(19.65612 1.0975219 -3.4334102e-21)
(20.825922 0.98471477 -8.1596536e-19)
(22.003485 0.85806905 7.6652349e-19)
(23.197733 0.71465725 5.5654413e-21)
(24.416346 0.55257321 0)
(25.65684 0.37767429 0)
(26.92272 0.2026509 -5.6276631e-19)
(28.205921 0.032182436 -8.120258e-21)
(29.510281 -0.12205578 4.7553613e-19)
(30.815173 -0.2722888 6.8163435e-21)
(32.129255 -0.39869354 4.0620131e-19)
(33.453466 -0.51964463 -7.3171472e-19)
(34.795931 -0.62361105 6.5343881e-19)
(36.175111 -0.71120199 -2.9583619e-19)
(37.605157 -0.78536271 -2.5594182e-19)
(39.095427 -0.85064594 2.1261652e-19)
(40.580118 -0.90821381 5.2907052e-21)
(41.974526 -0.9363779 -6.5783264e-20)
(43.213977 -0.94565205 6.4414731e-21)
(44.274832 -0.9363886 4.1936757e-20)
(45.185708 -0.90690115 8.9132721e-21)
(45.971375 -0.8553009 7.8435894e-21)
(46.65962 -0.78661946 3.5209591e-20)
(47.269715 -0.70967109 -1.9150347e-20)
(47.818815 -0.63090219 -5.8083272e-21)
(48.314725 -0.55502613 2.1182751e-20)
(48.777911 -0.48579319 -4.8297565e-21)
(49.199036 -0.42339391 8.840631e-21)
(49.59976 -0.36666584 -8.0996057e-21)
(49.957676 -0.3143917 1.4939998e-20)
(50.298068 -0.26343146 6.8956165e-21)
(50.580838 -0.21530843 -6.4332139e-21)
(50.853811 -0.1810273 9.1430976e-21)
(51.057326 -0.14602966 0)
(51.273058 -0.11405765 1.0357235e-20)
(51.38625 -0.086446553 1.3608056e-21)
(51.553904 -0.06367881 0)
(51.58845 -0.039466567 -1.4790474e-21)
(51.694938 -0.029413331 0)
(-4.7586777 -2.6143449 -2.9332655e-18)
(-4.9019366 -1.7197326 5.3357431e-18)
(-4.9156482 -0.91370075 -2.5195597e-18)
(-4.8222032 -0.18920581 2.3919404e-18)
(-4.6053407 0.45949938 -2.2707734e-18)
(-4.2541175 1.0260038 0)
(-3.7710006 1.5013036 -2.043575e-18)
(-3.1478522 1.8786401 3.873759e-18)
(-2.4019121 2.1487804 -1.8326149e-18)
(-1.5267527 2.3207551 4.2609764e-22)
(-0.52350259 2.4071157 -8.1099317e-22)
(0.62333026 2.4167197 1.5931133e-18)
(1.8470799 2.3570799 -1.5211912e-18)
(3.1544253 2.243838 -1.4551097e-18)
(4.5167673 2.093175 2.7938378e-18)
(5.9241274 1.9218762 -1.3386731e-18)
(7.3561266 1.7381249 0)
(8.7966024 1.5547822 0)
(10.229752 1.385677 -1.1839667e-18)
(11.637947 1.2379995 2.2657915e-18)
(13.019622 1.1149314 -1.0819461e-18)
(14.377764 1.007786 -2.0080602e-21)
(15.712086 0.91531727 0)
(17.03433 0.83229719 3.5801753e-21)
(18.360058 0.74770052 -4.2662748e-19)
(19.700894 0.65450403 4.0170682e-19)
(21.066756 0.54372246 -3.7692172e-19)
(22.460417 0.41460155 6.8838936e-19)
(23.880554 0.26660406 -3.232902e-19)
(25.315317 0.10708885 0)
(26.758535 -0.052021457 2.6790702e-19)
(28.19655 -0.20545895 -4.9165496e-19)
(29.627834 -0.34322008 2.3244857e-19)
(31.033986 -0.47618773 -9.8229021e-21)
(32.422172 -0.58823654 -5.9945096e-21)
(33.802941 -0.69640138 -5.4748798e-21)
(35.185019 -0.79013937 -4.9568374e-21)
(36.590563 -0.87005933 4.4044504e-21)
(38.03261 -0.93795992 3.7954211e-21)
(39.515302 -0.99447807 -9.7331195e-20)
(40.971426 -1.0369214 6.9806978e-20)
(42.324932 -1.0454962 6.1941572e-20)
(43.519909 -1.0342052 -9.4097891e-20)
(44.540798 -1.0069924 3.9500849e-20)
(45.417134 -0.96336694 -2.097358e-21)
(46.173195 -0.90085532 0)
(46.835604 -0.82395631 -6.6107143e-21)
(47.42305 -0.74075678 1.4962126e-20)
(47.951805 -0.65713089 -1.9024976e-20)
(48.429918 -0.57759838 2.2266728e-20)
(48.876605 -0.50535926 -2.253229e-20)
(49.283543 -0.44046126 1.2350969e-20)
(49.670721 -0.38147368 -3.7655663e-20)
(50.01743 -0.32714094 1.3870544e-20)
(50.34652 -0.27410907 -6.3933686e-21)
(50.621448 -0.22420608 2.3655785e-25)
(50.885644 -0.18896915 -8.0310422e-21)
(51.0832 -0.15309205 0)
(51.292078 -0.11878695 3.2428857e-21)
(51.401714 -0.090037238 4.384374e-21)
(51.563689 -0.065985647 -2.74466e-21)
(51.596753 -0.041173185 6.1076849e-22)
(51.699264 -0.029671304 -2.6086345e-23)
(-5.6687533 -1.913487 1.4064266e-18)
(-6.0054125 -1.2138395 -1.2231227e-22)
(-6.2038384 -0.59869283 -1.198984e-18)
(-6.2772551 -0.078407467 -1.3977004e-22)
(-6.2124528 0.39479658 1.1049364e-18)
(-5.991602 0.79162046 -1.0525943e-18)
(-5.6107654 1.11392 0)
(-5.063379 1.358275 9.5471644e-19)
(-4.3426791 1.5261889 -9.0427666e-19)
(-3.4716401 1.6168096 -4.2047393e-22)
(-2.4518346 1.6382901 0)
(-1.3059389 1.5948998 7.8283854e-19)
(-0.037224084 1.5208654 -7.4863107e-19)
(1.3394193 1.4123274 0)
(2.7719462 1.2820334 -6.8760516e-19)
(4.2689663 1.1425933 6.5847076e-19)
(5.7933408 1.001347 -6.3368844e-19)
(7.3281962 0.86795715 6.0658587e-19)
(8.8560273 0.7533607 5.79751e-19)
(10.36028 0.66008373 -1.1092917e-18)
(11.838647 0.58634896 5.2859077e-19)
(13.295626 0.52322469 5.046973e-19)
(14.736529 0.46787056 -4.7419668e-19)
(16.177105 0.41400149 4.4563512e-19)
(17.635388 0.3519459 8.6355035e-23)
(19.122812 0.27720041 -7.812912e-19)
(20.645901 0.18285871 3.6598882e-19)
(22.200748 0.070566476 -1.314038e-21)
(23.777372 -0.058867397 2.4261339e-21)
(25.355913 -0.19726721 0)
(26.922958 -0.33419707 -2.5835007e-19)
(28.462313 -0.46482733 2.4043781e-19)
(29.970359 -0.58039348 -3.4375178e-21)
(31.432593 -0.69171207 -1.9805934e-19)
(32.857112 -0.78603408 1.8257357e-19)
(34.261081 -0.87913028 5.24719e-21)
(35.65465 -0.96086474 7.115305e-21)
(37.061828 -1.0316689 -4.2040205e-21)
(38.494296 -1.0916609 -1.1912943e-19)
(39.951703 -1.1375505 9.2236615e-20)
(41.367031 -1.1635525 4.7118958e-21)
(42.672965 -1.1520783 1.8269867e-21)
(43.820376 -1.1204047 2.8642061e-21)
(44.800075 -1.0757327 0)
(45.64145 -1.0184301 1.9756497e-21)
(46.367918 -0.94536676 0)
(47.004797 -0.86050309 0)
(47.570018 -0.77122073 2.665137e-20)
(48.078977 -0.68285983 -1.7807999e-20)
(48.53983 -0.59975344 -2.3119194e-21)
(48.970616 -0.52457172 0)
(49.363894 -0.45722429 1.1504984e-20)
(49.738105 -0.39602026 -7.005082e-21)
(50.074064 -0.33966229 0)
(50.39241 -0.284599 0)
(50.659818 -0.23294566 2.7590268e-21)
(50.915702 -0.19682224 1.7250773e-21)
(51.107603 -0.16014198 4.2508285e-21)
(51.309974 -0.12346356 2.9923544e-21)
(51.416223 -0.093547421 -1.1533729e-21)
(51.572808 -0.068228748 6.2702841e-22)
(51.604517 -0.042851431 6.1797819e-22)
(51.703291 -0.029889109 -8.8321965e-23)
(-6.2564042 -1.0719499 4.9155999e-23)
(-6.729708 -0.60880219 1.2563768e-18)
(-7.054868 -0.21484401 -1.4444421e-22)
(-7.2346019 0.10571053 1.1135994e-18)
(-7.2625571 0.37222513 3.2719327e-22)
(-7.1161063 0.58416918 3.7814926e-22)
(-6.7905745 0.73681362 -9.8907303e-19)
(-6.2788895 0.82975357 0)
(-5.5772727 0.87021926 -8.9714468e-19)
(-4.6967926 0.86329728 8.5367306e-19)
(-3.6497681 0.81663178 9.9312004e-23)
(-2.4456593 0.74020368 -7.7271932e-19)
(-1.1408046 0.64163682 -6.0663962e-22)
(0.29350438 0.53525996 1.4127705e-18)
(1.7922599 0.42492509 -6.7587931e-19)
(3.3568404 0.31808742 0)
(4.9565846 0.22127115 6.2046906e-19)
(6.56631 0.14058178 2.2825927e-22)
(8.1694235 0.08261578 -5.6676271e-19)
(9.7511623 0.046061062 -5.2835518e-22)
(11.308786 0.022925885 -2.5130182e-22)
(12.8479 0.0037042194 4.8747296e-19)
(14.378299 -0.015663923 -4.6075604e-19)
(15.917354 -0.041747704 8.4661964e-22)
(17.483343 -0.082142901 0)
(19.08539 -0.13811704 3.7900624e-19)
(20.725328 -0.21416639 -7.0248522e-19)
(22.392883 -0.30593984 3.2648395e-19)
(24.071428 -0.41193589 2.9926245e-19)
(25.736265 -0.52380821 -2.7558984e-19)
(27.370469 -0.6332718 0)
(28.95841 -0.73631911 2.3131097e-19)
(30.496719 -0.825871 -2.1145624e-19)
(31.975204 -0.91266229 -1.9328652e-19)
(33.40365 -0.98711775 1.7876251e-19)
(34.802998 -1.0637365 1.6176744e-19)
(36.184783 -1.1324139 -2.2812127e-21)
(37.573292 -1.1931578 -1.2867184e-19)
(38.978811 -1.2441104 0)
(40.397043 -1.2780995 7.0668011e-22)
(41.762357 -1.2869702 0)
(43.016022 -1.2554838 -1.7282732e-21)
(44.113886 -1.2038955 -2.1657382e-20)
(45.05178 -1.1423965 1.7585067e-20)
(45.858133 -1.0719446 0)
(46.555276 -0.9887363 0)
(47.167053 -0.896186 1.1662862e-20)
(47.710561 -0.80100913 -1.3137851e-21)
(48.200322 -0.7080486 -9.5256781e-21)
(48.644493 -0.62146029 -8.1027285e-21)
(49.06 -0.54340701 7.8465548e-21)
(49.440164 -0.47366543 -6.2528832e-21)
(49.801994 -0.41029297 -5.925538e-25)
(50.127672 -0.35194814 5.985335e-21)
(50.435826 -0.29489666 0)
(50.696036 -0.2415233 -2.5577839e-21)
(50.944055 -0.20455369 -3.6141236e-21)
(51.130592 -0.16704529 -5.4733301e-22)
(51.326814 -0.12807527 1.3623147e-21)
(51.42984 -0.096977912 -2.6566857e-22)
(51.581315 -0.070411505 1.1489387e-21)
(51.611784 -0.044502537 0)
(51.707046 -0.030072608 9.7502893e-23)
(-6.5362313 -0.13814729 6.7830667e-19)
(-7.0799453 0.064911221 6.215772e-19)
(-7.4630368 0.21951235 -5.8198897e-19)
(-7.6793427 0.31746135 5.4758316e-19)
(-7.7393719 0.35328576 -1.0618607e-18)
(-7.6144349 0.35549171 5.1392784e-19)
(-7.3003868 0.3403508 4.9001328e-19)
(-6.7799353 0.27502443 -4.6630635e-19)
(-6.0590001 0.18406309 0)
(-5.1486768 0.075187591 0)
(-4.0651006 -0.043446024 -1.4709011e-22)
(-2.8219334 -0.16275244 0)
(-1.4661998 -0.27433765 1.7767885e-22)
(0.0097947248 -0.37825469 3.4758379e-19)
(1.5568331 -0.46702006 3.3128819e-22)
(3.1669952 -0.53844327 -3.1702655e-19)
(4.8154182 -0.58864707 -3.0307918e-19)
(6.47343 -0.61432469 2.897623e-19)
(8.1260592 -0.61433132 0)
(9.7603516 -0.59590201 0)
(11.374466 -0.56836613 1.22287e-22)
(12.975463 -0.54429394 -4.6324592e-22)
(14.575472 -0.52856168 -2.2384563e-19)
(16.190782 -0.52730358 4.2069435e-19)
(17.837405 -0.54551182 4.0584092e-23)
(19.519936 -0.58081629 -1.836793e-19)
(21.234675 -0.63537882 -1.7056151e-19)
(22.966087 -0.70231304 3.1437555e-19)
(24.693695 -0.78021503 5.8319215e-22)
(26.391651 -0.86111325 -2.6569855e-19)
(28.042956 -0.93926195 1.2171948e-19)
(29.634703 -1.0116938 -1.1134273e-19)
(31.164972 -1.0729139 1.0173936e-19)
(32.627581 -1.1336908 9.2969971e-20)
(34.034072 -1.1872358 -8.5798383e-20)
(35.406688 -1.2467314 7.6853086e-20)
(36.758181 -1.301911 -1.3975861e-19)
(38.111901 -1.3520907 6.1670904e-20)
(39.476687 -1.3933088 5.2415419e-20)
(40.845159 -1.414694 -8.6823412e-20)
(42.153698 -1.4063024 3.391419e-20)
(43.351993 -1.3552227 2.6209631e-20)
(44.399226 -1.2844096 1.5552291e-24)
(45.295194 -1.2068179 -1.6616778e-20)
(46.066802 -1.1238016 0)
(46.735075 -1.0308838 -1.2093456e-20)
(47.322286 -0.93094637 2.1911061e-20)
(47.844666 -0.83007867 -5.0859541e-21)
(48.315869 -0.73266449 -4.4583638e-21)
(48.743965 -0.64269372 -3.7859494e-22)
(49.144831 -0.56184591 2.2881891e-22)
(49.51244 -0.48977043 -4.1614656e-21)
(49.862479 -0.42428171 -2.7892847e-25)
(50.178349 -0.3639926 2.781399e-21)
(50.476856 -0.30499855 0)
(50.730185 -0.24993487 -2.0759672e-21)
(50.970766 -0.21206813 2.9186236e-21)
(51.152224 -0.17368618 -3.591262e-22)
(51.34266 -0.13260559 1.5392247e-22)
(51.442623 -0.1003298 3.0624278e-22)
(51.589259 -0.072537159 0)
(51.618593 -0.046127314 1.8401066e-23)
(51.710552 -0.030226765 -5.8759315e-24)
(-6.4960049 0.81697174 -1.6930633e-19)
(-7.0392395 0.72772006 -1.4437201e-28)
(-7.4166877 0.59585149 -1.4501805e-19)
(-7.6199366 0.4633514 4.0882128e-19)
(-7.6594551 0.32215377 6.1249423e-23)
(-7.4956153 0.13968638 -2.552015e-19)
(-7.1335776 -0.082745337 1.215293e-19)
(-6.5677516 -0.31934957 -1.1548776e-19)
(-5.8025122 -0.5416555 0)
(-4.8486217 -0.75021052 1.0425364e-19)
(-3.7259144 -0.93724367 -1.9806977e-19)
(-2.4485377 -1.0960306 1.8751225e-19)
(-1.0716662 -1.2169003 -8.9462432e-20)
(0.43472242 -1.3145653 -8.5371701e-20)
(1.9987441 -1.3791679 -4.1222307e-23)
(3.6310142 -1.4144356 -1.1215914e-22)
(5.2939051 -1.4173789 7.4296816e-20)
(6.9693852 -1.3885146 -6.9271729e-23)
(8.6425686 -1.3314493 0)
(10.302811 -1.2571876 -4.7960436e-28)
(11.949575 -1.1801893 1.2235407e-19)
(13.591519 -1.1142226 -1.1562522e-19)
(15.240627 -1.0641333 1.0902112e-19)
(16.909431 -1.0350753 -1.5347176e-19)
(18.609329 -1.029218 -9.968775e-24)
(20.338746 -1.0405396 4.445723e-20)
(22.088378 -1.0693232 -1.6085316e-22)
(23.839316 -1.1069848 -3.8144135e-20)
(25.570195 -1.1527017 6.9890667e-20)
(27.257039 -1.1993399 3.3549175e-24)
(28.885172 -1.243796 -2.9357999e-20)
(30.44553 -1.2840905 2.6843732e-20)
(31.938103 -1.3160363 -2.452049e-20)
(33.360146 -1.3504665 -2.2401612e-20)
(34.724797 -1.3829174 2.0629229e-20)
(36.053577 -1.4252443 1.8652964e-20)
(37.360426 -1.4669578 -1.6813503e-20)
(38.666929 -1.5064626 1.7655907e-27)
(39.980248 -1.5376302 1.9687879e-22)
(41.291045 -1.5461865 -1.225356e-27)
(42.538068 -1.5209969 1.9236029e-27)
(43.679183 -1.4509565 6.220933e-21)
(44.675413 -1.3617526 -9.7114928e-21)
(45.529765 -1.2688793 7.8574813e-21)
(46.267183 -1.1739217 -6.6294192e-21)
(46.907186 -1.0717489 2.7105078e-21)
(47.470464 -0.96473885 2.573267e-21)
(47.972361 -0.85839568 1.4484964e-22)
(48.425679 -0.75668176 2.7620607e-25)
(48.838327 -0.66343371 -2.0046319e-21)
(49.2252 -0.57987317 -2.1350879e-22)
(49.580821 -0.50552796 -1.5510229e-21)
(49.919657 -0.43797854 1.4111442e-21)
(50.226194 -0.37579129 0)
(50.515587 -0.31490214 0)
(50.76235 -0.2581774 -2.7518466e-22)
(50.9959 -0.21928906 -2.7656075e-22)
(51.172569 -0.18006608 1.0690407e-22)
(51.357566 -0.13703809 -1.388299e-22)
(51.454626 -0.10360454 -1.1310299e-22)
(51.596683 -0.074608598 2.4666191e-27)
(51.624978 -0.047726277 1.7390006e-23)
(51.713833 -0.030355662 0)
(-6.1521264 1.7129218 -3.4127007e-19)
(-6.6265025 1.3451024 1.4465727e-28)
(-6.9349167 0.97259107 -1.4507383e-19)
(-7.0686051 0.60790461 2.7693155e-19)
(-7.0184641 0.2056289 2.4930573e-23)
(-6.7675164 -0.19473403 7.781036e-23)
(-6.320201 -0.58562924 5.1597912e-23)
(-5.67889 -0.96300931 -1.1435436e-19)
(-4.8538578 -1.3058354 0)
(-3.8484458 -1.607657 1.0265009e-19)
(-2.695586 -1.8515069 -1.9435836e-19)
(-1.4229635 -2.0287789 1.8488129e-19)
(-0.017906903 -2.1683984 -8.8230964e-20)
(1.4824944 -2.2556636 -8.4119362e-20)
(3.0440161 -2.2939694 -4.0497952e-23)
(4.6619458 -2.2914034 -1.1032976e-22)
(6.3079767 -2.2471657 1.4611212e-19)
(7.9702368 -2.166055 -6.9655423e-20)
(9.6357336 -2.0547766 0)
(11.29674 -1.9283846 6.1728089e-23)
(12.953993 -1.8047246 -1.170831e-22)
(14.616609 -1.6989425 5.6659237e-20)
(16.294044 -1.6150111 1.2969423e-23)
(17.992724 -1.5568445 -9.9917976e-20)
(19.717806 -1.5239608 -9.8799404e-24)
(21.461018 -1.5070778 4.3245784e-20)
(23.208427 -1.5054935 0)
(24.940035 -1.5097443 -3.6836957e-20)
(26.636171 -1.5201153 6.7677481e-20)
(28.276683 -1.5304729 3.3261428e-24)
(29.850519 -1.540214 -5.6774215e-20)
(31.352797 -1.5481212 -1.683777e-24)
(32.785435 -1.5509618 -1.0565463e-24)
(34.148453 -1.5596032 1.6849775e-22)
(35.456329 -1.5714111 -3.7803849e-26)
(36.728327 -1.5970345 3.6004638e-20)
(37.979641 -1.6256257 2.5255166e-22)
(39.229527 -1.654629 -1.4034399e-20)
(40.483358 -1.675798 0)
(41.730655 -1.6716861 1.1720082e-27)
(42.913077 -1.6307195 -3.8149213e-21)
(43.996243 -1.5424938 1.1226591e-20)
(44.941676 -1.4357961 -9.0677955e-21)
(45.755098 -1.3285092 3.717581e-21)
(46.459084 -1.2222498 7.4598143e-28)
(47.071544 -1.1112896 0)
(47.611603 -0.99753044 2.5685477e-21)
(48.09371 -0.88593521 -2.168056e-21)
(48.529838 -0.78008096 1.2205332e-22)
(48.927681 -0.68366498 -1.7630537e-21)
(49.30121 -0.59747703 1.5934802e-21)
(49.645414 -0.5209293 -1.4451262e-21)
(49.97363 -0.45137745 1.3133305e-21)
(50.271309 -0.38734116 0)
(50.552107 -0.32460578 1.3781783e-22)
(50.792615 -0.26624908 -2.5545179e-22)
(51.019539 -0.22624679 2.7025804e-22)
(51.191694 -0.18620715 1.2727709e-26)
(51.371585 -0.14135802 -3.7610631e-22)
(51.465896 -0.10680379 -5.2284106e-23)