/*--------------------------------*- C++ -*----------------------------------*\
| =========                 |                                                 |
| \\      /  F ield         | OpenFOAM: The Open Source CFD Toolbox           |
|  \\    /   O peration     | Version:  2406                                  |
|   \\  /    A nd           | Website:  www.openfoam.com                      |
|    \\/     M anipulation  |                                                 |
\*---------------------------------------------------------------------------*/
FoamFile
{
    version     2.0;
    format      ascii;
    arch        "LSB;label=32;scalar=64";
    class       volScalarField;
    location    "0.015";
    object      nut;
}
// * * * * * * * * * * * * * * * * * * * * * * * * * * * * * * * * * * * * * //

dimensions      [0 2 -1 0 0 0 0];

internalField   nonuniform List<scalar> 
35803
(
0.037682736
0.041436702
0.045824363
0.050820452
0.05641733
0.062587452
0.069273303
0.076382435
0.083774694
0.091223797
0.098331596
0.10450127
0.10884263
0.11004427
0.10623802
0.095019993
0.073914561
0.043772897
0.019382249
0.0095502872
0.0070104363
0.0059820189
0.0054624703
0.0051231822
0.0048179538
0.0045427645
0.0043832913
0.0042195991
0.004178473
0.0040775697
0.0040332445
0.042432136
0.046218339
0.050489675
0.055302831
0.060675757
0.066591937
0.072998234
0.079800152
0.08685491
0.093929338
0.10062548
0.10632351
0.11011925
0.1106848
0.10613965
0.094092212
0.072235872
0.041970673
0.018102471
0.0092896456
0.0069196337
0.0059399015
0.0054362071
0.0051055059
0.004807234
0.0045366543
0.0043808394
0.0042183262
0.0041773816
0.0040770903
0.0040333661
0.048024348
0.051707622
0.0558304
0.06044229
0.065566323
0.07119327
0.077275431
0.083719626
0.090378059
0.097009805
0.10321126
0.10834856
0.11149907
0.11131596
0.10590625
0.092896746
0.070165255
0.03976265
0.016934962
0.0090001683
0.0068698581
0.00591303
0.005417822
0.0050927788
0.0047999645
0.0045328457
0.0043795793
0.0042172006
0.0041765184
0.004076833
0.0040334924
0.05456137
0.058049569
0.061957052
0.06631863
0.071150192
0.076441313
0.082145684
0.088170373
0.094361903
0.10047033
0.10608312
0.11055453
0.11294202
0.11187773
0.1054569
0.091332642
0.067599635
0.037111962
0.01578567
0.008734586
0.0067960452
0.0058714408
0.0053901414
0.0050733901
0.0047881051
0.0045269715
0.0043776127
0.0042159843
0.0041752081
0.0040763805
0.0040336291
0.062115914
0.065347138
0.068973592
0.073021962
0.07750062
0.082394112
0.087653375
0.093182789
0.098821887
0.10430995
0.10922357
0.11290424
0.11438878
0.1122867
0.10468346
0.089268687
0.064409922
0.033996558
0.014618441
0.0084639421
0.0067232607
0.0058300539
0.0053624464
0.005053856
0.0047770435
0.0045215251
0.0043756765
0.0042144826
0.0041738501
0.0040759515
0.0040337841
0.070723737
0.073639813
0.076928288
0.080599937
0.084657375
0.089079843
0.093813586
0.098757596
0.10374254
0.1084951
0.11257891
0.11532126
0.11573735
0.11241331
0.10342922
0.086525853
0.06043484
0.030434515
0.013430464
0.0082077581
0.0066377616
0.0057790259
0.0053284212
0.0050294576
0.0047645633
0.0045148556
0.0043727692
0.0042126815
0.0041721898
0.0040753842
0.0040339533
0.080351674
0.082892685
0.085793539
0.089027632
0.092592818
0.096463464
0.1005803
0.10483507
0.10904777
0.11293076
0.11603241
0.11766385
0.11681769
0.11205711
0.10146581
0.082858846
0.055480307
0.026489267
0.01224231
0.0079672948
0.0065459756
0.0057237198
0.0052918505
0.0050030617
0.0047537001
0.0045085218
0.004369568
0.0042103976
0.0041704016
0.0040747684
0.0040341355
0.090832097
0.092974647
0.095434139
0.098168149
0.101168
0.10440157
0.10780223
0.11125244
0.11455977
0.11742067
0.11936587
0.11968782
0.11735593
0.11091288
0.098462387
0.077935254
0.049334403
0.022302225
0.011088925
0.0077217467
0.0064418532
0.0056589851
0.0052495507
0.0049721397
0.0047413801
0.004501238
0.0043655416
0.0042078479
0.0041682939
0.0040740067
0.0040343272
0.10184169
0.10355711
0.10552815
0.10770346
0.11006641
0.11257634
0.11515691
0.11767903
0.11993593
0.1216063
0.12220079
0.12099036
0.11692131
0.10852182
0.093942713
0.071315243
0.041833061
0.018765275
0.010037966
0.0074861151
0.0063285851
0.005587744
0.005203847
0.0049378944
0.0047267353
0.0044930274
0.0043610256
0.0042048438
0.0041659338
0.0040731247
0.004034521
0.11278828
0.11404676
0.11548361
0.11704302
0.11869824
0.12039753
0.12205217
0.12351887
0.12457383
0.12487534
0.12391086
0.12092707
0.11484891
0.1042034
0.087236188
0.062436813
0.033017349
0.015463207
0.0090917287
0.0072463076
0.0062025502
0.0055066817
0.0051525614
0.0048987074
0.0047069195
0.0044827568
0.004355379
0.0042015279
0.0041630489
0.0040720412
0.0040347054
0.12263422
0.12340923
0.12427023
0.12516079
0.1260422
0.12684943
0.12747837
0.12776808
0.12747398
0.12623016
0.12349718
0.11849463
0.11013202
0.096965582
0.077419119
0.050672174
0.02387025
0.012509969
0.0083094441
0.0070106522
0.006067051
0.0054180365
0.0050971162
0.0048564673
0.0046840154
0.0044708328
0.0043491016
0.0041977916
0.0041596808
0.0040707461
0.0040348676
0.12966593
0.12994211
0.13019954
0.13038267
0.13043928
0.1302894
0.12981134
0.1288226
0.12705331
0.12410913
0.11941927
0.11217269
0.10128161
0.085406316
0.063280367
0.035679596
0.017514034
0.010276124
0.007864787
0.006771459
0.0059201989
0.005319685
0.0050363408
0.0048082771
0.0046586723
0.0044568949
0.004341447
0.0041939069
0.0041558826
0.0040691604
0.0040349943
0.1311916
0.13095791
0.13059806
0.13006435
0.1292839
0.12815482
0.12653316
0.12421129
0.12089153
0.1161496
0.10937737
0.099721457
0.086162586
0.067675241
0.043474207
0.021953294
0.012511145
0.0086369726
0.0073865631
0.0065248114
0.005764599
0.0052164268
0.0049720129
0.0047549204
0.0046291055
0.004441224
0.0043326282
0.0041887849
0.0041520765
0.0040672509
0.004035074
0.12300393
0.12227588
0.12132703
0.12011013
0.11853702
0.11648354
0.11377618
0.11017619
0.10535759
0.098872782
0.090048783
0.077907785
0.061847972
0.04200833
0.024904057
0.014132302
0.0094675061
0.0079561806
0.0070457962
0.0062952371
0.0055982292
0.0051098816
0.0049018832
0.0046958175
0.004594164
0.0044249013
0.0043229451
0.0041822251
0.0041477558
0.0040649604
0.0040350984
0.098862523
0.09775531
0.096353492
0.094605988
0.09240189
0.089594098
0.085991404
0.081336045
0.075319737
0.06760839
0.058136559
0.047335218
0.035273314
0.023367622
0.014315563
0.0097549527
0.0081320333
0.0073973928
0.0065850132
0.0060409505
0.0054331324
0.0050031638
0.0048240036
0.0046342317
0.0045559029
0.0044066374
0.0043122035
0.0041748356
0.004141747
0.0040622651
0.004035067
0.062765403
0.061753015
0.060526565
0.059052044
0.057222165
0.054908842
0.051990978
0.048325887
0.043783607
0.038286314
0.031875136
0.025013699
0.018542094
0.012955625
0.0093698339
0.0079921222
0.0075353263
0.0068123985
0.0062751816
0.005817002
0.0052698942
0.004907323
0.0047301324
0.0045744782
0.0045131691
0.0043827042
0.0042983136
0.0041663141
0.0041340689
0.0040584719
0.0040350028
0.032017632
0.031565187
0.03095796
0.030177089
0.029176943
0.027908991
0.026325385
0.024360456
0.021966865
0.019182672
0.016121364
0.013026568
0.010392003
0.0083684781
0.007450678
0.0073052138
0.0066896528
0.0064060072
0.0058227134
0.0055061011
0.0051326061
0.0047887696
0.0046187871
0.0045252947
0.0044662994
0.0043593139
0.0042816864
0.0041565525
0.0041264521
0.0040560432
0.0040349304
0.015263606
0.015163188
0.014956297
0.014638089
0.014209064
0.013666322
0.013014635
0.012229805
0.011291458
0.010227436
0.0090581857
0.0079318049
0.007167204
0.0067538861
0.0068160448
0.006299064
0.0062388872
0.0059418643
0.0055866698
0.0053564765
0.0049806702
0.0046637533
0.0045168953
0.0044792629
0.0044126501
0.0043322605
0.0042641784
0.0041459131
0.0041172806
0.0040551647
0.0040349817
0.0083273756
0.0083092186
0.008254626
0.0081613231
0.0080319436
0.0078555513
0.0076319051
0.0073926378
0.0071313485
0.0068544248
0.0065653871
0.0063804294
0.0062243004
0.0061048763
0.0058843149
0.0057656347
0.005552765
0.0054564654
0.0052625908
0.0050197249
0.0047997121
0.0045294307
0.0044304349
0.0044283882
0.0043557003
0.0043006653
0.0042428427
0.0041335936
0.0041072706
0.0040549606
0.0040353211
0.0059394716
0.0059239573
0.0059106511
0.0059001261
0.0058972509
0.0059025414
0.0058856509
0.0058417932
0.0058055705
0.0057249566
0.0056674953
0.0055598036
0.0055223215
0.0054315792
0.0053417406
0.0051750161
0.0051900656
0.0051355797
0.0049445031
0.0048345048
0.0046855208
0.0044427041
0.0043533973
0.0043632257
0.0043008011
0.0042702843
0.00421902
0.0041205911
0.0040969674
0.004055065
0.0040358961
0.0053636581
0.0053593835
0.0053584276
0.0053511935
0.00533581
0.0053198361
0.0053103742
0.0053029546
0.0052799906
0.0052350951
0.0051451455
0.0050907605
0.0050337469
0.0049817301
0.0049040523
0.0049149545
0.0047704842
0.0047248619
0.0047092941
0.0046660866
0.0045260104
0.0043646913
0.0042564848
0.0043081185
0.0042591186
0.0042319018
0.0041939169
0.0041079614
0.0040873899
0.0040563737
0.0040366457
0.0048618384
0.0048502243
0.0048375886
0.0048314542
0.0048350081
0.00483524
0.0048285757
0.0048182786
0.0048065506
0.0047926638
0.0047750613
0.0047690094
0.0047407539
0.0046554449
0.0046333894
0.0045806736
0.0045382226
0.0045041313
0.0044649542
0.0044398866
0.0044030498
0.0042948753
0.0042083357
0.0042503924
0.0042116943
0.0041911025
0.0041699161
0.0040971482
0.0040801132
0.0040609202
0.0040364042
0.0045666634
0.0045697558
0.0045744787
0.0045788351
0.0045777766
0.004577168
0.0045782337
0.0045785668
0.004574785
0.0045609415
0.0045288287
0.0044859493
0.0044633675
0.0044406999
0.0044469941
0.0043922128
0.004332377
0.0043599235
0.0043363037
0.0043188294
0.0042991873
0.0042472695
0.0041698667
0.0041655901
0.0041770474
0.0041617253
0.0041465849
0.0040884118
0.0040756078
0.0040644066
0.0040339729
0.0043543342
0.0043510364
0.004346657
0.0043409841
0.0043392019
0.0043372984
0.0043346317
0.0043310647
0.0043262743
0.0043201592
0.0043121937
0.0043090116
0.0043043805
0.0043028062
0.0042663777
0.0042699745
0.0042402636
0.0042681885
0.0042615116
0.0042493743
0.0042242015
0.0041659224
0.0041278726
0.0041133359
0.0041334471
0.0041263487
0.0041273709
0.0040805274
0.0040708228
0.0040617783
0.0040345205
0.0042096276
0.0042095247
0.0042097468
0.0042108042
0.0042124665
0.0042141584
0.0042158256
0.0042167148
0.004215467
0.0042103206
0.0041981132
0.0041820958
0.0041724696
0.0041632574
0.0041591222
0.0041577722
0.0041592667
0.0041650937
0.0041554463
0.0041666993
0.0041447572
0.0041129157
0.0040974982
0.0040810287
0.0041102613
0.0041043869
0.0041066781
0.0040713013
0.0040681644
0.0040610855
0.0040343426
0.0041268489
0.0041264065
0.0041254622
0.0041239723
0.0041222157
0.004120316
0.0041183695
0.0041163427
0.0041153682
0.0041148845
0.0041142405
0.0041140308
0.0041122547
0.0041118875
0.0041093748
0.0041126812
0.0041059728
0.0041078878
0.0041131153
0.0041042987
0.0041092922
0.0040843403
0.004080089
0.0040636477
0.0040826803
0.0040881023
0.0040879344
0.0040624052
0.0040630118
0.0040557992
0.004040212
0.0040794523
0.0040794905
0.0040792976
0.0040789208
0.0040785749
0.004078375
0.0040783553
0.0040787937
0.0040796871
0.0040809928
0.0040821304
0.0040811203
0.0040783456
0.0040747773
0.0040740894
0.0040724471
0.0040761486
0.0040749455
0.004083581
0.0040795868
0.0040725823
0.0040691254
0.0040614482
0.004054528
0.0040602956
0.0040756632
0.0040703999
0.0040558629
0.004054766
0.0040461588
0.0040384291
0.0040564115
0.0040563446
0.0040561016
0.0040557442
0.0040553679
0.0040549593
0.004054606
0.0040545243
0.0040545407
0.004054618
0.0040545539
0.0040540767
0.0040535431
0.0040538895
0.0040542669
0.0040548066
0.0040547509
0.0040569675
0.0040580635
0.0040635041
0.0040586976
0.004063111
0.004053923
0.0040507348
0.0040515383
0.0040656886
0.0040596342
0.0040503351
0.004047903
0.0040433891
0.0040382113
0.0040466515
0.004046588
0.0040464728
0.0040463316
0.0040462022
0.004046117
0.0040461115
0.0040461919
0.0040463319
0.0040464609
0.004046129
0.0040455783
0.0040451962
0.0040451692
0.0040453421
0.0040459084
0.0040466409
0.0040480017
0.004048671
0.0040496178
0.0040495651
0.004050688
0.0040509294
0.0040466672
0.0040474396
0.0040521154
0.0040521084
0.0040455152
0.0040430403
0.0040404718
0.0040392062
0.0040415605
0.0040414421
0.0040412994
0.0040411481
0.0040410233
0.0040409725
0.0040410495
0.004041294
0.0040416989
0.0040421636
0.0040424095
0.0040423933
0.0040422499
0.004042166
0.0040422855
0.0040427
0.0040435615
0.0040445101
0.004044676
0.0040451626
0.004044695
0.0040457488
0.004046463
0.0040465813
0.0040451824
0.0040454537
0.0040474582
0.0040421532
0.0040394848
0.0040419393
0.0040409808
0.004043469
0.0040434543
0.0040434081
0.0040433274
0.0040432095
0.0040430708
0.0040429283
0.0040427973
0.0040426832
0.0040425777
0.0040424626
0.0040423231
0.0040421755
0.0040420467
0.0040419643
0.0040420072
0.0040422252
0.0040424544
0.0040417647
0.0040421993
0.0040418246
0.004041289
0.0040411351
0.0040465324
0.0040416248
0.0040419046
0.0040438198
0.0040405957
0.0040400795
0.0040408699
0.0040397435
0.0021617368
0.0019464091
0.0020031709
0.0024327708
0.0034641557
0.0059687438
0.0097697438
0.014634513
0.020482006
0.027576268
0.035950758
0.045010124
0.054978188
0.065341377
0.075145662
0.082850013
0.086024624
0.081031028
0.064468814
0.039503596
0.018502558
0.0090955919
0.0064963325
0.0056786534
0.005108862
0.0047072398
0.004476105
0.0042881242
0.0042222684
0.0040922428
0.0040291837
0.0019080533
0.0018200278
0.0021219678
0.0027354245
0.0046075791
0.0077439191
0.011807943
0.016719664
0.022599776
0.029815456
0.038087003
0.047100982
0.05697567
0.067146378
0.076629839
0.083843299
0.086319189
0.080411126
0.062958493
0.037737187
0.01741511
0.008793806
0.0064091301
0.0056507718
0.005093547
0.0046978651
0.0044714447
0.0042856918
0.0042205553
0.0040916743
0.0040291944
0.0017183318
0.0018374064
0.0022155633
0.003339531
0.0057521573
0.0091658262
0.013405399
0.018466811
0.024519735
0.031886814
0.04008412
0.049103795
0.058900353
0.06888216
0.078042075
0.084759942
0.086534522
0.07971652
0.061408061
0.036019333
0.016458355
0.0085044838
0.0063558332
0.0056328803
0.0050835354
0.0046915364
0.0044680075
0.0042839646
0.0042191061
0.004091065
0.0040292069
0.0016284222
0.0019017914
0.0025205972
0.0043087305
0.0070778068
0.010657907
0.01500588
0.020180274
0.026399319
0.033855814
0.042016233
0.051050802
0.060767728
0.070557093
0.079387833
0.085604414
0.086675068
0.078952087
0.059826373
0.034352085
0.0155897
0.0082506449
0.0063002837
0.0056123821
0.0050718523
0.0046842364
0.0044640253
0.00428204
0.0042176288
0.0040904829
0.0040292207
0.0016494748
0.0020119645
0.0032566208
0.0054585501
0.0084462045
0.01214936
0.016601383
0.021892263
0.028304917
0.035743867
0.043914778
0.052956224
0.062585673
0.072175939
0.080670523
0.086379753
0.086743999
0.078121723
0.058221815
0.032735421
0.014790205
0.0080235053
0.0062518374
0.0055938203
0.0050612639
0.0046777564
0.0044603
0.0042803614
0.004216293
0.0040899114
0.0040292363
0.0016884718
0.0025090764
0.0042280289
0.0066986225
0.0098343044
0.013645954
0.018201464
0.023621896
0.030178395
0.037580198
0.045790316
0.054826501
0.064358627
0.07374188
0.081892824
0.087088671
0.086744363
0.077229306
0.056600422
0.031170506
0.014050669
0.0078200066
0.0062067706
0.0055754787
0.0050506177
0.0046712938
0.0044564649
0.0042786858
0.0042150212
0.004089362
0.0040292542
0.0019804609
0.0033133985
0.0053415008
0.0079845275
0.011234938
0.015148993
0.019806828
0.025372738
0.032019396
0.039398175
0.047647579
0.056664402
0.066089065
0.075257054
0.083056852
0.087733593
0.08667909
0.076278877
0.05496761
0.029659563
0.013366633
0.007637792
0.0061655305
0.0055579221
0.0050403412
0.0046651867
0.0044526964
0.0042771064
0.0042138564
0.0040888226
0.0040292742
0.0026591073
0.0043090858
0.006523399
0.0092873294
0.012641326
0.01665628
0.021419623
0.027143815
0.03380205
0.041206534
0.049486226
0.058470728
0.067778323
0.076722928
0.084164356
0.088316767
0.086551056
0.075273803
0.053328801
0.028205408
0.012735496
0.0074748278
0.0061273528
0.0055408745
0.005030207
0.0046592537
0.0044489203
0.0042755391
0.0042127606
0.0040882958
0.0040292962
0.003500529
0.0053621393
0.0077207852
0.010596664
0.014052234
0.018166674
0.023046047
0.028895298
0.035545668
0.043004955
0.051304537
0.060245421
0.06942709
0.078140571
0.085216874
0.088840369
0.086363169
0.074217825
0.051688287
0.026811052
0.012155201
0.0073292956
0.0060919351
0.0055243923
0.0050202662
0.0046535431
0.004445184
0.0042739822
0.0042117305
0.00408778
0.0040293203
0.0044736198
0.006488335
0.0089497974
0.011916463
0.015466035
0.019677533
0.024688545
0.030612024
0.037280953
0.044792506
0.053100542
0.06198804
0.071035693
0.079510819
0.086215841
0.08930657
0.086118414
0.073116259
0.050050958
0.025480879
0.011623707
0.0071995598
0.0060588922
0.0055084142
0.0050104575
0.0046479913
0.0044414788
0.0042723909
0.0042107464
0.0040872753
0.0040293463
0.0055133388
0.0076223022
0.01017057
0.013230536
0.016877506
0.021190499
0.026337585
0.032301836
0.039010486
0.046565372
0.054872236
0.063697986
0.072604269
0.080834397
0.087162664
0.08971759
0.085819871
0.071973588
0.04842158
0.024222773
0.011138762
0.0070843141
0.0060279289
0.0054929336
0.0050007793
0.0046425833
0.0044378244
0.0042707465
0.0042097855
0.0040867819
0.0040293741
0.0065558777
0.0087501072
0.011388973
0.014544139
0.01828756
0.022709471
0.027973637
0.033955113
0.040728367
0.048320211
0.056617923
0.065374627
0.074132871
0.082112
0.088058779
0.090075745
0.085471084
0.070795152
0.046804256
0.023035745
0.010697705
0.0069829535
0.0059987706
0.0054779276
0.00499122
0.0046372822
0.0044342276
0.0042690283
0.0042088324
0.0040863003
0.0040294038
0.0075980728
0.0098766404
0.012605935
0.015854997
0.019692575
0.024236458
0.029565222
0.035596485
0.042433624
0.050054617
0.058336165
0.067017356
0.075621546
0.083344344
0.088905692
0.090383471
0.085076075
0.069586322
0.04520375
0.021913035
0.010297956
0.0068966036
0.0059711704
0.0054633828
0.0049817931
0.0046320682
0.0044307037
0.0042672339
0.0042078774
0.0040858313
0.0040294353
0.0086324808
0.010997312
0.013817644
0.017160124
0.021094091
0.025757911
0.031128338
0.037229972
0.044123158
0.051766381
0.060025701
0.068625624
0.07707038
0.084532211
0.089705003
0.090643309
0.084638273
0.068352401
0.043627513
0.020853805
0.0099368106
0.006819198
0.005944898
0.0054492815
0.0049725234
0.0046269264
0.0044272692
0.0042653725
0.0042069079
0.0040853759
0.0040294686
0.0096593733
0.012111156
0.01502202
0.018457097
0.022494014
0.027260483
0.032677512
0.038851128
0.045793872
0.053453664
0.061685452
0.070198966
0.078479529
0.085676473
0.090458428
0.090857908
0.084161462
0.06709876
0.042081935
0.019858694
0.0096117197
0.006749958
0.0059198417
0.0054356051
0.0049634515
0.0046218575
0.0044239502
0.0042634672
0.0042059206
0.0040849352
0.0040295039
0.010676452
0.013215165
0.016216095
0.019742323
0.023895072
0.028728021
0.034216024
0.040456367
0.04744341
0.055114953
0.063314486
0.071737009
0.079849242
0.086778111
0.091167804
0.091030074
0.083650039
0.065830857
0.040572923
0.018928315
0.0093201385
0.0066876742
0.0058958617
0.0054223303
0.0049546249
0.0046168741
0.0044207784
0.0042615484
0.0042049168
0.0040845102
0.0040295413
0.01168088
0.014306556
0.017397754
0.021018163
0.02528024
0.030171384
0.035738726
0.042042682
0.049069901
0.056748964
0.064912004
0.073239484
0.081179872
0.08783822
0.091835097
0.091162722
0.083108297
0.064554373
0.039105752
0.018062841
0.0090595257
0.0066315105
0.0058728667
0.0054094313
0.0049460921
0.0046119992
0.0044177849
0.00425965
0.0042038992
0.0040841017
0.004029581
0.012669644
0.015382802
0.018564597
0.022285143
0.026640586
0.031596374
0.037243408
0.043608098
0.050671819
0.058354579
0.066477324
0.074706224
0.082471878
0.088858016
0.092462399
0.091259233
0.082540473
0.063275108
0.037685051
0.017261918
0.0088273554
0.006580629
0.0058507713
0.0053968789
0.0049378947
0.00460726
0.0044149852
0.0042578054
0.0042028733
0.0040837092
0.0040296231
0.013640298
0.016442011
0.019714514
0.0235433
0.027969564
0.03300656
0.0387289
0.045151011
0.052247828
0.059930809
0.068009869
0.076137167
0.083725832
0.089838834
0.093051888
0.091322642
0.081950998
0.061998688
0.036314791
0.016524617
0.0086211545
0.0065343459
0.0058295133
0.0053846428
0.0049300649
0.0046026833
0.0044123775
0.0042560434
0.0042018463
0.0040833321
0.0040296681
0.014591691
0.017483235
0.020849194
0.024780174
0.029277178
0.034398453
0.040193358
0.04666993
0.053796722
0.061476767
0.069509158
0.077532346
0.084942409
0.090782126
0.093605873
0.091355754
0.081343197
0.060730647
0.034998345
0.015849428
0.0084385391
0.0064920805
0.0058090406
0.0053726926
0.0049226246
0.0045982928
0.0044099492
0.0042543815
0.004200826
0.0040829703
0.0040297162
0.015522798
0.018505084
0.021969196
0.025990891
0.030565952
0.035770334
0.04163528
0.048163516
0.055317396
0.062991657
0.070974797
0.078891891
0.086122389
0.09168946
0.094126784
0.091362093
0.080720179
0.059476055
0.033738524
0.015234325
0.008277247
0.0064533359
0.0057893118
0.0053609994
0.0049155865
0.0045941094
0.0044076788
0.0042528215
0.0041998191
0.0040826249
0.004029768
0.016433641
0.019507
0.023073404
0.027174335
0.031836069
0.037120734
0.043053302
0.049630523
0.056808826
0.064474757
0.072406468
0.080216014
0.087266645
0.092562515
0.094617823
0.091345299
0.08008602
0.058239559
0.032537533
0.014681044
0.0081351775
0.0064176051
0.0057702931
0.0053495371
0.004908955
0.0045901516
0.0044055378
0.0042513503
0.0041988312
0.0040822955
0.0040298238
0.017324634
0.020490006
0.024155349
0.028336192
0.033085152
0.038448117
0.044446163
0.051069769
0.058270054
0.065925406
0.073803919
0.081505005
0.088376131
0.09340297
0.095081469
0.091309193
0.079444596
0.05702571
0.031397058
0.014185612
0.0080103004
0.0063845018
0.0057519575
0.0053382829
0.0049027281
0.0045864348
0.0044035033
0.0042499482
0.004197867
0.0040819809
0.0040298843
0.018196341
0.021454801
0.02521326
0.029477397
0.034312043
0.0397512
0.045812723
0.052480109
0.059700169
0.067342993
0.075166955
0.082759223
0.089451869
0.094213101
0.095519736
0.091257486
0.078800881
0.055837401
0.030318549
0.013740333
0.0079007456
0.006353743
0.0057342796
0.0053272187
0.0048969005
0.0045829711
0.0044015617
0.0042485985
0.0041969299
0.0040816804
0.0040299501
0.019049271
0.022403507
0.026245458
0.030597866
0.035515718
0.041028761
0.047150797
0.053860411
0.061098303
0.068726946
0.076495423
0.083979079
0.090494964
0.094994684
0.095935775
0.091193935
0.078159937
0.054678086
0.029303392
0.013341262
0.0078049114
0.0063250821
0.0057172353
0.0053163308
0.0048914642
0.0045797685
0.0043997039
0.0042472917
0.0041960227
0.0040813944
0.0040300219
0.019884856
0.023331893
0.027256614
0.03169618
0.036695192
0.042279666
0.04845758
0.055209684
0.062463623
0.07007672
0.0777892
0.085164987
0.091507149
0.095749212
0.096332561
0.091122344
0.077526477
0.05355125
0.028352779
0.012985572
0.0077214441
0.0062983222
0.0057008015
0.0053056111
0.0048864053
0.0045768312
0.0043979239
0.0042460226
0.0041951463
0.0040811215
0.0040301008
0.020704126
0.024240243
0.028247309
0.032771743
0.037849572
0.043503185
0.049734839
0.056527254
0.063795321
0.07139179
0.079048143
0.086317891
0.092489283
0.096478984
0.096713044
0.09104654
0.076904877
0.052459914
0.027467501
0.012670758
0.007649277
0.0062733029
0.0056849569
0.0052950569
0.0048817015
0.0045741565
0.004396217
0.0042447874
0.0041942993
0.0040808608
0.0040301877
0.021508299
0.025128697
0.029217755
0.033823961
0.0389779
0.044698491
0.050984717
0.057812333
0.065092567
0.072671613
0.080272379
0.087438
0.093441929
0.097186061
0.097080181
0.090970343
0.076299261
0.051406729
0.026647847
0.012394407
0.0075878173
0.0062498985
0.0056696833
0.0052846719
0.0048773227
0.0045717312
0.0043945843
0.0042435836
0.0041934791
0.0040806138
0.0040302826
0.022298984
0.02599773
0.030167466
0.034852121
0.040079187
0.045864104
0.052202392
0.05906179
0.066354404
0.073915922
0.081462526
0.088525262
0.09436655
0.097872438
0.09743693
0.090897555
0.075713575
0.050394115
0.025893666
0.012154119
0.0075374821
0.0062280131
0.005654969
0.0052744658
0.0048732412
0.0045695232
0.0043930463
0.0042423952
0.004192683
0.0040803777
0.0040303859
0.023076266
0.026848754
0.031095808
0.035855482
0.041152458
0.046998827
0.053386304
0.06027379
0.067580206
0.075124912
0.082617813
0.089580527
0.09526437
0.098540121
0.097786222
0.090831945
0.075151625
0.049424289
0.025204467
0.011947383
0.0074938916
0.0062075663
0.0056408146
0.0052644567
0.0048694338
0.0045674753
0.0043916114
0.0042412162
0.0041919068
0.0040801533
0.0040304915
0.02383996
0.027682472
0.032002572
0.036833358
0.042196694
0.048101483
0.054536144
0.061455563
0.068769712
0.076297213
0.083737367
0.090604231
0.096136546
0.099191082
0.098130945
0.090777244
0.074617109
0.048499286
0.024579474
0.01177145
0.0074559775
0.006188139
0.0056272298
0.0052546707
0.0048658272
0.004565559
0.0043902761
0.0042400465
0.0041911488
0.00407994
0.0040305983
0.024590341
0.028498812
0.032887331
0.037785122
0.043211276
0.049171494
0.055651088
0.062600818
0.069919057
0.077431374
0.0848214
0.091596679
0.096984177
0.099827231
0.098473921
0.090737131
0.074113641
0.047620944
0.024025521
0.011621586
0.0074168749
0.0061696128
0.0056142232
0.0052451392
0.0048623517
0.004563731
0.0043890415
0.00423888
0.0041904059
0.0040797378
0.0040307116
0.025330286
0.029300012
0.033751683
0.038711645
0.044196635
0.050208981
0.056730584
0.063707313
0.071033354
0.078524492
0.085869588
0.092558177
0.097808278
0.10045039
0.098817889
0.090715201
0.073645043
0.046798365
0.023529997
0.011478747
0.007378667
0.0061520169
0.0056018059
0.0052358948
0.0048589539
0.0045619572
0.0043879048
0.0042377119
0.0041896731
0.0040795463
0.0040308297
0.026059218
0.030085847
0.034595687
0.039612689
0.04515134
0.051212134
0.057771364
0.064772584
0.072106507
0.079581263
0.086881843
0.093488981
0.098609767
0.10106226
0.099165452
0.090715213
0.073215692
0.046037671
0.023084431
0.011342742
0.0073412211
0.0061353304
0.0055899857
0.0052269671
0.0048556185
0.0045602107
0.0043868627
0.0042365366
0.0041889431
0.0040793652
0.0040309522
0.026769631
0.030850394
0.035414596
0.040484468
0.046072209
0.052176387
0.058770534
0.065795689
0.073137677
0.080599108
0.087854888
0.094389156
0.099389451
0.10166443
0.099519043
0.090740495
0.072830281
0.045343022
0.022684332
0.011212823
0.0073048315
0.006119548
0.0055787603
0.0052183789
0.0048523466
0.0045584857
0.0043859119
0.0042353527
0.0041882093
0.0040791942
0.0040310791
0.027449129
0.031580936
0.03619678
0.041317415
0.046952893
0.05309846
0.059727189
0.066775424
0.074125815
0.081575996
0.088794835
0.09525487
0.10014788
0.10225833
0.099880963
0.090794035
0.072493533
0.044717243
0.02232532
0.011088343
0.0072696299
0.0061046575
0.0055681143
0.005210143
0.0048491346
0.0045567946
0.004385051
0.0042341639
0.0041874688
0.0040790327
0.0040312104
0.02810935
0.032283798
0.03694462
0.042111268
0.047791538
0.053977754
0.060639542
0.067710488
0.075069875
0.082510992
0.089697323
0.096095107
0.10088094
0.10284508
0.10025334
0.090878952
0.07221
0.044162356
0.022003498
0.010968693
0.0072357645
0.0060906478
0.0055580183
0.0052022605
0.004845986
0.0045551618
0.0043842776
0.0042329821
0.0041867235
0.0040788802
0.004031345
0.028762878
0.032969775
0.037666495
0.042871557
0.048590657
0.054813549
0.061506387
0.068599557
0.075968712
0.083403187
0.09056162
0.096904533
0.10159983
0.10342212
0.10063797
0.09099805
0.071984067
0.043679937
0.021715441
0.010853294
0.0072033654
0.0060775079
0.0055484322
0.005194722
0.0048429453
0.0045536085
0.0043836197
0.0042318259
0.0041859787
0.0040787367
0.0040314829
0.02940944
0.033640479
0.038364435
0.043599942
0.04935111
0.055605631
0.06232669
0.069441309
0.0768211
0.084251557
0.09138705
0.097682738
0.10229861
0.10399895
0.10103543
0.091153848
0.0718199
0.043271411
0.021458083
0.010741578
0.0071725677
0.0060652289
0.0055393105
0.0051875102
0.0048400457
0.0045521567
0.0043831241
0.004230719
0.0041852392
0.0040786023
0.0040316231
0.030046644
0.034294672
0.039038072
0.044296408
0.050072806
0.056353503
0.063099388
0.070234391
0.077625731
0.085054968
0.092172817
0.098429357
0.10297729
0.10457132
0.10145006
0.09134867
0.071721393
0.042938319
0.021228581
0.01063297
0.0071435205
0.006053805
0.0055306094
0.0051806027
0.0048372607
0.0045508462
0.0043828296
0.004229698
0.0041845082
0.0040784764
0.004031766
0.030672295
0.034930534
0.039686149
0.044960096
0.050755024
0.057056314
0.063823321
0.070977384
0.07838121
0.085812183
0.092917995
0.099143863
0.10363586
0.10513972
0.1018814
0.091583558
0.071692082
0.042682533
0.02102416
0.010526873
0.0071164021
0.0060432338
0.0055222934
0.005173975
0.0048346078
0.0045496838
0.0043826804
0.0042287866
0.0041837871
0.0040783581
0.0040319109
0.031284967
0.035546538
0.04030733
0.045589865
0.051396745
0.057712986
0.06449726
0.071668795
0.079086034
0.086521866
0.093621523
0.099825571
0.10427406
0.10570442
0.10233037
0.091862283
0.071735123
0.042506482
0.020841947
0.010422647
0.0070914361
0.0060335165
0.0055143396
0.0051676037
0.0048321648
0.0045486521
0.0043823908
0.0042278959
0.004183076
0.0040782462
0.0040320572
0.031883948
0.036141706
0.040900527
0.046184603
0.051996882
0.058322342
0.065119996
0.072307019
0.079738486
0.087184608
0.0942859
0.10047795
0.10489567
0.1062692
0.10280087
0.092187982
0.071854685
0.042413433
0.020678768
0.010319581
0.0070689092
0.0060246558
0.0055067373
0.0051614676
0.0048299537
0.0045477421
0.0043816734
0.0042267829
0.0041823781
0.00407814
0.0040322047
0.032469141
0.036715599
0.041464943
0.046743306
0.052554372
0.058883177
0.065689999
0.072895956
0.080347443
0.087802308
0.094904676
0.10109084
0.10549104
0.1068259
0.10328606
0.092554782
0.072049683
0.042407702
0.020530887
0.010216857
0.0070491907
0.006016654
0.0054994875
0.0051555491
0.0048280191
0.0045469374
0.0043808833
0.0042253013
0.004181703
0.0040780391
0.0040323536
0.033041128
0.037268264
0.041999981
0.047265051
0.053068153
0.059395065
0.066214449
0.073434558
0.080892593
0.088360068
0.09547544
0.10166807
0.10606424
0.10737842
0.10378995
0.092966935
0.072323447
0.04249498
0.020393647
0.010113499
0.0070329149
0.0060095197
0.0054926058
0.0051498415
0.0048263418
0.0045462921
0.004380738
0.0042237286
0.0041810666
0.0040779423
0.004032503
0.033601589
0.037800279
0.042505145
0.047748972
0.053536669
0.059861732