/*--------------------------------*- C++ -*----------------------------------*\
| =========                 |                                                 |
| \\      /  F ield         | OpenFOAM: The Open Source CFD Toolbox           |
|  \\    /   O peration     | Version:  2406                                  |
|   \\  /    A nd           | Website:  www.openfoam.com                      |
|    \\/     M anipulation  |                                                 |
\*---------------------------------------------------------------------------*/
FoamFile
{
    version     2.0;
    format      ascii;
    arch        "LSB;label=32;scalar=64";
    class       volScalarField;
    location    "0.015";
    object      p;
}
// * * * * * * * * * * * * * * * * * * * * * * * * * * * * * * * * * * * * * //

dimensions      [1 -1 -2 0 0 0 0];

internalField   nonuniform List<scalar> 
35803
(
101152.29
101073.79
101030.81
100975.24
100919.16
100871.45
100835.55
100813
100803.72
100804.28
100815.25
100843.47
100883.45
100937.49
100996.41
101068.85
101138.92
101211.36
101245.63
101278.36
101304.06
101322.73
101345.68
101363.58
101405.17
101408.52
101427.91
101426.17
101440.21
101459.48
101441.11
101328.27
101257.01
101187.69
101112.45
101042.3
100982.33
100934.85
100901.75
100884.2
100874.51
100875.57
100894.74
100927.31
100974.15
101026.81
101091.99
101153.87
101221.23
101252.81
101284.66
101308.84
101326.56
101348.69
101366.15
101409.4
101411.68
101429.83
101427.47
101441.2
101460.03
101441.63
101431.04
101370.85
101296.49
101214.61
101138.01
101070.96
101015.95
100975.66
100949.06
100931.83
100923.03
100934.6
100960.86
101001.96
101050.98
101112.7
101170.39
101232.54
101262.14
101292.16
101314.48
101331.11
101352.22
101369.19
101413.71
101414.92
101431.55
101428.85
101442.39
101460.64
101441.99
101519.16
101464.28
101391.6
101307.96
101227.47
101155.12
101093.2
101044.41
101008.57
100983.91
100969.43
100974.08
100994.22
101029.76
101075.61
101134.43
101188.95
101245
101273.37
101300.75
101320.97
101336.35
101356.26
101372.74
101418.08
101418.44
101433.26
101430.4
101443.81
101461.33
101442.14
101603.7
101552.32
101482.65
101399.65
101317.4
101241.48
101174.16
101117.89
101073.82
101041.76
101021.74
101019.36
101033.05
101062.56
101104.72
101159.63
101210.21
101258.76
101286.53
101310.54
101328.42
101342.4
101360.89
101376.88
101422.39
101422.46
101435.33
101432.32
101445.49
101462.12
101442.46
101680.21
101632.25
101566.53
101486.25
101404.66
101327.46
101256.91
101195.34
101144.68
101105.91
101079.93
101070.56
101077.6
101100.78
101138.89
101188.8
101234.44
101274.45
101301.74
101321.7
101336.97
101349.39
101366.17
101381.67
101426.35
101426.86
101438.1
101434.81
101447.46
101462.98
101443.13
101744.62
101699.8
101639.07
101563.77
101485.56
101409.75
101338.52
101274.14
101218.92
101174.71
101143.14
101127.22
101127.71
101144.52
101178.43
101222.17
101261.83
101292.95
101319.03
101334.45
101346.77
101357.42
101372.19
101387.18
101429.74
101431.4
101441.78
101437.94
101449.71
101463.92
101444.36
101796.09
101751.54
101695.89
101628.63
101557.24
101485.92
101416.87
101352.37
101294.98
101247.09
101210.95
101189.3
101183.61
101194.25
101223.88
101259.98
101292.6
101315.59
101338.37
101349.01
101357.99
101366.64
101379.06
101393.45
101432.71
101436.04
101446.67
101441.7
101452.27
101464.95
101446.3
101833.36
101791.95
101742
101683.31
101620.09
101555.27
101490.78
101428.73
101371.65
101322.17
101282.95
101256.75
101245.58
101250.51
101275.42
101303.15
101326.7
101343.3
101359.73
101365.58
101370.85
101377.13
101386.9
101400.56
101435.72
101440.91
101453.13
101446.07
101455.13
101466.14
101448.95
101864.14
101824.77
101780.89
101730.32
101675.46
101618.25
101560.04
101502.58
101448.1
101399.21
101358.7
101329.41
101313.8
101313.76
101333.71
101352.07
101364.3
101375.69
101383.32
101384.33
101385.58
101389.03
101395.89
101408.57
101439.26
101446.15
101461.98
101451.02
101458.27
101467.66
101452.21
101887.64
101852.38
101813.54
101770.11
101724.09
101675.76
101625.37
101574.21
101524.26
101477.93
101437.95
101407.18
101388.45
101384.52
101399.15
101406.39
101407.26
101411.32
101409.52
101405.39
101402.4
101402.49
101406.19
101417.55
101443.73
101451.87
101473.3
101456.46
101461.67
101469.76
101456.05
101897.83
101883.12
101854.72
101816.29
101775.85
101734.37
101690.91
101646.1
101601.47
101558.98
101521
101490.31
101470.02
101463.41
101471.2
101465.83
101455.74
101448.8
101438.51
101428.85
101421.53
101417.71
101417.95
101427.6
101449.47
101458.24
101484.47
101462.3
101465.3
101472.62
101460.53
101921.82
101911.15
101893.43
101867.87
101835.15
101798.42
101760.04
101720.83
101681.61
101643.73
101609.08
101580.15
101559.98
101550.89
101547.56
101528.87
101506.51
101487.85
101469.88
101454.58
101442.93
101434.88
101431.3
101438.86
101456.7
101465.37
101492.52
101468.55
101469.38
101476.23
101465.77
101961.99
101952.15
101932.13
101907.06
101882.13
101855.39
101826.62
101796.24
101764.89
101733.83
101704.91
101679.87
101660.08
101643.25
101621.56
101589.86
101556.84
101527.89
101502.91
101482.39
101466.36
101454.03
101446.41
101451.46
101465.46
101473.33
101497.38
101475.45
101474.38
101480.29
101471.85
102008.53
102005.74
101995.25
101974.09
101947.08
101922.1
101900.81
101879.8
101856.64
101831.65
101806.14
101780.75
101754.63
101723.29
101684.89
101643.56
101603.54
101567.88
101537.33
101511.75
101491.41
101475
101463.39
101465.49
101475.78
101482.24
101501.33
101483.54
101481.11
101484.49
101478.85
102084.3
102088.02
102088.52
102083.56
102069.05
102043.93
102014.49
101984.68
101954.47
101923.94
101892.23
101857.6
101819.71
101778.29
101734.06
101689.25
101646.31
101606.75
101571.87
101542.02
101517.6
101497.48
101482.19
101481.11
101487.71
101491.99
101505.85
101492.81
101490.24
101488.93
101487.37
102092.25
102087.05
102077.37
102064.21
102053.72
102047.29
102040.59
102031.8
102013.58
101983.48
101948.21
101910.78
101868.33
101821.3
101774.12
101728.27
101684.27
101642.88
101605.47
101572.46
101544.59
101520.97
101502.42
101498.59
101501.36
101502.37
101511.86
101502.44
101501.85
101494.11
101499.44
102090.46
102084.27
102076.12
102066.07
102054.44
102040.46
102023.3
102003.19
101985.16
101969.78
101951.63
101931.1
101901.33
101857.04
101808.16
101761.4
101717.59
101675.57
101636.89
101602.09
101571.56
101544.9
101523.8
101518.19
101516.84
101513.54
101519.25
101511.5
101515.28
101500.69
101510.03
102064.26
102059.28
102053.13
102045.83
102037.25
102027.14
102015.14
102001.02
101985.5
101968.8
101948.64
101921.96
101894.68
101869.96
101834.46
101790.96
101746.97
101704.55
101664.98
101629.5
101597.46
101568.54
101546.34
101539.25
101533.87
101525.98
101527.85
101520
101527.68
101509.21
101522.75
102028.46
102024.25
102019.14
102013.15
102006.18
101998.05
101988.56
101977.51
101964.65
101949.54
101931.85
101911.57
101887.89
101863.79
101843.13
101814.57
101773.53
101730.14
101689.45
101653.28
101620.7
101590.96
101569.55
101560.98
101551.54
101539.3
101537.06
101528.38
101537.66
101518.72
101533.14
101994.26
101990.9
101986.81
101982.03
101976.47
101969.99
101962.43
101953.61
101943.33
101931.35
101917.41
101901.13
101882.8
101861.43
101835.84
101811.45
101787.58
101751.91
101711.91
101674.01
101640.65
101611.94
101593.53
101582.83
101568.25
101552.32
101546.26
101536.72
101546.32
101527.03
101541.9
101954.97
101952.23
101948.9
101945.03
101940.55
101935.34
101929.27
101922.21
101914
101904.48
101893.46
101880.79
101866.11
101849.55
101830.97
101807.96
101784.11
101761.6
101728.72
101693.44
101660.34
101633.77
101618.14
101603.65
101584.25
101566.57
101555.69
101545.65
101554.77
101534.57
101554.03
101908.7
101906.69
101904.25
101901.45
101898.24
101894.53
101890.21
101885.15
101879.23
101872.29
101864.15
101854.59
101843.43
101830.38
101815.02
101798.01
101778.84
101756.47
101736.9
101712.68
101684.28
101659.63
101640.83
101620.61
101599.22
101582.77
101568.57
101558.71
101565.61
101548.89
101573.66
101866
101864.61
101862.93
101860.99
101858.72
101856.06
101852.94
101849.3
101845.03
101840.02
101834.14
101827.25
101819.2
101809.81
101798.98
101786.69
101773.1
101760.58
101750.68
101735.66
101712.42
101687.53
101660.74
101634.59
101612.03
101597.8
101584.71
101573.82
101577.95
101567.04
101601.59
101843.43
101842.41
101841.17
101839.73
101838.06
101836.12
101833.86
101831.22
101828.15
101824.58
101820.45
101815.68
101810.19
101803.86
101796.5
101788.22
101778.43
101767.28
101752.92
101738.3
101726.72
101704.47
101677.34
101653.12
101629.93
101610.98
101595.03
101585.03
101592.63
101584.45
101616.54
101820.37
101819.53
101818.53
101817.38
101816.06
101814.53
101812.75
101810.68
101808.27
101805.47
101802.22
101798.44
101794.03
101788.89
101783.01
101776.17
101768.38
101759.07
101747.95
101736.12
101724.1
101711.47
101690.27
101671.2
101652.42
101632.17
101615.25
101606.24
101610.9
101602
101608.58
101793.63
101792.98
101792.19
101791.3
101790.27
101789.06
101787.66
101786.04
101784.16
101781.98
101779.42
101776.4
101772.83
101768.61
101763.59
101757.68
101750.71
101742.96
101734.36
101723.83
101710.68
101699.71
101692.64
101679.84
101666.29
101651.99
101642.37
101634.4
101633.57
101622.89
101646.68
101764.89
101764.5
101764.03
101763.51
101762.9
101762.19
101761.36
101760.39
101759.21
101757.76
101755.98
101753.79
101751.08
101747.74
101743.71
101738.85
101733.17
101726.56
101719.22
101711.87
101704.13
101695.78
101686.28
101676.47
101668.97
101662.82
101658.8
101652.28
101648.99
101637.25
101653.78
101742.17
101741.85
101741.47
101741.03
101740.52
101739.93
101739.23
101738.4
101737.43
101736.31
101735.04
101733.65
101732.13
101730.51
101728.75
101726.85
101724.72
101722.29
101719.13
101715.34
101710.6
101702.49
101694.62
101684.88
101676.04
101670.56
101664.8
101659.3
101656.14
101646.55
101652.24
101735.09
101734.91
101734.69
101734.44
101734.14
101733.8
101733.41
101732.96
101732.44
101731.84
101731.14
101730.34
101729.39
101728.26
101726.89
101725.2
101723.06
101720.34
101716.78
101712.22
101707.9
101704.19
101699.88
101694.13
101686.62
101678.34
101670.69
101665.44
101660.26
101654.61
101654.24
101730.41
101729.97
101729.52
101729.04
101728.55
101728.01
101727.4
101726.72
101725.92
101724.99
101723.88
101722.58
101721.06
101719.31
101717.31
101715.09
101712.61
101709.68
101706.77
101703.34
101696.99
101691.53
101687.04
101684.63
101679.33
101670.01
101662.78
101656.71
101654.96
101654.85
101642.62
100131.29
100135.73
100147.64
100157.85
100170.32
100184.31
100200.97
100218.16
100240.03
100270.5
100311.97
100365.37
100430.56
100506.46
100592.84
100684.41
100784.1
100880.74
100980.52
101064
101118.37
101172.34
101223.14
101263.62
101302.28
101326.26
101353.81
101373.48
101393.18
101395.41
101400.29
100140.99
100155.1
100176.24
100187.63
100200.14
100210.86
100220.24
100232.9
100253.92
100285.33
100328.48
100383.37
100449.62
100525.97
100611.94
100701.87
100799.46
100889.88
100989.82
101065.7
101121.46
101175.48
101225.76
101265.74
101303.96
101327.63
101355.13
101374.63
101394.17
101396.54
101400.49
100153.22
100171.99
100182.44
100186.69
100194.98
100205.84
100217.18
100232.8
100256.7
100290.62
100336
100392.53
100459.94
100536.9
100622.92
100712.27
100809.79
100898.67
100997.96
101068.66
101125.4
101178.91
101228.53
101267.94
101305.69
101329.04
101356.47
101375.77
101395.11
101397.7
101400.64
100163.06
100180.02
100181.44
100184.62
100192.51
100202.15
100213.68
100230.99
100256.92
100292.98
100340.33
100398.42
100467.03
100544.78
100631.16
100720.44
100818.54
100907.59
101005.25
101071.99
101129.61
101182.35
101231.28
101270.14
101307.42
101330.46
101357.82
101376.9
101396.03
101398.86
101400.82
100166.42
100177.3
100176.9
100180.04
100187.64
100196.96
100209.66
100229.05
100257.16
100295.52
100344.84
100404.58
100474.45
100553.05
100639.79
100729.03
100827.54
100916.86
101011.63
101075.3
101133.9
101185.76
101234.03
101272.34
101309.15
101331.89
101359.19
101378.02
101396.93
101400.04
101401.08
100163.68
100168.67
100169.61
100174.16
100181.56
100191.24
100205.6
100227.19
100257.65
100298.43
100349.74
100411.16
100482.28
100561.68
100648.72
100737.89
100836.62
100926.02
101017.59
101078.58
101138.23
101189.15
101236.78
101274.53
101310.88
101333.32
101360.56
101379.14
101397.82
101401.25
101401.41
100158.56
100159.35
100161.36
100166.73
100174.14
100184.83
100201.2
100225.17
100258.18
100301.4
100354.73
100417.83
100490.16
100570.33
100657.61
100746.71
100845.48
100935.09
101024.01
101081.88
101142.6
101192.52
101239.52
101276.72
101312.61
101334.76
101361.95
101380.25
101398.72
101402.51
101401.84
100151.8
100150.66
100152.33
100157.6
100165.54
100177.81
100196.47
100222.98
100258.7
100304.36
100359.74
100424.53
100498.04
100578.94
100666.44
100755.46
100854
100944.13
101031.11
101085.2
101147.01
101195.86
101242.25
101278.91
101314.34
101336.2
101363.34
101381.36
101399.62
101403.81
101402.36
100141.35
100139.3
100140.93
100146.68
100155.91
100170.24
100191.43
100220.69
100259.23
100307.34
100364.82
100431.28
100505.94
100587.55
100675.22
100764.16
100862.52
100952.51
101038.18
101088.69
101151.43
101199.19
101244.98
101281.09
101316.07
101337.65
101364.74
101382.45
101400.53
101405.14
101402.99
100127.77
100125.55
100127.64
100134.41
100145.41
100162.16
100186.11
100218.36
100259.78
100310.39
100370
100438.11
100513.88
100596.16
100683.97
100772.8
100871.08
100960.02
101044.8
101092.58
101155.85
101202.51
101247.69
101283.26
101317.8
101339.1
101366.15
101383.54
101401.47
101406.49
101403.73
100111.05
100109.31
100112.46
100120.81
100134.07
100153.58
100180.58
100216.01
100260.36
100313.53
100375.27
100445
100521.86
100604.78
100692.67
100781.44
100879.6
100967.34
101050.97
101096.87
101160.25
101205.8
101250.4
101285.43
101319.53
101340.56
101367.57
101384.62
101402.42
101407.86
101404.57
100091.25
100090.69
100095.48
100105.95
100121.92
100144.57
100174.89
100213.67
100261.02
100316.8
100380.66
100451.98
100529.87
100613.4
100701.34
100790.16
100887.84
100974.74
101056.7
101101.44
101164.62
101209.08
101253.11
101287.59
101321.26
101342.03
101369
101385.69
101403.39
101409.24
101405.5
100068.48
100069.68
100076.68
100089.86
100109.04
100135.18
100169.14
100211.37
100261.79
100320.21
100386.18
100459.05
100537.93
100622.03
100709.97
100798.96
100895.5
100982.21
101061.99
101106.14
101168.96
101212.35
101255.8
101289.75
101322.99
101343.49
101370.43
101386.76
101404.37
101410.63
101406.52
100042.67
100046.25
100056.12
100072.61
100095.5
100125.52
100163.36
100209.15
100262.73
100323.8
100391.85
100466.21
100546.03
100630.65
100718.57
100807.77
100902.83
100989.65
101066.98
101110.97
101173.26
101215.61
101258.49
101291.91
101324.71
101344.96
101371.87
101387.81
101405.37
101412.04
101407.62
100013.79
100020.45
100033.9
100054.34
100081.42
100115.69
100157.62
100207.08
100263.88
100327.59
100397.66
100473.47
100554.19
100639.27
100727.15
100816.71
100909.96
100996.96
101071.77
101115.93
101177.52
101218.85
101261.16
101294.05
101326.44
101346.43
101373.31
101388.86
101406.37
101413.45
101408.78
99981.878
99992.405
100010.19
100035.21
100066.96
100105.83
100152
100205.25
100265.28
100331.6
100403.65
100480.83
100562.39
100647.9
100735.74
100825.76
100916.86
101004.15
101076.44
101120.97
101181.75
101222.09
101263.83
101296.19
101328.16
101347.91
101374.75
101389.9
101407.38
101414.87
101409.99
99947.039
99962.313
99985.205
100015.42
100052.3
100096.06
100146.62
100203.73
100266.99
100335.87
100409.83
100488.32
100570.64
100656.53
100744.37
100834.9
100924.16
101011.24
101081.04
101126.07
101185.92
101225.31
101266.48
101298.32
101329.88
101349.38
101376.2
101390.93
101408.38
101416.31
101411.24
99909.525
99930.488
99959.264
99995.257
100037.66
100086.52
100141.6
100202.6
100269.05
100340.42
100416.21
100495.92
100578.95
100665.15
100753.1
100843.74
100932
101018.24
101085.61
101131.19
101190.06
101228.52
101269.12
101300.44
101331.59
101350.86
101377.65
101391.95
101409.4
101417.78
101412.53
99869.783
99897.39
99932.769
99975.032
100023.29
100077.4
100137.06
100201.93
100271.51
100345.28
100422.8
100503.66
100587.31
100673.77
100761.7
100852.16
100939.72
101025.14
101090.17
101136.34
101194.16
101231.72
101271.76
101302.56
101333.3
101352.33
101379.1
101392.96
101410.41
101419.28
101413.83
99828.522
99863.648
99906.223
99955.131
100009.45
100068.89
100133.15
100201.82
100274.43
100350.47
100429.63
100511.53
100595.73
100682.42
100770.39
100860.3
100947.36
101031.77
101094.74
101141.51
101198.21
101234.92
101274.38
101304.67
101335.01
101353.81
101380.55
101393.96
101411.42
101420.8
101415.15
99786.725
99830.063
99880.21
99935.981
99996.428
100061.23
100129.98
100202.34
100277.84
100356.04
100436.71
100519.54
100604.2
100691.21
100779.3
100868.1
100955.4
101038.04
101099.35
101146.69
101202.22
101238.1
101276.98
101306.76
101336.71
101355.28
101381.99
101394.95
101412.44
101422.34
101416.48
99745.585
99797.576
99855.367
99918.021
99984.56
100054.63
100127.71
100203.58
100281.81
100362.01
100444.05
100527.69
100612.77
100700.35
100787.66
100875.51
100963.18
101044.29
101104.02
101151.88
101206.19
101241.27
101279.58
101308.85
101338.41
101356.75
101383.43
101395.93
101413.45
101423.92
101417.8
99706.451
99767.248
99832.322
99901.694
99974.184
100049.33
100126.47
100205.62
100286.39
100368.4
100451.65
100536
100621.57
100709.35
100795.54
100883.13
100970.24
101050.79
101108.77
101157.07
101210.11
101244.43
101282.16
101310.93
101340.11
101358.22
101384.86
101396.9
101414.46
101425.53
101419.13
99670.65
99739.932
99811.728
99887.494
99965.65
100045.57
100126.41
100208.55
100291.63
100375.24
100459.54
100544.59
100630.92
100717.85
100803.56
100890.71
100976.93
101057.64
101113.61
101162.25
101214
101247.58
101284.73
101313
101341.8
101359.68
101386.29
101397.87
101415.47
101427.15
101420.47
99638.658
99715.668
99794.741
99876.057
99959.288
100043.48
100127.67
100212.47
100297.57
100382.55
100467.79
100553.77
100640.26
100725.85
100811.9
100898.2
100983.64
101064.7
101118.52
101167.41
101217.85
101250.71
101287.29
101315.06
101343.48
101361.14
101387.7
101398.82
101416.48
101428.78
101421.82
99612.22
99696.412
99781.505
99867.824
99955.244
100043.09
100130.45
100217.49
100304.27
100390.39
100476.72
100563.81
100648.69
100733.92
100820.18
100905.61
100990.41
101071.7
101123.53
101172.54
101221.67
101253.84
101289.83
101317.11
101345.17
101362.59
101389.09
101399.77
101417.48
101430.41
101423.24
99592.258
99682.656
99772.556
99863.009
99953.98
100044.84
100134.61
100223.59
100311.89
100399.11
100486.88
100572.67
100656.34
100742.64
100828.39
100912.94
100997.18
101078.52
101128.67
101177.63
101225.44
101256.94
101292.36
101319.15
101346.85
101364.04
101390.47
101400.7
101418.48
101432.03
101424.76
99579.441
99674.928
99768.424
99861.981
99955.683
100048.85
100140.38
100230.85
100320.8
100409.5
100496.89
100580.6
100665.35
100751.4
100836.56
100920.18
101003.94
101085.17
101133.92
101182.68
101229.19
101260.04
101294.88
101321.17
101348.54
101365.48
101391.83
101401.63
101419.48
101433.64
101426.49
99574.376
99673.722
99769.508
99865.016
99960.515
100055.27
100148.08
100240
100331.85
100421.08
100505.22
100589.01
100674.53
100760.12
100844.71
100927.34
101010.67
101091.69
101139.25
101187.69
101232.9
101263.11
101297.38
101323.19
101350.22
101366.93
101393.16
101402.54
101420.48
101435.24
101428.61
99577.683
99679.516
99776.168
99872.39
99968.794
100064.75
100158.85
100252.46
100344.33
100430
100512.95
100598.73
100683.72
100768.86
100852.83
100934.41
101017.36
101098.08
101144.64
101192.65
101236.59
101266.17
101299.87
101325.2
101351.91
101368.38
101394.47
101403.45
101421.47
101436.83
101430.41
99590.175
99693.049
99789.077
99884.892
99981.547
100078.76
100174.6
100266.6
100352.69
100437.78
100523.34
100608.71
100692.99
100777.65
100860.95
100941.42
101023.97
101104.38
101150.07
101197.57
101240.23
101269.21
101302.34
101327.19
101353.6
101369.83
101395.76
101404.34
101422.46
101438.41
101431.94
99612.707
99715.4
99809.484
99904.334
100000.73
100097.25
100190.24
100276.48
100361.11
100448.8
100534.28
100618.81
100702.38
100786.48
100869.05
100948.41
101030.52
101110.6
101155.51
101202.42
101243.85
101272.24
101304.8
101329.18
101355.31
101371.29
101397.03
101405.22
101423.44
101439.96
101433.4
99642.737
99744.141
99835.345
99928.143
100022.58
100114.92
100200.68
100285.97
100373.54
100461.18
100545.49
100629.14
100711.88
100795.36
100877.12
100955.45
101037.03
101116.74
101160.94
101207.2
101247.43
101275.24
101307.24
101331.16
101357.04
101372.77
101398.28
101406.09
101424.42
101441.47
101434.63
99674.288
99774.642
99862.293
99950.624
100040.86
100126.89
100212.57
100301.15
100388.02
100474.24
100557.16
100639.74
100721.51
100804.27
100885.16
100962.14
101043.55
101122.81
101166.35
101211.91
101250.97
101278.22
101309.66
101333.13
101358.79
101374.25
101399.52
101406.95
101425.39
101442.95
101435.7
99710.28
99805.562
99887.814
99971.921
100056.85
100142.7
100232.34
100318.63
100403.58
100488.11
100569.37
100650.61
100731.25
100813.23
100893.08
100968.66
101050.1
101128.81
101171.72
101216.54
101254.48
101281.17
101312.06
101335.1
101360.58
101375.76
101400.75
101407.8
101426.36
101444.39
101436.65
99762.72
99853.31
99928.431
100006.3
100087.05
100170.55
100255.4
100337.72
100420.27
100502.84
100582.14
100661.76
100741.11
100822.22
100900.96
100975.41
101056.54
101134.73
101177.04
101221.1
101257.97
101284.11
101314.45
101337.05
101362.42
101377.3
101401.98
101408.64
101427.32
101445.78
101437.44
99831.543
99913.215
99979.778
100050.2
100124.83
100202.29
100280.98
100358.58
100438.23
100518.46
100595.47
100673.19
100751.09
100831.24
100908.78
100982.16
101062.82
101140.56
101182.33
101225.58
101261.41
101287.01
101316.82
101339
101364.33
101378.86
101403.21
101409.47
101428.28
101447.12
101438.07
99901.267
99976.954
100035.56
100098.42
100166.12
100236.8
100309.1
100381.34
100457.55
100534.94
100609.39
100684.93
100761.2
100840.28
100916.55
100988.89
101068.95
101146.31
101187.55
101229.98
101264.83
101289.89
101319.16
101340.94
101366.34
101380.47
101404.43
101410.3
101429.23
101448.41
101438.53
99975.736
100046.21
100096.73
100151.41
100211.3
100274.55
100339.82
100405.98
100478.27
100552.28
100623.91
100696.98
100771.45
100849.34
100924.26
100995.6
101074.93
101151.96
101192.72
101234.3
101268.22
101292.75
101321.49
101342.88
101368.48
101382.13
101405.66
101411.15
101430.18
101449.66
101438.87
100058.93
100123.29
100164.63
100209.93
100260.86
100315.74
100373.08
100432.44
100500.43
100570.47
100639.06
100709.37
100781.82
100858.41
100931.91
101002.33
101080.74
101157.5
101197.82
101238.55
101271.57
101295.57
101323.79
101344.81
101370.79
101383.85
101406.95
101412.02
101431.12
101450.84
101439.1
100153.51
100209.53
100239.78
100274.12
100314.79
100360.3
100408.76
100460.74
100524.12
100589.5
100654.85
100722.1
100792.33
100867.47
100939.47
101009.09
101086.38
101162.92
101202.84
101242.72
101274.89
101298.37
101326.06
101346.73
101373.3
101385.65
101408.42
101412.98
101432.05
101451.97
101439.24
100259.47
100304.62
100321.69
100343.48
100372.78
100408.01
100446.69
100491
100549.28
100609.36
100671.29
100735.22
100802.98
100876.51
100946.94
101015.88
101091.95
101168.21
101207.78
101246.82
101278.17
101301.13
101328.31
101348.64
101376.03
101387.56
101410.26
101414.13
101432.98
101453.03
101439.31
100373.37
100406.14
100408.75
100417
100434.24
100458.49
100486.79
100523.72
100575.49
100630.06
100688.38
100748.72
100813.77
100885.51
100954.29
101022.75
101097.58
101173.37
101212.63
101250.83
101281.42
101303.86
101330.53
101350.54
101378.98
101389.62
101412.49
101415.56
101433.9
101454.03
101439.32
100489.33
100510.13
100498.6
100493.35
100498.42
100511.19
100529.51
100558.8
100602.17
100651.68
100706.14
100762.6
100824.69
100894.43
100961.46
101029.69
101103.23
101178.39
101217.39
101254.77
101284.63
101306.56
101332.72
101352.42
101382.14
101391.83
101414.87
101417.22
101434.82
101454.97
101439.3
100601.97
100612.64
100588.96
100571.23
100564.48
100565.74
100575.26
100595.77
100629.48
100673.98
100724.58
100776.93
100835.78
100903.28
100968.43
101036.71
101108.82
101183.24
101222.05
101258.65
101287.81
101309.24
101334.88
101354.28
101385.51
101394.18
101417.21
101418.92
101435.72
101455.85
101439.31
100710.2
100711.98
100678.94
100650.37
100631.88
100623.79
100624.77
100634.42
100658
100697.14
100743.97
100792.03
100847.35
100912.29
100975.38
101043.86
101114.34
101187.84
101226.58
101262.42
101290.95
101311.86
101336.99
101356.1
101389.07
101396.67
101419.44
101420.53
101436.61
101456.66
101439.41
100821.38
100812.52
100772.42
100734.01
100705.76
100688.59
100678.68
100677.44
100691.67
100723.28
100765.6
100809.04
100860.37
100922.28
100983.02
101051.33
101119.83
101191.95
101230.79
101266.02
101293.99
101314.41
101339.04
101357.88
101392.83
101399.36
101421.57
101422.03
101437.5
101457.37
101439.63
100949.55
100927.93
100883.06
100834.88
100795.07
100765.57
100744.17
100732.2
100738.2
100757.98
100792.15
100830.01
100876.55
100934.65
100992.61
101059.69
101125.47
101195.44
101234.45
101269.38
101296.92
101316.88
101341.03
101359.61
101396.8
101402.27
101423.65
101423.46
101438.41
101458.04
101440
101086.56
101058.59
101019.35
100961.87
100906.31
100860.17
100825.11
100802.77
100797.85
100805.51
100824.46
100855.07
100895.92
100949.47
101004.4
101069.34
101131.83
101199.74
101237.98
101272.87
101299.96
101319.43
101343.1
101361.42
101400.93
101405.36
101425.78
101424.85
101439.34
101458.77
101440.51
100164.31
100178.53
100192.96
100204.87
100211.52
100218.92
100229.63
100243.52
100263.7
100292.93
100332.87
100384.28
100447.3
100520.82
100604.39
100693.03
100787.77
100882.86
100970.13
101056.91
101112.87
101168.74
101220.48
101261.51
101300.6
101324.89
101352.51
101372.36
101392.15
101394.45
101399.81
100156.02
100167.3
100182.45
100201.1
100211.58
100219.36
100229.24
100242.98
100263.07
100291.95
100331.27
100382.01
100444.37
100517.32
100600.4
100689.04
100783.48
100881.42
100965.71
101055.63
101111.01
101166.8
101218.77
101260.08
101299.4
101323.86
101351.5
101371.46
101391.16
101393.78
101399.42
100151.75
100160.91
100175.07
100194.32
100206.37
100215.54
100227.38
100242.55
100263.41
100292.45
100331.45
100381.56
100443.15
100515.34
100597.71
100686.1
100780.08
100879.1
100963.35
101054.07
101109.19
101165.05
101217.24
101258.77
101298.28
101322.88
101350.53
101370.56
101390.14
101393.2
101398.49
100152.23
100161.23
100174.55
100191.82
100204.03
100214.72
100228.19
100244.56
100266.1
100295.29
100333.94
100383.34
100444.02
100515.24
100596.64
100684.46
100777.64
100876.72
100961.03
101051.92
101106.99
101163.12
101215.61
101257.38
101297.1
101321.86
101349.52
101369.62
101389.11
101392.62
101397.13
100153.06
100162.15
100174.94
100191.06
100203.68
100215.47
100229.86
100247.09
100269.23
100298.6
100337.01
100385.77
100445.58
100515.86
100596.25
100683.39
100775.69
100874.46
100958.51
101049.52
101104.69
101161.09
101213.91
101255.94
101295.87
101320.8
101348.48
101368.64
101388.09
101392.02
101395.35
100153.04
100162.11
100174.36
100190.04
100203.41
100216.1
100231.15
100249.2
100271.97
100301.61
100339.88
100388.15
100447.21
100516.62
100596.05
100682.51
100773.95
100872.32
100955.93
101047.02
101102.43
101159.05
101212.2
101254.48
101294.63
101319.72
101347.43
101367.65
101387.07
101391.39
101393.15
100152.59
100161.5
100173.26
100188.57
100202.69
100216.23
100231.94
100250.85
100274.31
100304.31
100342.54
100390.41
100448.81
100517.41
100595.93
100681.71
100772.35
100870.26
100953.4
101044.47
101100.23
101157.03
101210.5
101253.02
101293.39
101318.65
101346.37
101366.64
101386.07
101390.82
101390.59
100151.9
100160.66
100172.03
100186.88
100201.67
100216.04
100232.42
100252.22
100276.39
100306.81
100345.07
100392.63
100450.42
100518.28
100595.9
100681.01
100770.87
100868.28
100950.97
101041.92
101098.06
101155.02
101208.81
101251.57
101292.16
101317.57
101345.32
101365.63
101385.08
101390.11
101387.79
100151.04
100159.68
100170.72
100185.08
100200.47
100215.68
100232.72
100253.4
100278.29
100309.16
100347.53
100394.84
100452.09
100519.23
100596
100680.43
100769.51
100866.39
100948.64
101039.39
101095.9
101153.03
101207.14
101250.12
101290.91
101316.49
101344.25
101364.6
101384.11
101389.25
101385.13
100150.09
100158.61
100169.3
100183.18
100199.15
100215.2
100232.9
100254.43
100280.05
100311.4
100349.92
100397.05
100453.82
100520.28
100596.22
100679.97
100768.28
100864.57
100946.4
101036.85
101093.76
101151.05
101205.47
101248.67
101289.67
101315.41
101343.18
101363.55
101383.12
101388.56
101382.71
100149.13
100157.5
100167.87
100181.29
100197.78
100214.62
100233.02
100255.37
100281.71
100313.55
100352.27
100399.27
100455.61
100521.44
100596.57
100679.62
100767.18
100862.83
100944.27
101034.29
101091.63
101149.08
101203.81
101247.22
101288.42
101314.32
101342.11
101362.49
101382.11
101388.05
101380.58
100148.24
100156.41
100166.52
100179.63
100196.46
100213.94
100233.1
100256.23
100283.29
100315.66
100354.61
100401.52
100457.47
100522.7
100597.05
100679.4
100766.21
100861.16
100942.29
101031.69
101089.52
101147.13
101202.16
101245.78
101287.17
101313.22
101341.03
101361.43
101381.1
101387.57
101378.8
100147.45
100155.43
100165.33
100178.32
100195.28
100213.27
100233.2
100257.07
100284.84
100317.73
100356.94
100403.81
100459.41
100524.07
100597.67
100679.31
100765.37
100859.57
100940.45
101029.12
101087.42
101145.2
101200.52
101244.33
101285.91
101312.12
101339.94
101360.34
101380.13
101387.06
101377.35
100146.84
100154.65
100164.36
100177.31
100194.29
100212.72
100233.37
100257.94
100286.4
100319.81
100359.3
100406.15
100461.44
100525.55
100598.41
100679.34
100764.67
100858.26
100938.87
101026.68
101085.33
101143.28
101198.89
101242.89
101284.66
101311.02
101338.85
101359.25
101379.19
101386.53
101376.21
100146.48
100154.13
100163.66
100176.51
100193.48
100212.39
100233.68
100258.89
100287.99
100321.92
100361.7
100408.56
100463.56
100527.15
100599.3
100679.5
100764.11
100857.12
100937.5
101024.6
101083.28
101141.39
101197.28
101241.45
101283.4
101309.91
101337.75
101358.15
101378.27
101385.99
101375.33