/*--------------------------------*- C++ -*----------------------------------*\
| =========                 |                                                 |
| \\      /  F ield         | OpenFOAM: The Open Source CFD Toolbox           |
|  \\    /   O peration     | Version:  2406                                  |
|   \\  /    A nd           | Website:  www.openfoam.com                      |
|    \\/     M anipulation  |                                                 |
\*---------------------------------------------------------------------------*/
FoamFile
{
    version     2.0;
    format      ascii;
    arch        "LSB;label=32;scalar=64";
    class       volScalarField;
    location    "0.004";
    object      rho;
}
// * * * * * * * * * * * * * * * * * * * * * * * * * * * * * * * * * * * * * //

dimensions      [1 -3 0 0 0 0 0];

internalField   nonuniform List<scalar> 
8260
(
1.1988004
1.1977392
1.1971066
1.1963217
1.1955805
1.1950059
1.1946392
1.1944869
1.194543
1.1947878
1.1952256
1.1958252
1.1965791
1.1973961
1.1982847
1.1991637
1.1997251
1.1997992
1.1998751
1.2000396
1.2002121
1.2003588
1.2004731
1.2005645
1.2006388
1.2006982
1.2007548
1.2007926
1.2008346
1.2008506
1.200869
1.2005491
1.1996454
1.1987474
1.1977656
1.1968887
1.1961931
1.1956989
1.1954224
1.1953534
1.1954814
1.1958105
1.1963158
1.1969789
1.197732
1.1985201
1.19933
1.1997988
1.1998548
1.1999332
1.2000912
1.200255
1.2003945
1.200503
1.2005895
1.2006598
1.2007162
1.2007705
1.2008066
1.2008473
1.2008621
1.2008802
1.2016052
1.2008017
1.1998456
1.1988075
1.1978789
1.1971195
1.196547
1.1961857
1.1960333
1.1960607
1.1963043
1.1967345
1.1973279
1.1980414
1.1987612
1.1995207
1.1998871
1.1999314
1.2000061
1.2001531
1.2003053
1.200436
1.2005377
1.2006186
1.2006841
1.2007368
1.2007884
1.2008225
1.2008616
1.200875
1.2008917
1.2024086
1.201675
1.2007496
1.199718
1.1987716
1.197973
1.1973428
1.1969061
1.1966721
1.1966256
1.1967926
1.1971528
1.1976831
1.1983596
1.1990223
1.1997259
1.1999858
1.2000216
1.2000898
1.2002233
1.2003624
1.2004831
1.2005769
1.2006515
1.2007117
1.2007602
1.2008086
1.2008404
1.2008777
1.2008897
1.200904
1.2030576
1.2023922
1.2015327
1.2005479
1.1996181
1.1988094
1.1981459
1.1976533
1.1973498
1.1972373
1.1973314
1.1976215
1.1980882
1.1987189
1.1993205
1.1999451
1.2001016
1.2001263
1.2001862
1.2003031
1.2004273
1.2005366
1.2006215
1.200689
1.2007431
1.2007868
1.2008316
1.2008608
1.2008959
1.2009063
1.2009189
1.2035418
1.2029356
1.2021622
1.2012607
1.2003854
1.1996012
1.1989348
1.1984137
1.198062
1.1978934
1.1979222
1.1981453
1.1985496
1.1991264
1.1996599
1.2001741
1.2002404
1.2002465
1.2002967
1.2003937
1.2005009
1.2005974
1.200672
1.2007314
1.2007787
1.200817
1.2008575
1.2008839
1.2009164
1.2009251
1.2009371
1.2038619
1.2033156
1.2026315
1.2018401
1.2010525
1.2003253
1.199687
1.1991662
1.198791
1.1985826
1.1985581
1.1987214
1.1990685
1.1995847
1.2000386
1.2004071
1.2004043
1.2003856
1.2004227
1.2004965
1.2005841
1.2006664
1.2007294
1.2007794
1.2008191
1.2008514
1.2008869
1.2009101
1.2009395
1.2009464
1.200959
1.2040414
1.2035603
1.2029832
1.202311
1.201627
1.2009795
1.2003952
1.1999016
1.1995277
1.1992992
1.1992366
1.1993509
1.1996487
1.2000953
1.2004494
1.2006461
1.2005894
1.2005477
1.2005656
1.2006126
1.200678
1.2007444
1.2007946
1.2008338
1.2008646
1.2008903
1.2009202
1.2009398
1.2009655
1.2009706
1.2009838
1.2041446
1.2037132
1.2032358
1.2026879
1.2021213
1.2015719
1.2010628
1.2006194
1.2002699
1.2000415
1.1999574
1.2000362
1.2002947
1.2006523
1.2008785
1.2009025
1.2007936
1.2007353
1.2007266
1.2007433
1.2007837
1.2008325
1.2008682
1.2008957
1.2009162
1.2009341
1.2009579
1.2009735
1.2009948
1.2009982
1.2010121
1.204189
1.2038458
1.2034495
1.2030139
1.2025704
1.2021296
1.2017087
1.2013311
1.2010233
1.2008119
1.2007221
1.2007799
1.2010056
1.2012384
1.2013109
1.2011786
1.2010239
1.2009477
1.2009061
1.2008898
1.2009032
1.2009313
1.2009506
1.200966
1.2009747
1.2009834
1.2010004
1.2010117
1.2010279
1.2010295
1.2010431
1.2041786
1.2040395
1.2037952
1.2034568
1.203088
1.2027233
1.2023766
1.2020634
1.2018038
1.2016204
1.2015381
1.2015854
1.2017626
1.2018438
1.2017209
1.2014643
1.2012881
1.2011815
1.2011035
1.2010529
1.2010381
1.2010413
1.2010429
1.2010454
1.2010413
1.2010392
1.2010482
1.2010548
1.2010653
1.201065
1.2010769
1.2044663
1.2043566
1.2041447
1.2038925
1.2036182
1.2033434
1.2030797
1.2028389
1.2026365
1.2024913
1.2024263
1.2024586
1.2025302
1.2024027
1.202065
1.2017763
1.2015843
1.2014347
1.2013167
1.2012338
1.2011868
1.2011633
1.201147
1.2011337
1.2011171
1.2011027
1.201102
1.201103
1.2011074
1.2011049
1.2011143
1.2047455
1.2047408
1.2046807
1.2045011
1.2042887
1.2040838
1.2038956
1.2037259
1.2035798
1.2034643
1.2033814
1.2033073
1.2031404
1.2027859
1.2024065
1.202121
1.2018918
1.2017025
1.2015469
1.2014283
1.2013489
1.2012999
1.2012616
1.2012318
1.2012026
1.2011751
1.2011629
1.2011569
1.2011546
1.2011497
1.2011565
1.2056398
1.2056103
1.2054405
1.2052071
1.2049893
1.2048274
1.2047113
1.2046038
1.204483
1.2043344
1.2041367
1.2038598
1.2034851
1.2030859
1.2027511
1.2024625
1.202207
1.201982
1.2017885
1.201635
1.2015246
1.2014493
1.2013892
1.2013395
1.2012974
1.2012574
1.2012319
1.2012171
1.2012075
1.2011999
1.2012041
1.2060925
1.2061626
1.2062013
1.2062021
1.2061054
1.2058886
1.2056342
1.2053797
1.2051
1.2047897
1.2044634
1.2041169
1.2037574
1.2034113
1.2030866
1.2027862
1.2025093
1.2022618
1.2020403
1.2018533
1.2017097
1.2016095
1.2015297
1.2014595
1.2014014
1.2013495
1.2013103
1.2012846
1.201267
1.2012563
1.2012583
1.20612
1.2060497
1.2059313
1.2057789
1.205667
1.205615
1.2055727
1.2055207
1.2053639
1.2050745
1.2047331
1.2043778
1.2040443
1.2037072
1.2033809
1.2030754
1.2027893
1.2025307
1.2022935
1.2020806
1.2019064
1.2017788
1.201681
1.2015933
1.2015158
1.201451
1.2013988
1.2013612
1.2013343
1.2013197
1.2013195
1.2061678
1.2061075
1.2060253
1.2059265
1.2058172
1.2056871
1.2055087
1.2052773
1.2050863
1.2050014
1.2048636
1.2045901
1.2042691
1.2039463
1.2036381
1.2033421
1.2030488
1.2027799
1.2025367
1.202312
1.2021134
1.2019566
1.2018397
1.2017389
1.201644
1.2015626
1.2014975
1.2014486
1.2014109
1.2013908
1.2013877
1.2058827
1.2058282
1.2057632
1.2056905
1.2056077
1.2055134
1.205409
1.2052933
1.2051572
1.2049672
1.2047717
1.2046397
1.2044601
1.2041717
1.2038491
1.2035645
1.203292
1.2030154
1.2027603
1.2025341
1.2023262
1.202145
1.2020027
1.2018916
1.2017856
1.2016865
1.2016068
1.2015474
1.2014985
1.2014706
1.2014632
1.2057016
1.2056585
1.205605
1.2055432
1.2054721
1.2053882
1.2052888
1.2051737
1.2050447
1.2049094
1.2047665
1.2045824
1.2044092
1.2042731
1.2040325
1.2037604
1.2035013
1.2032468
1.2029762
1.202737
1.2025322
1.2023421
1.2021727
1.2020463
1.2019362
1.2018238
1.2017275
1.2016574
1.2015978
1.2015602
1.2015466
1.2054136
1.2053784
1.2053357
1.2052876
1.2052337
1.2051737
1.2051068
1.2050311
1.2049432
1.2048385
1.2047111
1.2045734
1.2044016
1.2042205
1.2041136
1.2039278
1.20368
1.2034413
1.2031959
1.2029321
1.202722
1.2025383
1.202356
1.2022032
1.2020889
1.2019719
1.2018603
1.2017778
1.201708
1.2016609
1.2016411
1.2052255
1.2051989
1.2051659
1.2051282
1.2050846
1.2050337
1.2049739
1.204904
1.2048236
1.2047332
1.2046339
1.2045182
1.2043926
1.2042654
1.204097
1.2039449
1.2037906
1.2035747
1.2033701
1.2031369
1.2029041
1.2027199
1.2025492
1.2023733
1.2022393
1.202124
1.2020038
1.2019067
1.2018272
1.2017726
1.2017472
1.2049573
1.2049355
1.2049091
1.2048798
1.2048468
1.2048095
1.2047673
1.2047197
1.2046654
1.2046023
1.2045287
1.2044458
1.2043528
1.2042324
1.2041072
1.2039804
1.2038284
1.2036598
1.2034879
1.2033077
1.2030884
1.2028826
1.2027245
1.2025575
1.2023949
1.202273
1.2021517
1.2020416
1.2019521
1.2018919
1.2018618
1.2047855
1.2047696
1.20475
1.2047277
1.2047019
1.2046718
1.2046365
1.2045952
1.2045475
1.2044929
1.2044306
1.2043576
1.2042721
1.2041814
1.2040681
1.2039328
1.203823
1.2037004
1.2035776
1.2034546
1.2032544
1.2030319
1.2028679
1.2027225
1.2025591
1.2024195
1.2022964
1.2021774
1.2020785
1.2020116
1.2019766
1.204543
1.20453
1.2045143
1.2044968
1.2044773
1.204455
1.2044297
1.204401
1.2043683
1.2043309
1.2042881
1.2042394
1.2041833
1.2041154
1.2040429
1.2039508
1.2038381
1.2037555
1.2036191
1.203469
1.20336
1.2031844
1.2029918
1.2028532
1.2027089
1.2025615
1.2024321
1.2023077
1.2022018
1.2021258
1.2020865
1.2043817
1.2043725
1.2043612
1.2043484
1.2043336
1.2043161
1.2042952
1.2042703
1.2042408
1.2042065
1.2041668
1.2041215
1.2040704
1.2040141
1.2039495
1.2038845
1.2038041
1.2037068
1.2036306
1.2035363
1.2034438
1.2033001
1.2031224
1.2029554
1.2028216
1.2026854
1.2025531
1.2024252
1.202316
1.2022317
1.2021904
1.2041623
1.2041544
1.204145
1.2041346
1.204123
1.2041099
1.2040951
1.2040786
1.2040604
1.2040401
1.2040169
1.2039898
1.2039581
1.2039206
1.2038764
1.2038233
1.2037648
1.2036897
1.2036067
1.203507
1.2033868
1.2033241
1.2031856
1.2030362
1.2028965
1.2027712
1.2026471
1.2025227
1.2024126
1.2023263
1.2022829
1.2040191
1.2040137
1.2040072
1.2040001
1.2039921
1.2039829
1.2039722
1.2039596
1.2039446
1.2039266
1.2039051
1.2038799
1.20385
1.2038146
1.2037737
1.2037255
1.2036685
1.2036084
1.2035311
1.2034617
1.2033893
1.2032774
1.2031982
1.2030809
1.2029447
1.2028214
1.2027069
1.2025973
1.2024928
1.2024133
1.2023692
1.2038374
1.2038332
1.2038284
1.2038232
1.2038173
1.2038104
1.2038024
1.203793
1.2037818
1.2037687
1.2037534
1.2037356
1.2037149
1.2036908
1.2036619
1.2036279
1.2035887
1.2035407
1.203488
1.2034215
1.2033543
1.2032892
1.2032076
1.2031146
1.2029992
1.2028703
1.2027596
1.2026625
1.2025707
1.2025029
1.2024653
1.2037404
1.2037368
1.2037327
1.2037281
1.2037228
1.2037167
1.2037094
1.2037009
1.2036909
1.2036792
1.2036654
1.2036489
1.2036293
1.2036064
1.2035799
1.2035498
1.203515
1.2034756
1.2034295
1.2033747
1.2033059
1.2032397
1.2031734
1.2031093
1.2030362
1.202928
1.2028256
1.2027292
1.2026484
1.2025873
1.2025554
1.2035704
1.2035674
1.203564
1.2035604
1.2035561
1.2035512
1.2035453
1.2035384
1.2035303
1.2035208
1.2035098
1.2034971
1.2034824
1.2034652
1.2034449
1.2034209
1.2033929
1.2033602
1.2033219
1.2032769
1.2032239
1.2031627
1.2030994
1.2030227
1.202953
1.2029023
1.2028289
1.2027518
1.202683
1.2026313
1.202603
1.2032588
1.2032568
1.2032547
1.2032524
1.2032498
1.2032468
1.2032433
1.2032392
1.2032344
1.2032288
1.2032222
1.2032144
1.2032049
1.2031936
1.2031802
1.2031641
1.2031449
1.2031217
1.2030942
1.2030626
1.203027
1.2029868
1.2029417
1.2028914
1.202834
1.2027686
1.2027017
1.2026395
1.202583
1.2025376
1.2025108
1.1854499
1.1858451
1.1862736
1.1866452
1.186954
1.1872713
1.1876802
1.1882021
1.1888104
1.1895451
1.190394
1.1913384
1.1923619
1.193443
1.1945528
1.1957388
1.1968121
1.197924
1.1985333
1.1988178
1.1990727
1.1993315
1.1995786
1.1997878
1.1999645
1.2001032
1.2002165
1.2002995
1.200376
1.2004213
1.200429
1.1863056
1.1866121
1.1867682
1.1869233
1.1871282
1.187428
1.1878588
1.1884275
1.1891015
1.1898814
1.1907548
1.1917078
1.1927266
1.193787
1.1948666
1.1960133
1.1970487
1.1980692
1.1985574
1.1988492
1.1991095
1.1993717
1.1996149
1.1998193
1.1999918
1.2001273
1.2002383
1.2003195
1.2003947
1.2004391
1.2004478
1.1860492
1.1861659
1.1862758
1.1864988
1.1868277
1.1872525
1.187796
1.1884616
1.1892075
1.1900437
1.1909588
1.1919387
1.1929708
1.1940293
1.1951014
1.1962278
1.1972648
1.1981964
1.1985949
1.1988925
1.1991548
1.1994167
1.199654
1.1998529
1.2000207
1.2001525
1.2002609
1.2003403
1.200414
1.2004572
1.2004671
1.1855615
1.1857252
1.1859172
1.1862198
1.1866245
1.1871309
1.1877506
1.1884791
1.189285
1.1901707
1.1911224
1.1921265
1.1931718
1.1942318
1.1953078
1.19641
1.1974501
1.1983108
1.1986483
1.1989386
1.199201
1.1994615
1.1996928
1.1998863
1.2000495
1.2001778
1.2002837
1.2003611
1.2004334
1.2004753
1.2004865
1.1848835
1.1851265
1.1854173
1.1858314
1.1863535
1.1869742
1.1876925
1.1884975
1.1893692
1.1903043
1.1912902
1.1923158
1.1933717
1.1944327
1.1955196
1.1965908
1.1976215
1.1984187
1.1987098
1.1989862
1.1992491
1.1995071
1.1997321
1.1999201
1.2000788
1.2002034
1.2003068
1.2003822
1.2004529
1.2004936
1.200506
1.1840621
1.184423
1.1848608
1.1854254
1.1860864
1.1868284
1.1876463
1.1885297
1.189465
1.1904466
1.1914638
1.1925084
1.1935726
1.1946342
1.1957341
1.1967812
1.1977816
1.198516
1.1987697
1.1990344
1.1992983
1.1995528
1.1997715
1.1999541
1.2001082
1.2002292
1.2003301
1.2004034
1.2004726
1.2005119
1.2005255
1.1830967
1.1836498
1.1842849
1.1850236
1.1858322
1.1866974
1.187614
1.1885749
1.18957
1.190594
1.1916392
1.1927003
1.1937705
1.1948321
1.1959425
1.1969743
1.1979192
1.1985972
1.1988272
1.1990838
1.1993487
1.1995987
1.199811
1.1999883
1.2001377
1.2002552
1.2003535
1.2004248
1.2004924
1.2005303
1.2005449
1.1821521
1.18292
1.1837559
1.1846622
1.1856123
1.1865945
1.1876043
1.188637
1.1896857
1.1907471
1.1918162
1.1928905
1.1939639
1.195024
1.1961356
1.1971449
1.1980533
1.1986709
1.198883
1.1991345
1.1993999
1.1996447
1.1998505
1.2000225
1.2001674
1.2002813
1.200377
1.2004463
1.2005123
1.2005487
1.2005644
1.1813102
1.1822913
1.1833071
1.1843599
1.1854404
1.186531
1.1876236
1.1887195
1.189814
1.1909067
1.1919951
1.193079
1.1941529
1.1952127
1.1963116
1.1972996
1.198202
1.1987412
1.198938
1.1991867
1.1994517
1.1996906
1.1998901
1.2000568
1.2001971
1.2003075
1.2004007
1.2004678
1.2005322
1.2005672
1.2005838
1.1806052
1.1817838
1.1829699
1.1841376
1.1853346
1.1865189
1.1876779
1.1888252
1.1899562
1.1910734
1.192176
1.1932659
1.1943403
1.1954118
1.1964868
1.1974499
1.1983454
1.19881
1.1989929
1.1992403
1.1995037
1.1997365
1.1999297
1.2000911
1.2002268
1.2003337
1.2004243
1.2004894
1.2005521
1.2005857
1.2006031
1.1801215
1.1814307
1.1827379
1.1840285
1.1853137
1.1865659
1.1877721
1.1889572
1.190113
1.1912474
1.1923594
1.1934532
1.1945324
1.1956135
1.1966497
1.1975993
1.198473
1.1988792
1.1990488
1.1992951
1.1995557
1.1997821
1.1999692
1.2001253
1.2002564
1.2003599
1.200448
1.200511
1.2005721
1.2006042
1.2006224
1.1798895
1.1812949
1.1826821
1.184042
1.1853713
1.1866646
1.1879147
1.1891204
1.1902872
1.191431
1.1925483
1.1936451
1.1947343
1.1957972
1.196786
1.1977428
1.1985877
1.1989475
1.1991062
1.1993509
1.1996076
1.1998275
1.2000085
1.2001594
1.200286
1.200386
1.2004717
1.2005326
1.200592
1.2006226
1.2006417
1.1799544
1.1814014
1.1828098
1.1841858
1.1855286
1.1868333
1.1880995
1.1893199
1.1904892
1.1916328
1.1927502
1.1938453
1.1949124
1.1959426
1.1969333
1.1978902
1.1986951
1.1990157
1.1991651
1.1994072
1.1996591
1.1998726
1.2000477
1.2001933
1.2003155
1.200412
1.2004952
1.2005541
1.200612
1.2006411
1.2006608
1.1803007
1.181748
1.1831223
1.1844656
1.185787
1.1870793
1.188345
1.1895675
1.1907326
1.1918611
1.1929598
1.1940251
1.1950562
1.196077
1.1970832
1.1980337
1.1987972
1.1990834
1.1992251
1.1994638
1.1997101
1.1999173
1.2000866
1.2002271
1.2003448
1.2004379
1.2005187
1.2005755
1.2006318
1.2006595
1.2006797
1.1807516
1.1822122
1.1835615
1.1848658
1.1861481
1.1874097
1.1886531
1.1898394
1.1909752
1.1920625
1.1931022
1.1941532
1.1952075
1.196225
1.1972236
1.1981661
1.1988952
1.1991508
1.199286
1.1995204
1.1997606
1.1999616
1.2001251
1.2002605
1.2003738
1.2004636
1.200542
1.2005968
1.2006516
1.2006779
1.2006985
1.1812876
1.1826858
1.184017
1.1853059
1.186554
1.1877639
1.1889466
1.1900529
1.1911189
1.1921963
1.1932726
1.1943255
1.1953698
1.1963673
1.1973546
1.1982835
1.1989895
1.1992185
1.1993475
1.1995765
1.1998103
1.2000053
1.2001632
1.2002936
1.2004026
1.2004891
1.2005651
1.2006179
1.2006712
1.2006962
1.2007172
1.1824774
1.1835828
1.1846723
1.1857999
1.186944
1.1880687
1.1891444
1.1902312
1.1913499
1.1924239
1.1934717
1.1945043
1.1955293
1.1965016
1.1974755
1.1983911
1.1990804
1.1992868
1.1994084
1.1996318
1.1998592
1.2000483
1.2002008
1.2003263
1.200431
1.2005143
1.2005879
1.2006389
1.2006907
1.2007145
1.2007357
1.1844367
1.1852418
1.1859905
1.1868122
1.1877142
1.1886611
1.1896171
1.1906154
1.1916564
1.1926777
1.1936789
1.1946806
1.1956844
1.1966301
1.1975883
1.1984966
1.199168
1.1993552
1.1994687
1.1996864
1.1999073
1.2000907
1.2002378
1.2003586
1.2004591
1.2005392
1.2006105
1.2006596
1.20071
1.2007327
1.200754
1.1862279
1.1868637
1.187389
1.1879728
1.1886487
1.1893973
1.1901927
1.191059
1.1920013
1.1929436
1.1938904
1.1948553
1.1958354
1.1967539
1.1976952
1.1986011
1.1992521
1.1994236
1.1995286
1.19974
1.1999544
1.2001322
1.2002741
1.2003903
1.2004867
1.2005637
1.2006328
1.2006801
1.2007292
1.2007507
1.200772
1.1881797
1.188581
1.1888533
1.1891962
1.1896478
1.1901886
1.1908043
1.1915396
1.1923735
1.1932219
1.1941062
1.1950281
1.1959812
1.1968733
1.1977971
1.1987033
1.1993335
1.1994915
1.1995879
1.1997924
1.2000003
1.2001727
1.2003097
1.2004214
1.2005139
1.2005878
1.2006547
1.2007004
1.2007481
1.2007687
1.2007897
1.1903278
1.1904523
1.1904376
1.1905122
1.1907187
1.1910299
1.1914621
1.1920622
1.1927632
1.1935164
1.1943276
1.1951985
1.1961209
1.1969882
1.1978944
1.1988052
1.199412
1.1995574
1.1996458
1.1998431
1.2000445
1.2002119
1.2003442
1.2004517
1.2005404
1.2006114
1.2006762
1.2007203
1.2007668
1.2007864
1.2008074
1.1926763
1.1924806
1.1921588
1.1919417
1.1918777
1.1919498
1.1922103
1.1926433
1.1931866
1.1938394
1.1945674
1.1953769
1.1962614
1.1971022
1.197991
1.1988966
1.1994837
1.1996169
1.1997007
1.1998915
1.2000869
1.2002496
1.2003777
1.2004813
1.2005664
1.2006346
1.2006974
1.2007399
1.2007852
1.200804
1.2008246
1.1953164
1.1948116
1.1942099
1.1936669
1.1933037
1.1931305
1.1931511
1.1933547
1.1937216
1.1942432
1.1948669
1.1955964
1.1964271
1.1972309
1.1980937
1.1989618
1.1995432
1.1996669
1.1997535
1.1999388
1.2001282
1.2002866
1.2004106
1.2005104
1.200592
1.2006574
1.2007182
1.2007592
1.2008034
1.2008213
1.2008412
1.1979926
1.1973798
1.1967183
1.1959446
1.1952361
1.1947087
1.1944036
1.1943241
1.1944601
1.1947799
1.1952612
1.1958833
1.1966373
1.197393
1.198216
1.1990313
1.1996035
1.1997196
1.1998115
1.1999891
1.2001712
1.2003244
1.2004439
1.2005396
1.2006176
1.20068
1.2007387
1.2007782
1.2008213
1.2008383
1.200857
1.1859426
1.1863703
1.1867794
1.1871589
1.1874998
1.1878293
1.1882088
1.1886763
1.189218
1.1898833
1.1906636
1.191544
1.192508
1.1935348
1.1945893
1.1957035
1.1967371
1.1977579
1.198449
1.1987576
1.1990253
1.1992892
1.1995423
1.1997568
1.199938
1.2000801
1.2001958
1.2002807
1.2003585
1.2004052
1.2004112
1.1861922
1.1866536
1.1870488
1.1873958
1.1877112
1.1880328
1.1883951
1.1888056
1.1893111
1.1899394
1.1906841
1.1915337
1.192473
1.1934826
1.1945293
1.1956317
1.1967022
1.1976881
1.198428
1.1987358
1.1989987
1.1992619
1.1995175
1.199735
1.1999188
1.2000633
1.2001805
1.2002669
1.2003454
1.2003934
1.2003983
1.1862177
1.1866692
1.1871012
1.1874841
1.1878236
1.1881573
1.1885213
1.1889256
1.1894187
1.1900219
1.1907371
1.1915575
1.1924704
1.1934587
1.1944928
1.1955757
1.196659
1.1976459
1.1984024
1.1987202
1.1989781
1.1992388
1.1994956
1.1997148
1.1999005
1.2000467
1.2001652
1.2002529
1.2003318
1.2003811
1.2003856
1.1862486
1.1867002
1.1871642
1.1875749
1.1879431
1.1882946
1.1886648
1.1890738
1.1895575
1.1901373
1.1908226
1.1916117
1.1924947
1.1934568
1.1944722
1.1955281
1.1966088
1.1976012
1.1983645
1.1986995
1.1989556
1.1992144
1.1994724
1.1996935
1.1998811
1.2000291
1.2001488
1.2002378
1.2003171
1.2003684
1.2003728
1.1863124
1.1867823
1.1872635
1.1876881
1.1880717
1.1884369
1.1888136
1.1892254
1.1897003
1.1902597
1.1909174
1.1916758
1.1925286
1.1934631
1.1944568
1.1954846
1.1965594
1.1975515
1.1983211
1.1986742
1.1989303
1.1991874
1.1994469
1.1996702
1.1998599
1.2000105
1.2001316
1.2002221
1.2003017
1.2003541
1.2003589
1.1863892
1.1868623
1.1873564
1.1877956
1.1881921
1.1885693
1.1889536
1.1893679
1.1898362
1.190379
1.1910125
1.1917425
1.1925659
1.1934725
1.1944435
1.1954472
1.1965115
1.1974979
1.1982799
1.1986465
1.1989039
1.1991588
1.19942
1.1996457
1.1998377
1.1999899
1.2001125
1.2002046
1.2002844
1.2003389
1.2003439
1.1864592
1.1869312
1.1874325
1.1878867
1.1882986
1.1886894
1.1890831
1.1895014
1.1899655
1.1904952
1.1911077
1.1918115
1.1926066
1.1934854
1.1944326
1.1954163
1.196461
1.1974399
1.1982431
1.1986185
1.1988766
1.1991286
1.1993911
1.199619
1.1998134
1.1999679
1.2000922
1.200186
1.2002661
1.2003226
1.200328
1.1865231
1.1869894
1.1874959
1.1879653
1.188394
1.1887998
1.1892044
1.1896281
1.1900904
1.1906099
1.1912041
1.1918836
1.1926514
1.1935026
1.1944252
1.1953896
1.1964093
1.1973784
1.1982055
1.1985919
1.1988491
1.1990974
1.199361
1.199591
1.1997878
1.1999447
1.2000706
1.2001661
1.2002471
1.200305
1.200311
1.1865896
1.1870468
1.1875557
1.1880385
1.1884834
1.1889043
1.1893203
1.1897504
1.1902124
1.1907239
1.1913022
1.1919594
1.1927011
1.1935249
1.1944221
1.1953662
1.1963658
1.1973168
1.1981573
1.1985665
1.1988215
1.1990653
1.1993296
1.1995617
1.1997607
1.1999201
1.2000475
1.2001449
1.2002271
1.2002863
1.2002929
1.186662
1.1871085
1.1876169
1.1881105
1.1885704
1.1890058
1.1894333
1.1898701
1.1903328
1.1908381
1.1914026
1.1920393
1.192756
1.1935529
1.194424
1.1953466
1.1963272
1.1972605
1.1981025
1.1985422
1.1987939
1.1990323
1.1992968
1.1995307
1.1997321
1.1998939
1.200023
1.2001222
1.2002054
1.2002662
1.2002736
1.1867456
1.1871793
1.187684
1.1881858
1.1886591
1.189108
1.1895463
1.1899898
1.1904537
1.1909537
1.1915058
1.1921236
1.1928163
1.1935867
1.1944312
1.1953313
1.1962922
1.1972135
1.1980489
1.1985173
1.1987663
1.1989984
1.1992627
1.1994982
1.1997019
1.1998662
1.199997
1.200098
1.2001821
1.2002447
1.2002531
1.1868494
1.1872672
1.1877645
1.188271
1.188755
1.1892157
1.1896631
1.1901124
1.1905772
1.1910723
1.1916129
1.1922129
1.1928826
1.1936267
1.1944442
1.1953205
1.1962599
1.1971617
1.1979949
1.1984934
1.1987391
1.1989639
1.1992273
1.1994641
1.19967
1.1998368
1.1999693
1.2000723
1.2001573
1.2002218
1.2002313
1.1869855
1.1873839
1.1878681
1.1883736
1.1888644
1.1893338
1.1897889
1.1902419
1.1907063
1.191196
1.1917252
1.192308
1.1929553
1.1936735
1.1944634
1.1953145
1.1962292
1.1971067
1.1979377
1.1984675
1.1987122
1.198929
1.1991907
1.1994284
1.1996364
1.1998059
1.1999399
1.2000448
1.2001312
1.2001973
1.2002082
1.1871676
1.1875422
1.1880067
1.1885038
1.1889952
1.1894687
1.1899276
1.1903819
1.1908439
1.1913268
1.1918443
1.19241
1.1930352
1.1937275
1.1944894
1.1953137
1.1961986
1.1970537
1.1978835
1.1984397
1.1986858
1.198894
1.1991531
1.1993912
1.1996012
1.1997732
1.1999089
1.2000157
1.2001036
1.2001711
1.2001835
1.1874047
1.1877519
1.1881904
1.1886711
1.1891554
1.1896265
1.1900841
1.1905358
1.1909927
1.1914669
1.1919716
1.1925199
1.193123
1.1937894
1.1945227
1.1953184
1.1961684
1.1970041
1.1978315
1.1984112
1.19866
1.1988591
1.1991146
1.1993526
1.1995642
1.1997388
1.199876
1.1999847
1.2000743
1.2001432
1.2001573
1.187699
1.1880168
1.1884235
1.1888791
1.1893478
1.1898098
1.1902608
1.1907059
1.1911546
1.1916181
1.1921086
1.1926387
1.1932196
1.1938598
1.194564
1.1953291
1.196139
1.1969546
1.197781
1.1983832
1.1986347
1.1988245
1.1990752
1.1993127
1.1995258
1.1997026
1.1998413
1.1999519
1.2000433
1.2001136
1.2001295
1.1880411
1.1883279
1.1886992
1.1891235
1.1895701
1.1900174
1.1904574
1.1908923
1.1913301
1.191781
1.1922562
1.1927673
1.1933256
1.1939396
1.1946142
1.1953471
1.1961158
1.1969159
1.1977425
1.1983564
1.1986104
1.1987911
1.1990356
1.1992716
1.1994856
1.1996646
1.1998048
1.1999171
1.2000103
1.2000821
1.2001005
1.188412
1.1886695
1.1890045
1.1893949
1.1898156
1.1902444
1.1906703
1.1910929
1.1915182
1.1919552
1.1924143
1.1929064
1.1934418
1.1940293
1.1946741
1.1953751
1.1961133
1.1968945
1.1977092
1.1983283
1.198587
1.1987585
1.1989951
1.1992297
1.1994442
1.1996248
1.1997663
1.1998803
1.1999751
1.2000486
1.2000696
1.1887949
1.1890237
1.189324
1.1896807
1.1900741
1.1904829
1.1908939
1.1913037
1.1917164
1.1921395
1.1925826
1.1930556
1.1935684
1.1941295
1.1947446
1.1954141
1.1961252
1.1968775
1.1976594
1.1982933
1.1985675
1.1987285
1.1989553
1.199187
1.1994013
1.199583
1.199726
1.1998415
1.1999376
1.2000129
1.200036
1.189178
1.189381
1.1896487
1.1899721
1.1903376
1.1907261
1.1911224
1.1915205
1.1919217
1.1923321
1.1927601
1.1932148
1.1937055
1.1942406
1.194826
1.1954637
1.1961457
1.1968663
1.1976103
1.1982531
1.1985525
1.1986993
1.1989149
1.1991436
1.1993575
1.1995396
1.1996837
1.1998006
1.1998979
1.1999751
1.1999995
1.1895511
1.1897347
1.1899732
1.1902635
1.1906023
1.190971
1.1913533
1.1917408
1.1921324
1.1925319
1.1929462
1.1933837
1.1938532
1.1943628
1.1949186
1.195524
1.1961744
1.1968632
1.197575
1.1982119
1.1985366
1.198674
1.1988759
1.199101
1.1993128
1.1994945
1.1996399
1.1997577
1.1998559
1.199935
1.1999607
1.1899009
1.1900685
1.1902915
1.1905625
1.1908774
1.1912249
1.1915918
1.1919682
1.1923503
1.1927397
1.1931414
1.1935628
1.1940117
1.1944961
1.1950227
1.1955953
1.1962125
1.1968686
1.19755
1.1981809
1.1985256
1.1986529
1.1988373
1.1990548
1.1992663
1.1994476
1.1995939
1.1997129
1.1998118
1.1998927
1.1999202
1.1902653
1.1904216
1.1906279
1.1908718
1.1911573
1.191487
1.1918405
1.1922059
1.1925784
1.1929579
1.1933474
1.1937529
1.1941815
1.194641
1.1951383
1.1956779
1.1962603
1.1968812
1.1975244
1.1981277
1.1985081
1.1986313
1.1988009
1.1990162
1.1992214
1.1994001
1.1995468
1.1996661
1.1997656
1.1998483
1.1998789
1.1906569
1.1907988
1.1909844
1.1912164
1.1914903
1.1917934
1.1921227
1.1924695
1.192827
1.1931928
1.1935679
1.1939562
1.1943639
1.194798
1.1952654
1.1957714
1.196318
1.1969011
1.1975015
1.1980888
1.1984964
1.1986209
1.1987733
1.1989715
1.1991728
1.1993503
1.1994981
1.1996177
1.1997174
1.1998018
1.1998368
1.1911025
1.1912358
1.191407
1.1916085
1.1918476
1.1921277
1.1924353
1.1927615
1.1931005
1.1934488
1.1938061
1.1941747
1.1945596
1.194967
1.1954037
1.1958757
1.1963857
1.1969312
1.1974969
1.1980723
1.1984942
1.198607
1.1987338
1.1989291
1.1991266
1.1993018
1.1994476
1.1995676
1.1996677
1.1997533
1.1997938
1.1915884
1.191707
1.1918585
1.1920446
1.1922655
1.192515
1.1927916
1.1930896
1.1934033
1.1937286
1.1940634
1.1944088
1.1947685
1.1951477
1.1955528
1.1959898
1.196463
1.1969714
1.1975054
1.1980569
1.1984829
1.1985881
1.1987024
1.198895
1.1990825
1.199251
1.1993971
1.1995161
1.1996163
1.1997031
1.1997493
1.1921106
1.1922186
1.192353
1.1925148
1.1927083
1.1929291
1.193176
1.1934447
1.1937303
1.1940287
1.1943374
1.1946566
1.1949887
1.1953381
1.1957106
1.1961122
1.196548
1.197019
1.1975187
1.1980381
1.1984644
1.1985797
1.1986846
1.19886
1.1990319
1.1991976
1.1993431
1.1994636
1.199564
1.1996509
1.1997032
1.1926351
1.1927268
1.1928479
1.1929931
1.1931605
1.1933535
1.1935713
1.1938109
1.1940681
1.1943388
1.1946203
1.194912
1.1952154
1.1955342
1.1958737
1.1962399
1.1966384
1.1970718
1.1975359
1.198023
1.1984479
1.1985807
1.198663
1.198814
1.198986
1.1991515
1.1992921
1.1994094
1.1995111
1.1995971
1.1996552
1.1931536
1.193236
1.1933389
1.1934599
1.1936025
1.1937692
1.1939594
1.194171
1.1944006
1.1946447
1.1948999
1.195165
1.1954405
1.1957296
1.1960371
1.1963689
1.1967312
1.1971276
1.1975568
1.198012
1.1984276
1.1985804
1.1986369
1.1987802
1.1989499
1.1990993
1.1992371
1.1993556
1.1994565
1.1995412
1.1996038
1.1936514
1.1937137
1.1937966
1.1938966
1.1940161
1.1941573
1.1943211
1.1945063
1.1947104
1.1949299
1.1951614
1.1954026
1.1956533
1.1959155
1.1961937
1.1964938
1.1968221
1.1971835
1.1975788
1.1980022
1.198405
1.1985794
1.1986247
1.1987535
1.1989002
1.1990465
1.1991835
1.1992991
1.1994029
1.1994843
1.1995488
1.1941253
1.1941734
1.1942371
1.1943158
1.1944108
1.1945244
1.1946589
1.1948147
1.1949909
1.1951848
1.1953933
1.1956131
1.1958425
1.1960821
1.1963355
1.1966082
1.1969065
1.1972362
1.1975999
1.1979936
1.1983846
1.1985799
1.1986157
1.1987162
1.1988505
1.1989994
1.1991363
1.1992461
1.1993472
1.1994262
1.1994905
1.1944775
1.194533
1.1946052
1.1946801
1.1947573
1.1948482
1.1949573
1.1950859
1.1952349
1.1954034
1.195589
1.1957885
1.1959992
1.1962207
1.1964546
1.1967054
1.196979
1.1972818
1.1976177
1.1979853
1.1983665
1.1985812
1.1986014
1.1986796
1.1988149
1.1989553
1.1990792
1.1991894
1.1992926
1.1993694
1.1994301
1.1947542
1.1947783
1.1948194
1.1948833
1.1949693
1.1950698
1.1951759
1.1952884
1.1954183
1.1955676
1.1957351
1.1959182
1.1961148
1.1963232
1.1965438
1.1967793
1.1970348
1.1973163
1.1976292
1.1979739
1.1983396
1.1985805
1.1985927
1.198658
1.1987766
1.198899
1.1990312
1.1991352
1.1992384
1.1993107
1.199371
1.1949614
1.1949886
1.1950224
1.1950629
1.1951121
1.1951739
1.1952608
1.1953761
1.1955107
1.195657
1.1958145
1.1959887
1.1961784
1.1963814
1.1965965
1.1968247
1.1970696
1.1973368
1.1976318
1.1979574
1.198307
1.1985717
1.1985837
1.1986285
1.1987256
1.1988462
1.1989853
1.1990861
1.199183
1.1992556
1.1993147
1.1950664
1.1950943
1.1951283
1.1951689
1.1952173
1.1952749
1.195344
1.1954287
1.195534
1.1956671
1.1958271
1.1960037
1.1961938
1.1963975
1.1966134
1.196841
1.1970823
1.1973416
1.1976242
1.1979344
1.1982689
1.1985531
1.1985716
1.1985941
1.1986858
1.1988056
1.1989304
1.1990361
1.1991286
1.1991962
1.1992629
1.1950463
1.1950783
1.1951161
1.1951613
1.1952151
1.1952791
1.195355
1.1954446
1.1955502
1.1956747
1.19582
1.1959896
1.1961815
1.1963883
1.1966068
1.1968361
1.1970771
1.1973325
1.1976069
1.1979054
1.1982268
1.1985229
1.1985596
1.1985662
1.1986512
1.1987548
1.1988771
1.1989869
1.1990749
1.1991389
1.1992081
1.1950314
1.1950629
1.1950986
1.1951406
1.1951912
1.1952524
1.1953263
1.1954155
1.1955227
1.1956507
1.1958009
1.1959694
1.1961569
1.196365
1.1965867
1.1968184
1.1970599
1.1973134
1.1975825
1.1978719
1.1981826
1.198484
1.1985456
1.1985392
1.1986078
1.1987077
1.1988309
1.1989336
1.1990215
1.1990777
1.1991494
1.1950897
1.1951169
1.195148
1.1951853
1.1952308
1.1952864
1.1953544
1.1954376
1.1955387
1.1956591
1.1957962
1.1959565
1.1961444
1.19635
1.1965695
1.1968
1.19704
1.1972905
1.1975543
1.1978355
1.1981369
1.1984384
1.1985328
1.1985166
1.1985705
1.198668
1.1987779
1.1988798
1.1989723
1.199021
1.1990867
1.1952316
1.1952535
1.1952786
1.1953084
1.195345
1.1953906
1.1954474
1.195518
1.1956041
1.1957087
1.1958375
1.1959922
1.1961668
1.1963587
1.1965677
1.1967907
1.197025
1.1972697
1.1975265
1.197799
1.198091
1.1983924
1.1985187
1.1984979
1.1985456
1.1986287
1.1987301
1.1988374
1.198919
1.1989665
1.1990208
1.195444
1.1954597
1.1954786
1.1955013
1.1955298
1.1955658
1.1956108
1.1956667
1.1957369
1.1958251
1.1959356
1.196068
1.1962195
1.1963924
1.1965852
1.1967948
1.1970184
1.1972542
1.1975024
1.1977657
1.1980484
1.1983445
1.1985061
1.1984834
1.1985224
1.1985999