/*--------------------------------*- C++ -*----------------------------------*\
| =========                 |                                                 |
| \\      /  F ield         | OpenFOAM: The Open Source CFD Toolbox           |
|  \\    /   O peration     | Version:  2406                                  |
|   \\  /    A nd           | Website:  www.openfoam.com                      |
|    \\/     M anipulation  |                                                 |
\*---------------------------------------------------------------------------*/
FoamFile
{
    version     2.0;
    format      ascii;
    arch        "LSB;label=32;scalar=64";
    class       volVectorField;
    location    "0.004";
    object      U;
}
// * * * * * * * * * * * * * * * * * * * * * * * * * * * * * * * * * * * * * //

dimensions      [0 1 -1 0 0 0 0];

internalField   nonuniform List<vector> 
8260
(
(42.136907 30.390598 0)
(43.582977 29.027611 -2.3478066e-20)
(44.961702 27.664479 2.027192e-20)
(46.295143 26.296511 -3.4649659e-20)
(47.57895 24.882304 1.4679076e-20)
(48.79419 23.439641 -2.4745354e-20)
(49.929737 22.007649 -1.0394859e-20)
(50.97734 20.620872 -1.6574649e-23)
(51.961112 19.307106 5.3092875e-21)
(52.924463 18.073248 0)
(53.825502 16.933058 4.3131199e-20)
(54.685269 15.879681 0)
(55.496013 14.89913 0)
(56.241093 13.949497 -6.4475823e-20)
(56.762227 12.992229 1.8507651e-23)
(56.917998 11.934738 0)
(56.417079 10.495431 0)
(55.424322 8.7080159 6.1672916e-19)
(54.810036 7.4426679 5.5103602e-21)
(54.462178 6.4742526 -6.7730799e-19)
(54.213204 5.5973482 -1.225797e-18)
(54.044115 4.8029942 -1.0999314e-18)
(53.890617 4.0686236 -2.0022922e-18)
(53.714375 3.4437589 1.7971763e-18)
(53.535149 2.8601949 1.5974744e-18)
(53.372234 2.3680882 0)
(53.256046 1.8847306 2.5116364e-18)
(53.151229 1.4574441 2.2169682e-18)
(53.05674 1.0343072 3.9120156e-18)
(53.003301 0.60918642 0)
(52.915346 0.18928473 4.2168329e-18)
(41.073262 29.560852 2.3002755e-20)
(42.582476 28.328745 -1.8603922e-23)
(44.015635 27.159394 -1.7870333e-20)
(45.408677 25.952026 4.6985058e-20)
(46.761858 24.681917 0)
(48.058611 23.366698 2.334223e-20)
(49.284312 22.038181 3.9976858e-20)
(50.431246 20.728662 2.5562717e-20)
(51.510462 19.466643 -2.9146174e-20)
(52.543165 18.264129 1.2510982e-20)
(53.513542 17.133062 -4.8862154e-20)
(54.429793 16.074522 0)
(55.282335 15.0773 0)
(56.050208 14.10797 1.3257585e-19)
(56.578507 13.099191 -1.3566828e-19)
(56.710222 12.003053 1.6293627e-19)
(56.176087 10.476243 2.6097736e-24)
(55.218354 8.6706484 -1.9575178e-20)
(54.6815 7.433902 2.1517915e-20)
(54.370977 6.473948 -6.4904881e-19)
(54.141735 5.5975942 -9.2204302e-21)
(53.98706 4.8055898 1.0654844e-18)
(53.845514 4.0694914 1.9222003e-18)
(53.678756 3.4457099 -3.3689344e-21)
(53.507055 2.8612759 6.0439544e-21)
(53.350105 2.370101 -2.6655095e-21)
(53.238108 1.8860508 -2.4154909e-18)
(53.136715 1.4588408 -2.1364264e-18)
(53.044372 1.0349695 -3.7775753e-18)
(52.992649 0.60931599 3.335152e-18)
(52.906823 0.18987251 -3.9470669e-18)
(39.969217 28.44334 -1.9293958e-20)
(41.456772 27.449625 1.7309526e-20)
(42.936585 26.496331 0)
(44.396724 25.473292 -2.8573593e-20)
(45.82635 24.368282 2.5496878e-20)
(47.209404 23.199428 0)
(48.530279 21.993618 -3.933806e-20)
(49.778412 20.77993 -8.568838e-21)
(50.956322 19.586652 3.7257338e-20)
(52.073858 18.428955 0)
(53.122589 17.319089 4.5753858e-20)
(54.104199 16.263662 0)
(55.007309 15.254362 0)
(55.805094 14.265248 -6.7727792e-20)
(56.348992 13.208196 -4.6637222e-21)
(56.462819 12.066246 -1.8042194e-19)
(55.904612 10.437535 2.4290523e-19)
(55.003639 8.6458665 -1.2642686e-18)
(54.546727 7.4519598 0)
(54.270124 6.4983962 6.1322158e-19)
(54.060566 5.6195402 0)
(53.921485 4.8271944 -7.7814176e-21)
(53.794194 4.0855825 1.3974865e-20)
(53.639055 3.4598042 -1.2497794e-20)
(53.476102 2.8715236 -1.4169597e-18)
(53.325631 2.3790354 0)
(53.218116 1.8924767 0)
(53.120504 1.4639529 1.926914e-21)
(53.030497 1.0382795 -1.7016633e-21)
(52.980749 0.61146885 -3.0769145e-18)
(52.89761 0.19074777 -5.9622309e-23)
(39.046852 27.179486 6.4193916e-20)
(40.485141 26.418456 -4.4295625e-20)
(41.95945 25.678937 2.7810272e-20)
(43.443515 24.853403 2.5773342e-20)
(44.917397 23.930291 -7.0774965e-20)
(46.361846 22.92491 -2.1331332e-20)
(47.758562 21.860033 1.9111504e-20)
(49.092815 20.760832 -1.6989202e-20)
(50.359416 19.653452 1.5059923e-20)
(51.560323 18.555479 0)
(52.68642 17.480544 4.7731971e-20)
(53.73443 16.438143 0)
(54.690045 15.422857 -8.046082e-20)
(55.517867 14.415129 0)
(56.075708 13.311962 -1.6307067e-19)
(56.166077 12.114117 6.0045084e-21)
(55.587575 10.374356 4.3086379e-23)
(54.761672 8.623317 6.195482e-19)
(54.391781 7.4670174 -6.2479796e-19)
(54.153384 6.5173566 0)
(53.967084 5.636075 -1.0287036e-18)
(53.846148 4.8443364 -7.1922842e-21)
(53.734896 4.0973023 6.4337153e-21)
(53.592834 3.4703255 -1.4689184e-18)
(53.439921 2.8789551 0)
(53.297153 2.3859784 0)
(53.194974 1.8973989 0)
(53.10173 1.4680605 -1.8046008e-18)
(53.014552 1.040803 0)
(52.967051 0.61296379 2.8128244e-18)
(52.886402 0.1920462 4.2874135e-18)
(38.319448 25.814443 -1.323414e-20)
(39.686792 25.262895 0)
(41.117293 24.722588 -2.4113988e-20)
(42.585638 24.093417 2.2995491e-20)
(44.069057 23.359663 2.158137e-20)
(45.545342 22.53005 3.993754e-20)
(46.993188 21.621631 1.8290925e-20)
(48.393808 20.654458 -1.6621539e-20)
(49.734939 19.650845 -1.5014976e-20)
(51.010498 18.629087 8.1365375e-20)
(52.20883 17.60397 -1.227593e-20)
(53.32109 16.586138 0)
(54.328503 15.572664 1.5991547e-19)
(55.184711 14.548815 -4.411826e-24)
(55.751533 13.400329 1.8766621e-19)
(55.810881 12.133002 1.3043862e-20)
(55.21819 10.279956 -2.8812427e-19)
(54.497941 8.6001767 5.8851824e-19)
(54.219934 7.4796141 6.1790175e-19)
(54.021628 6.5359679 2.3826408e-24)
(53.86111 5.6539142 9.3011737e-19)
(53.760446 4.8640315 8.4285766e-19)
(53.667489 4.1116485 5.8724535e-21)
(53.540517 3.4834511 1.3322089e-18)
(53.398993 2.8886101 1.1857346e-18)
(53.264944 2.3948406 0)
(53.168809 1.9037697 -3.6208793e-21)
(53.080447 1.4733256 1.6409161e-18)
(52.996524 1.0441163 -2.8912634e-18)
(52.951517 0.61500408 -2.5523546e-18)
(52.872841 0.19372808 5.3350816e-22)
(37.802549 24.373287 2.1762875e-20)
(39.080288 24.009132 -2.0942816e-20)
(40.438002 23.649304 -2.073315e-20)
(41.856337 23.205346 4.0491421e-20)
(43.314224 22.658264 -3.8917358e-20)
(44.789071 22.008828 0)
(46.258062 21.266694 0)
(47.699378 20.445433 0)
(49.094912 19.562048 2.9588428e-20)
(50.430926 18.633107 3.6695014e-23)
(51.691767 17.673104 -5.018742e-20)
(52.862288 16.692461 1.0548951e-19)
(53.917628 15.689956 -1.9041332e-19)
(54.798139 14.653285 -1.0043538e-19)
(55.365417 13.458455 2.3716267e-20)
(55.385945 12.103972 -1.3978272e-20)
(54.789984 10.148374 1.7178239e-20)
(54.213889 8.5764124 -5.9236269e-19)
(54.027131 7.4875415 -1.6726013e-20)
(53.872342 6.5507949 -4.8212978e-19)
(53.740858 5.6697953 -8.4717341e-19)
(53.662873 4.8826893 -1.5311067e-18)
(53.590508 4.1253366 -1.3726292e-18)
(53.480805 3.4960351 -6.6671996e-25)
(53.352066 2.8979452 8.4143328e-21)
(53.227989 2.4036184 1.8941469e-18)
(53.138909 1.9100722 0)
(53.056067 1.4786393 1.4798523e-18)
(52.976024 1.0474098 2.6043041e-18)
(52.93372 0.61698185 0)
(52.857395 0.19539348 0)
(37.512242 22.881768 8.1655715e-21)
(38.686462 22.687888 -3.4987832e-20)
(39.949303 22.488049 3.5459698e-20)
(41.288158 22.211019 -1.7681775e-20)
(42.68685 21.838367 -1.7404971e-20)
(44.125442 21.364033 0)
(45.581841 20.78987 0)
(47.032922 20.122108 0)
(48.456556 19.371161 -2.8797893e-20)
(49.832706 18.549414 -5.3969243e-20)
(51.140606 17.668876 0)
(52.358265 16.738029 -9.6184177e-20)
(53.453073 15.756154 1.1665369e-19)
(54.349471 14.70942 -3.6945934e-23)
(54.903562 13.464465 1.5147919e-19)
(54.878587 11.999691 2.9476403e-20)
(54.305751 9.9822676 -3.376589e-20)
(53.911359 8.5494254 5.6736412e-19)
(53.811917 7.4883192 0)
(53.703861 6.5604092 4.3713561e-19)
(53.605014 5.6838402 7.7821465e-19)
(53.552057 4.9005605 1.3816985e-18)
(53.502715 4.1396233 -9.6698008e-21)
(53.413179 3.5093236 8.4951165e-21)
(53.298839 2.9082071 4.8652529e-23)
(53.185906 2.4133416 -1.7004339e-18)
(53.104911 1.9171072 0)
(53.028272 1.484606 4.4798106e-23)
(52.952845 1.0511435 0)
(52.913367 0.61928769 0)
(52.839619 0.19710338 1.8206172e-18)
(37.460897 21.416912 -2.5951446e-23)
(38.518083 21.35006 -2.1964886e-20)
(39.667909 21.277773 7.5604333e-21)
(40.903461 21.14099 1.5402191e-20)
(42.21399 20.920978 1.5461924e-20)
(43.583768 20.606476 0)
(44.993362 20.192307 0)
(46.420423 19.677184 0)
(47.841077 19.064056 0)
(49.230944 18.359089 -2.6561133e-20)
(50.564076 17.569355 2.5395386e-20)
(51.811416 16.699163 0)
(52.930932 15.746601 -2.4136963e-20)
(53.828337 14.688987 2.4631164e-20)
(54.348887 13.386075 -4.2575102e-19)
(54.272937 11.783117 3.0384063e-20)
(53.780589 9.7992667 -3.2292731e-20)
(53.588202 8.513028 -4.8927491e-19)
(53.571874 7.4785433 0)
(53.514098 6.5617954 0)
(53.452323 5.6942337 0)
(53.426508 4.9153903 1.9441094e-20)
(53.40231 4.1532021 1.0905867e-18)
(53.33622 3.5219193 3.7723457e-25)
(53.238447 2.9183983 -1.727746e-18)
(53.137955 2.423218 1.5143062e-18)
(53.066062 1.9242668 1.3468498e-18)
(52.996404 1.490756 -2.368197e-18)
(52.926552 1.0550119 0)
(52.88993 0.62172197 0)
(52.816579 0.19918717 -1.6263631e-18)
(37.632293 19.993637 -5.8969535e-21)
(38.568021 20.019748 2.4596308e-20)
(39.594354 20.046023 -3.2366341e-20)
(40.710647 20.020677 -1.3420927e-20)
(41.911259 19.92667 1.3746819e-20)
(43.184914 19.749599 -2.7765001e-20)
(44.51617 19.478782 2.7717302e-20)
(45.885469 19.10631 0)
(47.269559 18.627786 0)
(48.641937 18.041995 0)
(49.972319 17.348903 0)
(51.224638 16.546142 9.9386164e-20)
(52.34567 15.628267 -1.2428257e-19)
(53.22154 14.548199 2.5679656e-20)
(53.679397 13.177513 2.2204165e-19)
(53.553337 11.417135 0)
(53.240762 9.6218976 0)
(53.241451 8.4605964 4.4348401e-19)
(53.304804 7.4536603 2.4801153e-20)
(53.301352 6.5518732 -2.2073019e-20)
(53.281584 5.6993425 0)
(53.284704 4.9254789 -5.3701043e-19)
(53.287921 4.1659192 6.1424038e-25)
(53.248331 3.5337185 -8.6813145e-19)
(53.170194 2.9287396 -4.926479e-23)
(53.083791 2.4335378 -1.36507e-18)
(53.021771 1.931794 -1.1951163e-18)
(52.959878 1.4972241 1.0546299e-18)
(52.896686 1.0591877 -1.8172479e-21)
(52.862901 0.62446427 8.0162641e-22)
(52.790634 0.20139859 7.0717074e-22)
(37.99768 18.635966 0)
(38.817523 18.718479 -4.1654945e-20)
(39.720044 18.812744 4.4711248e-20)
(40.70868 18.871211 0)
(41.783608 18.873396 -7.3769664e-20)
(42.938948 18.805562 2.3899185e-23)
(44.164452 18.653493 5.1413431e-20)
(45.44472 18.404376 2.5839516e-20)
(46.758805 18.047526 0)
(48.079864 17.574119 -2.4713117e-23)
(49.374285 16.975426 -8.153905e-24)
(50.598787 16.240024 -1.5112205e-19)
(51.686448 15.355191 5.109703e-20)
(52.513123 14.212479 5.3007241e-20)
(52.860425 12.788216 5.6417991e-20)
(52.752267 10.913725 2.3300393e-19)
(52.712501 9.4485317 -5.5261998e-20)
(52.871243 8.3841794 1.0568074e-22)
(53.009279 7.4075756 0)
(53.06434 6.5271948 -3.3422413e-19)
(53.09047 5.6961629 -5.4114697e-19)
(53.125065 4.9274651 0)
(53.158913 4.1764772 0)
(53.147402 3.5434506 7.599619e-19)
(53.092541 2.9382968 6.9249112e-19)
(53.022738 2.4437136 1.2037833e-18)
(52.971339 1.9393107 -8.296591e-21)
(52.917968 1.5036054 3.6600019e-21)
(52.862531 1.06349 1.6563851e-18)
(52.831702 0.62738948 0)
(52.761935 0.20379367 1.28653e-18)
(38.517659 17.337557 -2.5191722e-20)
(39.21707 17.470737 3.2012568e-20)
(39.999688 17.602819 -3.9584538e-20)
(40.862549 17.708622 -4.2419771e-20)
(41.806982 17.772366 1.1218647e-20)
(42.832458 17.778096 4.6820357e-20)
(43.934112 17.711284 0)
(45.101197 17.55662 -2.4701151e-20)
(46.315891 17.298348 0)
(47.552029 16.920012 -4.241149e-23)
(48.773126 16.40305 0)
(49.927703 15.725137 -5.1536258e-20)
(50.931293 14.8579 5.2940766e-20)
(51.652895 13.619487 5.4850561e-20)
(51.883307 12.111952 -2.2602706e-19)
(51.962958 10.357489 -4.8884476e-19)
(52.200372 9.2614097 4.9427349e-20)
(52.476738 8.2743538 -4.0002644e-19)
(52.685109 7.3554841 -2.7708917e-19)
(52.803115 6.4648665 -3.5032522e-20)
(52.874948 5.6819056 4.6426137e-19)
(52.94697 4.9155928 4.6544896e-19)
(53.015043 4.184396 2.415971e-20)
(53.032039 3.5504675 6.6288789e-19)
(53.003574 2.9465059 0)
(52.953708 2.4534989 -2.1351413e-18)
(52.914174 1.946872 -7.3572286e-21)
(52.87019 1.5097582 6.4905925e-21)
(52.823329 1.0679632 7.1981774e-23)
(52.795911 0.63043789 1.2627117e-21)
(52.732296 0.20616405 -1.1416613e-18)
(39.199518 16.056223 0)
(39.781959 16.179175 0)
(40.428359 16.334732 0)
(41.152871 16.465276 0)
(41.957748 16.563401 0)
(42.843907 16.614078 -1.00802e-19)
(43.808843 16.602718 9.3874209e-20)
(44.844237 16.512671 0)
(45.933882 16.324445 -1.0017544e-19)
(47.051094 16.014495 1.0249873e-19)
(48.154576 15.5538 5.2413035e-20)
(49.181142 14.905402 0)
(50.027803 14.00345 1.6584883e-19)
(50.593796 12.639432 -5.5492205e-20)
(50.882091 11.146454 1.594951e-19)
(51.24529 10.051537 4.9330316e-20)
(51.695769 8.9936141 -1.7868752e-19)
(52.067876 8.0991976 -3.5717375e-19)
(52.340451 7.2337991 5.9821866e-19)
(52.511906 6.4375701 4.9855237e-19)
(52.635268 5.6338633 0)
(52.749694 4.8953228 -2.4266463e-20)
(52.854937 4.1855205 2.1482138e-20)
(52.902289 3.5445751 -6.0624853e-19)
(52.901397 2.9521077 0)
(52.874728 2.4617847 1.8906201e-18)
(52.849298 1.9541612 0)
(52.816193 1.515198 -5.7463231e-21)
(52.778391 1.0724194 -2.5900812e-18)
(52.755013 0.63332826 0)
(52.699552 0.20843596 0)
(39.919541 14.67683 0)
(40.383691 14.798473 0)
(40.916062 14.930331 0)
(41.513008 15.058418 7.9579018e-20)
(42.181167 15.160352 -1.6089122e-19)
(42.925109 15.222276 1.9479159e-19)
(43.744738 15.230337 -1.2129428e-19)
(44.631866 15.167113 2.5448942e-20)
(45.568823 15.009414 1.3231128e-19)
(46.52561 14.726646 -7.508791e-23)
(47.457202 14.277956 -5.6063478e-20)
(48.303245 13.608662 -2.2758637e-19)
(48.97261 12.637214 1.1287548e-19)
(49.46289 11.432363 0)
(50.050612 10.378375 0)
(50.676813 9.4871197 8.9439277e-20)
(51.186614 8.7208782 3.1812702e-19)
(51.630773 7.9055057 7.0504559e-19)
(51.972058 7.09484 -3.1216145e-19)
(52.204265 6.3122302 -5.5179012e-20)
(52.375386 5.5732231 4.8801953e-20)
(52.529698 4.8789384 -3.6614805e-19)
(52.674512 4.1763428 1.9013134e-20)
(52.758302 3.5482134 0)
(52.785069 2.9475599 0)
(52.783664 2.4671799 -8.3596085e-19)
(52.775184 1.9611227 0)
(52.755659 1.5196045 0)
(52.727378 1.0767744 1.1473631e-18)
(52.70846 0.63591116 -1.0121763e-18)
(52.661672 0.21075566 -8.9281174e-19)
(40.589242 12.983551 -2.0770427e-23)
(40.970855 13.045872 -1.5436182e-19)
(41.400423 13.144631 7.9330436e-20)
(41.887815 13.234367 0)
(42.436471 13.311164 1.0265721e-23)
(43.046157 13.36586 1.2003788e-19)
(43.715719 13.371038 -4.6287302e-23)
(44.43751 13.307486 -2.9288373e-20)
(45.194872 13.150009 -2.9974761e-20)
(45.958557 12.866646 -6.0298131e-20)
(46.690636 12.417165 -5.9451596e-20)
(47.360214 11.796411 0)
(47.988569 11.017315 0)
(48.695859 10.318241 0)
(49.443761 9.724917 0)
(50.094227 9.1024264 -1.5924736e-19)
(50.680574 8.36137 -1.4112212e-19)
(51.188586 7.6245222 -2.4995486e-19)
(51.589917 6.8890296 0)
(51.879218 6.1887096 -1.9550683e-19)
(52.099009 5.4893318 0)
(52.291759 4.8182033 3.0481567e-19)
(52.474722 4.1475923 0)
(52.597795 3.5455909 0)
(52.655659 2.9412269 0)
(52.678987 2.4670959 0)
(52.689877 1.9673871 0)
(52.687741 1.5225215 -8.9788225e-21)
(52.669884 1.0807102 7.9196327e-21)
(52.655825 0.63800594 1.7901376e-18)
(52.61705 0.21342271 7.8717045e-19)
(41.107261 10.871118 2.7881757e-23)
(41.337044 10.939393 0)
(41.629594 11.026976 1.3175244e-21)
(41.997674 11.102645 8.827971e-20)
(42.459067 11.120933 -1.8522114e-19)
(42.980612 11.144295 -3.2006587e-20)
(43.532875 11.105852 -1.9558168e-19)
(44.128669 11.011444 5.2011191e-19)
(44.764209 10.860531 -2.5620362e-19)
(45.407072 10.687279 -6.2098581e-20)
(46.053975 10.441655 -2.6999442e-23)
(46.710866 10.137788 5.4900749e-20)
(47.450276 9.7949748 0)
(48.224851 9.4983725 0)
(48.933991 9.0611175 0)
(49.603147 8.4971658 2.8253797e-19)
(50.201627 7.9217856 0)
(50.74363 7.2950439 -2.2136249e-19)
(51.199664 6.6399268 0)
(51.54791 6.0022582 0)
(51.812675 5.3688216 0)
(52.037118 4.7463679 -2.3561085e-19)
(52.251239 4.1054777 -2.9698925e-20)
(52.421419 3.5182317 -4.4540525e-19)
(52.512867 2.9429914 2.3110973e-20)
(52.561057 2.4571932 0)
(52.591789 1.9685936 0)
(52.611083 1.5240595 5.0723984e-19)
(52.60463 1.083932 9.0179637e-19)
(52.596282 0.63947535 -3.0253384e-21)
(52.565166 0.2163827 -2.720121e-21)
(42.037275 8.4674263 0)
(42.206635 8.5714664 -9.4191332e-21)
(42.388282 8.7155947 9.6993187e-21)
(42.590866 8.8657673 -9.8339928e-21)
(42.82323 9.0691267 -1.9085782e-20)
(43.136496 9.2083114 1.8703261e-20)
(43.520465 9.3366472 -3.6171749e-20)
(43.976278 9.4291521 -3.4285432e-20)
(44.526262 9.2893766 0)
(45.108244 9.2015407 -2.3176745e-19)
(45.741873 9.0636511 4.8087044e-19)
(46.384036 8.9478376 -4.9680554e-20)
(47.099606 8.8038782 -8.9647574e-20)
(47.801272 8.6110166 1.5928772e-19)
(48.485683 8.310591 -2.8259858e-19)
(49.143976 7.9171306 8.9620381e-24)
(49.760858 7.4396368 -1.106874e-19)
(50.3226 6.8944629 3.9133278e-19)
(50.81003 6.3280528 0)
(51.208943 5.7721612 0)
(51.520955 5.2117147 6.7378162e-20)
(51.77432 4.6445538 -8.224735e-24)
(52.010146 4.0380718 -2.6222199e-20)
(52.219742 3.4876913 -2.3188377e-20)
(52.357673 2.9157819 -3.2636683e-19)
(52.430848 2.4483694 0)
(52.479878 1.963368 0)
(52.523508 1.5265791 -4.405849e-19)
(52.529486 1.0842834 -1.5791832e-18)
(52.528197 0.64011381 -7.0205345e-19)
(52.503588 0.21885691 0)
(42.878272 6.6881649 0)
(43.050458 6.7686522 1.1828057e-20)
(43.245261 6.8697379 -3.8228461e-19)
(43.462004 6.9796623 4.4672687e-23)
(43.688869 7.1064202 3.6080303e-19)
(43.933115 7.2313952 -1.99596e-20)
(44.197097 7.3441058 3.7207026e-20)
(44.455227 7.4608255 3.4171055e-20)
(44.720094 7.8081597 0)
(45.121452 7.9761802 5.3963426e-20)
(45.674663 7.9004556 -4.7024399e-20)
(46.232441 7.8471165 1.7083713e-19)
(46.846219 7.7268532 -3.1276859e-19)
(47.480886 7.6354157 1.4080041e-19)
(48.103194 7.4825832 0)
(48.747825 7.1919047 1.1066873e-19)
(49.377342 6.8785476 2.7404511e-23)
(49.946624 6.4578696 -1.7282784e-19)
(50.441796 5.9748379 2.29053e-19)
(50.869958 5.487817 6.7388203e-20)
(51.21946 5.0112442 -2.9739686e-19)
(51.510331 4.5046621 -2.0986488e-19)
(51.760022 3.9584241 0)
(51.992531 3.4184077 3.2641864e-19)
(52.182168 2.8955647 2.5189698e-19)
(52.289837 2.4253603 3.1739793e-20)
(52.354584 1.9528881 0)
(52.421592 1.517619 0)
(52.442727 1.0845015 -5.5120447e-21)
(52.450897 0.64031675 4.8007382e-21)
(52.433152 0.22049267 0)
(43.496337 5.7604102 -8.5276096e-19)
(43.605796 5.8421507 8.0840308e-19)
(43.733808 5.93654 7.5581695e-19)
(43.886091 6.0357277 -6.9811739e-19)
(44.069111 6.1388446 -6.5789958e-19)
(44.29045 6.2487669 6.2390034e-19)
(44.569596 6.3579729 -5.8564933e-19)
(44.912687 6.4520528 4.9840098e-19)
(45.233533 6.5809068 -4.4381762e-19)
(45.544396 6.5960298 -4.9868018e-20)
(45.818582 6.8137822 3.8870338e-19)
(46.220697 6.9801731 3.4544878e-19)
(46.727751 6.8376083 -4.0276038e-19)
(47.281533 6.6513504 0)
(47.827038 6.619547 2.1971464e-19)
(48.389323 6.4347408 -3.9131328e-19)
(49.000489 6.2602248 8.6466875e-20)
(49.602775 5.9708158 0)
(50.12012 5.5842963 -2.0210043e-19)
(50.549946 5.1659841 1.4277512e-23)
(50.914436 4.7501716 4.1976148e-19)
(51.24167 4.3360056 2.3137826e-19)
(51.514605 3.8349873 4.0811033e-20)
(51.751263 3.350699 -3.5995246e-19)
(51.979989 2.8354239 2.8568968e-19)
(52.134397 2.3916638 1.9595493e-19)
(52.216255 1.9385674 1.2343819e-20)
(52.303873 1.5041127 3.592176e-19)
(52.342552 1.077223 6.2397219e-19)
(52.363506 0.64259998 5.3346469e-19)
(52.356898 0.22165863 0)
(44.32557 4.7254098 -6.3713402e-21)
(44.42647 4.7961303 -2.3424087e-20)
(44.540562 4.8777675 -7.031073e-19)
(44.668377 4.963861 1.3040463e-18)
(44.80942 5.0565407 -1.1969103e-18)
(44.964478 5.152121 5.6212734e-19)
(45.127406 5.2512393 0)
(45.300872 5.3521571 0)
(45.514028 5.4418862 -2.4869151e-20)
(45.790368 5.5409464 4.44247e-20)
(46.135133 5.6423107 2.7695105e-19)
(46.495906 5.5840445 -5.977116e-19)
(46.754083 6.0628034 3.0248521e-19)
(47.203864 5.8583533 0)
(47.687339 5.8147306 0)
(48.18704 5.6865537 0)
(48.677488 5.5531563 -1.521504e-19)
(49.250583 5.3890334 2.0138813e-19)
(49.841652 5.1707486 0)
(50.282154 4.8249307 -1.0491828e-19)
(50.62928 4.4546752 9.2586487e-20)
(50.963849 4.1013634 -3.265356e-19)
(51.276991 3.686738 1.4397355e-19)
(51.518407 3.2416978 -9.5270472e-20)
(51.755783 2.7747385 -1.9589701e-19)
(51.958062 2.3376923 -1.9743335e-19)
(52.066131 1.9070162 3.2650884e-19)
(52.171186 1.4834528 -2.8790033e-19)
(52.227549 1.066926 0)
(52.266104 0.63994464 -4.7781538e-19)
(52.270875 0.22187071 0)
(44.866275 4.0563037 7.4326787e-19)
(44.934125 4.1158581 2.7787907e-24)
(45.013824 4.1831647 9.8514882e-21)
(45.10803 4.2538036 0)
(45.220074 4.3293519 -1.6665983e-20)
(45.35463 4.4110582 4.8481233e-19)
(45.518491 4.4993064 -4.3809847e-19)
(45.714733 4.5942178 0)
(45.935372 4.6962882 2.2041439e-20)
(46.169429 4.7986471 3.3437659e-19)
(46.400467 4.8822232 3.4966113e-20)
(46.661823 5.0186534 -4.9732652e-19)
(46.999975 4.8870016 5.5142251e-20)
(47.259322 5.1500061 1.8987499e-19)
(47.641078 5.2447255 0)
(48.068367 5.0466447 0)
(48.500373 4.9730929 -6.6118899e-20)
(48.930386 4.8015908 1.2739892e-23)
(49.52917 4.6536765 1.0445599e-19)
(50.055539 4.4601366 -2.4674229e-23)
(50.394611 4.1480837 -2.4482249e-19)
(50.686436 3.8174289 7.1966893e-20)
(51.034424 3.4940149 6.3479224e-20)
(51.306011 3.1170968 2.7982112e-19)
(51.529723 2.6777491 -7.0546899e-24)
(51.760634 2.2592705 -2.1764531e-20)
(51.902947 1.8712892 -6.1405187e-19)
(52.02586 1.45387 -1.6923387e-20)
(52.099056 1.0476266 0)
(52.156618 0.63191589 0)
(52.175468 0.2205166 0)
(45.605614 3.2739914 1.3271925e-18)
(45.66653 3.3250438 1.2214333e-18)
(45.735465 3.3827672 -1.1378956e-18)
(45.813042 3.4435095 1.0412697e-18)
(45.89984 3.508951 -9.371102e-19)
(45.995653 3.5796824 8.5013409e-19)
(46.099128 3.6547186 -7.7873743e-19)
(46.211185 3.7323711 0)
(46.339358 3.8102167 0)
(46.496653 3.8866391 5.3927774e-19)
(46.698227 3.9638235 -4.6402367e-19)
(46.923953 4.0227776 0)
(47.160101 4.1418557 -4.86403e-20)
(47.455728 4.2239494 0)
(47.752697 4.1226182 0)
(48.054687 4.4854564 -6.560607e-20)
(48.434274 4.3418857 2.8569391e-19)
(48.78091 4.3195917 -4.0830038e-19)
(49.208424 4.0780455 -9.1379117e-20)
(49.784651 3.9960148 2.4415338e-19)
(50.19679 3.8237857 -3.0671343e-23)
(50.443923 3.5166861 -6.3466252e-20)
(50.767746 3.2346236 0)
(51.099587 2.9500385 0)
(51.319258 2.5814951 0)
(51.552451 2.1576994 0)
(51.728089 1.8065878 3.0446742e-19)
(51.870952 1.4097431 -1.4920413e-20)
(51.96192 1.0217316 -1.3157676e-20)
(52.033183 0.61954259 -5.8024785e-21)
(52.063431 0.21745295 3.3269309e-19)
(46.081994 2.7492762 1.1832712e-18)
(46.122478 2.7913488 -1.0856861e-18)
(46.169853 2.838228 7.8739904e-21)
(46.225679 2.8875973 9.3397816e-19)
(46.291932 2.9412992 -8.450002e-19)
(46.37102 3.0003406 7.6515635e-19)
(46.466165 3.0652152 -1.3782988e-18)
(46.580023 3.1364098 -1.9268439e-20)
(46.71167 3.214143 5.3482498e-19)
(46.856539 3.2978336 0)
(47.010524 3.3856279 -4.6435572e-19)
(47.190604 3.4755341 2.4271825e-20)
(47.412598 3.5382086 3.6486511e-19)
(47.620277 3.5901473 -3.0378534e-19)
(47.851284 3.7016934 2.3500772e-19)
(48.165139 3.6181763 4.4009992e-26)
(48.452764 3.6908436 2.0415051e-19)
(48.738864 3.8263497 -2.2217736e-19)
(49.057635 3.6728059 3.1671297e-19)
(49.479088 3.4472858 -7.1336923e-20)
(49.983083 3.4315719 6.3429472e-20)
(50.260041 3.216985 1.8489563e-23)
(50.511032 2.9549995 9.8675667e-20)
(50.859106 2.7048775 0)
(51.124585 2.4415636 -1.5343503e-19)
(51.351299 2.0457918 1.3529418e-19)
(51.546351 1.725305 2.9822148e-20)
(51.708925 1.350728 -2.6302562e-20)
(51.822168 0.98510186 1.1597617e-20)
(51.898828 0.6029576 3.120324e-19)
(51.938609 0.21107506 -2.8420867e-19)
(46.723477 2.1556145 2.1252025e-18)
(46.759919 2.1910809 -1.9310128e-18)
(46.801241 2.230469 -1.3984848e-20)
(46.847853 2.2719597 -6.4221455e-21)
(46.900151 2.317096 -5.8497419e-21)
(46.958507 2.366666 1.3659579e-18)
(47.023029 2.420525 -5.3207472e-23)
(47.09416 2.4780547 -1.084336e-18)
(47.174566 2.5385598 2.6203051e-24)
(47.26988 2.6013587 0)
(47.386076 2.6656341 -2.410809e-20)
(47.518403 2.7302675 -4.2757668e-20)
(47.661036 2.8120144 -1.8932521e-20)
(47.858848 2.8718785 2.6793124e-19)
(48.060066 2.9317934 -2.3684805e-19)
(48.240178 3.0354442 2.6150429e-20)
(48.515122 3.0966841 0)
(48.783102 3.0291858 -3.9957109e-20)
(49.012546 3.298336 -7.0490164e-20)
(49.326991 3.0283389 -6.246529e-20)
(49.75094 2.9100012 0)
(50.12942 2.8537497 -9.8628703e-20)
(50.351402 2.6820523 0)
(50.608483 2.4071925 0)
(50.915948 2.2437478 1.3523312e-19)
(51.159655 1.916959 -2.3850884e-19)
(51.370423 1.6150158 1.0516768e-19)
(51.542341 1.2778646 0)
(51.682477 0.93788549 -1.738109e-19)
(51.764603 0.5814676 -2.7952461e-19)
(51.814877 0.20188188 0)
(47.129276 1.7455762 -1.8920532e-18)
(47.15197 1.7739829 3.3505469e-21)
(47.178655 1.8051078 1.2406805e-20)
(47.210239 1.8378736 1.4563933e-18)
(47.247894 1.8737608 -1.3200982e-18)
(47.292948 1.9135446 -1.9315866e-24)
(47.346793 1.9574755 0)
(47.410536 2.0057277 1.4162881e-24)
(47.484194 2.0583771 8.6119392e-19)
(47.567009 2.1152387 -7.5456764e-19)
(47.66024 2.1754757 2.1275442e-20)
(47.771939 2.2386083 1.886216e-20)
(47.908104 2.2910922 0)
(48.048085 2.3627977 0)
(48.231109 2.3916346 4.6989497e-19)
(48.40481 2.4447745 2.3014643e-20)
(48.562374 2.4852816 -3.2570141e-19)
(48.834891 2.4474056 3.5922412e-19)
(49.068631 2.3671358 -2.204566e-19)
(49.276949 2.589035 -5.4492464e-20)
(49.573443 2.3713208 0)
(49.989017 2.3714084 -8.6690142e-20)
(50.248901 2.3508449 7.6683852e-20)
(50.451375 2.1481055 -9.4527497e-24)
(50.700259 1.9712513 -5.961838e-20)
(50.963994 1.7499249 1.051184e-19)
(51.201604 1.486192 -9.2693381e-20)
(51.374573 1.1865035 -1.6350963e-19)
(51.53865 0.87696238 1.8003709e-20)
(51.636581 0.55156492 -2.3847778e-20)
(51.698948 0.18809573 7.0114741e-21)
(47.663632 1.3120553 -1.6737766e-18)
(47.684081 1.3359891 -5.9123082e-21)
(47.707223 1.3620912 1.3989892e-18)
(47.733254 1.3896556 0)
(47.762348 1.4198879 -1.1709323e-18)
(47.79462 1.4533701 -8.2455381e-21)
(47.830072 1.4901292 2.4190271e-23)
(47.868659 1.5300031 1.7102088e-18)
(47.910711 1.5729784 -2.3944413e-23)
(47.957752 1.6194113 -6.868192e-19)
(48.013031 1.6691726 0)
(48.079386 1.7201966 0)
(48.160413 1.7776088 0)
(48.266382 1.8221069 0)
(48.381226 1.9076023 -2.3020186e-20)
(48.556947 1.9225385 3.2526221e-19)
(48.724339 2.0126362 -2.5126324e-19)
(48.873633 2.0905145 -2.8504344e-19)
(49.097856 2.1246181 1.945011e-19)
(49.271732 2.2414863 -1.4988836e-24)
(49.473761 2.1315946 0)
(49.782294 1.9248068 1.5147264e-19)
(50.135475 1.9669889 -1.3509292e-19)
(50.34708 1.8715861 5.9598116e-20)
(50.544607 1.7001257 0)
(50.771731 1.5423492 -1.3901765e-19)
(51.025741 1.3218918 4.0864319e-20)
(51.208539 1.0817604 1.8015345e-19)
(51.381215 0.79911474 9.5324974e-20)
(51.500953 0.50672023 0)
(51.566603 0.17117423 -1.9779647e-19)
(48.011078 1.0375257 0)
(48.022933 1.0563502 2.621571e-21)
(48.036834 1.0766479 0)
(48.053112 1.0981216 0)
(48.072281 1.1218684 -4.0342846e-21)
(48.095113 1.1484897 -1.8660963e-18)
(48.12278 1.17821 1.6773198e-18)
(48.156901 1.211213 5.8650084e-21)
(48.199182 1.2480328 1.0469466e-20)
(48.250458 1.2897114 -1.1833949e-18)
(48.310171 1.336757 2.1180452e-18)
(48.378254 1.3888634 -9.3875041e-19)
(48.455841 1.4431486 0)
(48.542501 1.5091692 0)
(48.644356 1.5477039 0)
(48.74052 1.6338918 0)
(48.867444 1.6425518 -1.5823773e-20)
(48.986734 1.6788965 2.5130567e-19)
(49.11985 1.731639 -2.4654446e-20)
(49.310391 1.5461262 -1.5210529e-19)
(49.450516 1.832752 1.5058976e-19)
(49.684851 1.6851733 -2.6448144e-19)
(49.968002 1.5528489 2.3803172e-19)
(50.2489 1.5601199 -1.0510123e-19)
(50.439167 1.4484638 1.389898e-19)
(50.62302 1.3259846 8.1697158e-20)
(50.842542 1.1351456 0)
(51.048084 0.95879562 3.1765437e-20)
(51.213677 0.70930157 -3.2735922e-24)
(51.345649 0.45226135 -1.2356366e-19)
(51.407106 0.154448 1.7435677e-19)
(48.449471 0.71238621 -2.6291819e-18)
(48.459811 0.7268702 2.3708181e-18)
(48.471595 0.74235496 0)
(48.485052 0.75874917 0)
(48.500409 0.77692418 7.1221593e-21)
(48.51785 0.79727491 0)
(48.537501 0.819852 0)
(48.559508 0.84465627 -1.3299086e-18)
(48.584312 0.87163391 1.1820255e-18)
(48.612858 0.90041229 -1.3145523e-24)
(48.646082 0.9304901 7.2962184e-21)
(48.683991 0.96155879 0)
(48.726842 0.9943087 0)
(48.776878 1.023519 0)
(48.834564 1.0694618 0)
(48.904073 1.0991083 0)
(48.984329 1.1461868 -1.3951401e-20)
(49.100065 1.1941584 -1.231174e-20)
(49.209359 1.2243434 -3.0406462e-19)
(49.352825 1.3442594 6.1302989e-19)
(49.536586 1.2261559 -3.0299589e-19)
(49.670051 1.3810098 -2.9087203e-20)
(49.877254 1.2995797 -1.0444981e-19)
(50.117891 1.2169773 9.233958e-20)
(50.347257 1.1888482 -4.0847527e-20)
(50.522909 1.101734 -7.2034532e-20)
(50.697399 0.94458361 5.5185511e-24)
(50.903158 0.79972534 5.6020679e-20)
(51.061911 0.6115856 2.4704389e-20)
(51.194485 0.39326507 1.0893209e-19)
(51.270268 0.14082062 7.6871377e-20)
(48.677972 0.56947743 -2.3243171e-18)
(48.685473 0.57930653 2.0930674e-18)
(48.694432 0.58950497 -1.8892797e-21)
(48.705112 0.60017861 1.7715925e-18)
(48.717797 0.61199941 -1.6131434e-18)
(48.732729 0.62525919 -1.4568698e-18)
(48.750026 0.64003839 1.4019316e-23)
(48.769562 0.65645342 2.3383567e-18)
(48.790964 0.67480211 -1.0428418e-18)
(48.814054 0.69563638 -3.6248026e-21)
(48.83968 0.71948124 -1.0188695e-24)
(48.869582 0.74637698 5.7026047e-21)
(48.9048 0.77531933 0)
(48.945679 0.80791582 8.9281438e-21)
(48.9945 0.83779558 -5.0494036e-19)
(49.057478 0.86902114 4.389733e-19)
(49.137212 0.89969212 0)
(49.224341 0.9240582 -3.58186e-19)
(49.333881 0.95072878 2.872755e-19)
(49.44254 0.95087668 1.6891845e-20)
(49.567093 0.98215322 1.4897581e-20)
(49.70118 1.0019357 2.571939e-20)
(49.830614 1.0109579 0)
(50.005378 0.91801912 1.6114714e-19)
(50.226006 0.85731292 -1.7899463e-19)
(50.434377 0.82091392 -3.1692882e-20)
(50.604731 0.73700331 -5.6007415e-20)
(50.777227 0.61153172 0)
(50.931894 0.48256324 2.8527154e-24)
(51.05579 0.31348805 -7.6844295e-20)
(51.135811 0.11417681 5.9088924e-24)
(48.960142 0.36482077 -4.1099482e-18)