/*--------------------------------*- C++ -*----------------------------------*\
| =========                 |                                                 |
| \\      /  F ield         | OpenFOAM: The Open Source CFD Toolbox           |
|  \\    /   O peration     | Version:  2406                                  |
|   \\  /    A nd           | Website:  www.openfoam.com                      |
|    \\/     M anipulation  |                                                 |
\*---------------------------------------------------------------------------*/
FoamFile
{
    version     2.0;
    format      ascii;
    arch        "LSB;label=32;scalar=64";
    class       volScalarField;
    location    "0.027";
    object      alphat;
}
// * * * * * * * * * * * * * * * * * * * * * * * * * * * * * * * * * * * * * //

dimensions      [1 -1 -1 0 0 0 0];

internalField   nonuniform List<scalar> 
35803
(
0.04528656
0.049754085
0.054992088
0.06094577
0.067609405
0.074954708
0.082916131
0.091386679
0.10020298
0.10909456
0.11759175
0.12499473
0.13023931
0.13176797
0.12733687
0.11406427
0.08889337
0.052755124
0.023431116
0.011384307
0.0085568815
0.0076261787
0.0069008507
0.0061656375
0.0057053267
0.0054274177
0.0052558024
0.0050764838
0.0050344836
0.0048978387
0.0048545538
0.051068048
0.055581782
0.060671702
0.066398768
0.072789296
0.079826686
0.087450325
0.095550067
0.103961
0.11239969
0.12039931
0.12723275
0.1318193
0.13257998
0.12725719
0.11298116
0.086890834
0.050580317
0.021872403
0.011107879
0.0084560493
0.0075778897
0.0068707583
0.0061460173
0.005692448
0.0054201363
0.0052521325
0.0050745845
0.0050329944
0.0048969006
0.0048546608
0.057839704
0.062236338
0.067145333
0.072626854
0.078715418
0.085402832
0.092634664
0.10030379
0.10823556
0.11614109
0.12354169
0.12969886
0.13350877
0.13336857
0.12700767
0.11157479
0.08441962
0.047916763
0.020447309
0.010776242
0.0083929073
0.0075472042
0.0068536207
0.0061350066
0.0056850917
0.0054156811
0.0052501639
0.0050728755
0.0050319082
0.0048962604
0.004854755
0.065753383
0.069917129
0.074565923
0.07974335
0.085476921
0.091757512
0.098531895
0.10569279
0.11305891
0.12033326
0.12702623
0.13238154
0.13527364
0.13407394
0.12649988
0.10972773
0.081355358
0.044719177
0.019042318
0.010462335
0.0083070121
0.0075002905
0.0068247775
0.0061156171
0.0056739387
0.00540875
0.0052467975
0.0050710973
0.0050302762
0.0048954011
0.0048547925
0.074900481
0.07875475
0.083064141
0.087861998
0.093167822
0.098967052
0.10520294
0.11176428
0.11846232
0.12498852
0.13084118
0.1352445
0.13705036
0.13460266
0.12560908
0.10728525
0.077543354
0.040957149
0.017613775
0.010134749
0.0082206817
0.0074533375
0.0067967084
0.0060964368
0.0056616226
0.0054020893
0.0052437169
0.0050691222
0.0050286381
0.0048945245
0.0048548443
0.085318312
0.088792947
0.092694523
0.097036966
0.10183351
0.10706368
0.11266502
0.11851949
0.12442813
0.13006808
0.1349226
0.13819639
0.13871689
0.13479962
0.1241476
0.10403284
0.072789429
0.036651396
0.016157279
0.0098013889
0.0081212831
0.0073961273
0.0067615554
0.006071924
0.0056453679
0.0053935527
0.0052397777
0.0050668398
0.0050265989
0.0048934133
0.00485491
0.096962424
0.099983449
0.10341798
0.10723316
0.11143652
0.11600191
0.1208602
0.12588446
0.13086305
0.13545634
0.13912948
0.14106638
0.14006849
0.13442377
0.12184089
0.099675581
0.066858939
0.031876804
0.014699176
0.0094714825
0.008015433
0.0073339987
0.0067238879
0.0060456131
0.0056298059
0.005383748
0.0052356497
0.0050641698
0.0050244255
0.0048922076
0.0048549961
0.10962543
0.11216126
0.11506357
0.11827924
0.12180481
0.12560563
0.12960384
0.13366136
0.13755162
0.14091606
0.14319874
0.14356041
0.14077553
0.1331079
0.11829063
0.093813011
0.059493959
0.02680296
0.013289364
0.0091819648
0.0078969259
0.0072617881
0.0066796231
0.0060140721
0.0056119589
0.0053711229
0.005230229
0.0050610484
0.0050218891
0.0048906787
0.0048551109
0.12291085
0.12493018
0.12724495
0.12979192
0.13255548
0.13548987
0.13850539
0.14144992
0.14407947
0.146014
0.14667337
0.14519226
0.14031825
0.13029875
0.11292168
0.085914306
0.050490108
0.022522835
0.012010103
0.0089035105
0.0077680472
0.0071821798
0.0066306472
0.0059776448
0.0055942803
0.0053571231
0.0052242754
0.00505757
0.0050191353
0.0048889385
0.0048552548
0.13610865
0.13757492
0.13924835
0.14105851
0.14297612
0.14494129
0.14684894
0.14852943
0.1497179
0.15000938
0.14879562
0.14518216
0.13789211
0.12517346
0.10492277
0.075297515
0.039884208
0.018529681
0.010867696
0.0086352759
0.0076262653
0.0070916258
0.0065733525
0.0059325474
0.0055729682
0.0053423502
0.0052179174
0.005053757
0.005015931
0.0048876395
0.0048554328
0.14795992
0.14884467
0.14982671
0.15083667
0.15183096
0.15273167
0.15341369
0.15368559
0.15325711
0.15169368
0.14835431
0.14231259
0.13227545
0.11652921
0.093173297
0.061194088
0.028759444
0.014962457
0.0099286346
0.0083724288
0.007474433
0.0069920988
0.0065067798
0.005883573
0.0055460346
0.0053275547
0.005211603
0.0050495094
0.0050123237
0.0048868467
0.0048556605
0.15637895
0.1566909
0.1569584
0.15712016
0.15712591
0.15688114
0.15623767
0.15497726
0.15277844
0.14917141
0.14347655
0.13473268
0.12165506
0.10266046
0.076201316
0.043169376
0.021095004
0.01229382
0.0093852671
0.0081195245
0.0073131545
0.0068796347
0.0064256724
0.0058305433
0.005511008
0.0053085469
0.0052037518
0.0050445811
0.0050080948
0.0048860903
0.0048557917
0.15814659
0.15784745
0.15738379
0.15669909
0.15570542
0.15428405
0.15226597
0.14940322
0.1453394
0.13956635
0.13135607
0.1197051
0.10342131
0.081306172
0.052379205
0.026561106
0.015068655
0.010381552
0.0089527102
0.0078376447
0.0071438909
0.00675232
0.0063292089
0.0057735233
0.0054718913
0.0052829647
0.0051929351
0.0050386714
0.0050032486
0.0048854385
0.0048558686
0.14816433
0.14726556
0.14608277
0.14456798
0.14262278
0.14009527
0.13677666
0.13238005
0.12651341
0.11863587
0.10791886
0.093264843
0.073994559
0.050472119
0.030075629
0.017008339
0.011382103
0.009516328
0.0085170976
0.0075751317
0.0069603246
0.0066036869
0.0062196644
0.0057117556
0.0054308135
0.0052528441
0.0051774172
0.0050314577
0.0049976838
0.00488496
0.0048559082
0.11879662
0.11744052
0.11571621
0.11356161
0.11084907
0.10741112
0.10302002
0.097364496
0.090072112
0.080749552
0.069381987
0.056404867
0.042021805
0.028106569
0.01732297
0.011806979
0.0098066134
0.0088769145
0.0081534393
0.0072826208
0.0067814107
0.0064275635
0.0061001458
0.0056429293
0.0053848611
0.0052207399
0.0051605818
0.00502264
0.0049909528
0.004884691
0.0048559215
0.075208738
0.073988112
0.072503212
0.070712539
0.068484664
0.065666776
0.062117683
0.057677545
0.052189447
0.04555808
0.037842196
0.02965781
0.02201527
0.015562247
0.011382282
0.0096497466
0.009057379
0.0082672952
0.0075789031
0.0070232177
0.0065713639
0.006249239
0.0059694417
0.0055669016
0.0053326464
0.0051865523
0.0051391992
0.0050122197
0.004982693
0.0048846353
0.0048559566
0.038282716
0.037741744
0.037006963
0.036058441
0.034846299
0.033315471
0.031410241
0.029048794
0.026169246
0.02281051
0.019139233
0.015447915
0.012395071
0.010081012
0.0090807111
0.008772931
0.0080264059
0.0076476504
0.0072864831
0.0067597586
0.006362815
0.0060729386
0.0058163837
0.0054859899
0.0052793742
0.0051531714
0.0051169239
0.0050000854
0.0049727904
0.0048847625
0.0048561452
0.018267733
0.01814714
0.017897209
0.017511436
0.016993996
0.016344293
0.015562712
0.014618555
0.013491103
0.012185266
0.010798651
0.0094425863
0.0086260717
0.008079685
0.0082438357
0.0076033937
0.0074406989
0.0071188598
0.0066440544
0.0064458389
0.0061115919
0.0058639459
0.0056660292
0.0054015892
0.0052185215
0.0051190316
0.0050904617
0.0049860665
0.0049611025
0.004885234
0.0048566297
0.0099882865
0.0099664165
0.0099025441
0.0097938889
0.0096426746
0.0094324722
0.0091687674
0.0088785147
0.0085676895
0.0082322061
0.007910967
0.0076635366
0.0075653511
0.0074503385
0.0070646783
0.006983932
0.0066601319
0.0064872624
0.0063129958
0.0060465027
0.0058039736
0.0056925469
0.0055226597
0.0053125857
0.0051580854
0.0050881804
0.0050646203
0.0049708342
0.0049486304
0.0048862032
0.0048574832
0.00713836
0.0071226939
0.0071115491
0.0071079148
0.007114342
0.007124773
0.0070969956
0.0070375127
0.0069961715
0.0069293553
0.0068278673
0.0066511755
0.0065889766
0.006515003
0.006483838
0.0063128308
0.0062474973
0.0061125149
0.0058088871
0.0056600562
0.005562431
0.0055013888
0.0053940857
0.0052285222
0.0051056177
0.0050632963
0.0050323406
0.0049547367
0.0049354359
0.0048878408
0.0048582986
0.0064390143
0.0064343755
0.0064357545
0.0064346124
0.0064247455
0.0064052983
0.0063991671
0.0063953996
0.006372076
0.0063168452
0.006211498
0.0061388314
0.0060477443
0.0060337647
0.0058897173
0.0058198222
0.0057160142
0.0056475243
0.0055944385
0.0054947595
0.0054397236
0.0053776356
0.00527071
0.0051587236
0.0050544824
0.0050367841
0.0050077331
0.0049399057
0.0049222507
0.0048903593
0.004856149
0.0058900086
0.0058769386
0.0058582192
0.0058351024
0.0058246382
0.0058246781
0.005814041
0.0057971253
0.0057770951
0.0057548166
0.0057417347
0.005737429
0.0057050842
0.0056057341
0.0055409499
0.0055127291
0.0054715265
0.0054074323
0.0052980069
0.0052798089
0.005260427
0.0052456111
0.005182546
0.0050770612
0.0050226762
0.0050066738
0.0049825345
0.004927732
0.004912478
0.0048912824
0.0048568526
0.0055002575
0.0054997556
0.0055012557
0.0055044366
0.0055054544
0.0055016767
0.0054961799
0.0054886976
0.005474942
0.0054508067
0.0054132632
0.0053854519
0.0053618442
0.0053362828
0.0053290608
0.0052844921
0.0052234454
0.0052195672
0.0051271944
0.0050994589
0.0051337052
0.0051740879
0.0050956748
0.0050235617
0.0050014966
0.0049812627
0.0049659554
0.0049189021
0.0049068842
0.0048913553
0.0048577908
0.0052478974
0.0052454785
0.005244301
0.0052433615
0.0052408719
0.0052373185
0.005233014
0.0052282778
0.005223524
0.0052186261
0.0052142766
0.0052077912
0.0051963899
0.005188798
0.0051604317
0.0051561159
0.0051233019
0.0051061181
0.0050389701
0.0050225396
0.005021653
0.0050764081
0.005055829
0.004991851
0.0049802437
0.0049606384
0.0049469983
0.0049104991
0.0049023922
0.0048870739
0.0048582327
0.0050995319
0.0051020121
0.0051041978
0.0051062865
0.0051090059
0.0051127583
0.0051174301
0.0051221899
0.0051251751
0.005124298
0.0051170169
0.0051011051
0.0050860736
0.0050626148
0.0050654165
0.0050495464
0.0050562377
0.0050450032
0.004979169
0.0049878554
0.0049705704
0.0049908697
0.0050271543
0.0049674463
0.0049624571
0.0049488771
0.0049326092
0.0049010702
0.0048968506
0.0048868089
0.0048635765
0.0049904903
0.0049900204
0.0049893834
0.0049884195
0.0049874468
0.004986612
0.0049859831
0.0049855993
0.0049852794
0.0049843247
0.0049817481
0.0049777355
0.0049746715
0.0049805837
0.0049790223
0.0049903633
0.004978768
0.0049907872
0.0049535815
0.0049433845
0.0049420292
0.004933998
0.0049581445
0.0049462157
0.0049340122
0.0049353203
0.0049160104
0.0048901221
0.0048907655
0.0048785528
0.0048597452
0.0049257562
0.0049257781
0.0049256077
0.0049252388
0.0049248494
0.0049245227
0.0049243432
0.0049244422
0.0049249399
0.0049253927
0.004924648
0.0049222368
0.0049192051
0.0049170018
0.0049187193
0.0049202124
0.0049227814
0.0049185414
0.0049292016
0.0049078225
0.0049092697
0.0049045413
0.0049047431
0.0049198842
0.0049097143
0.0049144589
0.0049032956
0.0048792044
0.0048836627
0.0048748415
0.0048617141
0.0048969301
0.004896871
0.0048966724
0.0048963648
0.0048960615
0.0048957788
0.0048954978
0.0048952111
0.0048948589
0.0048945046
0.0048941524
0.004893652
0.0048933019
0.0048937858
0.0048945378
0.0048952847
0.0048941644
0.0048941931
0.0048942586
0.0048906358
0.0048901547
0.0048888025
0.0048873818
0.0048932906
0.0048919623
0.0048959186
0.004886456
0.0048751296
0.0048759081
0.004869598
0.0048628435
0.0048835572
0.0048834018
0.004883249
0.004883161
0.0048831501
0.0048831938
0.0048832408
0.0048831832
0.0048829585
0.0048827069
0.0048826764
0.004882951
0.004883399
0.0048836927
0.0048840032
0.0048838899
0.0048838688
0.0048839729
0.0048834906
0.0048828087
0.0048855874
0.0048818825
0.0048830778
0.0048841009
0.0048835794
0.0048840029
0.0048785633
0.0048724343
0.004872729
0.0048686101
0.004865957
0.0048782975
0.0048782359
0.0048781876
0.0048781563
0.0048781333
0.0048781219
0.004878138
0.0048781984
0.0048782934
0.0048784126
0.0048785329
0.0048786466
0.0048787721
0.0048789546
0.0048792223
0.0048795221
0.0048796497
0.004879695
0.0048797519
0.0048796875
0.0048811801
0.0048778852
0.0048815806
0.0048799076
0.0048790334
0.0048782581
0.0048767076
0.0048680823
0.0048681247
0.0048678082
0.0048683599
0.0048780273
0.0048779545
0.0048778417
0.0048776877
0.004877498
0.0048772825
0.0048770516
0.0048768132
0.0048765703
0.0048763223
0.0048760699
0.004875822
0.0048755919
0.004875382
0.0048751767
0.0048749171
0.0048744805
0.0048746269
0.0048745336
0.0048739539
0.0048751917
0.0048748274
0.0048807183
0.0048743972
0.0048731512
0.0048724472
0.0048735228
0.0048692626
0.0048679691
0.0048675041
0.0048671391
0.0025493307
0.0023014388
0.0023753835
0.0028884126
0.00413084
0.0071270583
0.011655443
0.01744188
0.024395839
0.032837737
0.042805006
0.053603753
0.065507941
0.077918985
0.089719922
0.099090515
0.10315329
0.09755932
0.078112191
0.048121238
0.022695172
0.011169567
0.0078177859
0.0066573415
0.0060514508
0.0056265048
0.0053725222
0.0051483264
0.0050783397
0.0049311698
0.0048488775
0.002254486
0.0021575769
0.0025189805
0.0032575409
0.005509444
0.009246823
0.014079561
0.019919638
0.02691423
0.035503138
0.045350717
0.056101863
0.067901364
0.080090473
0.091516327
0.10030713
0.10353949
0.09684873
0.076327113
0.046004071
0.02138289
0.010787448
0.0077103344
0.0066237155
0.006035185
0.0056171875
0.0053672899
0.0051458678
0.0050772556
0.0049302906
0.0048489311
0.0020344513
0.0021820993
0.0026316711
0.0039899535
0.0068705952
0.010934051
0.015975899
0.021994896
0.029196538
0.037965838
0.047729435
0.058491655
0.070203364
0.082173592
0.093220113
0.10142522
0.10382517
0.096047334
0.074492155
0.043941868
0.020216669
0.010432559
0.0076486097
0.0066034671
0.0060244298
0.0056107546
0.0053635115
0.0051440893
0.0050762646
0.0049293778
0.0048489852
0.0019342028
0.0022590476
0.0030061258
0.0051465041
0.0084474854
0.012706735
0.017876485
0.02402996
0.031431387
0.040306153
0.05003016
0.060813777
0.072435506
0.084182226
0.094842349
0.1024548
0.10401916
0.095161304
0.072616538
0.04193699
0.01914494
0.010124621
0.0075833348
0.0065794885
0.0060117126
0.0056031873
0.0053591571
0.0051420541
0.0050752321
0.0049284789
0.0048490432
0.0019592375
0.0023936904
0.003891222
0.0065198035
0.010075245
0.014477685
0.019770442
0.026063401
0.033695542
0.042550021
0.052291414
0.063087091
0.074609559
0.086124774
0.09638994
0.10340211
0.1041271
0.09419545
0.070710094
0.039989907
0.018170162
0.0098510278
0.0075271572
0.0065581929
0.0060001019
0.0055962833
0.0053551462
0.0051402098
0.0050742185
0.0049275741
0.0048491081
0.0020062153
0.002997967
0.005053054
0.007994472
0.011722543
0.016253298
0.021669486
0.028117849
0.035920793
0.04473447
0.05452602
0.065319342
0.07673083
0.088004961
0.097865902
0.10427012
0.10415235
0.093153773
0.068780686
0.038102538
0.017272121
0.0096074501
0.0074753526
0.0065370325
0.0059883295
0.0055892659
0.0053510189
0.0051383156
0.0050731812
0.0049266742
0.0048491808
0.002366981
0.003962219
0.0063782283
0.0095210648
0.013384289
0.018036486
0.023574651
0.030196588
0.038107221
0.0468978
0.056739295
0.067513573
0.078801952
0.089824958
0.099272359
0.10506133
0.10409801
0.092041076
0.066835594
0.036277729
0.01644239
0.0093914847
0.0074285044
0.0065168867
0.0059769315
0.0055825053
0.0053469635
0.005136475
0.0050721434
0.0049257721
0.0048492617
0.0031813766
0.0051482938
0.007781961
0.011066707
0.01505224
0.019824281
0.025488752
0.032300743
0.040224704
0.049049951
0.058930791
0.06967067
0.080824424
0.091586419
0.1006113
0.10577831
0.10396732
0.090861364
0.064881487
0.034518886
0.015676967
0.009202819
0.0073855945
0.006497319
0.0059656883
0.0055758555
0.0053428628
0.0051346092
0.0050710942
0.0049248722
0.0048493505
0.0041852668
0.0064000137
0.0092025236
0.01261892
0.016724777
0.021615366
0.02741906
0.034379194
0.042297236
0.051190676
0.061098497
0.071790563
0.082799047
0.093290584
0.10188451
0.10642358
0.10376401
0.089618419
0.062923023
0.032829681
0.014973171
0.0090414493
0.0073461753
0.0064784306
0.0059547081
0.0055694032
0.0053387503
0.0051327278
0.0050700372
0.0049239772
0.0048494464
0.0053420223
0.0077352203
0.010658408
0.014182427
0.018400219
0.023406733
0.029368602
0.036416786
0.044360505
0.053318788
0.063240076
0.07387271
0.084726178
0.094938403
0.10309364
0.10699968
0.10349165
0.088318357
0.060965617
0.03121349
0.014328142
0.008897039
0.0073096999
0.006460128
0.0059439642
0.0055631283
0.0053345953
0.0051307933
0.005068958
0.0049230883
0.004849548
0.0065740013
0.0090778723
0.012103946
0.015738865
0.020072654
0.025200666
0.031325076
0.038422666
0.046417055
0.055429751
0.065353149
0.075916377
0.086605937
0.096530685
0.10424031
0.10750923
0.10315377
0.086967196
0.059014867
0.029676638
0.013739215
0.0087696859
0.0072759278
0.0064424162
0.0059334939
0.0055570579
0.005330411
0.0051287957
0.0050678417
0.0049222072
0.0048496535
0.0078077918
0.010412631
0.013546232
0.017294317
0.021743077
0.027001647
0.03326514
0.040386294
0.048460062
0.057519638
0.067435699
0.077920789
0.088438349
0.098068204
0.10532617
0.10795507
0.10275435
0.08557138
0.057075545
0.028225451
0.013203368
0.0086569046
0.0072445114
0.0064252766
0.0059233089
0.0055511933
0.0053262069
0.0051267206
0.0050666751
0.0049213439
0.0048497614
0.0090405388
0.011745371
0.01498631
0.01884609
0.023407204
0.028812245
0.035152665
0.042336177
0.050488325
0.059585601
0.069486009
0.079885198
0.090223432
0.099551766
0.10635298
0.10834005
0.10229792
0.08413732
0.055153536
0.026856354
0.012717305
0.0085570996
0.007215233
0.006408719
0.0059134314
0.0055455412
0.0053220156
0.0051245689
0.0050654581
0.0049205013
0.0048498707
0.01026358
0.013070642
0.016419667
0.020390695
0.025067105
0.030615624
0.037006783
0.044276768
0.052498187
0.061625031
0.071502576
0.081808927
0.091961248
0.10098226
0.10732261
0.10866707
0.10178891
0.082671202
0.053257915
0.025563504
0.012277836
0.0084686602
0.0071878911
0.0063927566
0.0059038731
0.0055400953
0.00531788
0.0051223533
0.0050642056
0.0049196705
0.0048499812
0.011477083
0.014387204
0.017843821
0.02192527
0.026724962
0.032395898
0.038845025
0.046202958
0.054486021
0.063635754
0.073484105
0.083691397
0.09365195
0.10236067
0.10823707
0.10893928
0.10123188
0.081179332
0.051396407
0.024346201
0.011881925
0.0083904373
0.0071623334
0.006377413
0.0058946408
0.0055348418
0.0053138554
0.0051201048
0.0050629361
0.00491885
0.0048500934
0.012678232
0.015691479
0.019255269
0.023445569
0.028384145
0.034134764
0.040670848
0.048110509
0.056449053
0.065615981
0.075429483
0.085532143
0.095295799
0.10368813
0.10909852
0.10916002
0.10063178
0.079668166
0.049576107
0.023204869
0.011526552
0.0083211242
0.0071384257
0.0063627134
0.0058857317
0.0055297569
0.0053099989
0.0051178672
0.0050616652
0.0049180507
0.004850208
0.013863594
0.016980144
0.020651509
0.024954575
0.030023917
0.03584541
0.042478212
0.049995886
0.058385087
0.067564195
0.077337749
0.08733082
0.09689318
0.10496592
0.10990938
0.10933281
0.099994209
0.078144436
0.047803392
0.022139795
0.011208676
0.0082592192
0.0071160708
0.0063486807
0.005877135
0.0055248123
0.0053063625
0.0051156923
0.0050604111
0.004917275
0.0048503253
0.015029552
0.018250176
0.022029669
0.026452893
0.031633933
0.037534535
0.044264311
0.05185677
0.060292336
0.069479075
0.079208087
0.089087211
0.098444611
0.10619544
0.11067224
0.10946131
0.09932431
0.076615054
0.046083905
0.021150758
0.010925277
0.0082036852
0.0070951941
0.0063353293
0.0058688331
0.0055199818
0.0053029827
0.0051136333
0.005059187
0.0049165177
0.0048504449
0.016173142
0.019499338
0.023387376
0.027940207
0.033206986
0.039206198
0.046027876
0.053691311
0.062169244
0.071359456
0.081039803
0.09080122
0.09995074
0.10737828
0.11138956
0.10954914
0.09862667
0.075086725
0.044422534
0.02023689
0.010673393
0.0081536894
0.0070757259
0.0063226598
0.0058608046
0.0055152489
0.0052998752
0.0051117356
0.0050580069
0.0049157774
0.004850566
0.017293063
0.02072656
0.024726645
0.029402063
0.034754809
0.04085637
0.047766815
0.055497797
0.064014405
0.073204297
0.082832321
0.092472871
0.10141234
0.10851613
0.11206368
0.10959979
0.097905893
0.073565957
0.042823496
0.019396646
0.010450156
0.0081084692
0.007057601
0.0063106567
0.0058530248
0.0055106113
0.0052970321
0.0051100257
0.0050568857
0.0049150537
0.0048506867
0.018388248
0.021930335
0.026048322
0.030832774
0.036280503
0.04248312
0.049479432
0.057274692
0.065826544
0.075012666
0.08458517
0.094102299
0.10283032
0.10961092
0.11269783
0.10961706
0.097165978
0.072058796
0.041290365
0.018627878
0.010252828
0.0080673823
0.0070407536
0.006299288
0.0058454656
0.0055060801
0.0052944263
0.0051085097
0.0050558339
0.0049143442
0.0048508051
0.019459005
0.023110303
0.02735107
0.032231447
0.037784333
0.044084815
0.0511642
0.059020575
0.067604479
0.076783719
0.086297969
0.09568974
0.1042057
0.11066474
0.11329512
0.10960523
0.096410984
0.070571089
0.039826007
0.017928017
0.010078849
0.0080298713
0.0070251165
0.0062885094
0.0058380943
0.0055016739
0.0052920233
0.005107175
0.0050548486
0.0049136419
0.0048509184
0.020506207
0.024268002
0.028627621
0.033604896
0.039263689
0.045659785
0.052819724
0.060734105
0.069347111
0.078516687
0.087970413
0.097235535
0.10553971
0.11167931
0.11385864
0.10956927
0.09564515
0.069108114
0.038432758
0.017305256
0.0099259025
0.0079954657
0.0070106222
0.0062782705
0.005830873
0.0054974116
0.0052898046
0.0051059951
0.0050539175
0.0049129455
0.004851024
0.021530988
0.025404644
0.029876184
0.034954484
0.040717415
0.047206666
0.054444761
0.06241399
0.071053398
0.080210857
0.089602266
0.098740183
0.10683377
0.11265692
0.11439158
0.10951363
0.094875079
0.067673604
0.037112747
0.016745303
0.0097916366
0.0079637677
0.0069972055
0.0062685231
0.0058237636
0.0054933055
0.0052877071
0.0051049382
0.0050530296
0.0049122553
0.0048511196
0.022534295
0.02652287
0.031095384
0.036280428
0.042144522
0.048724123
0.056036668
0.064058962
0.072722348
0.081865557
0.091193393
0.10020442
0.10808901
0.11359971
0.11489765
0.10944291
0.094107263
0.066271763
0.035867975
0.016241862
0.009674098
0.0079344479
0.0069848064
0.0062592295
0.0058167357
0.0054893566
0.0052856881
0.0051039768
0.0050521754
0.0049115651
0.0048512029
0.023518452
0.027618479
0.032290927
0.037581362
0.043544006
0.050210906
0.05759243
0.065667961
0.074353026
0.083480193
0.092743852
0.10162908
0.10930647
0.11450984
0.11538019
0.10936174
0.093347389
0.064906765
0.034700207
0.015790901
0.0095718473
0.0079072331
0.0069733728
0.006250369
0.0058097774
0.0054855541
0.0052837119
0.0051030931
0.0050513434
0.0049108753
0.0048512723
0.024485105
0.028692146
0.033463831
0.038856789
0.044915097
0.051666462
0.059114416
0.067240197
0.075944607
0.085054404
0.09425388
0.10301331
0.11048731
0.11539095
0.11584278
0.10927479
0.092600712
0.06358234
0.033610688
0.015389175
0.0094843118
0.0078818994
0.0069628615
0.0062419405
0.0058029034
0.0054818854
0.0052817541
0.0051022808
0.0050505251
0.0049101879
0.0048513274
0.025435986
0.029744331
0.034614648
0.04010625
0.046256822
0.053089881
0.060604997
0.06877478
0.077496395
0.086588214
0.095722815
0.10435767
0.11163405
0.11624481
0.11628899
0.1091867
0.091872238
0.062301884
0.032600041
0.015033612
0.0094099678
0.0078582638
0.0069532372
0.0062339615
0.0057961581
0.0054783463
0.0052798029
0.0051015414
0.0050497193
0.0049095017
0.0048513678
0.026373189
0.030775801
0.035742998
0.041329074
0.047568152
0.054479569
0.062058655
0.070268334
0.079007875
0.088081142
0.097149796
0.10566315
0.11274741
0.1170737
0.1167224
0.10910206
0.091166776
0.061068535
0.031668347
0.014721175
0.0093450122
0.0078361845
0.0069444706
0.0062264625
0.005789618
0.0054749453
0.0052778826
0.0051008526
0.0050489237
0.0049088148
0.0048513964
0.027296916
0.03178835
0.036848271
0.042524533
0.048848131
0.05583452
0.063474147
0.071720194
0.080477954
0.089529968
0.098534614
0.10693193
0.11382874
0.11788007
0.11714654
0.10902546
0.090488983
0.059885208
0.030815265
0.014448618
0.0092891072
0.0078155558
0.0069365533
0.006219461
0.0057833743
0.0054717083
0.0052760055
0.0051002013
0.0050481339
0.0049081363
0.0048514192
0.02820711
0.032782973
0.037930452
0.04369218
0.050096116
0.057154262
0.064852812
0.073137772
0.081902096
0.090933926
0.09987955
0.10816342
0.11487949
0.11866632
0.11756491
0.10896147
0.0898434
0.058754583
0.030040087
0.014211404
0.0092398919
0.007796294
0.0069294901
0.0062129551
0.0057775024
0.0054686741
0.0052741769
0.0050995677
0.0050473516
0.0049074676
0.0048514437
0.029104339
0.033759915
0.038989519
0.04483213
0.051312451
0.058438071
0.06619036
0.074510327
0.083278696
0.09229463
0.10118283
0.10935783
0.11590102
0.11943475
0.11798093
0.10891463
0.089234491
0.057679115
0.029350648
0.014000004
0.0091896849
0.0077783287
0.0069232285
0.0062069777
0.0057720199
0.0054658789
0.0052724075
0.0050989184
0.0050465766
0.0049068118
0.0048514788
0.029991336
0.034721088
0.040026611
0.045944318
0.052495786
0.059683198
0.067483303
0.075835077
0.084615706
0.093609123
0.10244386
0.1105156
0.11689453
0.12018755
0.11839789
0.10888931
0.088666919
0.056669595
0.028733538
0.013806071
0.0091410214
0.007761602
0.0069177196
0.0062015195
0.0057668605
0.005463348
0.0052706938
0.0050982435
0.0050458168
0.0049061759
0.004851533
0.030865532
0.035664678
0.041040157
0.047025886
0.053641074
0.060884172
0.068730144
0.077114964
0.085907145
0.094881525
0.10366269
0.1116371
0.11786112
0.12092678
0.11881888
0.10888968
0.08814606
0.055733973
0.028177579
0.013622126
0.0090935061
0.0077460681
0.0069128901
0.0061965496
0.0057619437
0.00546107
0.0052690222
0.0050975411
0.0050450838
0.0049055652
0.0048516131
0.031718786
0.036583228
0.042023691
0.048072575
0.054745272
0.062041545
0.069933438
0.078347249
0.087149662
0.096108169
0.10483544
0.11272239
0.11880178
0.12165433
0.11924678
0.10892
0.087677609
0.054877737
0.027677327
0.013446699
0.0090474836
0.0077316813
0.0069086506
0.0061920055
0.0057572382
0.0054589664
0.0052673628
0.0050967764
0.0050443824
0.0049049812
0.0048517217
0.032541993
0.037468912
0.042971099
0.04908036
0.055810277
0.063156879
0.071089068
0.079529581
0.08834194
0.097286943
0.10596941
0.1137668
0.11971715
0.12237194
0.11968446
0.10898426
0.087267146
0.054104687
0.027227334
0.013279058
0.0090030347
0.0077184052
0.0069048916
0.0061878153
0.0057527156
0.0054569134
0.0052656639
0.0050958867
0.0050437056
0.004904418
0.0048518586
0.033349725
0.038328117
0.043883657
0.050047386
0.056830303
0.064224375
0.072194231
0.08066043
0.089483038
0.098416791
0.10705944
0.11478134
0.12060228
0.12308094
0.12013449
0.10908601
0.086920176
0.053417527
0.026822699
0.013118506
0.0089602514
0.0077062072
0.0069015101
0.0061839058
0.0057483441
0.005454828
0.0052638735
0.0050948008
0.005043048
0.0049038691
0.0048520219
0.03415171
0.039170363
0.044768622
0.050977657
0.057806036
0.065242416
0.073247455
0.081738331
0.090571696
0.099496635
0.10810467
0.11575949
0.12147071
0.12377887
0.12059905
0.10922863
0.086642039
0.052818328
0.026459099
0.012964368
0.0089191799
0.0076950593
0.0068984422
0.0061802183
0.0057441183
0.0054526761
0.0052619865
0.0050934485
0.0050424038
0.0049033336
0.0048522097
0.034948922
0.039998103
0.045628685
0.051873253
0.05873863
0.066211015
0.074247528
0.082761681
0.091606491
0.10052526
0.10910431
0.11670081
0.12231524
0.12447582
0.12107975
0.10941527
0.086437809
0.052308919
0.026132658
0.012815985
0.0088798461
0.0076849354
0.0068956908
0.0061767271
0.0057400601
0.0054504058
0.0052600968
0.0050918165
0.0050417618
0.0049028027
0.0048524201
0.035739458
0.040810268
0.046463629
0.052734302
0.059628137
0.067129665
0.075193127
0.083728817
0.092585924
0.1015013
0.11005746
0.11760487
0.12313592
0.12516741
0.12157978
0.10964874
0.086312231
0.05189122
0.025839783
0.012672706
0.0088422586
0.0076758092
0.0068933303
0.006173454
0.0057362099
0.0054480034
0.0052584119
0.0050899975
0.0050411087
0.0049022693
0.0048526444
0.036520421
0.041604385
0.047271668
0.05355954
0.060473558
0.067997269
0.076082777
0.084638034
0.093508389
0.10242326
0.11096302
0.11847108
0.12393273
0.12585424
0.12209979
0.10992918
0.086269583
0.051567523
0.025576977
0.012533881
0.008806417
0.0076676511
0.0068914801
0.0061704677
0.005732589
0.0054455368
0.0052571098
0.0050881695
0.0050404351
0.004901738
0.0048529054
0.037288785
0.042377741
0.048050552
0.054347165
0.06127343
0.068812416
0.076914924
0.085487683
0.094372048
0.10328952
0.11181971
0.11929865
0.1247054
0.1265366
0.12264084
0.11026378
0.086313844
0.051340518
0.025340892
0.012398861
0.0087723175
0.0076604263
0.0068902561
0.00616787
0.0057291707
0.0054431067
0.0052562565
0.0050864507
0.0050397515
0.0049012206
0.0048531492
0.038041938
0.043127994
0.048798184
0.055095374
0.06202621
0.069573518
0.077688129
0.086276319
0.095174404
0.10410118
0.11263097
0.12009211
0.12545864
0.12721894
0.12320719
0.11065427
0.086450153
0.051213579
0.025128027
0.012266983
0.0087399571
0.0076540939
0.006889793
0.006165767
0.0057259379
0.0054408185
0.0052556922
0.0050849747
0.0050390679
0.0049007251
0.0048533738
0.038778608
0.04385375
0.049513021
0.055802627
0.062730425
0.070278842
0.078401147
0.087009006
0.095925941
0.10485925
0.11338763
0.12083849
0.12618049
0.12789155
0.12379138
0.11109504
0.086677451
0.051191618
0.024933759
0.012137538
0.008709335
0.0076486043
0.0068899029
0.006164256
0.005722974
0.0054387623
0.0052553102
0.0050836123
0.0050383757
0.0049002533
0.0048535808
0.039499883
0.044555013
0.050194242
0.056467698
0.063384585
0.070928137
0.079062936
0.087682796
0.096601137
0.10554707
0.11408831
0.1215429
0.12687608
0.12855903
0.12439769
0.11159051
0.086999658
0.051281361
0.024752168
0.012009748
0.0086804647
0.0076439061
0.0068911394
0.0061633915
0.0057204132
0.0054369846
0.0052551703
0.0050822858
0.0050376828
0.0048998009
0.0048537718
0.040209944
0.045233389
0.050841762
0.057089824
0.063986558
0.071526493
0.079664866
0.088278582
0.097206698
0.10617177
0.11473359
0.12220379
0.12754449
0.12922085
0.12502601
0.11214084
0.087417573
0.051491859
0.024577951
0.011882831
0.0086534282
0.0076399747
0.0068928147
0.0061632585
0.0057182182