/*--------------------------------*- C++ -*----------------------------------*\
| =========                 |                                                 |
| \\      /  F ield         | OpenFOAM: The Open Source CFD Toolbox           |
|  \\    /   O peration     | Version:  2406                                  |
|   \\  /    A nd           | Website:  www.openfoam.com                      |
|    \\/     M anipulation  |                                                 |
\*---------------------------------------------------------------------------*/
FoamFile
{
    version     2.0;
    format      ascii;
    arch        "LSB;label=32;scalar=64";
    class       volVectorField;
    location    "0.027";
    object      U;
}
// * * * * * * * * * * * * * * * * * * * * * * * * * * * * * * * * * * * * * //

dimensions      [0 1 -1 0 0 0 0];

internalField   nonuniform List<vector> 
35803
(
(43.345566 32.229586 -9.9698294e-24)
(44.510945 31.249287 -3.2491277e-20)
(45.664835 30.189549 1.8970475e-20)
(46.824281 29.062956 -2.4511119e-20)
(47.977924 27.845273 0)
(49.10461 26.553237 5.821997e-21)
(50.184088 25.217443 -2.318852e-20)
(51.186677 23.868657 0)
(52.169657 22.555012 0)
(53.165144 21.292094 0)
(54.195886 20.077894 -3.6672731e-20)
(55.179318 18.926922 3.1839568e-20)
(56.147972 17.840192 0)
(57.100909 16.809875 -4.4128988e-20)
(58.033954 15.799988 0)
(58.82998 14.786904 0)
(59.287406 13.670071 0)
(59.069984 12.279654 8.7997153e-22)
(58.136587 10.238558 6.9305617e-19)
(57.338182 8.6054102 -3.4275624e-21)
(56.91077 7.4104168 8.5533903e-19)
(56.633926 6.3379988 -7.7308139e-19)
(56.356761 5.3257658 -1.3917776e-18)
(56.096194 4.3778494 2.5032063e-18)
(55.436735 3.6100961 0)
(55.167344 2.7938235 0)
(54.683957 2.2968491 0)
(54.577288 1.4639408 -1.3101728e-18)
(54.254099 1.2040816 -9.8177399e-25)
(53.96555 0.10432155 -2.8463702e-19)
(51.58916 0.41337579 -8.8427553e-20)
(42.534872 31.655462 3.1719035e-20)
(43.732831 30.702388 -1.2817096e-23)
(44.912321 29.745026 -1.7911471e-20)
(46.099593 28.717448 2.3753643e-20)
(47.290807 27.599639 0)
(48.468106 26.402421 -4.7281326e-20)
(49.611419 25.15063 2.5055088e-20)
(50.703704 23.875161 -4.2175002e-21)
(51.767267 22.616587 0)
(52.82954 21.392808 -1.5037691e-23)
(53.901274 20.201795 4.1890692e-20)
(54.935871 19.057366 -3.5283052e-20)
(55.948035 17.968456 0)
(56.934092 16.928996 9.9047968e-20)
(57.888132 15.907365 0)
(58.691704 14.872749 0)
(59.139192 13.710679 -9.5953371e-20)
(58.890717 12.28226 2.530971e-19)
(57.963302 10.206956 -2.8202041e-21)
(57.222634 8.5947 0)
(56.832018 7.4091611 0)
(56.571395 6.3373217 1.4631567e-18)
(56.305928 5.3238777 1.3037414e-18)
(56.054424 4.3761574 -2.3331102e-18)
(55.399303 3.6068267 0)
(55.138543 2.7913149 -1.0020794e-18)
(54.664597 2.2962342 -3.9475917e-22)
(54.563835 1.4625056 1.3148851e-18)
(54.241012 1.2033358 5.3993344e-19)
(53.95682 0.10555096 2.3865804e-19)
(51.587447 0.41614873 8.2066788e-20)
(41.610712 30.809578 -1.8159835e-20)
(42.786201 29.988714 1.754037e-20)
(43.99622 29.166469 -7.59136e-24)
(45.227939 28.261349 0)
(46.471313 27.26094 -6.552833e-21)
(47.710605 26.174865 2.2997417e-20)
(48.927247 25.023454 -1.4944371e-20)
(50.106347 23.835125 4.2663846e-21)
(51.25503 22.644256 -3.6298008e-21)
(52.393821 21.469865 2.1514387e-20)
(53.527342 20.311849 -4.1666195e-20)
(54.623442 19.182959 3.9925762e-20)
(55.68787 18.097476 5.9612804e-25)
(56.715016 17.051604 -5.3894597e-20)
(57.697128 16.01823 -1.5393997e-21)
(58.514547 14.960743 0)
(58.95888 13.75321 -1.6471092e-21)
(58.686032 12.269739 -2.6853366e-19)
(57.774269 10.170731 -3.7054364e-19)
(57.099661 8.5943393 -3.2024419e-21)
(56.745433 7.419263 -7.6282171e-19)
(56.501352 6.3473251 -6.8011841e-19)
(56.249517 5.3317201 1.2079381e-18)
(56.009877 4.3835855 1.0737526e-18)
(55.366174 3.6101426 0)
(55.111786 2.7940968 9.772718e-19)
(54.644973 2.2987273 9.1762992e-19)
(54.550452 1.4640166 -1.3680928e-18)
(54.226881 1.2049743 7.4140197e-19)
(53.947294 0.10673651 -3.3028569e-19)
(51.585499 0.42087224 -7.4669754e-20)
(40.755305 29.810027 2.2942996e-20)
(41.901101 29.130615 -2.2778161e-20)
(43.11002 28.449708 0)
(44.361347 27.682625 0)
(45.639469 26.815843 0)
(46.927773 25.856821 0)
(48.207758 24.822309 9.7026238e-21)
(49.463325 23.736075 -8.4857079e-21)
(50.693214 22.626486 0)
(51.907838 21.512937 0)
(53.108969 20.399054 -5.4284046e-21)
(54.269568 19.296725 -3.7448671e-20)
(55.389805 18.222037 3.2621277e-20)
(56.461687 17.173733 -1.3663677e-24)
(57.474146 16.129457 3.3370099e-21)
(58.304887 15.047664 -3.2684134e-21)
(58.742838 13.794878 3.5262406e-21)
(58.446209 12.238634 4.5135543e-21)
(57.557404 10.126751 -5.8032726e-21)
(56.95856 8.5949428 0)
(56.644807 7.4286712 1.4069012e-18)
(56.419501 6.3564782 -6.2613981e-19)
(56.183855 5.3383436 -1.1005116e-18)
(55.955719 4.3901713 0)
(55.329411 3.6122609 0)
(55.080992 2.7955129 9.1564384e-19)
(54.621541 2.3007678 -9.0778417e-19)
(54.534935 1.4648828 1.6865043e-18)
(54.209822 1.20616 -8.8239985e-19)
(53.936473 0.10812121 4.107777e-19)
(51.583332 0.43195995 1.9247735e-20)
(39.98319 28.672171 0)
(41.093319 28.132853 0)
(42.280894 27.592802 1.2550644e-20)
(43.529232 26.970643 -1.1970554e-20)
(44.822377 26.249062 -8.4732221e-24)
(46.143099 25.431037 -3.0838156e-20)
(47.472507 24.528775 0)
(48.792985 23.560193 2.4824327e-20)
(50.096132 22.547606 1.4604704e-20)
(51.382474 21.509339 1.692616e-24)
(52.649566 20.452715 -3.8987185e-20)
(53.874602 19.389275 -1.85814e-23)
(55.05226 18.334597 -6.8578321e-20)
(56.171211 17.289447 0)
(57.215384 16.236377 5.7154183e-20)
(58.058071 15.128677 3.5154873e-21)
(58.483959 13.83116 1.1811624e-19)
(58.163631 12.184842 -4.7146913e-21)
(57.310027 10.073688 5.6230367e-21)
(56.800223 8.5936566 -3.6100777e-19)
(56.529833 7.4369566 -6.3061602e-19)
(56.325288 6.3654799 5.6098488e-19)
(56.108973 5.3450167 -9.9603532e-19)
(55.892564 4.3980426 3.3724187e-21)
(55.283729 3.6158458 -4.7118332e-19)
(55.048299 2.7973715 -8.6936804e-19)
(54.59456 2.3030053 -7.1506904e-19)
(54.514347 1.4662349 -1.0023552e-21)
(54.19003 1.2078321 9.7326548e-19)
(53.924048 0.10973241 4.7785523e-19)
(51.580811 0.43528936 -1.1606881e-20)
(39.331894 27.405512 1.5613292e-20)
(40.391989 27.001301 2.1655966e-20)
(41.539422 26.598262 -1.616046e-20)
(42.763051 26.121313 1.0508583e-20)
(44.049291 25.550426 3.0143756e-20)
(45.381666 24.8831 -2.9838182e-23)
(46.741434 24.125692 -1.1595918e-23)
(48.10975 23.289527 -1.5868826e-20)
(49.472555 22.390456 -2.849287e-20)
(50.821991 21.444025 1.2685267e-20)
(52.150128 20.459662 2.2457585e-20)
(53.436792 19.448628 1.9885076e-20)
(54.67123 18.424913 2.6624593e-20)
(55.837925 17.390215 6.44255e-20)
(56.914019 16.331919 -6.0269904e-20)
(57.766731 15.195953 1.192197e-19)
(58.172938 13.854445 1.2869706e-19)
(57.830386 12.100102 0)
(57.030274 10.012853 0)
(56.622082 8.5889394 6.4750276e-19)
(56.398308 7.4431303 0)
(56.216602 6.3736535 0)
(56.023288 5.3507838 8.8839897e-19)
(55.818277 4.406607 2.8552475e-21)
(55.229142 3.6199239 -1.7218911e-21)
(55.010738 2.798974 1.7903164e-21)
(54.567597 2.3050339 6.703734e-19)
(54.48826 1.4673658 0)
(54.167083 1.2095996 -2.0653516e-18)
(53.909692 0.11151413 -5.3932002e-19)
(51.577754 0.43692262 9.4366319e-21)
(38.842438 26.027036 2.1093746e-20)
(39.836159 25.74864 -2.2443077e-20)
(40.925002 25.475093 1.3666177e-20)
(42.102574 25.138497 -1.8170441e-20)
(43.358285 24.717823 0)
(44.677619 24.205311 -1.3448209e-23)
(46.04317 23.600884 0)
(47.435979 22.908904 -1.4935755e-20)
(48.838462 22.138344 1.3682549e-20)
(50.236356 21.300347 0)
(51.616115 20.40412 0)
(52.957641 19.459957 -2.3503278e-23)
(54.244832 18.479583 0)
(55.457123 17.464251 -6.6359642e-20)
(56.562898 16.405764 0)
(57.422472 15.236941 -1.2429228e-19)
(57.798406 13.853309 -1.3319726e-19)
(57.437854 11.970639 -9.5351345e-21)
(56.718741 9.9462596 3.2588268e-19)
(56.421637 8.578713 -2.8245558e-19)
(56.248167 7.4458585 -1.6129576e-20)
(56.091493 6.3804202 -9.1418426e-25)
(55.925528 5.3549539 1.239356e-20)
(55.733827 4.4156423 -2.3926582e-21)
(55.175348 3.6243018 4.0902083e-19)
(54.962319 2.8008929 1.0590732e-18)
(54.539742 2.3069856 0)
(54.456449 1.4684452 1.6130299e-18)
(54.14066 1.2116375 1.0868599e-18)
(53.892781 0.11335877 -6.0430877e-19)
(51.574009 0.43750025 -3.3984236e-20)
(38.54345 24.539551 0)
(39.463276 24.390663 3.6882764e-21)
(40.479662 24.240293 -3.8185242e-21)
(41.591145 24.036094 7.7616471e-21)
(42.791537 23.759687 -2.3265284e-20)
(44.070165 23.399561 3.0384544e-20)
(45.412589 22.949785 -4.3930265e-25)
(46.801285 22.4082 0)
(48.217392 21.776912 -2.5854067e-20)
(49.642504 21.061445 -1.1923878e-20)
(51.058215 20.268328 -5.4493409e-20)
(52.442474 19.405501 3.9719494e-20)
(53.773728 18.481543 0)
(55.025303 17.49573 6.7367469e-20)
(56.154438 16.443278 -5.6045472e-20)
(57.016409 15.231473 -1.5873223e-20)
(57.345981 13.811909 -1.2619329e-19)
(56.972295 11.780762 0)
(56.379358 9.875957 -2.8811698e-19)
(56.195906 8.5603189 -2.6029963e-19)
(56.07692 7.4431772 4.5835191e-19)
(55.947763 6.3848339 0)
(55.813876 5.3562398 -5.4814901e-21)
(55.641982 4.4234041 4.7972252e-21)
(55.122967 3.6292589 -3.4502081e-21)
(54.89733 2.8032355 3.6935005e-21)
(54.501218 2.3097794 -8.1480176e-19)
(54.419915 1.4693607 -1.4216679e-18)
(54.110173 1.2138551 1.1481924e-18)
(53.872422 0.11507015 6.8215681e-19)
(51.569359 0.43683794 5.1119387e-20)
(38.470066 23.032005 0)
(39.30631 22.987356 0)
(40.236697 22.940868 3.1795833e-21)
(41.26326 22.85086 0)
(42.384687 22.702131 -1.3390977e-20)
(43.595152 22.481241 2.6787564e-20)
(44.884314 22.17792 -1.3136477e-20)
(46.237531 21.784308 2.5352254e-20)
(47.636788 21.295852 -1.7117484e-23)
(49.061979 20.711601 2.2585216e-20)
(50.491331 20.033226 6.2978679e-20)
(51.899959 19.264457 3.8830248e-20)
(53.260797 18.409379 -3.5971775e-20)
(54.539839 17.463662 -6.7324629e-20)
(55.680591 16.423881 6.4465752e-20)
(56.53214 15.169122 3.1986773e-20)
(56.803338 13.679518 1.1682961e-19)
(56.429651 11.522803 0)
(56.01804 9.8022316 0)
(55.942127 8.5307048 -4.1170604e-23)
(55.881763 7.4322927 -4.0485899e-19)
(55.783297 6.3854728 0)
(55.686112 5.3529636 3.0901564e-19)
(55.531665 4.4300419 0)
(55.06018 3.6363284 -4.6753831e-19)
(54.82593 2.8057059 -8.2137508e-19)
(54.454699 2.3118191 7.1543485e-19)
(54.378491 1.4700999 -3.6525608e-21)
(54.07509 1.2163396 -2.1697228e-18)
(53.847709 0.1163769 -7.763764e-19)
(51.563489 0.43387281 9.7646024e-25)
(38.620397 21.55869 1.2797728e-20)
(39.367038 21.586386 -8.2624988e-24)
(40.202349 21.617897 -1.8539078e-20)
(41.13138 21.618412 0)
(42.156822 21.574125 2.9428922e-24)
(43.27717 21.471382 -1.1726444e-20)
(44.486377 21.297416 0)
(45.773786 21.040057 1.1495157e-20)
(47.124225 20.688977 -2.2245713e-20)
(48.518426 20.236697 0)
(49.933347 19.678638 -3.9981729e-20)
(51.341625 19.012498 0)
(52.710951 18.236085 0)
(53.998707 17.33951 0)
(55.131936 16.317041 -1.601127e-20)
(55.951813 15.006841 -1.2686561e-19)
(56.147203 13.417347 -1.1336423e-19)
(55.824392 11.214712 0)
(55.636421 9.7181459 0)
(55.658017 8.4863466 2.1624724e-19)
(55.659602 7.4095607 4.2133397e-25)
(55.59617 6.3799078 -3.2066347e-19)
(55.539684 5.3432766 -2.7129005e-19)
(55.404688 4.432889 -4.7373785e-19)
(54.981975 3.6437559 -2.1421439e-23)
(54.751293 2.8090145 0)
(54.403589 2.3128944 0)
(54.331963 1.47031 0)
(54.034778 1.2190717 9.503967e-19)
(53.817776 0.11706469 7.2796836e-19)
(51.556456 0.42588096 -7.3909698e-20)
(38.975731 20.130413 2.8032845e-20)
(39.635406 20.204813 -3.473601e-20)
(40.374616 20.291223 3.5426324e-20)
(41.199731 20.360032 4.7320624e-21)
(42.117596 20.396594 3.4788851e-20)
(43.130888 20.387703 -2.054914e-20)
(44.237771 20.320309 0)
(45.432156 20.179665 5.2021112e-20)
(46.703029 19.951336 -6.1307528e-20)
(48.033924 19.622381 3.9568744e-20)
(49.402585 19.181771 0)
(50.780291 18.619929 3.5937251e-20)
(52.130034 17.926511 -3.4074353e-20)
(53.398942 17.083746 0)
(54.493615 16.07698 0)
(55.248659 14.677888 1.2376023e-19)
(55.351439 12.969438 1.2234271e-19)
(55.184809 10.899648 1.4297294e-20)
(55.228871 9.6160773 -1.2746879e-20)
(55.341764 8.422936 0)
(55.40699 7.3704844 0)
(55.384551 6.3639011 5.4506127e-19)
(55.37149 5.3256122 0)
(55.26114 4.4300224 4.1454556e-19)
(54.886737 3.6488942 3.5558406e-19)
(54.67309 2.8137146 4.9160971e-21)
(54.347174 2.3132839 2.1400379e-21)
(54.278165 1.4699931 -4.7899232e-19)
(53.988866 1.2219077 0)
(53.783706 0.11662763 6.4610724e-19)
(51.547245 0.40670769 0)
(39.506431 18.76258 -1.3035964e-20)
(40.074802 18.873251 2.9392902e-20)
(40.722644 18.989304 -3.3825772e-20)
(41.446737 19.099928 3.25436e-20)
(42.25378 19.190311 -1.4280207e-23)
(43.150549 19.245422 -1.818268e-20)
(44.139698 19.254458 -1.6480107e-23)
(45.220133 19.202299 -3.7863873e-20)
(46.385553 19.072432 -3.7684624e-20)
(47.623286 18.847915 0)
(48.913251 18.51173 -3.5810054e-20)
(50.226459 18.046334 1.7483578e-23)
(51.521425 17.431525 6.5787629e-20)
(52.73224 16.638744 -7.6655389e-25)
(53.739864 15.629922 -6.1183755e-20)
(54.376221 14.086051 2.9663634e-20)
(54.45638 12.305501 -2.8052142e-20)
(54.563656 10.629797 5.0675265e-20)
(54.79214 9.4851677 -2.2331466e-20)
(54.991942 8.3333967 -1.9546682e-20)
(55.120376 7.3103518 -2.7274933e-19)
(55.146055 6.3306292 -2.2326777e-19)
(55.179083 5.298676 2.0775453e-19)
(55.098082 4.4197956 3.6787148e-19)
(54.775617 3.6486056 -3.1550238e-19)
(54.580281 2.8192142 6.6914887e-26)
(54.282064 2.3135598 -3.7367487e-21)
(54.214773 1.469174 4.1647991e-19)
(53.935281 1.2246461 0)
(53.745581 0.11566828 -5.7173074e-19)
(51.536834 0.40260007 0)
(40.225537 17.416767 0)
(40.69409 17.531604 0)
(41.22683 17.672237 -6.1816322e-25)
(41.837154 17.80304 -3.6192441e-21)
(42.528636 17.918953 3.1147384e-20)
(43.304379 18.012244 -2.4709148e-20)
(44.169067 18.068969 0)
(45.124374 18.075443 0)
(46.167148 18.01528 3.5271451e-20)
(47.287865 17.869112 0)
(48.468761 17.614825 3.4157082e-20)
(49.680661 17.226918 -6.6187512e-20)
(50.876513 16.673998 0)
(51.972567 15.9108 3.0672195e-20)
(52.819903 14.840992 -5.8948622e-20)
(53.301166 13.1711 2.7710487e-20)
(53.591436 11.572867 0)
(53.95457 10.404899 8.931887e-20)
(54.340696 9.2431056 0)
(54.604956 8.2467227 1.7131253e-20)
(54.80167 7.2072572 2.236604e-19)
(54.87799 6.2554849 2.2090826e-19)
(54.961068 5.2612754 -1.8124909e-19)
(54.914688 4.4000584 -3.257208e-19)
(54.645083 3.6410841 2.8379603e-19)
(54.46503 2.8221974 -7.4882281e-21)
(54.208161 2.313613 4.1716687e-19)
(54.140502 1.4676606 0)
(53.87269 1.2268721 1.2350764e-21)
(53.702921 0.11349434 -5.0568216e-19)
(51.524148 0.38752893 2.8504472e-20)
(41.059128 15.950554 3.9796279e-20)
(41.444049 16.055582 -9.0448266e-20)
(41.880428 16.18819 5.3002401e-20)
(42.373546 16.329659 3.4226604e-21)
(42.93833 16.458199 0)
(43.583046 16.569889 -6.2769647e-20)
(44.313762 16.654177 6.5698791e-20)
(45.1323 16.697382 -6.7579625e-20)
(46.035294 16.682269 6.8408155e-20)
(47.013511 16.586962 1.7029915e-20)
(48.049114 16.384157 6.6853951e-20)
(49.110173 16.039687 -6.4958508e-20)
(50.142732 15.511201 3.1207525e-20)
(51.058009 14.718927 -5.9449277e-20)
(51.722336 13.54915 -5.5536555e-20)
(52.204659 12.112792 5.0462588e-20)
(52.807 10.994168 -1.3437655e-19)
(53.406666 9.9481611 -1.1785195e-19)
(53.849232 9.0423591 6.8599706e-20)
(54.197478 8.0447296 -2.9921191e-20)
(54.44014 7.1312178 -2.6070066e-20)
(54.579002 6.1541358 -1.5891432e-19)
(54.716221 5.2207388 9.8764664e-21)
(54.707365 4.3610808 -1.7204087e-20)
(54.492404 3.6235306 2.2490642e-25)
(54.330608 2.8198239 6.5262905e-21)
(54.11977 2.3107548 1.8695351e-23)
(54.053561 1.465248 -3.164923e-19)
(53.799318 1.2282567 -2.1524402e-21)
(53.652233 0.10953929 4.4714948e-19)
(51.508686 0.36998275 -4.8969686e-20)
(41.860597 14.316455 -4.2429376e-20)
(42.169485 14.390154 0)
(42.528899 14.491575 -1.6487855e-21)
(42.946264 14.590115 -3.6092883e-21)
(43.417368 14.693195 -6.218178e-20)
(43.94734 14.790712 6.6139677e-20)
(44.544009 14.866919 0)
(45.212676 14.907841 6.1828387e-20)
(45.952179 14.899253 -7.1029508e-20)
(46.756038 14.817069 1.5979738e-23)
(47.610682 14.625857 6.798974e-20)
(48.48233 14.284429 -1.4973542e-23)
(49.31701 13.750225 6.0687302e-20)
(50.035913 12.952323 5.5850775e-20)
(50.667036 11.99383 -2.7324281e-23)
(51.420576 11.139952 -4.4817118e-20)
(52.185515 10.393962 1.1793193e-19)
(52.817735 9.6173694 -3.4346127e-20)
(53.350819 8.7081593 -2.9940639e-20)
(53.759898 7.8328662 0)
(54.061696 6.9335663 -1.8186408e-19)
(54.249579 6.0486306 0)
(54.439718 5.1600648 0)
(54.476698 4.3052967 1.4985208e-20)
(54.313987 3.5935189 -2.6112922e-20)
(54.177102 2.8117359 1.1369206e-20)
(54.014482 2.3018563 -3.1167546e-19)
(53.952192 1.4617615 2.7131572e-19)
(53.712792 1.2284941 0)
(53.594502 0.10269126 0)
(51.489795 0.35055463 0)
(42.522567 12.147349 0)
(42.716585 12.215702 0)
(42.959952 12.300137 0)
(43.267553 12.381563 1.1744238e-21)
(43.653646 12.438565 -2.6159179e-21)
(44.106137 12.497382 -1.2613891e-19)
(44.615757 12.530858 1.3557738e-19)
(45.189763 12.545514 1.9132353e-20)
(45.808218 12.507565 -3.7226264e-20)
(46.457974 12.43117 1.4287249e-19)
(47.133591 12.263931 -1.3432117e-19)
(47.835763 11.996234 -3.1014492e-20)
(48.558458 11.644552 -2.8316983e-20)
(49.283746 11.198037 -5.0684318e-20)
(50.053677 10.772358 4.4863456e-20)
(50.851736 10.31186 -2.9803841e-23)
(51.602843 9.756487 -6.8701679e-20)
(52.283978 9.0451795 5.9890452e-20)
(52.843426 8.3248874 -1.0443324e-19)
(53.309087 7.5357947 0)
(53.658382 6.723521 1.7821275e-19)
(53.898703 5.9014472 -1.7242577e-20)
(54.135363 5.0711678 0)
(54.226728 4.2272033 1.3056148e-20)
(54.111645 3.54596 -1.9323243e-19)
(54.006653 2.7945095 3.1676394e-19)
(53.889953 2.2874191 2.7567977e-19)
(53.835768 1.4560571 0)
(53.612925 1.2269996 0)
(53.528409 0.092593651 -1.3405099e-21)
(51.467393 0.33096162 -8.3178655e-20)
(43.50457 9.6697938 0)
(43.639782 9.7608162 2.7196876e-21)
(43.79044 9.8852299 1.8393086e-19)
(43.962724 10.01832 -5.80095e-21)
(44.161251 10.182633 -1.7720189e-19)
(44.422505 10.317896 -1.7944055e-19)
(44.754589 10.440099 1.7258841e-19)
(45.160116 10.541764 1.5285175e-19)
(45.660321 10.503062 -1.3056209e-19)
(46.196135 10.452594 1.2025716e-19)
(46.777339 10.355863 -1.2471402e-19)
(47.41925 10.2305 0)
(48.124008 10.00808 0)
(48.902265 9.8820886 1.3443294e-19)
(49.642295 9.7360829 -1.1802146e-19)
(50.348629 9.3847292 6.8681713e-20)
(51.103556 8.9775563 0)
(51.772152 8.4800472 5.221189e-20)
(52.352604 7.8422895 -4.5435879e-23)
(52.854758 7.1669344 -3.9624062e-20)
(53.248316 6.4500408 0)
(53.533383 5.6986373 0)
(53.816633 4.9187986 -1.0453984e-19)
(53.959187 4.1601339 -1.1365439e-20)
(53.88967 3.4799173 1.6817251e-19)
(53.821644 2.7653777 -2.7566762e-19)
(53.742709 2.2646844 -2.3991748e-19)
(53.70079 1.4468274 0)
(53.498296 1.2236715 0)
(53.451579 0.079165531 0)
(51.441331 0.31196791 1.1121285e-19)
(44.636825 7.4275142 -1.7674349e-21)
(44.767514 7.4896232 -3.7133053e-19)
(44.910887 7.5897969 4.4589212e-19)
(45.071673 7.701396 -6.7888116e-21)
(45.248556 7.8226252 6.4538135e-21)
(45.437065 7.9537141 6.0428775e-21)
(45.627315 8.1021348 1.114405e-20)
(45.819631 8.2509681 0)
(46.024742 8.5481471 0)
(46.370328 8.6883006 0)
(46.811988 8.8433463 -1.4197844e-20)
(47.320033 9.0294468 -2.5123711e-20)
(47.909404 8.7761861 -8.7403583e-20)
(48.600394 8.5820327 7.7513374e-20)
(49.299447 8.5194104 3.4217381e-20)
(49.973599 8.3693983 -1.198221e-19)
(50.678372 8.1212851 4.4783154e-24)
(51.327327 7.7386811 -1.4121121e-23)
(51.899779 7.2781563 -1.5134604e-23)
(52.417544 6.7237009 -6.8990199e-20)
(52.839458 6.0955632 9.0098691e-20)
(53.167761 5.4558375 0)
(53.490608 4.7519548 9.097279e-20)
(53.675397 4.047882 1.9782591e-20)
(53.651658 3.4001336 1.2054234e-19)
(53.623005 2.7217908 2.3991942e-19)
(53.573486 2.233417 6.524211e-21)
(53.547612 1.431959 -5.6792448e-21)
(53.369514 1.2182655 0)
(53.359954 0.063395641 -2.6147736e-19)
(51.406662 0.28536714 -6.1445956e-22)
(45.275538 6.2446437 -1.0421817e-18)
(45.369716 6.30457 3.9564908e-21)
(45.48067 6.3778231 4.7519739e-19)
(45.613566 6.4584527 6.9150827e-21)
(45.774403 6.5457446 -1.6783628e-24)
(45.972233 6.6388959 -5.7761052e-21)
(46.216895 6.7341987 -3.4313501e-19)
(46.504037 6.8239248 2.9721019e-19)
(46.774914 6.9449932 0)
(47.034288 7.0728418 0)
(47.335285 7.1563384 1.2762769e-20)
(47.666378 7.0845765 2.2452393e-20)
(47.957189 7.6626396 0)
(48.493704 7.5003039 -3.334e-20)
(49.112461 7.3026701 5.8828291e-20)
(49.721667 7.2977937 1.0400848e-19)
(50.344662 7.1728797 -4.8697009e-23)
(50.938132 6.9552192 -1.8033102e-23)
(51.503273 6.6357471 -1.9585718e-23)
(52.017535 6.2009901 -6.0085594e-20)
(52.443056 5.6966445 -5.2266096e-20)
(52.803406 5.1420679 0)
(53.157728 4.5405525 -5.9390193e-20)
(53.384673 3.9083845 1.0329912e-19)
(53.40032 3.2954402 -1.0486905e-19)
(53.414786 2.6600113 -2.0871833e-19)
(53.38719 2.1918297 0)
(53.377876 1.4104866 0)
(53.224546 1.211309 4.300463e-21)
(53.250154 0.048559182 2.2516872e-19)
(51.328584 0.20352921 4.8514219e-23)
(46.277305 5.1602995 5.1217057e-19)
(46.345132 5.2165291 0)
(46.422365 5.2843265 0)
(46.509759 5.3592773 0)
(46.607528 5.4415152 3.7037416e-19)
(46.715318 5.5308676 -6.6500956e-19)
(46.833748 5.6264686 2.9649969e-19)
(46.96823 5.7279149 2.6289725e-19)
(47.133256 5.8313732 -3.0568994e-23)
(47.340239 5.9398518 -2.0417838e-19)
(47.59859 6.0573244 0)
(47.945883 6.2409394 1.9602764e-20)
(48.355182 6.101227 0)
(48.569452 6.6005059 2.9461435e-20)
(49.050706 6.4026133 -2.5356006e-20)
(49.557205 6.3607227 0)
(50.063706 6.1767711 3.9344012e-20)
(50.610679 6.0471704 6.8799413e-20)
(51.157233 5.918124 6.0023521e-20)
(51.658909 5.6295267 -1.706467e-23)
(52.073611 5.224649 -4.5483285e-20)
(52.431932 4.7943369 1.5834757e-19)
(52.818952 4.264579 -2.3082882e-23)
(53.084447 3.7474613 -1.7983718e-19)
(53.135998 3.1770747 5.2169867e-20)
(53.192816 2.581484 -2.2694503e-20)
(53.192967 2.135632 -9.8744553e-21)
(53.194282 1.382067 8.5975392e-21)
(53.059558 1.2072889 -3.741234e-21)
(53.127509 0.042636211 3.1503158e-21)
(51.320186 0.29875612 0)
(46.896662 4.2810779 -9.1501818e-19)
(46.949923 4.3258913 0)
(47.012833 4.3794107 7.9326569e-19)
(47.087498 4.4384738 -1.4464159e-18)
(47.176816 4.5037527 6.4778823e-19)
(47.284539 4.5761682 0)
(47.414405 4.6563988 8.1243096e-21)
(47.568306 4.7447396 -4.6016245e-19)
(47.744865 4.8413102 8.112457e-19)
(47.940791 4.9437824 -7.2403983e-19)
(48.151346 5.049388 3.125055e-19)
(48.357846 5.1233535 -2.4866814e-24)
(48.585405 5.2800686 0)
(48.908775 5.2145593 -1.8234474e-19)
(49.146435 5.4818048 3.5862788e-19)
(49.507965 5.6598023 -1.7576275e-19)
(49.892113 5.4467504 0)
(50.347007 5.248357 -8.884733e-20)
(50.839627 5.1595352 5.2141223e-20)
(51.330641 5.0223878 4.5488455e-20)
(51.744648 4.7532769 -9.1557733e-24)
(52.084549 4.3743889 -1.0332278e-19)
(52.464034 3.9747513 2.996569e-20)
(52.773912 3.4940816 2.6081551e-20)
(52.87315 3.0523191 -9.0779519e-20)
(52.959621 2.4924501 0)
(52.993959 2.0590281 0)
(53.003208 1.3466545 0)
(52.874508 1.1946669 -2.0832222e-19)
(53.00469 0.049126616 0)
(51.317335 0.4748618 0)
(47.771485 3.4810649 8.1723221e-19)
(47.808837 3.5202114 -1.5272756e-18)
(47.851476 3.5666536 7.020525e-19)
(47.899967 3.6179311 6.4051513e-19)
(47.954651 3.6748342 -5.7431254e-19)
(48.015526 3.7380069 0)
(48.082916 3.8076665 -7.1171291e-21)
(48.158437 3.8836494 0)
(48.246119 3.9653427 0)
(48.353707 4.0520502 3.2072437e-19)
(48.493432 4.1419415 -5.4480657e-19)
(48.683247 4.2426914 2.2330307e-19)
(48.915772 4.3299621 -1.2998369e-20)
(49.148721 4.4202082 -2.2683312e-20)
(49.396079 4.5580769 0)
(49.649496 4.3608871 1.722828e-20)
(49.871569 4.8022046 0)
(50.238947 4.6065095 0)
(50.639995 4.4445964 0)
(51.048159 4.3545015 -1.5803102e-19)
(51.473109 4.2164622 1.377641e-19)
(51.801183 3.9862656 0)
(52.139144 3.6247358 5.2153807e-20)
(52.454216 3.2315856 -2.2685705e-20)
(52.612941 2.8652908 9.870847e-20)
(52.718002 2.3689432 0)
(52.787425 1.9840946 1.4947649e-20)
(52.807599 1.305016 -1.3010141e-20)
(52.684333 1.162865 1.8119997e-19)
(52.873233 0.056177136 0)
(51.302936 0.43334856 1.5710342e-20)
(48.31801 2.7728122 1.4525688e-18)
(48.347923 2.8033834 -1.3449783e-18)
(48.383156 2.8391232 -1.2346855e-18)
(48.424802 2.8782814 1.116907e-18)
(48.474295 2.9218673 1.005323e-18)
(48.533512 2.9707087 -8.9324962e-19)
(48.604618 3.0252286 -6.2122465e-21)
(48.689536 3.085636 5.4847656e-21)
(48.789131 3.1519284 -3.0887117e-19)
(48.901963 3.2236353 2.71029e-19)
(49.023082 3.3000524 0)
(49.14452 3.377293 -2.0741807e-19)
(49.270456 3.4517385 1.811067e-19)
(49.430786 3.5312791 -9.8711081e-21)
(49.605475 3.5448186 0)
(49.782059 3.7845175 0)
(50.078543 3.5027073 1.0443244e-19)
(50.274296 3.9681985 -8.9779438e-20)
(50.563168 3.8380575 5.8320385e-20)
(50.857679 3.7356982 -2.2693542e-23)
(51.194785 3.6044777 -5.9747023e-20)
(51.589652 3.5332638 -5.2136896e-20)
(51.893598 3.2956694 1.0886429e-23)
(52.144762 2.9484646 3.9472786e-20)
(52.344608 2.6595748 -9.1732363e-24)
(52.469161 2.2197969 -2.9896286e-20)
(52.577904 1.8742708 -1.3006418e-20)
(52.610075 1.2547845 2.263993e-20)
(52.498052 1.110768 -9.8529115e-21)
(52.663049 0.050843516 1.4055893e-19)
(51.274414 0.30147167 -3.4338981e-20)
(49.073462 2.1990489 -2.5608574e-18)
(49.091692 2.2253363 2.3649818e-18)
(49.112208 2.255625 -1.0824965e-18)
(49.135051 2.2889086 0)
(49.160169 2.326191 -3.4327604e-21)
(49.18736 2.3681595 -3.0596759e-21)
(49.216309 2.415144 8.1326874e-21)
(49.246912 2.4673101 -4.7840003e-21)
(49.280126 2.5247086 0)
(49.31956 2.5873623 4.721171e-19)
(49.373526 2.6550514 -2.7429973e-23)
(49.45376 2.7280979 -7.2790323e-19)
(49.565697 2.8071159 3.2509509e-19)
(49.695596 2.8877008 8.5921769e-21)
(49.854452 3.013565 -1.4974089e-20)
(50.050842 2.978421 -1.3044117e-20)
(50.217434 3.2509353 0)
(50.439996 3.0984573 -1.9735655e-20)
(50.573597 3.3602065 -1.0233288e-19)
(50.769628 3.2967392 1.7690558e-19)
(50.96932 3.1059176 -2.5759815e-20)
(51.324968 3.0381667 2.2597059e-20)
(51.689875 2.996781 -3.9476226e-20)
(51.871424 2.6576551 0)
(52.061094 2.3838746 0)
(52.217099 2.0498218 2.6004265e-20)
(52.35308 1.7367656 -4.5265827e-20)
(52.401273 1.1940064 2.9545548e-20)
(52.318382 1.0464801 -5.105174e-25)
(52.506254 0.028586487 -1.2671273e-19)
(51.181965 -0.052434772 4.9978649e-21)
(49.540448 1.7203457 0)
(49.555665 1.7401788 0)
(49.573931 1.7630818 1.8464928e-21)
(49.595861 1.7883987 0)
(49.622254 1.8169448 7.6935169e-19)
(49.6541 1.8494261 -1.3648586e-18)
(49.692528 1.8864694 5.9973246e-19)
(49.738659 1.9289125 4.1648027e-21)
(49.793651 1.9773595 4.6500277e-19)
(49.856578 2.0331586 -1.6931592e-23)
(49.924772 2.0967012 5.6016791e-21)
(49.993263 2.1677005 4.8934736e-21)
(50.059537 2.2446909 -2.8289862e-19)
(50.131064 2.3281109 7.475369e-21)
(50.205723 2.3819256 1.3031462e-20)
(50.285141 2.5274929 1.815989e-19)
(50.422361 2.4628576 -1.5814421e-19)
(50.510561 2.6956743 -1.2044509e-19)
(50.730749 2.4095099 1.0484844e-19)
(50.781234 2.8343606 -5.1721587e-20)
(50.883831 2.7397424 8.9997676e-20)
(51.116063 2.5842922 -1.7561e-19)
(51.464591 2.5443309 6.8649908e-20)
(51.635811 2.3990292 0)
(51.780299 2.0676513 0)
(51.967924 1.823976 0)
(52.119435 1.5717155 1.9689767e-20)
(52.175882 1.0907087 -1.7138474e-20)
(52.122639 0.96393767 -5.9667354e-20)
(52.26106 0.0638351 -1.0714515e-19)
(51.154964 0.10341981 -6.4710945e-21)
(50.140785 1.2452103 0)
(50.149536 1.26087 -8.8311091e-22)
(50.159593 1.27887 1.6501411e-18)
(50.171244 1.2986617 -2.9833011e-18)
(50.184866 1.3208151 1.3365857e-18)
(50.200922 1.3457375 1.1896613e-18)
(50.219973 1.3736111 -2.1046366e-18)
(50.242625 1.4044054 -3.6080146e-21)
(50.268947 1.4384028 8.1630101e-19)
(50.299317 1.4752318 0)
(50.332832 1.5154295 -4.8923915e-21)
(50.369548 1.5595239 -4.2738105e-21)
(50.411608 1.6080589 7.4611532e-21)
(50.460264 1.6597209 -6.5061128e-21)
(50.521423 1.7325067 0)
(50.590057 1.765776 -3.061591e-19)
(50.643203 1.9167598 2.7520876e-19)
(50.762817 1.8295083 -2.395505e-19)
(50.818687 2.167237 2.0851791e-19)
(50.932122 1.9100064 2.268103e-20)
(50.93075 2.0708904 0)
(51.057348 2.1639702 0)
(51.236945 1.8935127 2.9795673e-20)
(51.458572 1.9909795 -2.6004081e-20)
(51.542476 1.7368355 0)
(51.724374 1.5384056 0)
(51.90166 1.3385037 3.4264623e-20)
(51.952403 0.96181878 -2.9825664e-20)
(51.909884 0.86729867 1.038304e-19)
(52.089397 0.10819265 8.3942732e-20)
(51.12151 0.42560384 0)
(50.470865 0.86450435 1.7187566e-18)
(50.475447 0.87518953 -1.5757895e-18)
(50.480931 0.88743181 -1.4401999e-18)
(50.487464 0.90087649 1.3000962e-18)
(50.495286 0.9160236 1.1645382e-18)
(50.504698 0.93320771 -1.0362563e-18)
(50.516112 0.9526261 0)
(50.530147 0.97446029 8.0861236e-19)
(50.54781 0.99892533 -7.1057499e-19)
(50.570618 1.0261799 0)
(50.600011 1.055952 -2.1286446e-21)
(50.634228 1.0883215 3.7201021e-21)
(50.668411 1.1232884 -4.1551487e-19)
(50.700721 1.160251 1.7104398e-23)
(50.734251 1.1900792 3.1082397e-19)
(50.781853 1.2362593 -2.7501665e-19)
(50.848488 1.234581 2.3948089e-19)
(50.905822 1.3485051 -6.5140339e-21)
(50.981919 1.2793864 0)
(51.040986 1.4126515 9.8270063e-21)
(51.111928 1.3545371 0)
(51.079882 1.6810683 -1.4932144e-20)
(51.118655 1.4168266 1.2890596e-20)
(51.281376 1.4638721 4.5170142e-20)
(51.363508 1.3576285 -1.9690298e-20)
(51.520076 1.21682 -3.4268473e-20)
(51.693919 1.0616756 5.2768936e-24)
(51.740896 0.78927704 2.5951417e-20)
(51.72331 0.72926682 -6.7764694e-20)
(51.875264 0.15837406 0)
(51.093996 0.36257072 0)
(50.881201 0.60610554 2.9814785e-18)
(50.883073 0.61430249 -2.7392895e-18)
(50.885192 0.62367562 2.5069863e-18)
(50.887459 0.63386635 -2.2625678e-18)
(50.889877 0.64529888 -2.0267189e-18)
(50.892525 0.65817054 1.8039967e-18)
(50.895525 0.67255154 -1.595794e-18)
(50.898951 0.68845704 1.4079448e-18)
(50.902652 0.70580087 3.6206164e-21)
(50.906058 0.7243165 0)
(50.908565 0.7436989 4.7550767e-19)
(50.911615 0.76341569 -4.1370106e-19)
(50.918146 0.78363063 0)
(50.929891 0.8052804 3.1476583e-19)
(50.946501 0.83219554 -2.7005763e-19)
(50.965752 0.86167524 0)
(50.993675 0.90935413 0)
(51.03527 0.92171326 5.1822036e-25)
(51.09218 0.96180499 0)
(51.149164 0.98232283 -8.5374601e-21)
(51.167069 1.0957542 0)
(51.162847 0.95419059 1.2997585e-20)
(51.073601 1.1637421 -2.2501694e-20)
(51.081531 0.92188616 -2.9325624e-20)
(51.196801 0.973315 1.7117864e-20)
(51.319757 0.88147796 2.979955e-20)
(51.474878 0.72499935 -2.5954172e-20)
(51.540991 0.59901081 -4.5955561e-24)