/*--------------------------------*- C++ -*----------------------------------*\
| =========                 |                                                 |
| \\      /  F ield         | OpenFOAM: The Open Source CFD Toolbox           |
|  \\    /   O peration     | Version:  2406                                  |
|   \\  /    A nd           | Website:  www.openfoam.com                      |
|    \\/     M anipulation  |                                                 |
\*---------------------------------------------------------------------------*/
FoamFile
{
    version     2.0;
    format      ascii;
    arch        "LSB;label=32;scalar=64";
    class       volScalarField;
    location    "0.001";
    object      alphat;
}
// * * * * * * * * * * * * * * * * * * * * * * * * * * * * * * * * * * * * * //

dimensions      [1 -1 -1 0 0 0 0];

internalField   nonuniform List<scalar> 
23203
(
0.046598193
0.050567533
0.054685483
0.058883941
0.063141743
0.067445832
0.071784772
0.076148992
0.080530519
0.084922611
0.089319409
0.09371557
0.09810651
0.10248758
0.10685363
0.111199
0.11551685
0.11979822
0.12403029
0.052060249
0.05590364
0.059844177
0.063868067
0.067963563
0.072116212
0.076312395
0.080540895
0.084792092
0.089058501
0.093333476
0.097611069
0.10188582
0.10615233
0.11040481
0.11463651
0.11883917
0.12300235
0.12711093
0.057813901
0.06151108
0.065284677
0.06913653
0.073062151
0.07704983
0.081086926
0.085162404
0.089266681
0.093391331
0.097528893
0.10167261
0.10581618
0.10995341
0.11407783
0.118182
0.12225684
0.12629069
0.13026798
0.063809177
0.067351322
0.070962586
0.0746481
0.078405433
0.082225593
0.08609798
0.090012635
0.093960396
0.097932794
0.10192202
0.10592079
0.10992217
0.11391929
0.11790489
0.12187079
0.12580721
0.12970193
0.13353938
0.070002963
0.073389429
0.076841578
0.080364546
0.083956335
0.087609841
0.091316309
0.095067036
0.09885358
0.10266779
0.10650182
0.11034813
0.1141993
0.11804785
0.12188581
0.12570432
0.12949298
0.13323915
0.13692724
0.076358288
0.079590738
0.082886018
0.086249235
0.089678081
0.09316667
0.096707669
0.10029349
0.10391645
0.10756883
0.11124293
0.11493108
0.11862555
0.12231835
0.12600097
0.12966396
0.13329642
0.1368854
0.14041518
0.082846364
0.085926934
0.089068095
0.092273768
0.095541778
0.098867198
0.10224372
0.10566462
0.10912286
0.11261113
0.11612194
0.11964757
0.12318007
0.12671112
0.13023174
0.13373203
0.13720073
0.14062462
0.14398788
0.089443087
0.092373727
0.095362899
0.098412991
0.10152206
0.10468597
0.10789916
0.11115554
0.11444856
0.11777127
0.12111633
0.12447603
0.12784229
0.1312065
0.13455936
0.13789063
0.14118875
0.14444032
0.14762941
0.096125055
0.098907755
0.10174673
0.1046431
0.10759503
0.110599
0.11365
0.1167424
0.11986999
0.12302609
0.12620347
0.12939444
0.1325908
0.13578374
0.13896371
0.14212024
0.14524154
0.14831408
0.15132186
0.10286997
0.10550638
0.10819687
0.11094128
0.11373777
0.11658323
0.11947308
0.12240198
0.12536399
0.12835256
0.13136057
0.1343803
0.13740346
0.14042109
0.14342348
0.14639995
0.14933858
0.15222573
0.15504537
0.10965572
0.11214752
0.11469116
0.11728523
0.11992777
0.12261595
0.12534547
0.12811119
0.13090733
0.13372741
0.13656434
0.13941039
0.14225718
0.14509566
0.14791595
0.15070727
0.15345759
0.15615321
0.15877807
0.11646007
0.11880908
0.12120744
0.1236526
0.12614241
0.12867423
0.13124393
0.13384648
0.13647616
0.13912654
0.14179053
0.14446035
0.14712756
0.149783
0.15241672
0.15501783
0.15757424
0.16007223
0.16249573
0.12326086
0.12546911
0.12772339
0.13002059
0.13235843
0.13473433
0.13714423
0.13958316
0.14204538
0.14452448
0.14701332
0.14950409
0.15198828
0.15445666
0.1568992
0.15930494
0.16166176
0.16395592
0.16617142
0.13003575
0.13210501
0.13421563
0.13636505
0.13855098
0.14077077
0.14302031
0.14529459
0.14758785
0.14989361
0.1522047
0.15451323
0.15681065
0.15908764
0.16133412
0.1635391
0.16569044
0.16777442
0.16977509
0.13675845
0.13869014
0.1406572
0.14265864
0.14469224
0.14675518
0.14884324
0.1509513
0.15307355
0.15520342
0.15733367
0.15945636
0.16156284
0.16364376
0.16568899
0.16768751
0.16962719
0.17149436
0.17327311
0.1433978
0.14519301
0.14701662
0.14886975
0.15075031
0.15265528
0.15458028
0.15652008
0.15846878
0.16041972
0.16236558
0.16429834
0.16620931
0.16808907
0.16992746
0.17171346
0.17343495
0.17507833
0.1766278
0.14991875
0.15157813
0.15325808
0.1549623
0.15668879
0.15843428
0.16019422
0.16196327
0.16373541
0.16550391
0.16726136
0.16899966
0.17071007
0.17238314
0.17400869
0.17557571
0.17707212
0.1784844
0.17979687
0.15628175
0.15780532
0.15934093
0.16089523
0.16246622
0.16405032
0.16564277
0.16723812
0.16883024
0.17041231
0.17197684
0.1735157
0.17502007
0.17648049
0.17788677
0.17922794
0.18049199
0.1816655
0.18273296
0.1624417
0.16382878
0.16521881
0.16662178
0.16803545
0.16945581
0.17087789
0.17229612
0.17370427
0.17509545
0.17646211
0.17779606
0.17908847
0.18032986
0.18151007
0.18261816
0.18364223
0.18456899
0.18538311
0.16834704
0.16959806
0.17083985
0.1720892
0.17334313
0.1745969
0.17584522
0.17708239
0.17830213
0.17949748
0.18066085
0.18178401
0.18285813
0.18387373
0.18482069
0.18568816
0.18646435
0.18713614
0.18768842
0.17393694
0.17505413
0.17614812
0.17724027
0.1783303
0.17941337
0.18048366
0.18153518
0.18256147
0.18355554
0.18450974
0.18541583
0.18626496
0.18704771
0.18775402
0.18837311
0.18889336
0.18930183
0.18958368
0.17915063
0.18012514
0.18107314
0.18200938
0.18293084
0.18383746
0.18472432
0.18558482
0.18641212
0.18719901
0.1879378
0.18862024
0.18923749
0.18978016
0.19023827
0.19060118
0.19085741
0.19099429
0.19099724
0.18391565
0.18474607
0.18553382
0.18630851
0.18706359
0.18779077
0.18848868
0.1891525
0.18977503
0.19034874
0.19086581
0.19131797
0.19169642
0.19199183
0.19219433
0.19229341
0.19227781
0.19213509
0.19185102
0.18813954
0.18882349
0.18945149
0.19005628
0.19063663
0.19118416
0.1916896
0.19215068
0.19256241
0.19291693
0.19320611
0.19342157
0.19355458
0.1935959
0.19353576
0.19336384
0.19306909
0.19263939
0.19206087
0.19172887
0.19226298
0.19272774
0.19316076
0.19355838
0.19391738
0.19422888
0.19448345
0.19467814
0.19480744
0.19486286
0.19483571
0.19471721
0.19449824
0.19416918
0.19371989
0.19313958
0.1924165
0.19153717
0.19457688
0.19495788
0.19525519
0.19551262
0.19572535
0.19588814
0.19599737
0.19604362
0.19601773
0.19591619
0.19573261
0.1954577
0.19508257
0.19459816
0.19399502
0.19326322
0.19239229
0.19137084
0.1901859
0.19656526
0.19679027
0.19691647
0.19699424
0.1970185
0.19698338
0.19688358
0.19671498
0.19646701
0.19613159
0.19570509
0.19517853
0.194543
0.19378949
0.19290871
0.19189098
0.19072617
0.18940336
0.18791011
0.19756515
0.1976321
0.19758437
0.19747938
0.19731199
0.19707655
0.1967673
0.19637834
0.19590436
0.19533667
0.1946647
0.19388412
0.19298625
0.19196202
0.19080223
0.18949746
0.18803798
0.18641341
0.18461194
0.19743823
0.19734637
0.19712319
0.19683372
0.19647301
0.19603574
0.19551637
0.19490919
0.1942083
0.19340342
0.19248759
0.19145508
0.19029657
0.18900322
0.18756616
0.18597636
0.18422463
0.18230127
0.18019523
0.19603846
0.19578922
0.19539151
0.1949181
0.19436478
0.19372684
0.19299889
0.19217493
0.1912483
0.19021052
0.18905519
0.18777477
0.18636001
0.18480233
0.18309319
0.18122406
0.17918645
0.17697143
0.17456887
0.1932177
0.1928137
0.19224619
0.19159236
0.19085041
0.19001647
0.18908505
0.18804989
0.18690434
0.18564155
0.18425364
0.18273185
0.18106819
0.17925437
0.17728221
0.17514378
0.17283132
0.17033681
0.16765108
0.18882772
0.18827539
0.18754462
0.18671779
0.18579556
0.18477466
0.18364937
0.18241307
0.18105886
0.17958036
0.17797074
0.17621968
0.17431962
0.17226289
0.17004204
0.16764994
0.16507962
0.16232395
0.15937471
0.18272326
0.1820309
0.18114806
0.18016081
0.17907148
0.17787728
0.17657243
0.17515009
0.17360284
0.17192487
0.17010912
0.16814508
0.16602639
0.16374617
0.16129773
0.1586747
0.15587089
0.15287989
0.14969419
0.17477181
0.17395116
0.17293235
0.17180247
0.17056446
0.16921581
0.16775088
0.16616271
0.16444217
0.162586
0.16058591
0.15843363
0.15612246
0.15364637
0.15099967
0.14817698
0.14517297
0.14198156
0.1385949
0.16486606
0.16393494
0.16280114
0.16155185
0.1601896
0.15871156
0.15711134
0.1553811
0.15351803
0.15151555
0.14936123
0.14705116
0.14458022
0.14194323
0.1391357
0.13615378
0.13299341
0.12964839
0.12610699
0.15294073
0.15192259
0.15070116
0.14936161
0.14790583
0.14633045
0.14462825
0.14279262
0.14082086
0.13870325
0.13643374
0.13400704
0.13141844
0.12866426
0.12574224
0.12265154
0.11939171
0.11595896
0.11233262
0.13899661
0.13792023
0.13664457
0.1352499
0.13373697
0.13209974
0.13033298
0.12843676
0.1264012
0.12421585
0.12187775
0.11938237
0.11672572
0.11390577
0.1109231
0.10778155
0.10448923
0.10106151
0.12312747
0.12202787
0.1207377
0.11932876
0.11779887
0.11614587
0.11437019
0.11246173
0.11040966
0.10821141
0.10586136
0.10335455
0.10068813
0.097862017
0.094879211
0.091745989
0.088471309
0.085063862
0.10555559
0.10447337
0.10321089
0.10183048
0.10033651
0.098728734
0.096996466
0.0951304
0.093127399
0.090980618
0.088683597
0.086232315
0.083625918
0.080867082
0.077962145
0.074920961
0.071756134
0.068480404
0.086684121
0.085661926
0.084477707
0.083187363
0.081790289
0.080280328
0.078650702
0.076898156
0.075014461
0.072991437
0.070823357
0.0685082
0.066048489
0.063451416
0.060728323
0.057894004
0.054966114
0.051963942
0.067202836
0.066287729
0.065238243
0.064088858
0.062838803
0.061489406
0.060036864
0.05847154
0.056786119
0.054972939
0.053027589
0.050951966
0.048754804
0.046450358
0.044056718
0.041594003
0.039084204
0.036552671
0.048215652
0.047439474
0.046556044
0.045587539
0.044534344
0.0434088
0.042210564
0.040922535
0.039538963
0.038054618
0.036466473
0.034781976
0.033019296
0.031200867
0.029351684
0.027493422
0.0256483
0.023842107
0.031534432
0.030955793
0.030296632
0.029573698
0.028797093
0.027986517
0.027133168
0.026218402
0.025237723
0.024200273
0.023107044
0.021970752
0.020820005
0.0196832
0.018587085
0.017537797
0.016544984
0.015618861
0.019380138
0.019064097
0.018718744
0.018344319
0.017946729
0.017534415
0.017110777
0.016670295
0.016191188
0.015674347
0.015135421
0.014590803
0.014058078
0.013556314
0.013089894
0.012667506
0.012282766
0.011936785
0.012905633
0.012797244
0.012690153
0.012581307
0.012469014
0.01235351
0.01223746
0.012111857
0.011972279
0.011819098
0.011656897
0.011490258
0.011323604
0.011164129
0.011010616
0.010867182
0.010732699
0.01060847
0.010567504
0.010545098
0.010522946
0.010499919
0.010475723
0.010450546
0.010425174
0.010398796
0.010369589
0.010336359
0.010299073
0.01025862
0.010216118
0.010171357
0.01012688
0.010078188
0.010029227
0.009978902
0.0097881969
0.0097874992
0.0097870162
0.0097854175
0.0097828821
0.0097794146
0.0097749531
0.009769267
0.0097619316
0.0097524266
0.0097402967
0.0097252427
0.0097070166
0.0096852305
0.009659945
0.009632806
0.0096045347
0.009573918
0.0093841671
0.009387035
0.0093905587
0.0093933085
0.0093953551
0.0093965451
0.0093966518
0.0093954692
0.0093927842
0.0093883457
0.009381876
0.0093730981
0.0093617473
0.0093475895
0.0093305768
0.0093111052
0.0092896975
0.0092662558
0.009069128
0.0090725756
0.0090772591
0.0090816375
0.0090854315
0.0090883096
0.0090900209
0.0090904151
0.0090893825
0.0090868002
0.009082512
0.0090763325
0.0090680659
0.0090575406
0.0090446604
0.0090294543
0.0090120993
0.0089929668
0.0087899603
0.0087937421
0.0087991472
0.0088044935
0.008809264
0.0088131011
0.0088158179
0.0088173248
0.0088175579
0.0088164338
0.008813832
0.0088095964
0.0088035486
0.008795508
0.0087853129
0.0087728492
0.0087581608
0.0087416868
0.0085363801
0.0085404139
0.0085462129
0.0085521096
0.0085574923
0.0085620145
0.0085655275
0.0085679633
0.0085692692
0.0085693734
0.008568171
0.0085655218
0.0085612586
0.0085552006
0.0085471697
0.008537028
0.0085248092
0.0085109633
0.0083045919
0.0083087041
0.0083146444
0.0083208479
0.0083266639
0.0083317423
0.008335942
0.0083391947
0.0083414438
0.0083426166
0.0083426103
0.0083412874
0.0083384819
0.0083340098
0.0083276854
0.0083193619
0.008309066
0.0082972267
0.0080922857
0.0080963559
0.0081023001
0.008108672
0.0081147896
0.0081202903
0.0081250334
0.0081289507
0.0081319846
0.0081340631
0.0081350853
0.008134916
0.0081333892
0.0081303182
0.0081255106
0.0081188081
0.008110215
0.0081001086
0.0078971716
0.0079011608
0.0079070593
0.0079135297
0.0079198652
0.0079256922
0.0079308735
0.0079353455
0.0079390536
0.0079419277
0.0079438684
0.0079447414
0.0079443816
0.0079426026
0.0079392108
0.0079340433
0.0079270904
0.0079186898
0.0077173394
0.0077212403
0.0077270751
0.0077336021
0.0077400975
0.0077461832
0.0077517285
0.0077566768
0.0077609776
0.007764563
0.0077673344
0.0077691581
0.0077698703
0.0077692864
0.007767215
0.0077634934
0.0077581029
0.0077513515
0.0075511523
0.0075549634
0.0075607265
0.0075672851
0.0075739053
0.0075802088
0.0075860719
0.0075914441
0.0075962779
0.0076005055
0.0076040274
0.0076067095
0.0076083886
0.0076088831
0.0076080062
0.0076055986
0.0076016367
0.0075964032
0.0073972557
0.0074009846
0.0074066765
0.0074132508
0.0074199708
0.0074264608
0.0074326028
0.0074383503
0.0074436558
0.0074484493
0.0074526278
0.0074560547
0.0074585662
0.0074599826
0.0074601213
0.0074588272
0.0074560726
0.0074521157
0.0072544779
0.0072581416
0.007263771
0.0072703548
0.007277159
0.0072838125
0.0072902016
0.0072962809
0.0073020006
0.0073072862
0.0073120295
0.0073160897
0.0073193009
0.0073214842
0.0073224602
0.0073220764
0.0073203013
0.0073173695
0.0071218128
0.0071254342
0.0071310146
0.007137606
0.0071444829
0.0071512801
0.0071578867
0.0071642565
0.007170336
0.0071760448
0.007181269
0.0071858632
0.0071896595
0.0071924792
0.0071941453
0.0071945078
0.0071935314
0.0071914271
0.0069983755
0.0070019791
0.0070075248
0.0070141231
0.0070210622
0.0070279848
0.007034782
0.0070414056
0.0070477978
0.0070538726
0.0070595105
0.0070645618
0.0070688568
0.0070722173
0.007074468
0.0070754606
0.0070751543
0.0070737338
0.0068833722
0.0068869791
0.0068925005
0.0068991017
0.0069060903
0.0069131188
0.0069200803
0.0069269243
0.006933589
0.0069399833
0.0069459832
0.0069514364
0.0069561728
0.0069600162
0.0069627952
0.0069643648
0.0069646804
0.006963903
0.0067760827
0.0067797066
0.0067852077
0.0067918026
0.0067988238
0.0068059361
0.0068130342
0.0068200653
0.0068269634
0.0068336332
0.006839947
0.0068457508
0.0068508753
0.0068551482
0.0068584044
0.0068605058
0.0068614078
0.0068612533
0.0066758637
0.0066795116
0.0066849903
0.0066915655
0.0066986
0.0067057728
0.0067129799
0.0067201659
0.0067272609
0.0067341652
0.0067407484
0.0067468555
0.0067523191
0.0067569719
0.0067606575
0.0067632477
0.0067647004
0.0067651459
0.0065821577
0.0065858302
0.0065912793
0.006597818
0.0066048441
0.0066120521
0.006619339
0.0066266462
0.0066338996
0.0066409954
0.0066478008
0.0066541611
0.0066599113
0.0066648891
0.0066689483
0.0066719713
0.0066739162
0.0066748998
0.0064945007
0.0064981936
0.0065036021
0.006510085
0.0065170793
0.0065242959
0.0065316322
0.0065390261
0.0065463986
0.0065536418
0.0065606226
0.0065671886
0.0065731771
0.0065784307
0.0065828132
0.0065862165
0.0065885952
0.0065900551
0.0064124977
0.0064162026
0.0064215555
0.0064279606
0.0064348967
0.0064420912
0.0064494419
0.0064568827
0.0064643288
0.0064716685
0.0064787705
0.0064854869
0.006491656
0.0064971246
0.006501768
0.0065054884
0.0065082433
0.0065101319
0.0063357884
0.0063394957
0.0063447782
0.0063510843
0.006357936
0.0063650768
0.006372405
0.0063798508
0.0063873227
0.0063947044
0.0064018676
0.0064086691
0.0064149457
0.006420553
0.0064253818
0.0064293394
0.0064323858
0.0064346022
0.0062640079
0.0062677122
0.0062729143
0.0062791066
0.0062858544
0.0062929161
0.0063001909
0.006307606
0.0063150632
0.0063224415
0.0063296132
0.0063364402
0.0063427733
0.0063484751
0.0063534378
0.0063575731
0.0063608467
0.0063633276
0.0061967667
0.0062004671
0.0062055831
0.0062116513
0.0062182814
0.0062252462
0.0062324431
0.0062397948
0.0062472001
0.0062545367
0.0062616773
0.0062684905
0.0062748409
0.0062805992
0.0062856525
0.0062899112
0.0062933456
0.006296018
0.006133685
0.0061373827
0.0061424074
0.0061483433
0.0061548505
0.0061617153
0.0061688265
0.0061760987
0.0061834346
0.0061907179
0.0061978184
0.0062046015
0.0062109357
0.0062167012
0.0062217953
0.0062261388
0.0062297062
0.0062325499
0.0060744199
0.006078116
0.0060830461
0.0060888463
0.0060952315
0.0061020001
0.0061090264
0.0061162169
0.0061234741
0.0061306827
0.0061377162
0.0061444453
0.0061507485
0.0061565162
0.0061616528
0.0061660826
0.0061697804
0.0061727896
0.0060187001
0.0060223994
0.0060272415
0.0060329108
0.0060391683
0.0060458228
0.0060527455
0.0060598401
0.0060670105
0.0060741444
0.0060811164
0.0060878001
0.0060940782
0.0060998462
0.0061050137
0.0061095109
0.0061133167
0.0061164695
0.0059662725
0.0059699671
0.0059747179
0.0059802581
0.0059863958
0.005992952
0.0059997925
0.0060068139
0.0060139163
0.0060209861
0.006027901
0.0060345408
0.0060407946
0.0060465637
0.0060517626
0.006056326
0.0060602373
0.0060635284
0.0059170119
0.0059207093
0.0059253818
0.0059308092
0.0059368427
0.0059433105
0.0059500728
0.0059570228
0.0059640589
0.0059710699
0.0059779369
0.0059845436
0.0059907831
0.0059965608
0.006001795
0.006006426
0.0060104448
0.0060138687
0.0058709307
0.0058746236
0.0058792157
0.0058845332
0.0058904664
0.005896852
0.0059035444
0.0059104322
0.0059174129
0.0059243749
0.0059312014
0.005937779
0.0059440046
0.0059497872
0.0059550489
0.0059597371
0.005963847
0.0059673265
0.0058280265
0.0058317125
0.0058362293
0.0058414456
0.0058472886
0.0058535998
0.0058602277
0.0058670568
0.0058739829
0.0058808943
0.0058876752
0.0058942144
0.0059004122
0.0059061809
0.0059114464
0.0059161595
0.0059202853
0.005788277
0.0057919527
0.0057963971
0.0058015188
0.0058072764
0.0058135145
0.0058200754
0.0058268393
0.0058336999
0.0058405451
0.0058472597
0.0058537352
0.0058598755
0.0058655967
0.0058708274
0.0058755166
0.0058796196
0.0057515453
0.0057552044
0.0057595756
0.0057646046
0.0057702759
0.0057764348
0.0057829167
0.0057895973
0.0057963683
0.0058031175
0.0058097317
0.0058161059
0.0058221487
0.0058277811
0.0058329347
0.005837557
0.0058415947
0.0057175912
0.0057212231
0.005725515
0.0057304462
0.0057360215
0.0057420842
0.0057484625
0.0057550283
0.0057616726
0.0057682852
0.005774757
0.0057809887
0.005786895
0.0057924021
0.0057974445
0.0058019683
0.0058059109
0.005686165
0.0056897504
0.005693946
0.0056987615
0.0057042173
0.0057101533
0.0057163919
0.0057228027
0.0057292785
0.005735714
0.0057420067
0.0057480641
0.005753807
0.0057591664
0.005764079
0.005768488
0.0057723217
0.0056570561
0.0056605698
0.0056646465
0.0056693233
0.0056746319
0.0056804091
0.0056864735
0.0056926953
0.0056989711
0.0057052022
0.0057112931
0.0057171577
0.0057227216
0.0057279189
0.0057326875
0.0057369672
0.0057406768
0.0056300859
0.0056335051
0.0056374452
0.0056419681
0.0056471134
0.0056527147
0.0056585889
0.0056646085
0.0056706749
0.0056766943
0.0056825762
0.0056882384
0.0056936101
0.0056986283
0.0057032315
0.0057073562
0.0057109113
0.0056050951
0.0056084093
0.0056122095
0.0056165806
0.0056215655
0.0056269934
0.0056326805
0.0056385022
0.0056443629
0.0056501714
0.0056558409
0.0056612932
0.0056664617
0.0056712873
0.0056757096
0.0056796602
0.0056830367
0.0055820429
0.0055852413
0.0055888971
0.0055931181
0.0055979467
0.0056032067
0.0056087127
0.0056143422
0.0056199997
0.0056255957
0.0056310493
0.0056362889
0.0056412544
0.0056458907
0.0056501362
0.0056539159
0.0056571154
0.0055609794
0.0055640519
0.0055675603
0.0055716321
0.0055763042
0.0055813934
0.005586713
0.0055921409
0.0055975853
0.0056029613
0.0056081946
0.0056132211
0.0056179867
0.005622437
0.0056265078
0.0056301175
0.0056331413
0.0055419941
0.0055449281
0.0055482806
0.0055521957
0.0055567011
0.0055616065
0.0055667263
0.0055719411
0.0055771634
0.0055823151
0.0055873259
0.0055921365
0.005596695
0.0056009444
0.0056048172
0.0056082342
0.0056110724
0.0055251463
0.0055279291
0.0055311174
0.0055348687
0.005539199
0.0055439114
0.0055488232
0.0055538195
0.0055588166
0.0055637394
0.0055685212
0.0055731048
0.0055774384
0.0055814681
0.0055851307
0.0055883508
0.0055910093
0.005510486
0.0055131088
0.0055161296
0.0055197169
0.0055238701
0.0055283864
0.005533087
0.005537862
0.0055426316
0.0055473251
0.0055518804
0.0055562448
0.0055603704
0.005564206
0.0055676916
0.0055707526
0.0055732671
0.0054981003
0.0055005618
0.0055034183
0.0055068454
0.0055108225
0.0055151415
0.0055196302
0.0055241863
0.005528736
0.0055332141
0.0055375638
0.0055417369
0.0055456888
0.0055493703
0.0055527219
0.0055556678
0.0055580811
0.0054880743
0.0054903721
0.0054930629
0.0054963253
0.0055001164
0.0055042253
0.0055084894
0.0055128157
0.005517138
0.0055213988
0.0055255488
0.0055295466
0.005533352
0.0055369161
0.0055401741
0.005543037
0.0055453553
0.0054803819
0.0054825048
0.0054850201
0.0054881048
0.0054916945
0.0054955792
0.0054996086
0.0055037007
0.005507798
0.0055118504
0.0055158155
0.0055196553
0.0055233285
0.0055267777
0.0055299212
0.0055326459
0.005534775
0.005474998
0.0054769433
0.005479285
0.0054821944
0.0054855858
0.0054892537
0.0054930615
0.0054969369
0.0055008279
0.0055046876
0.0055084741
0.0055121471
0.0055156573
0.0055189348
0.0055218852
0.0055243858
0.0055262613
0.0054719864
0.0054737565
0.0054759312
0.005478669
0.0054818641
0.0054853172
0.0054889045
0.0054925598
0.005496231
0.0054998694
0.0055034312
0.0055068742
0.0055101485
0.0055131878
0.0055159077
0.0055182006
0.005519909
0.0054712815
0.0054728629
0.005474854
0.0054773943
0.0054803598
0.0054835596
0.0054868824
0.0054902672
0.0054936641
0.0054970295
0.0055003271
0.0055035258
0.0055065887
0.0055094626
0.0055120737
0.0055143158
0.0055160203
0.0054725448
0.005473911
0.0054756883
0.0054779945
0.005480695
0.0054836137
0.0054866558
0.0054897709
0.0054929177
0.0054960626
0.0054991792
0.0055022396
0.005505208
0.005508023
0.0055105884
0.0055127799
0.0055144098
0.005475364
0.005476539
0.0054781337
0.0054802373
0.0054827116
0.0054853991
0.0054882194
0.0054911299
0.0054940936
0.0054970743
0.0055000398
0.0055029567
0.0055057766
0.0055084257
0.0055107995
0.0055127766
0.0055141912
0.0054795202
0.0054805338
0.0054819709
0.0054838824
0.0054861297
0.0054885734
0.0054911446
0.0054938042
0.0054965171
0.0054992481
0.0055019656
0.0055046344
0.0055072005
0.0055095837
0.0055116828
0.0055133853
0.0055145462
0.0054841041
0.0054849255
0.0054861599
0.0054878246
0.0054897961
0.0054919513
0.0054942322
0.005496604
0.0054990339
0.0055014892
0.0055039363
0.0055063349
0.0055086305
0.0055107415
0.0055125614
0.0055139654
0.0055148054
0.0054878941
0.0054884701
0.0054894671
0.005490878
0.0054925744
0.0054944498
0.005496452
0.0054985444
0.0055006902
0.005502853
0.005504998
0.0055070863
0.005509065
0.0055108541
0.0055123359
0.0055133251
0.0054891752
0.005489535
0.0054903105
0.0054914659
0.0054928811
0.0054944608
0.0054961546
0.0054979259
0.0054997395
0.0055015607
0.0055033573
0.0055050979
0.0055067373
0.0055082024
0.0055093796
0.0055100881
0.0054858519
0.0054859879
0.0054865485
0.0054874514
0.0054885811
0.0054898581
0.0054912365
0.0054926803
0.0054941559
0.0054956324
0.0054970847
0.0054984873
0.0054997998
0.0055009528
0.0055018384
0.0055022816
0.0054758074
0.0054757679
0.005476123
0.0054767812
0.0054776365
0.0054786204
0.0054796935
0.0054808233
0.0054819788
0.0054831335
0.0054842676
0.0054853634
0.005486387
0.0054872728
0.0054879171
0.0054881456
0.0054565653
0.0054564189
0.0054566217
0.0054570813
0.0054577049
0.0054584354
0.0054592422
0.0054600959
0.0054609691
0.0054618426
0.0054627048
0.0054635449
0.0054643333
0.0054650098
0.00546547
0.0054655439
0.0054256329
0.0054254554
0.0054255863
0.0054259247
0.0054263835
0.0054269215
0.0054275199
0.0054281578
0.0054288132
0.0054294728
0.0054301355
0.0054307998
0.0054314439
0.0054320059
0.0054323839
0.0054324093
0.0053809094
0.0053807888
0.0053809336
0.0053812386
0.0053816227
0.0053820605
0.0053825447
0.0053830637
0.0053836045
0.0053841628
0.0053847454
0.0053853582
0.0053859841
0.0053865629
0.0053869823
0.0053870736
0.0053209401
0.0053209855
0.0053212556
0.0053216451
0.0053220767
0.0053225393
0.0053230379
0.0053235702
0.0053241332
0.0053247313
0.0053253783
0.0053260845
0.0053268336
0.0053275634
0.0053281584
0.0053284501
0.0052453038
0.0052456543
0.0052461804
0.0052467859
0.005247398
0.0052480209
0.0052486729
0.0052493601
0.0052500868
0.0052508648
0.0052517142
0.0052526499
0.0052536585
0.0052546738
0.0052555766
0.0052561995
0.0051548943
0.0051556027
0.0051564675
0.0051573795
0.0051582757
0.0051591746
0.0051601038
0.005161076
0.0051621007
0.0051631969
0.0051643919
0.0051657049
0.0051671205
0.0051685674
0.0051699174
0.0051710044
0.0050515491
0.0050526503
0.0050539014
0.0050551864
0.0050564447
0.0050577084
0.0050590137
0.0050603777
0.0050618137
0.0050633456
0.0050650059
0.0050668161
0.0050687578
0.0050707515
0.0050726566
0.0050743071
0.004938875
0.0049403865
0.0049420242
0.0049436764
0.0049453042
0.0049469526
0.0049486576
0.0049504349
0.0049523021
0.0049542881
0.004956431
0.0049587542
0.0049612357
0.0049637838
0.0049662484
0.0049684565
0.004823385
0.0048252231
0.0048271529
0.0048290641
0.0048309515
0.0048328733
0.0048348715
0.004836964
0.0048391687
0.0048415143
0.0048440382
0.0048467613
0.0048496582
0.0048526265
0.0048554999
0.0048581086
0.0047127337
0.0047147365
0.0047168125
0.0047188393
0.0047208569
0.0047229363
0.0047251108
0.004727396
0.0047298147
0.0047324023
0.004735185
0.0047381688
0.0047413125
0.0047445027
0.0047475679
0.0047503523
0.0046137278
0.0046158413
0.0046179929
0.0046200819
0.0046221927
0.0046243997
0.0046267248
0.0046291784
0.0046317723
0.0046345284
0.0046374774
0.0046406177
0.004643889
0.0046471695
0.0046502907
0.0046531089
0.0045323098
0.0045345671
0.0045367859
0.0045389406
0.0045411528
0.0045434861
0.0045459487
0.0045485402
0.004551275
0.0045541771
0.0045572648
0.0045605296
0.0045639068
0.0045672604
0.004570413
0.0045732483
0.0044728805
0.0044752627
0.0044774808
0.0044796122
0.00448182
0.0044841577
0.0044866262
0.0044892287
0.0044919819
0.0044949102
0.0044980318
0.0045013326
0.0045047402
0.0045081037
0.0045112286
0.0044361215
0.0044385535
0.0044407237
0.0044428067
0.0044449904
0.0044473151
0.0044497733
0.0044523646
0.0044551012
0.0044580038
0.0044610881
0.0044643391
0.0044676793
0.004470951
0.00447395
0.0044209107
0.0044234207
0.0044255919
0.0044276944
0.0044299165
0.0044322771
0.0044347596
0.0044373602
0.0044400884
0.0044429612
0.0044459908
0.0044491577
0.0044523775
0.0044554853
0.0044582702
0.0044260861
0.0044285448
0.0044306388
0.0044326883
0.004434861
0.0044371582
0.00443956
0.0044420621
0.0044446716
0.004447403
0.0044502666
0.0044532429
0.0044562474
0.0044591095
0.0044616046
0.0044496668
0.0044519034
0.0044538081
0.0044556976
0.0044577069
0.0044598261
0.0044620357
0.0044643313
0.0044667185
0.00446921
0.0044718145
0.0044745089
0.0044772024
0.004479713
0.0044817982
0.0044903524
0.0044922435
0.0044938954
0.0044955601
0.0044973296
0.0044991876
0.0045011147
0.0045031054
0.0045051651
0.0045073032
0.0045095195
0.0045117813
0.0045139882
0.0045159461
0.0045173946
0.004545981
0.0045474257
0.0045487353
0.0045500739
0.0045514931
0.0045529728
0.0045544944
0.0045560498
0.0045576402
0.0045592694
0.0045609323
0.0045625894
0.0045641311
0.0045653566
0.0045659998
0.0046125055
0.0046134455
0.0046143475
0.0046152859
0.0046162767
0.0046172987
0.0046183345
0.0046193739
0.0046204137
0.0046214536
0.0046224834
0.0046234586
0.0046242725
0.0046247364
0.0046245964
0.0046843052
0.0046847695
0.0046852745
0.0046858174
0.0046863905
0.0046869754
0.004687557
0.004688121
0.0046886626
0.0046891776
0.0046896478
0.0046900296
0.0046902271
0.004690074
0.0046893602
0.0047532411
0.0047533462
0.0047535177
0.0047537144
0.0047539262
0.0047541457
0.0047543597
0.0047545509
0.0047547126
0.0047548411
0.004754911
0.0047548697
0.0047546469
0.0047541383
0.0047531971
0.0048082379
0.0048081589
0.0048081229
0.0048080957
0.0048080771
0.0048080637
0.0048080457
0.0048080115
0.0048079584
0.0048078857
0.0048077728
0.0048075749
0.0048072372
0.0048067072
0.0048059408
0.004840967
0.0048408656
0.0048407831
0.0048407054
0.0048406312
0.0048405571
0.0048404806
0.0048404
0.0048403125
0.0048402107
0.0048400849
0.0048399186
0.0048396824
0.0048393314
0.0048531729
0.0048531273
0.0048530838
0.0048530416
0.0048530007
0.00485296
0.0048529187
0.0048528765
0.0048528326
0.0048527852
0.0048527326
0.0048526738
0.0048526048
0.0048525091
0.0095756795
0.011438909
0.013453977
0.015617228
0.017925446
0.02037822
0.022976812
0.025723475
0.028620904
0.031671875
0.034879056
0.03824491
0.041771623
0.045461049
0.049314635
0.053333335
0.057517545
0.061866132
0.06634807
0.010258307
0.012212515
0.014310252
0.016552501
0.01893846
0.021468854
0.024145436
0.026970426
0.029946179
0.033075013
0.036359123
0.039800541
0.043401109
0.047162493
0.051086227
0.055173881
0.05942725
0.063841763
0.011059654
0.013093524
0.015268531
0.017586963
0.020048827
0.022655177
0.025407692
0.028308272
0.031358832
0.034561226
0.037917213
0.041428446
0.045096504
0.048922958
0.052909504
0.057058099
0.061369485
0.065811807
0.011898323
0.014013566
0.016268969
0.018667407
0.021208959
0.023894532
0.026725496
0.029703334
0.032829517
0.036105468
0.039532561
0.043112141
0.046845596
0.050734465
0.05478058
0.058985878
0.063346262
0.012745724
0.014945714
0.017285383
0.019767742
0.022392618
0.025160559
0.028072513
0.031129502
0.034332539
0.037682627
0.041180775
0.044828051
0.048625675
0.052575137
0.056678177
0.060935015
0.065317221
0.013590715
0.015878797
0.01830614
0.020875612
0.023586626
0.026439283
0.029434057
0.032571488
0.035852129
0.039276569
0.042845463
0.046559614
0.050420087
0.054428325
0.05858592
0.062889102
0.014428708
0.016807911
0.019325744
0.021984782
0.02478396
0.027722897
0.030801582
0.034020072
0.037378473
0.040876963
0.044515855
0.048295693
0.052217379
0.056282248
0.060490833
0.064818644
0.015257744
0.017730721
0.02034133
0.023091776
0.025980498
0.029006634
0.032169693
0.035469269
0.038905034
0.042476773
0.046184465
0.050028398
0.054009337
0.058128737
0.062385539
0.016077056
0.018646059
0.02135126
0.024194448
0.027173571
0.030287298
0.033534675
0.036914861
0.040427122
0.044070864
0.047845735
0.051751736
0.055789379
0.059959792
0.064248127
0.016886508
0.019553356
0.02235454
0.025291373
0.028361314
0.031562576
0.034893772