/*--------------------------------*- C++ -*----------------------------------*\
| =========                 |                                                 |
| \\      /  F ield         | OpenFOAM: The Open Source CFD Toolbox           |
|  \\    /   O peration     | Version:  2406                                  |
|   \\  /    A nd           | Website:  www.openfoam.com                      |
|    \\/     M anipulation  |                                                 |
\*---------------------------------------------------------------------------*/
FoamFile
{
    version     2.0;
    format      ascii;
    arch        "LSB;label=32;scalar=64";
    class       volScalarField;
    location    "0.001";
    object      Ma;
}
// * * * * * * * * * * * * * * * * * * * * * * * * * * * * * * * * * * * * * //

dimensions      [0 0 0 0 0 0 0];

internalField   nonuniform List<scalar> 
23203
(
0.15476614
0.15575627
0.15663969
0.15749959
0.15831196
0.15906819
0.15976717
0.16040409
0.16096889
0.16148694
0.16196933
0.16242319
0.16286028
0.16329245
0.1637283
0.16417442
0.16463369
0.16510707
0.16558964
0.15153998
0.15263202
0.15370492
0.15471655
0.15566893
0.15656291
0.15739815
0.15817396
0.15889158
0.15956021
0.16018753
0.16078096
0.16134946
0.16190235
0.16244757
0.16299102
0.16353509
0.16407893
0.16461791
0.14795602
0.14915227
0.15041442
0.15161392
0.15274297
0.1538047
0.15480148
0.15573474
0.15660788
0.15742706
0.15819883
0.15893018
0.1596289
0.1603029
0.16095923
0.16160325
0.16223771
0.16286229
0.16347389
0.14457483
0.14593925
0.1473653
0.14872646
0.15001169
0.15122301
0.15236397
0.15343745
0.15444735
0.15539911
0.15629875
0.15715272
0.15796792
0.15875115
0.15950851
0.16024473
0.16096259
0.16166261
0.16234327
0.14148236
0.14299426
0.14455069
0.14604155
0.14745657
0.14879582
0.15006225
0.15125892
0.15238967
0.15345932
0.15447327
0.15543734
0.15635753
0.15723975
0.1580893
0.15891043
0.15970591
0.1604769
0.16122301
0.13867038
0.14031165
0.14197222
0.14356478
0.14508343
0.14652745
0.14789884
0.14920016
0.15043475
0.15160671
0.15272074
0.15378187
0.15479532
0.15576618
0.15669909
0.15759787
0.15846528
0.15930287
0.16011108
0.13616663
0.1378956
0.13963163
0.14130063
0.14289901
0.14442566
0.14588177
0.14726918
0.1485905
0.14984907
0.15104878
0.15219389
0.15328883
0.15433795
0.15534527
0.15631423
0.15724749
0.15814682
0.1590132
0.13394575
0.13573277
0.13752077
0.13924487
0.14090243
0.14249204
0.14401424
0.14547024
0.14686194
0.14819192
0.14946333
0.15067963
0.15184452
0.15296164
0.15403445
0.15506598
0.15605871
0.15701448
0.15793457
0.13198595
0.13380937
0.13563007
0.13739093
0.13908977
0.14072487
0.14229631
0.14380476
0.14525156
0.14663863
0.14796839
0.14924362
0.15046728
0.1516424
0.15277185
0.15385827
0.15490388
0.15591048
0.15687945
0.13027174
0.1321136
0.13395042
0.13573187
0.13745605
0.13912097
0.14072636
0.14227254
0.14376034
0.14519114
0.14656674
0.14788926
0.14916103
0.15038447
0.15156192
0.15269558
0.15378739
0.15483899
0.15585174
0.12878874
0.13063382
0.13247233
0.13426001
0.1359952
0.13767582
0.13930137
0.14087188
0.14238782
0.14385006
0.14525989
0.14661884
0.14792866
0.14919119
0.15040828
0.15158168
0.15271301
0.15380368
0.15485493
0.12752265
0.12935808
0.13118564
0.13296668
0.1347
0.13638363
0.13801695
0.13959975
0.14113219
0.14261473
0.14404818
0.14543354
0.14677203
0.14806497
0.14931371
0.15051959
0.15168386
0.15280767
0.15389204
0.1264598
0.12827384
0.13007898
0.13184181
0.13356182
0.13523725
0.13686739
0.13845185
0.13999047
0.14148336
0.14293085
0.1443335
0.14569203
0.14700729
0.14828015
0.14951156
0.15070238
0.15185347
0.15296562
0.1255845
0.12736568
0.12913837
0.13087324
0.13257034
0.13422813
0.13584582
0.13742282
0.13895868
0.14045316
0.14190622
0.14331797
0.14468871
0.14601883
0.1473088
0.14855914
0.14977039
0.15094308
0.15207772
0.12487625
0.12661532
0.12834792
0.13004746
0.13171424
0.13334691
0.13494462
0.13650658
0.13803211
0.13952067
0.14097187
0.14238547
0.14376136
0.14509955
0.14640014
0.14766326
0.14888912
0.15007792
0.1512299
0.12431632
0.12600666
0.12769345
0.12935207
0.13098282
0.13258449
0.13415614
0.13569684
0.13720569
0.13868191
0.14012484
0.1415339
0.14290867
0.14424881
0.14555405
0.14682423
0.14805921
0.1492589
0.15042326
0.12388968
0.12552664
0.12716315
0.12877635
0.13036652
0.13193245
0.13347311
0.1349874
0.13647428
0.13793272
0.13936183
0.14076079
0.14212886
0.14346541
0.1447699
0.14604185
0.14728082
0.14848644
0.14965841
0.12358353
0.12516371
0.1267464
0.12831062
0.12985655
0.13138295
0.13288861
0.13437229
0.13583275
0.1372688
0.13867933
0.1400633
0.14141973
0.14274776
0.14404657
0.14531541
0.1465536
0.1477605
0.14893554
0.12338575
0.12490693
0.12643326
0.12794586
0.1294448
0.13092869
0.13239615
0.13384575
0.13527608
0.13668581
0.13807365
0.13943836
0.1407788
0.14209386
0.14338252
0.14464379
0.14587676
0.14708056
0.14825438
0.12328303
0.12474427
0.12621437
0.12767408
0.12912404
0.13056305
0.13198965
0.13340225
0.13479932
0.13617937
0.13754096
0.13888271
0.14020328
0.1415014
0.14277585
0.14402546
0.1452491
0.1464457
0.14761423
0.12326322
0.12466404
0.12607873
0.12748682
0.12888718
0.13027959
0.13166315
0.13303634
0.1343975
0.13574501
0.13707729
0.13839281
0.13969009
0.14096771
0.14222428
0.14345848
0.144669
0.14585457
0.14701398
0.12332545
0.12466246
0.12601732
0.12737266
0.12872479
0.13007077
0.13141018
0.13274224
0.13406544
0.13537807
0.13667845
0.13796492
0.13923589
0.14048982
0.14172519
0.14294054
0.14413442
0.1453054
0.14645208
0.12345733
0.12473486
0.1260288
0.12732687
0.12862843
0.12992872
0.1312243
0.13251428
0.13379796
0.1350738
0.13634008
0.13759506
0.13883706
0.14006444
0.14127559
0.14246895
0.14364294
0.14479599
0.14592656
0.12364747
0.12486714
0.12610507
0.12734757
0.1285953
0.12984743
0.1310992
0.13234706
0.13359005
0.13482745
0.13605771
0.13727903
0.13848967
0.13968793
0.14087212
0.1420406
0.1431917
0.14432372
0.145435
0.12388871
0.12505254
0.12623576
0.12742598
0.12862178
0.12982294
0.13102869
0.13223427
0.13343631
0.13463401
0.13582658
0.13701234
0.13818948
0.13935628
0.14051102
0.14165197
0.1427774
0.14388552
0.14497453
0.1241734
0.12528373
0.12641406
0.12755319
0.12869978
0.1298517
0.13100866
0.13216982
0.13333057
0.13448797
0.13564155
0.13679006
0.13793181
0.13906506
0.14018807
0.14129909
0.14239631
0.14347785
0.14454181
0.12449439
0.12555388
0.12663346
0.12772294
0.1288211
0.12992593
0.13103542
0.13214941
0.13326677
0.13438362
0.13549707
0.13660684
0.13771148
0.13880931
0.13989858
0.14097749
0.14204418
0.14309669
0.14413302
0.12484509
0.12585661
0.12688772
0.12792911
0.12897964
0.13003763
0.13110135
0.1321691
0.13324064
0.13431402
0.13538646
0.13645645
0.13752269
0.13858358
0.13963736
0.14068224
0.1417163
0.14273753
0.14374384
0.12521946
0.1261859
0.12717069
0.12816528
0.12916876
0.13017982
0.13119715
0.1322194
0.13324543
0.13427406
0.13530388
0.13633289
0.13735954
0.13838211
0.13939886
0.14040797
0.1414075
0.14239539
0.14336943
0.12561235
0.12653584
0.12747571
0.12842413
0.12938074
0.13034481
0.13131544
0.13229158
0.1332723
0.13425694
0.1352437
0.13623054
0.1372162
0.13819902
0.13917723
0.14014896
0.1411122
0.1420648
0.14300446
0.12602281
0.12690047
0.12779449
0.12869658
0.12960647
0.13052383
0.13144809
0.13237839
0.1333138
0.13425393
0.1351972
0.1361414
0.13708533
0.13802744
0.13896594
0.13989891
0.14082426
0.14173976
0.14264305
0.12643913
0.12726877
0.12811599
0.12897182
0.12983559
0.13070707
0.13158583
0.13247102
0.13336143
0.13425644
0.1351556
0.13605712
0.13695913
0.13786003
0.13875799
0.13965103
0.14053703
0.14141373
0.14227867
0.12685236
0.12763185
0.12843142
0.12924101
0.13005916
0.13088541
0.13171932
0.13255998
0.13340592
0.13425671
0.13511235
0.13597118
0.13683097
0.13768999
0.13854641
0.13939827
0.14024342
0.14107956
0.14190418
0.12725378
0.12798275
0.12873448
0.12949794
0.13027078
0.13105207
0.13184119
0.13263753
0.13344112
0.13424994
0.13506229
0.13587765
0.1366942
0.13751017
0.13832376
0.13913298
0.13993565
0.14072938
0.14151164
0.12763262
0.12831454
0.12902005
0.12973825
0.13046642
0.13120336
0.13194833
0.13270054
0.13345997
0.13422604
0.13499571
0.13576735
0.13653985
0.13731173
0.13808126
0.13884643
0.139605
0.14035445
0.14109222
0.12798429
0.12862159
0.12928221
0.12995554
0.13063884
0.13133091
0.13203187
0.13274222
0.13345912
0.1341796
0.13490407
0.13563088
0.13635848
0.13708529
0.13780955
0.13852926
0.13924208
0.13994533
0.14063639
0.12830342
0.1288972
0.1295135
0.13014202
0.1307804
0.13142882
0.13208724
0.1327537
0.13342557
0.1341014
0.13477994
0.13546037
0.13614144
0.1368216
0.13749905
0.13817166
0.13883691
0.1394917
0.12858276
0.12913338
0.12970523
0.13028936
0.13088551
0.13149222
0.13210734
0.13272707
0.1333507
0.13397871
0.13461004
0.13524333
0.13587709
0.13650962
0.13713896
0.13776289
0.13837873
0.13898326
0.1288139
0.12932177
0.12985104
0.13039406
0.13094779
0.13150943
0.1320749
0.13264456
0.13321991
0.13380023
0.1343841
0.13496993
0.13555587
0.13613994
0.13672
0.13729375
0.13785857
0.13841124
0.12899063
0.12946081
0.12994924
0.13044739
0.13095221
0.13146095
0.13197469
0.13249577
0.13302378
0.13355726
0.13409454
0.13463355
0.1351719
0.13570716
0.13623703
0.13675943
0.13727223
0.13777277
0.12910194
0.12952851
0.12997621
0.13042752
0.13087797
0.13133465
0.1318008
0.13227597
0.13275907
0.13324831
0.13374178
0.13423644
0.13472876
0.13521585
0.13569554
0.13616661
0.13662868
0.13708089
0.12913899
0.12948883
0.12986513
0.13028693
0.13071077
0.13114026
0.13157648
0.13201772
0.1324632
0.13291457
0.13336918
0.13382112
0.13426717
0.13470656
0.13513836
0.13556299
0.13598351
0.13640152
0.1292266
0.12952806
0.12983691
0.13017373
0.13051058
0.13085929
0.13125621
0.13168891
0.13211517
0.13254528
0.13298486
0.13341701
0.13383696
0.13425467
0.13467207
0.13509165
0.13551986
0.13595392
0.12939599
0.1297009
0.13000128
0.13029936
0.13059895
0.13090313
0.13122614
0.13159925
0.13199849
0.13240478
0.13281193
0.13321506
0.13361143
0.13400623
0.13441408
0.13484129
0.1352798
0.13573021
0.12958677
0.12987632
0.13017648
0.13049094
0.13081929
0.13115675
0.13149126
0.13182231
0.13216176
0.1325132
0.13287627
0.13324899
0.13362772
0.13400694
0.13439375
0.13479808
0.13521296
0.1356377
0.12993326
0.13021177
0.13049718
0.13079022
0.13109118
0.13139988
0.13171614
0.13204144
0.13237742
0.13272476
0.13308349
0.13345367
0.13383557
0.13422713
0.1346142
0.13498966
0.13536384
0.13573414
0.13032984
0.13059377
0.13086677
0.13114741
0.13143532
0.13173035
0.13203251
0.132342
0.13265915
0.13298425
0.13331735
0.13365825
0.13400642
0.13436076
0.13471965
0.13508274
0.13545204
0.13583029
0.1307284
0.13097717
0.13123469
0.13149914
0.13177029
0.13204835
0.1323336
0.13262627
0.13292652
0.13323441
0.13354991
0.13387282
0.13420278
0.13453923
0.13488155
0.13522945
0.13558312
0.13594226
0.13112506
0.13135945
0.13160224
0.13185175
0.13210779
0.13237052
0.13264009
0.13291658
0.13320002
0.13349039
0.13378766
0.13409173
0.13440246
0.13471966
0.13504313
0.13537275
0.13570846
0.1360501
0.13151417
0.13173435
0.13196272
0.13219779
0.13243929
0.13268726
0.13294179
0.13320291
0.13347064
0.13374497
0.13402585
0.13431323
0.13460701
0.13490707
0.13521328
0.13552553
0.13584371
0.13616763
0.13189609
0.13210361
0.13231893
0.13254071
0.13276863
0.13300267
0.13324291
0.13348936
0.13374205
0.13400097
0.1342661
0.13453741
0.13481484
0.13509833
0.13538778
0.13568312
0.13598422
0.13629093
0.13227005
0.13246581
0.1326689
0.13287808
0.13309308
0.13331388
0.13354055
0.13377313
0.13401164
0.13425609
0.13450645
0.13476272
0.13502483
0.13529273
0.13556636
0.13584563
0.13613043
0.13642061
0.13263626
0.13282107
0.13301273
0.13321013
0.13341302
0.13362138
0.13383529
0.13405481
0.13427995
0.13451072
0.13474712
0.13498913
0.13523671
0.13548984
0.13574844
0.13601244
0.13628176
0.13655625
0.13299432
0.13316882
0.13334973
0.13353606
0.13372758
0.13392427
0.13412622
0.13433347
0.13454606
0.13476401
0.13498731
0.13521595
0.13544992
0.13568919
0.13593371
0.13618342
0.13643825
0.13669808
0.13334455
0.1335094
0.13368025
0.13385621
0.13403705
0.13422279
0.1344135
0.13460924
0.13481003
0.13501591
0.13522687
0.13544293
0.13566408
0.13589029
0.13612154
0.1363578
0.136599
0.13684506
0.13368706
0.13384285
0.13400424
0.13417046
0.13434129
0.13451675
0.1346969
0.13488182
0.13507153
0.13526606
0.13546544
0.13566968
0.13587878
0.13609272
0.13631152
0.13653513
0.13676352
0.13699663
0.13402214
0.13416942
0.13432193
0.134479
0.13464041
0.1348062
0.13497643
0.13515117
0.13533045
0.13551431
0.13570278
0.13589587
0.13609361
0.13629599
0.13650301
0.13671468
0.13693097
0.13715182
0.13435004
0.13448931
0.13463347
0.13478192
0.13493448
0.13509117
0.13525206
0.13541721
0.13558667
0.13576048
0.13593866
0.13612125
0.13630827
0.13649972
0.13669563
0.13689599
0.1371008
0.13731001
0.13467109
0.13480281
0.1349391
0.13507944
0.13522366
0.13537177
0.13552386
0.13567998
0.13584018
0.13600451
0.13617299
0.13634566
0.13652256
0.13670369
0.13688909
0.13707875
0.13727269
0.13747087
0.13498561
0.1351102
0.13523908
0.13537177
0.13550811
0.13564815
0.13579193
0.13593954
0.13609101
0.13624639
0.13640572
0.13656904
0.13673637
0.13690775
0.1370832
0.13726274
0.13744637
0.13763407
0.13529398
0.13541184
0.13553372
0.13565918
0.1357881
0.1359205
0.13605646
0.13619603
0.13633926
0.1364862
0.1366369
0.13679138
0.1369497
0.13711187
0.13727794
0.13744791
0.13762181
0.13779961
0.13559656
0.13570806
0.13582331
0.13594194
0.13606385
0.13618905
0.13631761
0.1364496
0.13658505
0.13672402
0.13686656
0.13701271
0.1371625
0.13731598
0.13747318
0.13763412
0.13779882
0.13796727
0.13589373
0.13599919
0.13610818
0.13622035
0.13633563
0.13645402
0.13657559
0.13670041
0.13682851
0.13695996
0.13709479
0.13723306
0.1373748
0.13752006
0.13766888
0.13782129
0.1379773
0.13813692
0.13618582
0.13628557
0.13638861
0.13649468
0.13660367
0.13671562
0.13683059
0.13694863
0.13706979
0.13719413
0.13732168
0.1374525
0.13758664
0.13772414
0.13786503
0.13800936
0.13815716
0.13830844
0.13647316
0.13656749
0.13666491
0.13676518
0.13686823
0.13697409
0.1370828
0.13719443
0.13730903
0.13742664
0.13754731
0.1376711
0.13779805
0.13792821
0.13806162
0.13819832
0.13833835
0.13848172
0.1367561
0.13684528
0.13693736
0.13703214
0.13712955
0.13722963
0.13733242
0.13743799
0.13754637
0.13765761
0.13777178
0.13788892
0.13800907
0.1381323
0.13825864
0.13838812
0.13852078
0.13865664
0.13703495
0.13711924
0.13720624
0.13729581
0.13738787
0.13748246
0.13757963
0.13767943
0.13778191
0.13788712
0.1379951
0.13810593
0.13821963
0.13833627
0.13845588
0.1385785
0.13870417
0.13883293
0.13731007
0.1373897
0.13747189
0.13755649
0.13764346
0.13773283
0.13782466
0.13791898
0.13801586
0.13811533
0.13821746
0.13832229
0.13842987
0.13854023
0.13865343
0.13876952
0.13888854
0.13901051
0.13758176
0.13765697
0.13773457
0.13781445
0.13789658
0.13798099
0.13806773
0.13815684
0.13824838
0.1383424
0.13843894
0.13853806
0.13863979
0.13874421
0.13885135
0.13896125
0.13907395
0.13918947
0.13785031
0.1379213
0.13799454
0.13806994
0.13814746
0.13822714
0.13830904
0.13839319
0.13847965
0.13856847
0.1386597
0.13875338
0.13884956
0.1389483
0.13904963
0.1391536
0.13926025
0.13936961
0.13811597
0.13818295
0.13825205
0.13832318
0.13839634
0.13847154
0.13854885
0.13862829
0.13870993
0.1387938
0.13887995
0.13896845
0.13905934
0.13915267
0.13924849
0.13934683
0.13944774
0.13955125
0.13837897
0.13844213
0.13850728
0.13857436
0.13864336
0.1387143
0.13878722
0.13886217
0.13893919
0.13901833
0.13909965
0.13918321
0.13926904
0.13935721
0.13944775
0.13954072
0.13963615
0.13973409
0.13863952
0.13869904
0.13876043
0.13882364
0.13888865
0.13895551
0.13902424
0.1390949
0.13916754
0.1392422
0.13931893
0.13939778
0.13947881
0.13956207
0.1396476
0.13973546
0.13982568
0.13991829
0.13889768
0.13895374
0.13901155
0.13907107
0.13913232
0.1391953
0.13926007
0.13932667
0.13939514
0.13946554
0.13953791
0.13961231
0.13968878
0.13976739
0.13984817
0.13993119
0.14001647
0.14010407
0.13915351
0.13920627
0.13926067
0.13931671
0.13937437
0.13943369
0.1394947
0.13955744
0.13962197
0.13968833
0.13975657
0.13982675
0.13989891
0.13997312
0.14004942
0.14012785
0.14020848
0.14029133
0.13940722
0.13945683
0.139508
0.13956071
0.13961496
0.13967078
0.13972822
0.13978731
0.1398481
0.13991065
0.139975
0.14004121
0.14010933
0.1401794
0.14025149
0.14032562
0.14040185
0.13965874
0.13970536
0.13975346
0.13980302
0.13985406
0.13990659
0.13996067
0.14001633
0.14007362
0.14013259
0.14019328
0.14025576
0.14032007
0.14038625
0.14045435
0.14052442
0.14059649
0.13990838
0.13995217
0.13999737
0.14004395
0.14009195
0.14014137
0.14019227
0.14024469
0.14029867
0.14035427
0.14041152
0.14047047
0.14053118
0.14059367
0.140658
0.14072419
0.14079229
0.14015615
0.14019727
0.14023972
0.1402835
0.14032862
0.14037512
0.14042302
0.14047238
0.14052323
0.14057562
0.14062959
0.14068519
0.14074244
0.14080139
0.14086207
0.14092451
0.14098876
0.14040212
0.14044071
0.14048056
0.14052168
0.14056408
0.14060779
0.14065283
0.14069926
0.14074711
0.14079641
0.14084722
0.14089956
0.14095347
0.14100898
0.14106613
0.14112494
0.14118546
0.14064606
0.14068222
0.14071959
0.14075815
0.14079793
0.14083895
0.14088123
0.14092482
0.14096976
0.14101608
0.14106382
0.14111301
0.14116369
0.14121589
0.14126965
0.141325
0.14138198
0.14088771
0.14092154
0.14095649
0.14099258
0.14102982
0.14106822
0.14110784
0.14114869
0.14119082
0.14123426
0.14127906
0.14132525
0.14137286
0.14142193
0.14147249
0.14152458
0.14157824
0.14112681
0.14115839
0.14119105
0.14122478
0.14125959
0.14129551
0.14133258
0.14137084
0.14141032
0.14145106
0.14149311
0.14153648
0.14158122
0.14162735
0.14167491
0.14172393
0.14177445
0.14136331
0.14139283
0.14142336
0.14145491
0.1414875
0.14152114
0.14155588
0.14159175
0.1416288
0.14166706
0.14170657
0.14174736
0.14178944
0.14183284
0.1418776
0.14192374
0.14197129
0.14159763
0.14162526
0.14165387
0.14168345
0.14171401
0.14174558
0.14177819
0.14181188
0.1418467
0.14188267
0.14191982
0.14195818
0.14199776
0.1420386
0.14208072
0.14212415
0.14216892
0.14182998
0.14185587
0.14188267
0.1419104
0.14193905
0.14196866
0.14199926
0.14203088
0.14206355
0.14209728
0.14213211
0.14216807
0.14220518
0.14224348
0.14228299
0.14232373
0.1423657
0.14205991
0.14208411
0.14210916
0.14213506
0.14216182
0.14218947
0.14221803
0.14224756
0.14227808
0.14230963
0.14234223
0.1423759
0.14241066
0.14244651
0.14248346
0.14252151
0.14256069
0.14228612
0.14230866
0.142332
0.14235614
0.14238108
0.14240685
0.14243348
0.142461
0.14248944
0.14251883
0.14254918
0.14258052
0.14261287
0.14264626
0.14268071
0.14271627
0.14275297
0.14250819
0.14252921
0.14255099
0.14257352
0.14259681
0.14262087
0.14264575
0.14267147
0.14269807
0.14272555
0.14275395
0.14278328
0.14281354
0.14284476
0.14287696
0.14291019
0.14294451
0.1427265
0.14274616
0.14276654
0.14278762
0.14280941
0.14283192
0.14285519
0.14287924
0.14290411
0.1429298
0.14295634
0.14298375
0.14301208
0.14304135
0.14307163
0.14310299
0.14313554
0.14294074
0.14295908
0.14297809
0.14299774
0.14301804
0.143039
0.14306066
0.14308305
0.1431062
0.14313013
0.1431549
0.14318055
0.14320713
0.14323472
0.14326338
0.14329315
0.14332407
0.14314928
0.14316628
0.1431839
0.14320213
0.14322097
0.14324044
0.14326059
0.14328145
0.14330306
0.14332549
0.14334878
0.14337301
0.14339824
0.14342451
0.14345184
0.14348019
0.14350949
0.14335167
0.14336749
0.14338394
0.14340099
0.14341867
0.14343702
0.14345607
0.14347589
0.1434965
0.14351794
0.14354024
0.14356342
0.14358746
0.14361232
0.14363794
0.1436642
0.14369103
0.14354822
0.1435632
0.14357883
0.14359508
0.14361199
0.14362959
0.14364791
0.14366697
0.14368674
0.14370719
0.14372825
0.14374986
0.14377193
0.14379444
0.14381738
0.14384084
0.14386492
0.14373919
0.14375349
0.14376834
0.14378369
0.14379952
0.14381583
0.14383264
0.14384993
0.14386768
0.14388588
0.14390456
0.14392374
0.1439435
0.14396395
0.14398517
0.14400726
0.14403028
0.14391865
0.14393148
0.14394473
0.14395836
0.14397238
0.14398684
0.14400181
0.14401734
0.14403349
0.14405032
0.14406786
0.14408616
0.14410524
0.1441251
0.14414573
0.14416709
0.14418913
0.14408005
0.14409186
0.14410418
0.14411698
0.14413027
0.14414412
0.14415857
0.14417366
0.14418938
0.14420574
0.1442227
0.14424027
0.14425843
0.14427716
0.14429644
0.14431625
0.14433657
0.14423011
0.14424097
0.14425241
0.14426427
0.14427652
0.14428931
0.14430271
0.14431673
0.14433133
0.14434647
0.14436212
0.1443783
0.14439502
0.14441227
0.14443004
0.14444835
0.14446719
0.14436104
0.14437069
0.14438088
0.14439153
0.14440266
0.14441437
0.14442667
0.1444396
0.14445315
0.14446728
0.14448197
0.14449717
0.14451288
0.14452907
0.14454574
0.14456288
0.14447085
0.14447974
0.14448887
0.1444986
0.14450889
0.14451972
0.14453112
0.1445431
0.14455564
0.14456875
0.1445824
0.14459656
0.1446112
0.14462632
0.14464188
0.14465786
0.14456196
0.1445701
0.14457872
0.14458778
0.14459728
0.14460726
0.14461772
0.14462866
0.14464003
0.14465186
0.14466417
0.14467691
0.14469016
0.14470389
0.1447181
0.14473272
0.14463128
0.1446388
0.14464675
0.14465511
0.14466384
0.1446729
0.1446824
0.1446923
0.14470248
0.14471298
0.14472386
0.14473516
0.14474678
0.14475876
0.14477104
0.14478362
0.14467159
0.14467812
0.14468501
0.14469229
0.14469993
0.144708
0.14471641
0.14472519
0.14473443
0.14474407
0.14475398
0.14476415
0.14477473
0.14478552
0.14479652
0.14480791
0.14468746
0.14469308
0.14469901
0.14470529
0.14471195
0.14471896
0.1447263
0.14473393
0.14474191
0.14475017
0.14475872
0.14476756
0.14477658
0.14478585
0.14479542
0.14480512
0.14467825
0.14468304
0.14468812
0.14469353
0.1446992
0.14470514
0.14471136
0.14471785
0.14472456
0.14473148
0.14473861
0.14474591
0.14475335
0.14476098
0.14476873
0.14477658
0.14464662
0.14465066
0.14465482
0.14465916
0.14466372
0.14466851
0.14467351
0.14467868
0.14468401
0.1446895
0.14469511
0.14470084
0.14470667
0.14471257
0.14471854
0.14472459
0.14459504
0.14459801
0.14460123
0.14460468
0.1446083
0.14461206
0.14461591
0.14461983
0.14462382
0.14462787
0.144632
0.1446362
0.14464049
0.14464486
0.14464928
0.14465374
0.14452673
0.14452922
0.14453189
0.14453476
0.1445377
0.14454062
0.14454351
0.14454635
0.14454918
0.14455198
0.14455475
0.14455753
0.14456034
0.14456319
0.14456611
0.1445691
0.14444682
0.14444938
0.14445191
0.14445447
0.14445702
0.14445948
0.14446179
0.14446393
0.14446593
0.14446779
0.14446954
0.14447126
0.144473
0.14447473
0.14447656
0.14447858
0.1443598
0.14436247
0.14436512
0.14436786
0.14437064
0.14437342
0.14437618
0.14437881
0.14438125
0.1443835
0.14438566
0.14438775
0.14438968
0.14439164
0.14439374
0.14439575
0.14426851
0.14427177
0.14427525
0.14427904
0.14428306
0.14428714
0.14429123
0.14429546
0.1442999
0.14430448
0.14430908
0.14431355
0.14431804
0.14432253
0.14432673
0.14433103
0.14419831
0.14420255
0.144207
0.14421175
0.14421666
0.14422173
0.14422698
0.14423241
0.1442379
0.14424375
0.14425004
0.14425679
0.1442638
0.14427084
0.14427793
0.14428504
0.14417023
0.14417554
0.14418122
0.14418701
0.14419271
0.1441983
0.14420371
0.14420904
0.14421469
0.14422077
0.14422746
0.14423494
0.14424289
0.14425137
0.14426039
0.14426989
0.14419706
0.14420453
0.14421249
0.14422041
0.14422837
0.14423637
0.14424444
0.14425262
0.144261
0.14426952
0.14427792
0.14428639
0.14429512
0.14430418
0.14431372
0.14432378
0.14427611
0.14428613
0.14429634
0.14430698
0.14431794
0.14432915
0.14434057
0.14435219
0.14436395
0.14437583
0.14438795
0.1444003
0.14441285
0.1444256
0.14443854
0.14443555
0.14444607
0.14445691
0.14446807
0.14447958
0.14449146
0.14450374
0.14451647
0.14452968
0.14454336
0.14455752
0.14457213
0.14458713
0.14460248
0.14461816
0.14468147
0.14469292
0.14470468
0.14471679
0.14472926
0.14474216
0.14475552
0.14476939
0.14478381
0.14479882
0.14481443
0.14483067
0.14484753
0.144865
0.14488303
0.14500441
0.14501708
0.14503012
0.14504352
0.14505731
0.14507151
0.14508614
0.14510119
0.14511666
0.14513254
0.14514882
0.14516548
0.14518255
0.14520006
0.14521806
0.14540061
0.14541323
0.14542617
0.14543939
0.14545295
0.14546692
0.14548133
0.14549622
0.14551162
0.14552754
0.14554398
0.14556096
0.1455785
0.14559661
0.14561531
0.1458405
0.14585265
0.145865
0.14587754
0.14589034
0.1459035
0.14591708
0.14593117
0.14594584
0.14596114
0.14597714
0.14599389
0.1460114
0.14602971
0.1460488
0.1463001
0.14631184
0.14632385
0.14633611
0.14634868
0.14636163
0.14637499
0.14638879
0.14640303
0.14641775
0.14643298
0.14644874
0.14646505
0.14648195
0.14649943
0.14676285
0.14677375
0.1467849
0.14679626
0.14680788
0.14681979
0.14683198
0.14684445
0.1468572
0.14687024
0.14688353
0.14689708
0.14691094
0.1469251
0.14693956
0.14719085
0.14720035
0.14720999
0.14721977
0.14722969
0.14723976
0.14725003
0.14726055
0.14727136
0.1472824
0.14729368
0.14730533
0.14731734
0.14732962
0.14734216
0.14755888
0.14756745
0.14757624
0.14758524
0.14759434
0.14760349
0.14761283
0.14762246
0.14763238
0.14764243
0.14765258
0.14766299
0.14767371
0.14768469
0.14769578
0.14784155
0.14784908
0.14785672
0.14786443
0.14787213
0.14788001
0.14788807
0.14789625
0.14790453
0.1479128
0.14792087
0.14792923
0.14793791
0.14794663
0.14795517
0.14800872
0.14801479
0.14802061
0.14802647
0.14803239
0.14803839
0.14804447
0.1480506
0.14805672
0.14806274
0.14806869
0.14807463
0.14808055
0.14808645
0.14807204
0.14807739
0.14808271
0.14808795
0.14809332
0.14809889
0.14810457
0.14811034
0.14811619
0.14812213
0.14812813
0.14813423
0.14814067
0.14814718
0.12849073
0.13155341
0.13416041
0.13662679
0.13896056
0.14114765
0.143184
0.14507224
0.14681984
0.14843588
0.14992989
0.15131138
0.15258968
0.15377387
0.15487274
0.15589474
0.15684792
0.15773955
0.15857578
0.13189047
0.13487091
0.13747053
0.13986318
0.14207554
0.14411707
0.14599826
0.14773021
0.14932458
0.15079248
0.15214456
0.15339102
0.15454159
0.15560561
0.15659198
0.15750914
0.15836491
0.15916617
0.13501519
0.13783531
0.14031668
0.14258511
0.14466831
0.14658007
0.14833299
0.14993961
0.15141234
0.15276297
0.15400269
0.15514212
0.1561913
0.15715977
0.15805651
0.15888992
0.15966761
0.16039599
0.13817629
0.14086583
0.14322248
0.14535808
0.14730354
0.1490758
0.15069026
0.15216174
0.15350413
0.15473018
0.15585166
0.15687951
0.15782391
0.15869441
0.15949994
0.16024868
0.16094783
0.14141222
0.14394653
0.14615145
0.14813338
0.14992557
0.15154722
0.15301555
0.15434679
0.15555565
0.15665531
0.15765775
0.15857394
0.15941405
0.16018754
0.16090313
0.16156866
0.16219076
0.14470374
0.1470531
0.14908178
0.15089209
0.15251796
0.15397977
0.15529574
0.15648272
0.15755565
0.15852777
0.15941094
0.16021598
0.16095287
0.16163085
0.16225834
0.16284264
0.14803397
0.15017139
0.15200268
0.1536256
0.15507366
0.15636765
0.15752598
0.15856545
0.15950078
0.16034481
0.16110901
0.16180383
0.16243897
0.16302334
0.16356482
0.16406996
0.15138401
0.15328596
0.15490199
0.15632425
0.15758506
0.15870489
0.15970163
0.16059145
0.16138835
0.1621044
0.16275041
0.16333637
0.16387161
0.16436453
0.1648223
0.15473203
0.15637951
0.15776592
0.15897696
0.16004342
0.16098469
0.1618174
0.16255659
0.16321512
0.16380393
0.16433303
0.16481191
0.16524947
0.16565343
0.1660298
0.15805512
0.15943462
0.16058012
0.16157229
0.16243993
0.1632003
0.16386804
0.16445681
0.16497793
0.16544079
0.16585472
0.16622877
0.16657132
0.16688908
0.16133322
0.16243383
0.16332966
0.16409889
0.16476624
0.16534537
0.16584858
0.16628828
0.16667369
0.16701236
0.16731342
0.16758545
0.16783615
0.1680706
0.16454276
0.16535539
0.16599951
0.16654688
0.16701508
0.1674141
0.16775426
0.16804717
0.16829915
0.16851592
0.16870722
0.16888059
0.16904271
0.16919662
0.16765658
0.1681775
0.16858025
0.16890944
0.16918024
0.16940106
0.16958045
0.16972903
0.16985044
0.16994893
0.17003482
0.17011319
0.17018956
0.17064806
0.17089699
0.17106639
0.17117881
0.17125469
0.17130089
0.17132313
0.17132783
0.17132265
0.17131067
0.17129579
0.17128266
0.17127453
0.17352058
0.17350552
0.17343954
0.17334204
0.17322873
0.17310571
0.17297656
0.17284375
0.17271648
0.17259824
0.17248665
0.17238579
0.17229743
0.1762734
0.17599072
0.175689
0.17538946
0.17509511
0.17480981
0.17453561
0.17427494
0.1740323
0.1738091
0.17360422
0.17341991
0.1788718
0.17833712
0.17781372
0.17731809
0.17685039
0.1764108
0.17599932
0.17561664
0.17526405
0.17494152
0.17464847
0.17438565
0.18130744
0.18053477
0.17980289
0.17912227
0.17849064
0.17790531
0.17736412
0.17686579
0.17640943
0.1759939
0.1756181
0.17528151
0.18357166
0.18257648
0.18164997
0.18079655
0.18001139
0.17928949
0.17862671
0.17801993
0.17746659
0.17696438
0.17651138
0.17610584
0.18565699
0.18445597
0.18334939
0.18233594
0.18140841
0.18055978
0.17978415
0.17907674
0.17843357
0.17785123
0.17732687
0.18755684
0.18616755
0.18489611
0.18373602
0.18267792
0.18171301
0.1808338
0.18003408
0.17930862
0.17865294
0.17806327
0.18926552
0.18770617
0.18628565
0.18499288
0.18381657
0.18274635
0.18177331
0.18089
0.1800901
0.17936812
0.17871936
0.1907781
0.18906743
0.18751408
0.18610309
0.18482142
0.18365728
0.18260057
0.18164277
0.18077653
0.17999549
0.17929405
0.19209022
0.19024745
0.18857798
0.18706365
0.18568986
0.1844436
0.18331373
0.18229083
0.18136664
0.18053393
0.17978639
0.19319764
0.19124264
0.18947413
0.18787164
0.18641937
0.18510318
0.18391109
0.18283282
0.18185927
0.18098248
0.18019558
0.19409612
0.19204905
0.19019875
0.18852364
0.18700702
0.18563376
0.18439094
0.18326738
0.18225323
0.18134007
0.18052071
0.1947873
0.19266578
0.1907502
0.1890179
0.18745149
0.1860345
0.18475243
0.18359318
0.1825468
0.18160482
0.18075973
0.19523325
0.19306696
0.191112
0.18934297
0.18774275
0.18629512
0.18498483
0.18379949
0.18272984
0.1817674
0.180904
0.19547682
0.19328644
0.19130901
0.18951844
0.1878972
0.1864298
0.18510213
0.18390209
0.18281936
0.18184492
0.18097054
0.19560219
0.19339772
0.19140491
0.1896002
0.18796564
0.1864856
0.1851468
0.18393735
0.18284622
0.18186405
0.18098293
0.195539
0.1933522
0.19136628
0.18956255
0.18792618
0.18644302
0.18510034
0.18388686
0.18279235
0.18180774
0.1809251
0.18013726
0.19516021
0.19303067
0.19108697
0.18931506
0.18770258
0.1862375
0.18490879
0.18370648
0.18262142
0.18164522
0.1807703
0.17998963
0.19455475
0.19248774
0.19059867
0.18887431
0.18730235
0.18587148
0.18457168
0.18339405
0.1823304
0.18137309
0.18051505
0.17974964
0.19375066
0.19175578
0.18993117
0.18826512
0.18674519
0.18536024
0.18410077
0.18295861