/*--------------------------------*- C++ -*----------------------------------*\
| =========                 |                                                 |
| \\      /  F ield         | OpenFOAM: The Open Source CFD Toolbox           |
|  \\    /   O peration     | Version:  2406                                  |
|   \\  /    A nd           | Website:  www.openfoam.com                      |
|    \\/     M anipulation  |                                                 |
\*---------------------------------------------------------------------------*/
FoamFile
{
    version     2.0;
    format      ascii;
    arch        "LSB;label=32;scalar=64";
    class       volVectorField;
    location    "0.001";
    object      U;
}
// * * * * * * * * * * * * * * * * * * * * * * * * * * * * * * * * * * * * * //

dimensions      [0 1 -1 0 0 0 0];

internalField   nonuniform List<vector> 
23203
(
(43.401823 30.613123 -3.9049884e-21)
(44.422647 29.728014 1.9369762e-20)
(45.35495 28.854618 -9.0789299e-21)
(46.226579 28.011203 -8.5351245e-21)
(47.045191 27.176399 -8.0416329e-21)
(47.811659 26.347682 7.5956805e-21)
(48.525479 25.529831 7.1962524e-21)
(49.185412 24.726666 0)
(49.789179 23.940289 -5.2345337e-21)
(50.345959 23.177009 -2.2852339e-24)
(50.861259 22.439219 -2.8525268e-21)
(51.33941 21.728199 -1.9385561e-21)
(51.786314 21.045162 0)
(52.208102 20.390298 0)
(52.609876 19.762773 5.1036507e-22)
(52.996003 19.16111 -1.3998065e-25)
(53.369442 18.583379 0)
(53.732221 18.027754 -4.5925517e-24)
(54.084038 17.492551 1.9408916e-26)
(42.550553 29.907139 -4.7598677e-21)
(43.60415 29.030743 -1.3690288e-20)
(44.556535 28.240878 0)
(45.441244 27.471967 -8.1724225e-21)
(46.272605 26.708178 1.5496282e-20)
(47.053935 25.94886 -7.363813e-21)
(47.785639 25.197312 6.6959478e-24)
(48.468091 24.456707 0)
(49.102502 23.730067 6.3905984e-21)
(49.692854 23.02094 1.2219525e-20)
(50.243019 22.331718 -2.0645187e-24)
(50.756927 21.664197 1.1234346e-20)
(51.239136 21.019745 0)
(51.694508 20.398906 -5.1911386e-21)
(52.12757 19.80135 9.9972149e-21)
(52.542189 19.225995 -2.7545081e-24)
(52.94096 18.671163 4.6463139e-21)
(53.325179 18.135075 4.4875752e-21)
(53.694533 17.616219 0)
(41.676177 29.019705 -1.580155e-23)
(42.696981 28.246464 -8.4125824e-21)
(43.658561 27.556533 -4.0025962e-21)
(44.564606 26.872279 3.8105959e-21)
(45.419574 26.185707 7.2752979e-21)
(46.225434 25.499289 -6.9492105e-21)
(46.983233 24.816556 -6.6464175e-21)
(47.694034 24.140371 -6.3619862e-21)
(48.359603 23.473698 3.1261636e-24)
(48.982747 22.81946 0)
(49.566657 22.18 1.1945774e-24)
(50.114788 21.557237 -1.0288839e-24)
(50.630995 20.952615 8.3138232e-25)
(51.119346 20.3669 -5.0313362e-21)
(51.58373 19.800132 9.7122749e-21)
(52.027515 19.251686 -9.3820402e-21)
(52.453141 18.72043 9.0721437e-21)
(52.86186 18.205048 0)
(53.253742 17.704364 -4.2513244e-21)
(40.932447 28.062503 6.4138091e-21)
(41.930919 27.412361 -7.7709801e-21)
(42.888121 26.823713 3.7167972e-21)
(43.800432 26.227943 0)
(44.666716 25.622436 -6.827499e-21)
(45.48705 25.011175 1.3108452e-20)
(46.262151 24.3983 6.2938233e-21)
(46.993088 23.786994 -6.0550851e-21)
(47.681442 23.180252 0)
(48.32947 22.580887 5.6131819e-21)
(48.939822 21.991313 0)
(49.515442 21.413546 -5.2223655e-21)
(50.059562 20.849146 8.4334426e-25)
(50.575544 20.299103 -4.874527e-21)
(51.066616 19.763801 0)
(51.535612 19.243062 0)
(51.984684 18.736275 7.3420843e-25)
(52.41513 18.242631 -4.2876006e-21)
(52.827375 17.761397 4.1617784e-21)
(40.303187 27.107007 2.6440591e-21)
(41.280514 26.564992 7.1950271e-21)
(42.224959 26.06802 -3.4634347e-21)
(43.132225 25.556458 6.6639838e-21)
(43.999423 25.029992 -6.4191528e-21)
(44.825364 24.492584 -6.1863715e-21)
(45.610037 23.948461 0)
(46.35406 23.401022 -6.5707084e-25)
(47.058583 22.853344 5.5631137e-21)
(47.725295 22.308256 2.9518107e-24)
(48.35628 21.768246 5.1991631e-21)
(48.953927 21.235428 5.0285586e-21)
(49.520861 20.71149 1.6252659e-24)
(50.05981 20.197634 4.7200238e-21)
(50.57342 19.694556 4.5758629e-21)
(51.064049 19.202478 -5.4422952e-25)
(51.533572 18.721252 -4.3110134e-21)
(51.983253 18.250531 7.3847311e-25)
(52.41373 17.789998 6.5930552e-25)
(39.774614 26.165625 0)
(40.730248 25.722094 -3.3407593e-21)
(41.657144 25.30751 6.4633268e-21)
(42.5521 24.873078 -6.2510612e-21)
(43.412394 24.420383 -1.2085607e-20)
(44.236425 23.952895 1.7546725e-20)
(45.023621 23.474511 5.6600486e-21)
(45.774079 22.988574 -1.0964973e-20)
(46.488439 22.498136 5.3105443e-21)
(47.16783 22.006001 -1.0297131e-20)
(47.813779 21.514679 -9.9866283e-21)
(48.42812 21.026338 4.8462139e-21)
(49.012907 20.542772 -9.407177e-21)
(49.570304 20.06536 0)
(50.102441 19.595058 0)
(50.611254 19.132425 0)
(51.098349 18.677704 0)
(51.564902 18.230949 0)
(52.011651 17.792189 -7.9647595e-21)
(39.341833 25.26064 0)
(40.271586 24.897469 -3.114579e-21)
(41.176703 24.554261 1.2092463e-20)
(42.054232 24.188925 -8.8045316e-21)
(42.901879 23.80342 5.7005091e-21)
(43.718014 23.40055 -5.5351115e-21)
(44.501737 22.9837 -5.3763434e-21)
(45.25272 22.555941 1.0444342e-20)
(45.971141 22.120146 -5.0763095e-21)
(46.657634 21.678998 4.934388e-21)
(47.313215 21.234947 1.4392228e-20)
(47.9392 20.79016 -1.4000755e-20)
(48.537128 20.346485 1.3625402e-20)
(49.108656 19.905429 -4.4225971e-21)
(49.655451 19.468147 0)
(50.179068 19.035467 0)
(50.680846 18.607945 1.0184257e-24)
(51.161835 18.185954 3.9917904e-21)
(51.622785 17.769812 3.8947392e-21)
(38.994852 24.389752 0)
(39.895511 24.094992 -2.911249e-21)
(40.775503 23.81448 -2.8351289e-21)
(41.631945 23.510879 -5.5246648e-21)
(42.462785 23.186084 5.3830578e-21)
(43.266429 22.84227 1.0486732e-20)
(44.041805 22.482299 0)
(44.788303 22.108885 -4.9771231e-21)
(45.505749 21.724629 4.852731e-21)
(46.194372 21.33202 -4.7286349e-21)
(46.854752 20.933377 4.6137909e-21)
(47.487754 20.530806 4.4977539e-21)
(48.094457 20.126161 0)
(48.676073 19.721018 0)
(49.233855 19.316672 4.1776917e-21)
(49.769011 18.914143 4.1296651e-25)
(50.282617 18.514224 -3.9842717e-21)
(50.77557 18.117537 -3.8936236e-21)
(51.24857 17.724624 -3.8083273e-21)
(38.724797 23.551438 3.303134e-21)
(39.594151 23.316811 5.4544251e-21)
(40.446518 23.091974 -7.9958708e-21)
(41.279092 22.84361 7.816181e-21)
(42.089933 22.573532 2.5458453e-21)
(42.877468 22.2834 -4.9764087e-21)
(43.640542 21.975609 -4.8624111e-21)
(44.378371 21.652509 0)
(45.090532 21.31641 -4.6409483e-21)
(45.776945 20.969566 0)
(46.437835 20.614126 -8.8660273e-21)
(47.073688 20.252092 -8.6670079e-21)
(47.685187 19.885274 4.2380502e-21)
(48.273158 19.515267 0)
(48.83849 19.143442 0)
(49.382074 18.770949 -3.9650591e-21)
(49.904737 18.398746 0)
(50.407201 18.027635 -3.8009735e-21)
(50.89007 17.658327 -1.3038656e-24)
(38.523871 22.746971 -1.5306635e-21)
(39.360557 22.565321 5.1230741e-21)
(40.183534 22.389861 2.5087595e-21)
(40.990105 22.190825 -4.9244399e-21)
(41.778417 21.969909 2.4116385e-21)
(42.546936 21.728347 -9.4564814e-21)
(43.294479 21.468131 4.6306667e-21)
(44.020163 21.19128 -1.9065231e-25)
(44.723396 20.89982 -4.4441733e-21)
(45.403866 20.595768 1.3063846e-20)
(46.061521 20.281085 4.5646444e-26)
(46.696533 19.957637 8.3571686e-21)
(47.309258 19.627155 -8.1899119e-21)
(47.900186 19.291208 4.0133379e-21)
(48.469893 18.951191 0)
(49.018983 18.608324 0)
(49.548046 18.263668 0)
(50.057624 17.918146 3.7081741e-21)
(50.548196 17.572588 7.2780446e-21)
(38.38495 21.977798 5.6960476e-21)
(39.188278 21.842655 -7.2384632e-21)
(39.980688 21.71082 4.7419594e-21)
(40.759649 21.555636 -6.9930383e-21)
(41.523444 21.378668 0)
(42.270623 21.180801 4.4980088e-21)
(43.000019 20.963686 4.4189156e-21)
(43.710702 20.729054 -4.3381481e-21)
(44.401968 20.478673 -1.3265662e-24)
(45.073337 20.214332 -1.2549545e-20)
(45.724538 19.937799 -4.1049538e-21)
(46.355492 19.650789 -5.7571594e-26)
(46.966282 19.354924 0)
(47.557119 19.051712 -1.0359904e-24)
(48.128304 18.74253 -7.6688218e-25)
(48.680189 18.428617 -7.5007942e-21)
(49.213144 18.111085 0)
(49.727531 17.790925 0)
(50.223689 17.469043 3.5593349e-21)
(38.301488 21.245056 -3.2666238e-24)
(39.07125 21.150629 -2.2774561e-21)
(39.832335 21.057114 0)
(40.582498 20.940645 4.4201502e-21)
(41.320251 20.802672 -4.3553996e-21)
(42.044275 20.643823 -4.2878988e-21)
(42.753454 20.465472 1.05747e-24)
(43.446842 20.269105 -4.1543419e-21)
(44.123661 20.05626 4.0869675e-21)
(44.783305 19.828509 8.0426012e-21)
(45.425336 19.58743 -7.9139402e-21)
(46.049473 19.334577 7.7847495e-21)
(46.655576 19.071444 -9.4168718e-25)
(47.243622 18.799449 -1.0645812e-24)
(47.813679 18.519914 0)
(48.365877 18.234061 3.6477224e-21)
(48.900387 17.943007 -3.5904633e-21)
(49.417395 17.647769 4.7513399e-25)
(49.917099 17.349288 3.4821572e-21)
(38.267263 20.550335 -2.4867012e-21)
(39.003509 20.490958 1.4791576e-24)
(39.732812 20.430654 4.2568469e-21)
(40.453377 20.347938 -3.3150635e-25)
(41.164021 20.244177 0)
(41.86358 20.119833 4.091911e-21)
(42.550998 19.976058 -8.0739685e-21)
(43.225328 19.814117 7.9619197e-21)
(43.885742 19.635335 -7.8532671e-21)
(44.531542 19.441077 0)
(45.16216 19.232732 3.8163305e-21)
(45.777156 19.011685 -3.7609e-21)
(46.376211 18.77929 3.7080014e-21)
(46.959108 18.536853 3.6540909e-21)
(47.525721 18.285617 -7.2046995e-21)
(48.075988 18.02675 3.5515825e-21)
(48.6099 17.76134 0)
(49.127483 17.490397 0)
(49.628793 17.214863 -3.4054384e-21)
(38.27571 19.895061 -4.6696961e-21)
(38.978658 19.864651 8.1729855e-21)
(39.67615 19.832493 0)
(40.366856 19.778726 2.0002613e-21)
(41.04988 19.704609 -5.9346992e-21)
(41.724208 19.610492 3.9128691e-21)
(42.388849 19.497323 -7.4902548e-25)
(43.042868 19.366155 -3.8216143e-21)
(43.685411 19.218103 7.5505462e-21)
(44.315714 19.054331 0)
(44.933115 18.876038 -7.3654794e-21)
(45.537053 18.684438 7.2748162e-21)
(46.127068 18.480735 -3.5923295e-21)
(46.702788 18.266112 3.5465089e-21)
(47.263923 18.041708 -7.0050038e-21)
(47.810253 17.808614 -1.4304526e-25)
(48.34161 17.567867 0)
(48.857874 17.320435 -3.3743828e-21)
(49.358969 17.067239 6.6687576e-21)
(38.32082 19.276543 -2.1755073e-21)
(38.990741 19.270142 -1.9413696e-21)
(39.656784 19.261806 1.9251484e-21)
(40.317859 19.232809 1.9082418e-21)
(40.973251 19.184311 3.7814349e-21)
(41.622064 19.116592 3.7460176e-21)
(42.263373 19.030425 3.7089786e-21)
(42.896275 18.926666 7.3436293e-21)
(43.519908 18.80623 -7.2688248e-21)
(44.133474 18.670092 1.5526676e-25)
(44.736245 18.519269 -8.266534e-25)
(45.327574 18.354803 -3.5213329e-21)
(45.906892 18.177749 0)
(46.473708 17.989152 3.4449664e-21)
(47.027603 17.79004 -3.4084034e-21)
(47.568221 17.581412 3.3709048e-21)
(48.09526 17.364228 0)
(48.608472 17.139399 -3.3007177e-21)
(49.107656 16.907799 3.2667698e-21)
(38.397954 18.690814 1.010747e-21)
(39.035274 18.704773 1.4790521e-20)
(39.670372 18.716824 -7.3469174e-21)
(40.302239 18.709172 5.4694339e-21)
(40.930232 18.682912 -1.8122924e-21)
(41.553533 18.638297 -2.1553259e-20)
(42.171274 18.575958 1.0691806e-20)
(42.782584 18.496586 3.5327782e-21)
(43.386608 18.400923 -7.0099435e-21)
(43.982533 18.289769 -9.9330104e-25)
(44.569592 18.163972 3.4423656e-21)
(45.147076 18.024416 6.8227695e-21)
(45.714341 17.872004 -1.474938e-24)
(46.270803 17.707647 -6.7004062e-21)
(46.815941 17.532253 6.6377969e-21)
(47.34929 17.346718 -9.8677423e-21)
(47.870438 17.151914 0)
(48.379024 16.94868 3.2297639e-21)
(48.874737 16.737827 8.3309144e-25)
(38.503293 18.135091 3.9371691e-24)
(39.108703 18.16642 7.0584305e-21)
(39.713443 18.195951 5.2652005e-21)
(40.316582 18.206744 -6.984771e-21)
(40.917517 18.199837 -1.7359457e-21)
(41.515471 18.175474 6.9013631e-21)
(42.109612 18.134177 4.3587241e-25)
(42.69909 18.076498 3.4057991e-21)
(43.283064 18.003031 -3.3821345e-21)
(43.860711 17.914424 -3.3568269e-21)
(44.431244 17.811372 3.3350596e-21)
(44.993915 17.694611 -6.6192404e-21)
(45.548025 17.564902 1.3141165e-20)
(46.092924 17.423025 -3.2608926e-21)
(46.628012 17.269769 -6.4714725e-21)
(47.152738 17.10592 9.6353167e-21)
(47.6666 16.932256 6.3752867e-21)
(48.169141 16.749533 -6.3296228e-21)
(48.659955 16.558489 -3.1418163e-21)
(38.633514 17.607286 3.4106777e-21)
(39.207845 17.653401 0)
(39.782884 17.697859 0)
(40.357852 17.724551 6.6984581e-21)
(40.932172 17.734468 1.6658275e-21)
(41.505076 17.727852 -1.6602698e-20)
(42.075739 17.705135 -3.302657e-21)
(42.643324 17.666744 3.288599e-21)
(43.206999 17.613145 -3.2707452e-21)
(43.765942 17.544852 0)
(44.319352 17.462425 3.2338991e-21)
(44.86646 17.366465 3.21576e-21)
(45.40653 17.257602 3.1968691e-21)
(45.938864 17.136491 6.5278535e-25)
(46.462806 17.003804 3.1590124e-21)
(46.977738 16.860221 0)
(47.483084 16.70642 0)
(47.978309 16.543069 -3.1041344e-21)
(48.462925 16.370828 0)
(38.785626 17.10517 7.9657855e-22)
(39.329797 17.163967 0)
(39.875846 17.221253 0)
(40.423306 17.261633 -6.4388372e-21)
(40.971565 17.286156 1.2844067e-20)
(41.519827 17.295084 -6.4033317e-21)
(42.067256 17.288762 3.1907684e-21)
(42.613022 17.267504 9.5368861e-21)
(43.156299 17.231664 6.3330145e-21)
(43.69627 17.181637 -6.3100872e-21)
(44.232134 17.117866 6.2826836e-21)
(44.763108 17.04083 -1.2512738e-20)
(45.288433 16.951041 -3.1132732e-21)
(45.80738 16.849037 3.1019395e-21)
(46.319251 16.735379 -3.0871047e-21)
(46.823379 16.610641 0)
(47.31913 16.475405 -6.1212101e-21)
(47.805907 16.33025 9.1443327e-21)
(48.28315 16.17575 0)
(38.954482 16.630451 1.4400755e-21)
(39.471249 16.696359 -1.3901933e-20)
(39.989722 16.764843 6.2062884e-21)
(40.51057 16.817113 4.6515627e-21)
(41.033405 16.854322 -1.5303176e-24)
(41.55748 16.876839 -9.2777174e-21)
(42.081981 16.884947 -6.1728744e-21)
(42.606085 16.878867 0)
(43.128973 16.858852 -3.0725548e-21)
(43.649833 16.8252 0)
(44.167864 16.778247 0)
(44.682278 16.718366 -3.0482763e-21)
(45.192305 16.645959 0)
(45.697194 16.56146 9.0933158e-21)
(46.196218 16.465322 -6.0454458e-21)
(46.688676 16.35802 0)
(47.173891 16.240042 3.0060179e-21)
(47.651212 16.111876 0)
(48.120023 15.974014 0)
(39.137498 16.18018 3.9701159e-26)
(39.626577 16.25479 2.9597369e-21)
(40.120768 16.328618 5.9484671e-21)
(40.616951 16.390551 -4.4864727e-21)
(41.115342 16.438745 5.9878111e-21)
(41.615826 16.472984 -2.9941505e-21)
(42.117794 16.493638 2.9917245e-21)
(42.620485 16.50088 -5.9786994e-21)
(43.123095 16.494874 2.9873842e-21)
(43.624816 16.475819 0)
(44.124849 16.443955 0)
(44.622405 16.399552 0)
(45.116708 16.342912 2.972498e-21)
(45.606998 16.274368 -4.1464074e-25)
(46.09253 16.194276 -8.8931799e-21)
(46.572579 16.103016 -5.9202618e-21)
(47.046435 16.000985 1.1827758e-20)
(47.513409 15.888584 -5.9077626e-21)
(47.972836 15.766223 0)
(39.337464 15.748172 5.4567077e-22)
(39.797254 15.833722 4.3090082e-21)
(40.264695 15.916038 -7.194365e-21)
(40.73848 15.982025 0)
(41.214416 16.038622 0)
(41.692394 16.083096 0)
(42.172492 16.114588 0)
(42.654188 16.133422 0)
(43.136763 16.139726 8.728764e-21)
(43.619434 16.133607 -5.8220311e-21)
(44.101416 16.115203 -2.911565e-21)
(44.581925 16.084687 -8.7351901e-21)
(45.060191 16.042268 4.6948941e-25)
(45.535453 15.988182 5.824848e-21)
(46.006959 15.922696 2.9125787e-21)
(46.473969 15.8461 2.9137425e-21)
(46.935753 15.758706 2.9144646e-21)
(47.391593 15.660831 -5.8322662e-21)
(47.840785 15.552807 0)
(39.549503 15.336237 -1.5489665e-21)
(39.984762 15.426018 -4.1934126e-21)
(40.426247 15.514915 8.4127541e-21)
(40.873648 15.591867 -6.9896692e-21)
(41.328019 15.653258 1.0621794e-24)
(41.785062 15.70558 1.0987796e-24)
(42.244129 15.746978 5.6624586e-21)
(42.705336 15.776056 -2.8365465e-21)
(43.168182 15.793185 2.8409695e-21)
(43.631963 15.798482 -5.6931994e-21)
(44.095919 15.79202 -2.8507072e-21)
(44.559281 15.773888 1.4276904e-20)
(45.021287 15.744207 -8.5797645e-21)
(45.481184 15.703131 -2.8633575e-21)
(45.938226 15.650842 5.7383676e-21)
(46.391666 15.587549 -5.7479327e-21)
(46.840763 15.513484 -2.8796374e-21)
(47.284777 15.428887 2.8848177e-21)
(47.722974 15.334012 -8.6774679e-21)
(39.770161 14.943835 -4.6583187e-22)
(40.181903 15.037692 9.5001555e-21)
(40.600364 15.13122 -6.8138833e-21)
(41.024728 15.213066 6.8392906e-21)
(41.454675 15.284575 -1.3661632e-21)
(41.89135 15.341636 -6.8329798e-21)
(42.3308 15.390041 -8.2715773e-21)
(42.772179 15.428376 1.1094828e-20)
(43.215653 15.454989 5.563966e-21)
(43.660738 15.470264 -5.5821549e-21)
(44.106742 15.47429 0)
(44.552913 15.467097 0)
(44.998506 15.448724 5.6314422e-21)
(45.442781 15.419245 -5.6491968e-21)
(45.885001 15.378769 -2.8327021e-21)
(46.324424 15.327431 1.4211925e-20)
(46.760303 15.265389 -1.0598793e-24)
(47.191885 15.192811 -2.8630849e-21)
(47.618411 15.109879 5.7473395e-21)
(39.997998 14.569206 4.247279e-22)
(40.387656 14.66612 3.965154e-21)
(40.784384 14.762913 -5.3150039e-21)
(41.187422 14.8491 1.3352994e-21)
(41.596015 14.925218 -1.8463252e-26)
(42.009829 14.991829 1.3404252e-21)
(42.429991 15.044826 2.6854144e-21)
(42.852762 15.089644 5.4286725e-21)
(43.277401 15.124736 -5.4655324e-21)
(43.704059 15.148647 5.4890834e-21)
(44.132238 15.161745 -5.5136825e-21)
(44.561232 15.164076 0)
(44.990317 15.155608 0)
(45.418777 15.136339 -2.7928838e-21)
(45.845891 15.106308 5.6132721e-21)
(46.270926 15.065584 -5.6390341e-21)
(46.693135 15.014258 8.5009801e-21)
(47.111757 14.952431 2.848015e-21)
(47.526015 14.880216 -5.7299522e-21)
(40.231298 14.210708 -3.8727719e-22)
(40.600331 14.309731 3.6709639e-26)
(40.976609 14.408751 0)
(41.359425 14.498135 -6.5396652e-21)
(41.748075 14.578411 6.5796005e-21)
(42.141825 14.649335 5.2941167e-21)
(42.540386 14.711331 -1.0588754e-20)
(42.944847 14.760205 -2.6549201e-21)
(43.351523 14.801608 4.2817115e-25)
(43.760141 14.833065 5.4173861e-21)
(44.170706 14.853882 0)
(44.582588 14.86435 2.7392018e-21)
(44.995127 14.864404 -1.1022642e-20)
(45.40764 14.853971 2.7725493e-21)
(45.81943 14.833028 -5.5779675e-21)
(46.229777 14.801583 0)
(46.637938 14.759665 5.6496785e-21)
(47.043146 14.707312 -2.8447446e-21)
(47.444611 14.644575 -2.8651867e-21)
(40.468464 13.866727 -1.4037758e-21)
(40.818333 13.967057 1.1410724e-20)
(41.17544 14.067474 -8.9396158e-21)
(41.539108 14.1591 5.1455333e-21)
(41.908692 14.242448 6.4771497e-21)
(42.283543 14.317231 -1.04371e-20)
(42.66301 14.383099 2.6282292e-21)
(43.046872 14.440422 7.8906199e-21)
(43.436155 14.484792 -2.6451062e-21)
(43.827252 14.522616 0)
(44.220412 14.549866 -2.7022457e-21)
(44.61527 14.567134 2.7211978e-21)
(45.011267 14.574345 2.7413697e-21)
(45.407762 14.571389 -2.7610653e-21)
(45.804078 14.558188 8.3476481e-21)
(46.199507 14.534693 -5.6086384e-21)
(46.593311 14.500878 8.482214e-21)
(46.984721 14.456718 0)
(47.372935 14.402204 0)
(40.708032 13.535699 -3.1161838e-22)
(41.040186 13.636646 0)
(41.379356 13.737766 -1.2601034e-21)
(41.724892 13.830828 5.0820383e-21)
(42.076225 13.916275 -5.1244272e-21)
(42.432832 13.993788 -5.1661396e-21)
(42.79419 14.062998 2.6047723e-21)
(43.159759 14.123572 -2.6257062e-21)
(43.529313 14.175832 7.8937748e-21)
(43.903323 14.216036 -1.0668242e-20)
(44.279325 14.248513 8.0762158e-21)
(44.657386 14.271238 0)
(45.036965 14.284263 4.2471485e-25)
(45.417461 14.287454 -2.7628819e-21)
(45.798227 14.280676 -2.7886388e-21)
(46.178575 14.263825 0)
(46.55778 14.236815 2.8423183e-21)
(46.935069 14.199568 -8.6136302e-21)
(47.309634 14.152014 5.8036659e-21)
(40.948678 13.216115 -5.1750141e-22)
(41.264497 13.317087 9.9043887e-21)
(41.586845 13.418294 -4.9986681e-21)
(41.91512 13.512022 -5.0450895e-21)
(42.248887 13.598592 5.0928677e-21)
(42.587793 13.677598 -5.1400951e-21)
(42.931486 13.748596 7.7833413e-21)
(43.279587 13.811173 0)
(43.631689 13.86523 2.1600413e-25)
(43.987609 13.909887 5.3125822e-21)
(44.346174 13.947159 -5.3906809e-21)
(44.707413 13.974515 3.9841765e-25)
(45.070598 13.992348 2.7503666e-21)
(45.435093 14.000535 5.5570138e-21)
(45.800253 13.99895 -5.6173798e-21)
(46.1654 13.987475 0)
(46.529809 13.965994 -5.7435256e-21)
(46.892707 13.934384 -3.2501517e-25)
(47.253274 13.89252 1.1769322e-20)
(41.189211 12.906895 5.0828874e-22)
(41.489811 13.00713 -4.9339721e-21)
(41.796186 13.107707 4.9853413e-21)
(42.107822 13.201252 0)
(42.424531 13.287964 1.2517887e-25)
(42.746166 13.367433 0)
(43.072504 13.439307 2.5989397e-21)
(43.403251 13.503261 -3.7168942e-25)
(43.738124 13.559054 -5.3101749e-21)
(44.077073 13.605986 0)
(44.418953 13.645594 -5.4282604e-21)
(44.763598 13.6759 2.7450421e-21)
(45.110468 13.697064 0)
(45.458982 13.708869 -5.6203035e-21)
(45.808507 13.711148 8.5342553e-21)
(46.158361 13.703747 0)
(46.507813 13.686505 0)
(46.856083 13.659247 2.9582742e-21)
(47.202339 13.621792 -6.0021017e-21)
(41.428884 12.610345 5.0849276e-25)
(41.714473 12.706064 4.948338e-21)
(42.005192 12.804158 -1.2511869e-21)
(42.300628 12.896233 -3.7961735e-21)
(42.600819 12.98184 3.8405661e-21)
(42.90577 13.060558 -1.2951198e-21)
(43.215342 13.132151 0)
(43.529301 13.196327 -2.6520067e-21)
(43.847409 13.252718 -2.6836972e-21)
(44.169593 13.301036 2.6824662e-21)
(44.495262 13.34126 0)
(44.823694 13.373067 2.7859773e-21)
(45.154535 13.39608 0)
(45.487248 13.410081 0)
(45.821212 13.414867 0)
(46.15575 13.410223 0)
(46.490129 13.395923 0)
(46.823565 13.371724 -6.0651541e-21)
(47.15522 13.337379 1.7852782e-25)
(41.666323 12.318115 0)
(41.936588 12.407771 0)
(42.211682 12.502341 1.2653079e-21)
(42.491325 12.591905 3.8435946e-21)
(42.77562 12.675307 -5.1898788e-21)
(43.064598 12.752163 -1.8884334e-25)
(43.358134 12.822369 -2.6623127e-21)
(43.655982 12.885683 2.6969222e-21)
(43.957856 12.941577 -2.7334421e-21)
(44.263588 12.989808 -2.7341937e-21)
(44.573109 13.029989 5.6181204e-21)
(44.88574 13.062131 -1.4246652e-20)
(45.200918 13.085777 5.782359e-21)
(45.518079 13.100783 0)
(45.836605 13.106879 0)
(46.15583 13.103774 0)
(46.475035 13.091168 -3.0796808e-21)
(46.793442 13.068749 0)
(47.110212 13.036204 3.1904435e-21)
(41.90082 12.022052 -3.5038533e-21)
(42.15516 12.105084 1.2741199e-21)
(42.414509 12.195604 -1.2910671e-21)
(42.678607 12.282008 0)
(42.947447 12.362503 0)
(43.220974 12.436717 1.3447567e-21)
(43.499019 12.50467 1.3635404e-21)
(43.781298 12.56621 -5.5338497e-21)
(44.067377 12.620995 8.4227422e-21)
(44.356858 12.669815 5.6603704e-21)
(44.651197 12.707526 -2.4612779e-25)
(44.948476 12.738656 -1.2590591e-25)
(45.248228 12.761983 0)
(45.54994 12.777007 3.0367166e-21)
(45.853038 12.783345 -6.1796203e-21)
(46.156882 12.780622 3.1455209e-21)
(46.460766 12.76848 -3.2039794e-21)
(46.763915 12.746551 6.5314562e-21)
(47.065492 12.714464 3.3324569e-21)
(42.131215 11.715011 0)
(42.369511 11.791325 -1.3117376e-21)
(42.613159 11.877511 -5.3220643e-21)
(42.861891 11.960399 -1.3496707e-21)
(43.115531 12.037618 5.4792916e-21)
(43.373875 12.108719 0)
(43.636711 12.17367 1.4115483e-21)
(43.903921 12.232105 0)
(44.17594 12.282476 2.8936281e-21)
(44.450816 12.329155 5.9219949e-21)
(44.729312 12.367166 -6.0219035e-21)
(45.01091 12.397647 -3.0627706e-21)
(45.295056 12.420157 9.3536145e-21)
(45.581194 12.434329 -9.641228e-26)
(45.868744 12.439816 0)
(46.157059 12.436266 -6.5993887e-21)
(46.445421 12.423304 1.3471818e-20)
(46.733045 12.400517 -1.3760021e-20)
(47.019087 12.367481 3.5171721e-21)
(42.355555 11.389203 -1.06362e-20)
(42.578699 11.460018 9.5684317e-21)
(42.807184 11.542101 2.7754323e-21)
(43.040916 11.621401 -2.3301172e-25)
(43.279635 11.695286 0)
(43.523042 11.763328 1.4547282e-21)
(43.7709 11.825411 0)
(44.023243 11.880355 -2.9972966e-21)
(44.279057 11.931885 -3.0367744e-21)
(44.54013 11.972545 0)
(44.803881 12.00787 0)
(45.07027 12.035804 9.6904577e-21)
(45.339003 12.055872 -1.6466793e-20)
(45.609626 12.067722 -3.3595568e-21)
(45.881591 12.070975 -3.430631e-21)
(46.154259 12.065226 3.5050862e-21)
(46.426902 12.05005 -1.0752158e-20)
(46.69871 12.024969 0)
(46.968844 11.989498 3.7586891e-21)
(42.572763 11.040937 1.4056306e-21)
(42.781645 11.10614 -2.4116517e-25)
(42.995553 11.183798 2.5358191e-25)
(43.2146 11.258958 -2.6695032e-25)
(43.43856 11.328771 0)
(43.667183 11.392594 -1.5432266e-21)
(43.900702 11.449677 -1.5672079e-21)
(44.139083 11.500839 1.8979511e-20)
(44.380894 11.547676 -1.3029946e-20)
(44.625861 11.587179 9.9592372e-21)
(44.874041 11.619655 -1.0156852e-20)
(45.124989 11.644494 3.4546517e-21)
(45.378224 11.661348 0)
(45.633245 11.66989 -1.4423366e-20)
(45.8895 11.66975 1.4752032e-20)
(46.146344 11.660521 3.7759643e-21)
(46.403022 11.641753 1.5472944e-20)
(46.65868 11.61291 -1.5870613e-20)
(46.912456 11.573517 -1.6302282e-20)
(42.781781 10.664793 1.209594e-20)
(42.976962 10.723654 -1.087569e-20)
(43.176638 10.796391 -1.5796853e-21)
(43.38118 10.866895 -2.9807069e-25)
(43.590553 10.931968 -1.1448941e-20)
(43.805236 10.989989 7.1658278e-25)
(44.024679 11.043107 1.679649e-20)
(44.247377 11.094511 1.0293322e-20)
(44.474914 11.134196 -1.4109274e-20)
(44.704994 11.169244 3.5994359e-21)
(44.937833 11.196996 -3.6760784e-21)
(45.173219 11.217064 0)
(45.410758 11.229183 -1.5375117e-20)
(45.649971 11.232983 1.5741791e-20)
(45.890293 11.228039 -1.2098773e-20)
(46.131053 11.213895 2.8956041e-20)
(46.371444 11.190052 -1.2740932e-20)
(46.61046 11.155941 0)
(42.981396 10.252195 -3.323929e-21)
(43.163192 10.303823 -1.364475e-20)
(43.348762 10.370979 0)
(43.539219 10.435771 1.7660905e-21)
(43.735692 10.493097 -1.6084728e-20)
(43.936483 10.547901 2.8977018e-20)
(44.140821 10.600213 -1.6689203e-20)
(44.349572 10.640903 -1.144857e-20)
(44.560721 10.677293 1.5587728e-20)
(44.775101 10.706596 0)
(44.992417 10.728412 1.6290757e-20)
(45.212215 10.742589 -2.0846344e-20)
(45.434023 10.748812 0)
(45.657319 10.746653 1.7526444e-20)
(45.881501 10.735632 -1.799554e-20)
(46.105864 10.71523 0)
(46.329566 10.684889 0)
(46.55155 10.64404 4.9015886e-21)
(43.170192 9.7919792 1.8718994e-21)
(43.338977 9.8351108 -1.5357872e-20)
(43.511582 9.8946051 -1.9469139e-21)
(43.689537 9.9517958 1.9749947e-21)
(43.871591 10.007399 3.34814e-25)
(44.057211 10.05948 1.6407939e-20)
(44.246932 10.099541 -1.9010914e-20)
(44.439001 10.135779 1.7259581e-20)
(44.634663 10.164995 1.7640383e-20)
(44.833708 10.186961 -1.3535442e-20)
(45.035632 10.20168 1.8481785e-20)
(45.239903 10.208913 -1.4210936e-20)
(45.445957 10.208238 0)
(45.653187 10.199132 4.9952565e-21)
(45.860943 10.181013 5.1382731e-21)
(46.068516 10.153267 0)
(46.275081 10.115285 0)
(46.47958 10.066527 -2.8148943e-20)
(43.347538 9.270104 0)
(43.505631 9.301767 0)
(43.664928 9.3577162 4.479124e-21)
(43.82698 9.4165921 -2.2910443e-21)
(43.993845 9.4639659 0)
(44.164441 9.5003989 1.9252253e-20)
(44.337433 9.5337825 -1.9657685e-20)
(44.514363 9.560788 -5.0212128e-21)
(44.695114 9.581304 0)
(44.879167 9.5953059 9.9314253e-25)
(45.065984 9.602517 0)
(45.254917 9.6025235 0)
(45.445222 9.5947574 0)
(45.63617 9.5785275 1.7547652e-20)
(45.827089 9.5530941 -5.4220609e-20)
(46.01735 9.5177481 2.4848036e-20)
(46.206299 9.4719036 2.5644435e-20)
(46.393018 9.4152176 -2.6495918e-20)
(43.508583 8.6809332 2.099177e-20)
(43.653749 8.7008057 -2.1058109e-20)
(43.800994 8.7473344 1.8833891e-20)
(43.950622 8.788256 2.2300735e-20)
(44.100753 8.8251809 -4.2616423e-20)
(44.254364 8.8555888 4.6364431e-20)
(44.412462 8.8801222 2.9569848e-21)
(44.574843 8.8989877 -1.8132526e-20)
(44.741176 8.9119192 1.8544275e-20)
(44.910828 8.9189247 -3.1647349e-20)
(45.083171 8.9197335 0)
(45.257237 8.9137982 -6.6610983e-21)
(45.431928 8.9003527 0)
(45.60638 8.8785039 2.8167642e-20)
(45.779974 8.8474041 -3.6256472e-20)
(45.952377 8.8063928 0)
(46.123479 8.7551599 0)
(46.292886 8.6939731 7.9429299e-21)
(43.654226 7.9886071 2.657626e-20)
(43.771998 8.0111871 0)
(43.898846 8.0347009 1.016976e-20)
(44.040709 8.0631389 -3.0985914e-20)
(44.183653 8.0895783 -3.5014872e-21)
(44.32964 8.1101396 0)
(44.478653 8.1269754 2.9114572e-20)
(44.629612 8.1427259 -3.7306957e-20)
(44.783252 8.1518531 7.6280234e-21)
(44.93971 8.1567388 0)
(45.098086 8.1571951 0)
(45.256715 8.1510182 -2.4645551e-20)
(45.414665 8.1370608 2.5269737e-20)
(45.571739 8.1148569 -2.5900734e-20)
(45.727598 8.0842803 8.8503988e-21)
(45.882355 8.0454307 3.627542e-20)
(46.036997 7.9986336 0)
(46.19183 7.9451393 -9.4991007e-21)
(43.818026 7.2252515 -3.4610624e-20)
(43.91883 7.2493617 4.378659e-21)
(44.015554 7.3135335 0)
(44.124589 7.3618109 4.4071668e-21)
(44.235211 7.4004241 -2.1655611e-21)
(44.3525 7.4238008 0)
(44.491391 7.4184776 -2.7879382e-20)
(44.641187 7.4225839 3.1712053e-20)
(44.789536 7.4218913 0)
(44.939958 7.4167746 0)
(45.09408 7.4091762 3.4164138e-20)
(45.246154 7.3982284 -7.8673877e-20)
(45.394613 7.3832627 4.9931669e-20)
(45.542614 7.3660852 1.0106908e-24)
(45.690919 7.3460995 3.0846565e-20)
(45.839802 7.3270718 -1.9622814e-24)
(45.991708 7.3078542 -1.0615564e-20)
(46.145319 7.2906256 -1.7601953e-24)
(44.003399 6.4131785 5.5475844e-21)
(44.105532 6.4377041 -5.5716783e-21)
(44.202199 6.4889403 5.0371631e-20)
(44.297252 6.5456449 5.6209702e-21)
(44.392602 6.6036668 -4.518134e-20)
(44.489562 6.6612662 -5.6715485e-21)
(44.589978 6.7387207 3.8728139e-21)
(44.711305 6.7922975 -3.8961521e-20)
(44.843045 6.8368919 7.745674e-25)
(44.978661 6.872162 4.4819245e-20)
(45.115963 6.8984629 3.3719785e-20)
(45.253177 6.9162897 -3.3810155e-20)
(45.389204 6.9265144 -1.1289522e-20)
(45.525499 6.9312512 1.8714931e-25)
(45.670624 6.9073687 -3.296269e-20)
(45.820437 6.8967349 4.4072133e-20)
(45.974847 6.8816731 1.104625e-20)
(46.133728 6.8643644 0)
(44.154068 5.8061862 2.1214569e-24)
(44.249929 5.8392016 1.0383917e-19)
(44.347561 5.8864835 -5.8178305e-20)
(44.449856 5.9357521 -1.2872061e-20)
(44.557043 5.9841651 6.4057174e-21)
(44.667552 6.0311058 6.3731729e-21)
(44.776997 6.078293 -6.3385361e-21)
(44.885067 6.1266713 -6.3028598e-21)
(44.996071 6.1747272 -1.2534078e-20)
(45.111434 6.2211168 -4.9844615e-20)
(45.231039 6.2657754 6.1932928e-20)
(45.354062 6.3097242 -1.2307769e-20)
(45.479113 6.3539848 4.8894793e-20)
(45.604472 6.3972983 -1.0920606e-19)
(45.728713 6.4672477 -1.1640043e-20)
(45.862932 6.5092033 9.8691744e-25)
(46.001053 6.548911 4.5742904e-20)
(46.144161 6.5770426 1.1318989e-20)
(44.317254 5.4691975 -6.1883582e-20)
(44.408279 5.5118123 1.0271695e-19)
(44.500506 5.5637305 -5.4354021e-20)
(44.595212 5.616647 -5.3909631e-20)
(44.69273 5.6686685 4.6773432e-20)
(44.793045 5.7194654 -6.6232856e-21)
(44.896074 5.7692727 0)
(45.002296 5.8183393 -5.2014336e-20)
(45.112278 5.8666625 1.2880824e-20)
(45.226305 5.9138858 6.3767513e-20)
(45.344458 5.9594834 -3.7877208e-20)
(45.466832 6.0029082 6.2486395e-20)
(45.593629 6.0434203 2.4732706e-20)