/*--------------------------------*- C++ -*----------------------------------*\
| =========                 |                                                 |
| \\      /  F ield         | OpenFOAM: The Open Source CFD Toolbox           |
|  \\    /   O peration     | Version:  2406                                  |
|   \\  /    A nd           | Website:  www.openfoam.com                      |
|    \\/     M anipulation  |                                                 |
\*---------------------------------------------------------------------------*/
FoamFile
{
    version     2.0;
    format      ascii;
    arch        "LSB;label=32;scalar=64";
    class       volScalarField;
    location    "0.022";
    object      Ma;
}
// * * * * * * * * * * * * * * * * * * * * * * * * * * * * * * * * * * * * * //

dimensions      [0 0 0 0 0 0 0];

internalField   nonuniform List<scalar> 
35803
(
0.15722252
0.15830729
0.15935094
0.16043095
0.16149194
0.16251978
0.16350819
0.1644338
0.16549394
0.16677777
0.16830398
0.16987727
0.17157928
0.17337779
0.17521947
0.1767387
0.17727721
0.17575428
0.17189768
0.16891955
0.16724033
0.16597687
0.16485411
0.16384052
0.16170486
0.16063763
0.1592132
0.15903355
0.158075
0.1577044
0.150148
0.15433446
0.15553504
0.15680777
0.15810288
0.15939622
0.16067363
0.16192827
0.16316418
0.16448458
0.16596667
0.16761657
0.16932534
0.17113308
0.17300543
0.17488801
0.17640516
0.17687764
0.17523581
0.1713773
0.16857849
0.16700627
0.16579593
0.16471111
0.16371775
0.16156844
0.16053396
0.15915625
0.15898875
0.15802976
0.15767425
0.1501373
0.15068037
0.15206847
0.15363775
0.15523242
0.15682574
0.15840896
0.1599755
0.1615336
0.16314253
0.16486511
0.16670215
0.16857991
0.17052079
0.17248989
0.17443199
0.17596312
0.17638791
0.17463581
0.17080834
0.16821843
0.16675315
0.16559899
0.16455741
0.16358309
0.16142693
0.16042771
0.15909203
0.15893832
0.15798297
0.15764187
0.15012475
0.14691592
0.14849712
0.15031041
0.15217968
0.154064
0.15595116
0.15783254
0.15970891
0.16161482
0.16359333
0.16564549
0.16771058
0.16980048
0.17187899
0.17388675
0.17542857
0.17579559
0.17392276
0.17015456
0.1678067
0.16645821
0.16536772
0.164377
0.16341727
0.16128805
0.16031757
0.15902001
0.15887976
0.15793067
0.15760462
0.1501099
0.14312619
0.14488676
0.1469006
0.14900755
0.15115957
0.15333687
0.15552522
0.15771595
0.15992173
0.16216477
0.1644434
0.16670902
0.168961
0.17115977
0.17323803
0.17478479
0.17507723
0.17307163
0.16940785
0.16734401
0.16612002
0.16510156
0.16417106
0.16323116
0.16115346
0.16021694
0.158939
0.15881145
0.15787157
0.15756115
0.15009245
0.13943557
0.14133391
0.14349937
0.14579573
0.14817536
0.15061143
0.15308235
0.15556917
0.15806531
0.16057321
0.16308399
0.16555806
0.16798155
0.17030896
0.17246101
0.17400503
0.17420113
0.17205573
0.16856358
0.16682247
0.16573177
0.16479404
0.16393452
0.16303964
0.16104635
0.16010388
0.15884697
0.15873285
0.15780169
0.15751041
0.15007181
0.13598822
0.13796983
0.14023066
0.14265877
0.14521051
0.14785448
0.15056277
0.15330751
0.15606682
0.15882552
0.16156432
0.16424611
0.16684378
0.16930279
0.17152699
0.17305581
0.17312668
0.17084059
0.16762493
0.16623489
0.16528674
0.16443966
0.16366426
0.16284992
0.16094481
0.15997816
0.15874013
0.15864153
0.15772122
0.15745115
0.15004699
0.13288544
0.13493394
0.13724365
0.13974036
0.14239422
0.14517559
0.14805423
0.15099692
0.15397106
0.15694687
0.15989317
0.16276875
0.1655325
0.16811689
0.17040223
0.17189609
0.1718017
0.16937856
0.16660458
0.16557112
0.16477656
0.1640319
0.1633554
0.16258578
0.16080516
0.15983568
0.15861778
0.15854197
0.15763507
0.15738193
0.15001652
0.1303998
0.13243503
0.13471912
0.13720311
0.13987099
0.14269993
0.14566168
0.14872138
0.15184002
0.15497704
0.1580895
0.16112739
0.16403406
0.16672422
0.16904625
0.17047058
0.17015494
0.16765672
0.16552
0.16482135
0.16419139
0.16356409
0.16300193
0.16227969
0.16061135
0.15967288
0.15849051
0.15843788
0.15754568
0.15730119
0.14997846
0.12863147
0.13057643
0.13276146
0.13515538
0.13775215
0.1405371
0.14348699
0.14656948
0.14974439
0.15296541
0.15618025
0.15932802
0.16233487
0.16509226
0.16740595
0.1686945
0.16809162
0.16572883
0.16437373
0.16397759
0.16352095
0.163029
0.16259627
0.16193127
0.16038418
0.15947794
0.15835067
0.15826158
0.15744297
0.15720697
0.149931
0.12757468
0.12938455
0.1314209
0.13366364
0.13611501
0.13876964
0.14161257
0.14461789
0.14774938
0.15096039
0.15419315
0.15737612
0.16041671
0.16317607
0.16540015
0.16644072
0.16550714
0.16370442
0.16314663
0.16303034
0.16275651
0.16242004
0.16212841
0.16152716
0.16011605
0.15922778
0.15817687
0.15808524
0.1573202
0.15709634
0.14987391
0.1271889
0.12882518
0.13067848
0.13272824
0.13497588
0.13742461
0.14007208
0.14290324
0.14588989
0.14898902
0.15214064
0.15526352
0.15824363
0.16090121
0.16289498
0.16350739
0.16251201
0.16176267
0.16182003
0.16197017
0.16189176
0.16173398
0.16158852
0.16107333
0.15980577
0.15892841
0.1579717
0.15791479
0.15717755
0.15696458
0.14981036
0.12747972
0.12886115
0.13044635
0.132229
0.1342134
0.13640053
0.13879013
0.14137468
0.14413264
0.14702494
0.14999076
0.15293886
0.15572746
0.15811807
0.15964208
0.15977171
0.15957209
0.15988509
0.16039442
0.16079905
0.16092045
0.16097042
0.16097322
0.16055332
0.15944003
0.15858497
0.15775683
0.15768657
0.15700292
0.15680872
0.14974773
0.12807163
0.1292239
0.13054588
0.13203271
0.13370247
0.13557349
0.13765122
0.13992746
0.1423787
0.1449637
0.14761575
0.15022604
0.15261806
0.15451881
0.15550853
0.15591076
0.15697832
0.15806183
0.15889287
0.15950886
0.15985095
0.16012034
0.16027621
0.15996162
0.15900758
0.15819143
0.1574859
0.15744398
0.15679702
0.15662388
0.1496929
0.12859852
0.12951927
0.13060514
0.13184725
0.1332422
0.13479397
0.13650974
0.13839274
0.14042604
0.1425752
0.14478056
0.14692208
0.14880839
0.15021753
0.1513779
0.15304427
0.15482744
0.15619745
0.15731509
0.1581432
0.15869568
0.15918031
0.15948358
0.15930158
0.15849999
0.15774761
0.15717652
0.15714968
0.15655554
0.15644382
0.14963751
0.12850902
0.1291109
0.12986175
0.13078892
0.13191498
0.13322731
0.13467223
0.13627357
0.13795743
0.13971158
0.1414813
0.14325998
0.1450082
0.14677522
0.14887917
0.15100107
0.15282552
0.15436662
0.15570925
0.15672128
0.15748078
0.15816646
0.15859902
0.15857354
0.15792045
0.1572543
0.15680198
0.15681952
0.15627143
0.15622265
0.14958585
0.12945653
0.12989491
0.13039729
0.13096604
0.13163396
0.13246578
0.13348692
0.13469771
0.13609372
0.13758536
0.13917553
0.1408981
0.14272865
0.14479959
0.14707715
0.14916674
0.15108377
0.15263281
0.15411067
0.15528331
0.15624456
0.15709456
0.15763996
0.15778269
0.15727027
0.15671324
0.15638089
0.15643103
0.15593346
0.15595765
0.14953886
0.1314672
0.13187636
0.132336
0.13285328
0.13341844
0.13401345
0.13462755
0.13525619
0.13601052
0.13708496
0.13844782
0.1399781
0.1415837
0.14339131
0.145243
0.14736117
0.14946759
0.1510837
0.1525776
0.15385524
0.15500157
0.15598179
0.1566438
0.15694229
0.15656953
0.15612985
0.155892
0.15599486
0.15553391
0.15563463
0.14947789
0.13285779
0.13315849
0.13351389
0.13393668
0.13444448
0.13506226
0.13581354
0.13667645
0.13748597
0.13829203
0.13922333
0.14023168
0.14138446
0.14282326
0.14424754
0.14588866
0.14778567
0.14964153
0.15119185
0.15248826
0.15378295
0.15485127
0.15560875
0.15607022
0.15582109
0.15550197
0.1553578
0.15551276
0.15508136
0.15524939
0.14933433
0.13541299
0.13562642
0.13587025
0.136145
0.13645128
0.13678904
0.137162
0.13758935
0.13811496
0.13876562
0.13957291
0.14066321
0.14182605
0.14283954
0.1439232
0.14513305
0.14650987
0.1481964
0.14990196
0.15122739
0.15262136
0.15371655
0.1545341
0.1551525
0.15502588
0.15482609
0.15477743
0.15499831
0.15457798
0.15479109
0.14923041
0.13695059
0.13711585
0.13731166
0.13754349
0.13782024
0.13815269
0.13855057
0.13901756
0.13954695
0.14012696
0.14073625
0.14132345
0.14200273
0.14299837
0.14407692
0.14488835
0.14586427
0.14724187
0.14873493
0.15013139
0.15153875
0.15256518
0.15345168
0.15417325
0.15417498
0.15410458
0.15415726
0.15443654
0.1540289
0.15416979
0.14907447
0.13926602
0.13938125
0.13951293
0.13966196
0.13982923
0.14001558
0.14022365
0.14045906
0.14073461
0.14107409
0.1415149
0.14209167
0.14273039
0.14331482
0.14410732
0.14506316
0.14571925
0.14680587
0.14797043
0.14929156
0.15051513
0.15138106
0.15243736
0.15319179
0.15328713
0.15333543
0.15349128
0.15381865
0.15345241
0.15346564
0.14893695
0.14065487
0.14074222
0.14084502
0.14096539
0.141107
0.14127564
0.14148288
0.14173317
0.1420278
0.14236197
0.14272125
0.14309032
0.14350899
0.14403961
0.14452742
0.14521606
0.14613514
0.14675453
0.14755887
0.14862047
0.14963345
0.15031692
0.15152256
0.15231868
0.15244057
0.15255407
0.15276917
0.15313097
0.15285759
0.15300997
0.14889824
0.14284807
0.14290721
0.14297464
0.14305128
0.14313789
0.14323377
0.14333338
0.14343936
0.14355724
0.14369761
0.14388052
0.14413313
0.14446022
0.14484271
0.14532367
0.14578275
0.14633649
0.1469028
0.14741752
0.14821528
0.14899877
0.14969825
0.15077113
0.15164705
0.15168187
0.15180026
0.15204846
0.1524362
0.15224233
0.15253697
0.14881391
0.14407022
0.14410987
0.1441567
0.14421173
0.14427662
0.14435408
0.1444502
0.14456955
0.14471375
0.14488189
0.14506846
0.14526518
0.14546903
0.14568784
0.14592491
0.14623023
0.14658032
0.14696516
0.14749266
0.14807008
0.14863051
0.14934071
0.15017851
0.1510761
0.15098853
0.15106369
0.1513877
0.1517444
0.15165053
0.15196151
0.14875006
0.14584273
0.14586721
0.14589517
0.14592713
0.14596353
0.14600376
0.14604355
0.14607921
0.14611011
0.14614013
0.14618225
0.146266
0.14639686
0.14655564
0.1467408
0.14695129
0.14720939
0.14754634
0.14787744
0.14803616
0.14835384
0.14899645
0.14958417
0.15045455
0.15036423
0.1503617
0.15078371
0.15107423
0.15111278
0.15158815
0.14869173
0.14683099
0.14684301
0.14685833
0.14687755
0.14690192
0.14693336
0.14697487
0.14703023
0.14710324
0.14719629
0.1473063
0.14740684
0.14748988
0.14757641
0.14767498
0.14778929
0.14791533
0.14805926
0.14820696
0.1481413
0.14823264
0.14845556
0.14914166
0.14997761
0.14992281
0.1497631
0.15024414
0.15045432
0.15057939
0.15103896
0.1486422
0.14797881
0.1479806
0.1479821
0.14798327
0.14798432
0.14798571
0.14798826
0.14799276
0.14799938
0.14800692
0.14801425
0.14802878
0.1480573
0.1480991
0.14815436
0.14821879
0.14828256
0.14836262
0.14848512
0.14859676
0.14833403
0.148192
0.14871309
0.14964936
0.14959605
0.14927033
0.14973167
0.14989975
0.15005186
0.15053865
0.14858896
0.14864267
0.14864269
0.14864228
0.14864055
0.14863668
0.14863013
0.14862247
0.14861527
0.14861017
0.14860986
0.14861609
0.14862715
0.14863885
0.14864988
0.14866407
0.1486896
0.14872383
0.14876944
0.14880362
0.14880852
0.14853588
0.14811909
0.14838768
0.14926139
0.14917388
0.14883234
0.1491985
0.1493414
0.14949943
0.15003319
0.14855892
0.14901846
0.14901195
0.14900464
0.14899682
0.14898868
0.14898037
0.14897207
0.1489638
0.1489554
0.14894629
0.14893649
0.14892763
0.14892212
0.14891908
0.14891747
0.14891855
0.14892476
0.14894319
0.1489289
0.14890813
0.14881053
0.14821509
0.14828867
0.14905625
0.14896027
0.14865605
0.14881248
0.14897463
0.14917274
0.14951025
0.14855976
0.14926513
0.1492565
0.14924673
0.14923614
0.14922506
0.14921378
0.14920246
0.14919101
0.14917936
0.14916696
0.14915325
0.14913839
0.14912417
0.14911364
0.14910782
0.14910639
0.14910469
0.1491234
0.14911168
0.1491603
0.1493335
0.14889967
0.14865498
0.14900536
0.1489231
0.14867105
0.14851201
0.14884996
0.14898118
0.14910425
0.14859343
0.016663492
0.03163552
0.058087263
0.091806511
0.11771857
0.13347529
0.14296171
0.14954305
0.1548305
0.1594389
0.16359267
0.16740002
0.17091832
0.17417844
0.17719272
0.17990386
0.18226331
0.18378643
0.18401729
0.18178347
0.17683523
0.17280638
0.17022247
0.16805955
0.16535866
0.16364861
0.16178312
0.161037
0.15992848
0.15886847
0.15050061
0.025535058
0.047460881
0.080128711
0.11033267
0.12880076
0.1393268
0.14626166
0.15171689
0.15645401
0.16072529
0.16463424
0.16824707
0.17160285
0.17472536
0.17761916
0.18022309
0.18246982
0.18385731
0.18393277
0.18150344
0.17651006
0.17259812
0.1700832
0.16794539
0.16526119
0.16357505
0.16172545
0.16099708
0.15989258
0.15884245
0.15049015
0.037484018
0.065077646
0.097339175
0.12045755
0.13394226
0.14224726
0.14827604
0.15328792
0.15773678
0.16178415
0.16550821
0.16896385
0.17218382
0.17518911
0.17797884
0.18048877
0.18263284
0.18389922
0.18383599
0.18123135
0.17621088
0.172413
0.16995672
0.16784223
0.16517249
0.16350696
0.16167095
0.16095833
0.15985703
0.15881267
0.15047866
0.053438867
0.084685462
0.1118195
0.12855299
0.13835399
0.14495112
0.15019779
0.15479216
0.15896331
0.16279568
0.16634274
0.16964742
0.17273695
0.17562976
0.17831927
0.18073765
0.18277849
0.18392525
0.18373036
0.18094872
0.1759132
0.17222897
0.16982833
0.16773665
0.16508169
0.16343746
0.16161565
0.16091909
0.15982094
0.1587829
0.15046631
0.073344141
0.10249093
0.12252642
0.13423995
0.14165012
0.14720143
0.15193227
0.15620477
0.16013321
0.16376616
0.16714463
0.17030362
0.17326689
0.17605072
0.17864276
0.1809712
0.18290852
0.18394191
0.18361523
0.18065486
0.17561798
0.17204903
0.16970115
0.16763206
0.16499167
0.16336843
0.16156058
0.16087931
0.15978395
0.15875342
0.15044504
0.093724223
0.11623644
0.12998818
0.1384031
0.14434015
0.14920553
0.15354722
0.15754427
0.16125014
0.1646951
0.16791186
0.17093
0.17377121
0.17644968
0.17894721
0.18118769
0.18302257
0.18394755
0.1834871
0.18035107
0.17532642
0.17187292
0.16957482
0.1675279
0.16490183
0.16329942
0.16150542
0.16083885
0.15974583
0.15872398
0.15043021
0.10996672
0.12574662
0.13522558
0.14161926
0.14664204
0.15103322
0.15506439
0.15881784
0.16231653
0.16558279
0.16864375
0.17152569
0.1742491
0.17682596
0.17923207
0.1813868
0.18312128
0.18394266
0.1833444
0.18003829
0.17503953
0.17170061
0.1694494
0.16742438
0.16481238
0.16323058
0.16145027
0.16079789
0.15970599
0.15869443
0.15041656
0.12167393
0.13223049
0.13907961
0.14426725
0.14870045
0.15273719
0.15650384
0.16003365
0.1633364
0.16643114
0.16934121
0.17209129
0.17470101
0.1771799
0.17949765
0.18156897
0.1832062
0.1839297
0.18318577
0.17971749
0.17475806
0.17153187
0.16932484
0.16732148
0.16472331
0.16316191
0.16139512
0.16075654
0.15966187
0.15866501
0.15040363
0.12934303
0.13673756
0.14210762
0.14657543
0.15059935
0.15434851
0.1578781
0.1611975
0.16431296
0.16724165
0.17000506
0.17262735
0.17512735
0.17751179
0.17974417
0.18173462
0.18327775
0.18390592
0.18301227
0.17938829
0.17448275
0.17136643
0.1692011
0.16721924
0.16463466
0.16309342
0.16134001
0.16071488
0.15960814
0.15863508
0.15038992
0.13460318
0.14019665
0.14469304
0.14868182
0.15238828
0.15588677
0.1591957
0.1623139
0.16524834
0.16801527
0.17063583
0.17313425
0.17552837
0.17782177
0.17997182
0.18188409
0.18333536
0.18386824
0.1828233
0.17905247
0.17421425
0.17120405
0.16907815
0.16711767
0.16454645
0.16302514
0.16128497
0.16067297
0.15954339
0.15860461
0.15037683
0.13850623
0.14306554
0.14701351
0.15065422
0.15409536
0.15736475
0.16046268
0.16338605
0.166144
0.16875265
0.17123393
0.17361229
0.17590426
0.17811001
0.18018076
0.18201757
0.18337831
0.18381707
0.18261977
0.17871261
0.17395288
0.17104447
0.16895599
0.16701679
0.16445869
0.16295709
0.16123003
0.16063096
0.15948666
0.15857382
0.15036409
0.1416768
0.1456111
0.14917736
0.15253707
0.15574011
0.15879149
0.16168357
0.16441641
0.16700095
0.16945426
0.17179968
0.17406173
0.17625521
0.17837666
0.18037117
0.18213488
0.18340614
0.18375305
0.18240285
0.17837177
0.17369865
0.17088745
0.16883459
0.16691662
0.16437143
0.16288928
0.16117521
0.16058892
0.15944689
0.15854295
0.15035252
0.14446461
0.14797753
0.15124519
0.15435754
0.15733544
0.1601731
0.16286186
0.16540659
0.16781977
0.17012042
0.17233335
0.17448277
0.17658139
0.17862184
0.18054319
0.18223564
0.18341994
0.18367697
0.18217398
0.17803021
0.17345146
0.17073277
0.16871395
0.16681718
0.16428468
0.16282174
0.16112056
0.16054684
0.15941
0.15851439
0.15034157
0.14705507
0.15024637
0.15325471
0.15613372
0.15889001
0.16151375
0.16399992
0.1663574
0.16860077
0.17075135
0.17283515
0.1748756
0.17688296
0.17884571
0.18069698
0.18232012
0.18342004
0.18358908
0.18193361
0.17768897
0.17321121
0.17058022
0.16859406
0.16671849
0.16419847
0.16275448
0.1610661
0.1605047
0.15937397
0.15849365
0.15033105
0.14955272
0.15246623
0.15522941
0.15787699
0.16040916
0.1628161
0.16509889
0.16726911
0.16934401
0.17134715
0.17330521
0.17524034
0.17716003
0.17904839
0.18083266
0.18238796
0.18340549
0.18349
0.1816825
0.17734909
0.17297773
0.17042963
0.16847492
0.16662057
0.16411283
0.16268754
0.16101188
0.16046259
0.15933843
0.15847075
0.15032101
0.15201622
0.15466586
0.15718353
0.15959408
0.16189557
0.1640816
0.166159
0.16814158
0.1700494
0.17190783
0.17374361
0.17557711
0.17741272
0.17923001
0.18095032
0.18243814
0.1833766
0.18338102
0.1814208
0.17701193
0.17275075
0.17028084
0.16835653
0.16652344
0.16402778
0.16262092
0.16095794
0.16042054
0.15930334
0.15844525
0.15031151
0.15447981
0.15686222
0.15912489
0.16128795
0.16334998
0.16531036
0.16717973
0.16897432
0.17071668
0.1724333
0.17415036
0.17588597
0.17764111
0.1793907
0.1810499
0.18247019
0.18333273
0.18326247
0.18114927
0.17667795
0.17253001
0.1701337
0.16823889
0.16642711
0.16394335
0.16255466
0.1609043
0.16037854
0.15926867
0.15842036
0.15030247
0.15696283
0.15906365
0.161056
0.16295834
0.16477154
0.16650118
0.16815997
0.16976654
0.17134542
0.1729234
0.17452542
0.17616696
0.1778453
0.17953057
0.18113103
0.18248437
0.18327761
0.18313421
0.18086873
0.17634777
0.17231525
0.16998808
0.16812201
0.16633162
0.16385958
0.16248877
0.16085099
0.16033654
0.15923443
0.15839614
0.15029359
0.15947271
0.16127085
0.16297457
0.164602
0.16615774
0.16765179
0.16909803
0.17051724
0.1719351
0.17337787
0.17486873
0.17642009
0.17802537
0.17964981
0.18119406
0.18248394
0.18321616
0.18299628
0.18057996
0.17602208
0.1721062
0.16984388
0.1680059
0.16623698
0.1637765
0.16242326
0.16079803
0.16029456
0.15920061
0.15837246
0.15028498
0.16200481
0.16347696
0.1648737
0.16621326
0.16750439
0.16875903
0.16999184
0.17122518
0.17248503
0.17379641
0.17518015
0.17664536
0.17818139
0.17974856
0.18123956
0.18246982
0.18314443
0.18284906
0.18028381
0.17570145
0.1719026
0.16970101
0.16789056
0.16614323
0.16369414
0.16235818
0.16074543
0.1602527
0.15916718
0.15834924
0.150277
0.16454243
0.16566798
0.16674231
0.16778428
0.16880584
0.16981906
0.17083899
0.17188893
0.17299444
0.17417864
0.17545953
0.17684273
0.17831346
0.17982666
0.1812665
0.18244289
0.18306479
0.1826911
0.17998106
0.17538638
0.17170416
0.16955939
0.167776
0.16605039
0.16361255
0.16229353
0.1606932
0.16021092
0.15913412
0.15832644
0.1502693
0.16705882
0.16782398
0.16856607
0.1693055
0.17005539
0.17082748
0.17163676
0.17250692
0.17346248
0.17452413
0.17570666
0.1770122
0.17842157
0.1798829
0.18127506
0.18240478
0.18297784
0.18252192
0.17967238
0.1750773
0.17151057
0.16941897
0.16766224
0.1659585
0.16353176
0.16222933
0.16064128
0.16016917
0.1591015
0.15830398
0.15026326
0.16952049
0.16992022
0.17032896
0.17076622
0.17124569
0.17177936
0.17238224
0.17307746
0.17388819
0.17483242
0.17592136
0.17715373
0.17850554
0.17991703
0.1812695
0.18235533
0.18288227
0.18234135
0.17935858
0.17477453
0.17132153
0.16927969
0.16754929
0.16586759
0.1634518
0.1621656
0.16058962
0.16012745
0.15906938
0.1582818
0.15025685
0.17188994
0.17192928
0.17201517
0.17215529
0.17236894
0.17266931
0.17307234
0.17359878
0.17427061
0.17510305
0.17610345
0.17726705
0.1785639
0.17993036
0.18124975
0.18229322
0.18277595
0.18214825
0.17904074
0.17447834
0.17113674
0.16914152
0.16743716
0.16577769
0.16337274
0.16210236
0.16053816
0.16008578
0.15903739
0.15825985
0.15024988
0.17413707
0.17383296
0.17360622
0.17346048
0.17341688
0.17349195
0.17370385
0.17406903
0.17460875
0.17533563
0.1762526
0.17735114
0.17859507
0.17992625
0.18121416
0.18221842
0.18265958
0.18194484
0.17872013
0.17418898
0.17095591
0.16900446
0.16732586
0.16568883
0.1632946
0.16203965
0.16048687
0.16004411
0.15900523
0.15823807
0.15024252
0.17623366
0.17560951
0.17508427
0.17466835
0.17438124
0.17424384
0.17427381
0.17448611
0.1749016
0.1755297
0.17636788
0.17740235
0.17860149
0.17990534
0.1811621
0.18213101
0.18253275
0.18173133
0.17839787
0.17390665
0.17077877
0.16886849
0.16721542
0.16560105
0.16321748
0.16197751
0.16043574
0.16000244
0.15897418
0.15821643
0.15023503
0.17814939
0.17723385
0.17643499
0.17576816
0.17525595
0.17491996
0.17477846
0.17484916
0.17514777
0.17568406
0.17644558
0.17742142
0.17858913
0.17986575
0.18109398
0.18203108
0.18239544
0.18150881
0.17807551
0.17363143
0.17060506
0.16873361
0.16710584
0.1655144
0.16314149
0.161916
0.16038475
0.15996089
0.15894598
0.15819478
0.15022752
0.17986223
0.17868896
0.17764527
0.17675108
0.17603345
0.17551569
0.17521731
0.17515569
0.17534536
0.17579429
0.1764825
0.17741728
0.17855598
0.17980567
0.18100995
0.1819188
0.18224787
0.18127835
0.17775435
0.1733633
0.17043454
0.16859984
0.16699713
0.16542889
0.16306661
0.16185505
0.16033395
0.15991942
0.15891845
0.15817311
0.15021953
0.18135511
0.17996064
0.17870365
0.17760882
0.17670786
0.17602705
0.17558651
0.17540227
0.17548838
0.17585134
0.17648738
0.17739057
0.17849798
0.17972538
0.18091007
0.18179441
0.18209034
0.18104092
0.17743546
0.17310213
0.17026699
0.1684672
0.1668893
0.16534452
0.16299256
0.16179457
0.16028334
0.15987798
0.15888671
0.15815144
0.15021001
0.18261366
0.18103681
0.17960044
0.17833424
0.17727349
0.17644766
0.17587871
0.1755789
0.17556577
0.17586587
0.17646879
0.1773371
0.17841565
0.17962503
0.18079442
0.18165817
0.18192324
0.18079747
0.17711977
0.17284777
0.17010223
0.1683357
0.16678239
0.16526133
0.16291866
0.161735
0.16023274
0.1598366
0.15885143
0.15812972
0.15019845
0.18362332
0.18190481
0.18032516
0.17891889
0.17772226
0.1767645
0.17607133
0.17566724
0.17559253
0.17585506
0.17642148
0.17725375
0.17830906
0.17950459
0.18066304
0.18151023
0.18174705
0.18054889
0.17680804
0.17260011
0.16994014
0.16820536
0.16667639
0.16517934
0.16284414
0.16167645
0.16018232
0.15979534
0.15881561
0.15810782
0.15019007
0.18436701
0.18254573
0.18085735
0.17933761
0.17802599
0.17695309
0.17616015
0.17569867
0.17559159
0.17581369
0.17633776
0.17714087
0.17817804
0.17936399
0.18051595
0.18135021
0.18156214
0.18029625
0.17650082
0.17235904
0.16978054
0.16807623
0.16657133
0.16509853
0.16276841
0.16161828
0.16013216
0.15975416
0.15877951
0.15808573
0.15018156
0.18479902
0.18292067
0.18116465
0.17956717
0.17817496
0.17702794
0.17618879
0.17569753
0.17555024
0.17572918
0.17621841
0.17699851
0.17802245
0.17920313
0.18035315
0.18118019
0.18136873
0.18004055
0.17619837
0.17212437
0.16962332
0.16794834
0.16646722
0.16501893
0.16269281
0.16155877
0.16008245
0.15971302
0.15874316
0.15806363
0.15017332
0.18499931
0.18309486
0.18130249
0.17966257
0.1782224
0.17704382
0.17618415
0.1756477
0.17545446
0.17559903
0.17606333
0.17682652
0.17784218
0.17902197
0.18017463
0.18099948
0.18116797
0.17978244
0.17590111
0.17189595
0.16946837
0.16782173
0.16636409
0.16494052
0.16261793
0.16149633
0.16003313
0.15967185
0.15870667
0.15804164
0.15016779
0.18506928
0.18316388
0.18135383
0.17969147
0.17822562
0.17702261
0.17611655
0.17552945
0.17530279
0.17542371
0.17587198
0.17662468
0.17763716
0.17882044
0.17998068
0.18080827
0.18096012
0.17952272
0.17560937
0.17167366
0.16931562
0.16769644
0.16626195
0.16486331
0.16254422
0.16143327
0.15998402
0.15963061
0.15867039
0.15801988
0.15016355
0.18498285
0.18309505
0.18128748
0.17961905
0.17814387
0.17691158
0.17595993
0.17534183
0.17509522
0.17520259
0.1756439
0.17639282
0.17740732
0.17859851
0.17977136
0.18060724
0.18074581
0.17926212
0.17532344
0.17145736
0.16916498
0.1675725
0.16616084
0.1647873
0.16247227
0.16137051
0.15993458
0.15958926
0.15863448
0.15799844
0.15016031
0.18457506
0.18275212
0.18099484
0.17936103
0.17790378
0.17667055
0.17570993
0.17508249
0.17483044
0.17493498
0.17537869
0.17613079
0.17715262
0.17835611
0.17954665
0.18039613
0.18052578
0.17900131
0.17504352
0.1712469
0.16901643
0.16744997
0.16606078
0.16471251
0.16240269
0.16130847
0.15988411
0.15954754
0.15859771
0.15797733
0.15015796
0.1838234
0.18212123
0.1804608
0.17890378
0.17750185
0.17630422
0.17536409
0.17474917
0.17450696
0.17462013
0.17507592
0.17583846
0.17687302
0.17809324
0.17930653
0.18017523
0.18030068
0.17874094
0.17476979
0.17104216
0.16886991
0.16732888
0.16596181
0.16463894
0.162336
0.16124743
0.15983159
0.15950488
0.15855754
0.15795624
0.15015579
0.18281429
0.18125195
0.1797162
0.17826643
0.17695022
0.17581699
0.174922
0.17434035
0.17412332
0.17425728
0.17473516
0.1755157
0.17656855
0.17780988
0.17905097
0.17994477
0.18007107
0.17848163
0.17450238
0.17084297
0.16872542
0.16720927
0.16586396
0.1645666
0.16227248
0.16118782
0.1597745
0.15946106
0.15851437
0.15793487
0.15015396
0.18156874
0.18016685
0.17877849
0.17746072
0.17625587
0.17521161
0.174384
0.17385534
0.17367809
0.17384569
0.17435596
0.17516236
0.17623923
0.17750609
0.17877994
0.17970483
0.17983752
0.17822398
0.17424143
0.17064918
0.16858296
0.16709119
0.16576727
0.16449548
0.16221223
0.1611302
0.15971219
0.1594161
0.15847067
0.15791356
0.15015199
0.18009809
0.17887829
0.17765814
0.17649397
0.17542305
0.17449006
0.17375099
0.17329405
0.17316974
0.1733847
0.17393789
0.17477829
0.1758851
0.17718191
0.17849341
0.17945545
0.17960063
0.17796862
0.17398702
0.17046066
0.16844256
0.16697468
0.16567179
0.16442561
0.16215518
0.16107513
0.15964748
0.15937061
0.15842723
0.15789232
0.15015295
0.17841429
0.17739519
0.17636188
0.17537077
0.17445439
0.1736536
0.17302416
0.17265655
0.17259664
0.1728737
0.17348053
0.17436334
0.17550622
0.17683747
0.17819134
0.17919659
0.17936087
0.17771615
0.17373921
0.17027729
0.16830425
0.16685979
0.16557756
0.16435698
0.16210122
0.16102277
0.15958947
0.15932412
0.15838455
0.15787115
0.15015437
0.17652656
0.17572181
0.17489221
0.17409261
0.17335055
0.17270247
0.17220507
0.17194145
0.17195815
0.17231228
0.17298353
0.17391735
0.17510269
0.17647296
0.17787378
0.17892814
0.17911827
0.17746713
0.17349807
0.17009897
0.16816806
0.16674653
0.1654846
0.16428958
0.16205024
0.16097299
0.1595406
0.15928206
0.15834304
0.15785006
0.1501554
0.17443686
0.17385613
0.173247
0.17265799
0.17211056
0.17163687
0.17129354
0.17114633
0.17125588
0.1717
0.17244658
0.17344021
0.17467466
0.17608863
0.17754082
0.17864994
0.17887257
0.17722201
0.17326357
0.16992551
0.16803395
0.1666349
0.1653929
0.16422339
0.16200215
0.16092568
0.15949297
0.15925009
0.15830297
0.15782903
0.15015608
0.17214029
0.17179173
0.17142165
0.17106445
0.17073305
0.17045856
0.17028741
0.17027103
0.17049188
0.1710368
0.17186937
0.17293177
0.17422223
0.1756848
0.17719265
0.17836171
0.17862441
0.17698132
0.17303557
0.16975662
0.1679019
0.16652487
0.16530249
0.16415841
0.161957
0.16088076
0.15944559
0.15921886
0.15826394
0.15780803
0.15015677
0.16962931
0.16952296
0.16941371
0.16931131
0.16922093
0.16916815
0.16918208
0.16931689
0.16966715
0.17032326
0.17125137
0.17239142
0.1737451
0.17526147
0.17682928
0.17806305
0.17837352
0.17674591
0.17281407
0.16959237
0.16777214
0.16641668
0.16521355
0.16409475
0.16191485
0.16083794
0.15939876
0.15918353
0.15822529
0.15778708
0.15015718
0.16689032
0.16704159
0.16721952
0.16739723
0.16757009
0.16775354
0.16797357
0.16828096
0.16877599
0.16955625
0.17058966
0.17181641
0.17324109
0.17481707
0.17644935
0.17775303
0.17811997
0.17651761
0.17260043
0.16943425
0.16764578
0.16631109
0.16512659
0.16403271
0.16187526
0.16079614
0.15935307
0.15914521
0.15818682
0.15776629
0.15015691
0.16389304
0.1643144
0.16480706
0.16529376
0.1657525
0.16619494
0.16664593
0.16714527
0.16779552
0.1687223
0.16987707
0.17120106
0.1727057
0.17434821
0.17604971
0.17742983
0.17786332
0.17629904
0.17239817
0.16928481
0.16752419
0.16620878
0.16504179
0.16397257
0.16183521
0.1607525
0.15930903
0.15910768
0.15814883
0.15774585
0.15015589
0.16069406
0.16127245
0.16203512
0.1628447
0.16362999
0.16438014
0.16510616
0.16582861
0.16664768
0.167757
0.16907146
0.17051227
0.17211158
0.17383207
0.17561158
0.17708051
0.17759921
0.17609006
0.17221393
0.16914329
0.16740547
0.1661079
0.16495772
0.163914
0.16178588
0.16070228
0.15926414
0.15907038
0.15811118
0.15772558
0.15015416
0.014492244
0.027306034
0.051753622
0.085545068
0.11326059
0.13067889
0.141259
0.14837582
0.15392733
0.15869359
0.1629671
0.16687683
0.17048661
0.17382919
0.17691907
0.1796994
0.18213026
0.18373818
0.1840846
0.18197338
0.17706663
0.1729606
0.17033134
0.16814662
0.16543414
0.16370777
0.16183143
0.16107277
0.15996067
0.15889698
0.15050255
0.016680538
0.029595853
0.052720958
0.08469156
0.11227771
0.13006626
0.14087022
0.14810042
0.15369126
0.15846901
0.16275155
0.16667722
0.17031126
0.17368295
0.17680366
0.17961449
0.18207281
0.18371445
0.18411676
0.18207107
0.17720173
0.17305422
0.17040252
0.16820322
0.1654864
0.16375188
0.16186967
0.1611019
0.1599851
0.15891418
0.15050502
0.018315832
0.031049621
0.053108953
0.083674562
0.11120146
0.12931961
0.14034913
0.14771267
0.15336525
0.15817215
0.16247704
0.16642896
0.1700953
0.17350287
0.1766604
0.17950743
0.18199858
0.18368687
0.18414162
0.18217782
0.17734795
0.17315255
0.17047446
0.1682602
0.16553903
0.16379657
0.16190849
0.16113182
0.16000991
0.15893037
0.15050498
0.019708534
0.0320943
0.053127422
0.082478065
0.10994496
0.12843642
0.13975471
0.14728519
0.15301736
0.15786211
0.16219294
0.16617201
0.16987062
0.17331406
0.17650868
0.17939272
0.18191741
0.18365406
0.1841646
0.18228398
0.17749762
0.17325573
0.17054945
0.16831984
0.16559378
0.16384275
0.16194842
0.16116272
0.1600356
0.15894873
0.15050918
0.021046594
0.033161302
0.053214404
0.081331118
0.10862327
0.12749826
0.13913888
0.14685186
0.15267086
0.15755573
0.16191183
0.1659159
0.16964442
0.17312194
0.17635249
0.17927322
0.18183135
0.18361633
0.18418488
0.18238657
0.17764671
0.17336084
0.17062586
0.1683809
0.16564975
0.16388976
0.16198903
0.16119424
0.16006185
0.15896725
0.15051744
0.02236791
0.034234403
0.053423661
0.080327242
0.10732703
0.12655407
0.13852134
0.1464213
0.15233033
0.15725614
0.16163628
0.16566297
0.16941883
0.17292832
0.17619334
0.17915008
0.18174131
0.18357415
0.18420135
0.18248458
0.17779381
0.17346622
0.17070225
0.16844213
0.16570598
0.16393703
0.16202999
0.16122612
0.16008839
0.15898565
0.15053381
0.023625872
0.035270276
0.053697526