/*--------------------------------*- C++ -*----------------------------------*\
| =========                 |                                                 |
| \\      /  F ield         | OpenFOAM: The Open Source CFD Toolbox           |
|  \\    /   O peration     | Version:  2406                                  |
|   \\  /    A nd           | Website:  www.openfoam.com                      |
|    \\/     M anipulation  |                                                 |
\*---------------------------------------------------------------------------*/
FoamFile
{
    version     2.0;
    format      ascii;
    arch        "LSB;label=32;scalar=64";
    class       volScalarField;
    location    "0.022";
    object      nut;
}
// * * * * * * * * * * * * * * * * * * * * * * * * * * * * * * * * * * * * * //

dimensions      [0 2 -1 0 0 0 0];

internalField   nonuniform List<scalar> 
35803
(
0.037692808
0.041447875
0.045837036
0.050834631
0.056432999
0.062604567
0.069291896
0.076402837
0.083797703
0.091247996
0.098355256
0.10451968
0.10884526
0.11001517
0.10616173
0.094896343
0.073764052
0.043591675
0.019330584
0.0096250645
0.0072227569
0.0061634197
0.0054745723
0.0049677118
0.0046632685
0.0045088969
0.0044013857
0.0042507326
0.0041970133
0.0040680406
0.0040361576
0.042443583
0.046230402
0.050502933
0.055317245
0.060691339
0.066608705
0.073016349
0.079819823
0.086876921
0.093952826
0.10064801
0.10634036
0.11011929
0.11065079
0.10605483
0.093956674
0.072071119
0.041781936
0.018053183
0.0093713441
0.0071312481
0.0061169872
0.0054500267
0.0049542798
0.004652968
0.0045028477
0.004400288
0.004249623
0.0041958723
0.0040678278
0.0040362278
0.048036875
0.051720704
0.05584425
0.06045694
0.065581819
0.071209685
0.077292995
0.083738715
0.090399132
0.097032061
0.10323225
0.10836323
0.11149547
0.11127545
0.10581064
0.092746796
0.06998477
0.039560783
0.016886298
0.0090873787
0.0070795378
0.0060906821
0.0054361898
0.0049465241
0.0046438319
0.0044975615
0.004399919
0.0042490686
0.004195196
0.0040676314
0.004036296
0.054574593
0.058063334
0.061971187
0.066333255
0.071165437
0.076457362
0.08216282
0.0881891
0.094382441
0.10049181
0.10610314
0.11056748
0.1129349
0.11183024
0.10534912
0.091166422
0.067401967
0.036892248
0.015737324
0.0088216576
0.0070018429
0.0060482791
0.0054133517
0.004931892
0.0046324801
0.0044909787
0.0043995545
0.0042482366
0.0041940404
0.0040674039
0.0040363651
0.062128498
0.065360308
0.06898717
0.07303606
0.077515403
0.082409836
0.087670413
0.093201592
0.098842543
0.10433156
0.10924356
0.11291617
0.11437834
0.1122316
0.10456175
0.089084036
0.064193774
0.033764916
0.014571384
0.0085470794
0.006925431
0.0060071345
0.0053917911
0.0049164414
0.004621907
0.0044848507
0.0043992806
0.0042476614
0.0041928662
0.0040671054
0.0040364327
0.070734582
0.073651435
0.076940685
0.080613215
0.08467173
0.089095583
0.093831118
0.098777318
0.10376445
0.10851821
0.11260018
0.11533315
0.1157239
0.11234982
0.10329132
0.08632034
0.060199482
0.030197107
0.013385653
0.008274674
0.0068353921
0.0059562137
0.0053648013
0.0048974917
0.0046118155
0.0044775264
0.0043987483
0.0042470182
0.004191226
0.0040667773
0.0040364952
0.080360613
0.082902692
0.085804783
0.089040338
0.092607294
0.0964801
0.10059953
0.10485724
0.10907278
0.11295737
0.11605685
0.11767711
0.11680174
0.1119843
0.1013089
0.082629964
0.05522608
0.026253278
0.012202203
0.0080301312
0.006739047
0.0059018344
0.0053368169
0.0048807638
0.0046028333
0.0044693443
0.0043978746
0.0042464657
0.0041893217
0.0040664371
0.0040365474
0.090839061
0.092983193
0.09544473
0.098181174
0.10118391
0.10442084
0.1078253
0.11127957
0.1145907
0.1174537
0.11939617
0.1197045
0.11733838
0.11082975
0.09828308
0.077680934
0.049063708
0.022097937
0.011055701
0.0077808354
0.0066291107
0.0058384374
0.0053041494
0.0048608674
0.0045901433
0.0044600188
0.0043960065
0.0042456861
0.0041871116
0.0040661098
0.0040365821
0.10184746
0.10356535
0.10553974
0.10771896
0.11008641
0.11260136
0.11518735
0.11771507
0.11997701
0.12165001
0.12224087
0.12101356
0.1169038
0.1084276
0.093737307
0.07103522
0.041552127
0.01858627
0.010010837
0.0075410601
0.0065092543
0.0057692148
0.0052692552
0.0048356574
0.0045745606
0.0044499247
0.0043933724
0.0042450069
0.0041849123
0.0040658206
0.0040365892
0.11279575
0.11405798
0.11549985
0.11706508
0.11872684
0.12043327
0.12209546
0.12356973
0.12463125
0.12493591
0.12396649
0.12096162
0.11483457
0.10409828
0.087001629
0.062135515
0.03273928
0.01530744
0.0090666429
0.0072989165
0.0063748514
0.0056900664
0.005229443
0.0048068142
0.0045578365
0.0044384087
0.0043886152
0.0042439661
0.0041825514
0.0040655922
0.0040365537
0.12264807
0.12342866
0.12429708
0.12519596
0.12608652
0.12690352
0.12754262
0.12784227
0.1275565
0.1263164
0.12357686
0.11854823
0.11012713
0.096852607
0.077156027
0.050365433
0.023721071
0.012381934
0.0082671214
0.0070619046
0.0062297396
0.0056029582
0.0051857724
0.0047750594
0.0045384278
0.0044254568
0.0043818282
0.0042388474
0.0041800553
0.0040654324
0.004036454
0.12969451
0.12997846
0.13024594
0.13044019
0.13050888
0.13037184
0.12990701
0.12893104
0.12717232
0.12423289
0.11953534
0.11225787
0.10129891
0.085295409
0.063002052
0.035409699
0.017413699
0.010154462
0.0077441602
0.0068204911
0.0060720973
0.0055054077
0.0051344847
0.0047394874
0.0045146224
0.0044106835
0.0043714733
0.0042310548
0.0041772856
0.004065249
0.0040362693
0.13125138
0.13102645
0.13067863
0.13015825
0.12939234
0.12827881
0.12667309
0.12436658
0.12105992
0.11632512
0.10954675
0.09985802
0.086227386
0.067589903
0.043233341
0.021801308
0.012458617
0.0085466681
0.0073363903
0.0065637522
0.0059053569
0.0054026841
0.0050769315
0.0047041292
0.0044888801
0.0043941147
0.004355441
0.0042248111
0.0041746408
0.0040650224
0.0040359985
0.12311385
0.12239557
0.12145913
0.12025552
0.11869643
0.11665764
0.11396584
0.11038216
0.10558025
0.099109049
0.090290176
0.078120269
0.062003908
0.041975542
0.024782007
0.014053359
0.0094210692
0.0078515392
0.0069361186
0.0063014794
0.0057256133
0.0052999677
0.0050116461
0.0046606841
0.0044601865
0.0043745993
0.0043332336
0.0042152067
0.0041692862
0.0040649715
0.0040356508
0.099014041
0.097914196
0.096520029
0.094780203
0.092583847
0.089784065
0.086191003
0.081553832
0.075562929
0.067873677
0.058421682
0.047610822
0.035532841
0.023375032
0.014291293
0.0097232438
0.0080070158
0.0072465231
0.0065314633
0.0060155374
0.0055452877
0.0051922094
0.0049417687
0.0046107334
0.0044277762
0.0043530392
0.0043059661
0.0042060052
0.0041637768
0.0040652819
0.004035229
0.062874918
0.06187097
0.060650732
0.059180539
0.057352159
0.055034373
0.05212209
0.048471562
0.043945689
0.038446522
0.031980894
0.02520702
0.018751606
0.013016883
0.0093778583
0.0079993645
0.0073931798
0.0067344492
0.0061713458
0.0057864161
0.0053611374
0.00508716
0.0048650791
0.0045597822
0.0043921959
0.0043309158
0.0042929841
0.0041955213
0.0041565342
0.004066159
0.0040347219
0.032003376
0.031556702
0.030951369
0.030170284
0.029168291
0.027884605
0.026314669
0.024349229
0.021952112
0.019162799
0.016102988
0.013122213
0.010493099
0.008459999
0.007458433
0.0072951562
0.0066439073
0.0062120283
0.0057863285
0.0055154708
0.0051884881
0.0049708654
0.0047744697
0.0045082363
0.0043556248
0.0043023787
0.0042819747
0.0041836564
0.004147798
0.0040676983
0.0040341377
0.015215685
0.015117365
0.014912073
0.014593065
0.014162505
0.013618855
0.01297203
0.012181796
0.011236766
0.010160168
0.0090132602
0.0079875637
0.0072110159
0.0068353571
0.00680848
0.0063641223
0.0062156514
0.0059183598
0.0055326243
0.0053245409
0.0050220255
0.0048656699
0.0046859559
0.0044507945
0.0043150829
0.0042722332
0.0042540484
0.0041676971
0.0041355176
0.0040702723
0.0040334569
0.0082893171
0.0082727908
0.0082218497
0.0081328399
0.0080053957
0.0078255639
0.0076004461
0.0073529564
0.0070869135
0.006775338
0.0065456829
0.0063365518
0.0061209586
0.0061530601
0.0058759217
0.0056262977
0.0055755283
0.0054282144
0.005220457
0.0050429421
0.0048638826
0.0047215202
0.0045981594
0.004397081
0.0042736317
0.0042389617
0.0042286933
0.0041516908
0.0041232997
0.0040742785
0.004032545
0.0059169666
0.0059069834
0.0058997541
0.0058984092
0.005901258
0.0059002755
0.0058711029
0.005815589
0.0057795269
0.005723463
0.0056550582
0.0055886618
0.0056256372
0.0054947746
0.0054001509
0.0051745048
0.0051387818
0.0051042636
0.0049227801
0.0048379228
0.004646467
0.0046157422
0.0045036268
0.0043376911
0.0042309482
0.0042039654
0.0042102414
0.004139985
0.0041128499
0.0040781079
0.0040326921
0.0053393959
0.0053325685
0.00532917
0.0053212578
0.0053026401
0.00528828
0.0052831366
0.0052813093
0.0052639152
0.0052195401
0.005133543
0.0050679974
0.0050278077
0.004963793
0.0049375087
0.0048945312
0.0047645215
0.0047163799
0.0047290318
0.0046367227
0.0045063489
0.0044989292
0.0044163041
0.0042802268
0.0041882577
0.0041745103
0.0041860842
0.0041329904
0.0041073345
0.0040793038
0.0040351577
0.0048620717
0.0048504065
0.0048359188
0.0048229802
0.0048229525
0.0048194124
0.0048101326
0.0047980958
0.0047847311
0.004768859
0.0047576094
0.0047447104
0.004688818
0.0046400257
0.0046004539
0.0046103092
0.0045598806
0.0045022346
0.0044797569
0.0044296136
0.0044157032
0.0044142741
0.0043327592
0.0042081395
0.0041535282
0.0041518029
0.0041615016
0.0041258143
0.0041016293
0.0040759989
0.0040385029
0.0045575987
0.0045576747
0.0045610562
0.0045639841
0.0045620574
0.0045587175
0.0045560787
0.0045522536
0.0045426041
0.0045210236
0.0044824704
0.0044571114
0.0044409093
0.0044207568
0.0044159275
0.0043881489
0.0043479273
0.0043331223
0.0043329273
0.0042883796
0.0042970596
0.0042695756
0.0042838011
0.0041678985
0.0041184631
0.0041320521
0.0041363855
0.0041118035
0.0040911667
0.0040614988
0.0040371534
0.0043527987
0.0043490737
0.0043437185
0.004337299
0.0043333987
0.0043292378
0.0043241736
0.0043186604
0.004312874
0.0043069992
0.0043014563
0.0043003177
0.0043006847
0.0042933674
0.0042757833
0.0042715991
0.0042584246
0.0042459657
0.0042362228
0.0042065619
0.0042260277
0.0041983876
0.004232328
0.004134167
0.0040921155
0.0041120826
0.0041156898
0.0040929008
0.0040748904
0.0040561215
0.0040345268
0.0042093204
0.0042090482
0.0042086105
0.004208286
0.0042085886
0.0042093244
0.004210554
0.0042112778
0.0042104816
0.0042070578
0.0041995628
0.0041893856
0.0041828763
0.0041771155
0.0041724112
0.0041687878
0.004166656
0.0041651007
0.0041283999
0.0041245221
0.0041270947
0.004153424
0.0041821093
0.0041122369
0.0040701341
0.0040915304
0.0040940593
0.0040783119
0.0040636604
0.0040532676
0.0040329381
0.0041290573
0.0041288182
0.0041281166
0.0041270205
0.0041260343
0.0041249487
0.0041237609
0.0041226585
0.0041220875
0.0041224683
0.004123326
0.0041238371
0.0041245023
0.004124758
0.0041198593
0.0041237171
0.0041165257
0.0041101469
0.0040908119
0.004088711
0.0040833903
0.0041279869
0.0041533565
0.0040998452
0.0040588892
0.0040684108
0.004076407
0.0040631574
0.0040583507
0.0040468653
0.0040333934
0.0040789256
0.0040790139
0.0040789918
0.0040789072
0.004078964
0.0040792663
0.0040799982
0.0040817618
0.0040846286
0.0040873306
0.0040881423
0.0040866391
0.0040829536
0.0040796899
0.0040815557
0.0040794205
0.0040824857
0.0040795402
0.0040705705
0.0040697808
0.0040634143
0.0040940084
0.0041307089
0.0040840909
0.0040519263
0.0040551204
0.0040634985
0.0040527843
0.0040547708
0.0040449715
0.0040372622
0.0040562746
0.0040562142
0.0040560511
0.0040558039
0.0040555597
0.0040554448
0.0040555513
0.0040558802
0.0040564168
0.0040570587
0.0040575712
0.0040574444
0.0040568617
0.0040563267
0.0040568779
0.0040571126
0.0040581716
0.0040605611
0.0040566702
0.0040520295
0.0040541219
0.0040602694
0.0040959363
0.0040660336
0.0040463357
0.0040477273
0.0040536248
0.0040470614
0.0040493098
0.0040431967
0.0040364937
0.0040468932
0.0040468079
0.0040467585
0.0040467505
0.0040468034
0.0040469221
0.0040470808
0.0040473125
0.004047626
0.0040479008
0.0040479596
0.0040479126
0.0040480572
0.0040481193
0.0040484655
0.0040489349
0.0040498637
0.0040504705
0.0040490069
0.004047038
0.0040504185
0.0040509978
0.0040696155
0.0040572672
0.0040419605
0.0040448206
0.0040474715
0.0040452486
0.0040450975
0.0040393595
0.0040393406
0.0040425927
0.0040425486
0.0040424888
0.0040424254
0.0040423985
0.0040424201
0.0040425005
0.0040426643
0.0040429353
0.0040433163
0.0040437069
0.0040440879
0.004044461
0.0040448734
0.0040453304
0.0040459606
0.0040464299
0.0040452333
0.0040454784
0.0040451295
0.0040519103
0.0040501673
0.0040555657
0.0040527237
0.0040442888
0.0040425862
0.0040449745
0.0040416138
0.0040406618
0.0040408034
0.0040403421
0.0040434128
0.0040433796
0.0040433236
0.0040432416
0.0040431355
0.0040430154
0.0040428973
0.0040428004
0.0040427404
0.0040427191
0.0040427102
0.0040426709
0.0040425841
0.0040425125
0.0040424908
0.0040423995
0.0040418953
0.0040416035
0.0040415878
0.0040434631
0.0040472256
0.0040490115
0.0040435791
0.0040423652
0.0040440386
0.004041552
0.0040421842
0.0040406138
0.0040401309
0.0040401836
0.0040393989
0.0021377934
0.0019270277
0.0019901756
0.0024268936
0.0034835074
0.006022265
0.0098447565
0.014714327
0.020555277
0.027644416
0.035995751
0.045038141
0.05499394
0.065349134
0.07515463
0.082872679
0.086071356
0.081095461
0.064526806
0.039438486
0.018447898
0.0091077484
0.0063782405
0.0054077234
0.0049789442
0.0047140244
0.0045093103
0.0043094513
0.004231853
0.0040784606
0.0040332714
0.001887238
0.0018058339
0.0021145135
0.0027448486
0.00466104
0.0078209973
0.011892194
0.016801589
0.022674947
0.029885764
0.038128015
0.047129383
0.056992593
0.067155998
0.076641474
0.083869453
0.086369846
0.080479323
0.063022601
0.03768546
0.017378269
0.0087920601
0.0062848838
0.0053769553
0.0049648234
0.0047069188
0.0045045746
0.0043073088
0.0042302072
0.0040778913
0.0040331994
0.0017010729
0.0018308616
0.0022136469
0.0033757251
0.0058185806
0.0092492557
0.01349313
0.018551148
0.024598598
0.031954626
0.040125886
0.049133683
0.058918859
0.06889388
0.078056548
0.084789716
0.086589212
0.079788673
0.061479363
0.03598243
0.016433417
0.0085044478
0.0062298935
0.0053577647
0.0049548171
0.0047017265
0.0045009927
0.0043058223
0.0042286825
0.0040773448
0.0040331327
0.001621823
0.001899811
0.0025416907
0.0043633317
0.0071575575
0.010748415
0.015096884
0.02026668
0.026484592
0.033920486
0.042059674
0.051082058
0.060787633
0.070570717
0.079404928
0.085637545
0.086733506
0.079028114
0.059905467
0.034331138
0.015578439
0.0082563246
0.0061710003
0.0053354892
0.0049434197
0.0046957894
0.0044969483
0.0043040913
0.004227125
0.0040768162
0.0040330724
0.0016472914
0.0020204805
0.003302612
0.0055338168
0.0085365053
0.012243774
0.01669407
0.021981557
0.028389955
0.035802819
0.043959447
0.052988608
0.062606788
0.072191284
0.080690033
0.086415986
0.086805911
0.078201614
0.058308935
0.032731335
0.014793675
0.0080358438
0.0061198146
0.0053157921
0.0049329119
0.0046902288
0.0044931864
0.0043024704
0.0042257
0.0040763078
0.0040330194
0.0016917742
0.0025461629
0.0042954144
0.0067842547
0.0099279768
0.013741584
0.018295115
0.023714096
0.030260969
0.03763903
0.045836349
0.054859787
0.064380779
0.073758776
0.081914549
0.087127753
0.086809478
0.077313021
0.056696008
0.031183946
0.014068855
0.0078404719
0.0060720459
0.0052963823
0.0049223427
0.004684553
0.0044893894
0.0043007448
0.0042244423
0.0040758198
0.0040329731
0.0020108019
0.003372392
0.0054206538
0.0080748571
0.011330515
0.015245507
0.019900758
0.025461925
0.032096214
0.039457853
0.047694563
0.056698345
0.066112097
0.075275342
0.083080593
0.087775268
0.08674713
0.076366352
0.055072194
0.029690964
0.013399241
0.0076715123
0.0060283381
0.0052780646
0.0049120949
0.00467897
0.0044857224
0.0042990432
0.0042233598
0.0040753518
0.0040329324
0.0027107759
0.0043808733
0.0066085422
0.0093802185
0.012737877
0.016753
0.021514299
0.027236839
0.033874355
0.041266756
0.049533762
0.058505121
0.067802097
0.076742457
0.084189916
0.088360775
0.086621729
0.075364962
0.053442838
0.028254949
0.012781756
0.0075193638
0.0059877764
0.0052604214
0.0049019895
0.004673385
0.0044821381
0.0042973468
0.0042223295
0.0040749035
0.0040328978
0.0035651685
0.0054414142
0.0078091189
0.010690382
0.014148597
0.018262858
0.023141685
0.028983209
0.035617273
0.043065664
0.051352317
0.060280099
0.069451481
0.07816119
0.08524405
0.088886436
0.086436158
0.074312164
0.051812191
0.026878661
0.012214167
0.0073838217
0.0059502052
0.0052435405
0.0048920945
0.0046678449
0.0044786565
0.0042957033
0.0042211912
0.004074475
0.0040328697
0.0045459975
0.0065699236
0.0090379146
0.012009257
0.015561259
0.019772515
0.024785465
0.030697322
0.03735299
0.044853303
0.0531483
0.062022866
0.071060585
0.079532378
0.086244422
0.089354409
0.086193384
0.07321322
0.050184524
0.025564609
0.011694319
0.0072627612
0.0059152176
0.0052273138
0.0048823747
0.0046623366
0.0044752515
0.0042941105
0.0042198437
0.0040740693
0.0040328486
0.0055874385
0.007703455
0.01025759
0.013321896
0.016971065
0.021284441
0.026432897
0.032382515
0.039082001
0.046625846
0.054919773
0.063732844
0.072629548
0.080856744
0.087192429
0.089766895
0.085896474
0.072073259
0.04856455
0.02432118
0.011219965
0.0071546767
0.0058825701
0.0052117292
0.0048728469
0.0046568773
0.0044719162
0.0042925769
0.0042184966
0.004073689
0.0040328346
0.0066292078
0.0088297134
0.011474021
0.014633258
0.018378777
0.022802016
0.028062622
0.03403393
0.040799287
0.048380124
0.056665095
0.065409421
0.074158428
0.082134975
0.088089496
0.090126188
0.085548928
0.070897136
0.046956282
0.023149659
0.010788382
0.0070580695
0.0058520162
0.0051967491
0.0048635108
0.004651469
0.0044686367
0.0042910988
0.0042174222
0.0040733325
0.004032828
0.0076693259
0.0099537585
0.012688227
0.015941237
0.019780874
0.024327912
0.02964926
0.03567456
0.042503684
0.050113768
0.058382859
0.067051999
0.07564727
0.083367782
0.088937115
0.090434697
0.085154804
0.06969037
0.045365203
0.022042813
0.010396868
0.0069716152
0.0058233626
0.005182362
0.0048543811
0.0046461167
0.0044654086
0.0042896729
0.0042165039
0.0040729956
0.0040328289
0.0087008672
0.011071294
0.013896632
0.017243079
0.021179585
0.025846585
0.031210093
0.037306838
0.044192037
0.051824619
0.060071833
0.068660035
0.077096159
0.084555939
0.089736872
0.090694931
0.084717071
0.068458267
0.043798448
0.020998949
0.0100429
0.0068942127
0.0057964415
0.0051685598
0.0048454723
0.0046408177
0.0044622314
0.0042882929
0.0042156234
0.0040726783
0.0040328373
0.0097243134
0.012181522
0.015097324
0.018536481
0.022576558
0.027344462
0.032757611
0.038926383
0.045861359
0.053510891
0.061730954
0.070233069
0.078505248
0.085700312
0.090490471
0.090909555
0.084239565
0.067206061
0.042262193
0.020018347
0.0097240173
0.006824889
0.0057711094
0.0051553444
0.0048368054
0.0046355669
0.004459113
0.0042869592
0.0042147902
0.0040723797
0.0040328534
0.010737656
0.013281669
0.016287521
0.019817948
0.023974838
0.028807594
0.034294163
0.040529689
0.047509379
0.055171108
0.063359305
0.071770731
0.079874784
0.086801872
0.091199738
0.091081355
0.083727262
0.065939217
0.040762137
0.019101418
0.009437741
0.0067624693
0.0057472454
0.0051427218
0.0048284026
0.0046303563
0.0044560657
0.0042856754
0.0042139969
0.0040720963
0.0040328775
0.01173817
0.014369095
0.017465264
0.021090331
0.02535615
0.030247487
0.03581393
0.042113888
0.049134296
0.056804009
0.064956096
0.073272753
0.081205115
0.08786171
0.09186663
0.091213233
0.083184258
0.064663383
0.03930335
0.018248201
0.0091815932
0.0067059741
0.0057247562
0.0051306995
0.0048202865
0.00462518
0.0044531034
0.004284445
0.0042132402
0.0040718284
0.0040329096
0.012723006
0.015441414
0.018628201
0.022354104
0.02671224
0.031669493
0.03731594
0.043677206
0.050734628
0.058408493
0.066520651
0.07473897
0.082496701
0.088881036
0.09249323
0.091308578
0.082614741
0.063384311
0.037890269
0.017458232
0.0089531258
0.0066547183
0.005703559
0.0051192827
0.0048124754
0.0046200381
0.0044502348
0.0042832657
0.0042125133
0.0040715771
0.0040329499
0.013689868
0.016496852
0.019774493
0.023608537
0.028037706
0.033076719
0.038798859
0.045218047
0.052309057
0.059983581
0.068052397
0.076169321
0.083750109
0.08986118
0.093081707
0.091370408
0.082023106
0.062107572
0.036526701
0.016730494
0.0087499496
0.0066080591
0.0056835808
0.0051084709
0.0048049808
0.00461494
0.0044474579
0.004282126
0.0042118087
0.0040713422
0.0040329985
0.014637609
0.017534467
0.020905733
0.024841756
0.029342091
0.034465747
0.040260825
0.046734936
0.053856388
0.061528395
0.069550858
0.07756384
0.084966016
0.090803593
0.093634364
0.091401493
0.08141255
0.060838656
0.035215886
0.016063418
0.008569766
0.0065654515
0.0056647555
0.0050982553
0.0047978027
0.0046099056
0.0044447574
0.0042810075
0.0042111173
0.0040711236
0.0040330548
0.015565304
0.018552894
0.022022591
0.026048853
0.030627893
0.035834877
0.041700333
0.048226542
0.055375525
0.063042143
0.071015642
0.07892266
0.0861452
0.091709842
0.094153626
0.09140536
0.08078615
0.059582552
0.033960532
0.015454967
0.0084103974
0.0065264251
0.0056470221
0.0050886171
0.0047909285
0.0046049632
0.0044421072
0.0042798762
0.0042104302
0.0040709209
0.0040331185
0.016472988
0.019551678
0.023123582
0.027229176
0.031895124
0.037182626
0.043116017
0.049691624
0.056865448
0.064524106
0.072446435
0.080245994
0.087288536
0.092581607
0.094642695
0.09138565
0.08014806
0.058343853
0.032762763
0.014902747
0.0082698217
0.0064905791
0.0056303241
0.0050795274
0.0047843324
0.004600143
0.0044394755
0.0042786845
0.0042097419
0.0040707336
0.0040331892
0.017361113
0.020531818
0.024202505
0.028388156
0.033141463
0.038507469
0.044506615
0.051129003
0.0583252
0.065973627
0.073842988
0.081534138
0.088396978
0.093420575
0.095104054
0.091346184
0.07950203
0.057127029
0.031624215
0.014404118
0.0081462206
0.0064575737
0.0056146093
0.0050709473
0.0047779782
0.0045954684
0.0044368388
0.004277397
0.0042090524
0.0040705633
0.0040332664
0.018230246
0.021494066
0.02525756
0.029526708
0.034365754
0.039808126
0.045870982
0.052537535
0.059753872
0.067390096
0.075205108
0.082787454
0.089471553
0.094228953
0.095539718
0.091290682
0.078853271
0.05593486
0.03054634
0.013956287
0.00803808
0.0064271223
0.0055998304
0.0050628306
0.0047718239
0.0045909474
0.0044341965
0.0042760115
0.0042083601
0.0040704072
0.0040333499
0.019080948
0.022440367
0.026287265
0.030644664
0.035566955
0.041083369
0.047207164
0.053916089
0.061150594
0.068772942
0.076532646
0.084006363
0.090513356
0.095008547
0.095952832
0.091222917
0.078206854
0.05477076
0.02953057
0.013557313
0.0079444475
0.0063989837
0.0055859464
0.0050551266
0.0047658287
0.0045865695
0.0044315757
0.0042745623
0.0042076524
0.0040702638
0.0040334395
0.019914583
0.023366585
0.027296141
0.031740613
0.036744068
0.042332026
0.048512
0.05526364
0.062514532
0.070121623
0.077825479
0.085191295
0.091524152
0.095760942
0.096346389
0.091146711
0.077567498
0.053638185
0.028578167
0.013203085
0.0078655832
0.0063729547
0.005572923
0.0050477849
0.0047599618
0.0045823093
0.0044290131
0.004273113
0.0042069439
0.0040701323
0.0040335351
0.020732102
0.024272946
0.028284711
0.032813931
0.037896179
0.043553355
0.049787095
0.056579502
0.063844878
0.071435615
0.07908347
0.086343127
0.092504835
0.096488423
0.096723359
0.091065912
0.076939586
0.052540047
0.027689971
0.012889628
0.0077968334
0.0063488612
0.0055607326
0.0050407605
0.0047542068
0.0045781374
0.0044265317
0.0042717369
0.00420631
0.0040700115
0.0040336366
0.021534608
0.025159486
0.029253126
0.03386398
0.039022304
0.044746547
0.051035045
0.05786292
0.065140809
0.072714381
0.080306747
0.087462108
0.093455952
0.097193058
0.097086724
0.090984366
0.076327272
0.051478957
0.026866333
0.012614442
0.0077370899
0.0063265819
0.0055493533
0.0050340188
0.0047485471
0.004574032
0.0044241259
0.0042704679
0.0042057656
0.0040698951
0.0040337432
0.022323612
0.026026602
0.030200791
0.03488999
0.040121422
0.045910091
0.052250949
0.059110758
0.066401377
0.073957665
0.081495963
0.088548288
0.094378981
0.097876859
0.097439461
0.0909059
0.075734541
0.050457319
0.026107182
0.012376051
0.0076855375
0.0063060096
0.0055387674
0.0050275381
0.0047429428
0.0045699919
0.0044217756
0.0042692752
0.0042051654
0.0040697716
0.004033854
0.023099033
0.026875646
0.031127044
0.035891183
0.041192531
0.047042764
0.053432987
0.060321347
0.067625943
0.075165681
0.08265037
0.089602495
0.095275171
0.098541853
0.097784528
0.090834314
0.075165247
0.049477352
0.025412124
0.012172351
0.0076413943
0.0062870582
0.0055289871
0.005021283
0.0047373407
0.0045660556
0.0044194602
0.0042681079
0.004204442
0.0040696505
0.0040339685
0.023860783
0.027707293
0.03203167
0.036866851
0.042234588
0.04814338
0.054581035
0.061501692
0.068814112
0.076337044
0.083769073
0.090625168
0.096145703
0.099190038
0.098124842
0.09077337
0.07462314
0.048541097
0.024780492
0.012000918
0.0076023051
0.006269558
0.0055200251
0.0050152327
0.0047317418
0.0045622725
0.0044171806
0.0042669268
0.0042036686
0.0040695299
0.0040340866
0.024609454
0.028521663
0.03291438
0.037816525
0.043247055
0.049211376
0.055694138
0.062645626
0.069962452
0.077470297
0.084852286
0.091616618
0.096991698
0.09982335
0.098463256
0.090726752
0.074111882
0.04765042
0.024219403
0.011846428
0.007562816
0.0062534454
0.0055118451
0.0050094324
0.0047261751
0.0045586213
0.0044149547
0.0042657032
0.0042028714
0.0040694128
0.0040342073
0.025348399
0.029321416
0.033777013
0.038741239
0.044230511
0.050246908
0.05677171
0.063750357
0.071075536
0.078562271
0.085899677
0.092577163
0.097814192
0.10044364
0.098802531
0.090698298
0.07363527
0.046814792
0.023715841
0.011698623
0.0075247852
0.006238686
0.0055044283
0.0050039093
0.0047207014
0.0045549852
0.0044128075
0.004264427
0.0042020883
0.0040692987
0.0040343302
0.026076988
0.030106513
0.034619828
0.03964073
0.045183495
0.051248234
0.057810694
0.064813732
0.072147413
0.079618351
0.086911159
0.093507076
0.098614129
0.10105265
0.099145284
0.090691659
0.073197772
0.046040619
0.023261705
0.011557228
0.0074880299
0.0062252414
0.0054977455
0.0049987036
0.0047153866
0.0045512666
0.004410748
0.0042631304
0.0042013499
0.0040691888
0.0040344547
0.026787134
0.030870444
0.035437721
0.040511101
0.046102745
0.052210815
0.058808291
0.065835353
0.073177285
0.080635271
0.087883775
0.094406449
0.099392343
0.101652
0.099493997
0.090710002
0.072804122
0.045332253
0.022852505
0.01142151
0.0074528776
0.0062130742
0.0054917691
0.004993846
0.0047102437
0.0045475797
0.004408779
0.0042618429
0.0042007023
0.004069083
0.0040345792
0.027466699
0.031600571
0.03621896
0.041342771
0.046981922
0.053131302
0.059763428
0.066813736
0.074164204
0.081611266
0.088823041
0.095271738
0.10014942
0.10224316
0.099851027
0.090756512
0.072458945
0.044692697
0.022483858
0.011290806
0.007419486
0.0062021498
0.0054864693
0.0049893592
0.0047052837
0.0045440106
0.0044069141
0.0042605751
0.0042001941
0.0040689814
0.0040347033
0.028126885
0.032303076
0.036965958
0.042135461
0.047819167
0.05400908
0.060674288
0.06774747
0.075107104
0.08254542
0.089724933
0.096111317
0.1008815
0.10282729
0.10021855
0.090834314
0.072166779
0.044124084
0.022151852
0.011164467
0.0073880477
0.0061924356
0.0054818182
0.0049852541
0.004700536
0.0045405286
0.0044051763
0.0042593392
0.0041998258
0.004068883
0.0040348264
0.028780034
0.032988549
0.037687061
0.042894717
0.048617018
0.054843445
0.061539666
0.0686352
0.076004809
0.083436815
0.090588728
0.09692023
0.10159928
0.10340181
0.1005984
0.090946261
0.07193203
0.043628064
0.021853035
0.011041846
0.0073587545
0.0061839023
0.0054777933
0.004981552
0.0046960338
0.004537148
0.0044035926
0.0042581289
0.0041994906
0.0040687876
0.0040349483
0.029426028
0.033658612
0.038384298
0.043622223
0.049376363
0.055634214
0.062358549
0.069475605
0.076856066
0.084284416
0.091413745
0.09769808
0.10229716
0.10397637
0.1009916
0.091094938
0.071758906
0.043206118
0.021584295
0.010922281
0.0073318266
0.0061765235
0.00547438
0.0049782688
0.0046918227
0.0045338812
0.004402178
0.0042569484
0.0041990938
0.004068697
0.0040350671
0.030062643
0.034312136
0.039057368
0.044318008
0.050097148
0.056380922
0.063129904
0.070267341
0.077659555
0.085087074
0.09219918
0.098444503
0.10297518
0.10454668
0.10140167
0.09128271
0.071651355
0.042859831
0.021342729
0.010805069
0.0073075268
0.006170277
0.0054715736
0.0049754088
0.0046879491
0.0045307712
0.0044009431
0.0042558371
0.0041987076
0.0040686126
0.0040351773
0.030687871
0.034947504
0.039705114
0.044981253
0.050778674
0.057082737
0.063852591
0.071009007
0.078413875
0.085843536
0.092944095
0.099158973
0.10363331
0.1051133
0.10182873
0.091509531
0.071612952
0.042591123
0.021125493
0.010689437
0.0072861808
0.0061651442
0.0054693795
0.0049729656
0.0046844366
0.0045278658
0.0043999197
0.0042548333
0.00419839
0.0040685342
0.0040352862
0.031300429
0.03556338
0.040326256
0.045610819
0.051419903
0.05773857
0.06452539
0.071699121
0.07911752
0.086552453
0.093647417
0.099840797
0.10427134
0.10567652
0.10227374
0.091781743
0.071647007
0.042402478
0.020929645
0.010574514
0.0072682
0.0061611097
0.0054678083
0.0049709238
0.0046812765
0.0045251966
0.0043991588
0.004253931
0.0041981148
0.0040684627
0.0040353946
0.031899591
0.036158819
0.040919636
0.046205499
0.052019662
0.058347178
0.065147068
0.072336086
0.079768753
0.087214783
0.094312111
0.10049399
0.10489362
0.1062407
0.10274092
0.092100734
0.071756401
0.042297167
0.020751953
0.010459292
0.0072541138
0.0061581554
0.0054668694
0.0049692658
0.0046784359
0.0045227708
0.004398664
0.0042531363
0.0041978798
0.0040683984
0.0040355014
0.032485059
0.036733174
0.041484223
0.04676409
0.052576741
0.058907237
0.065716121
0.072924082
0.080376799
0.087831259
0.094930196
0.10110713
0.10548925
0.10679657
0.10322289
0.092461586
0.071943174
0.042279516
0.020588649
0.010342576
0.0072444532
0.0061562936
0.0054665649
0.0049679807
0.0046758794
0.0045205734
0.0043984149
0.0042524928
0.0041976897
0.0040683391
0.0040356052
0.03305709
0.037286081
0.042019096
0.04728542
0.053089893
0.059418444
0.066239731
0.073461136
0.080920375
0.088388184
0.095500768
0.10168474
0.106063
0.10734867
0.103724
0.092868085
0.072208773
0.042356559
0.0204351
0.010223572
0.0072392011
0.0061555555
0.0054668636
0.0049670737
0.0046735948
0.0045185789
0.0043984066
0.0042519918
0.0041975355
0.0040682834
0.0040357063
0.033617045
0.037817663
0.042523472
0.047768441
0.053557392
0.059884085