/*--------------------------------*- C++ -*----------------------------------*\
| =========                 |                                                 |
| \\      /  F ield         | OpenFOAM: The Open Source CFD Toolbox           |
|  \\    /   O peration     | Version:  2406                                  |
|   \\  /    A nd           | Website:  www.openfoam.com                      |
|    \\/     M anipulation  |                                                 |
\*---------------------------------------------------------------------------*/
FoamFile
{
    version     2.0;
    format      ascii;
    arch        "LSB;label=32;scalar=64";
    class       volScalarField;
    location    "0.019";
    object      k;
}
// * * * * * * * * * * * * * * * * * * * * * * * * * * * * * * * * * * * * * //

dimensions      [0 2 -2 0 0 0 0];

internalField   nonuniform List<scalar> 
8260
(
659.51406
637.99656
608.52641
572.33218
530.29373
483.2424
432.35968
379.12949
325.19928
272.06401
221.05657
173.30772
129.6696
90.797245
57.12425
29.456955
10.780271
3.3585606
1.6382071
1.1347938
0.86103248
0.70059298
0.60746439
0.54620019
0.50430056
0.47066691
0.44595624
0.42984768
0.4188996
0.41193098
0.40814083
643.7309
619.51607
588.71774
552.36959
511.0319
465.33734
416.24864
365.02884
313.15299
262.01849
212.81236
166.62633
124.30945
86.551534
53.79868
27.09545
9.4474539
3.0271798
1.5548024
1.1049394
0.847253
0.69381692
0.60371164
0.54386885
0.50282171
0.46972318
0.44538732
0.42951058
0.41869492
0.41179868
0.40805652
620.48704
595.15695
564.29464
528.61259
488.55643
444.66937
397.76232
348.91966
299.42731
250.55303
203.40561
159.01447
118.21865
81.743447
50.068797
24.462481
8.1907375
2.745045
1.5021747
1.0889684
0.83996085
0.69027324
0.60175881
0.54264239
0.5020257
0.46920863
0.44506984
0.42930007
0.4185427
0.41168153
0.40796574
588.85952
563.60967
533.76017
499.71215
461.76538
420.3725
376.22421
330.25485
283.58189
237.34403
192.5849
150.27682
111.24786
76.260577
45.856855
21.547022
6.9531651
2.4854754
1.4456609
1.0633696
0.82755219
0.68402952
0.59823421
0.54038053
0.50054099
0.46824203
0.44447234
0.42893136
0.4183086
0.4115223
0.40785932
549.26539
525.20393
497.17368
465.51854
430.39611
392.14577
351.33362
308.74931
265.3552
222.16779
180.16081
140.25549
103.27038
70.004997
41.096053
18.354146
5.7573982
2.2432321
1.3886797
1.0400839
0.81667044
0.67865007
0.59521793
0.53845188
0.49927608
0.46741917
0.44396877
0.42861078
0.41808892
0.41136005
0.40773816
502.23639
480.2333
454.73818
426.11186
394.41186
359.8688
322.92065
284.21103
244.55111
204.83557
165.96198
128.80067
94.163704
62.883862
35.733416
14.940585
4.7133693
2.0225218
1.3296942
1.0116061
0.80271799
0.67148162
0.59109184
0.53577192
0.49749663
0.46626055
0.44325271
0.42816705
0.41780169
0.41115893
0.40759959
448.60195
429.31224
406.93222
381.83856
354.02603
323.63476
290.98201
256.56842
221.05575
185.21203
149.84856
115.78011
83.817816
54.817454
29.746532
11.446574
3.7861852
1.8263935
1.2695619
0.98275883
0.7889793
0.66448567
0.58703546
0.53313477
0.49573299
0.46512218
0.44255349
0.42772824
0.41750704
0.41094264
0.40744159
389.79735
373.59094
354.67668
333.42153
309.77948
283.81794
255.74717
225.93342
194.89233
163.25946
131.74691
101.10562
72.157663
45.761543
23.188598
8.1247125
3.0023953
1.6669848
1.2077068
0.94999551
0.77287742
0.65602675
0.58198134
0.52980779
0.49347459
0.46368098
0.44165682
0.42717208
0.4171457
0.4106844
0.40726174
327.71061
314.66998
299.30518
281.95692
262.55224
241.10026
217.71892
192.65152
166.2741
139.08775
111.69439
84.771642
59.178078
35.753624
16.302108
5.5771614
2.3990711
1.528887
1.1440353
0.91608739
0.75642798
0.64747866
0.57674297
0.52634732
0.49107342
0.46218138
0.44072682
0.42659025
0.41676028
0.41039994
0.40705744
264.39612
254.37562
242.42115
228.83512
213.52938
196.46859
177.69192
157.33454
135.64694
113.0036
89.89366
66.912309
44.996256
25.025206
9.7607878
3.7456407
1.9660328
1.4053223
1.0792036
0.87941262
0.73774682
0.63757584
0.57050584
0.52218391
0.48811115
0.46036812
0.43958953
0.42588016
0.4162992
0.4100649
0.40682534
202.04939
194.72116
185.89292
175.75788
164.22392
151.23159
136.76488
120.87658
103.71756
85.556971
66.782304
47.892861
30.006292
14.234709
5.4932188
2.5991556
1.7031147
1.2885697
1.0140529
0.84263374
0.71827988
0.62735393
0.56395614
0.51779123
0.48486121
0.4584202
0.43837792
0.4251125
0.41579305
0.40968925
0.40656089
142.73063
137.63225
131.47227
124.34161
116.13614
106.76762
96.179675
84.373279
71.440137
57.588221
43.143665
28.456067
15.212469
6.8260033
3.1845057
1.9742095
1.518186
1.1723156
0.95319418
0.80409589
0.69655496
0.61567173
0.55635755
0.51263094
0.48098285
0.45609453
0.43693494
0.42418967
0.41518929
0.40924799
0.4062166
88.47556
85.251063
81.283783
76.601941
71.121525
64.761565
57.458911
49.216324
40.135948
30.457378
20.743229
12.602937
6.6497615
3.4004488
2.1256729
1.6708971
1.3255933
1.0740046
0.88960507
0.76765668
0.67565124
0.6024831
0.54823516
0.50708332
0.47678064
0.45352579
0.43537027
0.42317868
0.41451207
0.40874927
0.40578768
42.07245
40.162577
37.886462
35.303833
32.353177
28.972061
25.150764
20.982565
16.59759
12.189241
8.1598288
5.0407086
3.0947597
2.1019912
1.6598807
1.3943968
1.1928032
0.97000953
0.83696212
0.73077809
0.65260715
0.58904566
0.53818242
0.50041067
0.47202043
0.45050502
0.43351206
0.42199608
0.4137102
0.40817077
0.40529349
15.149789
14.431241
13.592847
12.64636
11.531227
10.239692
8.8733039
7.4486594
5.9944092
4.5855004
3.3455301
2.4237778
1.8787686
1.5876053
1.3885563
1.2118353
1.0348693
0.89503401
0.78427599
0.69842926
0.63140075
0.57284305
0.52783787
0.4933381
0.4667029
0.44729483
0.43145699
0.42072388
0.41281408
0.40752726
0.40475156
5.1210338
4.9477198
4.7126936
4.4362821
4.1116513
3.7399876
3.3391774
2.9262994
2.4965157
2.104613
1.7674828
1.5462135
1.4125818
1.3183533
1.118159
1.0022517
0.93987726
0.81780114
0.74233159
0.66719634
0.60719673
0.55769814
0.51525312
0.48483219
0.46091372
0.44365766
0.42913698
0.41925176
0.41177993
0.40680438
0.40418426
2.0460787
2.0139474
1.9589922
1.8859785
1.8007185
1.7048469
1.6016515
1.4966489
1.3868916
1.3036547
1.2345506
1.1815846
1.1519859
1.0455467
0.96769161
0.88920724
0.81186198
0.76491249
0.69774269
0.63877125
0.5864585
0.53809277
0.50353404
0.47623482
0.454392
0.43993164
0.42673855
0.41767189
0.4106768
0.40601143
0.40352935
1.1470268
1.1372604
1.1225116
1.1038738
1.0827669
1.0655763
1.0495787
1.0262639
1.0056139
0.98209444
0.98588684
0.97515028
0.89898872
0.88471295
0.84195929
0.76765166
0.72421257
0.6920206
0.65058128
0.60295073
0.56082639
0.52085037
0.48910567
0.46629501
0.44831873
0.43553098
0.42416639
0.41587989
0.40946685
0.40513939
0.40283339
0.85633322
0.85094488
0.84658165
0.84184194
0.83580396
0.8256467
0.81458897
0.80323704
0.79559392
0.79459894
0.77973804
0.74243103
0.73819558
0.70746269
0.71544171
0.7034352
0.63823632
0.61375756
0.59872369
0.56381236
0.53053493
0.50124051
0.47488722
0.45738632
0.44175549
0.43114101
0.42137255
0.41405678
0.40824804
0.40419324
0.40206068
0.68849335
0.68737932
0.68584196
0.68431533
0.68473271
0.6876653
0.68886762
0.68683715
0.67709312
0.65405013
0.63713123
0.62542148
0.61741344
0.60709939
0.58527593
0.59236242
0.5875038
0.54946875
0.53187366
0.51628848
0.50414484
0.4799646
0.45944574
0.44689815
0.43550343
0.42655814
0.41817065
0.41209794
0.40689655
0.4032027
0.40126108
0.5964298
0.59666549
0.59578631
0.59296353
0.58784117
0.57996466
0.57400926
0.56993852
0.56656994
0.56289
0.56201871
0.5568361
0.5371709
0.52792439
0.52284095
0.51540988
0.50880476
0.50960882
0.4985172
0.48870695
0.47167374
0.46054869
0.44666794
0.43735497
0.42892235
0.42192138
0.41514602
0.4100921
0.40551082
0.40217859
0.40043305
0.51561922
0.51586783
0.5155937
0.51475256
0.51379126
0.51412088
0.51600103
0.51658581
0.51522346
0.51143898
0.50456362
0.49897236
0.49899201
0.48741144
0.48881609
0.48170694
0.47397226
0.47062485
0.46841497
0.46016746
0.45433617
0.44885365
0.43767406
0.42749236
0.42189067
0.41780639
0.41199663
0.4079865
0.40403172
0.40115406
0.3995828
0.47578577
0.47635846
0.4762734
0.47558908
0.47424669
0.4720118
0.46881292
0.4663592
0.46514587
0.46423432
0.46318005
0.46274589
0.46266393
0.46484119
0.45956546
0.46057563
0.45701359
0.4503863
0.44473946
0.44304063
0.44255462
0.43723627
0.43160647
0.42225851
0.41616412
0.4136076
0.40998712
0.40575029
0.40272158
0.40013232
0.39873821
0.44137722
0.44164533
0.44155718
0.44120791
0.44077245
0.44034977
0.44004411
0.44053063
0.44103581
0.4409331
0.44080427
0.44022752
0.43935625
0.43831005
0.43909203
0.43727105
0.43902731
0.43758704
0.43306078
0.42676301
0.42573545
0.42858175
0.42591776
0.41889753
0.41292429
0.41057375
0.40759639
0.40391127
0.40145345
0.3991493
0.39791485
0.42498471
0.42532285
0.42532162
0.42510615
0.42476754
0.42435715
0.42384714
0.42318802
0.42262496
0.4229127
0.42353339
0.42436822
0.42519699
0.42559293
0.42487449
0.42526002
0.42309472
0.42120578
0.42167605
0.41995346
0.41795285
0.4164723
0.41810506
0.41620296
0.41113021
0.40736281
0.4059478
0.40250968
0.4000875
0.39821597
0.3971464
0.40974435
0.40993631
0.40998784
0.40999634
0.41006326
0.41023594
0.41053882
0.41105263
0.41223876
0.4134922
0.41486524
0.41619643
0.4172272
0.41762247
0.41697606
0.41451682
0.41416233
0.41405959
0.41343591
0.41516608
0.41409575
0.41127551
0.41025341
0.41006497
0.40942113
0.40549496
0.40311964
0.40092567
0.3989566
0.39738669
0.39648756
0.40283469
0.40301226
0.40313867
0.40326976
0.40345214
0.40368325
0.40393713
0.40416701
0.40434409
0.40466134
0.40499621
0.40527865
0.40549349
0.40569839
0.40600897
0.40669799
0.40690325
0.40747429
0.40833792
0.40693681
0.40838557
0.40745162
0.4052294
0.40417678
0.40478855
0.40275612
0.40100505
0.39969603
0.39785557
0.39672095
0.39605545
0.39896954
0.39907755
0.39915174
0.3992244
0.39932454
0.39946608
0.39965042
0.39987926
0.40015406
0.40046745
0.40078801
0.40108879
0.40131176
0.40146485
0.40155058
0.40163791
0.40182827
0.40202856
0.40207309
0.40203088
0.40185857
0.40180035
0.40122106
0.40111788
0.40063201
0.40036875
0.39932857
0.39831857
0.3972512
0.39635519
0.3958387
0.39746256
0.39751578
0.39755175
0.39759263
0.39765674
0.39775394
0.39787965
0.39803674
0.3982301
0.39846109
0.39871432
0.39898551
0.39919751
0.39929813
0.39935386
0.39938333
0.39947005
0.39962384
0.39962802
0.39964531
0.3996007
0.39945839
0.39935199
0.39934912
0.39907161
0.39896691
0.39841999
0.39768915
0.39691521
0.3962027
0.39573109
0.39674313
0.39678161
0.39681708
0.39686064
0.39691696
0.39698145
0.39706243
0.39716575
0.39729642
0.39746355
0.39767584
0.39793044
0.39815373
0.3982194
0.39819221
0.39821667
0.39827414
0.39835628
0.39844623
0.39850307
0.39858587
0.39857364
0.39857611
0.39848673
0.3984527
0.39827195
0.39795585
0.3974496
0.39682212
0.39633991
0.39617972
0.39665597
0.39665958
0.39666885
0.39668597
0.39671396
0.39675512
0.39681213
0.39688859
0.39698738
0.39711941
0.39727718
0.39744027
0.39759672
0.39762499
0.39763287
0.39769492
0.39779473
0.39790225
0.39798886
0.39810341
0.39817234
0.39822214
0.39820653
0.39813499
0.39817253
0.39803991
0.39782421
0.39751129
0.39730175
0.3971087
0.39697501
77.927343
142.79639
225.90709
304.97967
365.86768
403.68643
418.2667
413.28878
393.74275
357.59827
313.73481
265.73944
216.72616
169.26243
125.23918
85.913174
52.111392
25.534711
9.4438762
3.0399133
1.3414806
0.88799733
0.69894345
0.59919232
0.53441993
0.48894673
0.45840938
0.43810393
0.42439234
0.41575481
0.41115934
168.73157
257.12911
328.82032
380.45986
413.62345
428.53994
427.1413
413.99573
384.45741
345.07282
300.18498
252.60299
204.8696
159.09767
116.87703
79.283783
47.075534
22.220869
7.8070635
2.596722
1.2287327
0.85402816
0.6848538
0.59240251
0.53075814
0.48687016
0.45722643
0.43744572
0.42402906
0.41556493
0.41107423
251.20014
318.30754
372.48161
411.546
433.47182
438.83811
430.37553
408.28416
374.26559
333.10402
287.76807
240.73332
194.19179
149.93826
109.32914
73.297594
42.578095
19.41094
6.6299184
2.2489243
1.1576477
0.83876772
0.67824191
0.58917532
0.52900892
0.48585933
0.45662233
0.43705909
0.42377953
0.41540915
0.41096419
321.83659
375.77459
415.72489
440.20845
449.1846
445.07805
429.82724
401.09247
364.18803
321.79014
276.29419
229.89141
184.48528
141.62135
102.47108
67.859309
38.527207
16.986027
5.6662501
2.0220802
1.1073104
0.81830107
0.6681765
0.58404855
0.52617786
0.48421699
0.45564273
0.43649318
0.42345519
0.41522857
0.41084127
374.85751
416.06186
443.82565
457.65817
458.50865
448.16399
425.34913
393.14384
354.30579
311.092
265.65532
219.94416
175.62307
134.03921
96.217109
62.898131
34.863452
14.856412
4.8630191
1.8091296
1.0622858
0.80424737
0.66166852
0.5807375
0.52436011
0.48315106
0.45498943
0.4360828
0.42319628
0.41506669
0.41072451
416.45251
447.54568
465.41059
470.33285
464.88009
447.74311
420.13515
385.17911
344.82919
301.0764
255.8375
210.83573
167.53609
127.12524
90.508679
58.355935
31.549795
12.975001
4.1970156
1.6644011
1.0281425
0.78918246
0.65386455
0.57660529
0.52205666
0.48178941
0.45415163
0.43558136
0.42289893
0.41489117
0.41061232
449.0926
471.46069
481.10128
479.56798
467.7403
445.18421
414.41918
377.37651
335.89648
291.81311
246.8488
202.53759
160.1806
120.8331
85.301794
54.204303
28.554742
11.332266
3.6544208
1.5355643
0.99820794
0.77711689
0.64798987
0.57347386
0.52032931
0.4807587
0.45349956
0.4351706
0.42264046
0.41472618
0.41049861
474.80294
489.86183
492.86413
486.4348
468.66991
442.20611
408.7577
370.00416
327.64943
283.36325
238.6981
195.02969
153.52408
115.12706
80.561695
50.41342
25.846872
9.9120436
3.2182897
1.4434061
0.97392294
0.76531633
0.64180259
0.57004567
0.51842009
0.47960872
0.45276551
0.43471807
0.42236428
0.4145541
0.41038227
495.48325
504.36152
502.34113
490.60661
468.5855
439.02095
403.37931
363.23835
320.18985
275.76898
231.38882
188.29427
147.53991
109.97923
76.27085
46.962004
23.418017
8.699436
2.878561
1.370335
0.95262874
0.75522547
0.6367708
0.56720727
0.5168603
0.47866077
0.45214265
0.43432123
0.42211237
0.41438823
0.41026322
512.74036
516.3802
510.17007
493.42008
468.12884
436.01415
398.53462
357.22683
313.59281
269.05748
224.91922
182.31439
142.20526
105.36681
72.417148
43.849913
21.247198
7.6759917
2.6045598
1.3157507
0.93458658
0.74577125
0.63185319
0.56432226
0.51526718
0.47768369
0.4514918
0.43390956
0.42185412
0.41421905
0.41014167
527.6977
526.94406
516.47414
495.84476
467.81116
433.48174
394.40604
352.07438
307.9094
263.24438
219.28378
177.07382
137.49972
101.27035
68.977171
41.058257
19.315741
6.8224847
2.3925588
1.2713568
0.91871205
0.73748833
0.62771182
0.56182199
0.51390348
0.47684104
0.45091327
0.43353498
0.42161215
0.41405378
0.41001811
540.74828
536.44033
521.90311
498.33973
467.90715
431.60702
391.1219
347.85411
303.17385
258.33764
214.47485
172.5571
133.4043
97.681303
65.929623
38.570209
17.615066
6.1197634
2.2243206
1.2370392
0.90514566
0.7299334
0.62385457
0.55939717
0.51257512
0.4760145
0.45033538
0.43316018
0.42136997
0.41388739
0.40989259
552.79173
545.15879
527.2804
501.16793
468.46578
430.52561
388.77234
344.61856
299.41032
254.34107
210.4838
168.74912
129.90654
94.572289
63.251085
36.373617
16.130392
5.5481424
2.0967348
1.2093011
0.89335545
0.72330651
0.62057025
0.55725821
0.51140941
0.47528629
0.44981012
0.43281263
0.42113965
0.41372384
0.40976543
564.22157
553.46173
532.89077
504.50604
469.71128
430.37615
387.41809
342.40282
296.63739
251.26581
207.31049
165.65326
126.99125
91.917595
60.92354
34.446847
14.847084
5.0897617
2.0020159
1.1875652
0.88339987
0.71742462
0.61761888
0.55525826
0.51030763
0.47459592
0.44930115
0.43247272
0.42091235
0.4135605
0.40963685
575.65397
561.92204
539.02031
508.6242
472.17036
431.10891
387.16301
341.28178
294.89852
249.15494
204.98391
163.26232
124.64923
89.721819
58.950788
32.764824
13.749059
4.7292379
1.9318203
1.1702365
0.87501851
0.71236835
0.61511729
0.55350042
0.5093295
0.47398354
0.44883539
0.43215481
0.42069455
0.41339982
0.40950685
587.54623
571.27159
546.20726
513.89359
475.79817
433.36857
388.03444
341.35815
294.2675
247.99678
203.48724
161.5617
122.87988
87.984285
57.333754
31.325512
12.822533
4.4554401
1.8794105
1.1564861
0.86817511
0.70806391
0.61294447
0.55191588
0.50842529
0.47341785
0.44839479
0.43184863
0.42048167
0.41324065
0.40937513
599.54799
581.46052
554.56792
520.49832
480.78504
436.93462
390.34736
342.48497
294.60349
247.7474
202.78085
160.55299
121.68212
86.705284
56.0726
30.14774
12.07247
4.2336226
1.8308064
1.1451919
0.86273064
0.70454154
0.61114242
0.55055136
0.50762354
0.47291725
0.44799308
0.43156163
0.42027696
0.41308395
0.40924178
608.12497
589.46904
561.87444
526.91323
486.20171
441.28114
393.66157
344.78898
295.98122
248.3398
202.86142
160.23791
121.05953
85.887457
55.167321
29.2375
11.481477
4.0545726
1.7914654
1.1366349
0.8586548
0.7017604
0.60965072
0.54937239
0.50690091
0.47246519
0.44762145
0.43128859
0.42007809
0.41292917
0.4091072
615.74727
596.13228
568.03868
532.73555
491.57288
446.04914
397.7015
348.02587
298.38742
249.9721
203.79404
160.58265
121.01752
85.536631
54.620039
28.599127
11.034743
3.9106394
1.7579789
1.130364
0.85586679
0.69971882
0.60848581
0.54839773
0.50627233
0.47206982
0.44728691
0.43103348
0.41988686
0.41277685
0.40897195
625.12518
604.1992
575.21514
539.34026
497.70662
451.66116
402.67265
352.23797
301.76667
252.5196
205.56812
161.70352
121.57373
85.639633
54.434847
28.235259
10.722161
3.7957733
1.730407
1.1264158
0.85434623
0.69839185
0.6076268
0.54761135
0.50573042
0.47172346
0.44698544
0.43079394
0.4197022
0.41262668
0.40883601
634.39546
612.77688
583.21061
546.87351
504.80464
458.2832
408.68779
357.49674
306.16268
256.01661
208.19513
163.55064
122.74455
86.263706
54.610629
28.148901
10.53979
3.7034642
1.7073313
1.124738
0.85404776
0.69779037
0.60709277
0.54702343
0.50528609
0.47143058
0.44672028
0.43057191
0.41952492
0.41247872
0.40869883
643.22301
621.4432
591.74625
555.2423
512.89729
465.97483
415.81654
363.86364
311.62615
260.5046
211.70602
166.15278
124.54435
87.391524
55.188096
28.349173
10.492177
3.6267002
1.6879722
1.1251742
0.85475452
0.6978649
0.60688436
0.54662613
0.50493711
0.47118672
0.44648793
0.43036538
0.41935386
0.41233244
0.40856039
651.24368
629.55788
600.17792
563.99725
521.84583
474.73083
424.06349
371.3682
318.19519
266.01866
216.13243
169.53947
126.99473
89.043036
56.162882
28.857669
10.571906
3.5547701
1.6713602
1.127494
0.85665554
0.69852199
0.60694333
0.54640552
0.50467824
0.47098783
0.44628544
0.43017312
0.41918812
0.41218736
0.40842175
657.06989
635.64697
606.76512
571.098
529.35563
482.42787
431.60417
378.44722
324.58463
271.53045
220.66744
173.0906
129.62438
90.86796
57.287007
29.494163
10.780782
3.4685922
1.6561145
1.1315995
0.859035
0.69960311
0.60717477
0.54631811
0.50448835
0.47082308
0.44610652
0.42999289
0.41902709
0.41204369
0.4082822
77.970248
134.6689
212.07136
288.093
349.51078
390.54496
409.59077
408.7258
392.41752
359.05339
317.10211
270.09689
221.34246
173.67938
129.17983
89.235289
54.726054
27.24277
10.224072
3.2190999
1.3753073
0.89862805
0.70376948
0.60153048
0.53564463
0.48964129
0.45885658
0.43839547
0.42458418
0.41587532
0.41120528
78.510823
131.4186
205.28184
279.02893
339.67357
381.28386
401.874
402.89579
388.49935
357.22954
316.34008
270.09802
221.97751
174.66688
130.3082
90.356297
55.766779
28.041248
10.644249
3.3341643
1.3968724
0.90548095
0.70708379
0.6030896
0.53642535
0.49011608
0.45916221
0.43859483
0.42471734
0.41595938
0.41124937
79.510983
128.62346
198.41958
269.67114
329.4823
371.62735
393.72669
396.6502
383.84623
354.59638
315.20545
270.02735
222.5792
175.66052
131.46741
91.521185
56.852533
28.883917
11.100356
3.4615737
1.4208926
0.91256397
0.71037225
0.60468353
0.53726967
0.4905679
0.45946749
0.43880252
0.42485981
0.41605188
0.41130612
81.297664
126.27188
191.72122
260.25111
319.06577
361.63085
385.16253
389.97241
378.85479
351.6655
313.86173
269.83248
223.12665
176.64772
132.651
92.728072
57.982109
29.773743
11.593876
3.6039279
1.448447
0.92088931
0.71441361
0.60648061
0.53812601
0.4911345
0.4598224
0.43902788
0.42500903
0.41614603
0.41137802
83.705328
124.5917
185.37317
250.90072
308.51605
351.34112
376.19802
382.85964
373.49884
348.41258
312.28162
269.48094
223.60275
177.6181
133.85373
93.975602
59.153778
30.715981
12.12552
3.7630581
1.4789223
0.92887483
0.71798248
0.60829925
0.5391491
0.4916547
0.4601754
0.43926855
0.42517363
0.41624817
0.41142578
86.791941
123.43931
179.63772
241.86618
297.97495
340.83243
366.86631
375.32141
367.76411
344.82183
310.44405
268.96401
223.99184
178.56166
135.07052
95.262398
60.368046
31.711451
12.687487
3.9401052
1.51425
0.93900553
0.72283597
0.61039439
0.54012817
0.49225116
0.46056409
0.43952344
0.42534483
0.41635677
0.41147538
90.569765
123.454
174.43038
233.07742
287.44091
330.13618
357.20136
367.37669
361.63748
340.88867
308.32913
268.25967
224.27436
179.46445
136.29233
96.583365
61.625374
32.761362
13.289231
4.1379198
1.5525949
0.94930083
0.72759333
0.61254934
0.5412144
0.49288643
0.46097805
0.43979336
0.42552608
0.4164708
0.41154501
95.330273
123.99293
170.07682
224.85596
277.14193
319.38935
347.27168
359.05048
355.13824
336.56083
305.90252
267.33523
224.41851
180.30442
137.50331
97.927175
62.927729
33.865113
13.955432
4.3589276
1.5971378
0.96047862
0.7326839
0.61485637
0.5423657
0.49355122
0.4614117
0.44007544
0.42571495
0.41659098
0.41164783
101.0164
125.42324
166.5453
217.24005
267.15121
308.66601
337.13687
350.37877
348.25959
331.8522
303.15124
266.17287
224.40482
181.0712
138.69793
99.29034
64.27043
35.023384
14.684096
4.6059008
1.6463001
0.97267049
0.73818079
0.61728415
0.54356844
0.49425708
0.46187548
0.44037361
0.42591457
0.41671718
0.41175434
107.85578
128.23475
164.09315
210.39573
257.59647
298.06691
326.86933
341.40278
341.01545
326.75288
300.05561
264.75135
224.2639
181.74946
139.86342
100.66481
65.650619
36.244799
15.471178
4.882157
1.7028085
0.9859139
0.74398584
0.61988654
0.5448524
0.4949954
0.46235851
0.4406836
0.42612154
0.41685003
0.41186527
115.72834
132.13067
162.65273
204.36331
248.5679
287.68508
316.54278
332.16322
333.44994
321.24494
296.59589
263.04407
223.91443
182.31716
140.98516
102.04162
67.062071
37.523189
16.32142
5.1920116
1.7663287
1.0004704
0.75034684
0.62262491
0.54617167
0.49577174
0.4628806
0.44101119
0.42634055
0.41698932
0.4119719
124.53116
137.35341
162.78697
199.38311
240.19953
277.62213
306.23643
322.71737
325.58262
315.33385
292.7557
261.0249
223.32786
182.7505
142.04664
103.41042
68.498523
38.845049
17.212883
5.5366461
1.8387889
1.0162509
0.75683724
0.62551115
0.54759283
0.49658913
0.46341701
0.4413466
0.42656472
0.41713586
0.41208527
133.92943
143.56264
163.65274
195.3766
232.54904
267.95748
296.02567
313.12565
317.42884
309.02719
288.52932
258.67172
222.49426
183.02364
143.02941
104.75937
69.953338
40.2088
18.141533
5.9207575
1.9208904
1.0337812
0.764195
0.62860757
0.54902594
0.49742308
0.46400508
0.44170077
0.42680279
0.41728922
0.41221015
143.51735
150.52693
165.7617
192.4607
225.7205
258.78707
285.99352
303.45073
309.01391
302.34263
283.90514
255.96352
221.3859
183.09171
143.91275
106.07541
71.41919
41.610398
19.124588
6.3479071
2.0143205
1.0527225
0.77125784
0.63169646
0.55055698
0.49832545
0.46459937
0.44205471
0.42704247
0.41745005
0.41234075
152.76167
157.79773
169.07082
190.71547
219.81557
250.21294
276.22804
293.76224
300.37423
295.30738
278.87617
252.88338
219.98397
182.99605
144.68197
107.3449
72.887311
43.043663
20.161301
6.8226531
2.1205527
1.0739702
0.77965171
0.63518187
0.55212705
0.49919396
0.46525972
0.44242873
0.4272987
0.41761761
0.41247586
161.26361
164.8272
172.70729
189.76084
214.70203
242.22483
266.78268
284.10822
291.54878
287.95523
273.44745
249.42124
218.27077
182.69736
145.31913
108.55385
74.34846
44.499505
21.256444
7.343686
2.2412884
1.0969943
0.78727241
0.63838009
0.55367835
0.50018398
0.46591794
0.44278997
0.42755174
0.41779168
0.41261408
168.67761
171.19747
176.51813
189.62663
210.49974
234.95794
257.77401
274.60603
282.58332
280.33546
267.63403
245.57185
216.22525
182.11478
145.80046
109.6882
75.79546
45.971475
22.41166
7.9224257
2.378619
1.1227068
0.79624417
0.64209304
0.55545154
0.50106925
0.46664791
0.44317404
0.42782361
0.41797186
0.41275444
173.88642
175.84245
179.68192
189.62086
206.98458
228.42456
249.28835
265.35995
273.56916
272.4877
261.48387
241.35079
213.84459
181.2741
146.10996
110.73466
77.222896
47.46636
23.638629
8.5789206
2.5348371
1.1509298
0.80498149
0.64551633
0.55687954
0.50212707
0.46737192
0.4435299
0.42808701
0.41815608
0.41289605
176.32564
177.93364
181.15052
189.30373
203.80516
222.47033
241.32775
256.44844
264.60575
264.49521
255.05784
236.7917
211.13662
180.16628
146.21431
111.67707
78.615331
48.981936
24.93428
9.2699644
2.7111361
1.1823865
0.81295799
0.64887885
0.5588767
0.50305328
0.46814271
0.44391496
0.42836837
0.4183448
0.41303757
176.40244
177.97221
181.12762
188.40735
200.95162
217.21581
234.06248
248.03356
255.89533
256.49119
248.45135
231.95259
208.12816
178.79929
146.14978
112.50605
79.957021
50.494973
26.268339
10.006273
2.9107945
1.2177541
0.82389451
0.65280678
0.56012132
0.50410176
0.46891595
0.44425901
0.42863865
0.41853284
0.41317779
175.92389
177.67972
181.04362
187.85897
198.73915
212.91709
227.75637
240.35572
247.66919
248.66656
241.8004
226.92617
204.87624
177.20256
145.93218
113.21812
81.2378
51.997014
27.638086
10.814207
3.1357728
1.2559652
0.82961856
0.65548746
0.56214776
0.50516822
0.46965824
0.44463926
0.42891777
0.41872215
0.41331545
175.98292
177.91783
181.57563
188.15354
197.87625
209.92553
222.64719
233.64916
240.15752
241.2439
235.28022
221.8394
201.45492
175.40335
145.50018
113.80336
82.448705
53.477533
29.02994
11.683269
3.3943582
1.2990581
0.84026625
0.65887931
0.56329654
0.50605809
0.47043073
0.44497946
0.42919096
0.41890779
0.41344952
177.64044
179.72013
183.51098
189.59639
198.20374
208.31882
218.90925
228.12245
233.56741
234.44027
229.07617
216.83276
197.96001
173.45804
144.91656
114.26586
83.583442
54.925389
30.426178
12.576473
3.6986681
1.3474282
0.84907212
0.66234398
0.56519769
0.50735292
0.47106351
0.44534157
0.42945101
0.41908938
0.41357812
183.33138
185.16151
188.34198
193.20352
199.91857
208.24943
216.49711
223.79797
227.99272
228.41831
223.35729
212.05041
194.49958
171.43571
144.21519
114.61692
84.640474
56.334786
31.824171
13.514685
4.0185521
1.3989796
0.85321048
0.66344382
0.56629983
0.50800695
0.47173445
0.4456985
0.42971917
0.41926594
0.41370029
193.09476
193.89317
195.67255
198.85291
203.47823
209.25557
215.52298
220.75331
223.5622
223.29553
218.25902
207.62329
191.17939
169.40995
143.43792
114.87391
85.621769
57.701938
33.224419
14.526062
4.3769713
1.4548965
0.86191415
0.66632034
0.56790274
0.50923526
0.47225397
0.44600577
0.4299389
0.41942509
0.41381397
205.11507
204.86965
205.1768
206.43568
208.78294
212.07086
215.93318
218.988
220.37746
219.16029
213.89022
203.66228
188.09644
167.45103
142.62688
115.05672
86.530309
59.019392
34.609158
15.578164
4.7724905
1.516563
0.87041681
0.66990564
0.56966929
0.50991615
0.47267155
0.44637718
0.43017839
0.419586
0.41391842
219.07607
217.92818
216.82345
216.17598
216.12903
216.76311
217.86017
218.96731
218.54953
216.10135
210.32816
200.24482
185.32196
165.6177
141.82109
115.18364
87.369882
60.282947
35.970385
16.652384
5.205437
1.5856669
0.87546255
0.67038005
0.57033208
0.51049225
0.47313807
0.44661577
0.43034396
0.41971581
0.41401068
232.90983
231.62856
229.83878
227.79994
225.73153
223.83225
222.14468
220.42939
218.39506
214.32587
207.68983
197.44347
182.90892
163.95054
141.05128
115.27791
88.150654
61.494973
37.307782
17.749947
5.6806791
1.6649253
0.88148415
0.67252448
0.57226758
0.51141558
0.4732789
0.44689259
0.43050636
0.41985462
0.41408987
241.86673
241.41492
240.14034
238.07148
235.28406
231.93793
228.19919
224.08836
219.43408
213.82054
206.05717
195.32146
180.89191
162.46546
140.32004
115.32375
88.869834
62.657193
38.624589
18.871153
6.1878867
1.7597001
0.8909803
0.67618326
0.57312632
0.51159706
0.47350333
0.44711322
0.43065333
0.41994672
0.41415196
242.61516
243.26153
243.15857
242.10016
239.97624
236.75502
232.4814
227.2708
221.14734
213.90935
205.0774
193.72286
179.19594
161.11768
139.59477
115.30238
89.509028
63.76382
39.926358
20.0319
6.7662557
1.8753729
0.90499373
0.6789149
0.57434719
0.51219182
0.47350177
0.44717773
0.43070512
0.42003585
0.4141955
238.3655
240.18262
241.05123
240.86681
239.56601
236.90733
232.94284
227.69894
221.22956
213.49759
203.97492
192.14108
177.50982
159.71992
138.77379
115.19083
90.066393
64.816892
41.219052
21.240972
7.433083
2.0167658
0.92469393
0.68507404
0.57781533
0.51300736
0.47347404
0.4473629
0.4308419
0.42011259
0.41421549
225.77774
229.95244
233.32358
235.25874
235.51016
234.04124
230.95454
226.16297
219.77786
211.74113
201.83897
189.81163
175.29084
157.92689
137.65389
114.86723
90.444563
65.764984
42.486018
22.497712
8.1976505
2.1905289
0.95027572
0.69450352
0.57901085
0.5130926
0.47336697
0.44738159
0.43087858
0.42014131
0.41420894
206.57277
211.48736
216.15259
220.18326
223.03459
224.23407
223.29015
220.09941
214.62183
206.98684
197.40094
185.84795
171.92453
155.32227
135.94349
114.09211
90.457312
66.53125
43.690633
23.78623
9.0666065
2.4031834
0.98106711
0.70459664
0.58016612
0.51397694
0.47327249
0.44743276
0.4309765
0.42021143
0.41417277
188.61477
193.20451
197.71922
201.83814
205.22543
207.46039
208.15387
206.95802
203.59839
197.96074
190.02959
179.76999
167.02085
151.58883
133.41774
112.74808
90.251126
67.111252
44.798444
25.071522
10.029292
2.6595408
1.0165264
0.71367916
0.5841494
0.51551781
0.4733326
0.4476815
0.43103597
0.42021529
0.41410201
175.63375
179.29981
182.9596
186.4153
189.42614
191.68891
192.84403
192.61024
190.62946
186.64896
180.4629
171.88202
160.71012
146.78371
130.07245
110.80461
89.608317
67.387564
45.743943
26.303028
11.053165
2.9614983
1.0561383
0.72064432
0.58814836
0.51603019
0.47362262
0.44784006
0.43109169
0.42024285
0.41399851
169.25077
171.83044
174.34802
176.70267
178.7303
180.21619
180.91619
180.60547
178.97907
175.76853
170.69576
163.4443
153.73268
141.33828
126.15711
108.35807
88.463325
67.356057
46.496059
27.438472
12.076898
3.3142071
1.0998983
0.72479807
0.59058396
0.51715966
0.47441228
0.44833754