/*--------------------------------*- C++ -*----------------------------------*\
| =========                 |                                                 |
| \\      /  F ield         | OpenFOAM: The Open Source CFD Toolbox           |
|  \\    /   O peration     | Version:  2406                                  |
|   \\  /    A nd           | Website:  www.openfoam.com                      |
|    \\/     M anipulation  |                                                 |
\*---------------------------------------------------------------------------*/
FoamFile
{
    version     2.0;
    format      ascii;
    arch        "LSB;label=32;scalar=64";
    class       volScalarField;
    location    "0.014";
    object      alphat;
}
// * * * * * * * * * * * * * * * * * * * * * * * * * * * * * * * * * * * * * //

dimensions      [1 -1 -1 0 0 0 0];

internalField   nonuniform List<scalar> 
86779
(
0.039490495
0.042672307
0.045992835
0.049362904
0.05274645
0.05612178
0.059471038
0.062779666
0.066036188
0.069234677
0.072362614
0.075409171
0.078364872
0.081220153
0.083964005
0.086585181
0.089071641
0.091410404
0.093587941
0.095590415
0.097403604
0.099013115
0.10040406
0.10156091
0.10246754
0.10310742
0.1034647
0.10352122
0.10325946
0.10266195
0.1017114
0.10039105
0.098685054
0.096578996
0.094060498
0.091119946
0.087751506
0.08395454
0.079733512
0.075100103
0.070080232
0.064711311
0.059041079
0.053136458
0.047086318
0.041004517
0.035039344
0.02938383
0.024279959
0.020014288
0.016805465
0.014636526
0.013250087
0.012341034
0.011679067
0.011146025
0.010686275
0.010274609
0.0098997238
0.0095559501
0.0092386594
0.008945476
0.0086741311
0.0084227102
0.0081890301
0.0079714131
0.0077692732
0.0075810647
0.0074060339
0.0072436809
0.0070932723
0.0069536263
0.0068248399
0.0067059534
0.0065948424
0.006490357
0.0063930349
0.0063016891
0.0062153652
0.0061356263
0.0060609585
0.0059914522
0.0059265756
0.005865515
0.0058083966
0.0057535726
0.0057013702
0.0056522016
0.0056054078
0.0055610842
0.0055190318
0.0054795077
0.0054426159
0.005407944
0.0053757204
0.0053459222
0.0053180869
0.0052922521
0.0052682944
0.0052457517
0.0052248413
0.0052051223
0.0051862777
0.0051685087
0.0051513151
0.0051349601
0.0051196383
0.0051052067
0.005091741
0.0050791633
0.0050674081
0.0050564612
0.005046182
0.0050366033
0.0050277286
0.0050195011
0.0050119135
0.0050049394
0.0049986229
0.0049929104
0.0049878563
0.0049834595
0.0049798069
0.004976796
0.0049746648
0.0049727269
0.0049724718
0.043610313
0.046848496
0.050094154
0.053349544
0.056605631
0.059847763
0.063061551
0.066234731
0.069356721
0.072418697
0.075410492
0.078321981
0.081143222
0.083863822
0.086472715
0.088958314
0.091308084
0.093508669
0.09554634
0.097406853
0.099075721
0.10053862
0.10178058
0.10278599
0.10353875
0.10402225
0.10422029
0.10411538
0.10368982
0.10292641
0.10180817
0.10031877
0.098442929
0.096166966
0.093479417
0.09037183
0.086839757
0.082884292
0.078512946
0.07373729
0.068586912
0.063105203
0.057342056
0.051369094
0.045281036
0.039199379
0.033283572
0.027743233
0.022844213
0.018874636
0.016002908
0.014125712
0.012935028
0.012129971
0.011521883
0.011017425
0.010574922
0.010175343
0.0098101632
0.0094747775
0.0091647795
0.0088782319
0.0086129443
0.0083670363
0.0081383458
0.0079252298
0.0077272055
0.0075428041
0.0073711927
0.007211784
0.0070642897
0.0069272244
0.0068007396
0.00668414
0.0065751583
0.0064724614
0.0063768635
0.0062871599
0.0062020986
0.0061234407
0.0060498789
0.0059814189
0.0059173594
0.005856913
0.0058003443
0.0057460245
0.005694241
0.005645507
0.0055991707
0.0055552579
0.0055136575
0.0054745559
0.0054380584
0.0054038301
0.0053719822
0.0053425156
0.0053150358
0.0052894797
0.0052657698
0.0052434841
0.0052227753
0.0052032436
0.0051845529
0.0051669084
0.0051498484
0.0051336022
0.0051183666
0.0051040222
0.0050906427
0.005078143
0.0050664529
0.0050555677
0.005045355
0.0050358252
0.0050269975
0.0050188159
0.0050112657
0.0050043252
0.004998038
0.0049923517
0.0049873196
0.0049829445
0.0049793087
0.0049763136
0.0049741917
0.0049722548
0.0049720121
0.047868144
0.051052627
0.054210429
0.057355451
0.060487796
0.063598604
0.066677183
0.069713285
0.072697256
0.075619929
0.078471802
0.08124316
0.083924073
0.086504042
0.088971893
0.09131557
0.093522177
0.095578194
0.097469631
0.099182117
0.10070121
0.1020122
0.10309991
0.1039487
0.10454245
0.10486457
0.10489911
0.10462839
0.10403498
0.10310193
0.10181261
0.10015116
0.098102949
0.095655073
0.09279709
0.089521823
0.085826375
0.081713722
0.077194082
0.072280571
0.06700693
0.061421357
0.055577351
0.049552784
0.043449425
0.037398664
0.031573959
0.026203373
0.021568148
0.017936452
0.015398482
0.01376729
0.012718366
0.011984479
0.011411824
0.010926884
0.010496967
0.0101067
0.0097492128
0.0094204764
0.0091162061
0.0088348036
0.0085741247
0.0083323182
0.0081072555
0.0078973779
0.0077022474
0.0075204606
0.0073511988
0.0071937436
0.007048136
0.0069127627
0.0067876281
0.0066724207
0.0065647364
0.0064631109
0.0063684719
0.0062796698
0.0061953292
0.0061172354
0.0060441397
0.0059760874
0.0059123549
0.0058520953
0.0057957518
0.0057416962
0.0056900898
0.005641553
0.0055954662
0.0055517669
0.0055104256
0.00547155
0.0054352647
0.0054013071
0.0053696586
0.0053403709
0.0053131095
0.0052876996
0.0052641268
0.0052420016
0.0052213992
0.0052019795
0.0051833812
0.005165802
0.0051488278
0.0051326412
0.0051174439
0.0051031463
0.0050898141
0.0050773562
0.0050656998
0.0050548487
0.0050446772
0.0050351737
0.005026372
0.0050182185
0.005010689
0.0050037679
0.0049974974
0.004991826
0.0049868067
0.0049824445
0.0049788188
0.0049758338
0.0049737184
0.0049718129
0.0049715456
0.052255257
0.055331056
0.058376064
0.061400063
0.064403823
0.067380475
0.070321235
0.073217222
0.076059555
0.078839305
0.081547286
0.084173997
0.086709535
0.089143376
0.091464225
0.093659891
0.09571734
0.097622863
0.099362251
0.10092097
0.10228434
0.10343744
0.10436501
0.10505138
0.10548039
0.10563543
0.10550118
0.10505933
0.10429302
0.10318553
0.10172069
0.099883163
0.097659024
0.095036287
0.092005645
0.088561341
0.084702199
0.0804333
0.075767358
0.07072039
0.065330698
0.059650588
0.053738219
0.047678716
0.041581792
0.035590029
0.029891849
0.024732056
0.020396137
0.017111557
0.014881522
0.013457706
0.012522578
0.011845612
0.011302108
0.010833984
0.010415396
0.010033757
0.0096835703
0.0093612387
0.0090625224
0.0087861837
0.0085300952
0.0082924179
0.0080710418
0.0078645075
0.0076724073
0.0074933755
0.0073266457
0.0071713057
0.0070277637
0.0068943083
0.0067707693
0.0066571221
0.0065509519
0.0064506203
0.0063571151
0.0062694163
0.0061859798
0.0061085989
0.0060361708
0.0059687591
0.0059055112
0.0058455756
0.0057895521
0.0057358663
0.0056845387
0.005636285
0.0055905452
0.0055471481
0.0055061615
0.0054676079
0.0054316178
0.0053980204
0.0053666517
0.0053376122
0.00531064
0.0052854346
0.0052620485
0.0052401357
0.0052196765
0.0052004017
0.005181929
0.0051644362
0.005147573
0.0051314714
0.0051163328
0.0051021033
0.005088838
0.0050764383
0.0050648308
0.0050540269
0.0050439098
0.0050344434
0.005025677
0.0050175614
0.00501006
0.0050031657
0.0049969183
0.0049912672
0.004986266
0.0049819212
0.0049783097
0.0049753379
0.0049732307
0.0049713356
0.0049710681
0.056751973
0.059691281
0.062603135
0.065493022
0.06835984
0.07119664
0.073995134
0.076746981
0.079443684
0.082076502
0.084636377
0.087113867
0.089499039
0.091781302
0.093949276
0.095990723
0.097892569
0.099641032
0.10122181
0.10262025
0.10382149
0.10481044
0.10557174
0.10608965
0.10634797
0.10633045
0.10602142
0.10540291
0.10445836
0.10317142
0.10152634
0.099508456
0.097104623
0.094303879
0.091098197
0.0874834
0.083460215
0.07903609
0.074225962
0.069050042
0.063551724
0.057786651
0.051818615
0.045740715
0.039671408
0.033765418
0.028226523
0.023313432
0.019304187
0.016368453
0.014423005
0.013179293
0.012340224
0.011711552
0.011193622
0.010741019
0.010333381
0.0099603407
0.0096175879
0.009301835
0.0090088367
0.0087377369
0.0084863953
0.0082529761
0.0080353862
0.0078323043
0.0076433247
0.0074670901
0.0073029612
0.0071497733
0.0070082916
0.0068767863
0.0067548251
0.0066426808
0.0065380017
0.0064389626
0.0063465357
0.006259878
0.0061773282
0.006100604
0.0060287757
0.0059619166
0.0058990918
0.0058394401
0.0057836964
0.0057303695
0.005679314
0.0056313228
0.0055859205
0.0055428141
0.0055021738
0.0054639307
0.0054282177
0.0053949653
0.0053638549
0.0053350431
0.0053083436
0.0052833223
0.0052601052
0.0052383929
0.0052180575
0.0051989127
0.0051805587
0.0051631387
0.0051463792
0.0051303563
0.0051152679
0.0051011011
0.0050878973
0.0050755492
0.0050639857
0.0050532249
0.0050431582
0.0050337251
0.0050249901
0.00501691
0.0050094334
0.0050025637
0.0049963375
0.004990705
0.0049857209
0.0049813921
0.0049777941
0.0049748347
0.0049727352
0.0049708507
0.0049705817
0.061328865
0.064116445
0.066881887
0.069627087
0.072348701
0.075039085
0.077689805
0.080292543
0.082838854
0.085320014
0.087726953
0.090050183
0.092279686
0.094404786
0.096414039
0.098295176
0.10003512
0.1016201
0.1030358
0.1042675
0.10530024
0.1061188
0.10670772
0.10705118
0.10713299
0.10693715
0.10644769
0.10564714
0.10451923
0.10304799
0.10121823
0.099015972
0.096428992
0.093447464
0.090064782
0.086278514
0.082091505
0.077513894
0.072562324
0.067262801
0.06166422
0.055824557
0.049814589
0.043735912
0.037716604
0.031924549
0.026579121
0.021948858
0.018290512
0.01570054
0.014015561
0.012927418
0.012169221
0.011581534
0.011086109
0.010647858
0.010250746
0.0098861569
0.0095508342
0.0092416859
0.0089544216
0.0086885956
0.008442027
0.0082128787
0.0079990742
0.0077994724
0.0076136405
0.0074401887
0.00727869
0.0071276733
0.0069882358
0.0068587233
0.0067383734
0.0066277011
0.0065245231
0.0064268234
0.0063354601
0.0062498402
0.0061682172
0.0060921517
0.0060209335
0.0059546409
0.0058922464
0.0058329015
0.0057774434
0.0057245008
0.0056737483
0.0056260374
0.0055809977
0.0055382048
0.0054979396
0.0054600368
0.0054246198
0.0053917341
0.0053609019
0.0053323324
0.0053059215
0.005281097
0.0052580584
0.0052365586
0.0052163513
0.0051973415
0.0051791157
0.0051617702
0.0051451193
0.0051291824
0.0051141485
0.0051000498
0.0050869124
0.0050746192
0.0050631035
0.0050523893
0.0050423759
0.0050329787
0.0050242773
0.0050162354
0.0050087851
0.0050019422
0.0049957388
0.0049901261
0.004985161
0.0049808493
0.0049772662
0.0049743201
0.004972229
0.0049703502
0.0049700854
0.06596088
0.06858294
0.071195267
0.07378858
0.076358148
0.078895872
0.0813931
0.083841354
0.086232067
0.088556408
0.090805198
0.092968834
0.095037183
0.09699947
0.098844187
0.10055905
0.10213099
0.10354629
0.10479064
0.10584932
0.10670731
0.1073493
0.10775974
0.10792281
0.10782229
0.10744236
0.10676706
0.10577923
0.10446298
0.1028028
0.10078413
0.098393788
0.095620563
0.092455896
0.088894751
0.08493662
0.080586699
0.075858202
0.070768996
0.065352468
0.059663122
0.053760521
0.047724153
0.041664439
0.035720155
0.030073512
0.024959218
0.020648939
0.017360838
0.015105965
0.013654213
0.012698213
0.012007527
0.011454677
0.010979248
0.010554422
0.010167518
0.009811284
0.0094834288
0.009180945
0.0088994666
0.0086389868
0.0083972511
0.0081724186
0.0079624303
0.0077663705
0.0075837454
0.0074130826
0.0072542611
0.0071054621
0.0069680648
0.0068405865
0.0067218859
0.0066126513
0.0065109695
0.0064146508
0.0063243327
0.0062397282
0.0061590612
0.0060836394
0.006013015
0.0059472667
0.0058852843
0.0058262566
0.00577108
0.0057185313
0.0056681042
0.0056206835
0.005576018
0.0055335498
0.0054936763
0.0054561298
0.0054210133
0.0053884988
0.0053579502
0.0053296236
0.0053035014
0.0052788747
0.0052560128
0.005234725
0.0052146415
0.0051957626
0.005177667
0.0051603922
0.0051438482
0.005127999
0.005113019
0.0050989885
0.0050859178
0.0050736787
0.0050622111
0.0050515438
0.0050415831
0.0050322218
0.0050235535
0.0050155502
0.0050081256
0.0050013096
0.0049951293
0.0049895363
0.0049845906
0.0049802961
0.0049767284
0.0049737959
0.0049717132
0.0049698419
0.0049695792
0.070622826
0.073069875
0.075524674
0.077960774
0.080372686
0.082752164
0.085090444
0.087378874
0.089608707
0.091770945
0.093856254
0.095854882
0.097756559
0.099550404
0.10122485
0.10276758
0.10416558
0.10540516
0.10647206
0.10735158
0.10802867
0.108488
0.10871397
0.10869075
0.10840216
0.10783254
0.10696603
0.10578583
0.10427644
0.10242292
0.1002114
0.097629593
0.094667428
0.091317753
0.087577265
0.083447564
0.078936434
0.074060366
0.068839379
0.063313982
0.057544025
0.05159221
0.045547488
0.039529443
0.03368897
0.028223759
0.023382203
0.019428186
0.01652123
0.014581803
0.013333578
0.012487938
0.011853294
0.011330219
0.010872764
0.010460638
0.010083692
0.0097357399
0.0094153944
0.0091196253
0.008843973
0.0085888978
0.0083520362
0.0081315441
0.0079253854
0.007732913
0.0075535397
0.0073856542
0.0072295354
0.0070829979
0.0069476288
0.0068222087
0.0067052006
0.0065973697
0.0064971663
0.006402269
0.0063129792
0.0062293651
0.0061496881
0.0060749017
0.0060048601
0.0059396448
0.0058780643
0.0058193769
0.005764487
0.0057123426
0.0056622696
0.0056151579
0.0055708809
0.0055287539
0.0054892935
0.0054521261
0.0054173199
0.0053851844
0.0053549331
0.0053268564
0.0053010261
0.0052766057
0.0052539235
0.0052328493
0.0052128911
0.0051941429
0.0051761818
0.0051589775
0.0051425402
0.0051267829
0.0051118596
0.005097899
0.005084897
0.0050727134
0.0050612959
0.0050506773
0.0050407701
0.0050314459
0.0050228117
0.005014848
0.0050074499
0.0050006619
0.0049945054
0.0049889327
0.0049840076
0.0049797309
0.0049761793
0.0049732609
0.0049711873
0.0049693228
0.0049690631
0.075286311
0.077557215
0.079850195
0.082124494
0.084373941
0.086590222
0.08876452
0.090888037
0.092951848
0.09494678
0.096863332
0.09869159
0.10042115
0.10204102
0.10353957
0.10490448
0.10612275
0.10718075
0.10806427
0.10875866
0.10924888
0.10951959
0.10955522
0.10933994
0.10885769
0.10809294
0.10703005
0.10565259
0.10394554
0.10189456
0.099486602
0.096710391
0.093557109
0.090021176
0.0861012
0.081801099
0.077131513
0.072112422
0.066766966
0.061142489
0.055304069
0.04931931
0.043287272
0.037337329
0.031634159
0.026391628
0.021867459
0.01830151
0.015774951
0.014122974
0.013047876
0.012293103
0.011704912
0.01120752
0.010766441
0.01036646
0.0099992852
0.009659564
0.0093467794
0.0090577708
0.0087879822
0.008538369
0.0083064185
0.0080902877
0.0078879736
0.0076991327
0.0075230577
0.0073579425
0.0072045453
0.007060325
0.0069269828
0.0068036317
0.0066883669
0.0065819165
0.0064831623
0.0063897244
0.006301453
0.0062187995
0.0061401438
0.0060659866
0.0059965131
0.0059318164
0.0058706256
0.005812306
0.0057577117
0.0057059758
0.0056562869
0.0056095069
0.0055656295
0.0055238601
0.0054848325
0.005448065
0.0054135773
0.0053818229
0.0053518821
0.00532406
0.0052985199
0.0052743138
0.0052518122
0.0052309485
0.0052111172
0.0051924975
0.0051746727
0.005157539
0.0051412062
0.0051255438
0.0051106795
0.0050967888
0.0050838565
0.0050717294
0.0050603636
0.0050497947
0.0050399405
0.0050306545
0.0050220551
0.0050141314
0.0050067599
0.0050000006
0.0049938685
0.0049883164
0.0049834126
0.0049791542
0.0049756195
0.0049727156
0.0049706513
0.0049687939
0.0049685368
0.079923613
0.082022164
0.084149569
0.086258103
0.088340933
0.09038966
0.092395423
0.094349305
0.096242231
0.098064872
0.099807567
0.10146026
0.10301241
0.10445294
0.10577016
0.10695173
0.10798469
0.10885544
0.10954986
0.11005334
0.11035091
0.11042726
0.11026686
0.10985397
0.10917265
0.10820757
0.10694338
0.10536406
0.10345514
0.101203
0.098595488
0.09562247
0.092276542
0.088553864
0.084455168
0.079986926
0.075162946
0.070006798
0.064545719
0.058834057
0.05294208
0.046943734
0.040948967
0.035098161
0.029571365
0.024598101
0.020436704
0.017281614
0.015121303
0.0137226
0.012791341
0.012110602
0.011561029
0.011086073
0.010660123
0.010271869
0.009914326
0.0095828078
0.0092776396
0.0089954252
0.0087315297
0.0084874279
0.0082604156
0.0080486578
0.0078502013
0.0076650255
0.0074922867
0.0073299383
0.0071792681
0.0070374236
0.0069061167
0.006784824
0.0066713532
0.0065662738
0.006468926
0.006376977
0.0062897211
0.0062079931
0.006130384
0.0060568557
0.0059879357
0.0059237456
0.0058629359
0.005805018
0.005750734
0.0056994062
0.0056501339
0.0056037142
0.0055602468
0.0055188537
0.0054802782
0.0054439318
0.0054097724
0.0053783993
0.0053487848
0.0053212238
0.0052959706
0.0052719898
0.0052496706
0.0052290124
0.0052093127
0.0051908198
0.0051731323
0.0051560711
0.0051398404
0.0051242762
0.0051094742
0.0050956537
0.0050827921
0.0050707236
0.0050594115
0.0050488933
0.0050390919
0.0050298456
0.0050212819
0.0050133985
0.0050060545
0.0049993247
0.0049932177
0.0049876868
0.0049828052
0.0049785657
0.0049750484
0.0049721595
0.0049701051
0.0049682546
0.0049680002
0.084509617
0.086437599
0.088397507
0.090337343
0.092250147
0.094127588
0.095960794
0.097740767
0.099458322
0.101104
0.10266802
0.1041402
0.1055099
0.10676595
0.10789662
0.10888956
0.10973184
0.11040993
0.11090977
0.11121683
0.11131621
0.1111927
0.11083083
0.11021502
0.10932951
0.10815919
0.1066891
0.10490369
0.10278913
0.10033261
0.097523007
0.094351458
0.090812144
0.086903167
0.082627621
0.077994819
0.073022096
0.067736392
0.062170497
0.056386383
0.050458834
0.04446991
0.038541386
0.032826292
0.02752122
0.02286836
0.019111902
0.016376816
0.014555496
0.013372697
0.012558536
0.011937759
0.011420538
0.010965482
0.010553701
0.010176864
0.0098288553
0.0095055351
0.0092080401
0.0089326374
0.0086746527
0.0084361027
0.0082140457
0.0080066654
0.0078120827
0.0076305931
0.007461219
0.0073016476
0.007153702
0.0070142929
0.0068850452
0.0067657805
0.0066541494
0.0065504526
0.0064544578
0.006364016
0.0062777834
0.0061969428
0.0061203943
0.0060475024
0.0059791225
0.0059154293
0.005854996
0.0057975173
0.0057435636
0.0056926388
0.005643817
0.0055977914
0.0055547434
0.0055137474
0.0054756411
0.0054397358
0.0054059158
0.0053749206
0.0053456485
0.0053183555
0.005293383
0.0052696398
0.0052475041
0.0052270432
0.0052074816
0.0051891136
0.005171562
0.0051545769
0.0051384452
0.0051229815
0.0051082459
0.0050944949
0.0050817048
0.0050696973
0.0050584408
0.0050479737
0.0050382245
0.0050290198
0.005020493
0.0050126497
0.005005334
0.0049986346
0.0049925532
0.0049870441
0.0049821854
0.0049779654
0.0049744662
0.0049715926
0.0049695485
0.0049677049
0.0049674532
0.089016928
0.090775509
0.092566436
0.094335453
0.096075601
0.097778687
0.099435888
0.10103818
0.10257632
0.10404077
0.10542165
0.1067087
0.1078912
0.10895792
0.10989709
0.1106964
0.11134292
0.11182319
0.11212324
0.11222865
0.11212461
0.11179602
0.11122758
0.11040386
0.10930937
0.10792931
0.10624912
0.10425386
0.10193042
0.099266915
0.096253379
0.092882397
0.089149915
0.085056207
0.080606996
0.075814788
0.070700907
0.065294881
0.059637619
0.053799255
0.04785746
0.041905363
0.03607744
0.03054116
0.025509732
0.021230708
0.017912562
0.0155895
0.01406925
0.013064905
0.012344572
0.011772331
0.011282556
0.010845451
0.010447112
0.010081464
0.0097429234
0.0094278198
0.0091380524
0.0088694595
0.008617388
0.0083844163
0.0081673205
0.0079643155
0.0077736292
0.00759583
0.0074298342
0.0072730715
0.0071278451
0.0069909231
0.0068637747
0.0067464898
0.0066367293
0.006534451
0.0064397483
0.0063508136
0.0062656251
0.0061856324
0.0061101422
0.0060379039
0.0059700545
0.0059068524
0.0058467965
0.005789796
0.0057361982
0.005685668
0.0056373314
0.0055917384
0.0055491189
0.0055085436
0.0054709203
0.0054354747
0.0054020079
0.0053713843
0.0053424713
0.0053154545
0.0052907545
0.0052672625
0.0052453117
0.0052250374
0.005205623
0.0051873775
0.0051699588
0.0051530555
0.0051370192
0.0051216579
0.0051069932
0.0050933112
0.0050805931
0.0050686497
0.0050574509
0.0050470352
0.0050373375
0.0050281766
0.0050196877
0.0050118842
0.0050045982
0.0049979297
0.0049918747
0.0049863881
0.0049815528
0.0049773532
0.0049738725
0.0049710147
0.0049689815
0.0049671447
0.0049668956
0.093415653
0.095005899
0.09662687
0.098223577
0.099789078
0.10131535
0.10279366
0.10421502
0.10557017
0.10684956
0.10804325
0.10914093
0.11013183
0.11100471
0.11174779
0.11234875
0.11279475
0.11307238
0.11316778
0.11306664
0.11275429
0.11221579
0.11143602
0.11039982
0.10909198
0.10749812
0.10560416
0.10339586
0.10086095
0.097988602
0.094770164
0.091199843
0.087275573
0.083000045
0.078381913
0.073437283
0.068192058
0.062677384
0.05694563
0.051074749
0.045144022
0.039261601
0.033575144
0.028268192
0.023568268
0.019714429
0.0168527
0.014915583
0.013651927
0.012791151
0.012145234
0.011612493
0.011146399
0.010725773
0.010340331
0.0099857022
0.0096565896
0.0093497446
0.00906775
0.0088059443
0.0085597718
0.0083323871
0.0081202452
0.0079216079
0.0077348519
0.0075607279
0.0073981063
0.0072442132
0.0071017049
0.006967305
0.0068423114
0.0067269488
0.0066190656
0.0065182671
0.0064247937
0.0063373427
0.0062532343
0.0061740533
0.0060995982
0.0060280412
0.0059607195
0.0058980076
0.0058383375
0.005781852
0.0057286413
0.0056784962
0.0056306792
0.0055855604
0.0055433795
0.0055032512
0.0054661204
0.0054311511
0.0053980546
0.0053677937
0.0053392554
0.0053125239
0.0052880867
0.00526486
0.0052430952
0.0052229951
0.005203738
0.0051856127
0.0051683217
0.0051515077
0.0051355635
0.0051203051
0.0051057162
0.0050921026
0.005079457
0.0050675811
0.005056442
0.0050460773
0.0050364305
0.0050273161
0.0050188663
0.0050111017
0.005003847
0.00499721
0.0049911821
0.0049857188
0.0049809075
0.004976729
0.0049732673
0.0049704257
0.0049684039
0.0049665737
0.0049663272
0.097674076
0.099097086
0.10054754
0.10197091
0.10336028
0.10470779
0.10600484
0.10724252
0.10841161
0.10950255
0.11050543
0.11140992
0.11220524
0.11288014
0.11342289
0.11382119
0.11406226
0.1141328
0.11401906
0.11370687
0.11318173
0.1124289
0.11143353
0.11018074
0.10865573
0.10684456
0.10473379
0.10230997
0.09956179
0.09647965
0.09305638
0.08928802
0.085174735
0.08072192
0.07594149
0.070853562
0.065488823
0.05988186
0.054096271
0.04821699
0.04232864
0.036555315
0.031058833
0.026039586
0.021732584
0.01834635
0.01593819
0.014345187
0.01329185
0.012544121
0.011957017
0.011456801
0.011011559
0.01060632
0.010233367
0.0098896222
0.0095699219
0.009271398
0.0089972016
0.0087421415
0.0085018397
0.0082800278
0.0080728172
0.007878537
0.0076957601
0.0075252765
0.0073660049
0.0072150763
0.0070752958
0.006943426
0.0068206544
0.0067071596
0.0066011268
0.0065018904
0.0064095891
0.0063235691
0.0062405935
0.0061621967
0.0060887305
0.0060178919
0.005951104
0.0058888873
0.0058296192
0.0057736804
0.0057208939
0.0056711268
0.0056238619
0.0055792603
0.0055375298
0.0054978777
0.0054612433
0.0054267645
0.0053940597
0.0053641509
0.0053360008
0.0053095651
0.0052853804
0.0052624323
0.0052408546
0.0052209153
0.0052018266
0.0051838187
0.0051666487
0.0051499332
0.0051340782
0.005118922
0.005104414
0.0050908689
0.0050782959
0.005066491
0.0050554139
0.0050450996
0.0050355031
0.0050264381
0.0050180284
0.0050103018
0.0050030804
0.0049964752
0.0049904753
0.0049850363
0.0049802492
0.0049760928
0.0049726505
0.0049698254
0.0049678155
0.0049659918
0.004965748
0.10175867
0.10301566
0.10429534
0.10554471
0.10675687
0.10792412
0.10903801
0.11008973
0.11107013
0.11196971
0.11277861
0.11348652
0.1140827
0.11455594
0.11489454
0.11508627
0.11511844
0.11497787
0.11465093
0.11412364
0.11338171
0.11241066
0.11119592
0.10972302
0.10797762
0.10594635
0.10361648
0.1009755
0.098013224
0.094721436
0.091094667
0.087131024
0.082833185
0.07820958
0.073275786
0.068056441
0.062586879
0.056907598
0.051093475
0.045235264
0.039427041
0.033809699
0.02856045
0.023894499
0.020040235
0.017146429
0.015165436
0.013864311
0.012977532
0.012317545
0.0117771
0.011304151
0.010877683
0.010487031
0.010126261
0.0097932781
0.0094829964
0.0091928749
0.0089264608
0.0086780868
0.0084436272
0.008227346
0.0080250262
0.0078350934
0.007656361
0.0074894658
0.0073335017
0.0071856666
0.0070486356
0.0069192698
0.0067987951
0.0066871302
0.0065828832
0.0064853022
0.0063941302
0.0063094551
0.0062276814
0.0061500566
0.0060775111
0.0060074348
0.0059411974
0.005879488
0.005820646
0.0057652768
0.0057129577
0.0056635686
0.0056168841
0.0055728418
0.0055315767
0.0054924319
0.0054562923
0.0054223156
0.0053900286
0.0053604601
0.0053327083
0.0053065805
0.0052826379
0.0052599798
0.0052385905
0.0052187988
0.0051998889
0.0051819956
0.0051649386
0.005148332
0.0051325642
0.005117508
0.0051030858
0.0050896101
0.0050771099
0.0050653793
0.0050543662
0.0050441017
0.005034555
0.0050255428
0.0050171738
0.0050094841
0.0050022984
0.0049957253
0.004989754
0.0049843405
0.0049795779
0.0049754444
0.0049720219
0.0049692137
0.0049672161
0.0049653989
0.0049651577
0.1056341
0.10672629
0.10783522
0.10891023
0.10994444
0.11093032
0.11185954
0.11272344
0.11351298
0.11421875
0.11483097
0.11533939
0.11573335
0.11600169
0.11613279
0.11611452
0.11593429
0.11557906
0.11503538
0.11428948
0.11332731
0.11213472
0.1106975
0.10900165
0.10703339
0.10478003
0.10222969
0.099370942
0.096194901
0.092694941
0.088867525
0.084713108
0.080237203
0.07545166
0.070376237
0.065040744
0.059484243
0.053756916
0.047945591
0.042144371
0.036461707
0.031056168
0.026120669
0.021877878
0.018525879
0.016123521
0.014522018
0.013457008
0.012698605
0.012106292
0.011603277
0.011153728
0.010744545
0.010367902
0.01001908
0.0096967277
0.0093958897
0.0091142807
0.0088555619
0.0086137861
0.0083851693
0.0081743465
0.007976856
0.007791267
0.0076166561
0.0074532902
0.0073005785
0.0071559914
0.0070217376
0.0068948161
0.0067767147
0.0066668701
0.0065643097
0.0064684722
0.0063784107
0.0062949622
0.0062144716
0.0061376274
0.0060659187
0.0059966507
0.0059309902
0.0058698078
0.0058114234
0.0057566362
0.005704834
0.0056558338
0.0056097521
0.0055663085
0.0055255274
0.0054869221
0.0054512706
0.0054178044
0.0053859655
0.0053567259
0.0053293784
0.0053035719
0.0052798617
0.0052575018
0.0052363026
0.0052166466
0.0051979239
0.0051801424
0.0051631904
0.0051467037
0.0051310219
0.0051160623
0.0051017307
0.0050883262
0.0050758991
0.0050642454
0.0050532985
0.0050430833
0.005033586
0.0050246299
0.0050163024
0.0050086484
0.0050015009
0.00499496
0.0049890181
0.0049836315
0.0049788935
0.0049747837
0.0049713814
0.0049685905
0.0049666056
0.0049647946
0.0049645561
0.10926279
0.11019149
0.11112995
0.11203054
0.11288639
0.11369011
0.11443356
0.1151082
0.11570515
0.11621512
0.11662842
0.11693494
0.11712409
0.11718481
0.11710558
0.1168744
0.11647881
0.11590594
0.11514256
0.11417513
0.11298994
0.11157317
0.1099111
0.10799026
0.10579757
0.10332112
0.10055003
0.097474141
0.094086067
0.090381009
0.086357637
0.082019068
0.077374021
0.072438215
0.067236202
0.061803793
0.056182341
0.050437394
0.044666713
0.038965718
0.033463613
0.028336089
0.023789102
0.020036837
0.017214861
0.015273042
0.013989144
0.013107482
0.012446404
0.011906333
0.011433832
0.011004951
0.01061203
0.010248975
0.0099119173
0.0096000233
0.0093086615
0.0090357438
0.008784522
0.008549194
0.008326502
0.0081210378
0.0079282846
0.0077470497
0.0075766363
0.0074167533
0.0072672372
0.0071260574
0.0069946006
0.0068700432
0.0067543859
0.0066463831
0.0065453903
0.0064513591
0.0063624213
0.0062800578
0.0062009326
0.0061249016
0.0060539425
0.005985525
0.0059204748
0.0058598462
0.005801958
0.0057477551
0.0056965238
0.0056479389
0.0056024746
0.0055596645
0.0055193898
0.0054813559
0.0054461832
0.005413232
0.0053818745
0.0053529543
0.0053260118
0.0053005413
0.0052770556
0.0052549973
0.0052339905
0.005214461
0.0051959305
0.0051782584
0.0051614038
0.0051450477
0.0051294519
0.0051145845
0.0051003476
0.0050870176
0.0050746641
0.0050630887
0.00505221
0.0050420441
0.005032596
0.0050236993
0.0050154138
0.0050077946
0.005000688
0.0049941792
0.0049882675
0.0049829093
0.0049781959
0.0049741108
0.004970729
0.0049679556
0.0049659836
0.0049641788
0.0049639432
0.11260478
0.11337147
0.11414004
0.11486643
0.11554381
0.11616494
0.11672186
0.11720623
0.11760929
0.11792195
0.11813463
0.11823735
0.11821965
0.11807059
0.11777877
0.11733235
0.11671905
0.11592619
0.1149408
0.11374965
0.11233937
0.11069662
0.1088082
0.10666129
0.10424365
0.10154427
0.098553476
0.095262558
0.091665875
0.087760726
0.083548309
0.07903477
0.07423246
0.069161488
0.063851889
0.058345506
0.052688937
0.046964159
0.041276696
0.035729713
0.030474625
0.02570214
0.021622343
0.018413783
0.016116939
0.014577848
0.0135451
0.0128017
0.012214224
0.011714556
0.011267391
0.010857435
0.01048011
0.010130335
0.0098048925
0.0095031999
0.0092213462
0.0089574226
0.008713334
0.0084842006
0.0082676698
0.0080674383
0.0078792794
0.0077024329
0.0075362752
0.0073798762
0.0072335078
0.0070958649
0.0069671987
0.006844935
0.006731774
0.0066256574
0.006526121
0.0064339113
0.0063461468
0.0062647247
0.006187029
0.0061118645
0.0060415837
0.00597405
0.0059096452
0.0058496029
0.0057922557
0.0057386332
0.0056880282
0.0056399019
0.0055950625
0.0055529146
0.0055131723
0.0054757395
0.0054410371
0.0054086003
0.005377758
0.0053491516
0.00532261
0.0052974908
0.0052742231
0.0052524645
0.0052316536
0.0052122446
0.0051939066
0.0051763422
0.0051595796
0.005143363
0.0051278543
0.0051130745
0.0050989356
0.0050856843
0.0050734054
0.0050619082
0.0050510999
0.0050409842
0.0050315851
0.0050227508
0.0050145078
0.0050069225
0.0049998593
0.0049933827
0.004987502
0.0049821737
0.0049774851
0.0049734253
0.0049700644
0.004967309
0.0049653499
0.0049635512
0.0049633186
0.11561782
0.11622414
0.11682364
0.11737631
0.1178754
0.11831385
0.11868389
0.11897737
0.11918575
0.11930008
0.11931096
0.11920856
0.11898255
0.11862216
0.11811614
0.11745283
0.11662014
0.11560567
0.11439673
0.11298045
0.11134391
0.1094743
0.10735905
0.10498615
0.10234428
0.099423564
0.096215677
0.092713637
0.088913812
0.084815923
0.080424069
0.075747856
0.070803767
0.065616983
0.060223994
0.054671689
0.049016751
0.043358676
0.03780679
0.032479388
0.027549703
0.023218042
0.019678116
0.01703702
0.015223163
0.014012295
0.013168697
0.012528416
0.011997044
0.011528367
0.011102813
0.010710994
0.010348846
0.010012102
0.0096981568
0.009406278
0.0091340311
0.0088794549
0.0086418785
0.0084186722
0.0082087492
0.0080135654
0.0078297895
0.0076573958
0.0074955295
0.0073427073
0.0071994557
0.0070653947
0.0069394729
0.0068194936
0.0067088408
0.0066046578
0.0065065122
0.0064160712
0.0063295621
0.0062489709
0.0061727217
0.0060984905
0.0060288543
0.005962226
0.005898499
0.005839077
0.0057823222
0.0057292758