/*--------------------------------*- C++ -*----------------------------------*\
| =========                 |                                                 |
| \\      /  F ield         | OpenFOAM: The Open Source CFD Toolbox           |
|  \\    /   O peration     | Version:  2406                                  |
|   \\  /    A nd           | Website:  www.openfoam.com                      |
|    \\/     M anipulation  |                                                 |
\*---------------------------------------------------------------------------*/
FoamFile
{
    version     2.0;
    format      ascii;
    arch        "LSB;label=32;scalar=64";
    class       volScalarField;
    location    "0.014";
    object      yPlus;
}
// * * * * * * * * * * * * * * * * * * * * * * * * * * * * * * * * * * * * * //

dimensions      [0 0 0 0 0 0 0];

internalField   uniform 0;

boundaryField
{
    Side1
    {
        type            empty;
    }
    Inlet
    {
        type            calculated;
        value           uniform 0;
    }
    Freestream
    {
        type            calculated;
        value           nonuniform List<scalar> 
431
(
30.220774
30.220198
30.233378
30.245139
30.257133
30.269153
30.281224
30.293332
30.305478
30.317657
30.329871
30.342116
30.354393
30.366697
30.379024
30.391363
30.403689
30.415974
30.428169
30.440205
30.452
30.463448
30.474428
30.484823
30.494518
30.503424
30.511493
30.518726
30.525149
30.530807
30.535701
30.539752
30.542794
30.544609
30.545038
30.544038
30.541595
30.537601
30.531881
30.524552
30.516476
30.503667
30.490275
30.47538
30.458751
30.44024
30.42181
30.402462
30.380913
30.357124
30.331126
30.302765
30.272026
30.238805
30.20302
30.164561
30.123314
30.079142
30.031891
29.981389
29.927447
29.869858
29.808392
29.742811
29.672864
29.598284
29.518807
29.434164
29.344099
29.248368
29.14675
29.039058
28.925141
28.804902
28.678296
28.545336
28.40606
28.260544
28.108854
27.951013
27.786963
27.616534
27.439461
27.255382
27.063854
26.864347
26.656268
26.439034
26.21206
25.974772
25.726631
25.46728
25.196534
24.914287
24.620519
24.315475
23.999642
23.673588
23.33802
22.993794
22.64155
22.28177
21.915082
21.541603
21.16037
20.769604
20.366847
19.949025
19.51229
19.053365
18.569923
18.062047
17.528729
16.967374
16.376715
15.75441
15.100764
14.422893
13.713822
12.946072
12.102755
11.148029
10.036679
8.8067164
7.4049173
6.0599676
4.5187506
28.634984
28.64676
28.65582
28.664982
28.675042
28.685648
28.696965
28.709082
28.722062
28.73598
28.750905
28.766904
28.784043
28.802379
28.821971
28.842875
28.865146
28.888836
28.913987
28.940648
28.968861
28.998664
29.030091
29.063172
29.097933
29.134398
29.172587
29.21251
29.253595
29.295483
29.338226
29.381764
29.426054
29.471039
29.516653
29.562828
29.60949
29.656549
29.703921
29.751501
29.799188
29.84686
29.894397
29.94166
29.988499
30.034752
30.080241
30.124782
30.168195
28.634088
28.599636
28.566624
28.534301
28.501837
28.468586
28.434142
28.398296
28.360967
28.322177
28.281981
28.240472
28.19774
28.153879
28.10896
28.063034
28.016129
27.968251
27.919381
27.869487
27.818531
27.766461
27.713245
27.658851
27.603267
27.546485
27.488507
27.429332
27.368981
27.307426
27.244718
27.180774
27.115712
27.049458
26.982012
26.913452
26.843775
26.772985
26.701079
26.62804
26.55383
26.478407
26.401712
26.323676
26.244227
26.163294
26.080801
25.996682
25.910873
25.823315
25.733951
25.642729
25.5496
25.454518
25.357442
25.258331
25.157149
25.053864
24.948447
24.840875
24.731128
24.619184
24.505031
24.38865
24.270038
24.149164
24.026014
23.90058
23.772851
23.642812
23.510446
23.375732
23.238651
23.099174
22.957287
22.812928
22.666092
22.516729
22.364801
22.210265
22.053075
21.893187
21.730556
21.565135
21.396879
21.225738
21.051672
20.874638
20.694593
20.511499
20.32533
20.136049
19.943624
19.748008
19.549153
19.346995
19.141453
18.932426
18.719796
18.503428
18.283155
18.058781
17.830132
17.597018
17.359186
17.116321
16.868177
16.614635
16.355612
16.090838
15.819715
15.541447
15.256066
14.96427
14.667258
14.3669
14.064321
13.759518
13.451237
13.137553
12.816522
12.486884
12.147956
11.799292
11.441016
11.073982
10.698162
10.313662
9.9201821
9.5169499
9.1022253
8.6742377
8.2311145
7.7687734
7.2825546
6.767819
6.2166507
5.6103598
4.9295898
4.1332995
3.1676353
1.6909029
1.960859
3.3030793
4.148516
4.8943575
5.4824885
5.9973451
6.5067491
6.9141573
7.2767436
7.6589549
8.0103198
8.2798829
8.5154449
8.7747352
9.1250552
9.336957
9.6215739
9.7472286
9.8744695
9.9936521
10.166448
10.353959
10.51189
10.647809
10.776447
10.908535
11.04142
11.16671
11.27924
11.36676
11.435956
11.485113
11.520273
11.554114
11.591628
11.631372
11.670326
11.703038
11.730948
11.758679
11.785367
11.81407
11.840568
11.866281
11.892049
11.909679
11.913527
11.903808
11.888899
11.86727
11.860665
11.860312
11.872765
11.918937
11.923811
11.979636
12.032063
12.036353
12.089748
12.124432
12.116178
12.117302
12.094752
12.042673
12.007785
12.023704
12.059323
12.102778
12.14164
12.17446
12.18848
12.188454
12.178736
12.178781
12.177569
12.206629
12.24692
12.29203
12.356065
12.376863
12.440704
12.385648
12.496551
12.32292
12.622354
12.154662
12.744418
12.672785
12.137267
11.938827
12.084862
12.302221
12.458763
12.561595
12.566481
12.590967
12.577516
12.576229
12.585861
12.559207
12.499408
12.468514
12.419788
12.306769
11.995044
12.112193
12.056239
12.012022
11.840286
11.75862
11.656618
11.60509
11.410382
)
;
    }
    Side2
    {
        type            empty;
    }
    Outlet
    {
        type            calculated;
        value           uniform 0;
    }
    Botwall
    {
        type            calculated;
        value           nonuniform List<scalar> 
431
(
1.3536454
1.3231918
1.2958432
1.2706561
1.2469649
1.2244454
1.202959
1.1822619
1.1621872
1.1425205
1.1231752
1.1039871
1.084913
1.0658025
1.0466395
1.0272748
1.0077213
0.98783338
0.96764467
0.94700499
0.92596347
0.90437334
0.88229006
0.85957542
0.83629363
0.81230692
0.7876795
0.76226341
0.73612633
0.70911574
0.68123948
0.65244788
0.62248639
0.59155711
0.55883244
0.52476269
0.48766567
0.44767685
0.40451132
0.35667651
0.30347182
0.24488841
0.16624229
0.067536111
0.19139415
0.26193005
0.29801118
0.3544025
0.39388394
0.44757177
0.48095418
0.51084238
0.5398035
0.56169541
0.58727303
0.6161263
0.6431757
0.66904997
0.69402811
0.71829619
0.74199959
0.7652096
0.78797721
0.81031703
0.83224246
0.85374273
0.87481085
0.89542281
0.91556021
0.93519184
0.95429166
0.97282731
0.99076944
1.0080865
1.0247517
1.0407379
1.0560245
1.0705894
1.0844143
1.0974875
1.1097923
1.1213262
1.1320802
1.1420568
1.1512614
1.1597003
1.1673861
1.1743329
1.1805539
1.1860671
1.1908827
1.1950343
1.1985329
1.2014364
1.2037587
1.2055657
1.2068851
1.2077897
1.2082956
1.2083958
1.2083072
1.2080122
1.2074748
1.2068156
1.206059
1.2052496
1.20446
1.2037187
1.2030295
1.2024318
1.2019449
1.2015576
1.2012904
1.201116
1.2009971
1.2010224
1.2011639
1.2014006
1.2016436
1.2019539
1.2022992
1.2027225
1.2032943
1.2038946
1.2045432
1.2053991
1.2062855
1.2070395
1.2079421
1.2089268
1.2095701
1.2100783
1.2108407
1.2114929
1.2119523
1.2127468
1.214054
1.2159324
1.2185513
1.2221958
1.2271687
1.233457
1.2409673
1.2497251
1.2594923
1.2697974
1.2802709
1.2904778
1.2995671
1.3071547
1.3137917
1.3193631
1.3225533
1.3231537
1.3227436
1.3211489
1.3171129
1.3113047
1.3043727
1.2967779
1.2888577
1.2803682
1.271307
1.2624673
1.2547012
1.2482731
1.2434688
1.2410801
1.2406679
1.2412059
1.2435293
1.248704
1.2551726
1.2624219
1.2697111
1.2767947
1.2833945
1.2882391
1.289961
1.2898581
1.2887431
1.2855437
1.2797562
1.2728076
1.2654365
1.2583631
1.2517112
1.245417
1.2402281
1.2370787
1.2360943
1.2361661
1.2368179
1.238654
1.2419141
1.2458397
1.2490706
1.250491
1.2505596
1.2499384
1.2477623
1.2436069
1.2387111
1.2330444
1.2269479
1.2209421
1.2156139
1.211491
1.2089854
1.2080931
1.2080681
1.2083535
1.2093409
1.2108108
1.21154
1.2116603
1.2113352
1.2100394
1.2069587
1.2031937
1.1984318
1.1937487
1.1887639
1.1845988
1.1803781
1.1771581
1.1737726
1.1713933
1.1681381
1.1654247
1.1617713
1.1586887
1.1538704
1.1493239
1.1429763
1.1372896
1.1299096
1.1236256
1.1158474
1.110084
1.1022492
1.0974283
1.0904068
1.0860568
1.0797205
1.0751177
1.0687395
1.0636717
1.0572354
1.0518762
1.0460342
1.0416172
1.0357845
1.0338013
1.0286014
1.1733398
1.2224268
1.259795
1.2894033
1.3156523
1.3396854
1.3598022
1.3720791
1.3786705
1.3806069
1.3803486
1.3781783
1.375999
1.374066
1.3719975
1.3682533
1.3646603
1.3591759
1.3523315
1.3458469
1.3409861
1.3343875
1.3276517
1.3206646
1.3128225
1.3050027
1.2943412
1.2857504
1.2762033
1.2660288
1.2562041
1.2519799
1.2419489
1.2397429
1.2350977
1.2312152
1.2300922
1.230147
1.2322617
1.2354626
1.2411448
1.2481589
1.2572127
1.2681786
1.2804849
1.2968668
1.3149639
1.3347398
1.3661876
1.1060888
1.0421447
0.97532537
0.91030127
0.81475723
0.72078398
0.65340863
0.54157545
0.44557584
0.3706763
0.2232584
0.17940792
0.32907097
0.42064484
0.50040933
0.56635283
0.62125014
0.66710147
0.70554959
0.73939213
0.77285556
0.79928411
0.82843652
0.85000996
0.87567204
0.89380558
0.91663669
0.93226117
0.95259025
0.96626797
0.98345364
0.99433509
1.0066243
1.0151934
1.0248851
1.0312187
1.0377163
1.0422965
1.046074
1.0483182
1.0495188
1.0499477
1.0490109
1.0471221
1.0444366
1.0406251
1.0361537
1.0309537
1.0248795
1.0185126
1.0112996
1.0039267
0.99599002
0.98787502
0.97951292
0.97091484
0.9623093
0.9534015
0.9445605
0.93539861
0.92618738
0.91670139
0.90696145
0.89706476
0.88673605
0.87646309
0.86568045
0.85524901
0.84431109
0.83406071
0.82328825
0.8134965
0.80307745
0.79377176
0.7836787
0.77465544
0.76469392
0.75570826
0.74569304
0.73665878
0.7266067
0.71764016
0.7077935
0.69917069
0.68980822
0.68178059
0.67300395
0.66564194
0.65730158
0.65041569
0.64225542
0.63563945
0.62745667
0.62110602
0.6130346
0.60710577
0.59963366
0.59439997
0.58798938
0.58363914
0.57830866
0.57476452
0.5702168
0.5673256
0.5634114
0.56099874
0.55793942
0.55618277
0.55447336
0.55353767
0.55313607
0.55332329
0.55431276
0.55616702
0.55910758
0.56348734
0.56958596
0.5779434
0.58892861
0.60312554
0.62096007
0.64326451
0.67122004
0.70866095
0.76498234
0.86093232
1.1083865
)
;
    }
    Cyli
    {
        type            calculated;
        value           nonuniform List<scalar> 
196
(
0.96695226
0.82359434
0.85735972
0.85097083
0.98410544
1.0545657
1.0703388
1.0811411
0.98227296
0.86393809
0.80708077
0.82348454
0.82792788
0.93678153
0.90117484
0.90235923
0.84136504
0.78738879
0.76706678
0.76050518
0.77388073
0.75750951
0.7452389
0.72078177
0.69370219
0.66818578
0.64477703
0.61551984
0.58313457
0.54449269
0.49506355
0.43028936
0.34115087
0.20531302
0.16735048
0.27838721
0.32344109
0.33735359
0.33691155
0.33051953
0.32063207
0.31017909
0.29990386
0.2906339
0.28301852
0.27749314
0.27257253
0.26735618
0.26139511
0.25384704
0.24483263
0.23581539
0.22879851
0.22538069
0.22577835
0.22941906
0.23556623
0.24367467
0.25509227
0.26627306
0.27153559
0.27747552
0.28478319
0.28810719
0.28940671
0.288049
0.2841418
0.27686852
0.26652852
0.25246367
0.23472869
0.21207293
0.18542778
0.15302454
0.083551273
0.050967454
0.12387471
0.16570112
0.19605968
0.22146926
0.24187893
0.25835086
0.27095875
0.28034726
0.28665044
0.2898786
0.29078575
0.28910248
0.2855026
0.27851086
0.27274386
0.26735106
0.25617223
0.24455818
0.23562833
0.2278797
0.2214888
0.21693729
1.0542024
1.0466788
1.0384863
1.0303631
1.0221198
1.012894
1.0016696
0.98781992
0.97149861
0.9533428
0.93402912
0.91426176
0.89404169
0.87288016
0.85025743
0.82579333
0.79945689
0.77142247
0.74185823
0.71083421
0.67786282
0.64219066
0.6022691
0.55669018
0.50492221
0.44647713
0.38716774
0.31417715
0.24080417
0.14303541
0.051617824
0.26390347
0.32639554
0.37869013
0.47361785
0.54913902
0.62251635
0.68950493
0.68916386
0.72883197
0.68694957
0.65217189
0.70399218
0.70374606
0.86174222
0.92882701
1.0204949
1.0740204
1.0255794
0.21442884
0.21386837
0.2170429
0.22348066
0.2337471
0.24625925
0.25917081
0.2715764
0.2819796
0.29125319
0.30163986
0.3142464
0.32895643
0.34487912
0.36164399
0.37819418
0.39024004
0.39555524
0.38923605
0.35157213
0.25856714
0.15537318
0.36113493
0.48652813
0.57744505
0.64898346
0.70592297
0.75378541
0.79408303
0.82842374
0.86315116
0.8818126
0.90256375
0.93452405
0.98983476
0.98105313
0.98715583
1.0132227
1.0066076
1.0298437
1.0396898
1.0438841
1.0518071
1.0559743
1.0591281
1.0620911
1.0639404
1.0636301
1.0602527
)
;
    }
}


// ************************************************************************* //
