/*--------------------------------*- C++ -*----------------------------------*\
| =========                 |                                                 |
| \\      /  F ield         | OpenFOAM: The Open Source CFD Toolbox           |
|  \\    /   O peration     | Version:  2406                                  |
|   \\  /    A nd           | Website:  www.openfoam.com                      |
|    \\/     M anipulation  |                                                 |
\*---------------------------------------------------------------------------*/
FoamFile
{
    version     2.0;
    format      ascii;
    arch        "LSB;label=32;scalar=64";
    class       volScalarField;
    location    "0.04";
    object      alphat;
}
// * * * * * * * * * * * * * * * * * * * * * * * * * * * * * * * * * * * * * //

dimensions      [1 -1 -1 0 0 0 0];

internalField   nonuniform List<scalar> 
8260
(
0.055238398
0.063193235
0.072799227
0.083942031
0.096640678
0.11097765
0.12708404
0.14513707
0.16540551
0.18820872
0.21392852
0.24305737
0.27611078
0.31365722
0.35630965
0.40469736
0.45948015
0.52133571
0.5909661
0.66913395
0.75662132
0.85419985
0.96248414
1.0816981
1.2113209
1.3493493
1.4915332
1.6297058
1.7513306
1.8394005
1.8803145
0.065461793
0.073739788
0.083108816
0.093821232
0.10604078
0.11990401
0.13556719
0.15322706
0.17315201
0.19566474
0.22115236
0.25009216
0.28299844
0.32043308
0.36299935
0.41131402
0.46602847
0.52781465
0.59737127
0.67545557
0.76284734
0.86031295
0.96846206
1.0875101
1.2169211
1.354673
1.4964849
1.6341464
1.7550158
1.8419151
1.8811652
0.077334134
0.085508252
0.0946459
0.105001
0.11678204
0.13017474
0.14537324
0.16260272
0.18214263
0.20432589
0.22954558
0.2582674
0.29099965
0.32830105
0.37076354
0.41898952
0.47362099
0.53532346
0.60479109
0.68277511
0.77005198
0.86738197
0.97536867
1.0942179
1.2233771
1.3608031
1.5021806
1.63925
1.759252
1.8447969
1.8820306
0.091108375
0.098925975
0.10773265
0.11770389
0.12904564
0.14196505
0.15668424
0.17345533
0.19257496
0.21438951
0.23929947
0.26776539
0.30028705
0.33741687
0.37974053
0.4278439
0.48235871
0.54394401
0.61328879
0.69113847
0.77826584
0.87542469
0.98321152
1.101821
1.2306816
1.3677258
1.5085986
1.6449845
1.7639935
1.8480022
1.8829112
0.10696704
0.11429106
0.12267574
0.13220356
0.14307371
0.15550027
0.16972088
0.18600731
0.20467344
0.22607985
0.25063572
0.27880061
0.31106918
0.3479844
0.39012298
0.4380622
0.49242011
0.55384962
0.62303407
0.70071316
0.78765536
0.88460712
0.99215601
1.1104835
1.2389961
1.3755986
1.5158917
1.6514978
1.7693791
1.851638
1.8839013
0.12499646
0.13180207
0.13970319
0.14873717
0.15910041
0.17101035
0.18471302
0.20049293
0.21867789
0.23964123
0.26380097
0.29161823
0.32358776
0.36024132
0.40214255
0.44986622
0.50401882
0.56524541
0.63422308
0.71168592
0.79839729
0.89509523
1.0023564
1.1203466
1.2484475
1.3845328
1.5241528
1.6588614
1.7754549
1.8557226
1.8849869
0.14525551
0.15156715
0.15897276
0.16749779
0.1773408
0.18872378
0.2018993
0.21716084
0.23484667
0.25534036
0.27906796
0.30649394
0.33811396
0.37445314
0.41606186
0.46350777
0.51739491
0.57836063
0.64707407
0.72426405
0.81068828
0.90707533
1.0139888
1.1315761
1.2591905
1.3946707
1.5335105
1.6671882
1.7823147
1.8603183
1.8861651
0.16776591
0.17365006
0.18059098
0.18863197
0.1979764
0.20885037
0.22151226
0.23626278
0.25344817
0.27345969
0.29672993
0.3237272
0.35494856
0.39091521
0.43217067
0.47927227
0.53282078
0.59345574
0.66183609
0.73868509
0.82475434
0.92076173
1.0272551
1.1443605
1.2713989
1.4061689
1.5441019
1.6765927
1.7900458
1.8654749
1.8874217
0.19248333
0.19804161
0.20459397
0.21222009
0.22113122
0.23155477
0.24375279
0.25803134
0.27474229
0.29428214
0.31708808
0.34363188
0.37441248
0.40995015
0.45078554
0.49747213
0.55060447
0.61082363
0.67879016
0.75521781
0.84085122
0.93639646
1.0423829
1.1589111
1.2852657
1.4192004
1.5560769
1.6871994
1.7987439
1.8712488
1.8887276
0.2192238
0.22459131
0.23090433
0.23824581
0.24684184
0.25692549
0.26875893
0.28265002
0.29895298
0.31806659
0.34043031
0.36651827
0.39683185
0.43189327
0.47224403
0.51844264
0.5710792
0.63079022
0.69824807
0.77416183
0.85926487
0.95425033
1.059626
1.175463
1.3010048
1.4339547
1.569598
1.6991407
1.8085076
1.8776943
1.890034
0.24776256
0.25305394
0.25930412
0.26656577
0.27503108
0.28494576
0.29657286
0.31021773
0.32623213
0.34501291
0.36699855
0.39266378
0.42251262
0.45707183
0.49688845
0.54252958
0.59459061
0.6537052
0.72055145
0.79584552
0.88031045
0.97462265
1.0792651
1.1942749
1.3188495
1.450636
1.5848365
1.7125525
1.8194347
1.8848611
1.8912634
0.27775551
0.28320266
0.28957816
0.29694447
0.30550186
0.31547252
0.32710991
0.34071034
0.35661636
0.37521661
0.39694383
0.42227037
0.45170189
0.4857711
0.52503413
0.57007012
0.62148553
0.67992215
0.74606105
0.82062167
0.90432778
0.99783772
1.1016045
1.2156262
1.3390495
1.469459
1.601968
1.7275682
1.8316154
1.892788
1.8922996
0.30877432
0.31458302
0.32131847
0.32905451
0.33796472
0.34824392
0.36014521
0.37394998
0.38998284
0.40861634
0.43027044
0.4554092
0.48453585
0.51818716
0.55692917
0.60135533
0.6520878
0.70978244
0.77513154
0.84885495
0.9316733
1.0242371
1.1269653
1.2398103
1.3618634
1.4906408
1.6211627
1.7443081
1.8451207
1.9014921
1.8929752
0.34029627
0.34669032
0.35402735
0.36236672
0.37187271
0.38274351
0.39520713
0.40951683
0.42597274
0.44492425
0.46677004
0.49195724
0.52097886
0.55436979
0.59270257
0.63658417
0.68665449
0.74358739
0.8080901
0.88089073
0.96270337
1.0541663
1.155672
1.2671222
1.3875465
1.5143876
1.6425703
1.7628623
1.8599845
1.9109526
1.893075
0.37160182
0.3787766
0.38693573
0.39613459
0.40652902
0.41829179
0.43162403
0.44676471
0.46398595
0.48360447
0.50598691
0.53155204
0.56077113
0.59416637
0.63230776
0.67580941
0.7253259
0.78154926
0.8452034
0.91702747
0.9977359
1.0879505
1.1880322
1.2978373
1.4163289
1.5408711
1.666295
1.7832634
1.8761743
1.9210833
1.8924274
0.40204868
0.4101627
0.41932362
0.42959089
0.4411234
0.45406108
0.46856859
0.48487395
0.50322523
0.52390121
0.54722787
0.57358388
0.60340495
0.63718502
0.67547586
0.7188848
0.76807056
0.82373687
0.88662176
0.95747534
1.0370146
1.1258448
1.2242976
1.3321792
1.44838
1.5701921
1.6923557
1.805443
1.8935452
1.9316876
1.8906916
0.43113524
0.44029589
0.45057793
0.46205716
0.47488826
0.48922178
0.50520289
0.52298958
0.54281431
0.56493754
0.58964014
0.61725085
0.64815546
0.68280072
0.721699
0.7654295
0.8146357
0.87001768
0.932317
1.0022887
1.0806494
1.1679875
1.2646043
1.3702565
1.4837569
1.6023233
1.720625
1.8291657
1.9117681
1.9423862
1.8873873
0.45872874
0.46895795
0.48040499
0.49316605
0.50738951
0.52322706
0.54084758
0.56039338
0.58201035
0.6059238
0.63239366
0.66170672
0.69418951
0.73022442
0.77026123
0.81482452
0.86451521
0.92000401
0.9820142
1.0512893
1.128534
1.2143145
1.3088961
1.4119816
1.5223109
1.6370244
1.7507359
1.8539272
1.930218
1.9525019
1.8817846
0.48497252
0.49624192
0.50883935
0.52288096
0.53852109
0.55591096
0.57520826
0.59658994
0.62023029
0.6462553
0.67482531
0.70621165
0.74069869
0.77860339
0.82030023
0.86623559
0.91693549
0.97300644
1.0351187
1.1039739
1.1802402
1.2644443
1.3568016
1.4569522
1.5635619
1.6737021
1.7819448
1.8788007
1.9478047
1.9608801
1.8727024
0.50994035
0.52220902
0.53592282
0.55121621
0.56825313
0.58719351
0.60819635
0.63142409
0.65704623
0.68524922
0.71620599
0.75002446
0.78686494
0.82702516
0.8708229
0.91861529
0.97083196
1.0279795
1.09063
1.1593991
1.2348787
1.3175215
1.4074662
1.5042704
1.6065165
1.7112164
1.8129176
1.9022135
1.9627189
1.9656143
1.8582116
0.53324471
0.54646599
0.56124889
0.57774744
0.5961363
0.61658656
0.63926749
0.66434747
0.69199264
0.72236822
0.75563806
0.79196604
0.83147921
0.87427405
0.92055269
0.97060702
1.0247671
1.083423
1.1470152
1.2160238
1.2909106
1.372002
1.4593147
1.5522888
1.6494012
1.7475977
1.8414264
1.9216198
1.9720619
1.9636296
1.8353235
0.55383673
0.56796602
0.58377119
0.60142466
0.62111209
0.64301645
0.6673187
0.69419728
0.7238246
0.75636277
0.79196205
0.83076846
0.8729233
0.91853445
0.96763699
1.0202929
1.0767079
1.1371752
1.2019868
1.2714604
1.3458696
1.4253444
1.509715
1.5982494
1.6892772
1.7796518
1.8639334
1.9330391
1.9713276
1.9500745
1.7999473
0.56933667
0.58433554
0.60112577
0.61989432
0.64083827
0.66415342
0.69003354
0.71866809
0.75023724
0.78490589
0.82281787
0.86409246
0.90882789
0.95709894
1.0089607
1.0643901
1.1233582
1.185872
1.2520603
1.3220615
1.3959321
1.4735505
1.5544882
1.6377668
1.7215044
1.8024108
1.8750232
1.930456
1.9537304
1.9174952
1.7478739
0.57587428
0.59167337
0.60937467
0.62917926
0.65129591
0.67593377
0.70330027
0.73359707
0.76701358
0.80371908
0.84385454
0.88752447
0.93479011
0.9856682
1.0401457
1.0981661
1.1596211
1.2242428
1.2918673
1.362251
1.4352444
1.5104593
1.5871729
1.6640747
1.7389832
1.8083792
1.8666824
1.9051287
1.9094851
1.8548882
1.6747003
0.5666096
0.58313223
0.60166576
0.62242242
0.64562283
0.67148953
0.70024339
0.73209783
0.76725062
0.80587397
0.84810345
0.89402675
0.94367291
0.99700357
1.0539103
1.114224
1.1776983
1.2439981
1.312648
1.3830214
1.4546276
1.5265591
1.5978693
1.6668912
1.7310675
1.7865344
1.8274268
1.8449031
1.8253545
1.7471031
1.5704954
0.53210043
0.54918143
0.5683717
0.58988924
0.6139668
0.64084058
0.67074517
0.70390591
0.74052876
0.78078787
0.82481118
0.87266495
0.9243381
0.97972752
1.0386248
1.1007074
1.1655404
1.2326059
1.3012259
1.3706124
1.4396399
1.5070765
1.571439
1.6306844
1.6819899
1.72101
1.741351
1.7337881
1.6851237
1.5758081
1.4124293
0.46272809
0.47952441
0.49850135
0.51988942
0.54394422
0.57092516
0.60108878
0.63467831
0.67191066
0.71296019
0.75794054
0.80688498
0.85972796
0.9162893
0.97621858
1.0389773
1.1037819
1.1699532
1.2366835
1.3029515
1.3674216
1.4284893
1.4841229
1.5319062
1.5686668
1.5895991
1.5875064
1.5525341
1.4723708
1.3328941
1.10483
0.38257654
0.39743266
0.41427681
0.43333762
0.45485944
0.47909308
0.5062831
0.53665036
0.57039915
0.60769875
0.64865288
0.69327606
0.74146978
0.79300251
0.84756156
0.90476615
0.96423964
1.0250107
1.0859287
1.1456593
1.2026755
1.2549364
1.3002964
1.3361102
1.3589171
1.3635898
1.3420905
1.2838775
1.1776229
1.0208199
0.88269925
0.32796351
0.33916032
0.35179904
0.36606325
0.38212841
0.40017743
0.42039984
0.44299369
0.46811703
0.49587845
0.52634242
0.55951235
0.59531761
0.63360578
0.67413972
0.71658722
0.76048465
0.80518166
0.84982177
0.89329939
0.93415627
0.97056678
1.0003999
1.0217738
1.0305569
1.022861
0.99429562
0.93932727
0.8563697
0.75916498
0.70290932
0.34771465
0.35620944
0.36559545
0.37592807
0.38724941
0.39958767
0.41295213
0.42733179
0.44269425
0.45898119
0.4761084
0.49397492
0.51246867
0.53147473
0.55088227
0.57058143
0.59044935
0.61032689
0.62997233
0.64905286
0.66719931
0.68357678
0.69579803
0.70322855
0.70366344
0.69582206
0.67938228
0.65303177
0.61964044
0.5952114
0.56757764
0.42929877
0.43297271
0.43691218
0.44111342
0.44556168
0.45023498
0.45510435
0.4601349
0.46528791
0.47052389
0.47580656
0.48110746
0.48641061
0.49171584
0.49703924
0.50240846
0.50785054
0.51337252
0.51893106
0.52439485
0.52948777
0.5336751
0.53611623
0.53659175
0.53541565
0.53283209
0.52854453
0.52131517
0.51320126
0.51223084
0.49629754
0.0058237108
0.008495101
0.012264305
0.017167289
0.023319298
0.030890023
0.040173511
0.051353969
0.064621693
0.080526353
0.099409752
0.1216729
0.14777536
0.17831584
0.21400407
0.25561663
0.30398363
0.35997468
0.42447226
0.49835451
0.5825013
0.6777702
0.78490431
0.90431569
1.0358139
1.1779442
1.3275204
1.4781245
1.6209246
1.7439586
1.8354449
0.0088454045
0.012506274
0.016976033
0.022389073
0.028941944
0.036935568
0.046752267
0.05829589
0.072035928
0.088369155
0.10765479
0.13031261
0.15682204
0.18778372
0.2238923
0.26590865
0.3146403
0.37093908
0.43566888
0.5096964
0.5938911
0.6891013
0.7960588
0.91516309
1.0462032
1.1876985
1.336428
1.485931
1.6273132
1.7485494
1.8379735
0.010982014
0.0148837
0.019715909
0.025653057
0.032894854
0.041678503
0.052069716
0.064294903
0.078701064
0.095633153
0.11546403
0.13862715
0.16562142
0.19705763
0.23361941
0.27605814
0.32516917
0.3817863
0.44675741
0.52093953
0.60519344
0.70035734
0.80715196
0.92596396
1.0565622
1.1974402
1.3453411
1.4937567
1.6337199
1.7531256
1.840414
0.013302557
0.017648112
0.022954424
0.029380445
0.037180858
0.046471092
0.057358112
0.070162527
0.085161561
0.10266767
0.1230466
0.14672928
0.17422697
0.20614874
0.24317237
0.28603194
0.33552096
0.39245194
0.45766082
0.53199539
0.61630817
0.71142808
0.81806569
0.93659537
1.0667664
1.2070464
1.3541421
1.5014957
1.6400641
1.7576596
1.8428613
0.01551968
0.020317729
0.02610428
0.033061877
0.041385376
0.051145127
0.062583642
0.075951035
0.091508739
0.10955909
0.1304664
0.15466044
0.18265601
0.21505761
0.25253654
0.29580846
0.34566629
0.40290261
0.46834396
0.54282889
0.62720233
0.7222847
0.82877692
0.94704117
1.0768071
1.2165166
1.3628384
1.5091628
1.6463631
1.7621589
1.8452992
0.017755671
0.023004741
0.029265831
0.036772411
0.045555844
0.055817701
0.067785397
0.081683048
0.097763342
0.11632852
0.13773941
0.16242596
0.19090441
0.22377312
0.26169003
0.30536572
0.35557872
0.41311111
0.47877927
0.55341261
0.63784905
0.73290093
0.83925986
0.95727596
1.0866596
1.2258269
1.3714079
1.5167386
1.6526015
1.7666152
1.8475018
0.019934289
0.025646519
0.032405819
0.040403188
0.049672589
0.060452296
0.072935295
0.087339178
0.10391515
0.12296783
0.14485703
0.17001483
0.19895639
0.23227353
0.2706077
0.31467319
0.36522788
0.42304619
0.48893453
0.56371377
0.64821542
0.74324418
0.84948288
0.96726996
1.0962971
1.2349545
1.3798327
1.5242107
1.6587729
1.7710233
1.8497312
0.022096212
0.02826619
0.035538325
0.04397488
0.05374711
0.065030167
0.078007765
0.092894071
0.10994217
0.12945684
0.15180002
0.1774068
0.2067895
0.24052919
0.27926213
0.32369934
0.3745813
0.43267457
0.49877613
0.57369902
0.65826883
0.75328314
0.85941654
0.97699619
1.1056953
1.2438787
1.3880961
1.5315669
1.6648693
1.7753812
1.8517607
0.024208074
0.030835236
0.038593838
0.047494037
0.057756791
0.069523147
0.082973549
0.098320066
0.11581671
0.13576901
0.15854294
0.1845748
0.21437059
0.24850812
0.28762252
0.33241091
0.38360521
0.44196235
0.50827049
0.58333546
0.66797745
0.76298742
0.86903224
0.98642823
1.1148308
1.2525791
1.3961817
1.5387954
1.6708836
1.7796854
1.8538263
0.02628775
0.033370619
0.041568089
0.050945755
0.061676387
0.073903423
0.0878038
0.10358709
0.1215083
0.14187554
0.16505606
0.19148563
0.22166707
0.25617647
0.29565209
0.34077316
0.39226497
0.45087523
0.51738392
0.59259035
0.67730979
0.77232708
0.87830194
0.99554038
1.1236805
1.2610364
1.4040739
1.5458848
1.6768089
1.7839343
1.855868
0.028330841
0.035850591
0.044470619
0.05430694
0.065479323
0.078142111
0.092468543
0.10866558
0.12698785
0.14774485
0.1713033
0.19810018
0.22864201
0.26350338
0.30331489
0.34875047
0.40052538
0.45937868
0.52608285
0.60143134
0.68623496
0.78127296
0.88719851
1.0043079
1.1322226
1.2692317
1.4117578
1.5528246
1.6826391
1.7881262
1.8579036
0.030329256
0.038262837
0.047300481
0.057560487
0.069147646
0.08221869
0.096943053
0.11352686
0.13222306
0.15333831
0.17724327
0.20438005
0.23525897
0.27044715
0.31057396
0.35630675
0.40835107
0.4674383
0.53433411
0.60982666
0.69472286
0.78979684
0.89569584
1.0127071
1.1404361
1.2771474
1.4192192
1.5596047
1.6883682
1.7922587
1.8599109
0.032282351
0.040602701
0.050037876
0.060680423
0.072666463
0.086117693
0.10120497
0.11813847
0.13717194
0.15861297
0.18283503
0.21028792
0.24147626
0.2769694
0.31739245
0.36340584
0.4157069
0.47502018
0.54210519
0.61774543
0.70274438
0.79787155
0.90376893
1.0207155
1.1483013
1.2847667
1.4264451
1.5662157
1.693991
1.7963297
1.8618975
0.034150646
0.042809965
0.052603855
0.063622975
0.075987705
0.089796378
0.10521476
0.12246265
0.14179226
0.16352589
0.18804129
0.21578143
0.24725554
0.28303326
0.32373374
0.37001195
0.42255826
0.48209107
0.54936447
0.62515778
0.71027155
0.80547117
0.91139407
1.0283116
1.1557995
1.292074
1.4334229
1.5726488
1.6995025
1.8003373
1.8638597
0.035825057
0.04483249
0.055000369
0.066375621
0.079051992
0.093174274
0.10890275
0.12643814
0.14604278
0.16804026
0.19281939
0.22082208
0.25256041
0.28860207
0.32956168
0.37608997
0.42887137
0.48861877
0.55608147
0.63203508
0.71727775
0.81257116
0.91854889
1.0354756
1.1629133
1.2990546
1.4401411
1.578896
1.7048984
1.8042798
1.8656636
0.037606593
0.046856375
0.05726129
0.068902925
0.081856238
0.096241631
0.11222687
0.13001501
0.1498689
0.1721121
0.19713137
0.22537421
0.2573547
0.2936397
0.33484096
0.38160579
0.43461356
0.49457229
0.56222706
0.63835014
0.7237378
0.81914845
0.92521256
1.0421889
1.1696265
1.3056951
1.4465893
1.58495
1.710175
1.8081569
1.8674806
0.039328102
0.048775486
0.059368795
0.071211508
0.084376911
0.098982613
0.115183
0.13318389
0.15325136
0.17571029
0.20094431
0.22940306
0.26160302
0.2981112
0.33953756
0.38652662
0.4397536
0.49992215
0.56777366
0.64407739
0.72962823
0.82518168
0.93136583
1.0484344
1.1759245
1.3119833
1.4527578
1.5908041
1.7153287
1.8119672
1.8691997
0.041033176
0.050615732
0.061339036
0.073301042
0.086607086
0.10136657
0.11773417
0.13591432
0.15616594
0.17880709
0.20422665
0.23287501
0.26527141
0.3019831
0.34361893
0.39082123
0.44426187
0.50464054
0.57269546
0.64919303
0.7349273
0.83065121
0.93699119
1.0541968
1.1817942
1.3179082
1.4586382
1.5964523
1.7203567
1.8157109
1.8709037
0.042677253
0.052346569
0.063149619
0.075184986
0.088555376
0.1033885
0.1198524
0.13815316
0.15854444
0.18134242
0.20693012
0.23575572
0.26832758
0.30522369
0.34705436
0.39446025
0.44811059
0.50870155
0.57696851
0.65367518
0.73961523
0.83553932
0.94207298
1.0594625
1.187224
1.3234605
1.4642231
1.6018897
1.7252567
1.8193875
1.8724682
0.044261477
0.053953117
0.064776503
0.076835173
0.090230397
0.105094
0.12160215
0.13996622
0.16044011
0.18333884
0.20904215
0.23799789
0.27071646
0.30777805
0.34980198
0.39741492
0.45127389
0.51208121
0.5805709
0.65750396
0.7436742
0.83983026
0.9465974
1.0642196
1.1922037
1.3286318
1.469506
1.6071118
1.7300268
1.8229983
1.8740365
0.045776754
0.055420923
0.066197604
0.078218284
0.091584318
0.1064261
0.1229238
0.14130273
0.16181478
0.18477572
0.21056256
0.23962215
0.27246532
0.30967121
0.35186074
0.39966166
0.45372757
0.51474963
0.58347671
0.66066134
0.74708851
0.84351031
0.95055267
1.0684582
1.1967252
1.3334154
1.474482
1.6121151
1.7346655
1.8265427
1.8754886
0.047217284
0.056739344
0.067394113
0.079306906
0.092580356
0.10736634
0.12383074
0.14220221
0.16272175
0.18569929
0.2115072
0.24062448
0.27356182
0.31088718
0.35321111
0.40117845
0.45545154
0.51670383
0.58568013
0.6631319
0.74983677
0.84656769
0.95392905
1.07217
1.2007819
1.3378062
1.479147
1.616897
1.739172
1.8300222
1.8769309
0.048616254
0.057924152
0.068364981
0.080087014
0.09323606
0.10793296
0.12433848
0.14260538
0.16302873
0.18595041
0.2117385
0.24088883
0.27389769
0.31133104
0.35380014
0.40194413
0.45642873
0.51793487
0.58716736
0.66490387
0.75192474
0.84899023
0.95671964
1.0753499
1.2043697
1.3418012
1.4834991
1.6214564
1.7435465
1.8334375
1.8783427
0.050047849
0.059030932
0.069140101
0.080570832
0.093474838
0.10797662
0.12422272
0.14238335
0.16273588
0.18560667
0.21136419
0.24050996
0.27355352
0.31106269
0.3536514
0.40195532
0.45663909
0.5183835
0.58789275
0.66593596
0.753296
0.85074774
0.95890535
1.0779951
1.2074869
1.345399
1.4875368
1.625792
1.7477886
1.83679
1.8797043
0.0058690593
0.0085171895
0.012135883
0.016863794
0.022778025
0.030004416
0.038886783
0.049599233
0.062352814
0.077686247
0.09597386
0.11762687
0.14316482
0.17314989
0.20828988
0.24937467
0.29725114
0.35280314
0.41692751
0.4905285
0.57448958
0.66964861
0.77674376
0.89621002
1.0278711
1.1702935
1.3203263
1.4716066
1.615391
1.7398125
1.8326606
0.0062507974
0.0090077135
0.012578225
0.01717028
0.022886728
0.02998126
0.038723683
0.049281611
0.061932901
0.076996057
0.094935226
0.11621407
0.14136188
0.17096927
0.20573601
0.24644452
0.29395099
0.3491486
0.41294323
0.4862462
0.5699517
0.66490347
0.77184404
0.89121359
1.022845
1.1653205
1.3155178
1.4671259
1.6114892
1.7368324
1.8311089
0.0066679512
0.0094910544
0.013058379
0.017592479
0.023213862
0.030150094
0.038708231
0.049037249
0.061423524
0.076198884
0.093811515
0.11473493
0.13950559
0.16872322
0.20309183
0.24339762
0.29050577
0.34531799
0.40875132
0.48172604
0.56514922
0.65986993
0.76663586
0.88589327
1.017485
1.1600103
1.3103776
1.4623317
1.6073085
1.7336296
1.8294055
0.0071061073
0.0099665776
0.013529513
0.018007955
0.023536404
0.030320663
0.038694835
0.048797249
0.060918735
0.075400608
0.092677797
0.11323214
0.13760797
0.16641239
0.20035714
0.24023138
0.28690958
0.34130377
0.4043427
0.47695828
0.56007027
0.6545332
0.76110248
0.88023065
1.0117714
1.1543425
1.3048851
1.4572042
1.6028321
1.7301905
1.827547
0.0075695908
0.01044605
0.013997543
0.018419036
0.023855039
0.030495136
0.038683616
0.048561835
0.060418974
0.074604684
0.09153658
0.11170819
0.1356726
0.16404053
0.19753599
0.23694875
0.28316383
0.33710507
0.39971408
0.47193682
0.55470434
0.64888002
0.75522776
0.87420713
1.0056836
1.148295
1.2990176
1.4517213
1.5980266
1.7264617
1.8254777
0.0080574673
0.010935271
0.014467425
0.018830157
0.024173598
0.030675489
0.038676355
0.048332022
0.059924575
0.073805719
0.090389797
0.11017225
0.1337115
0.16162871
0.19464366
0.23356523
0.27928372
0.33273582
0.39487776
0.46667081
0.54905761
0.64291513
0.74901452
0.86782383
0.99922093
1.1418646
1.2927674
1.4458641
1.5928677
1.7224153
1.8230486
0.0085665924
0.01143388
0.014939763
0.019242065
0.024493846
0.030861606
0.038675275
0.048110288
0.059438472
0.073004546
0.08924542
0.10863751
0.13173769
0.15918349
0.19169297
0.23009273
0.27527941
0.32820366
0.38983806
0.46116054
0.54312704
0.63663156
0.74245234
0.86106706
0.99236688
1.1350324
1.2861132
1.4396087
1.5873465
1.7180651
1.8203305
0.0091038386
0.011953449
0.015426837
0.019666865
0.024827821
0.03106426
0.038692262
0.047908352
0.058973662
0.072234131
0.088116718
0.10710174
0.12974829
0.15669844
0.18867932
0.22652545
0.27114301
0.32349787
0.38458067
0.45538765
0.53688963
0.63000134
0.73550826
0.85389934
0.9850805
1.1277561
1.2790156
1.4329278
1.5814389
1.713387
1.817269
0.0096721775
0.012498181
0.015933193
0.020108511
0.025178654
0.031285026
0.038728514
0.047726523
0.058529348
0.071481506
0.087002673
0.10557139
0.12775046
0.15418539
0.18561033
0.22287117
0.26688119
0.31862324
0.3791076
0.44935014
0.53034121
0.62301584
0.72816831
0.84630269
0.97734037
1.1200118
1.2714488
1.4257954
1.5751194
1.7083556
1.8138981
0.010278062
0.013076308
0.01646815
0.020576761
0.025551946
0.031529785
0.038790041
0.047570589
0.058110991
0.070752867
0.085912299
0.10405343
0.12575186
0.1516529
0.18249383
0.2191389
0.26250204
0.31358618
0.37342259
0.44304906
0.52347888
0.61566512
0.72041931
0.83825951
0.96912493
1.1117746
1.2633861
1.4181843
1.5683608
1.7029448
1.8101386
0.010929483
0.013695927
0.017040293
0.02107924
0.025956366
0.031805591
0.038883536
0.047446942
0.057724598
0.07005391
0.084846215
0.10255409
0.12376043
0.14911054
0.17935231
0.21533915
0.25801517
0.30839486
0.3675314
0.43648679
0.51629945
0.60794194
0.71224949
0.82975341
0.96041351
1.1030203
1.2548008
1.4100671
1.5611344
1.6971288
1.8059911
0.011634117
0.01436506
0.017657995
0.02162395
0.026400345
0.032120038
0.039016158
0.047362375
0.057376378
0.069389015
0.083793128
0.10107835
0.12178432
0.14656742
0.17618449
0.21148239
0.25343149
0.30305918
0.36144172
0.42966752
0.5088025
0.59984104
0.70364858
0.82076886
0.95118572
1.0937247
1.2456658
1.4014156
1.5534115
1.690882
1.8016692
0.012401648
0.015093016
0.018330336
0.022219539
0.026892397
0.032480998
0.039195341
0.047323971
0.0570734
0.068768148
0.082796751
0.099638054
0.1198326
0.14403287
0.17299638
0.2075796
0.24876318
0.29759072
0.35516331
0.42259785
0.50098978
0.59136175
0.69460954
0.81129162
0.94142192
1.0838635
1.2359536
1.392201
1.5451625
1.6841771
1.796831
0.013240606
0.01588828
0.019065631
0.022874289
0.027440666
0.032896146
0.039428437
0.047338765
0.056822664
0.068198299
0.081849178
0.098242411
0.11791464
0.14151707
0.16980596
0.20364236
0.24402369
0.2920028
0.34870809
0.41528693
0.49286734
0.58250572
0.68512417
0.80130907
0.93110356
1.0734131
1.2256368
1.3823942
1.5363584
1.6769896
1.7915104
0.014159489
0.016758711
0.019871704
0.023595882
0.028052611
0.033372487
0.039722167
0.047413268
0.056630661
0.067685936
0.080956707
0.096907186
0.11603983
0.13903015
0.16662515
0.1996865
0.23922788
0.28631033
0.34209006
0.40774645
0.48444308
0.5732734
0.67518755
0.79081048
0.92021361
1.0623507
1.2146882
1.3719657
1.5269707
1.6692972
1.7860583
0.015165931
0.017711498
0.020755179
0.024390443
0.028733773
0.03391499
0.040083755
0.047552515
0.056502608
0.067235974
0.080121701
0.0956062
0.11421136
0.1365812
0.1634665
0.19574273
0.23439195
0.28052961
0.33532535
0.39999072
0.47572749
0.56366925
0.66479818
0.77978808
0.90873702
1.0506549
1.2030814
1.3608859
1.5169697
1.6610699
1.7797371
0.016261021
0.018747994
0.021717654
0.025259796
0.029486167
0.034526152
0.040517711
0.04775973
0.056441906
0.066852031
0.079348995
0.09436097
0.11243674
0.13417891
0.16033946
0.19179364
0.22952965
0.27467797
0.32843199
0.39203666
0.46673441
0.55370172
0.65396212
0.76823886
0.89666134
1.0383059
1.1907907
1.3491252
1.506325
1.6522804
1.7733079
0.017442788
0.019866443
0.022757628
0.026202873
0.030309573
0.0352067
0.041021618
0.04803628
0.056450013
0.066536811
0.078646217
0.093201516
0.11072775
0.13183233
0.15725459
0.18786434
0.22465555
0.26877371
0.32142972
0.38390374
0.45748106
0.54338508
0.64268862
0.75615895
0.88397692
1.0252862
1.1777919
1.3366542
1.4950056
1.6428951
1.7661406
0.018699736
0.021056625
0.023866354
0.027212507
0.031198455
0.035951042
0.041590221
0.048379304
0.056525331
0.066290033
0.078013469
0.092110367
0.10909003
0.12954931
0.15422193
0.18396958
0.21978104
0.26283609
0.31433978
0.37561384
0.44798784
0.53273592
0.63098474
0.74354967
0.87067743
1.011581
1.1640626
1.3234438
1.4829793
1.6328778
1.7586009
0.020019017
0.022306478
0.025032615
0.028278414
0.032143433
0.036749778
0.042215085
0.048782253
0.056663025
0.066108553
0.077449335
0.091091189
0.10753922
0.12733741
0.1512504
0.18012377
0.21495641
0.25688685
0.30718466
0.3671909
0.43827822
0.52177433
0.61886397
0.73041692
0.85676112
0.99717903
1.1495826
1.3094658
1.4702115
1.6221896
1.7506765
0.021380925
0.023598203
0.026240362
0.029385846
0.033130518
0.037591614
0.042885334
0.049235565
0.056855131
0.06598579
0.076947427
0.090131973
0.10601374
0.12518738
0.14834433
0.17633494
0.21015922
0.25094243
0.29998726
0.35866067
0.42837865
0.51052468
0.60634548
0.71677855
0.84223267
0.98207281
1.1343343
1.2946923
1.4566657
1.6107884
1.7422446
0.022770776
0.024915118
0.027472197
0.030517655
0.034143467
0.038461928
0.043587529
0.04972709
0.057091158
0.065912991
0.076501422
0.089234954
0.1045734
0.12310867
0.14550886
0.17261041
0.20540248
0.24501802
0.29277047
0.35005027
0.41831819
0.49901539
0.59345586
0.70265475
0.82709567
0.96625904
1.1183033
1.2790972
1.4423045
1.5986265
1.732898
0.024176741
0.026247663
0.028718907
0.031664077
0.035171796
0.039349756
0.044310349
0.050245511
0.05736049
0.065880823
0.076104302
0.088397192
0.1032098
0.12110433
0.14274819
0.16895803
0.2007086
0.23912402
0.28555742
0.34138788
0.40812813
0.48727835
0.58022368
0.68806246
0.81136148
0.94974003
1.101479
1.2626556
1.4270886
1.5856496
1.7237516
0.025578528
0.027577097
0.029963509
0.032809567
0.036201008
0.040241381
0.045040706
0.05077824
0.057651501
0.065878904
0.075747143
0.087609988
0.10190435
0.11917129
0.14006472
0.1653847
0.19609254
0.23332262
0.27837487
0.33270236
0.39784151
0.47534867
0.56668253
0.67302961
0.79505689
0.93252577
1.083855
1.2453445
1.4109774
1.5717884
1.7131934
0.026972714
0.02889871
0.031200317
0.033947647
0.037223877
0.041128827
0.045769891
0.051315831
0.057954647
0.065898054
0.07542168
0.08686688
0.10065788
0.11732732
0.1374638
0.16189559
0.19156037
0.22758345
0.27124043
0.32402165
0.38749251
0.46326417
0.55287072
0.65759311
0.77821312
0.91462596
1.0654295
1.2271429
1.3939273
1.5569673
1.7018792
0.028347058
0.030202813
0.032421326
0.035071225
0.038233582
0.042005064
0.046490409
0.051850042
0.058261297
0.065929405
0.075118633
0.086156591
0.099449349
0.11549561
0.13492509
0.15848826
0.18711572
0.22191581
0.2641682
0.31537247
0.37711578
0.45106482
0.53883035
0.64179263
0.76085616
0.89605779
1.046206
1.2080317
1.3758892
1.5410868
1.689756
0.029693772
0.031482323
0.033620212
0.03617463
0.039224829
0.042864809
0.047196706
0.052374464
0.058564423
0.065965409
0.074830226
0.08547243
0.098280709
0.11373386
0.13245632
0.15516405
0.1827642
0.21634503
0.25717361
0.3067812
0.3667459
0.43879199
0.52460678
0.62567278
0.74302337
0.87685935
1.0261953
1.1879947
1.3568101
1.524025
1.6764329
0.031003491
0.032730207
0.034791895
0.037254252
0.040194892
0.043705581
0.047886076
0.052885399
0.058859405
0.066000659
0.074550822
0.084809869
0.097150956
0.112039
0.1300604
0.15192498
0.17851133
0.21088624
0.25032327
0.29827859
0.35641708
0.42648772
0.51024784
0.60928335
0.72476369
0.85706977
1.0054051
1.1670192
1.3366329
1.5056553
1.6614904
0.032268211
0.033939336
0.03593053
0.038305686
0.041140661
0.04452514
0.048556676
0.053380497
0.059143172
0.066031232
0.074275739
0.084163445
0.096051772
0.11038742
0.12772985
0.14876981
0.17435939
0.2055408
0.24356838
0.28987951
0.3461605
0.41419367
0.49580305
0.59267776
0.70612787
0.83672069
0.98386981
1.1450967
1.3152986
1.4858411
1.6444352
0.033483328
0.035105059
0.037032161
0.039326032
0.042060484
0.045322841
0.049209316
0.053860057
0.059415463
0.066055873
0.074002597
0.083529847
0.094979779
0.1087816
0.12547691
0.14570232
0.17031075
0.20031256
0.23693079
0.28159352
0.33600464
0.40195033
0.48132259
0.57591233
0.68717243
0.81586334
0.96162605
1.1222155
1.29275
1.4644378
1.6246935
0.034642984
0.036221158
0.038090419
0.040309527
0.042949579
0.046094929
0.049841647
0.054322596
0.059675135
0.066073229
0.073729344
0.082905843
0.093929577
0.10720995
0.12325962
0.14270875
0.16636261
0.19520623
0.23043451
0.27346305
0.32598056
0.38979703
0.46685648
0.55904536
0.66795841
0.79455251
0.93869972
1.0983909
1.2689404
1.4413235
1.6015205
0.035746678
0.037286297
0.039103436
0.04125396
0.043806041
0.046840755
0.050452486
0.054768477
0.05992278
0.066083609
0.073455384
0.082289271
0.092896869
0.10566684