/*--------------------------------*- C++ -*----------------------------------*\
| =========                 |                                                 |
| \\      /  F ield         | OpenFOAM: The Open Source CFD Toolbox           |
|  \\    /   O peration     | Version:  2406                                  |
|   \\  /    A nd           | Website:  www.openfoam.com                      |
|    \\/     M anipulation  |                                                 |
\*---------------------------------------------------------------------------*/
FoamFile
{
    version     2.0;
    format      ascii;
    arch        "LSB;label=32;scalar=64";
    class       volScalarField;
    location    "0.04";
    object      nut;
}
// * * * * * * * * * * * * * * * * * * * * * * * * * * * * * * * * * * * * * //

dimensions      [0 2 -1 0 0 0 0];

internalField   nonuniform List<scalar> 
8260
(
0.045314301
0.051926136
0.059897047
0.069172081
0.079761157
0.091724831
0.10516653
0.12023044
0.13712578
0.15611989
0.17753148
0.20175524
0.22922122
0.26040204
0.2958021
0.33594791
0.38138644
0.43268085
0.49041665
0.5552291
0.62776933
0.70868153
0.79847562
0.89734532
1.0048459
1.1193441
1.2372386
1.3518994
1.4525519
1.5257565
1.5589454
0.053612045
0.060477037
0.068266833
0.077199179
0.087399853
0.098977687
0.11205927
0.12680471
0.14342666
0.16219261
0.18342297
0.20750386
0.23486184
0.26596319
0.30130417
0.34140125
0.3867939
0.43804014
0.49572274
0.56047229
0.63293798
0.71375963
0.80344332
0.90217597
1.0095011
1.1237697
1.2413568
1.3555932
1.4556213
1.5278432
1.5596146
0.063288304
0.070066708
0.077674859
0.086320866
0.0961651
0.10735812
0.12005924
0.13445224
0.15076145
0.16926084
0.19027478
0.21418173
0.24140327
0.27240065
0.3076608
0.34768919
0.39301721
0.4441972
0.50180856
0.56647703
0.6388493
0.71956025
0.80911116
0.90768082
1.014799
1.1287983
1.2460259
1.3597679
1.4590766
1.5301711
1.5602379
0.07453326
0.081021348
0.088360287
0.096694087
0.10617996
0.11698547
0.12929353
0.14331042
0.15927641
0.17747573
0.19823822
0.22193915
0.24899347
0.27985658
0.31500813
0.35494162
0.40017991
0.45126944
0.50878561
0.57334931
0.64560414
0.72617943
0.81557055
0.91394672
1.0208221
1.1345084
1.2513213
1.364497
1.4629863
1.5327974
1.5609044
0.087491752
0.093577546
0.1005698
0.10853935
0.11763808
0.1280386
0.1399368
0.15355559
0.16915066
0.18701762
0.20749289
0.23095187
0.25780501
0.28849893
0.3235069
0.36331271
0.40842958
0.45939802
0.51678888
0.58121816
0.65332579
0.73373482
0.82293334
0.92107936
1.0276693
1.1409909
1.2573248
1.3698511
1.467407
1.535757
1.5616512
0.10223774
0.10790101
0.11449457
0.12205591
0.13073593
0.14070981
0.15218053
0.16538204
0.18058242
0.1980877
0.21824122
0.24142055
0.26803451
0.29852091
0.33334359
0.37298108
0.41793738
0.46874665
0.52597479
0.5902329
0.66215661
0.74236189
0.83132794
0.92919956
1.035453
1.1483488
1.2641282
1.3759092
1.4724011
1.5390883
1.5624666
0.11882237
0.12408278
0.13026631
0.13740484
0.14565281
0.15518936
0.16622309
0.17899587
0.19378521
0.21090572
0.2307072
0.25357051
0.27990412
0.31014012
0.34473193
0.38415195
0.42889979
0.47950329
0.53652276
0.60056456
0.67225938
0.75221512
0.84090027
0.93844407
1.0442997
1.1566973
1.2718336
1.3827579
1.4780369
1.5428323
1.5633446
0.13726101
0.14216691
0.14796792
0.15470513
0.16253798
0.17165041
0.18225657
0.19460497
0.20898041
0.22570429
0.24513187
0.26764753
0.29366023
0.32359862
0.35790978
0.39705811
0.44153984
0.49188149
0.54863698
0.61240786
0.68381931
0.76347007
0.85181576
0.94896735
1.0543519
1.1661649
1.2805537
1.3904921
1.484388
1.5470323
1.5642713
0.1575183
0.16214362
0.16762726
0.17402316
0.1814944
0.19022949
0.2004474
0.2124018
0.22638288
0.24271693
0.2617634
0.2839098
0.30956631
0.33916061
0.37313703
0.41195594
0.45610805
0.50612111
0.56254759
0.62598285
0.6970459
0.77632513
0.86426092
0.96094284
1.0657683
1.1768937
1.2904121
1.3992141
1.4915323
1.5517327
1.5652213
0.17946941
0.18391432
0.1891872
0.19534627
0.20255381
0.21100154
0.22091123
0.23253932
0.24617869
0.26215822
0.28083979
0.30261329
0.32789086
0.35710163
0.3906907
0.42912017
0.47287745
0.52248806
0.57851024
0.64153513
0.71217356
0.79100244
0.87844423
0.97456359
1.0787244
1.1890394
1.3015418
1.4090323
1.4995504
1.5569773
1.566153
0.20290299
0.20729075
0.21249649
0.21856618
0.22565619
0.23395593
0.24368607
0.25510204
0.26849573
0.28419524
0.30256236
0.32398803
0.34888677
0.37769148
0.41085173
0.44883524
0.49213289
0.54126841
0.59680416
0.65933411
0.72946081
0.80774749
0.89459591
0.99004191
1.0934117
1.2027696
1.3140834
1.4200579
1.508522
1.5628059
1.5670012
0.22753857
0.23204405
0.23734748
0.24349842
0.25065011
0.25898195
0.26870743
0.28007462
0.29336833
0.30891058
0.32705909
0.34820349
0.37276009
0.40116688
0.43388088
0.4713788
0.51416
0.56275374
0.6177246
0.67966879
0.74918667
0.8268265
0.91296567
1.0076071
1.1100351
1.2182601
1.3281807
1.4323998
1.5185204
1.5692491
1.5676694
0.25303688
0.25783389
0.26342418
0.26985852
0.2772796
0.28585556
0.29578842
0.30731266
0.32069954
0.33625897
0.35433911
0.37532369
0.39962781
0.42769334
0.45998562
0.49699263
0.53922609
0.58722607
0.64156453
0.70283794
0.7716436
0.84852005
0.93381715
1.0274999
1.1288068
1.2356891
1.3439729
1.4461563
1.5296031
1.5763202
1.5680204
0.27894903
0.28421639
0.29028964
0.29721631
0.30512795
0.31418184
0.3245625
0.33648664
0.35020683
0.36601443
0.38424073
0.40525632
0.42946873
0.45731897
0.48927817
0.5258453
0.56754625
0.61493523
0.66859513
0.72912747
0.797124
0.87311197
0.95741724
1.0499627
1.1499361
1.2552254
1.3615823
1.4614003
1.5417967
1.5840012
1.5678786
0.30472635
0.31062759
0.31736846
0.32499189
0.33361862
0.34339139
0.35447615
0.36707086
0.38140589
0.39774729
0.41640107
0.4377154
0.46208093
0.4899292
0.52172999
0.55798848
0.59924256
0.64606084
0.69903885
0.75878574
0.82589173
0.90086944
0.98401872
1.0752218
1.1736117
1.2770092
1.3810931
1.4781572
1.5550733
1.5922209
1.5671065
0.32984603
0.33651065
0.3440674
0.3525597
0.36210093
0.37281948
0.38486412
0.39840926
0.41366002
0.43085472
0.4502681
0.47221683
0.49706339
0.52521717
0.55713404
0.59331434
0.63429966
0.68066805
0.73302579
0.79198976
0.85815042
0.93200569
1.0138292
1.1034602
1.1999726
1.3011226
1.4025195
1.4963692
1.569312
1.6008175
1.565429
0.35391336
0.36142971
0.36989927
0.37938039
0.38998704
0.40183308
0.41505674
0.42980929
0.44626711
0.46463799
0.48516328
0.5081231
0.53384088
0.56268865
0.59509108
0.63152641
0.67252442
0.71866033
0.77054291
0.828792
0.89399598
0.96663769
1.0469633
1.1347689
1.2290645
1.327542
1.425755
1.5158407
1.5842403
1.6094793
1.5624579
0.37682731
0.38521705
0.39463845
0.40516574
0.41691033
0.42999293
0.44454544
0.46070184
0.47860933
0.49844622
0.52041552
0.54475665
0.57174895
0.60171594
0.63503322
0.67213564
0.71351908
0.75973526
0.811378
0.86905705
0.93334964
1.0047187
1.0833784
1.1690779
1.2607658
1.3560681
1.4504955
1.5361545
1.5993421
1.6176495
1.5576002
0.39870503
0.40794947
0.41831499
0.42989125
0.44279473
0.45714916
0.4730856
0.49073933
0.51025571
0.53177886
0.55546153
0.58150537
0.61013312
0.64161519
0.67627144
0.71447673
0.7566678
0.80334491
0.85505902
0.91238542
0.97587061
1.0459432
1.1227746
1.2060592
1.294683
1.3862121
1.476126
1.5565455
1.6137183
1.6243786
1.5498909
0.41958426
0.42965355
0.44093836
0.453543
0.46759198
0.48321531
0.5005474
0.51972698
0.54089526
0.56419247
0.58976463
0.61775152
0.64830413
0.68163702
0.71800196
0.75770596
0.80111441
0.84864867
0.90078124
0.95801765
1.0208412
1.0896187
1.1644563
1.2449784
1.3300002
1.4170353
1.5015461
1.5757159
1.6258773
1.6280979
1.5377461
0.43914187
0.45000198
0.46217101
0.47576938
0.49093146
0.50779645
0.52650603
0.54720214
0.57002563
0.59511651
0.62260957
0.65262856
0.68530602
0.72076358
0.75915603
0.80070702
0.84568705
0.89442725
0.94729947
1.0047011
1.0670092
1.134486
1.2071361
1.2844852
1.3652595
1.4469159
1.524919
1.5915657
1.6334302
1.6262784
1.5187032
0.45649137
0.46810916
0.48112742
0.49568206
0.51191787
0.52998426
0.55003216
0.57221095
0.5966654
0.62353317
0.65294372
0.68501927
0.71985983
0.75755676
0.79819827
0.84186605
0.88869449
0.93890111
0.99273874
1.0504816
1.1123556
1.1784632
1.248655
1.3223136
1.3980429
1.4732224
1.5433278
1.6008116
1.6326614
1.614937
1.4893915
0.46964858
0.48199476
0.49583378
0.51131423
0.52859181
0.54782677
0.56918025
0.59281019
0.61886702
0.64748904
0.67879805
0.71289724
0.74987354
0.78979033
0.83267727
0.87853848
0.9274022
0.97926827
1.0342171
1.0923546
1.153735
1.2182615
1.2855744
1.3548533
1.4245274
1.4918581
1.5523048
1.59849
1.6179723
1.5879501
1.4463811
0.47539339
0.48841256
0.5030134
0.51935704
0.53761045
0.55794527
0.5805336
0.60554304
0.6331312
0.6634395
0.69658646
0.73266131
0.77171912
0.81378012
0.85883597
0.90682164
0.95765038
1.0111663
1.0672625
1.1256935
1.1863087
1.248796
1.3125639
1.3765223
1.4388549
1.4966363
1.5452332
1.5773792
1.5812767
1.5362357
1.3861613
0.46804256
0.48167182
0.49697001
0.51410854
0.53326573
0.55462459
0.57836807
0.6046731
0.63370378
0.66560339
0.70048543
0.73842434
0.77944676
0.82352461
0.87057346
0.92045941
0.97298059
1.0278431
1.0846822
1.143032
1.2024634
1.2621941
1.3214387
1.3788229
1.4322275
1.4784471
1.5126191
1.5274246
1.5116118
1.4472149
1.3006852
0.43976565
0.45386855
0.46971957
0.48749604
0.50738772
0.52958927
0.55429481
0.58169087
0.61194808
0.64521095
0.68158615
0.72112981
0.76383466
0.80961794
0.85831069
0.9096512
0.96328618
1.0187894
1.0755804
1.1330109
1.1902196
1.2461973
1.2996583
1.3489001
1.3915992
1.4241631
1.4412983
1.4353787
1.3955149
1.305581
1.1712803
0.38257901
0.39645714
0.41214072
0.42981857
0.4497005
0.47200059
0.49693094
0.52469283
0.55546574
0.58939403
0.62657211
0.66702835
0.71070977
0.75746912
0.80701893
0.85891678
0.91251826
0.96726594
1.0224958
1.0773624
1.1307454
1.1813542
1.2275375
1.2672489
1.297856
1.3153965
1.3139193
1.2852808
1.2193284
1.1043905
0.91577685
0.31638456
0.32866631
0.34259324
0.35835357
0.37614863
0.39618563
0.41866675
0.4437746
0.47167813
0.50251747
0.53637863
0.57327404
0.61312294
0.65573492
0.70085269
0.74816305
0.79735635
0.84763158
0.89804101
0.94748446
0.9946959
1.0379724
1.0755727
1.1053263
1.1243341
1.1283574
1.1107526
1.0628108
0.97519028
0.84589094
0.73251433
0.27127112
0.28052962
0.29098102
0.30277693
0.3160622
0.33098797
0.34771086
0.36639454
0.38716967
0.41012601
0.43531706
0.46274611
0.49235532
0.52401946
0.55754331
0.59265348
0.62896799
0.66594958
0.7028892
0.73887191
0.77269381
0.80284315
0.82754278
0.84526638
0.8526139
0.84633366
0.822794
0.77743066
0.7089431
0.62875011
0.58318088
0.28753478
0.2945585
0.30231923
0.3108628
0.32022396
0.33042594
0.34147664
0.3533674
0.36607185
0.37954226
0.39370924
0.4084892
0.42378948
0.43951517
0.45557479
0.47187723
0.48832058
0.50477331
0.5210358
0.53683341
0.55186174
0.56543221
0.57557047
0.58173998
0.58211551
0.57565563
0.56208721
0.54031641
0.51271678
0.49243792
0.46993006
0.35505783
0.35809059
0.36134515
0.36481857
0.36849854
0.37236672
0.37639905
0.38056651
0.38483688
0.38917728
0.39355742
0.39795348
0.40235194
0.4067524
0.41116796
0.41562132
0.42013487
0.42471457
0.4293249
0.43385781
0.43808584
0.44156812
0.44361102
0.44403343
0.44309507
0.440986
0.43744383
0.43145542
0.42472614
0.42371565
0.41086047
0.0048998691
0.0071482454
0.01032069
0.014445918
0.019618783
0.025978658
0.033768229
0.043137652
0.054239759
0.06752956
0.083284313
0.10183115
0.12355709
0.14895496
0.17859982
0.21314588
0.25328323
0.29972729
0.35321438
0.41447291
0.48423562
0.56322005
0.65204331
0.75105951
0.8600965
0.97799121
1.102013
1.227041
1.3453356
1.4477539
1.5234195
0.0074466341
0.01052823
0.014290435
0.018843617
0.02435071
0.031061354
0.039292609
0.048958161
0.060446684
0.074085341
0.090164955
0.10903241
0.13109394
0.1568348
0.18682371
0.2217041
0.26214355
0.30884353
0.36252318
0.42390256
0.49370599
0.57264217
0.66131867
0.760079
0.86873436
0.98610007
1.1094172
1.2335278
1.350636
1.4515402
1.525453
0.009254433
0.01254109
0.016609768
0.021603612
0.02768796
0.035058687
0.043765936
0.053994986
0.066032117
0.080160812
0.096684284
0.11596562
0.13842191
0.16454406
0.19490173
0.23012887
0.27087507
0.3178321
0.37170551
0.43320756
0.50305496
0.58194821
0.67048586
0.76900073
0.87728737
0.99413898
1.1167671
1.2399728
1.3559015
1.4552858
1.5274325
0.011222903
0.014884722
0.01935235
0.024755601
0.031306126
0.03909724
0.048213762
0.058919569
0.071443398
0.086041292
0.10301321
0.12272014
0.14558254
0.17209629
0.20283114
0.23840357
0.27945422
0.32666533
0.38073091
0.44235567
0.51224931
0.59110463
0.67951159
0.77779246
0.88572534
1.0020812
1.1240414
1.2463642
1.3611313
1.4590034
1.5293966
0.013108689
0.017152044
0.022022809
0.027870451
0.034856105
0.043035157
0.052606205
0.063773613
0.076754879
0.091798572
0.109203
0.12932525
0.15258986
0.17949311
0.21060315
0.24651148
0.28786032
0.33531986
0.38957418
0.45132058
0.5212623
0.6000849
0.68837016
0.78642994
0.89402613
1.0099076
1.1312245
1.2526905
1.3663178
1.4626892
1.5313495
0.015013062
0.019435686
0.024704034
0.031009832
0.038376273
0.046969305
0.056974201
0.068576264
0.081986349
0.097449261
0.11526356
0.13578598
0.15944102
0.18672639
0.21819838
0.25443165
0.2960699
0.34377059
0.39820909
0.46007554
0.5300672
0.60886282
0.69703642
0.79488964
0.90216845
1.0175996
1.1383014
1.2589407
1.3714542
1.4663395
1.5331036
0.016870403
0.021681385
0.027365881
0.034080088
0.041848164
0.050867015
0.061294931
0.073311992
0.087125705
0.10298517
0.1211886
0.14209314
0.16612383
0.19377898
0.22559271
0.26214041
0.30405754
0.35199114
0.40660869
0.46859349
0.53863728
0.61741244
0.70548562
0.80314851
0.91013147
1.0251392
1.1452575
1.265104
1.3765339
1.4699491
1.5348616
0.018712592
0.023907767
0.0300194
0.037096005
0.045278802
0.054711586
0.065545149
0.077956468
0.09215433
0.10838953
0.12696151
0.14822939
0.17262119
0.20062676
0.2327626
0.2696119
0.31179631
0.35995416
0.41474548
0.47684715
0.54694587
0.62570805
0.71369339
0.81118399
0.91789496
1.0325091
1.1520788
1.2711703
1.3815505
1.4735169
1.5364904
0.020508573
0.026085861
0.032601865
0.040061612
0.048648642
0.058478183
0.069698759
0.082485729
0.097048606
0.11363904
0.13255975
0.15417402
0.17890861
0.20724011
0.23968203
0.27681844
0.31925819
0.36763158
0.4225916
0.48480922
0.55496652
0.63372436
0.72163595
0.81897417
0.92543933
1.0396924
1.1587518
1.2771299
1.3864982
1.4770392
1.5381209
0.022270471
0.02822775
0.035107674
0.04296243
0.051934633
0.062141777
0.073730268
0.086873663
0.10178158
0.11870797
0.13795988
0.1599028
0.18495711
0.21358888
0.24632244
0.28373112
0.3264144
0.37499493
0.43011913
0.49245256
0.56267315
0.6414366
0.72929013
0.82649783
0.9327457
1.0466731
1.1652637
1.2829735
1.3913714
1.4805151
1.5397685
0.023992227
0.030312863
0.037542906
0.045777193
0.055112982
0.065677071
0.077613643
0.091093955
0.10632776
0.12357216
0.1431366
0.1653855
0.19073171
0.2196449
0.25265383
0.29032033
0.33323577
0.38201562
0.43730028
0.49975041
0.57004022
0.64882068
0.7366335
0.83373453
0.93979596
1.0534358
1.1716021
1.2886923
1.3961651
1.4839427
1.5413924
0.025668803
0.032332041
0.039907253
0.04849056
0.05816641
0.069065306
0.081328596
0.09512493
0.11066435
0.12820457
0.1480578
0.17058241
0.19619708
0.22537742
0.25864558
0.29655613
0.33969302
0.3886652
0.4441076
0.50667651
0.57704284
0.65585326
0.7436445
0.84066471
0.94657284
1.0599658
1.1777554
1.2942781
1.4008746
1.4873202
1.5429917
0.027305854
0.034287728
0.042190051
0.051085448
0.061084391
0.072294413
0.084858651
0.098943747
0.11476029
0.13257035
0.15268059
0.17545619
0.20132389
0.23075517
0.2642671
0.30240861
0.34575707
0.3949156
0.45051423
0.51320534
0.58365698
0.66251192
0.7503025
0.84726975
0.95306
1.0662493
1.1837128
1.2997231
1.4054956
1.4906461
1.5445654
0.028848974
0.036112844
0.044314366
0.053521028
0.063829094
0.07533297
0.088169425
0.1025128
0.11857556
0.13662362
0.15696633
0.1799777
0.20608128
0.23574715
0.26948798
0.30784814
0.35139931
0.40073938
0.45649406
0.51931224
0.58985957
0.66877528
0.75658792
0.85353207
0.95924205
1.0722734
1.189464
1.3050202
1.4100242
1.4939191
1.5461123
0.030185938
0.037733529
0.046240728
0.055747898
0.066335535
0.078106076
0.091190507
0.10576906
0.1220585
0.14032387
0.16088639
0.18411614
0.21043855
0.24032283
0.27427833
0.31284574
0.35659185
0.40610995
0.46202195
0.52497362
0.59562863
0.6746231
0.76248235
0.8594352
0.96510466
1.0780261
1.1949996
1.3101628
1.4144571
1.4971379
1.5475265
0.031620893
0.039361681
0.048062019
0.057786741
0.068596219
0.080584398
0.093887542
0.10867827
0.12517557
0.14364637
0.16441108
0.18784153
0.21436563
0.24445242
0.27860901
0.31737325
0.36130779
0.4110018
0.4670739
0.53016708
0.60094347
0.68003642
0.76796864
0.86496389
0.9706346
1.0834963
1.2003108
1.3151449
1.4187911
1.5003022
1.548934
0.032988303
0.040885665
0.049738171
0.059626272
0.070608155
0.082779134
0.096264868
0.11123604
0.12791366
0.14656659
0.16751296
0.19112503
0.21783336
0.2481071
0.28245198
0.32140366
0.36552138
0.41539065
0.47162724
0.53487161
0.60578477
0.68499765
0.77303098
0.87010418
0.97581984
1.0886741
1.2053901
1.319961
1.4230235
1.5034112
1.5502935
0.034326457
0.042327601
0.051283406
0.061267863
0.072365401
0.084665046
0.098292926
0.11341734
0.13025233
0.14906089
0.17016591
0.19393909
0.22081382
0.25125933
0.28578048
0.32491132
0.36920831
0.41925368
0.47566078
0.53906767
0.61013474
0.68949073
0.77765502
0.87484346
0.98064957
1.0935505
1.2102302
1.3246063
1.4271521
1.5064646
1.551624
0.035598161
0.043662348
0.05267978
0.062723161
0.073874099
0.086236878
0.099948534
0.11517833
0.13213505
0.1510795
0.17233025
0.19625559
0.22328055
0.25388313
0.28856931
0.32787213
0.37234583
0.42256968
0.47915496
0.5427374
0.61397721
0.69350117
0.78182797
0.8791706
0.98511429
1.0981176
1.2148252
1.3290768
1.4311748
1.5094625
1.5528447
0.036805784
0.044879055
0.053908696
0.063969858
0.075142372
0.087533574
0.10128654
0.11657492
0.13360715
0.1526419
0.17399614
0.19803575
0.22518821
0.25593327
0.29078415
0.33026269
0.37491295
0.42531925
0.48209202
0.54586473
0.61729778
0.69701624
0.78553864
0.88307595
0.98920588
1.1023689
1.21917
1.3333687
1.4350902
1.5124053
1.5540522
0.037944023
0.045968565
0.054954697
0.06498287
0.076132658
0.08850984
0.10225903
0.11756596
0.13463775
0.15373153
0.17516403
0.19929735
0.22656012
0.25743126
0.29242488
0.33206418
0.37689034
0.42747832
0.48445115
0.54843531
0.62008393
0.70002498
0.7887776
0.88655149
0.99291764
1.1062989
1.2232603
1.3374793
1.438897
1.515293
1.555199
0.039008655
0.046923534
0.055803766
0.065740519
0.076814766
0.089150288
0.10287644
0.11818333
0.1352704
0.1543861
0.1758469
0.20003744
0.22738675
0.25836486
0.29347653
0.33325963
0.37826262
0.42904562
0.48622862
0.55043726
0.62231867
0.70251819
0.79153722
0.88959086
0.99624439
1.1099035
1.227093
1.3414064
1.4425943
1.5181262
1.5563225
0.040022061
0.047749336
0.056443915
0.066218359
0.077190619
0.089457664
0.10314057
0.11837055
0.13538944
0.15446941
0.17592799
0.20015862
0.2275782
0.25865587
0.29389608
0.33383254
0.37901663
0.43001456
0.48741357
0.55186116
0.62400694
0.70448576
0.79381159
0.89218937
0.99918239
1.1131798
1.2306659
1.3451484
1.4461814
1.5209053
1.5574213
0.041061878
0.048497211
0.056889952
0.066409582
0.077175646
0.089284159
0.1028498
0.11801286
0.13498723
0.15404156
0.17549294
0.19973637
0.22719864
0.25835141
0.29370054
0.33377755
0.37913326
0.4303337
0.48796608
0.55267106
0.62510054
0.70590164
0.79558422
0.89434446
1.0017301
1.1161266
1.233978
1.3487047
1.449658
1.5236308
1.5584663
0.0049331398
0.0071589278
0.010201145
0.014175351
0.019144711
0.025212816
0.032664651
0.041642529
0.052317204
0.065134597
0.080400152
0.098448974
0.11971497
0.14466194
0.17386484
0.20798501
0.24772675
0.29381639
0.34700113
0.40803335
0.47764698
0.55654317
0.64533529
0.74439706
0.85356865
0.97170579
1.0961081
1.2217017
1.34082
1.4443965
1.5212094
0.0052524619
0.0075691115
0.010569376
0.014427471
0.019228949
0.025184636
0.032518344
0.041366277
0.051955734
0.064547782
0.079523763
0.097263205
0.11820645
0.142841
0.17173741
0.20554907
0.24498699
0.29078573
0.3436994
0.40448763
0.47389263
0.55261921
0.64128496
0.74026784
0.84941576
0.96759752
1.092137
1.2180034
1.3376059
1.4419523
1.519947
0.0056022063
0.0079737444
0.010970123
0.01477804
0.01949785
0.025318774
0.032496185
0.041150918
0.051517934
0.063869519
0.078573922
0.096019397
0.11665094
0.14096342
0.16953257
0.20301344
0.2421237
0.28760649
0.34022407
0.4007435
0.46991815
0.54845574
0.63697895
0.73587061
0.844987
0.96321103
1.0878927
1.2140472
1.3341642
1.439328
1.5185565
0.0059691678
0.0083710661
0.011362412
0.015122175
0.019762243
0.02545381
0.032475082
0.04093847
0.05108313
0.063189491
0.077614976
0.094755147
0.11506055
0.139032
0.16725279
0.20037923
0.23913605
0.28427591
0.33657039
0.39679508
0.46571467
0.5440416
0.63240404
0.73119034
0.84026591
0.95852893
1.0833574
1.209816
1.3304792
1.4365097
1.5170507
0.0063570743
0.0087715284
0.011752287
0.015462727
0.020023475
0.025592294
0.032456035
0.040730076
0.050652601
0.062511315
0.076649462
0.093472681
0.11343808
0.13704929
0.16490075
0.19764812
0.23602441
0.2807926
0.33273482
0.3926371
0.46127364
0.53936583
0.62754698
0.72621179
0.83523565
0.95353326
1.0785128
1.2052919
1.3265234
1.4334534
1.5153833
0.0067654912
0.0091803459
0.012143869
0.015803655
0.020285134
0.025736282
0.03244093
0.040526951
0.050226954
0.061830702
0.075679063
0.092179566
0.11179326
0.13503235
0.16248844
0.1948321
0.23280037
0.27716711
0.3287263
0.38827608
0.45660006
0.53443174
0.62240954
0.72093535
0.82989516
0.94822085
1.0733517
1.2004587
1.3222768
1.4301368
1.5134382
0.0071917444
0.0095970757
0.012537598
0.016145496
0.020548628
0.025885634
0.032431606
0.040331165
0.049808671
0.061148392
0.074710479
0.09088685
0.11013693
0.13298649
0.16002627
0.19194076
0.22947193
0.27340531
0.32454809
0.38371179
0.45169102
0.52923352
0.61698308
0.71534979
0.82423088
0.94257608
1.0678569
1.1952968
1.3177323
1.426573
1.511272
0.0076415298
0.010031371
0.012943766
0.016498328
0.020823932
0.026049263
0.032437923
0.040152466
0.049408617
0.060492018
0.073754869
0.089592717
0.1084667
0.13090633
0.15751031
0.18896914
0.22603229
0.26949804
0.32018809
0.37892878
0.44652703
0.52374784
0.61124022
0.70942403
0.81820896
0.93656418
1.0619957
1.1897833
1.3128703
1.4227435
1.5088555
0.0081173023
0.010486717
0.013366126
0.016865393
0.021113574
0.026228384
0.032460784
0.039991039
0.049026084
0.059850719
0.072811424
0.088302645
0.10678862
0.12880175
0.15494691
0.18592364
0.22248688
0.26544912
0.31564782
0.37392574
0.44110465
0.51796643
0.60516927
0.70314316
0.81181171
0.93016526
1.0557469
1.1838969
1.3076704
1.4186287
1.5061778
0.0086244142
0.010969981
0.013812465
0.017254806
0.021422156
0.026427818
0.032505116
0.039851637
0.048665585
0.059229659
0.071887702
0.087022493
0.10510911
0.12667991
0.15234259
0.18281168
0.21884235
0.26126371
0.31093023
0.36870273
0.43542118
0.51188196
0.59875928
0.69649263
0.8050214
0.92335909
1.0490887
1.1776154
1.3021112
1.4142074
1.5031721
0.0091695808
0.011487927
0.01428978
0.017672773
0.021756787
0.026653325
0.03257638
0.039739488
0.048332055
0.05863355
0.070984205
0.085757505
0.10343488
0.12454879
0.14971608
0.17964193
0.21510653
0.25694841
0.30603982
0.36326135
0.42947342
0.5054882
0.59200018
0.68945844
0.79782047
0.91612523
1.0419987
1.1709158
1.2961699
1.4094577
1.4999133
0.0097591248
0.012046976
0.014804928
0.018125847
0.022124359
0.026911089
0.032680397
0.039660119
0.04803056
0.05806597
0.070091445
0.08451186
0.10177273
0.12241602
0.14706631
0.17642309
0.2112884
0.25251128
0.30098277
0.35760497
0.42326084
0.49878029
0.58488313
0.68202739
0.79019174
0.90844321
1.0344542
1.1637745
1.289823
1.4043564
1.4964814
0.010400827
0.012654831
0.01536544
0.018621148
0.02253184
0.027207517
0.032823203
0.039619279
0.047766862
0.057535143
0.069245927
0.083295431
0.10013026
0.1202894
0.14439826
0.1731643
0.20739801
0.24796183
0.295767
0.35173892
0.41678532
0.49175751
0.57740075
0.67418741
0.7821187
0.90029279
1.0264322
1.1561675
1.2830451
1.3988784
1.4926133
0.011101708
0.013318514
0.015978105
0.019165414
0.02298585
0.027548833
0.033010749
0.039622663
0.047546646
0.057046779
0.068440948
0.082115895
0.098515329
0.11817747
0.14172698
0.16987519
0.2034465
0.24331102
0.29040225
0.34567059
0.41005084
0.48442077
0.56954726
0.66592783
0.77358575
0.89165416
1.0179099
1.1480704
1.2758103
1.392999
1.4884377
0.011868881
0.014044412
0.016649267
0.019764883
0.023492438
0.027940701
0.033248457
0.039675518
0.047375159
0.05660614
0.067681664
0.080986373
0.096935756
0.11608869
0.13906243
0.16656897
0.19944625
0.23857116
0.28490006
0.33940949
0.40306357
0.47676995
0.56131878
0.65723969
0.76457856
0.88250823
1.0088645
1.1394584
1.2680923
1.386693
1.4840826
0.012708413
0.014838281
0.017384243
0.020424465
0.024056034
0.028387075
0.033542174
0.03978187
0.047256596
0.056217191
0.066969951
0.079884931
0.095394209
0.11403069
0.13641514
0.16327127
0.19541073
0.23375575
0.27927368
0.33296732
0.39583222
0.46880873
0.55271352
0.64811614
0.75508443
0.87283699
0.99927384
1.1303069
1.2598646
1.3799342
1.4791268
0.013620913
0.015700987
0.018184136
0.021145475
0.024678129
0.028889866
0.033895504
0.039944261
0.047193662
0.055882843
0.066309768
0.078829517
0.093896959
0.11201076
0.13379306
0.15996763
0.19135144
0.22887923
0.273538
0.32635801
0.38836817
0.46054465
0.54373624
0.63855285
0.74509271
0.86262384
0.98911646
1.120591
1.2511005
1.3726983
1.4739559
0.014604663
0.016631009
0.019047639
0.021926965
0.02535848
0.029449614
0.03430635
0.040163759
0.047187504
0.055605294
0.065707451
0.077845201
0.092453872
0.11003651
0.13120506
0.15667908
0.18728055
0.22395683
0.26770941
0.3195976
0.38068553
0.45198822
0.53439388
0.62854812
0.73459521
0.85185403
0.97837201
1.1102862
1.2417728
1.3649591
1.4681236
0.015649895
0.01761967
0.019967347
0.022762885
0.026092427
0.030061635
0.034770321
0.040437978
0.047236791
0.05538432
0.065163102
0.076917423
0.09106974
0.1081146
0.12865965
0.15341803
0.18320766
0.21900467
0.26180558
0.31270419
0.37280105
0.44315287
0.52469196
0.61810315
0.72358655
0.84051505
0.96702159
1.099368
1.2318533
1.3566893
1.4619095
0.016746147
0.01865716
0.020934139
0.023644877
0.026872347
0.030718264
0.03528053
0.040761588
0.047337609
0.055217399
0.064675636
0.076049341
0.089757706
0.10625147
0.12616443
0.15019667
0.17917484
0.21404093
0.25584529
0.30569763
0.36473414
0.43405536
0.51464169
0.60722228
0.7120647
0.82859714
0.95504811
1.0878127
1.2213127
1.347858
1.4553136
0.017877042
0.019728727
0.021934763
0.024560809
0.027686767
0.0314103
0.035828132
0.041126829
0.047483518
0.055099235
0.064239904
0.07523111
0.088466566
0.10443959
0.12372321
0.14702188
0.17516358
0.20907947
0.24984766
0.29859936
0.35650666
0.42471591
0.50425964
0.59591964
0.70003137
0.8160938
0.94243666
1.0755971
1.2101208
1.3384309
1.4482934
0.019030678
0.020820785
0.022955023
0.025496686
0.028522446
0.032125848
0.036402209
0.041523853
0.047666045
0.055022792
0.063850884
0.074464844
0.087246482
0.10268707
0.12134051
0.14390003
0.17118492
0.20413312
0.2438319
0.29143203
0.34814274
0.41515795
0.493566
0.58421114
0.68749194
0.8030022
0.92917497
1.0626992
1.1982477
1.3283701
1.4407489
0.020197609
0.021925809
0.023987689
0.026444821
0.029371083
0.032856192
0.03699373
0.041943604
0.047876691
0.054980615
0.063503036
0.073748387
0.086090716
0.10099675
0.11902015
0.14083795
0.16725786
0.19921082
0.23781747
0.2842192
0.33966842
0.40540787
0.48258469
0.57211107
0.67445538
0.78932362
0.9152538
1.049098
1.1856625
1.3176286
1.4330676
0.021360626
0.023027918
0.025018409
0.027392128
0.030220549
0.033589934
0.037591895
0.042375763
0.048105992
0.054964312
0.063189202
0.073074777
0.084984073
0.099366396
0.11676441
0.13784171
0.16339517
0.19436469
0.2318269
0.27698507
0.3311113
0.39549483
0.47134371
0.55964339
0.6609431
0.77506396
0.90066752
1.0347741
1.1723319
1.3061475
1.4241556
0.022517633
0.02412391
0.02604311
0.028333818
0.031065368
0.03432091
0.038189874
0.042812837
0.048346335
0.054966552
0.062902798
0.072438929
0.083927539
0.097811104
0.11457811
0.13491599
0.15960228
0.18956975
0.22587518
0.26975313
0.32249996
0.38545031
0.45987484
0.54683691
0.64697994
0.76023366
0.8854143
1.0197097
1.1582191
1.2938605
1.4145396
0.023657859
0.025205188
0.027054664
0.029263598
0.031899559
0.035043062
0.038781317
0.043247943
0.048590591
0.054980073
0.062636272
0.071831669
0.082903841
0.096267161
0.11244461
0.13205906
0.15588256
0.18483413
0.21997439
0.26254592
0.31386342
0.37530765
0.448213
0.53372449
0.63258755
0.74484715
0.86949629
1.0038888
1.1432833
1.2806848
1.4041846
0.024775266
0.026266251
0.028048154
0.030177046
0.032718966
0.035752194
0.039361765
0.043675885
0.04883304
0.054998721
0.062383299
0.0712476
0.081914821
0.094782894
0.11037061
0.12927236
0.15224103
0.1801793
0.21413774
0.25538574
0.30523074
0.36510145
0.4363959
0.52034354
0.617798
0.72893455
0.85292007
0.98729766
1.1274806
1.2665233
1.3927824
0.025861892
0.027301056
0.029019165
0.03107098
0.033521157
0.0364461
0.039928851
0.044093498
0.049069783
0.055017985
0.062139211
0.070683025
0.080959761
0.093355912
0.10835877
0.12655787
0.14868261
0.17561822
0.2084211
0.24829857
0.29663069
0.3548669
0.42446346
0.50673539
0.60264967
0.71252757
0.83569563
0.96992498
1.110765
1.2512719
1.380007
0.026911095
0.028303671
0.029962796
0.03194168
0.034303475
0.037122834
0.040480951
0.044498734
0.049298174
0.055034521
0.061900063
0.070133378
0.080031758
0.091966627
0.10640299
0.12391473
0.14520947
0.17115235
0.20278419
0.24129715
0.28808958
0.34463892
0.41245703
0.49294445
0.58718515
0.69565379
0.8178502
0.95176208
1.0930884
1.2348209
1.3654692
0.027918823
0.029270184
0.030875659
0.032786596
0.035064395
0.037781702
0.041018577
0.044891677
0.049517839
0.055047141
0.061663749
0.069595812
0.079127953
0.090617112
0.10451354
0.12134624
0.14182379
0.16678517
0.19724555
0.23438984
0.27963149
0.33445154
0.40041858
0.47901767
0.57145158
0.67835374
0.79941301
0.93280214
1.0744042
1.2170546
1.3487259
0.028880155
0.03019524
0.031752505
0.03360092
0.035799868
0.038419477
0.041539648
0.045270947
0.049727661
0.055054548
0.061428395
0.069067489
0.078243732
0.08929763
0.10265545
0.11884099
0.13852337
0.1625208
0.19182544
0.22761228
0.27128263
0.32433781
0.38839
0.46500366
0.55549978
0.66067316
0.78040661
0.91305781