/*--------------------------------*- C++ -*----------------------------------*\
| =========                 |                                                 |
| \\      /  F ield         | OpenFOAM: The Open Source CFD Toolbox           |
|  \\    /   O peration     | Version:  2406                                  |
|   \\  /    A nd           | Website:  www.openfoam.com                      |
|    \\/     M anipulation  |                                                 |
\*---------------------------------------------------------------------------*/
FoamFile
{
    version     2.0;
    format      ascii;
    arch        "LSB;label=32;scalar=64";
    class       volScalarField;
    location    "0.04";
    object      rho;
}
// * * * * * * * * * * * * * * * * * * * * * * * * * * * * * * * * * * * * * //

dimensions      [1 -3 0 0 0 0 0];

internalField   nonuniform List<scalar> 
8260
(
1.2190059
1.2169832
1.215406
1.2135247
1.2116258
1.2098976
1.2084076
1.2071575
1.2062321
1.2055396
1.2050174
1.204714
1.2045603
1.2045114
1.2045542
1.2046432
1.2047627
1.2048967
1.2050286
1.2051493
1.2052537
1.2053367
1.205402
1.2054424
1.2054793
1.2054821
1.2055339
1.2054934
1.2056923
1.2055663
1.2061452
1.2210277
1.2193023
1.2174113
1.2153139
1.2132833
1.2114247
1.2097811
1.2083704
1.2072512
1.2063727
1.2056961
1.205241
1.2049571
1.2048024
1.2047605
1.2047818
1.2048496
1.2049459
1.2050512
1.2051543
1.2052482
1.2053259
1.2053894
1.2054301
1.2054679
1.2054721
1.2055236
1.2054844
1.2056816
1.2055655
1.2061731
1.2219341
1.2203835
1.2184882
1.2164034
1.2143911
1.2125282
1.2108459
1.2093716
1.2081512
1.2071657
1.2063899
1.205833
1.2054503
1.2052139
1.2051049
1.2050691
1.2050897
1.2051482
1.2052227
1.2053006
1.2053734
1.2054334
1.2054817
1.2055095
1.2055363
1.2055326
1.2055774
1.2055367
1.2057297
1.2056147
1.2062459
1.2223855
1.2209865
1.2192429
1.2172812
1.2153484
1.2135272
1.2118491
1.2103469
1.2090615
1.2079934
1.2071308
1.2064811
1.2060037
1.2056778
1.2054944
1.2053923
1.2053546
1.2053642
1.2053973
1.2054405
1.2054846
1.2055212
1.2055505
1.2055638
1.2055789
1.205567
1.2056045
1.2055611
1.2057485
1.2056403
1.206295
1.2225957
1.2213514
1.2198069
1.2180243
1.2162194
1.2144796
1.2128395
1.2113353
1.2100068
1.2088693
1.2079244
1.2071806
1.2066064
1.2061896
1.2059186
1.2057442
1.2056426
1.2055986
1.2055872
1.2055941
1.2056089
1.2056224
1.2056335
1.2056328
1.2056369
1.2056175
1.2056484
1.2056038
1.2057862
1.2056842
1.2063522
1.2226059
1.2215092
1.220173
1.2185986
1.2169601
1.2153407
1.2137756
1.2123017
1.2109589
1.2097734
1.2087587
1.2079263
1.2072616
1.206754
1.2063905
1.2061368
1.2059673
1.2058655
1.2058051
1.2057713
1.205753
1.2057397
1.2057292
1.2057115
1.2057018
1.2056726
1.2056948
1.2056474
1.2058229
1.2057285
1.2064174
1.2224593
1.2215003
1.2203674
1.2190094
1.2175584
1.2160872
1.2146285
1.213217
1.2118916
1.2106848
1.2096196
1.2087129
1.2079635
1.2073676
1.2069142
1.206574
1.2063305
1.2061661
1.2060515
1.205972
1.2059159
1.2058722
1.2058371
1.2058002
1.205775
1.2057352
1.2057478
1.2056979
1.2058662
1.2057813
1.2064935
1.2222401
1.221452
1.2204739
1.2193
1.2180316
1.2167194
1.215387
1.2140635
1.2127843
1.2115839
1.210491
1.2095281
1.2087049
1.208025
1.2074849
1.2070582
1.2067332
1.2065015
1.2063279
1.2061979
1.2060998
1.206022
1.2059593
1.2059008
1.2058582
1.2058063
1.205808
1.2057549
1.205915
1.205841
1.2065821
1.2219743
1.2213963
1.2205292
1.2194934
1.2183914
1.2172391
1.2160437
1.2148265
1.2136178
1.21245
1.2113538
1.2103558
1.2094742
1.2087198
1.2080965
1.2075858
1.2071799
1.2068725
1.206636
1.2064513
1.2063068
1.2061911
1.2060975
1.2060146
1.2059523
1.2058866
1.205876
1.2058193
1.2059704
1.2059092
1.206684
1.2215106
1.2211736
1.2205071
1.2196077
1.2186482
1.2176474
1.2165924
1.2154935
1.2143739
1.2132619
1.2121869
1.2111771
1.2102559
1.2094408
1.2087414
1.2081526
1.2076685
1.2072816
1.2069762
1.2067333
1.2065386
1.206381
1.206253
1.206143
1.2060586
1.2059774
1.2059528
1.2058919
1.2060332
1.2059869
1.2068004
1.2210888
1.2207682
1.2202749
1.2196113
1.2188058
1.2179463
1.2170283
1.2160535
1.2150366
1.2139996
1.2129683
1.21197
1.2110308
1.2101725
1.2094106
1.20875
1.2081911
1.2077284
1.2073499
1.2070444
1.2067961
1.2065932
1.2064275
1.2062873
1.2061783
1.2060798
1.2060395
1.2059737
1.2061042
1.206075
1.2069317
1.2206964
1.2204694
1.22006
1.2194924
1.2188379
1.2181255
1.217346
1.2164984
1.2155926
1.2146447
1.2136762
1.2127115
1.2117764
1.2108953
1.2100882
1.2093673
1.2087396
1.2082055
1.2077567
1.2073847
1.2070794
1.2068284
1.2066221
1.2064487
1.2063127
1.2061948
1.2061371
1.2060656
1.2061843
1.2061743
1.2070782
1.220274
1.2200996
1.2197759
1.2193593
1.218859
1.2182513
1.2175771
1.2168388
1.216038
1.2151835
1.21429
1.2133772
1.2124678
1.2115858
1.2107534
1.2099884
1.2093031
1.2087039
1.2081895
1.2077535
1.2073881
1.2070865
1.2068372
1.2066282
1.2064628
1.2063235
1.2062465
1.2061684
1.2062742
1.2062854
1.2072389
1.2199228
1.2198111
1.2195659
1.219202
1.2187435
1.2182229
1.2176611
1.2170374
1.2163462
1.2155921
1.2147854
1.2139409
1.2130775
1.2122169
1.2113816
1.2105921
1.2098653
1.2092125
1.2086389
1.2081437
1.207721
1.2073667
1.2070725
1.2068259
1.2066292
1.2064667
1.2063688
1.206283
1.2063746
1.2064085
1.2074118
1.2194608
1.2193913
1.2192003
1.2189061
1.2185441
1.2181196
1.2176391
1.2171075
1.2165149
1.2158586
1.2151432
1.2143782
1.2135777
1.2127597
1.2119444
1.211153
1.2104045
1.2097146
1.2090936
1.208546
1.2080711
1.2076672
1.2073268
1.2070415
1.2068122
1.2066249
1.2065045
1.2064098
1.2064861
1.2065432
1.2075934
1.218898
1.2188699
1.2187252
1.2184912
1.2182333
1.2179114
1.217491
1.2170248
1.2165189
1.2159579
1.2153379
1.2146621
1.2139396
1.2131839
1.2124118
1.2116424
1.2108954
1.2101888
1.2095369
1.2089491
1.2084299
1.2079806
1.2075975
1.2072743
1.207011
1.206798
1.2066539
1.2065491
1.2066085
1.2066882
1.2077786
1.2181943
1.2182062
1.2181098
1.2179258
1.2177027
1.2174751
1.2171899
1.2167945
1.216344
1.215866
1.2153437
1.2147664
1.2141361
1.213461
1.2127539
1.2120309
1.2113102
1.2106104
1.2099482
1.2093369
1.2087855
1.2082991
1.2078783
1.2075203
1.2072246
1.206985
1.2068168
1.2067005
1.2067412
1.2068414
1.2079604
1.2173447
1.2173863
1.2173294
1.2171958
1.2170231
1.2168271
1.2166306
1.2163906
1.2160447
1.2156252
1.2151706
1.2146831
1.2141509
1.21357
1.2129464
1.2122918
1.2116217
1.2109534
1.2103042
1.2096897
1.2091224
1.2086115
1.2081615
1.2077737
1.2074494
1.2071845
1.2069916
1.2068625
1.2068825
1.2069994
1.2081307
1.2163692
1.2164298
1.2164024
1.2163098
1.2161868
1.2160385
1.2158651
1.2156962
1.2155284
1.2152708
1.2148912
1.2144542
1.2139952
1.2135052
1.2129748
1.2124056
1.2118072
1.2111939
1.2105816
1.2099863
1.2094228
1.2089033
1.2084364
1.2080271
1.2076794
1.2073925
1.2071766
1.2070323
1.207029
1.2071571
1.2082801
1.2153467
1.2154188
1.2154144
1.215356
1.2152756
1.2151799
1.2150624
1.214915
1.2147384
1.2145664
1.2143929
1.21412
1.2137281
1.2132926
1.2128419
1.2123638
1.2118518
1.2113133
1.2107601
1.2102064
1.2096678
1.2091583
1.2086896
1.2082703
1.207907
1.2076032
1.2073673
1.2072059
1.2071753
1.2073072
1.2083995
1.214288
1.2143635
1.2143749
1.2143435
1.2142964
1.2142396
1.2141694
1.2140806
1.2139676
1.2138265
1.2136628
1.213502
1.2132962
1.2129831
1.2126001
1.2121875
1.2117569
1.2113037
1.2108264
1.2103339
1.2098403
1.20936
1.2089064
1.208491
1.2081229
1.2078087
1.2075568
1.207377
1.2073133
1.2074375
1.2084807
1.2132469
1.2133196
1.2133401
1.2133275
1.2133042
1.2132746
1.2132358
1.2131842
1.2131164
1.2130273
1.2129101
1.2127666
1.2126295
1.2124959
1.2122765
1.2119421
1.2115614
1.2111768
1.2107786
1.2103596
1.2099275
1.2094942
1.209073
1.2086765
1.2083157
1.2079995
1.2077366
1.2075369
1.2074319
1.2075236
1.2085118
1.212261
1.2123276
1.2123534
1.2123549
1.21235
1.212342
1.2123287
1.2123073
1.2122754
1.2122304
1.2121689
1.2120856
1.2119749
1.2118393
1.2117068
1.2115464
1.2112956
1.2109776
1.2106358
1.210286
1.2099243
1.2095519
1.2091779
1.2088148
1.208474
1.208165
1.2078963
1.2076748
1.2075178
1.2075286
1.2084464
1.2113637
1.2114213
1.2114482
1.211458
1.2114644
1.2114697
1.2114721
1.2114697
1.2114607
1.2114429
1.2114139
1.2113707
1.2113087
1.2112218
1.211111
1.2110056
1.2109024
1.2107235
1.2104495
1.2101437
1.2098405
1.2095324
1.2092157
1.2088978
1.2085883
1.2082958
1.2080263
1.2077811
1.2075591
1.2074243
1.2081568
1.2105942
1.2106422
1.2106681
1.2106829
1.2106963
1.21071
1.2107228
1.2107333
1.2107402
1.210742
1.2107367
1.2107222
1.2106958
1.2106543
1.2105932
1.2105085
1.2104027
1.2102995
1.2101683
1.2099586
1.2097063
1.2094488
1.2091892
1.2089233
1.2086539
1.2083857
1.2081209
1.2078522
1.2075551
1.2072175
1.207437
1.2099636
1.2100011
1.2100235
1.2100391
1.2100545
1.2100709
1.2100874
1.2101031
1.210117
1.2101281
1.2101349
1.2101357
1.2101285
1.2101109
1.2100802
1.2100324
1.2099627
1.2098731
1.2097895
1.209708
1.2095582
1.2093403
1.209117
1.2088994
1.208674
1.2084361
1.2081822
1.2078959
1.2075283
1.2069784
1.205885
1.2094968
1.209524
1.2095416
1.2095555
1.20957
1.2095857
1.2096022
1.2096188
1.2096347
1.2096495
1.2096621
1.2096712
1.2096752
1.2096721
1.2096601
1.2096368
1.2095999
1.2095466
1.2094754
1.2093902
1.2093099
1.2091965
1.2090244
1.2088439
1.2086601
1.2084562
1.2082222
1.2079337
1.2075261
1.2069048
1.2064402
1.2092137
1.2092285
1.2092381
1.209246
1.2092546
1.2092642
1.2092747
1.2092859
1.2092974
1.2093087
1.209319
1.2093275
1.209333
1.209334
1.2093291
1.2093168
1.2092957
1.2092644
1.2092195
1.2091589
1.2090886
1.2090268
1.208934
1.2087925
1.2086417
1.2084733
1.2082713
1.208002
1.2075827
1.2067985
1.2050266
1.2089879
1.209
1.2090103
1.2090196
1.2090291
1.2090392
1.2090501
1.2090619
1.2090747
1.2090881
1.2091013
1.209113
1.2091219
1.2091264
1.2091253
1.2091167
1.2090991
1.209073
1.2090409
1.2090044
1.2089605
1.2089121
1.20888
1.2088187
1.2087029
1.2085789
1.2084381
1.2082457
1.2079527
1.2074192
1.2053024
1.209296
1.2092995
1.2093027
1.2093054
1.2093081
1.2093108
1.209313
1.209313
1.2093097
1.2093019
1.2092894
1.2092729
1.2092529
1.2092295
1.2092027
1.2091735
1.2091429
1.2091109
1.2090769
1.2090396
1.2089972
1.2089456
1.2088842
1.2088365
1.2088038
1.2087471
1.2086777
1.2086099
1.2085433
1.2087034
1.2077917
1.2090953
1.209115
1.209127
1.2091309
1.2091274
1.2091171
1.2091007
1.2090788
1.2090523
1.209022
1.2089889
1.208954
1.2089183
1.2088824
1.2088472
1.208813
1.2087798
1.2087471
1.2087141
1.2086791
1.2086393
1.2085906
1.2085278
1.208449
1.2083539
1.2082744
1.2082569
1.2082712
1.208311
1.2089023
1.2079467
1.1885441
1.1884177
1.1883222
1.1883834
1.188621
1.1890539
1.1896837
1.1904674
1.1914082
1.1924608
1.1936192
1.1948495
1.1960087
1.1971125
1.1982323
1.1992567
1.2001728
1.2010073
1.2017412
1.2023814
1.2029295
1.2033844
1.203761
1.2040533
1.2042997
1.2044527
1.2046322
1.2046252
1.2048478
1.204596
1.2048191
1.1878393
1.18788
1.1879297
1.1881516
1.1885462
1.1891165
1.1898489
1.1907287
1.1917267
1.1928022
1.193976
1.1951732
1.196257
1.1973345
1.1984148
1.1993853
1.2002596
1.2010583
1.2017683
1.2023905
1.2029246
1.2033716
1.2037446
1.2040368
1.2042844
1.2044402
1.2046216
1.2046189
1.2048495
1.2046166
1.2048706
1.1866761
1.1867948
1.1870068
1.1874429
1.1880562
1.188821
1.1897316
1.1907569
1.1918604
1.1930163
1.1942378
1.195416
1.1964972
1.1975979
1.1986523
1.1995807
1.2004396
1.20122
1.2019123
1.2025172
1.2030364
1.2034702
1.2038315
1.2041132
1.2043513
1.2044998
1.2046748
1.204669
1.2048957
1.2046607
1.2049069
1.1853045
1.1856527
1.1861311
1.1868201
1.1876544
1.1886029
1.1896627
1.1908188
1.1920144
1.1932372
1.194474
1.1956414
1.1967574
1.1978685
1.1988907
1.1997804
1.2006294
1.2013884
1.2020585
1.2026417
1.2031411
1.2035569
1.2039025
1.2041713
1.2043986
1.2045395
1.2047084
1.2047006
1.2049272
1.2046988
1.2049598
1.1839231
1.184566
1.1853292
1.1862699
1.1873208
1.1884499
1.1896627
1.1909477
1.1922205
1.1934727
1.1947144
1.1959029
1.197039
1.1981385
1.1991109
1.1999784
1.2008126
1.2015471
1.2021946
1.2027568
1.2032375
1.2036375
1.2039699
1.2042283
1.204447
1.2045821
1.2047462
1.2047371
1.2049635
1.2047391
1.2050151
1.1826815
1.1836341
1.1846579
1.1858307
1.1870836
1.1883868
1.189756
1.1911271
1.1924344
1.1937342
1.1949953
1.196191
1.1973356
1.1984011
1.1993216
1.2001876
1.2009958
1.2017058
1.2023314
1.2028733
1.2033362
1.2037209
1.2040402
1.2042879
1.2044975
1.204626
1.2047846
1.2047737
1.2049994
1.2047791
1.205073
1.1816131
1.1828819
1.1841687
1.1855365
1.1869718
1.188438
1.1899075
1.1913355
1.1927037
1.1940343
1.1953024
1.1965027
1.1976391
1.1986518
1.1995409
1.2003994
1.2011802
1.201866
1.2024694
1.202991
1.2034359
1.203805
1.2041108
1.2043476
1.204548
1.20467
1.2048231
1.2048106
1.205036
1.2048195
1.2051452
1.1808205
1.1823016
1.1838453
1.1854344
1.1870259
1.1885996
1.1901379
1.1916147
1.1930223
1.1943667
1.1956382
1.1968396
1.1979381
1.1988888
1.1997723
1.2006122
1.2013654
1.2020269
1.2026078
1.2031088
1.2035356
1.2038892
1.2041817
1.2044076
1.204599
1.2047145
1.2048621
1.2048479
1.2050731
1.2048598
1.2051886
1.180388
1.182067
1.1837923
1.1855249
1.1872231
1.1888732
1.1904595
1.1919646
1.1933887
1.1947391
1.1960111
1.1971849
1.1982128
1.1991314
1.200017
1.2008265
1.2015517
1.2021882
1.2027463
1.2032268
1.2036356
1.2039736
1.204253
1.2044681
1.2046503
1.2047593
1.2049014
1.2048855
1.2051105
1.2049006
1.2052539
1.1803859
1.182192
1.1840172
1.1858211
1.1875772
1.1892712
1.1908786
1.1923878
1.1938142
1.1951644
1.1964062
1.1975127
1.1984782
1.1993905
1.2002645
1.2010426
1.2017392
1.2023502
1.2028852
1.2033451
1.2037358
1.2040583
1.2043245
1.2045287
1.2047019
1.2048044
1.2049409
1.2049234
1.2051483
1.2049417
1.2052903
1.1808342
1.1826858
1.1845279
1.1863318
1.1880925
1.1897929
1.1913955
1.1928957
1.1943057
1.195616
1.1967819
1.1978087
1.1987624
1.199679
1.2005157
1.201261
1.2019279
1.2025128
1.2030243
1.2034634
1.203836
1.2041431
1.2043961
1.2045896
1.2047536
1.2048496
1.2049806
1.2049615
1.2051863
1.2049833
1.2053411
1.181561
1.183434
1.1852602
1.1870452
1.18879
1.1904485
1.1919922
1.1934501
1.1948117
1.1960441
1.1971221
1.1981308
1.1990951
1.1999745
1.2007704
1.2014816
1.2021179
1.202676
1.2031636
1.2035819
1.2039364
1.204228
1.2044678
1.2046505
1.2048055
1.2048949
1.2050203
1.2049997
1.2052244
1.2050254
1.2053927
1.1822502
1.1841759
1.1860113
1.1878221
1.1896077
1.1912081
1.19263
1.1939963
1.195291
1.1964438
1.1975002
1.198521
1.1994417
1.2002739
1.201029
1.2017047
1.2023092
1.2028397
1.2033032
1.2037003
1.2040366
1.2043127
1.2045394
1.2047113
1.2048574
1.2049403
1.2050601
1.205038
1.2052624
1.2050678
1.2054507
1.1837733
1.1854498
1.187061
1.1887472
1.190487
1.1919931
1.1933248
1.1946083
1.1957967
1.1969079
1.1979721
1.1989343
1.1997962
1.2005798
1.201292
1.2019301
1.2025017
1.203004
1.2034428
1.2038187
1.2041367
1.2043973
1.2046109
1.2047721
1.2049091
1.2049856
1.2050998
1.2050762
1.2053002
1.2051103
1.2055138
1.1868128
1.1881341
1.1894356
1.190639
1.191699
1.1929197
1.1942334
1.195417
1.1964983
1.1975173
1.1984817
1.199363
1.2001623
1.2008932
1.2015593
1.2021579
1.2026954
1.2031687
1.2035824
1.2039368
1.2042365
1.2044817
1.2046822
1.2048327
1.2049608
1.2050307
1.2051395
1.2051144
1.2053377
1.2051527
1.2055778
1.1892958
1.1904059
1.1914042
1.1923657
1.1933054
1.1942961
1.1953329
1.1963294
1.1972695
1.1981653
1.1990151
1.1998104
1.2005409
1.2012141
1.2018311
1.202388
1.2028901
1.2033337
1.2037218
1.2040546
1.2043359
1.2045656
1.204753
1.2048929
1.2050122
1.2050757
1.2051789
1.2051524
1.2053748
1.2051952
1.2056554
1.1921832
1.1929728
1.1936264
1.1942975
1.1950023
1.1957435
1.1965217
1.1973088
1.1980843
1.1988427
1.1995747
1.2002774
1.2009319
1.2015424
1.2021072
1.2026205
1.2030859
1.2034988
1.203861
1.204172
1.2044347
1.2046489
1.2048234
1.2049527
1.2050632
1.2051203
1.205218
1.2051902
1.2054114
1.2052373
1.2057069
1.1953805
1.1958091
1.1960796
1.1964028
1.1968024
1.1972658
1.1977888
1.1983558
1.1989493
1.1995573
1.2001619
1.2007636
1.2013352
1.2018781
1.2023877
1.2028551
1.2032824
1.203664
1.2039997
1.2042886
1.2045328
1.2047315
1.2048931
1.205012
1.2051137
1.2051645
1.2052568
1.2052278
1.2054474
1.2052795
1.2057713
1.1988612
1.198895
1.1987449
1.1986798
1.1987338
1.1988896
1.1991411
1.1994718
1.1998666
1.2003113
1.2007766
1.2012688
1.2017508
1.2022212
1.2026725
1.2030917
1.2034795
1.2038288
1.2041376
1.2044041
1.2046298
1.2048131
1.204962
1.2050705
1.2051637
1.2052083
1.2052952
1.205265
1.2054829
1.2053215
1.2058309
1.2025685
1.2021892
1.2015966
1.2011153
1.2007925
1.2006136
1.2005756
1.2006546
1.2008347
1.2011043
1.2014183
1.2017926
1.2021787
1.2025715
1.202961
1.2033298
1.2036765
1.2039925
1.204274
1.2045181
1.2047252
1.2048934
1.2050297
1.2051281
1.2052129
1.2052515
1.2053332
1.2053018
1.2055178
1.2053636
1.2059032
1.2064286
1.2056266
1.204585
1.2036754
1.2029571
1.2024212
1.2020826
1.2019017
1.201853
1.2019378
1.2020879
1.2023348
1.2026182
1.2029278
1.2032517
1.2035675
1.2038716
1.2041538
1.2044077
1.2046295
1.2048184
1.2049717
1.2050959
1.2051845
1.2052613
1.205294
1.2053706
1.2053383
1.2055522
1.2054056
1.2059477
1.210431
1.2091874
1.2076983
1.2063626
1.2052417
1.2043297
1.2036841
1.2032341
1.2029369
1.2028239
1.2027918
1.2028972
1.2030684
1.2032874
1.2035413
1.2038015
1.2040617
1.2043098
1.2045365
1.2047366
1.204908
1.2050474
1.2051601
1.2052394
1.2053086
1.2053356
1.2054074
1.2053745
1.2055864
1.205448
1.2060038
1.2147364
1.2130881
1.211202
1.2094382
1.2078677
1.2065256
1.2055245
1.204737
1.2041466
1.2038008
1.2035521
1.2034897
1.2035322
1.2036496
1.2038274
1.2040292
1.2042446
1.2044589
1.2046594
1.204839
1.2049942
1.2051205
1.2052226
1.2052933
1.2053552
1.2053769
1.2054442
1.2054108
1.2056209
1.2054909
1.2060595
1.2188398
1.2172026
1.2153306
1.2132411
1.2111961
1.2093592
1.2078071
1.2065071
1.205565
1.204913
1.2044028
1.2041371
1.204028
1.2040294
1.2041224
1.2042611
1.204429
1.2046082
1.204782
1.2049409
1.2050798
1.205193
1.2052845
1.2053467
1.2054015
1.2054179
1.2054808
1.205447
1.2056558
1.2055348
1.2061244
1.1897208
1.1897298
1.1896589
1.1896562
1.1897816
1.1900462
1.1904852
1.1910716
1.1918224
1.1927033
1.1937025
1.1948004
1.1958807
1.1969277
1.1979989
1.1990031
1.1999154
1.2007606
1.2015163
1.2021775
1.2027493
1.2032285
1.2036282
1.2039408
1.2042044
1.2043703
1.2045585
1.2045547
1.2047784
1.2045256
1.2047392
1.19007
1.1900622
1.1900631
1.1901101
1.1902225
1.1904583
1.1908258
1.1913475
1.1920321
1.1928537
1.193797
1.194841
1.1958898
1.1969202
1.1979685
1.1989571
1.1998637
1.2007074
1.2014663
1.2021287
1.2027022
1.2031856
1.2035898
1.2039069
1.2041747
1.2043443
1.2045355
1.2045335
1.2047563
1.2045006
1.2047189
1.1902367
1.1902883
1.1903584
1.1904474
1.1905857
1.1908197
1.1911623
1.1916441
1.1922746
1.1930399
1.1939268
1.1949141
1.1959234
1.1969291
1.1979517
1.1989237
1.1998238
1.2006613
1.201418
1.2020807
1.2026546
1.2031416
1.2035498
1.203871
1.2041428
1.2043159
1.20451
1.2045097
1.2047306
1.2044715
1.2047003
1.1904687
1.1905984
1.1907254
1.1908311
1.1909784
1.1912033
1.1915239
1.1919656
1.1925412
1.193246
1.1940711
1.1949972
1.1959613
1.1969359
1.19793
1.1988836
1.1997755
1.2006074
1.2013615
1.2020267
1.2026039
1.203094
1.2035067
1.2038324
1.2041086
1.2042855
1.2044825
1.2044841
1.2047029
1.2044405
1.204671
1.190735
1.1909042
1.1910484
1.1911894
1.1913536
1.1915749
1.1918774
1.1922844
1.1928109
1.1934589
1.1942234
1.1950892
1.1960059
1.1969455
1.1979084
1.1988415
1.1997226
1.2005483
1.2012992
1.2019669
1.2025494
1.2030425
1.2034601
1.2037909
1.2040717
1.2042527
1.2044527
1.2044562
1.2046727
1.2044073
1.204631
1.1909656
1.1911611
1.1913358
1.1915065
1.1916903
1.1919161
1.1922086
1.1925896
1.193076
1.1936743
1.1943832
1.1951916
1.1960605
1.1969629
1.1978923
1.1988026
1.1996704
1.2004881
1.2012357
1.2019046
1.2024913
1.2029883
1.203411
1.2037471
1.2040327
1.204218
1.204421
1.2044264
1.2046401
1.204371
1.2045742
1.1911703
1.1913921
1.1915969
1.1917916
1.1919943
1.1922291
1.192518
1.1928812
1.1933358
1.1938915
1.1945502
1.1953051
1.1961265
1.1969899
1.1978844
1.1987695
1.1996213
1.200429
1.2011719
1.2018409
1.2024305
1.2029313
1.2033593
1.2037007
1.2039914
1.2041812
1.2043872
1.2043944
1.2046047
1.2043302
1.2045022
1.1913634
1.1916067
1.1918353
1.192052
1.1922735
1.1925197
1.1928095
1.1931609
1.1935906
1.1941101
1.1947241
1.1954291
1.1962039
1.1970272
1.1978855
1.1987431
1.1995765
1.2003719
1.2011086
1.2017764
1.2023676
1.2028715
1.2033048
1.2036516
1.2039473
1.2041419
1.204351
1.2043603
1.204566
1.2042838
1.2044023
1.1915507
1.1918106
1.1920577
1.1922942
1.192534
1.1927927
1.1930862
1.1934304
1.193841
1.1943299
1.1949042
1.1955632
1.1962929
1.1970752
1.1978963
1.1987242
1.1995368
1.2003176
1.2010461
1.2017096
1.2023025
1.2028112
1.2032473
1.2035994
1.2039003
1.2040998
1.2043121
1.2043239
1.2045232
1.2042303
1.2043054
1.1917404
1.1920082
1.1922673
1.1925234
1.1927813
1.1930529
1.1933519
1.1936922
1.194088
1.1945513
1.1950904
1.1957073
1.1963935
1.1971346
1.1979174
1.1987139
1.199503
1.2002669
1.2009852
1.201643
1.2022357
1.2027482
1.2031869
1.203544
1.2038499
1.2040544
1.20427
1.2042848
1.2044753
1.204169
1.2042124
1.1919283
1.1922018
1.1924811
1.1927523
1.1930239
1.1933067
1.1936113
1.1939495
1.1943336
1.1947752
1.195283
1.1958614
1.1965058
1.1972059
1.1979495
1.1987132
1.1994762
1.2002209
1.2009267
1.2015778
1.2021686
1.2026827
1.2031238
1.2034858
1.2037965
1.2040061
1.2042249
1.204243
1.2044211
1.2041005
1.2040637
1.1921271
1.1924205
1.1927106
1.1929898
1.1932705
1.1935614
1.1938704
1.1942066
1.1945807
1.1950031
1.195483
1.1960257
1.1966302
1.1972895
1.1979936
1.1987228
1.1994576
1.2001808
1.2008718
1.2015144
1.2021015
1.2026158
1.2030584
1.2034251
1.2037404
1.203955
1.2041768
1.2041986
1.2043602
1.2040263
1.203937
1.1923713
1.1926683
1.1929587
1.1932422
1.1935287
1.1938244
1.1941352
1.1944682
1.1948325
1.1952373
1.1956913
1.1962007
1.196767
1.1973862
1.1980503
1.1987436
1.1994482
1.2001473
1.2008213
1.2014532
1.2020332
1.2025475
1.2029938
1.2033622
1.2036816
1.2039011
1.2041259
1.2041517
1.2042932
1.2039481
1.2038155
1.1926639
1.1929469
1.1932348
1.1935191
1.1938069
1.1941031
1.194412
1.1947396
1.195093
1.1954803
1.1959095
1.1963873
1.1969167
1.1974962
1.1981202
1.1987764
1.1994489
1.2001216
1.2007761
1.201395
1.2019664
1.2024788
1.2029277
1.2032972
1.2036204
1.2038447
1.204072
1.2041023
1.2042217
1.2038699
1.203618
1.1929928
1.1932654
1.1935483
1.1938286
1.1941124
1.1944041
1.1947071
1.1950258
1.1953661
1.1957349
1.1961394
1.1965863
1.1970798
1.1976201
1.1982039
1.1988218
1.1994604
1.2001046
1.2007371
1.2013408
1.2019024
1.2024109
1.2028594
1.20323
1.2035567
1.2037856
1.2040152
1.2040507
1.2041479
1.2037972
1.2034764
1.1933772
1.1936355
1.1939076
1.1941778
1.1944518
1.1947335
1.1950256
1.1953313
1.1956555
1.1960038
1.1963829
1.1967989
1.1972568
1.1977583
1.1983017
1.1988804
1.1994835
1.2000971
1.2007052
1.2012912
1.2018413
1.2023438
1.2027898
1.203161
1.2034906
1.2037241
1.2039557
1.2039968
1.2040736
1.2037312
1.203235
1.1938276
1.1940647
1.1943188
1.1945722
1.1948299
1.1950956
1.1953713
1.1956594
1.1959637
1.196289
1.1966411
1.1970259
1.1974482
1.1979109
1.1984139
1.1989528
1.1995188
1.2001
1.2006814
1.2012472
1.2017834
1.2022759
1.2027194
1.2030936
1.2034225
1.2036601
1.2038933
1.2039407
1.204
1.2036733
1.2030942
1.1943301
1.1945423
1.1947742
1.1950068
1.1952441
1.1954894
1.1957442
1.1960106
1.1962916
1.1965913
1.1969148
1.1972673
1.197654
1.1980781
1.1985406
1.1990391
1.1995669
1.2001139
1.2006665
1.2012097
1.2017296
1.2022107
1.2026497
1.2030248
1.2033524
1.2035937
1.2038283
1.2038826
1.2039284
1.2036222
1.2029918
1.1948793
1.1950635
1.1952692
1.195477
1.19569
1.195911
1.1961414
1.1963829
1.1966378
1.1969098
1.1972031
1.1975228
1.1978736
1.1982592
1.1986814
1.1991392
1.199628
1.2001392
1.2006611
1.2011794
1.2016807
1.2021493
1.2025813
1.202954
1.2032803
1.2035251
1.2037607
1.2038224
1.2038603
1.2035754
1.2029478
1.1954402
1.1955988
1.1957795
1.1959637
1.1961528
1.1963494
1.1965547
1.1967702
1.196998
1.1972413
1.197504
1.1977906
1.1981057
1.1984531
1.1988355
1.1992528
1.1997019
1.2001763
1.2006657
1.2011572
1.2016375
1.2020917
1.2025143
1.2028823
1.2032068
1.2034546
1.2036908
1.2037603
1.2037962
1.2035316
1.2029548
1.195999
1.1961341
1.1962911
1.1964527
1.1966192
1.1967926
1.1969738
1.1971641
1.1973656
1.1975809
1.1978136
1.1980678
1.1983481
1.1986583
1.1990016
1.1993789
1.1997884
1.2002252
1.2006807
1.2011435
1.2016007
1.202038
1.202447
1.2028107
1.2031356
1.2033823
1.2036186
1.2036963
1.2037358
1.2034901
1.2029639
1.1965299
1.1966464
1.1967837
1.1969263
1.1970736
1.1972269
1.1973869
1.1975548
1.1977322
1.1979216
1.1981263
1.1983501
1.1985974
1.1988722
1.1991778
1.1995162
1.1998865
1.2002855
1.2007062
1.2011386
1.2015709
1.2019893
1.202384
1.2027411
1.2030624
1.2033081
1.2035443
1.2036306
1.203678
1.2034496
1.2027758
1.19701
1.1971126
1.1972352
1.197364
1.1974974
1.1976359
1.19778
1.1979302
1.198088
1.1982555
1.1984356
1.1986322
1.1988494
1.1990913
1.1993616
1.1996627
1.1999951
1.2003566
1.200742
1.2011429
1.2015486
1.201946
1.2023251
1.2026729
1.2029876
1.2032328
1.2034683
1.2035631
1.2036212
1.2034116
1.2028404
1.1974615
1.1975506
1.1976585
1.1977736
1.1978938
1.198019
1.1981494
1.198285
1.1984266
1.198576
1.1987356
1.1989087
1.1990994
1.1993118
1.1995497
1.199816
1.2001122
1.2004373
1.2007876
1.2011563
1.2015341
1.2019087
1.2022703
1.2026044
1.2029128
1.2031598
1.2033908
1.2034941
1.2035648
1.2033774
1.2029538
1.1978485
1.1979281
1.1980258
1.1981317
1.1982436
1.1983606
1.1984824
1.1986085
1.1987392
1.1988755
1.1990195
1.199174
1.1993427
1.1995296
1.1997387
1.1999734
1.2002358
1.2005262
1.2008421
1.2011785
1.2015273
1.2018778
1.20222
1.2025397
1.2028396
1.2030853
1.2033118
1.2034237
1.2035092
1.2033502
1.2031329
1.198209
1.1982776
1.1983637
1.1984591
1.1985614
1.1986699
1.1987837
1.1989019
1.1990242
1.1991509
1.1992833
1.1994235
1.1995747
1.1997405
1.1999249
1.2001317
1.2003634
1.2006214
1.2009044
1.2012088
1.2015283
1.2018535
1.2021748
1.2024792
1.2027681
1.203009
1.2032323
1.2033521
1.2034544
1.2033302
1.2033717
1.1985249
1.1985846
1.1986604
1.1987466
1.1988407
1.1989421
1.1990495
1.1991621
1.1992787
1.1993989
1.1995234
1.1996535
1.1997915
1.1999408
1.200105
1.2002878
1.2004925
1.2007208
1.2009728
1.2012464
1.2015366
1.2018358
1.202135
1.2024225
1.2026963
1.2029329
1.2031553
1.2032792
1.2033999
1.2033139
1.2036575
1.1988099
1.1988623
1.1989282
1.1990047
1.1990903
1.199184
1.1992851
1.1993922
1.1995041
1.1996197
1.1997388
1.1998619
1.1999907
1.2001275
1.2002758
1.2004389
1.2006201
1.2008221
1.2010457
1.20129
1.2015516
1.2018245
1.2021007
1.2023699
1.2026285
1.2028584
1.2030757
1.2032056
1.2033445
1.2032999
1.2039725
1.1990672
1.1991143
1.1991715
1.1992383
1.1993147
1.1994003
1.1994945
1.1995959
1.1997031
1.1998148
1.1999299
1.2000484
1.2001707
1.2002987
1.2004348
1.2005821
1.2007439
1.200923
1.2011211
1.2013383
1.2015725
1.2018192
1.202072
1.2023216
1.2025643
1.2027832
1.2029951
1.2031334
1.2032865
1.2032847
1.2043005
1.1993102
1.1993453
1.1993966
1.1994546
1.1995212
1.1995976
1.1996836
1.1997782
1.19988
1.1999873
1.2000989
1.2002137
1.2003316
1.2004532
1.2005804
1.2007156
1.2008616
1.2010215
1.2011972
1.2013896
1.201598
1.2018194
1.2020486
1.2022778
1.2025033
1.2027107
1.2029152
1.2030585
1.203225
1.2032639
1.2046135
1.1995429
1.1995652
1.1996036
1.1996554
1.1997133
1.1997802
1.1998572
1.1999439
1.2000391
1.2001411
1.2002486
1.2003599
1.2004741
1.2005912
1.2007119
1.2008378
1.2009715
1.2011154
1.2012719
1.2014424
1.2016271
1.2018242
1.2020301
1.2022386
1.2024459
1.2026408
1.2028342
1.2029807
1.2031609
1.2032367
1.2048134
1.1997576
1.1997765
1.1998023
1.1998411
1.1998926
1.1999508
1.2000184
1.2000962
1.2001837
1.2002794
1.2003818
1.2004891
1.2005999
1.2007132
1.200829
1.2009481
1.2010721
1.2012032
1.2013436
1.201495
1.2016583
1.2018327
1.2020161
1.2022037
1.202392
1.2025731
1.2027539
1.2029014
1.2030905
1.2031951
1.2047235
1.1999544
1.1999689
1.1999909
1.2000182
1.2000572
1.2001091
1.2001682
1.2002369
1.2003159
1.2004044
1.2005008
1.2006034
1.2007104
1.2008203
1.2009323
1.2010461
1.2011628
1.2012838
1.2014109
1.201546
1.2016903
1.2018439
1.2020058
1.2021729
1.2023418
1.2025078
1.2026758
1.2028208
1.2030109
1.2031275
1.2045944
1.2001386
1.2001484
1.2001652
1.2001881
1.2002161
1.2002558
1.2003085
1.2003689
1.2004389
1.2005192
1.2006086
1.2007055
1.200808
1.2009141
1.2010225
1.2011322
1.2012431
1.2013561
1.2014725
1.201594
1.2017217
1.2018567
1.2019985
1.2021455
1.2022952
1.2024449
1.2025988
1.2027381
1.2029238
1.2030377
1.2043417
1.2003092
1.200315
1.2003267
1.2003444
1.2003679
1.2003969
1.2004379
1.2004919
1.2005538
1.2006255
1.2007071
1.2007973
1.2008944
1.2009962
1.2011009
1.2012068
1.2013131
1.2014198
1.2015277
1.2016378
1.2017515
1.2018699
1.2019933
1.2021212
1.2022519
1.2023843
1.2025227
1.2026536
1.20283
1.2029328
1.2041429
1.2004692
1.2004717
1.2004791
1.2004914
1.2005094
1.2005335
1.200564
1.2006067
1.2006622
1.2007256
1.2007986
1.2008812
1.2009718
1.2010684
1.2011688
1.2012709
1.2013731
1.2014747
1.2015757
1.2016766
1.2017785
1.2018824
1.2019893
1.2020992
1.2022115
1.2023261
1.2024475
1.2025659
1.2027296
1.2028198
1.2038935
1.2006185
1.2006183
1.2006221
1.2006299
1.2006425
1.2006609
1.2006857
1.2007181
1.200763
1.20082
1.2008849
1.2009591
1.2010424
1.2011328
1.201228
1.2013258
1.201424
1.2015211
1.2016164
1.2017098
1.2018019
1.2018934
1.2019856
1.202079
1.2021735
1.2022702
1.2023735
1.2024771
1.2026241
1.2027008
1.2037041
1.2007599
1.2007576
1.2007584
1.2007624
1.2007704
1.2007835
1.2008026
1.2008282
1.2008625
1.2009077
1.2009637
1.2010299
1.2011056
1.2011893
1.201279
1.2013722
1.2014663
1.2015594
1.20165
1.2017372
1.2018211
1.2019022
1.2019815
1.2020598
1.2021377
1.2022165
1.2023012
1.2023891
1.2025152
1.2025768
1.2034104
1.2008911
1.2008871
1.2008854
1.2008862
1.2008902
1.2008983
1.2009118
1.2009314
1.2009571
1.2009939
1.201043
1.2011003
1.201167
1.2012426
1.2013253
1.2014127
1.201502
1.2015908
1.2016769
1.2017589
1.201836
1.2019083
1.2019765
1.2020413
1.2021036
1.2021651
1.2022309
1.2023012
1.2024027
1.2024524
1.2032385
1.2010113
1.2010061
1.2010027
1.2010011
1.201002
1.2010062
1.2010148
1.2010291
1.2010498
1.2010777
1.2011166
1.2011671
1.2012256
1.2012928
1.2013679
1.2014487
1.2015325
1.2016165
1.2016981
1.2017753
1.2018466
1.2019115
1.2019701
1.2020231
1.2020711
1.2021159
1.2021629
1.2022142