/*--------------------------------*- C++ -*----------------------------------*\
| =========                 |                                                 |
| \\      /  F ield         | OpenFOAM: The Open Source CFD Toolbox           |
|  \\    /   O peration     | Version:  2406                                  |
|   \\  /    A nd           | Website:  www.openfoam.com                      |
|    \\/     M anipulation  |                                                 |
\*---------------------------------------------------------------------------*/
FoamFile
{
    version     2.0;
    format      ascii;
    arch        "LSB;label=32;scalar=64";
    class       volScalarField;
    location    "0.008";
    object      k;
}
// * * * * * * * * * * * * * * * * * * * * * * * * * * * * * * * * * * * * * //

dimensions      [0 2 -2 0 0 0 0];

internalField   nonuniform List<scalar> 
23203
(
240.52416
246.00593
252.25758
259.75637
268.90315
279.89176
292.61986
306.69247
321.51783
336.44341
350.87168
364.32503
376.46311
387.07094
396.03494
403.31764
408.93595
412.94414
415.42137
416.45794
416.15518
414.62326
411.96738
238.94351
244.60793
251.007
258.57419
267.67058
278.46725
290.86673
304.50622
318.84234
333.2722
347.23833
360.28954
372.09936
382.45714
391.24739
398.42701
404.00534
408.02818
410.56582
411.70263
411.5329
410.15736
407.67565
237.86567
243.69553
250.22213
257.83515
266.85685
277.43697
289.48354
302.66581
316.48819
330.39715
343.87542
356.49874
367.95498
378.03826
386.63144
393.68601
399.20386
403.2225
405.80373
407.02471
406.97264
405.74063
403.42233
237.31444
243.28064
249.90543
257.53467
266.45272
276.78914
288.45796
301.15983
314.44591
327.81115
340.77821
352.94995
364.029
373.81466
382.1885
389.09681
394.53423
398.53013
401.13801
402.42738
402.47815
401.37652
399.21026
237.31137
243.37404
250.05807
257.66642
266.44687
276.50987
287.77556
299.97493
312.70422
325.50542
337.94042
349.63908
360.31911
369.78543
377.91871
384.66035
389.99796
393.95293
396.57058
397.91266
398.05185
397.06802
237.87261
243.98288
250.67887
258.22255
266.82689
276.58442
287.42125
299.0972
311.25133
323.47073
335.35533
346.56167
356.82273
365.94944
373.82201
380.37735
385.59628
389.49241
392.10303
393.48206
393.69479
392.81334
239.00664
245.10902
251.76352
259.19356
267.57963
276.99778
287.37986
298.51264
310.07533
321.69766
333.01603
343.71308
353.5371
362.3054
369.89823
376.24839
381.33028
385.14995
387.73678
389.13696
389.40841
388.61591
240.72053
246.75295
253.30672
260.56951
268.69201
277.73531
287.63666
298.20762
309.1645
320.17681
330.91555
341.08854
350.45929
358.85188
366.14702
372.2739
377.20089
380.92676
383.47319
384.87877
385.19415
384.4772
243.01346
248.9102
255.30039
262.33925
270.15081
278.78287
288.17766
298.1692
308.5076
318.89906
329.04694
338.68317
347.58625
355.58725
362.56785
368.45415
373.20889
376.82392
379.31352
380.70886
381.05348
380.39862
245.87941
251.57232
257.73399
264.49075
271.94312
280.12731
288.99005
298.3855
308.09419
317.85573
327.40345
336.49211
344.91477
352.5097
359.16
364.78918
369.35486
372.84241
375.25899
376.62859
376.98787
376.38159
249.3054
254.72752
260.59571
267.01215
274.05716
281.757
290.06261
298.846
307.91483
317.03879
325.97867
334.51056
342.44157
349.61724
355.92253
361.27886
365.63927
368.98307
371.31069
372.63926
372.99872
372.42753
253.27203
258.36012
263.87209
269.8915
276.48192
283.66161
291.38555
299.54155
307.96118
316.44096
324.76659
332.73388
340.16333
346.90776
352.8543
357.92285
362.06237
365.2466
367.46965
368.74207
369.08734
368.53778
257.74759
262.44369
267.54285
273.11299
279.20472
285.83055
292.94965
300.46384
308.22574
316.05564
323.76161
331.1576
338.07675
344.37902
349.95404
354.72064
358.62426
361.63356
363.73674
364.93811
365.25495
364.7136
262.68768
266.9437
271.5812
276.65636
282.21039
288.25224
294.74564
301.60505
308.70164
315.87676
322.95853
329.77747
336.17855
342.02869
347.22029
351.67154
355.32487
358.14435
360.11271
361.22838
361.50269
360.95619
268.04179
271.82027
275.9559
280.49802
285.48152
290.91387
296.76378
302.95732
309.38223
315.89855
322.35239
328.58934
334.46544
339.85438
344.65147
348.77468
352.16393
354.77919
356.59816
357.61373
357.83156
357.26664
273.75057
277.02424
280.62892
284.60932
288.99717
293.80028
298.99292
304.51211
310.26058
316.11515
321.93816
327.58901
332.93404
337.85351
342.24578
346.029
349.141
351.53814
353.19351
354.09486
354.24246
353.64594
279.74744
282.50187
285.55803
288.95789
292.7331
296.89357
301.41976
306.25928
311.32865
316.51998
321.71037
326.77192
331.58068
336.02325
340.0012
343.43317
346.25537
348.42102
349.89901
350.67232
350.73615
350.09498
285.96025
288.19185
290.69219
293.50354
296.65857
300.17056
304.02691
308.18563
312.57623
317.10491
321.66242
326.13273
330.40106
334.36028
337.91527
340.98552
343.50606
345.42739
346.71468
347.34647
347.31322
346.61452
292.31154
294.02562
295.97361
298.19892
300.73587
303.60198
306.79198
310.27407
313.99009
317.85957
321.78608
325.66485
329.38999
332.86054
335.98496
338.6839
340.89166
342.5565
343.64024
344.11744
343.9741
343.20517
298.7261
299.937
301.34517
302.99573
304.92514
307.15563
309.68932
312.50426
315.55416
318.77115
322.07111
325.36011
328.54096
331.51898
334.20642
336.52552
338.41026
339.80714
340.67511
340.98509
340.71898
339.86738
305.13151
305.85984
306.74901
307.8444
309.18423
310.79628
312.68982
314.85242
317.24905
319.82396
322.50484
325.20831
327.84586
330.32921
332.57475
334.5067
336.05924
337.17757
337.81822
337.9489
337.54777
336.60135
311.45739
311.72925
312.12487
312.68985
313.46536
314.4832
315.75932
317.29016
319.05139
320.99883
323.07163
325.19682
327.29456
329.28324
331.08372
332.62273
333.83513
334.66533
335.06796
335.00793
334.46003
333.40703
317.63825
317.48259
317.41438
317.47976
317.72135
318.17494
318.86156
319.7862
320.93456
322.27343
323.75297
325.31042
326.87472
328.37117
329.72556
330.8676
331.73339
332.26713
332.42202
332.16067
331.45488
330.28402
323.61651
323.06424
322.56477
322.16463
321.90709
321.82964
321.95894
322.30729
322.86959
323.62285
324.52771
325.53141
326.57171
327.5811
328.49072
329.23381
329.74828
329.97866
329.87729
329.40495
328.53091
327.23147
329.34094
328.4239
327.52742
326.69691
325.97589
325.4039
325.01198
324.81806
324.82512
325.0196
325.37209
325.83955
326.36856
326.89902
327.36783
327.71227
327.87266
327.79445
327.42969
326.73783
325.68608
324.24808
334.76796
333.51722
332.25747
331.03261
329.8863
328.85871
327.9833
327.28336
326.76882
326.43454
326.26033
326.21245
326.24614
326.30885
326.34361
326.29221
326.09794
325.70779
325.07407
324.15548
322.91763
321.33192
339.8622
338.30802
336.71834
335.13512
333.6007
332.15561
330.83536
329.66776
328.6677
327.83745
327.16522
326.62601
326.18349
325.79269
325.40301
324.96119
324.41403
323.71064
322.80416
321.65311
320.22199
318.4804
344.59518
342.76597
340.87785
338.97051
337.08475
335.26108
333.53593
331.939
330.49041
329.1986
328.05921
327.05524
326.15839
325.33115
324.52943
323.70527
322.80943
321.79365
320.61253
319.2249
317.5947
315.69023
348.94601
346.86838
344.71159
342.51296
340.31128
338.14576
336.05342
334.06538
332.20619
330.48855
328.9146
327.4746
326.14773
324.90373
323.70503
322.50918
321.27129
319.94624
318.49057
316.86401
315.03045
312.95732
352.90038
350.59871
348.20065
345.74098
343.25632
340.78435
338.36177
336.02106
333.78808
331.68032
329.70514
327.85914
326.12839
324.48944
322.91113
321.35664
319.78569
318.1567
316.42864
314.56262
312.52298
310.27681
356.45019
353.94674
351.33249
348.63978
345.90289
343.15762
340.4394
337.78134
335.21046
332.74821
330.40551
328.18451
326.0774
324.0671
322.12861
320.23068
318.33787
316.41242
314.41613
312.31198
310.06523
307.64304
359.59293
356.90776
354.1
351.19954
348.23831
345.25005
342.26881
339.32717
336.45376
333.67086
330.99366
328.42861
325.97326
323.61631
321.33854
319.11419
316.91263
314.70016
312.44175
310.1026
307.64934
305.04967
362.33092
359.48208
356.50115
353.41575
350.25549
347.05198
343.83758
340.64377
337.4997
334.42862
331.44917
328.57075
325.79555
323.11742
320.52247
317.99015
315.49463
313.00635
310.49369
307.92441
305.26688
302.48973
364.67087
361.67448
358.53855
355.28856
351.9519
348.55799
345.13739
341.7204
338.33551
335.00776
331.75618
328.59394
325.52673
322.55287
319.66331
316.8424
314.06891
311.31748
308.55998
305.767
302.90897
299.95578
366.62311
363.49359
360.21881
356.82231
353.32936
349.76729
346.16478
342.55067
338.95262
335.39599
331.90075
328.48301
325.15085
321.90648
318.74515
315.65564
312.62114
309.62036
306.62876
303.6199
300.5665
297.44006
368.20112
364.95136
361.55209
358.02505
354.39358
350.68299
346.92008
343.13217
339.34592
335.5861
331.8745
328.22729
324.65588
321.16531
317.75453
314.41642
311.13827
307.90269
304.68869
301.47288
298.23046
294.93474
369.42096
366.06252
362.5515
358.90806
355.15374
351.31195
347.40767
343.46664
339.51436
335.57499
331.67053
327.81811
324.03162
320.31805
316.67961
313.11276
309.60853
306.15318
302.72919
299.31624
295.8921
292.43212
370.30074
366.84406
363.23269
359.48535
355.62195
351.66415
347.63519
343.55926
339.4606
335.36261
331.28681
327.25219
323.27235
319.35761
315.51215
311.73563
308.02245
304.36232
300.74101
297.14123
293.54337
289.92492
370.86018
367.31476
363.61329
359.7732
355.81295
351.75258
347.61372
343.41904
339.19148
334.95348
330.7261
326.52851
322.37594
318.27989
314.24663
310.2784
306.37266
302.52234
298.71632
294.94024
291.1771
287.40656
371.12009
367.49459
363.71223
359.78927
355.74282
351.59148
347.35539
343.05575
338.71428
334.35246
329.99082
325.6481
321.34109
317.08133
312.87834
308.73556
304.65317
300.62697
296.64876
292.70699
288.78722
284.87135
371.10218
367.40467
363.54986
359.55297
355.42991
351.19793
346.87579
342.48337
338.04115
333.56968
329.08882
324.61711
320.17115
315.76479
311.40781
307.10594
302.86149
298.67277
294.53427
290.43708
286.36925
282.31489
370.82862
367.06667
363.14726
359.08463
354.89359
350.59019
346.19192
341.7174
337.18598
332.61725
328.03039
323.44358
318.87332
314.33452
309.83739
305.39059
300.99744
296.65858
292.37095
288.12809
283.92047
279.73433
370.32167
366.50251
362.52588
358.40514
354.15406
349.78759
345.32205
340.77491
336.16443
331.50923
326.82781
322.13794
317.45612
312.79712
308.17344
303.59391
299.06397
294.58613
290.1595
285.77997
281.44023
277.12865
369.60341
365.73399
361.70719
357.53552
353.2318
348.80993
344.28517
339.67391
334.99337
330.26127
325.49541
320.71313
315.93076
311.16318
306.42386
301.72217
297.06621
292.45941
287.90298
283.39492
278.93009
274.49888
368.69544
364.78253
360.71238
356.49668
352.14734
347.6773
343.10079
338.43319
333.69076
328.89034
324.04902
319.18364
314.31037
309.44423
304.59869
299.78533
295.01245
290.28547
285.60729
280.97787
276.39412
271.8484
367.61862
363.66888
359.56206
355.30904
350.92086
346.40955
341.78837
337.07174
332.27498
327.41411
322.50549
317.56548
312.61001
307.65412
302.71152
297.79474
292.91275
288.07344
283.28061
278.53612
273.83883
269.18301
366.39289
362.41292
358.27604
353.99231
349.57196
345.02612
340.36713
335.60848
330.76461
325.85069
320.88239
315.87554
310.84575
305.80804
300.77639
295.76348
290.7804
285.83533
280.93396
276.07979
271.27346
266.51113
365.03705
361.0334
356.873
352.56516
348.11924
343.54554
338.85551
334.06173
329.17776
324.21796
319.19728
314.131
309.03439
303.92234
298.80901
293.70742
288.62957
283.58446
278.58012
273.62097
268.70947
263.8436
363.5686
359.5478
355.37046
351.04507
346.58022
341.98535
337.27105
332.44902
327.53195
322.53337
317.46753
312.34909
307.19291
302.0137
296.82568
291.64222
286.47561
281.33685
276.23432
271.17435
266.16097
261.19391
362.00366
357.9722
353.78445
349.44812
344.97101
340.36173
335.63001
330.78668
325.84357
320.8134
315.70966
310.54639
305.33795
300.09881
294.84315
289.58456
284.33577
279.10858
273.91241
268.75569
263.64351
258.57738
360.35681
356.32115
352.12955
347.78891
343.30625
338.68939
333.94721
329.08968
324.12778
319.07339
313.93922
308.73863
303.48547
298.1938
292.87769
287.55083
282.22633
276.91638
271.63219
266.38265
261.17473
256.01153
358.64108
354.60762
350.41869
346.08037
341.59894
336.98142
332.23587
327.37141
322.39815
317.32714
312.17028
306.94022
301.6502
296.31384
290.94494
285.55719
280.1639
274.77773
269.41061
264.07258
258.77247
253.51457
356.8679
352.84297
348.66316
344.33379
339.86038
335.24919
330.50747
325.6435
320.66653
315.58676
310.41527
305.16396
299.84539
294.47265
289.05915
283.61842
278.16387
272.70848
267.26461
261.84387
256.45555
251.10594
355.04711
351.03689
346.87258
342.55872
338.1001
333.50225
328.77163
323.91568
318.94282
313.86239
308.68465
303.42069
298.08235
292.6821
287.23288
281.74793
276.24056
270.72387
265.21062
259.71301
254.24177
248.80441
353.1869
349.19743
345.05487
340.76296
336.32584
331.7483
327.03605
322.19572
317.23489
312.16206
306.98663
301.71888
296.36987
290.95138
285.47578
279.95589
274.40477
268.83554
263.26116
257.69416
252.1464
246.62618
351.29396
347.33108
343.21631
338.95267
334.54362
329.99328
325.30662
320.48949
315.54867
310.4918
305.32745
300.06504
294.71484
289.28787
283.79586
278.25106
272.66618
267.05414
261.42794
255.80038
250.18363
244.58754
349.37346
345.44276
341.36163
337.13234
332.75776
328.24135
323.58739
318.80098
313.8881
308.85559
303.71115
298.46338
293.1217
287.69636
282.19835
276.6393
271.03139
265.38722
259.71961
254.0414
248.365
242.70091
347.42916
343.53596
339.49402
335.30493
330.97097
326.49502
321.88066
317.13232
312.25519
307.25532
302.1396
296.91578
291.59244
286.17901
280.68568
275.12338
269.50367
263.83865
258.14082
252.42289
246.69734
240.97493
345.4635
341.61281
337.6153
333.47194
329.18447
324.75519
320.18709
315.48389
310.6501
305.69099
300.61264
295.42198
290.12676
284.73555
279.25775
273.7035
268.08364
262.40968
256.69362
250.94784
245.18473
239.41516
343.4777
339.67417
335.726
331.63353
327.39806
323.02133
318.50578
313.85451
309.07132
304.16077
299.12818
293.97968
288.72217
283.36342
277.91195
272.37711
266.76898
261.09834
255.37659
249.61564
243.82755
238.02313
341.47189
337.71981
333.82548
329.7887
325.61033
321.29164
316.83454
312.24154
307.51582
302.66126
297.68244
292.58472
287.37422
282.05786
276.64334
271.13915
265.55457
259.8996
254.18494
248.42187
242.62197
236.79582
339.44525
335.7485
331.91211
327.93539
323.81879
319.56318
315.16996
310.64113
305.97928
301.18765
296.27014
291.23139
286.07674
280.8123
275.44496
269.98237
264.43296
258.80593
253.11117
247.35927
241.56118
235.7271
337.39612
333.75819
329.98341
326.07067
322.02007
317.83208
313.50769
309.04841
304.45629
299.73399
294.88479
289.91262
284.82211
279.6186
274.30817
268.89766
263.39465
257.80749
252.14527
246.41779
240.63527
234.8074
335.32217
331.74612
328.03619
324.1909
320.21002
316.09372
311.84258
307.45767
302.94058
298.29342
293.51889
288.62029
283.60157
278.46734
273.22293
267.87436
262.42839
256.89254
251.27505
245.58489
239.83151
234.02397
333.2205
329.70898
326.06671
322.29187
318.38398
314.3429
310.16888
305.8626
301.42523
296.85838
292.16423
287.3455
282.40551
277.34819
272.17815
266.90065
261.52166
256.04787
250.48668
244.84622
239.13512
233.36176
331.08781
327.64307
324.07083
320.36898
316.53684
312.574
308.48043
304.25646
299.90287
295.42085
290.8121
286.07881
281.22373
276.25017
271.16205
265.96393
260.66102
255.25923
249.76513
244.18601
238.52969
232.80382
328.92049
325.54438
322.04411
318.41736
314.66326
310.78118
306.77083
302.63226
298.3659
293.97258
289.45354
284.81052
280.04574
275.16195
270.16244
265.05113
259.8325
254.51172
249.09458
243.58755
237.99766
232.3318
326.71476
323.40874
319.98198
316.43201
312.75777
308.95847
305.0336
300.98296
296.80667
292.50523
288.07952
283.53086
278.86098
274.07213
269.16705
264.14904
259.02193
253.79018
248.45887
243.03369
237.52086
231.92657
324.46674
321.23192
317.87985
314.4079
310.81491
307.09994
303.26229
299.30155
295.21758
291.0106
286.68116
282.23019
277.65903
272.96947
268.16374
263.24457
258.21523
253.07953
247.84184
242.50714
237.08091
231.56865
322.17258
319.00973
315.73315
312.34011
308.82935
305.19981
301.45065
297.58126
293.5913
289.48073
285.24983
280.8992
276.42982
271.84306
267.14072
262.32503
257.39872
252.365
247.22765
241.99096
236.65971
231.23875
319.82856
316.73814
313.53752
310.22391
306.79597
303.25256
299.59269
295.81562
291.92083
287.90808
283.77737
279.52905
275.16378
270.68256
266.08681
261.37832
256.55934
251.63255
246.60116
241.46885
236.23977
230.91815
317.43111
314.4133
311.28882
308.05483
304.70997
301.25299
297.68282
293.9986
290.19966
286.28557
282.25615
278.11149
273.85198
269.47832
264.99158
260.39315
255.68487
250.86896
245.9481
240.92544
235.80454
230.58907
314.97693
312.03166
308.98322
305.82878
302.56691
299.19634
295.71591
292.12466
288.42181
284.60677
280.6792
276.63898
272.48626
268.22149
263.84542
259.35914
254.76407
250.06204
245.25529
240.34646
235.33859
230.23486
312.46306
309.59002
306.6173
303.54205
300.36283
297.07833
293.68735
290.18884
286.58192
282.86589
279.04025
275.10473
271.05928
266.90411
262.63973
258.26691
253.78677
249.20078
244.51076
239.71893
234.82786
229.84027
309.88688
307.08559
304.18805
301.19142
298.09427
294.89526
291.59314
288.18681
284.67532
281.05787
277.33385
273.50284
269.56462
265.51922
261.36691
257.10824
252.74403
248.27542
243.70391
239.03132
234.25981
229.3917
307.24625
304.51604
301.69297
298.77421
295.75833
292.64398
289.4299
286.11494
282.69808
279.17846
275.55537
271.82827
267.99681
264.06087
260.02051
255.87607
251.62813
247.27758
242.82558
238.27364
233.62355
228.87726
304.53946
301.87956
299.1301
296.2883
293.35273
290.32204
287.19495
283.97031
280.64703
277.22421
273.70106
270.07695
266.35141
262.52418
258.59519
254.56457
250.43271
246.20024
241.86809
237.43746
232.90984
228.28685
301.76539
299.17489
296.49807
293.73217
290.8758
287.92762
284.88633
281.75077
278.51983
275.19255
271.7681
268.24576
264.62499
260.90539
257.08678
253.16914
249.15267
245.03781
240.82526
236.51597
232.11114
227.61214
298.92342
296.40135
293.79611
291.10498
288.3266
285.45964
282.50283
279.45496
276.31494
273.08177
269.75456
266.33256
262.81514
259.20182
255.49229
251.68643
247.78427
243.7861
239.6924
235.50392
231.22163
226.84664
296.01359
293.5589
291.0241
288.40654
285.70486
282.91777
280.04399
277.08233
274.03169
270.89104
267.65948
264.3362
260.92051
257.41188
253.80989
250.11431
246.32507
242.44229
238.4663
234.39766
230.23714
225.98564
293.03653
290.64814
288.18262
285.63736
283.01104
280.30238
277.51014
274.63313
271.67024
268.62044
265.48281
262.25649
258.94078
255.53506
252.03887
248.45186
244.77388
241.00492
237.14518
233.19504
229.15512
225.02611
289.99354
287.67034
285.27291
282.79866
280.24632
277.61464
274.9024
272.10841
269.23159
266.27089
263.22539
260.09421
256.8766
253.57191
250.17961
246.69931
243.13074
239.4738
235.72858
231.89534
227.97451
223.96665
286.88655
284.62744
282.29688
279.89235
277.41261
274.85644
272.22263
269.51003
266.71756
263.84418
260.88896
257.85101
254.72957
251.52394
248.23355
244.85795
241.39681
237.84995
234.21735
230.49914
226.69566
222.80732
283.71816
281.52202
279.25715
276.92105
274.51252
272.03037
269.47344
266.84058
264.13074
261.34289
258.47608
255.52945
252.50219
249.3936
246.20308
242.93011
239.57433
236.13547
232.61344
229.00829
225.32022
221.54955
280.4916
278.35735
276.15697
273.88801
271.54933
269.13975
266.65814
264.1034
261.47447
258.77035
255.9901
253.13284
250.19778
247.1842
244.09145
240.91901
237.66645
234.33346
230.91987
227.42566
223.85095
220.19594
277.2107
275.13725
273.00021
270.79714
268.52695
266.1885
263.7807
261.30246
258.75275
256.13059
253.43504
250.66525
247.82041
244.89979
241.90273
238.82868
235.67719
232.44789
229.14056
225.75512
222.2916
218.75013
273.87986
271.86616
269.7913
267.6529
265.44988
263.18116
260.84566
258.44234
255.97018
253.42824
250.81558
248.13136
245.37478
242.54509
239.64165
236.66388
233.61128
230.48348
227.2802
224.0013
220.64677
217.21665
270.50396
268.54899
266.53519
264.46025
262.32311
260.12273
257.85808
255.52813
253.13191
250.66847
248.13692
245.5364
242.86615
240.12541
237.31353
234.42992
231.47407
228.44558
225.34413
222.16954
218.92175
215.60074
267.08834
265.19108
263.23726
261.22458
259.15207
257.01869
254.82346
252.56537
250.24348
247.85687
245.40467
242.88605
240.30022
237.64647
234.92413
232.1326
229.27137
226.34001
223.33819
220.26568
217.12237
213.90822
263.63867
261.79813
259.9032
257.95165
255.94252
253.87483
251.74761
249.5599
247.31079
244.99938
242.62481
240.18629
237.68303
235.11434
232.47954
229.77804
227.00933
224.17295
221.26855
218.29588
215.2548
212.14523
260.1609
258.37609
256.539
254.64744
252.70047
250.69717
248.63659
246.51781
244.33995
242.10212
239.80351
237.44333
235.02082
232.53528
229.98606
227.37258
224.69429
221.95075
219.14159
216.26654
213.32543
210.31813
256.66113
254.93109
253.15079
251.31809
249.43209
247.49189
245.49661
243.44533
241.3372
239.17138
236.94707
234.6635
232.31993
229.91568
227.4501
224.92262
222.33269
219.67987
216.96378
214.18413
211.34072
208.43341
253.14556
251.46931
249.74476
247.9698
246.14358
244.26523
242.33389
240.3487
238.30882
236.21345
234.0618
231.85313
229.58672
227.2619
224.87805
222.43458
219.93097
217.36677
214.74158
212.05511
209.30714
206.4975
249.62037
247.99694
246.32709
244.60875
242.84112
241.02336
239.15464
237.23413
235.26103
233.23455
231.15394
229.01847
226.82746
224.58025
222.27621
219.91479
217.49546
215.01776
212.48132
209.88581
207.23101
204.51673
246.09163
244.52004
242.90384
241.24101
239.53079
237.77236
235.96493
234.1077
232.1999
230.24077
228.22959
226.16565
224.04827
221.87683
219.65072
217.36937
215.03229
212.63901
210.18914
207.68238
205.11848
202.49723
242.56526
241.04452
239.48091
237.87247
236.21845
234.5181
232.77063
230.97529
229.13132
227.23801
225.29464
223.30053
221.25505
219.15755
217.00747
214.80424
212.54737
210.23642
207.87098
205.45074
202.97545
200.44489
239.04693
237.57604
236.06394
234.50875
232.90975
231.2662
229.57736
227.8425
226.06089
224.23185
222.35469
220.42874
218.45339
216.42803
214.35208
212.22502
210.04634
207.81561
205.53244
203.1965
200.80754
198.36531
235.54201
234.11994
232.65828
231.1552
229.60999
228.02197
226.39042
224.71464
222.99393
221.22761
219.41504
217.55558
215.64862
213.69357
211.68987
209.63701
207.5345
205.3819
203.17884
200.92497
198.62004
196.2638
232.05555
230.68127
229.26895
227.8168
226.32418
224.79041
223.2148
221.59668
219.93538
218.23025
216.48066
214.686
212.84567
210.95911
209.02578
207.04517
205.0168
202.94025
200.81512
198.6411
196.41791
194.14531
228.59222
227.26468
225.90058
224.49821
223.05694
221.57612
220.0551
218.49322
216.88985
215.24436
213.55614
211.82459
210.04915
208.22927
206.36442
204.4541
202.49785
200.49525
198.44592
196.34952
194.20578
192.01445
225.15632
223.87445
222.55746
221.20369
219.81253
218.38337
216.91557
215.40852
213.86159
212.27418
210.64571
208.9756
207.26331
205.50829
203.71004
201.86806
199.98192
198.05119
196.07549
194.05449
191.98792
189.87552
221.75177
220.51449
219.24348
217.93711
216.59483
215.21602
213.80009
212.34643
210.85446
209.32359
207.75326
206.14292
204.49202
202.80006
201.06653
199.29097
197.47292
195.61199
193.70779
191.76
189.76832
187.73251
218.38209
217.18833
215.96215
214.70201
213.40735
212.07759
210.71216
209.31048
207.87199
206.39612
204.88232
203.33007
201.73885
200.10815
198.43749
196.72641
194.97447
193.18128
191.34646
189.46968
187.55066
185.58912
215.05046
213.89913
212.71666
211.50155
210.25326
208.97125
207.65497
206.30386
204.91737
203.49496
202.03611
200.5403
199.00703
197.43581
195.82617
194.17767
192.48988
190.76239
188.99485
187.18694
185.33834
183.4488
211.75971
210.64973
209.50983
208.33856
207.13541
205.89986
204.63138
203.32943
201.99348
200.62302
199.21753
197.77652
196.29951
194.78601
193.23558
191.64777
190.02218
188.3584
186.65608
184.91488
183.13453
181.31472
208.51236
207.44266
206.3442
205.21559
204.05635
202.86598
201.64396
200.38977
199.10292
197.7829
196.42922
195.0414
193.61897
192.16146
190.66844
189.13948
187.57417
185.97212
184.33298
182.65643
180.94216
179.18989
205.31066
204.28015
203.22201
202.1349
201.01836
199.87189
198.69501
197.48723
196.24805
194.97699
193.67358
192.33736
190.96786
189.56464
188.12727
186.65533
185.14843
183.60618
182.02823
180.41426
178.76397
177.07707
202.15659
201.16422
200.1453
199.09853
198.02348
196.91967
195.78664
194.6239
193.43099
192.20744
190.95279
189.6666
188.34842
186.99782
185.61437
184.19768
182.74734
181.263
179.74429
178.1909
176.60253
174.97888
199.05194
198.09667
197.11586
196.10831
195.07356
194.01118
192.92071
191.8017
190.65368
189.47622
188.26886
187.03117
185.76272
184.4631
183.13189
181.7687
180.37314
178.94485
177.48349
175.98872
174.46026
172.89781
195.99831
195.0791
194.13535
193.16589
192.17029
191.14813
190.09898
189.02239
187.91792
186.78514
185.62362
184.43294
183.21269
181.96245
180.68183
179.37044
178.02791
176.65387
175.24799
173.80995
172.33944
170.83617
192.99716
192.113
191.20526
190.27279
189.31521
188.33209
187.32303
186.28759
185.22535
184.13589
183.0188
181.87368
180.70011
179.4977
178.26607
177.00483
175.71361
174.39208
173.03988
171.65671
170.24226
168.79623
190.04986
189.19975
188.32698
187.43044
186.50976
185.56453
184.59436
183.59883
182.57753
181.53007
180.45604
179.35504
178.22669
177.0706
175.88639
174.67369
173.43214
172.1614
170.86114
169.53104
168.1708
166.78012
187.15766
186.34064
185.50183
184.64017
183.7553
182.84683
181.91438
180.95755
179.97595
178.96919
177.93687
176.87862
175.79406
174.68281
173.54451
172.37879
171.1853
169.96371
168.71368
167.43491
166.12709
164.78993
184.32178
183.53691
182.73106
181.90326
181.05314
180.18034
179.28447
178.36516
177.42203
176.45471
175.46281
174.44596
173.4038
172.33597
171.24209
170.12184
168.97485
167.80079
166.59935
165.37022
164.11309
162.82767
181.54342
180.78975
180.01592
179.22097
178.40457
177.56635
176.70596
175.82302
174.91718
173.98806
173.0353
172.05855
171.05745
170.03164
168.98077
167.9045
166.8025
165.67443
164.51998
163.33884
162.13073
160.89533
178.82375
178.10037
177.35761
176.59454
175.81084
175.00616
174.18016
173.33247
172.46276
171.57065
170.65581
169.71789
168.75653
167.77139
166.76213
165.72843
164.66994
163.58635
162.47734
161.34262
160.18189
158.99485
176.16394
175.46996
174.75735
174.0252
173.27322
172.50106
171.70839
170.89486
170.06015
169.2039
168.32577
167.42543
166.50254
165.55677
164.58778
163.59525
162.57885
161.53828
160.47321
159.38337
158.26845
157.12816
173.56518
172.89974
172.21636
171.51421
170.79297
170.05233
169.29197
168.51154
167.71073
166.8892
166.04662
165.18266
164.29701
163.38932
162.45929
161.50658
160.5309
159.53192
158.50934
157.46288
156.39224
155.29714
171.02868
170.39092
169.7359
169.06283
168.3714
167.6613
166.93223
166.18387
165.41588
164.62797
163.8198
162.99106
162.14143
161.27059
160.37824
159.46405
158.52773
157.56897
156.58747
155.58295
154.55511
153.50367
168.55569
167.94476
167.31724
166.67235
166.0098
165.3293
164.63054
163.91321
163.17702
162.42164
161.64677
160.8521
160.03732
159.20213
158.34622
157.46928
156.57101
155.65113
154.70933
153.74534
152.75887
151.74962
166.14745
165.56254
164.96166
164.34408
163.7095
163.05765
162.38824
161.70097
160.99554
160.27164
159.52899
158.76728
157.98621
157.18548
156.3648
155.52387
154.66239
153.78008
152.87665
151.95182
151.00531
150.03684
163.80526
163.24555
162.67048
162.07933
161.47184
160.84774
160.20673
159.54854
158.87286
158.17943
157.46793
156.73809
155.9896
155.22219
154.43556
153.62943
152.8035
151.95749
151.09113
150.20413
149.29622
148.36712
161.5304
160.9951
160.44501
159.87945
159.29817
158.70091
158.08738
157.45731
156.81042
156.14642
155.46505
154.76601
154.04902
153.3138
152.56007
151.78755
150.99596
150.18502
149.35445
148.50399
147.63336
146.74228
159.32416
158.81248
158.28656
157.74576
157.18984
156.61852
156.03156
155.42868
154.8096
154.17407
153.52179
152.85251
152.16595
151.46183
150.73987
149.99981
149.24138
148.46429
147.66828
146.85308
146.01843
145.16405
157.18784
156.69899
156.19644
155.67958
155.14816
154.60193
154.04063
153.46402
152.87181
152.26376
151.63959
150.99905
150.34186
149.66775
148.97647
148.26774
147.5413
146.79688
146.03422
145.25305
144.45312
143.63415
155.12267
154.65589
154.17592
153.68218
153.17443
152.65242
152.11591
151.56465
150.99839
150.41687
149.81983
149.20701
148.57816
147.93302
147.27133
146.59282
145.89725
145.18434
144.45384
143.70549
142.93903
142.15421
153.12987
152.6844
152.22623
151.7548
151.26989
150.77126
150.25867
149.73187
149.19063
148.6347
148.06382
147.47775
146.87623
146.25901
145.62585
144.97648
144.31066
143.62812
142.92862
142.21191
141.47772
140.72581
151.21057
150.78565
150.3485
149.89859
149.43571
148.95962
148.47009
147.96688
147.44976
146.91849
146.37282
145.81252
145.23734
144.64703
144.04135
143.42005
142.78289
142.12962
141.45998
140.77373
140.07063
139.35042
149.36581
148.96069
148.54381
148.11464
147.67297
147.21859
146.75127
146.27078
145.77689
145.26937
144.74799
144.2125
143.66267
143.09827
142.51906
141.92478
141.31521
140.6901
140.04921
139.3923
138.71912
138.02942
147.59652
147.21048
146.81309
146.40388
145.98264
145.54916
145.10321
144.64458
144.17305
143.68838
143.19036
142.67874
142.15331
141.61383
141.06007
140.49179
139.90876
139.31075
138.69751
138.06881
137.42441
136.76406
145.90349
145.53579
145.15716
144.76714
144.36554
143.95215
143.52676
143.08914
142.6391
142.1764
141.70083
141.21216
140.71018
140.19465
139.66536
139.12206
138.56455
137.99257
137.40591
136.80432
136.18758
135.55545
144.28736
143.93727
143.57665
143.20508
142.82234
142.42825
142.02259
141.60516
141.17575
140.73415
140.28015
139.81352
139.33405
138.84153
138.33573
137.81643
137.28341
136.73644
136.1753
135.59976
135.00959
134.40455
142.74856
142.41538
142.07205
141.71816
141.35352
140.97795
140.59123
140.19317
139.78356
139.3622
138.92888
138.4834
138.02553
137.55508
137.07182
136.57554
136.06603
135.54305
135.0064
134.45585
133.89117
133.31214
141.28734
140.97036
140.6436
140.30666
139.95938
139.60155
139.23298
138.85348
138.46285
138.06089