/*--------------------------------*- C++ -*----------------------------------*\
| =========                 |                                                 |
| \\      /  F ield         | OpenFOAM: The Open Source CFD Toolbox           |
|  \\    /   O peration     | Version:  2406                                  |
|   \\  /    A nd           | Website:  www.openfoam.com                      |
|    \\/     M anipulation  |                                                 |
\*---------------------------------------------------------------------------*/
FoamFile
{
    version     2.0;
    format      ascii;
    arch        "LSB;label=32;scalar=64";
    class       volScalarField;
    location    "0.008";
    object      nut;
}
// * * * * * * * * * * * * * * * * * * * * * * * * * * * * * * * * * * * * * //

dimensions      [0 2 -1 0 0 0 0];

internalField   nonuniform List<scalar> 
23203
(
0.0063145391
0.006292346
0.0063641001
0.0065569282
0.0068980751
0.0074138138
0.0081271897
0.0090554974
0.010208634
0.011589085
0.013193385
0.015014276
0.017042816
0.019270004
0.021687793
0.024289504
0.02706967
0.030023135
0.033142267
0.036405981
0.039804966
0.043361003
0.047088436
0.0064754656
0.0064817333
0.0065819919
0.0068027576
0.0071706233
0.0077111383
0.0084465803
0.0093935591
0.010561502
0.01195267
0.013563545
0.015386878
0.017413708
0.019634931
0.022042273
0.024628663
0.027387999
0.030314244
0.033399685
0.036633158
0.040011095
0.043544579
0.047245843
0.0066689354
0.0067039989
0.0068332612
0.0070825774
0.0074777977
0.008043643
0.0088015173
0.0097672593
0.01094977
0.01235107
0.013967611
0.015792208
0.017815951
0.020029707
0.022425061
0.024994682
0.027732181
0.030631539
0.033686469
0.03689097
0.040244399
0.043753865
0.047427292
0.0068974368
0.0069612568
0.0071197429
0.0073979859
0.0078209716
0.0084124704
0.0091929099
0.010177286
0.011373937
0.012784637
0.014405836
0.016230462
0.018249727
0.020454552
0.022836491
0.025388138
0.028103137
0.030975977
0.034001997
0.037178402
0.040506918
0.043994641
0.047646739
0.0071635122
0.0072557515
0.0074433589
0.0077505914
0.0082014496
0.0088186315
0.0096214934
0.010624131
0.011834294
0.013253516
0.014878269
0.016701648
0.01871505
0.020909542
0.023276764
0.025809405
0.028501371
0.031347852
0.034345672
0.0374944
0.040798667
0.04427227
0.0074697735
0.0075897834
0.0078060614
0.0081419823
0.0086204587
0.0092630103
0.010087842
0.011108104
0.012330946
0.013757665
0.015384786
0.017205611
0.019211791
0.021394617
0.023745925
0.026258631
0.028927017
0.031746966
0.034716387
0.037836021
0.041110495
0.044548311
0.0078188697
0.0079656563
0.0082097754
0.0085736819
0.0090791175
0.0097463417
0.010592351
0.011629322
0.012863797
0.014296849
0.015925077
0.017742027
0.019739657
0.021909556
0.024243841
0.026735736
0.029379936
0.032172912
0.035113264
0.038202177
0.041443595
0.044842983
0.0082136819
0.0083858033
0.008656468
0.0090471783
0.0095784461
0.010269216
0.01113524
0.012187709
0.013432556
0.014870638
0.016498641
0.018310388
0.02029818
0.02245396
0.024770185
0.027240429
0.029859791
0.0326252
0.035535689
0.038592567
0.041799211
0.045159763
0.008657111
0.0088526603
0.009148075
0.0095638938
0.010119366
0.010832096
0.011716583
0.012783029
0.014036764
0.015478431
0.017104813
0.018910019
0.020886724
0.023027256
0.025324444
0.02777223
0.030366082
0.03310329
0.035983159
0.039007031
0.042177951
0.045499569
0.0091520983
0.0093686927
0.0096865464
0.010125239
0.010702764
0.01143539
0.012336378
0.013414958
0.014675862
0.016119519
0.017742806
0.01954012
0.021504515
0.02362872
0.02590595
0.028330505
0.030898188
0.033606577
0.036455164
0.039445312
0.042579913
0.045862471
0.0097015819
0.0099364201
0.010273885
0.010732685
0.011329583
0.012079552
0.012994655
0.01408318
0.01534928
0.016793164
0.018411788
0.020199825
0.022150699
0.024257534
0.026513922
0.028914509
0.031455393
0.034134389
0.03695113
0.039907011
0.043004869
0.046248195
0.010308394
0.010558331
0.010912136
0.011387776
0.012000856
0.012765132
0.013691536
0.014787471
0.016056525
0.017498685
0.019110965
0.020888284
0.022824411
0.024912844
0.027147534
0.029523442
0.032036931
0.034686007
0.037470421
0.040391604
0.043452385
0.046656286
0.010975001
0.011236625
0.011603189
0.012092016
0.012717662
0.013492784
0.01442729
0.015527763
0.016797262
0.018235547
0.019839663
0.021604739
0.023524852
0.025593841
0.027805979
0.030156512
0.03264203
0.035260699
0.038012365
0.04089849
0.043921913
0.047086191
0.011703422
0.011973229
0.012348776
0.012846861
0.013481138
0.014263309
0.015202385
0.016304222
0.017571394
0.019003441
0.020597413
0.022348609
0.02425137
0.026299828
0.02848854
0.030812996
0.033269973
0.03585777
0.038576298
0.041427046
0.044412857
0.047537314
0.012495392
0.012769886
0.013150514
0.013653761
0.014292517
0.015077689
0.016017537
0.017117297
0.018379124
0.019802351
0.021384021
0.023119562
0.025003529
0.027030296
0.029194657
0.031492299
0.033920152
0.036476605
0.039161617
0.041976682
0.044924637
0.048009073
0.013352183
0.013627946
0.014009816
0.014514094
0.015153086
0.015937068
0.016873703
0.017967733
0.019220975
0.020632594
0.022199614
0.023917563
0.025781162
0.027784976
0.029923982
0.032194017
0.034592116
0.03711673
0.039767831
0.042546897
0.04545674
0.048500943
0.014274594
0.014548453
0.014927889
0.01542915
0.016064149
0.0168427
0.017772031
0.018856532
0.020097775
0.021494809
0.02304465
0.024742902
0.02658441
0.028563882
0.030676422
0.03291797
0.035285622
0.037777848
0.040394602
0.043137322
0.046008771
0.049012502
0.01526295
0.01553199
0.015905519
0.016399929
0.017026861
0.017795819
0.018713765
0.01978488
0.021010604
0.022389934
0.023919905
0.02559619
0.02741373
0.029367327
0.031452168
0.033664242
0.036000662
0.038459876
0.041041786
0.04374776
0.046580487
0.04954347
0.016317102
0.016578656
0.016943112
0.017427134
0.018042164
0.018797562
0.019700166
0.020754085
0.021960745
0.023319168
0.024826454
0.026478356
0.028269895
0.030195936
0.032251705
0.034433195
0.036737489
0.039162972
0.041709459
0.044378217
0.047171834
0.050093737
0.01743675
0.017688478
0.018041008
0.01851139
0.019110978
0.019849084
0.020732565
0.021765585
0.022949662
0.024283938
0.025765636
0.027390617
0.029153979
0.031050635
0.033075813
0.035225472
0.037496621
0.039887544
0.042397933
0.045028918
0.047782962
0.050663388
0.018621503
0.018861335
0.019199444
0.019653295
0.020234188
0.020951543
0.021812334
0.022820897
0.023978952
0.025285853
0.026739012
0.028334437
0.030067325
0.031932626
0.033925549
0.036041986
0.038278841
0.040634254
0.043107758
0.045700316
0.048414235
0.051252711
0.019870838
0.020096983
0.020418415
0.020853093
0.021412407
0.022105889
0.022940718
0.023921495
0.025050242
0.026326614
0.027748286
0.029311472
0.031011493
0.032843345
0.034802213
0.036883903
0.039085175
0.041404001
0.043839718
0.046393088
0.049066235
0.051862201
0.021184263
0.021395128
0.021697884
0.022111108
0.022646264
0.023313081
0.024118956
0.025068852
0.026165182
0.027407984
0.02879527
0.030323516
0.03198821
0.033784423
0.035707316
0.037752598
0.039916871
0.042197904
0.04459481
0.047108124
0.049739751
0.052492556
0.022561563
0.022755733
0.023038044
0.023427797
0.023936533
0.024574127
0.025348315
0.02626447
0.027325461
0.028531782
0.029881849
0.031372463
0.032999334
0.034757637
0.036642532
0.038649628
0.040775359
0.043017272
0.045374228
0.047846504
0.050435764
0.053144662
0.024002774
0.024178985
0.024439273
0.02480369
0.025283881
0.025889949
0.026629999
0.027509808
0.028532748
0.029699825
0.031009933
0.032460263
0.034046801
0.035764871
0.037609661
0.039576693
0.041662228
0.043863578
0.046179331
0.048609483
0.051155425
0.053819577
0.025508324
0.025665367
0.025902129
0.026239503
0.026689283
0.027261772
0.027965406
0.028806429
0.02978876
0.030913967
0.032181471
0.033588914
0.035132616
0.036808099
0.03861061
0.04053561
0.042579193
0.04473843
0.047011623
0.049398459
0.051900037
0.054518512
0.027079228
0.027215967
0.027427796
0.027736542
0.028154098
0.028691002
0.029356058
0.030156035
0.031095359
0.032176191
0.033398533
0.034760532
0.036258898
0.037889404
0.039647401
0.041528315
0.043528092
0.045643564
0.047872734
0.050214966
0.052671037
0.055242815
0.028717111
0.028832438
0.029017951
0.029296515
0.029680135
0.03017962
0.030804119
0.031560843
0.032454806
0.0334888
0.034663447
0.035977443
0.037427943
0.039011026
0.040722194
0.042556877
0.044510892
0.046580839
0.048764419
0.051060658
0.053469988
0.05599396
0.030424265
0.030517107
0.030674957
0.030921841
0.031269867
0.031730066
0.032311971
0.03302325
0.033869567
0.034854307
0.035978739
0.037242161
0.038642228
0.040175377
0.041837315
0.043623517
0.045529701
0.04755225
0.049688564
0.051937316
0.054298575
0.056773542
0.032203693
0.032272977
0.032401796
0.032615475
0.032926222
0.033345299
0.033882619
0.034546349
0.035342692
0.036275714
0.037347361
0.038557573
0.039904552
0.041385152
0.042995337
0.044730677
0.046586825
0.048559969
0.050647212
0.052846869
0.055158621
0.057583294
0.034059243
0.034103927
0.034202362
0.034381327
0.034653126
0.035029238
0.035519917
0.036133853
0.036877814
0.037756596
0.038772803
0.039927055
0.041218155
0.042643436
0.04419918
0.045881103
0.047684838
0.049606406
0.051642622
0.053791435
0.056052124
0.058425105
0.035995587
0.036014655
0.036081347
0.036224068
0.036455204
0.036786448
0.037228407
0.037790255
0.038479394
0.039301252
0.040259203
0.041354573
0.042586821
0.043953814
0.045452217
0.047077953
0.048826684
0.050694297
0.052677338
0.054773391
0.056981312
0.059301076
0.038018302
0.038010783
0.038044388
0.038149332
0.038338076
0.038622515
0.039013597
0.039520963
0.040152653
0.040914771
0.041811491
0.042844865
0.044015062
0.04532055
0.046758447
0.04832495
0.050015811
0.051826828
0.053754304
0.055795462
0.057948721
0.060213586
0.040133924
0.040098932
0.040098152
0.040163823
0.040308456
0.04054413
0.040882123
0.041332551
0.041904046
0.042603477
0.043435737
0.044403731
0.045508377
0.046748816
0.048122697
0.04962657
0.051256348
0.053007793
0.054877003
0.056860851
0.058957313
0.06116539
0.042349935
0.04228669
0.042250302
0.042275254
0.042374085
0.042559034
0.042841686
0.043232619
0.043741062
0.044374631
0.045139009
0.046037989
0.047073282
0.048244782
0.049550758
0.050988202
0.052553271
0.054241763
0.056049619
0.057973391
0.060010607
0.06215974
0.044674802
0.044582677
0.044509571
0.044492464
0.044543883
0.044676197
0.044901272
0.045230128
0.045672587
0.046236976
0.04692988
0.047755896
0.048717687
0.049815956
0.051049684
0.052416415
0.05391265
0.055534312
0.05727725
0.059137735
0.061112858
0.063200547
0.047117961
0.046996517
0.046885745
0.046825383
0.046827908
0.046905774
0.047071091
0.047335287
0.047708762
0.048200567
0.048818146
0.049567021
0.050450839
0.051471189
0.052627875
0.053919105
0.055341839
0.05689223
0.058566123
0.06035957
0.062269258
0.064292562
0.049689822
0.049538861
0.049389686
0.049285084
0.049237429
0.04925921
0.049362731
0.049559787
0.049861324
0.050277103
0.050815403
0.051482787
0.052283808
0.053221166
0.054295526
0.055505896
0.05684983
0.058323841
0.05992389
0.061645893
0.063486189
0.065441613
0.052401728
0.05222134
0.052033295
0.05188374
0.051784889
0.051749205
0.051789123
0.051916751
0.052143527
0.05247989
0.052934959
0.053516279
0.05422954
0.055078449
0.056064731
0.057188299
0.05844746
0.059839252
0.061359893
0.063005284
0.064771495
0.066654863
0.055265899
0.055056504
0.054829435
0.054634538
0.054483795
0.054389572
0.054364366
0.054420524
0.054569922
0.054823633
0.055191592
0.055682295
0.056302596
0.057057277
0.057949358
0.058979698
0.060147515
0.061450541
0.062885421
0.064448196
0.06613479
0.067941121
0.058295387
0.058057787
0.057791922
0.057551693
0.057348779
0.057195368
0.057103936
0.057086984
0.057156746
0.057324858
0.05760203
0.057997712
0.058519814
0.059174503
0.05996587
0.06089605
0.061965308
0.063172251
0.064514146
0.065987367
0.067587848
0.06931121
0.061503961
0.061239384
0.060935386
0.060650302
0.060395429
0.060182694
0.060024456
0.059933274
0.05992164
0.06000167
0.060184769
0.060481292
0.060900228
0.061448992
0.062132957
0.062955725
0.063918691
0.065021542
0.066262388
0.067638149
0.069144981
0.070778371
0.064905989
0.064616133
0.064275149
0.063946209
0.063640153
0.063368555
0.063143554
0.062977659
0.062883503
0.062873566
0.062959849
0.063153541
0.063464677
0.06390184
0.064471948
0.065179847
0.066028402
0.067018554
0.068149485
0.069418912
0.070823459
0.072358705
0.068516275
0.068203336
0.067827041
0.067455824
0.067099986
0.06677066
0.066479661
0.066239325
0.066062304
0.065961308
0.065948812
0.066036722
0.066236035
0.066556508
0.067006422
0.067592067
0.068317979
0.069186447
0.070197964
0.071351319
0.072643884
0.074071603
0.072349869
0.072016573
0.071607206
0.071195907
0.070792369
0.070407192
0.070051762
0.069738123
0.069478802
0.069286594
0.069174293
0.069154384
0.069238706
0.069438108
0.069762123
0.07021873
0.070813886
0.071551566
0.072433769
0.073460618
0.074630544
0.075940174
0.076421842
0.076071457
0.075631845
0.075183311
0.074734871
0.074296513
0.073879093
0.073494236
0.073154208
0.072871727
0.072659742
0.072531144
0.072498456
0.072573481
0.072766964
0.073088332
0.073545131
0.074143205
0.074886148
0.075775675
0.076811586
0.077991539
0.080747024
0.080383368
0.079916945
0.079434691
0.078944891
0.07845685
0.077980799
0.077527833
0.077109809
0.076739212
0.076428958
0.076192154
0.07604181
0.075990512
0.076050071
0.076231192
0.076543197
0.076993495
0.077587589
0.078328976
0.079219107
0.080257017
0.085339699
0.084967142
0.084477948
0.083966159
0.083439287
0.082905895
0.08237551
0.081858588
0.081366452
0.080911187
0.080505496
0.080162495
0.079895465
0.079717555
0.079641443
0.079678996
0.079840988
0.080136518
0.080573103
0.081156074
0.081888775
0.082771947
0.090213289
0.089836735
0.089329409
0.088792932
0.088234011
0.087660423
0.087080928
0.086505255
0.085944072
0.085408919
0.084912103
0.08446654
0.084085552
0.083782601
0.083570994
0.083463541
0.083472215
0.083607887
0.083879709
0.08429509
0.0848594
0.085575335
0.095379991
0.095004858
0.094484619
0.093928932
0.093343686
0.092735846
0.092113356
0.091485149
0.090861138
0.090252186
0.08967004
0.089127218
0.088636846
0.08821245
0.087867686
0.087616037
0.087470478
0.087443189
0.087545011
0.087785404
0.088171743
0.088708854
0.10085041
0.10048261
0.099955223
0.099386404
0.098781219
0.098145806
0.097487268
0.096813691
0.096134158
0.095458747
0.094798501
0.094165354
0.093572017
0.093031814
0.092558467
0.092165828
0.091867581
0.091676911
0.091606238
0.091666593
0.091867457
0.092215802
0.1066332
0.10627907
0.10575082
0.1051755
0.10455737
0.10390173
0.10321484
0.10250391
0.10177714
0.10104375
0.10031395
0.099598946
0.09891083
0.098262485
0.097667413
0.097139522
0.096692857
0.096341315
0.096098354
0.095976505
0.095987132
0.096139198
0.11273467
0.11240097
0.11187861
0.11130391
0.11068035
0.11001242
0.10930553
0.10856602
0.10780116
0.10701926
0.10622962
0.10544259
0.10466947
0.1039225
0.1032147
0.1025597
0.10197159
0.1014646
0.10105285
0.10075007
0.10056893
0.1005203
0.11915842
0.11885227
0.11834297
0.11777648
0.11715548
0.1164837
0.11576573
0.11500702
0.11421393
0.11339382
0.11255503
0.11170695
0.11086
0.11002555
0.10921594
0.10844426
0.10772427
0.10707017
0.10649634
0.10601713
0.10564637
0.10539629
0.12590507
0.12563389
0.12514521
0.12459487
0.12398484
0.12331808
0.12259839
0.12183036
0.12101946
0.12017208
0.11929558
0.11839835
0.11748978
0.11658032
0.11568138
0.1148053
0.11396522
0.11317494
0.11244874
0.11180112
0.1112465
0.11079801
0.13297195
0.13274342
0.13228323
0.13175734
0.131167
0.13051448
0.12980281
0.12903575
0.12821788
0.12735467
0.12645248
0.12551866
0.12456157
0.12359058
0.12261609
0.12164947
0.12070301
0.1197898
0.11892364
0.11811876
0.11738962
0.11674989
0.14035288
0.14017489
0.13975135
0.13925847
0.13869684
0.13806806
0.13737441
0.1366189
0.13580525
0.13493799
0.13402254
0.1330652
0.13207325
0.13105497
0.13001964
0.12897753
0.12793989
0.12691886
0.12592741
0.12497915
0.12408811
0.12326782
0.14803802
0.14791865
0.14754014
0.14708907
0.14656538
0.14597004
0.14530467
0.14457149
0.14377344
0.14291417
0.14199813
0.14103063
0.14001787
0.13896699
0.13788612
0.13678436
0.13567176
0.13455934
0.13345899
0.13238337
0.1313457
0.13035889
0.1560138
0.15596123
0.15563633
0.15523604
0.15475971
0.15420771
0.15358099
0.1528811
0.15211019
0.15127107
0.15036729
0.14940315
0.14838381
0.14731531
0.14620458
0.14505949
0.14388886
0.14270243
0.14151084
0.14032555
0.13915867
0.1380221
0.16426288
0.16428538
0.16402282
0.16368243
0.16326301
0.16276435
0.1621868
0.16153124
0.1607991
0.15999237
0.15911374
0.15816657
0.15715499
0.15608395
0.1549592
0.1537874
0.15257607
0.15133361
0.15006929
0.14879322
0.14751614
0.14624866
0.17276426
0.17287014
0.17267872
0.17240746
0.17205458
0.17161935
0.17110156
0.17050144
0.16981973
0.16905768
0.16821713
0.16730054
0.16631106
0.16525258
0.16412971
0.16294789
0.16171335
0.16043312
0.15911506
0.15776779
0.15640056
0.15502244
0.18149338
0.18169092
0.18157955
0.18138667
0.18111003
0.18074837
0.18030095
0.17976741
0.17914782
0.17844273
0.17765316
0.17678074
0.17582767
0.17479681
0.17369168
0.17251653
0.17127631
0.16997672
0.16862416
0.16722573
0.16578909
0.16432167
0.19042236
0.19071982
0.19069737
0.19059217
0.19040146
0.19012353
0.18975709
0.18930126
0.18875546
0.18811956
0.18739386
0.18657914
0.18567672
0.18468847
0.18361687
0.18246502
0.18123664
0.17993609
0.17856837
0.17713906
0.17565418
0.17411946
0.19952029
0.19992581
0.20000115
0.19999287
0.19989777
0.19971365
0.19943879
0.19907173
0.19861135
0.19805684
0.1974078
0.19666424
0.19582662
0.19489588
0.19387351
0.19276149
0.19156237
0.19027923
0.18891567
0.1874758
0.18596402
0.18438435
0.20875361
0.2092752
0.2094571
0.2095549
0.20956496
0.20948469
0.20931188
0.20904459
0.20868113
0.20822011
0.20766043
0.20700137
0.20624259
0.20538416
0.20442658
0.20337081
0.20221826
0.20097079
0.19963067
0.19820055
0.19668328
0.19508121
0.21808649
0.21873197
0.21902904
0.21924193
0.21936659
0.21940004
0.21933962
0.21918294
0.21892779
0.21857218
0.21811441
0.21755306
0.216887
0.21611549
0.21523813
0.21425488
0.21316607
0.2119724
0.21067487
0.20927476
0.20777342
0.20617158
0.22748136
0.22825829
0.22867894
0.22901572
0.22926421
0.22942102
0.22948314
0.2294477
0.22931201
0.22907356
0.22873004
0.22827937
0.22771973
0.22704956
0.22626763
0.22537295
0.22436486
0.22324294
0.222007
0.22065701
0.2191929
0.21761387
0.2368994
0.23781503
0.2383674
0.23883659
0.23921783
0.2395074
0.23970189
0.23979805
0.23979271
0.23968287
0.23946565
0.23913838
0.23869854
0.23814387
0.23747231
0.236682
0.23577134
0.23473886
0.23358326
0.23230328
0.2308975
0.22936372
0.24630106
0.24736227
0.24805414
0.24866392
0.2491865
0.24961785
0.24995422
0.25019196
0.25032749
0.25035735
0.25027813
0.25008659
0.2497796
0.2493542
0.24880759
0.24813709
0.24734021
0.24641453
0.24535768
0.24416726
0.24284062
0.24137422
0.25564665
0.25685991
0.25769864
0.25845674
0.25912882
0.25971054
0.26019783
0.2605867
0.26087319
0.26105337
0.2611234
0.26107948
0.26091791
0.2606351
0.26022755
0.25969183
0.25902462
0.25822261
0.25728247
0.25620073
0.2549736
0.25359631
0.26489688
0.26626815
0.26726061
0.26817428
0.2690035
0.26974367
0.27039042
0.27093943
0.2713864
0.27172702
0.27195697
0.27207199
0.27206786
0.27194039
0.27168543
0.27129888
0.27077665
0.2701146
0.26930853
0.26835399
0.26724614
0.26597911
0.27401336
0.27554805
0.27670055
0.27777647
0.2787699
0.27967599
0.28049012
0.28120769
0.28182406
0.28233455
0.28273448
0.28301912
0.28318376
0.28322369
0.28313417
0.28291048
0.28254782
0.28204131
0.28138593
0.28057637
0.27960684
0.27847047
0.28295915
0.28466206
0.28598029
0.28722448
0.28838852
0.28946735
0.29045612
0.29134995
0.29214392
0.29283303
0.29341222
0.29387639
0.29422038
0.29443899
0.29452696
0.29447898
0.29428964
0.29395338
0.29346444
0.29281673
0.2920036
0.29101733
0.29169919
0.29357446
0.2950634
0.29648119
0.29782153
0.29907918
0.30024907
0.3013261
0.30230508
0.30318074
0.30394768
0.30460045
0.30513348
0.30554116
0.30581774
0.3059574
0.30595416
0.30580186
0.30549407
0.30502402
0.3043843
0.30356641
0.30020072
0.30225179
0.30391568
0.30551163
0.30703319
0.30847494
0.30983162
0.31109795
0.31226851
0.31333775
0.31430001
0.31514951
0.31588035
0.3164865
0.31696181
0.31729999
0.31749455
0.31753881
0.31742575
0.31714797
0.31669743
0.31606494
0.30843363
0.31066318
0.31250549
0.31428336
0.31599022
0.3176205
0.31916879
0.32062963
0.3219974
0.32326633
0.32443052
0.3254839
0.32642026
0.32723324
0.32791631
0.32846276
0.32886568
0.32911788
0.32921188
0.3291397
0.32889275
0.32846128
0.31637076
0.31878072
0.32080408
0.32276681
0.32466218
0.32648454
0.32822834
0.32988796
0.33145763
0.33293138
0.33430308
0.33556644
0.33671497
0.33774201
0.33864071
0.339404
0.34002458
0.34049486
0.34080689
0.34095225
0.34092186
0.34070551
0.32398814
0.32657963
0.32878587
0.3309355
0.33302174
0.33503881
0.33698109
0.33884282
0.34061807
0.34230074
0.3438845
0.34536286
0.34672909
0.34797628
0.34909728
0.35008474
0.35093101
0.35162813
0.3521678
0.35254118
0.3527388
0.35275007
0.33126514
0.33403851
0.33642858
0.33876631
0.34104487
0.34325839
0.34540117
0.34746734
0.34945088
0.35134554
0.35314484
0.35484211
0.35643044
0.35790268
0.35925147
0.36046916
0.36154783
0.36247922
0.3632547
0.36386511
0.36430064
0.3645504
0.33818458
0.3411394
0.34371344
0.34623961
0.34871104
0.35112183
0.35346619
0.35573819
0.35793172
0.3600404
0.36205767
0.36397668
0.36579036
0.3674914
0.36907222
0.37052495
0.37184143
0.37301315
0.37403121
0.37488617
0.37556797
0.37606546
0.3447328
0.34786787
0.35062519
0.3533393
0.35600331
0.35861129
0.3611574
0.36363566
0.36603989
0.36836365
0.37060025
0.37274275
0.37478394
0.37671636
0.37853226
0.3802236
0.38178202
0.38319879
0.38446479
0.38557038
0.38650526
0.38725815
0.35089958
0.35421297
0.35715212
0.36005286
0.36290833
0.36571256
0.36845971
0.37114376
0.37375847
0.37629736
0.37875366
0.38112035
0.38339013
0.3855554
0.38760829
0.38954061
0.39134384
0.39300909
0.39452705
0.39588792
0.39708125
0.39809563
0.35667814
0.36016724
0.36328601
0.36637133
0.36941634
0.37241509
0.37536172
0.3782502
0.38107428
0.38382744
0.38650286
0.38909346
0.39159186
0.39399039
0.39628107
0.3984556
0.40050533
0.40242124
0.40419389
0.40581336
0.40726908
0.40854958
0.36206495
0.36572653
0.36902205
0.37228918
0.37552108
0.37871184
0.38185562
0.38494638
0.38797788
0.39094357
0.39383662
0.39664992
0.39937603
0.40200723
0.40453546
0.40695235
0.40924915
0.41141674
0.4134456
0.41532571
0.41704644
0.41859629
0.36705964
0.37088987
0.37435864
0.37780416
0.38121965
0.38459924
0.3879371
0.39122725
0.39446344
0.39763913
0.40074751
0.40378142
0.40673344
0.40959578
0.41236037
0.41501876
0.41756216
0.41998138
0.42226684
0.42440846
0.42639559
0.42821674
0.37166473
0.37565928
0.37929725
0.38291717
0.38651234
0.39007694
0.39360519
0.39709115
0.4005286
0.40391105
0.40723167
0.41048335
0.41365864
0.41674977
0.41974863
0.42264675
0.42543532
0.42810512
0.43064652
0.43304944
0.43530322
0.43739641
0.37588542
0.38003951
0.38384214
0.38763197
0.39140239
0.39514763
0.398862
0.4025396
0.40617427
0.40975956
0.41328869
0.41675456
0.42014977
0.42346655
0.42669681
0.42983207
0.43286351
0.43578193
0.43857768
0.44124069
0.44376034
0.44612525
0.37972936
0.38403783
0.38800017
0.39195498
0.39589575
0.3998168
0.40371251
0.40757706
0.41140436
0.41518801
0.4189213
0.42259719
0.42620831
0.42974693
0.43320499
0.43657405
0.4398453
0.44300955
0.44605721
0.44897822
0.45176203
0.45439734
0.38320633
0.3876637
0.39178046
0.39589496
0.4000008
0.40409241
0.40816427
0.41221063
0.41622549
0.42020254
0.42413514
0.42801631
0.43183876
0.43559481
0.43927646
0.44287531
0.44638261
0.44978922
0.45308558
0.4562617
0.45930712
0.46221066
0.38632798
0.39092851
0.39519412
0.39946271
0.40372804
0.40798464
0.41222709
0.41644975
0.42064672
0.42481178
0.42893838
0.43301964
0.43704834
0.44101689
0.44491736
0.44874143
0.45248041
0.45612522
0.4596664
0.46309403
0.46639775
0.46956652
0.3891075
0.39384529
0.39825394
0.40267081
0.40708979
0.41150553
0.41591273
0.42030587
0.42467916
0.42902648
0.43334141
0.43761716
0.44184661
0.44602229
0.45013633
0.45418052
0.45814626
0.46202457
0.46580606
0.46948095
0.47303897
0.47646924
0.39155936
0.39642834
0.4009741
0.40553325
0.41009984
0.41466867
0.41923456
0.42379211
0.42833566
0.43285922
0.43735649
0.4418208
0.44624515
0.45062217
0.45494413
0.45920291
0.46339002
0.4674966
0.47151338
0.47543068
0.4792384
0.48292581
0.39369897
0.39869302
0.40336982
0.40806514
0.41277318
0.41748889
0.42220723
0.42692294
0.43163049
0.43632404
0.44099741
0.44564407
0.45025716
0.45482944
0.45935329
0.46382074
0.46822343
0.47255261
0.47679916
0.48095353
0.48500578
0.48894536
0.39554248
0.40065541
0.40545714
0.41028244
0.41512568
0.41998196
0.42484639
0.42971387
0.434579
0.4394361
0.44427914
0.44910173
0.45389715
0.45865831
0.46337775
0.46804763
0.47265973
0.47720545
0.48167582
0.48606146
0.49035257
0.4945388
0.39710641
0.40233205
0.40725258
0.41220164
0.41717379
0.42216427
0.42716837
0.43218113
0.43719732
0.44221141
0.44721753
0.45220945
0.45718061
0.46212407
0.46703253
0.47189831
0.47671335
0.48146921
0.48615708
0.49076775
0.49529161
0.4997185
0.39840751
0.40373971
0.40877294
0.41383955
0.4189343
0.42405262
0.42918992
0.43434143
0.43950209
0.44466652
0.44982902
0.45498355
0.46012369
0.46524268
0.4703334
0.47538833
0.48039958
0.48535889
0.49025762
0.49508674
0.49983684
0.50449795
0.39946248
0.40489518
0.41003504
0.41521305
0.42042413
0.4256639
0.43092796
0.43621168
0.44151018
0.44681826
0.45213039
0.4574407
0.46274297
0.46803061
0.47329666
0.4785338
0.48373432
0.48889014
0.49399281
0.49903349
0.50400297
0.5088915
0.40028781
0.40581504
0.41105556
0.41633886
0.42166008
0.42701499
0.43239937
0.43780877
0.4432385
0.44868353
0.4541385
0.45959774
0.46505521
0.47050449
0.47593884
0.48135111
0.48673379
0.49207898
0.49737844
0.50262353
0.50780523
0.51291403
0.40089964
0.40651554
0.41185085
0.41723344
0.42265867
0.42812248
0.43362082
0.43914945
0.44470382
0.4502791
0.45587014
0.46147143
0.46707712
0.47268102
0.47827654
0.48385675
0.48941434
0.49494162
0.50043053
0.50587265
0.51125918
0.51658082
0.40131359
0.40701245
0.4124368
0.41791281
0.42343603
0.42900259
0.43460863
0.44025008
0.44592258
0.45162148
0.45734183
0.46307831
0.46882527
0.4745767
0.48032624
0.48606714
0.49179231
0.49749426
0.50316514
0.50879675
0.51438049
0.51990731
0.40154471
0.40732096
0.41282875
0.41839243
0.42400776
0.42967106
0.43537864
0.44112661
0.44691081
0.45272678
0.45856975
0.4644346
0.47031589
0.4762078
0.48210418
0.4879985
0.49388386
0.49975299
0.50559826
0.51141168
0.51718488
0.52290903
0.40160739
0.40745563
0.41304142
0.41868719
0.4243889
0.43014305
0.43594614
0.44179446
0.44768405
0.45361062
0.45956961
0.46555609
0.47156483
0.47759022
0.4836263
0.48966676
0.49570491
0.5017337
0.50774572
0.5137332
0.51968799
0.52560149
0.40151532
0.40743036
0.41308887
0.4188113
0.42459382
0.4304331
0.43632582
0.44226847
0.44825725
0.4542881
0.46035662
0.4664581
0.4725875
0.47873942
0.48490812
0.49108749
0.49727106
0.503452
0.50962312
0.51577687
0.52190533
0.52800012
0.40128151
0.40725832
0.41298446
0.41877832
0.42463625
0.43055511
0.43653176
0.44256286
0.44864482
0.45477375
0.46094545
0.46715542
0.47339881
0.47967044
0.48596476
0.49227589
0.49859757
0.5049232
0.51124579
0.51755804
0.52385223
0.53012023
0.40091824
0.406952
0.41274089
0.41860113
0.42452926
0.43052234
0.43657739
0.44269126
0.44886054
0.45508153
0.46135023
0.46766233
0.47401318
0.48039781
0.48681089
0.49324674
0.49969932
0.50616225
0.51262877
0.51909178
0.52554382
0.53197697
0.40043712
0.40652322
0.41237018
0.41829196
0.42428529
0.43034742
0.43647554
0.44266669
0.44891763
0.45522484
0.46158453
0.46799258
0.47444454
0.48093563
0.48746075
0.49401442
0.50059082
0.50718379
0.51378679
0.52039295
0.52699502
0.53358532
0.39984913
0.40598319
0.41188374
0.41786242
0.42391617
0.4300424
0.43623848
0.44250161
0.44882874
0.45521656
0.46166143
0.46815943
0.47470632
0.48129753
0.48792815
0.49459291
0.50128622
0.50800213
0.51473431
0.52147613
0.52822055
0.53496012
0.39916465
0.40534251
0.41129239
0.41732356
0.42343316
0.42961876
0.4358779
0.44220795
0.44860605
0.45506904
0.4615935
0.46817569
0.47481155
0.48149673
0.48822651
0.49499584
0.50179934
0.50863126
0.51548551
0.52235566
0.5292349
0.53611602
0.39839356
0.40461127
0.41060644
0.41668593
0.42284703
0.42908749
0.43540503
0.44179717
0.44826122
0.45479422
0.4613929
0.46805373
0.47477285
0.48154607
0.48836891
0.4952365
0.50214368
0.5090849
0.51605431
0.52304568
0.53005243
0.53706756
0.39754524
0.4037991
0.40983576
0.4159596
0.42216811
0.42845917
0.43483067
0.44128031
0.44780556
0.45440361
0.46107141
0.46780558
0.47460246
0.48145807
0.48836809
0.49532788
0.50233247
0.50937655
0.51645444
0.52356015
0.53068731
0.53782914
0.3966287
0.40291524
0.40898982
0.4151543
0.42140633
0.42774398
0.43416526
0.44066806
0.44724998
0.45390842
0.46064047
0.46744295
0.47431237
0.48124494
0.48823654
0.49528273
0.50237875
0.50951946
0.51669943
0.52391285
0.53115359
0.53841508
0.39565263
0.40196861
0.40807777
0.41427941
0.42057135
0.4269518
0.43341894
0.4399708
0.44660516
0.45331955
0.46011126
0.46697728
0.47391429
0.48091868
0.48798654
0.49511361
0.50229532
0.50952676
0.51680267
0.52411748
0.53146524
0.53883961
0.39462548
0.40096789
0.40710853
0.41334409
0.41967255
0.42609229
0.43260161
0.43919871
0.44588151
0.45264771
0.45949476
0.46641982
0.47341975
0.48049112
0.4876302
0.49483292
0.50209491
0.50941144
0.51677747
0.52418762
0.53163616
0.53911695
0.3935555
0.39992159
0.40609083
0.41235732
0.41871918
0.42517492
0.43172302
0.43836178
0.44508931
0.45190345
0.4588018
0.46578169
0.47284016
0.47997396
0.48717951
0.49445296
0.5017901
0.50918642
0.51663706
0.52413683
0.53168022
0.53926128
0.39245086
0.39883809
0.40503332
0.41132798
0.41772035
0.42420909
0.4307928
0.43746993
0.44423873
0.45109721
0.45804311
0.46507392
0.47218684
0.4793788
0.48664641
0.49398597
0.50139347
0.50886457
0.51639463
0.52397865
0.53161129
0.53928683
0.39131965
0.39772575
0.40394456
0.41026488
0.41668513
0.4232041
0.42982052
0.436533
0.44333991
0.4502394
0.45722938
0.46430748
0.47147108
0.47871725
0.48604279
0.49344416
0.50091754
0.50845879
0.51606341
0.52372663
0.53144328
0.53920784
0.39016999
0.39659291
0.40283314
0.40917684