/*--------------------------------*- C++ -*----------------------------------*\
| =========                 |                                                 |
| \\      /  F ield         | OpenFOAM: The Open Source CFD Toolbox           |
|  \\    /   O peration     | Version:  2406                                  |
|   \\  /    A nd           | Website:  www.openfoam.com                      |
|    \\/     M anipulation  |                                                 |
\*---------------------------------------------------------------------------*/
FoamFile
{
    version     2.0;
    format      ascii;
    arch        "LSB;label=32;scalar=64";
    class       volScalarField;
    location    "0.008";
    object      omega;
}
// * * * * * * * * * * * * * * * * * * * * * * * * * * * * * * * * * * * * * //

dimensions      [0 0 -1 0 0 0 0];

internalField   nonuniform List<scalar> 
23203
(
38090.533
39096.059
39637.589
39615.557
38982.346
37752.736
36005.048
33868.098
31494.697
29031.058
26594.515
24265.241
22089.255
20086.708
18260.73
16604.606
15106.795
13754.198
12534.489
11439.273
10454.856
9562.1234
8748.8015
36899.819
37738.043
38135.416
38010.201
37328.774
36112.341
34436.034
32416.491
30189.11
27882.657
25600.854
23415.377
21368.187
19478.406
17749.865
16177.371
14751.182
13459.949
12292.506
11238.524
10285.469
9419.2521
8628.8151
35667.713
36350.771
36618.259
36404.141
35686.557
34491.457
32890.186
30987.793
28903.638
26750.488
24619.487
22574.345
20653.12
18873.878
17241.043
15750.791
14394.968
13163.638
12046.49
11033.18
10112.529
9273.2524
8506.122
34406.178
34947.804
35100.345
34811.457
34069.005
32902.243
31378.308
29591.369
27646.18
25641.02
23655.567
21746.144
19947.093
18275.377
16735.868
15325.929
14038.797
12865.781
11797.484
10824.225
9936.0348
9123.3048
8378.5431
33127.797
33542.224
33594.789
33244.743
32487.778
31355.191
29909.656
28235.245
26423.563
24559.93
22713.691
20934.406
19252.907
17685.008
16235.878
14903.883
13683.481
12567.143
11546.45
10612.589
9756.4915
8968.7747
31844.688
32146.225
32113.361
31714.948
30952.748
29859.022
28491.848
26926.036
25241.482
23512.037
21797.854
20142.363
18573.111
17104.744
15742.575
14485.803
13329.971
12268.65
11294.465
10399.668
9576.5033
8817.6932
30567.928
30770.726
30666.31
30231.301
29471.987
28420.693
27130.886
25668.964
24104.495
22501.297
20911.424
19372.819
17909.992
16536.41
15257.41
14072.865
12979.275
11971.25
11042.459
10186.251
9396.1062
8666.1476
29307.263
29425.082
29262.133
28801.191
28051.732
27045.425
25831.204
24467.898
23016.058
21530.805
20057.139
18628.144
17265.552
15981.674
14781.764
13666.228
12632.402
11675.844
10791.213
9972.8729
9215.3449
8513.7116
28070.965
28116.995
27907.553
27430.172
26696.417
25736.744
24595.709
23325.395
21978.541
20602.803
19237.097
17910.25
16641.492
15442.016
14316.912
13266.999
12290.321
11383.277
10541.418
9760.0062
9034.4237
8360.4884
26865.906
26852.447
26607.418
26121.926
25408.682
24496.523
23425.842
22242.746
20993.26
19718.686
18452.744
17220.576
16039.179
14918.696
13863.997
12876.198
11953.933
11094.329
10293.713
9548.1206
8853.6552
8206.7446
25697.396
25635.744
25364.865
24878.411
24189.519
23325.119
22321.686
21220.065
20060.539
18879.039
17704.889
16560.072
15459.628
14412.728
13423.986
12494.726
11624.056
10809.717
10048.697
9337.689
8673.4066
8052.8014
24569.495
24469.787
24181.526
23700.106
23038.516
22221.597
21282.167
20256.442
19179.815
18083.699
16993.73
15929.211
14903.488
13924.856
12997.656
12123.344
11301.406
10530.085
9806.9261
9129.1761
8494.0638
7898.9952
23484.973
23356.095
23057.699
22586.225
21954.091
21183.957
20305.244
19350.104
18349.76
17331.843
16318.907
15328.008
14371.047
13455.543
12585.568
11762.655
10986.58
10255.995
9568.9059
8923.0217
8316.0074
7745.6596
22445.373
22295.046
21992.56
21534.938
20933.721
20209.353
19388.119
18498.585
17568.42
16622.082
15679.568
14756.063
13862.25
13004.978
12188.069
11413.091
10680.047
9987.9148
9335.077
8719.6269
8139.5955
7593.1129
21451.251
21286.037
20984.419
20543.645
19974.194
19294.327
18527.429
17698.899
16833.351
15952.578
15074.451
14212.611
13376.729
12573.091
11805.293
11074.92
10382.145
9726.2119
9105.8078
8519.3424
7965.1521
7441.6483
20502.308
20327.659
20030.878
19609.17
19071.836
18435.027
17719.461
16947.72
16141.771
15321.154
14501.971
13696.588
12913.849
12159.575
11437.174
10748.239
10093.08
9471.1506
8881.3874
8322.4602
7792.958
7291.527
19597.576
19418
19129.164
18728.05
18222.758
17627.433
16960.344
16241.549
15490.702
14725.415
13960.306
13206.694
12472.749
11763.921
11083.47
10433
9812.9309
9222.8923
8662.024
8129.2093
7623.2454
7142.9729
18735.582
18554.728
18276.184
17896.635
17422.975
16867.476
16246.165
15576.826
14877.07
14162.833
13447.479
12741.456
12052.394
11385.452
10743.783
10129.012
9541.6595
8981.5005
8447.8457
7939.7544
7456.1955
6996.1696
17914.427
17735.191
17468.669
17111.185
16668.503
16151.136
15573.066
14950.023
14297.789
13630.828
12961.419
12299.285
11651.617
11023.356
10417.588
9835.9709
9279.1227
8746.9486
8238.9043
7754.1972
7291.9381
6851.2591
17131.983
16956.632
16703.344
16368.07
15955.497
15474.549
14937.337
14357.724
13749.839
13126.831
12500.025
11878.524
11269.163
10676.721
10104.254
9553.4708
9025.0869
8519.1291
8035.182
7572.5801
7130.5537
6708.3429
16385.976
16216.235
15976.973
15663.755
15280.288
14834.052
14335.459
13796.672
13230.313
12648.336
12061.21
11477.493
10903.725
10344.568
9803.0765
9281.0284
8779.243
8297.8652
7836.5991
7394.892
6972.0769
6567.4839
15674.095
15511.246
15286.44
14994.891
14639.427
14226.218
13764.143
13263.81
12736.459
12192.94
11642.94
11094.523
10553.976
10025.874
9513.295
9018.1003
8541.2213
8082.9224
7643.0227
7221.0741
6816.5007
6428.7097
14994.067
14839.013
14628.817
14358.383
14029.746
13647.914
13220.371
12756.316
12265.711
11758.378
11243.269
10727.992
10218.6
9719.6028
9234.1176
8764.1015
8310.6062
7874.0198
7454.276
7051.0273
6663.7824
6292.0163
14343.71
14197.048
14001.396
13751.384
13448.359
13096.279
12701.394
12271.609
11815.705
11342.539
10860.362
10376.342
9896.312
9424.7229
8964.7387
8518.4211
8086.9496
7670.841
7270.1466
6884.6189
6513.8482
6157.3724
13720.954
13583.031
13401.684
13171.303
12892.637
12568.735
12204.731
11807.355
11384.291
10943.485
10492.512
10038.106
9585.8804
9140.2263
8704.3549
8280.436
7869.7822
7473.0441
7090.3947
6721.6891
6366.5992
6024.7237
13123.871
12994.836
12827.419
12615.811
12360.253
12062.998
11728.179
11361.469
10969.534
10559.452
10138.142
9711.9084
9286.133
8865.1374
8452.1745
8049.5202
7658.6219
7280.2686
6914.7596
6562.0565
6221.9153
5893.9965
12550.66
12430.498
12276.537
12082.801
11849.099
11576.996
11269.748
10932.066
10569.671
10188.821
9795.796
9396.4617
8995.9569
8598.5171
8207.4235
7825.0511
7452.9807
7092.142
6742.9649
6405.5228
6079.6597
5765.101
11999.647
11888.206
11747.137
11570.335
11357.251
11108.857
10827.641
10517.431
10183.096
9830.1103
9464.1254
9090.5638
8714.3016
8339.4666
7969.3504
7606.4151
7252.3694
6908.2837
6574.7226
6251.8759
5939.6816
5637.9338
11469.333
11366.358
11237.558
11076.732
10883.042
10656.951
10400.276
10116.066
9808.3978
9482.0003
9141.9157
8793.1148
8440.1897
8087.1359
7737.2324
7393.0118
7056.3013
6728.3092
6409.7359
6100.8931
5801.818
5512.3797
10958.382
10863.538
10746.338
10600.52
10425.014
10219.862
9986.2933
9726.6735
9444.331
9143.3161
8828.0704
8503.1062
8172.7114
7840.7213
7510.3756
7184.2561
6864.2946
6551.8308
6247.7009
5952.3416
5665.8955
5388.3129
10465.594
10378.475
10272.171
10140.382
9981.8669
9796.3199
9584.465
9348.0577
9089.7597
8812.9822
8521.5791
8219.6022
7911.0138
7599.4604
7288.1127
6979.5769
6675.8719
6378.4589
6088.3069
5805.9796
5531.7302
5265.5967
9989.917
9910.0703
9813.935
9695.1988
9552.4993
9385.2511
9193.7538
8979.2242
8743.7386
8490.0822
8221.5653
7941.7726
7654.3224
7362.6446
7069.81
6778.4212
6490.5622
6207.8022
5931.2365
5661.5556
5399.1271
5144.0832
9530.434
9457.3709
9370.6632
9264.0088
9135.9695
8985.7427
8813.2756
8619.3187
8405.4146
8173.7871
7927.2267
7668.8477
7401.9104
7129.6005
6854.8571
6580.248
6307.8978
6039.4658
5776.1642
5518.8074
5267.8795
5023.6126
9086.3496
9019.554
8941.523
8845.9847
8731.4656
8597.0024
8442.257
8267.5854
8074.0535
7863.3901
7637.8622
7400.1424
7153.1166
6899.7013
6642.6725
6384.5315
6127.4149
5873.0511
5622.7557
5377.4609
5137.7675
4904.0116
8656.9932
8595.9337
8525.8281
8440.4533
8338.3361
8218.4031
8080.0923
7923.4309
7749.0716
7558.2824
7352.8586
7135.0424
6907.3334
6672.3584
6432.6997
6190.7583
5948.6524
5708.1544
5470.6662
5237.2286
5008.5562
4785.0918
8241.8075
8185.9455
8123.0188
8046.8695
7956.0549
7849.4369
7726.2861
7586.363
7429.9693
7257.9595
7071.71
6873.0213
6664.025
6447.037
6224.4172
5998.4343
5771.1552
5544.3684
5319.5411
5097.8091
4879.9952
4666.6485
7840.3425
7789.1414
7732.6595
7664.8185
7584.2324
7489.7377
7380.4889
7256.038
7116.3943
6962.0548
6794.0008
6613.6335
6422.7201
6223.2495
6017.336
5807.0838
5594.4748
5381.2828
5169.0153
4958.8862
4751.8167
4548.4595
7452.2452
7405.1774
7354.4239
7293.999
7222.5938
7139.0538
7042.4627
6932.2182
6808.0945
6670.2851
6519.4173
6356.5359
6183.03
6000.5753
5811.0156
5616.2615
5418.1772
5218.4889
5018.7164
4820.1301
4623.736
4430.2839
7077.251
7033.8057
6988.0889
6934.2187
6870.9801
6797.2557
6712.099
6614.8022
6504.9585
6382.511
6247.7824
6101.48
5944.6556
5778.6646
5605.068
5425.5574
5241.8474
5055.5835
4868.2667
4681.1985
4495.4513
4311.8618
6715.1732
6674.8624
6633.5213
6585.3813
6529.3326
6464.3179
6389.3947
6303.7937
6206.9775
6098.6922
5979.0053
5848.3239
5707.3939
5557.2461
5399.1684
5234.6074
5065.0999
4892.1777
4717.29
4541.7406
4366.6461
4192.9151
6365.8928
6328.2584
6290.6692
6247.4787
6197.6892
6140.3211
6074.4638
5999.3249
5914.2827
5818.9359
5713.1462
5597.0675
5471.1581
5336.163
5193.084
5043.1177
4887.5976
4727.9109
4565.4215
4401.4042
4236.9932
4073.1491
6029.3453
5993.9641
5959.5464
5920.5746
5876.1664
5825.432
5767.5144
5701.6307
5627.1154
5543.4665
5450.3888
5347.8285
5235.9956
5115.373
4986.6835
4850.8788
4709.0677
4562.4661
4412.3213
4259.8459
4106.1617
3952.2572
5705.5085
5671.997
5640.2185
5604.791
5564.9467
5519.8921
5468.8409
5411.0444
5345.8286
5272.6329
5191.0514
5100.8691
5002.0915
4894.9627
4779.9617
4657.7881
4529.3232
4395.5906
4257.6918
4116.7452
3973.8278
3829.9282
5394.3886
5362.4061
5332.7874
5300.2913
5264.2603
5224.0001
5178.8046
5127.9796
5070.8701
5006.8939
4935.5766
4856.5876
4769.7716
4675.1729
4573.0521
4463.8696
4348.2875
4227.12
4101.301
3971.8246
3839.6913
3705.8585
5096.007
5065.258
5037.3755
5007.2637
4974.3686
4938.0935
4897.8181
4852.9151
4802.7708
4746.8107
4684.5295
4615.5228
4539.5183
4456.4035
4366.2474
4269.3072
4166.0255
4057.0107
3943.0129
3824.8776
3703.4987
3579.7706
4810.3867
4780.622
4754.1094
4725.9031
4695.5439
4662.5277
4626.3206
4586.3697
4542.1171
4493.0197
4438.5719
4378.3327
4311.9541
4239.2085
4160.0131
4074.4497
3982.762
3885.3653
3782.8172
3675.7987
3565.0719
3451.4386
4537.5405
4508.5561
4483.1047
4456.3944
4428.0504
4397.6544
4364.7556
4328.8774
4289.527
4246.2085
4198.44
4145.7751
4087.8268
4024.2924
3954.9784
3879.8223
3798.9059
3712.4608
3620.8622
3524.6189
3424.3438
3320.7206
4277.4588
4249.0943
4224.4516
4198.8958
4172.1263
4143.8011
4113.5467
4080.9613
4045.6201
4007.0844
3964.9129
3918.678
3867.9841
3812.4895
3751.9286
3686.1335
3615.055
3538.767
3457.4828
3371.5403
3281.3956
3187.5969
4030.1003
4002.2359
3978.2023
3953.5249
3927.9663
3901.2515
3873.076
3843.1078
3810.9894
3776.343
3738.7783
3697.9032
3653.3376
3604.7305
3551.7787
3494.2469
3431.9876
3364.9559
3293.2198
3216.9649
3136.4936
3052.2102
3795.3836
3767.9357
3744.3603
3720.346
3695.708
3670.2283
3643.6627
3615.7418
3586.1709
3554.6331
3520.7931
3484.3047
3444.8197
3402.0007
3355.5356
3305.1548
3250.6484
3191.8847
3128.8181
3061.5077
2990.1134
2914.8993
3573.1812
3546.0977
3522.8729
3499.361
3475.4203
3450.8799
3425.5469
3399.2061
3371.6193
3342.5265
3311.6475
3278.686
3243.3357
3205.2885
3164.2452
3119.9289
3072.0993
3020.5684
2965.215
2905.9949
2842.9516
2776.2219
3363.3152
3336.5705
3313.6261
3290.5036
3267.0959
3243.2707
3218.8771
3193.7457
3167.6872
3140.4925
3111.9328
3081.7617
3049.7186
3015.5338
2978.9357
2939.6603
2897.4622
2852.1277
2803.4883
2751.4294
2695.9079
2636.9532
3165.556
3139.1453
3116.4418
3093.636
3070.6479
3047.3759
3023.703
2999.4975
2974.6111
2948.8782
2922.116
2894.1244
2864.6881
2833.5793
2800.5619
2765.3982
2727.8565
2687.7204
2644.8003
2598.9448
2550.0476
2498.0619
2979.6224
2953.5565
2931.0789
2908.5495
2885.9094
2863.0807
2839.9736
2816.4862
2792.5037
2767.8969
2742.5221
2716.2203
2688.818
2660.1284
2629.9539
2598.0898
2564.3297
2528.4716
2490.3262
2449.7268
2406.5358
2360.6563
2805.184
2779.4844
2757.236
2734.9678
2712.6369
2690.1837
2667.5394
2644.6257
2621.3543
2597.6255
2573.3278
2548.3369
2522.5161
2495.7161
2467.7765
2438.5277
2407.794
2375.3981
2341.166
2304.9337
2266.5557
2225.9081
2641.8651
2616.5597
2594.5565
2572.5525
2550.5167
2528.4035
2506.1601
2483.7264
2461.0347
2438.0087
2414.5627
2390.601
2366.0173
2340.6951
2314.5075
2287.3183
2258.9841
2229.3562
2198.2841
2165.6202
2131.2245
2094.9703
2489.2504
2464.3697
2442.6356
2420.9108
2399.1733
2377.3881
2355.5143
2333.5057
2311.3106
2288.8704
2266.1199
2242.986
2219.3873
2195.2343
2170.4287
2144.8643
2118.4276
2090.999
2062.4549
2032.6702
2001.5214
1968.8911
2346.8914
2322.4655
2301.0282
2279.6047
2258.1797
2236.7262
2215.2122
2193.602
2171.8558
2149.929
2127.7716
2105.3283
2082.5373
2059.3308
2035.634
2011.3658
1986.439
1960.7606
1934.2333
1906.7568
1878.2293
1848.55
2214.3138
2190.3701
2169.2577
2148.1605
2127.0682
2105.9595
2084.8093
2063.5898
2042.2701
2020.8159
1999.1891
1977.3478
1955.2454
1932.8307
1910.048
1886.8362
1863.1299
1838.8592
1813.9502
1788.3261
1761.9078
1734.6147
2091.0244
2067.5861
2046.825
2026.079
2005.3413
1984.5952
1963.8206
1942.9957
1922.0961
1901.0954
1879.9645
1858.6714
1837.181
1815.4552
1793.4524
1771.1276
1748.4326
1725.3163
1701.7245
1677.6009
1652.8872
1627.5235
1976.5193
1953.6041
1933.2172
1912.8448
1892.4828
1872.1178
1851.7338
1831.3132
1810.8368
1790.284
1769.6322
1748.857
1727.9321
1706.8288
1685.5165
1663.9623
1642.1314
1619.9872
1597.4914
1574.6044
1551.2858
1527.4938
1870.29
1847.9102
1827.9157
1807.9355
1787.9672
1768.0003
1748.0216
1728.0169
1707.971
1687.8673
1667.6885
1647.4158
1627.0291
1606.507
1585.827
1564.9652
1543.8969
1522.5963
1501.0374
1479.1938
1457.0391
1434.5467
1771.8304
1749.9922
1730.4036
1710.8293
1691.2689
1671.7136
1652.1527
1632.5745
1612.9668
1593.3164
1573.6097
1553.8319
1533.9678
1514.0014
1493.9159
1473.6943
1453.319
1432.7725
1412.0377
1391.098
1369.9377
1348.542
1680.6419
1659.3461
1640.1715
1621.0122
1601.8689
1582.7346
1563.6004
1544.4567
1525.2934
1506.1001
1486.8657
1467.5789
1448.2279
1428.8005
1409.2845
1389.6674
1369.937
1350.0819
1330.0911
1309.9551
1289.6662
1269.2182
1596.2383
1575.4804
1556.7232
1537.983
1519.2615
1500.5531
1481.8503
1463.1453
1444.4297
1425.6951
1406.9326
1388.1333
1369.288
1350.3875
1331.4225
1312.3843
1293.2643
1274.0552
1254.7505
1235.3458
1215.8386
1196.2288
1518.1491
1497.9204
1479.5793
1461.2578
1442.9583
1424.6762
1406.4054
1388.1393
1369.8712
1351.594
1333.3007
1314.9841
1296.6371
1278.2525
1259.8235
1241.3436
1222.8073
1204.2097
1185.5478
1166.8201
1148.0279
1129.1751
1445.9228
1426.2106
1408.2805
1390.3734
1372.4919
1354.6325
1336.7903
1318.9597
1301.1351
1283.3108
1265.4811
1247.6402
1229.7825
1211.9025
1193.9951
1176.0556
1158.0802
1140.0661
1122.0123
1103.9194
1085.7909
1067.6333
1379.1287
1359.9172
1342.3899
1324.8892
1307.4183
1289.9746
1272.554
1255.1518
1237.7635
1220.3844
1203.0098
1185.6351
1168.2559
1150.8679
1133.4671
1116.0504
1098.615
1081.1596
1063.6844
1046.1914
1028.6853
1011.1738
1317.3583
1298.6294
1281.4938
1264.3889
1247.3184
1230.2804
1213.2714
1196.2877
1179.3254
1162.3809
1145.4503
1128.5299
1111.6161
1094.7057
1077.7957
1060.8836
1043.9679
1027.0479
1010.1247
993.2009
976.28193
959.37609
1260.2261
1241.96
1225.203
1208.4812
1191.7985
1175.1537
1158.544
1141.9664
1125.4177
1108.8948
1092.3947
1075.9145
1059.4513
1043.0025
1026.5659
1010.1397
993.72297
977.31567
960.91916
944.53658
928.1734
911.838
1207.3701
1189.5457
1173.1528
1156.7996
1140.4906
1124.2249
1108.0004
1091.8146
1075.6649
1059.549
1043.4642
1027.4084
1011.3792
995.37465
979.39303
963.43311
947.49432
931.57699
915.68269
899.81464
883.97822
868.18152
1158.4512
1141.0471
1125.0025
1109.0026
1093.0519
1077.15
1061.2952
1045.4856
1029.7193
1013.9941
998.30822
982.65974
967.04691
951.46818
935.92227
920.40831
904.92601
889.47593
874.05969
858.68043
843.34324
828.05575
1113.1534
1096.1477
1080.4354
1064.7727
1049.1642
1033.61
1018.1087
1002.6591
987.25935
971.90805
956.60364
941.34468
926.12979
910.9578
895.82775
880.73905
865.69161
850.68607
835.72405
820.8085
805.94414
791.13798
1071.1825
1054.5536
1039.1573
1023.8155
1008.533
993.30997
978.14575
963.03919
947.98909
932.99427
918.05358
903.16589
888.33017
873.54554
858.81128
844.12702
829.49281
814.90931
800.37808
785.90181
771.48481
757.13341
1032.2656
1015.9926
1000.8962
985.8591
970.88615
955.97802
941.13421
926.35394
911.63635
896.98058
882.38575
867.85105
853.37571
838.95907
824.60064
810.30018
796.05783
781.87427
767.75091
753.6902
739.69598
725.77394
996.15028
980.21285
965.40054
950.65233
935.97306
921.36366
906.82394
892.3534
877.95145
863.6175
849.35094
835.15119
821.0177
806.95001
792.94778
779.0109
765.13955
751.33437
737.59666
723.92858
710.33354
696.81656
962.60307
946.98189
932.43857
917.96397
903.56296
889.2367
874.98524
860.80833
846.70562
832.67674
818.72132
804.83896
791.02931
777.29205
763.62699
750.03408
736.51354
723.06596
709.6925
696.39506
683.1766
670.04154
931.40874
916.08558
901.79687
887.58135
873.4439
859.38585
845.40748
831.50875
817.68953
803.94964
790.28887
776.70702
763.20388
749.77926
736.43306
723.1653
709.97622
696.86635
683.83669
670.8889
658.02554
645.25044
902.3691
887.32689
873.27927
859.30912
845.42133
831.61738
817.89772
804.26252
790.71182
777.24559
763.86381
750.56638
737.35324
724.2243
711.17954
698.21903
685.34299
672.55192
659.84666
647.22864
634.70004
622.26414
875.30185
860.52476
846.70563
832.96807
819.31694
805.75385
792.27942
778.89396
765.59767
752.39068
739.27307
726.24488
713.30615
700.45687
687.69709
675.02691
662.44654
649.9564
637.55724
625.25023
613.03723
600.92101
850.03961
835.51305
821.91079
808.39398
794.96745
781.63291
768.39113
755.24255
742.18751
729.22624
716.35895
703.58578
690.90683
678.32218
665.83193
653.43619
641.13517
628.92922
616.81897
604.80539
592.89003
581.07521
826.42885
812.13949
798.74344
785.4365
772.22345
759.10611
746.08536
733.16176
720.33574
707.60766
694.9778
682.44638
670.01359
657.67957
645.44443
633.30831
621.2714
609.33401
597.49663
585.76007
574.12558
562.5951
804.32894
790.26464
777.0651
763.95812
750.94841
738.03786
725.22747
712.51787
699.90961
687.40313
674.99878
662.69686
650.4976
638.4012
626.40779
614.51753
602.73059
591.04721
579.4678
567.99299
556.6238
545.36178
783.61121
769.761
756.74922
743.8332
731.0176
718.30437
705.69458
693.18896
680.78814
668.49261
656.30281
644.21909
632.24172
620.37093
608.6069
596.94977
585.3997
573.95688
562.62163
551.39443
540.27608
529.26782
764.1581
750.51212
737.68022
724.94706
712.31723
699.79272
687.37468
675.06391
662.8611
650.7668
638.78151
626.90562
615.13945
603.48325
591.93722
580.50149
569.17622
557.96155
546.85771
535.86506
524.9842
514.21609
745.86228
732.41171
719.75266
707.1951
694.74353
682.40001
670.1657
658.0415
646.02814
634.12622
622.33629
610.65876
599.094
587.64228
576.3038
565.07872
553.96714
542.96919
532.08502
521.31489
510.65921
500.11871
728.62591
715.36289
702.87045
690.482
678.20199
666.03248
653.9747
642.02959
630.19792
618.48036
606.87745
595.38967
584.0174
572.76092
561.62045
550.59614
539.68809
528.89638
518.22109
507.6624
497.22056
486.89611
712.35987
699.27744
686.94607
674.72097
662.60653
650.60481
638.71709
626.94434
615.28738
603.74689
592.32346
581.0176
569.82968
558.76003
547.80886
536.9763
526.26246
515.66738
505.1911
494.83368
484.59528
474.47623
696.9831
684.07509
671.89991
659.83307
647.87888
636.03939
624.31593
612.7095
601.22093
589.85096
578.60019
567.46913
556.45821
545.56772
534.7979
524.14888
513.62075
503.21351
492.92716
482.7617
472.71718
462.79378
682.4219
669.68287
657.65959
645.74651
633.94784
622.26565
610.70127
599.25573
587.92991
576.72454
565.64025
554.67758
543.83694
533.11866
522.52297
512.04999
501.69979
491.47238
481.36769
471.38566
461.52625
451.78951
668.60931
656.03449
644.15936
632.39607
620.74874
609.21944
597.80952
586.52004
575.35187
564.30578
553.38241
542.58231
531.9059
521.3535
510.92536
500.6216
490.44226
480.38733
470.45672
460.6503
450.96798
441.40967
655.48461
643.06979
631.33951
619.72252
608.22283
596.84252
585.58294
574.44516
563.43009
552.53849
541.77102
531.12822
520.61054
510.2183
499.95173
489.81096
479.79603
469.90689
460.14343
450.50548
440.99288
431.60544
642.99268
630.73417
619.14587
607.67209
596.31678
585.08198
573.96907
562.97912
552.11303
541.3716
530.75549
520.26525
509.90131
499.66402
489.55359
479.57015
469.71373
459.98427
450.38162
440.9056
431.55597
422.33248
631.08359
618.97814
607.52928
596.19601
584.98217
573.8898
562.92026
552.07465
541.35388
530.75873
520.28988
509.94788
499.73317
489.64608
479.68684
469.85557
460.15229
450.57692
441.1293
431.8092
422.61635
413.55043
619.71205
607.75682
596.44518
585.25001
574.17507
563.22236
552.39327
541.68886
531.11007
520.65769
510.33239
500.13472
490.06513
480.12394
470.31139
460.62757
451.07251
441.64611
432.34821
423.17854
414.13679
405.2226
608.83707
597.02951
585.85314
574.79395
563.8556
553.04009
542.34879
531.78277
521.34296
511.03016
500.84504
490.78815
480.85993
471.06071
461.39072
451.85005
442.43872
433.15662
424.00356
414.97928
406.08341
397.31556
598.42149
586.75936
575.7165
564.79138
553.98758
543.30704
532.75114
522.32095
512.0174
501.84129
491.79328
481.87392
472.08366
462.42281
452.89161
443.49014
434.2184
425.0763
416.06363
407.18009
398.4253
389.79884
588.43164
576.91292
566.00203
555.20927
544.53814
533.99056
523.56789
513.27121
503.10143
493.05936
483.14565
473.36085
463.70541
454.17965
444.78377
435.51787
426.38195
417.37589
408.49948
399.75241
391.13429
382.64464
578.83702
567.4599
556.67955
546.0176
535.47744
525.06098
514.76956
504.60425
494.56597
484.65551
474.87352
465.22056
455.69706
446.30333
437.03959
427.90592
418.90232
410.02866
401.28472
392.67017
384.18462
375.82756
569.60998
558.37279
547.72169
537.18912
526.77838
516.49134
506.32934
496.29344
486.38455
476.60345
466.95081
457.42715
448.03292
438.76843
429.63387
420.62934
411.75482
403.01019
394.3952
385.90954
377.55277
369.32438
560.72542
549.62664
539.10359
528.69907
518.41629
508.2571
498.22281
488.31449
478.53304
468.87922
459.3537
449.95701
440.68958
431.55171
422.5436
413.66534
404.9169
396.29816
387.80887
379.44869
371.2172
363.11386
552.16058
541.19877
530.80264
520.52491
510.36874
500.33592
490.42775
480.64529
470.98944
461.46096
452.06049
442.78857
433.64562
424.63194
415.74772
406.99305
398.3679
389.87213
381.50551
373.26767
365.15819
357.17651
543.89477
533.06859
522.79829
512.64617
502.61529
492.70744
482.92388
473.26567
463.73369
454.32869
445.05133
435.90212
426.88148
417.9897
409.22698
400.5934
392.08892
383.7134
375.46659
367.34815
359.35763
351.49447
535.90921
525.21734
515.07182
505.04416
495.13733
485.35309
475.6927
466.15719
456.74743
447.46418
438.30807
429.27962
420.37923
411.60721
402.96373
394.44888
386.0626
377.80477
369.67513
361.67332
353.7989
346.0513
528.18677
517.62796
507.60618
497.70186
487.91787
478.25594
468.71731
459.30301
450.01389
440.85071
431.81409
422.90454
414.12246
405.46815
396.94178
388.54342
380.27303
372.13047
364.11549
356.22772
348.46671
340.83191
520.71187
510.28489
500.38583
490.60372
480.94137
471.40048
461.98225
452.68772
443.51772
434.473
425.55417
416.76174
408.0961
399.55755
391.14625
382.86226
374.70556
366.67599
358.7733
350.99712
343.347
335.82237
513.47032
503.17392
493.39654
483.73554
474.19365
464.77253
455.47338
446.2972
437.24483
428.317
419.51433
410.8373
402.28631
393.86165
385.56347
377.39184
369.34673
361.42797
353.63531
345.9684
338.42676
331.00985
506.44913
496.28208
486.62534
477.08433
467.66172
458.35911
449.17771
440.11849
431.1823
422.36984
413.68172
405.11844
396.68036
388.36778
380.18085
372.11964
364.1841
356.37408
348.68932
341.12946
333.69404
326.38249
499.63644
489.59749
480.06033
470.63818
461.33365
452.14831
443.08334
434.13971
425.31825
416.61967
408.04454
399.59337
391.26653
383.06428
374.9868
367.03413
359.20624
351.50296
343.92404
336.46912
329.13774
321.92934
493.0214
483.10929
473.69061
464.38617
455.19851
446.12917
437.17932
428.34992
419.64177
411.05557
402.59191
394.25126
386.034
377.94039
369.97059
362.12466
354.40255
346.80409
339.32904
331.97704
324.74762
317.64023
486.59404
476.80749
467.50615
458.31825
449.24624
440.29164
431.45559
422.73903
414.14277
405.66749
397.31377
389.08208
380.97279
372.98616
365.12234
357.38138
349.76323
342.26775
334.89467
327.64363
320.51418
313.50576
480.34523
470.68291
461.49776
452.42519
443.46758
434.62642
425.90283
417.29775
408.81196
400.44615
392.20087
384.07659
376.07368
368.19239
360.43286
352.79516
345.27923
337.88491
330.61196
323.46
316.42859
309.51719
474.26653
464.7271
455.65694
446.69846
437.85398
429.12495
420.51249
412.0175
403.64076
395.38294
387.24461
379.22622
371.32811
363.55055
355.89369
348.35756
340.94212
333.64722
326.47259
319.41789
312.48267
305.66638
468.35016
458.93223
449.97584
441.13019
432.39754
423.77931
415.2766
406.89031
398.6212
390.46993
382.43705
374.52301
366.72816
359.05274
351.49691
344.06071
336.74408
329.54688
322.46884
315.50963
308.66879
301.94578
462.58893
453.29108
444.44719
435.71307
427.09092
418.58215
410.18782
401.90881
393.74589
385.6997
377.77079
369.95959
362.26645
354.69161
347.23521
339.89731
332.67784
325.57666
318.59351
311.72805
304.97984
298.34834
456.97615
447.79693
439.06423
430.44031
421.92732
413.52662
405.23927
397.06614
389.00797
381.06539
373.23895
365.52908
357.93612
350.46029
343.10176
335.86055
328.73662
321.72981
314.83988
308.06649
301.4092
294.86747
451.5056
442.44352
433.82068
425.3056
416.90039
408.60638
400.42459
392.3559
384.40102
376.56059
368.83514
361.22509
353.73077
346.35242
339.09017
331.94408
324.91408
318.00003
311.20168
304.5187
297.95066
291.49703
446.17145
437.225
428.71064
420.30304
412.0042
403.81546
395.73781
387.77211
379.91907
372.17931
364.55335
357.04161
349.64442
342.36201
335.1945
328.14196
321.20431
314.38142
307.67305
301.07886
294.59843
288.23124
440.96824
432.13588
423.72862
415.42707
407.2332
399.14829
391.17334
383.30917
375.55651
367.91594
360.38798
352.97306
345.67147
338.48347
331.40917
324.44862
317.60176
310.86846
304.24848
297.74149
291.34707
285.06472
435.89085
427.17101
418.86943
410.6725
402.58215
394.59964
386.72593
378.96184
371.30807
363.76521
356.33377
349.01415
341.80667
334.71155
327.72893
320.85884
314.10123
307.45597
300.92282
294.50146
288.19148
281.99239
430.93442
422.32551
414.12817
406.03443
398.04616
390.16457
382.39064
374.72515
367.1688
359.72217
352.38575
345.15994
338.04506
331.04132
324.14886
317.36771
310.69782
304.13906
297.69121
291.35394
285.12687
279.00949
426.09437
417.59478
409.50023
401.50822
393.62055
385.83843
378.1628
370.59445
363.13403
355.78214
348.53926
341.40577
334.38199
327.46813
320.66432
313.9706
307.38693
300.91316
294.54909
288.2944
282.1487
276.11151
421.36634
412.97446
404.98123
397.08947
389.30094
381.61681
374.03801
366.5653
359.19934
351.94071
344.78987
337.74722
330.81305
323.98758
317.27093
310.66315
304.16419
297.77393
291.49214
285.31853
279.25271
273.29423
416.74617
408.46037
400.56699
392.774
385.08313
377.49551
370.01206
362.63351
355.36054
348.19368
341.13341
334.18011
327.33407
320.59551
313.96454
307.44122
301.0255
294.71725
288.51628
282.42227
276.43487
270.55362
412.22992
404.04854
396.25352
388.55783
380.96313
373.47054
366.08095
358.7951
351.61362
344.53707
337.56589
330.70047
323.94109
317.28796
310.74122
304.30089
297.96694
291.73926
285.61763
279.60178
273.69135
267.88588
407.81375
399.73515
392.03701
384.43713
376.93712
369.53808
362.24088
355.04624
347.95479
340.96706
334.08351
327.3045
320.63033
314.06118
307.5972
301.23841
294.9848
288.83623
282.79252
276.85339
271.0185
265.28741
403.494
395.51654
387.91379
380.40822
373.00142
365.69445
358.48816
351.38327
344.38038
337.48002
330.68264
323.98859
317.39816
310.91156
304.5289
298.25022
292.07551
286.00464
280.03743
274.17362
268.41286
262.75475
399.2671
391.38912
383.88027
376.46754
369.15247
361.9361
354.81926
347.80264
340.88686
334.07242
327.35976
320.74924
314.24113
307.83563
301.53287
295.33289
289.23567
283.2411
277.34899
271.55911
265.87111
260.2846
395.12956
387.34943
379.933
372.61163
365.38682
358.25958
351.23073
344.30094
337.47082
330.74086
324.11149
317.58307
311.15585
304.83006
298.6058
292.48312
286.462
280.54234
274.72397
269.00664
263.39005
257.8738
391.07794
383.39401
376.06854
368.83707
361.70106
354.6615
347.7192
340.87481
334.12892
327.48202
320.93453
314.48679
308.13908
301.89159
295.74444
289.69769
283.75131
277.90521
272.15922
266.51312
260.9666
255.51929
387.10882
379.51949
372.28351
365.14049
358.09184
351.13854
344.28135
337.52094
330.85787
324.29263
317.82562
311.4572
305.18761
299.01706
292.94567
286.9735
281.10051
275.32664
269.65172
264.07552
258.59777
253.21811
383.21878
375.72244
368.57453
361.51853
354.55583
347.68737
340.9139
334.23608
327.65444
321.16948
314.7816
308.49112
302.29831
296.20336
290.2064
284.30748
278.50658
272.80363
267.19848
261.69092
256.28067
250.9674
379.40437
371.99944
364.93819
357.96783
351.08968
344.30468
337.61356
331.01696
324.51541
318.10938
311.79928
305.58542
299.46807
293.44742
287.52359
281.69663
275.96655
270.33325
264.79662
259.35643
254.01245
248.76434
375.66208
368.34702
361.37107
354.48497
347.69003
340.98714
334.37703
327.86032
321.43754
315.10914
308.87552
302.73699
296.69382