/*--------------------------------*- C++ -*----------------------------------*\
| =========                 |                                                 |
| \\      /  F ield         | OpenFOAM: The Open Source CFD Toolbox           |
|  \\    /   O peration     | Version:  2406                                  |
|   \\  /    A nd           | Website:  www.openfoam.com                      |
|    \\/     M anipulation  |                                                 |
\*---------------------------------------------------------------------------*/
FoamFile
{
    version     2.0;
    format      ascii;
    arch        "LSB;label=32;scalar=64";
    class       surfaceScalarField;
    location    "0.008";
    object      phi;
}
// * * * * * * * * * * * * * * * * * * * * * * * * * * * * * * * * * * * * * //

dimensions      [1 0 -1 0 0 0 0];

oriented        oriented;

internalField   nonuniform List<scalar> 
46071
(
-0.0016375942
0.0057907647
0.001654629
-0.0016145714
0.0063694856
-0.0015847264
0.0069673375
-0.0015477187
0.0075739501
-0.001503888
0.0081780598
-0.0014542396
0.008769292
-0.0014002303
0.009339896
-0.001343453
0.0098856976
-0.0012853569
0.010406013
-0.0012270895
0.010902785
-0.0011694614
0.011379463
-0.0011129885
0.011840062
-0.001057963
0.012288528
-0.0010045222
0.01272843
-0.000952704
0.013162835
-0.00090248587
0.013594314
-0.00085381144
0.014024988
-0.00080660731
0.014456607
-0.00076079962
0.014890614
-0.00071631298
0.015328235
-0.00067305934
0.015770557
-0.00063095727
0.016218507
0.016672841
-0.0016512865
0.0057761877
0.0016659567
-0.0016302958
0.0063485778
-0.0016021699
0.006939285
-0.0015666057
0.0075384512
-0.0015239713
0.0081354844
-0.0014752885
0.0087206644
-0.0014220254
0.009286687
-0.0013657932
0.0098295209
-0.0013080726
0.010348351
-0.0012500521
0.010844827
-0.0011925848
0.011322063
-0.0011362245
0.011783773
-0.001081293
0.012233673
-0.0010279485
0.012675165
-0.00097624151
0.013111211
-0.00092615677
0.013544314
-0.00087764122
0.013976559
-0.00083062326
0.014409677
-0.00078503028
0.01484511
-0.00074079054
0.015284084
-0.00069781976
0.015727675
-0.00065602734
0.016176804
0.016632245
-0.0016638379
0.0057638722
0.0016762397
-0.0016448309
0.0063296478
-0.0016184114
0.0069129335
-0.001584304
0.0075044039
-0.0015429034
0.0080941377
-0.0014952447
0.0086730555
-0.0014428032
0.0092342939
-0.0013872027
0.0097739695
-0.0013299479
0.010291148
-0.0012722622
0.010787197
-0.0012150383
0.011264899
-0.0011588664
0.011727666
-0.0011040978
0.012178973
-0.0010509121
0.012622051
-0.00099937451
0.013059748
-0.00094947808
0.013494494
-0.00090117494
0.013928335
-0.00085439783
0.014362981
-0.00080907525
0.014799869
-0.00076513431
0.015240226
-0.00072249039
0.015685115
-0.00068105012
0.016135448
0.016592014
-0.0016755839
0.0057536628
0.0016858725
-0.0016584324
0.006312567
-0.0016336333
0.0068881965
-0.0016009434
0.0074717684
-0.0015607789
0.0080540214
-0.0015141826
0.0086265033
-0.0014626284
0.009182782
-0.0014077417
0.0097191254
-0.0013510419
0.010234493
-0.0012937799
0.010729983
-0.0012368827
0.011208055
-0.0011809751
0.011671815
-0.0011264379
0.012124496
-0.0010734733
0.012569151
-0.0010221623
0.013008504
-0.00097250885
0.013444911
-0.000924472
0.01388037
-0.00087798853
0.014316571
-0.00083298745
0.014754943
-0.00078939295
0.015196707
-0.00074711951
0.015642918
-0.00070607436
0.016094481
-0.001686882
0.0057452921
0.0016953234
-0.0016713698
0.0062971182
-0.0016480389
0.0068649209
-0.0016166765
0.0074404542
-0.0015777165
0.0080151035
-0.001532199
0.0085810236
-0.0014815841
0.0091322029
-0.0014274866
0.0096650637
-0.0013714284
0.010178473
-0.0013146783
0.010673274
-0.0012581919
0.011151613
-0.0012026254
0.011616296
-0.0011483887
0.012070311
-0.0010957079
0.012516526
-0.0010446816
0.012957537
-0.00099532595
0.013395616
-0.00094760838
0.013832716
-0.00090146982
0.014270498
-0.00085683922
0.01471038
-0.00081363821
0.015153575
-0.00077178147
0.015601132
0.016053942
-0.0016976749
0.0057386345
0.0017043967
-0.0016836691
0.0062831695
-0.0016616967
0.0068429979
-0.0016315912
0.0074103908
-0.0015938087
0.007977357
-0.0015493853
0.0085366318
-0.0014997596
0.0090826063
-0.0014465243
0.0096118571
-0.0013911933
0.010123172
-0.0013350439
0.010617157
-0.0012790534
0.011095658
-0.0012239064
0.011561189
-0.001170041
0.01201649
-0.0011177075
0.012464239
-0.0010670237
0.012906903
-0.0010180199
0.013346666
-0.00097067202
0.013785424
-0.00092492575
0.014224809
-0.00088071003
0.014666223
-0.00083794346
0.01511087
-0.00079653429
0.015559786
0.016013853
-0.0017078057
0.0057337965
0.0017126991
-0.0016953189
0.006270731
-0.0016746655
0.0068223861
-0.0016457775
0.0073815378
-0.0016091583
0.0079407669
-0.0015658469
0.0084933451
-0.0015172584
0.0090340397
-0.0014649566
0.0095595766
-0.0014104371
0.010068674
-0.001354977
0.010561722
-0.0012995687
0.011040277
-0.0012449208
0.011506572
-0.0011914981
0.011963101
-0.0011395755
0.012412355
-0.0010892908
0.012856659
-0.0010406891
0.013298108
-0.00099375592
0.013738537
-0.00094844138
0.014179544
-0.000904674
0.014622507
-0.00086236898
0.015068619
-0.00082143066
0.015518903
0.015974237
-0.0017178499
0.0057304135
0.0017212768
-0.0017066269
0.0062595472
-0.0016871418
0.0068029347
-0.0016593882
0.0073538118
-0.0016239
0.0079053007
-0.0015817105
0.008451173
-0.0015342026
0.0089865464
-0.001482902
0.0095082896
-0.0014292762
0.010015063
-0.0013745928
0.010507054
-0.0013198526
0.010985556
-0.0012657837
0.011452525
-0.0012128754
0.011910218
-0.0011614265
0.012360934
-0.0011115953
0.01280686
-0.0010634422
0.01324999
-0.0010169629
0.013692095
-0.00097211258
0.014134734
-0.00092882081
0.014579258
-0.00088700128
0.015026844
-0.00084655743
0.015478507
0.015935118
-0.0017273173
0.0057285909
0.0017291765
-0.0017173989
0.0062496609
-0.0016990854
0.0067846473
-0.0016724686
0.0073272149
-0.0016381271
0.0078709736
-0.0015970937
0.0084101493
-0.0015507205
0.00894018
-0.0015004917
0.009458066
-0.0014478413
0.0099624177
-0.0013940214
0.010453241
-0.0013400345
0.010931578
-0.001286624
0.011399127
-0.0012343008
0.01185791
-0.0011833867
0.012310039
-0.0011340604
0.012757556
-0.0010863986
0.013202353
-0.0010404081
0.013646133
-0.00099605041
0.014090407
-0.00095325784
0.014536499
-0.00091194502
0.014985567
-0.00087201676
0.015438617
0.01589652
-0.0017363729
0.0057282852
0.0017367041
-0.0017277297
0.00624104
-0.0017105973
0.0067675323
-0.0016851408
0.0073017701
-0.0016519784
0.0078378175
-0.001612145
0.0083703177
-0.0015669638
0.0088949973
-0.001517877
0.0094089761
-0.0014662821
0.0099108194
-0.0014134094
0.010400366
-0.0013602586
0.010878427
-0.0013075836
0.011346454
-0.0012559143
0.011806246
-0.001205594
0.012259727
-0.0011568217
0.012708795
-0.0011096907
0.013155236
-0.0010642202
0.01360068
-0.0010203798
0.014046587
-0.0009781068
0.01449425
-0.00093731897
0.014944806
-0.00089792387
0.015399252
0.015858455
-0.0017448992
0.0057294109
0.0017437901
-0.0017376649
0.0062338166
-0.0017218039
0.0067516771
-0.001697561
0.0072775284
-0.0016656227
0.0078058759
-0.0016270384
0.0083317261
-0.0015831071
0.0088510557
-0.00153523
0.009361087
-0.0014847658
0.0098603427
-0.0014329201
0.010348508
-0.0013806841
0.010826181
-0.0013288186
0.011294581
-0.001277869
0.011755292
-0.0012281987
0.012210054
-0.0011800265
0.012660623
-0.0011334627
0.013108676
-0.0010885404
0.013555765
-0.0010452388
0.014003295
-0.0010035025
0.014452526
-0.00096325375
0.014904574
-0.00092440361
0.015360421
0.015820934
-0.0017537974
0.0057320146
0.0017511967
-0.0017477535
0.0062277667
-0.0017330316
0.0067369484
-0.0017099648
0.0072544525
-0.0016792626
0.0077751609
-0.0016419649
0.008294412
-0.001599337
0.0088084085
-0.0015527347
0.0093144632
-0.0015034736
0.0098110594
-0.0014527305
0.010297743
-0.0014014841
0.010774914
-0.0013504981
0.011243576
-0.0013003308
0.011705108
-0.0012513635
0.012161074
-0.0012038341
0.012613084
-0.0011578712
0.013062706
-0.0011135219
0.013511411
-0.0010707777
0.01396055
-0.0010295911
0.014411342
-0.00098989101
0.014864879
-0.00095159296
0.015322132
0.015783961
-0.0017619524
0.0057363178
0.0017576383
-0.0017573634
0.0062231717
-0.0017439991
0.0067235738
-0.0017222746
0.007232712
-0.0016929394
0.0077458046
-0.0016570367
0.0082584841
-0.0016158063
0.0087671495
-0.0015705643
0.0092691902
-0.0015225878
0.0097630506
-0.001473025
0.010248148
-0.001422842
0.010724699
-0.0013728027
0.011193507
-0.0013234768
0.011655755
-0.0012752621
0.012112834
-0.0012284158
0.012566215
-0.0011830838
0.013017355
-0.0011393298
0.013467642
-0.0010971574
0.013918365
-0.0010565297
0.014370706
-0.0010173831
0.014825727
-0.00097963883
0.015284385
0.015747534
-0.0017693384
0.0057424845
0.0017631518
-0.0017664908
0.0062203046
-0.0017547382
0.0067117984
-0.0017345663
0.0072125128
-0.0017067718
0.0077179785
-0.0016724059
0.0082240826
-0.0016326898
0.0087273944
-0.0015889073
0.0092253663
-0.0015423028
0.0097164031
-0.0014939999
0.010199802
-0.0014449522
0.010675609
-0.0013959243
0.011144438
-0.0013474955
0.011607286
-0.00130008
0.012065382
-0.001253953
0.012520054
-0.0012092792
0.01297265
-0.0011661385
0.013424473
-0.0011245492
0.013876752
-0.0010844854
0.014330621
-0.0010458925
0.014787117
-0.0010086981
0.015247178
0.015711646
-0.00177637
0.0057506486
0.0017681728
-0.0017754098
0.006219311
-0.0017654351
0.0067017882
-0.001747005
0.0071940437
-0.0017209284
0.0076918592
-0.0016882518
0.0081913595
-0.0016501776
0.0086892704
-0.0016079623
0.0091830987
-0.0015628221
0.009671209
-0.0015158595
0.010152785
-0.0014680185
0.010627713
-0.0014200638
0.01109643
-0.0013725849
0.011559756
-0.0013260114
0.012018759
-0.0012806369
0.012474633
-0.0012366448
0.012928615
-0.0011941324
0.013381921
-0.0011531331
0.013835716
-0.0011136339
0.014291089
-0.00107559
0.014749044
-0.0010389369
0.015210499
0.015676285
-0.0017828462
0.0057609066
0.001772546
-0.00178395
0.0062203719
-0.0017760874
0.0066938777
-0.0017596826
0.0071775873
-0.0017355477
0.0076676693
-0.0017047403
0.0081604939
-0.0016684542
0.008652923
-0.0016279255
0.0091425064
-0.001584349
0.0096275671
-0.0015388113
0.010107181
-0.0014922484
0.010581084
-0.0014454279
0.011049544
-0.0013989494
0.011513214
-0.001353258
0.011973006
-0.0013086661
0.012429982
-0.0012653758
0.012885268
-0.0012235032
0.013339995
-0.0011830974
0.01379526
-0.0011441592
0.014252105
-0.0011066554
0.014711498
-0.0010705294
0.015174336
0.015641434
-0.0017896651
0.0057737331
0.0017767849
-0.0017930608
0.00622371
-0.00178731
0.0066880636
-0.0017729835
0.0071631962
-0.0017509015
0.0076455207
-0.0017220939
0.008131617
-0.0016877234
0.0086184801
-0.0016489973
0.0091037053
-0.001607086
0.009585579
-0.00156306
0.010063077
-0.0015178494
0.010535796
-0.0014722248
0.011003842
-0.0014267965
0.011467709
-0.0013820259
0.011928161
-0.0013382443
0.012386129
-0.0012956739
0.012842629
-0.0012544492
0.013298705
-0.0012146368
0.013755386
-0.0011762525
0.014213662
-0.0011392752
0.014674467
-0.0011036581
0.015138669
0.01560707
-0.0017957707
0.0057891921
0.0017802354
-0.0018017883
0.0062296542
-0.0017985566
0.0066847634
-0.0017866539
0.0071512238
-0.0017669087
0.0076257016
-0.0017403371
0.0081049668
-0.0017080779
0.0085861384
-0.0016713145
0.0090668561
-0.0016311989
0.0095453752
-0.0015887906
0.010020579
-0.0015450175
0.010491932
-0.0015006569
0.010959391
-0.0014563318
0.011423295
-0.0014125218
0.011884264
-0.001369578
0.0123431
-0.0013277435
0.012800712
-0.0012871728
0.013258055
-0.0012479511
0.013716089
-0.0012101099
0.01417575
-0.0011736417
0.014637932
-0.0011385115
0.015103476
0.015573166
-0.0018015097
0.0058073933
0.0017832212
-0.0018103421
0.006238401
-0.0018099364
0.0066842807
-0.0018007676
0.0071419836
-0.0017836527
0.0076085096
-0.0017595753
0.0080808037
-0.0017296457
0.0085561168
-0.0016950262
0.0090321401
-0.0016568541
0.0095071034
-0.0016161831
0.0099798065
-0.0015739435
0.01044959
-0.0015309222
0.010916267
-0.0014877583
0.011380029
-0.001444951
0.011841356
-0.0014028735
0.012300925
-0.0013617908
0.012759535
-0.0013218792
0.013218052
-0.001283243
0.013677365
-0.0012459316
0.014138355
-0.0012099521
0.014601873
-0.0011752815
0.01506873
0.01553969
-0.0018076666
0.0058285841
0.0017864002
-0.0018194221
0.0062500826
-0.0018219195
0.0066866914
-0.0018157067
0.0071356667
-0.0018014409
0.007594135
-0.0017800556
0.0080593102
-0.0017526369
0.0085285888
-0.0017203234
0.0089997155
-0.0016842365
0.0094709036
-0.0016454231
0.0099408789
-0.0016048164
0.010408868
-0.0015632145
0.01087455
-0.001521274
0.011337975
-0.0014795151
0.011799485
-0.0014383342
0.012259633
-0.0013980207
0.012719113
-0.001358773
0.0131787
-0.0013207169
0.013639208
-0.00128392
0.014101461
-0.0012484059
0.014566267
-0.0012141652
0.015034402
0.015506608
-0.0018143523
0.0058529356
0.0017899063
-0.0018293432
0.0062649784
-0.0018349754
0.0066922217
-0.001831785
0.0071323668
-0.0018204837
0.0075827206
-0.0018019438
0.0080406547
-0.0017772001
0.0085037265
-0.0017473526
0.0089697466
-0.001713498
0.0094369252
-0.0016766718
0.0099039272
-0.0016378079
0.010369878
-0.0015977147
0.01083433
-0.0015570672
0.011297201
-0.0015164083
0.011758701
-0.0014761593
0.012219262
-0.0014366344
0.012679468
-0.0013980571
0.013140006
-0.0013605754
0.013601613
-0.0013242775
0.014065054
-0.0012892045
0.01453109
-0.0012553624
0.015000461
0.015473882
-0.0018214305
0.0058804232
0.00179384
-0.0018396244
0.0062830693
-0.0018485832
0.0067010755
-0.0018487143
0.0071323903
-0.0018406673
0.0075745609
-0.0018252295
0.0080250973
-0.0018033848
0.0084817565
-0.0017762038
0.0089424359
-0.0017447576
0.0094053459
-0.001710069
0.0098691032
-0.001673073
0.010332745
-0.0016345905
0.01079571
-0.0015953156
0.011257789
-0.0015558158
0.011719065
-0.0015165395
0.012179851
-0.0014778278
0.012640625
-0.0014399302
0.013101979
-0.0014030193
0.013564578
-0.0013672052
0.01402912
-0.0013325481
0.014496317
-0.0012990705
0.014966873
0.015441472
-0.0018297363
0.0059111811
0.00179887
-0.0018513339
0.0063045588
-0.0018637495
0.0067133803
-0.0018672464
0.0071357699
-0.0018624532
0.0075696436
-0.0018502108
0.0080127254
-0.0018314206
0.008462832
-0.001807071
0.0089179475
-0.0017781895
0.0093763221
-0.0017457803
0.009836549
-0.0017107765
0.010297595
-0.0016740091
0.010758795
-0.0016361919
0.011219824
-0.0015979166
0.011680643
-0.0015596593
0.012141448
-0.00152179
0.012602613
-0.0014845856
0.013064635
-0.0014482447
0.013528101
-0.0014129009
0.013993644
-0.0013786359
0.014461925
-0.00134549
0.014933605
0.015409338
-0.001839364
0.0059451915
0.0018052371
-0.001864361
0.0063294364
-0.0018802639
0.0067291569
-0.0018873119
0.0071426934
-0.0018860259
0.0075682338
-0.0018771528
0.0080037148
-0.0018615563
0.0084470853
-0.0018401684
0.0088964081
-0.0018139809
0.0093499819
-0.0017839766
0.0098063904
-0.0017510817
0.010264544
-0.0017161332
0.01072369
-0.0016798608
0.011183395
-0.0016428801
0.011643506
-0.0016056943
0.012104107
-0.001568702
0.012565468
-0.001532209
0.013027992
-0.0014964413
0.013492187
-0.0014615577
0.013958619
-0.001427662
0.014427892
-0.0013948147
0.014900626
0.015377439
-0.0018507755
0.0059824267
0.0018134226
-0.0018791595
0.0063577022
-0.0018985727
0.006748448
-0.0019092482
0.007153243
-0.0019115633
0.0075704193
-0.0019061825
0.0079981958
-0.0018939002
0.0084346535
-0.001875606
0.0088779597
-0.0018522487
0.0093264671
-0.0018247825
0.0097787637
-0.0017941207
0.010233719
-0.0017611024
0.010690507
-0.0017264705
0.011148598
-0.0016908623
0.011607733
-0.0016548074
0.012067889
-0.0016187338
0.012529232
-0.0015829768
0.012992076
-0.0015477907
0.013456845
-0.0015133609
0.013924038
-0.0014798156
0.0143942
-0.0014472361
0.014867906
0.015345735
-0.0018644585
0.0060228494
0.0018239181
-0.0018962182
0.0063893453
-0.0019191488
0.0067712602
-0.0019334035
0.00716738
-0.0019393254
0.0075762308
-0.0019375283
0.0079962569
-0.0019286704
0.0084256211
-0.0019135773
0.0088626993
-0.0018931643
0.009305889
-0.0018683542
0.0097537866
-0.0018400416
0.010205237
-0.0018090617
0.010659356
-0.0017761669
0.011115531
-0.001742013
0.011573406
-0.0017071542
0.012032858
-0.0016720471
0.012493955
-0.0016370566
0.012956919
-0.0016024662
0.013422091
-0.0015684893
0.013889901
-0.0015352793
0.014360836
-0.0015029407
0.014835418
0.01531419
-0.0018807768
0.0060663726
0.0018371337
-0.0019158487
0.0064242964
-0.0019422626
0.0067975464
-0.0019601278
0.007185104
-0.0019697469
0.0075856891
-0.0019714817
0.0079978454
-0.0019660312
0.0084200404
-0.0019542204
0.0088507399
-0.0019368607
0.0092883685
-0.0019148224
0.0097315807
-0.0018889746
0.010179217
-0.0018601436
0.01063035
-0.0018290859
0.011084295
-0.0017964721
0.011540614
-0.0017628803
0.011999089
-0.0017287935
0.012459692
-0.0016946063
0.012922558
-0.0016606321
0.013387946
-0.0016271123
0.013856215
-0.0015942274
0.014327789
-0.0015621059
0.01480314
0.015282769
-0.0019001686
0.0061128928
0.0018535298
-0.001938458
0.0064624673
-0.001968269
0.0068272335
-0.0019896482
0.0072063503
-0.0020028239
0.0075987233
-0.0020082009
0.0080030786
-0.0020063452
0.0084180367
-0.0019978568
0.0088420933
-0.0019835939
0.0092739401
-0.0019643974
0.0097122129
-0.0019410992
0.010155743
-0.0019145067
0.010603578
-0.0018853743
0.011054982
-0.0018543827
0.01150944
-0.001822128
0.011966651
-0.0017891183
0.012426501
-0.001755776
0.012889036
-0.0017224434
0.013354438
-0.0016893908
0.013822991
-0.0016568259
0.014295057
-0.0016249031
0.014771056
0.015251441
-0.0019230296
0.0061622777
0.0018735284
-0.0019644169
0.0065037386
-0.0019975262
0.0068602215
-0.0020223547
0.0072310491
-0.0020390659
0.0076152957
-0.0020479827
0.0080118474
-0.0020495574
0.0084194587
-0.0020444653
0.0088368447
-0.0020334214
0.009262732
-0.0020171732
0.0096957936
-0.0019965245
0.010134918
-0.0019722684
0.010579141
-0.0019451545
0.011027684
-0.00191587
0.011479971
-0.0018850268
0.011935623
-0.0018531554
0.012394445
-0.0018207046
0.012856403
-0.0017880448
0.013321599
-0.0017554752
0.013790245
-0.0017232314
0.014262643
-0.0016914936
0.014739153
0.015220184
-0.0019497877
0.0062143864
0.0018975666
-0.0019941434
0.006547983
-0.0020304367
0.0068963988
-0.0020586169
0.0072591053
-0.0020787881
0.007635335
-0.0020912207
0.0080241409
-0.0020963533
0.0084244425
-0.0020946902
0.0088350227
-0.0020867815
0.0092546564
-0.0020734546
0.0096822944
-0.0020554812
0.010116768
-0.0020336142
0.010557093
-0.0020085842
0.01100247
-0.0019810762
0.011452277
-0.0019517112
0.011906072
-0.0019210369
0.012363585
-0.0018895253
0.012824707
-0.0018575731
0.013289465
-0.001825507
0.013758002
-0.0017935903
0.014230553
-0.0017620291
0.014707425
0.015188977
-0.0019807858
0.0062690517
0.0019260123
-0.0020279487
0.006595039
-0.0020672751
0.0069356133
-0.0020986721
0.0072903818
-0.0021221891
0.0076587224
-0.0021380201
0.008039833
-0.0021464889
0.0084327632
-0.0021480781
0.0088364585
-0.0021434352
0.0092498555
-0.0021331833
0.0096718767
-0.0021179964
0.010101408
-0.0020986116
0.010537531
-0.0020757523
0.01097943
-0.0020501018
0.011426443
-0.0020222885
0.011878073
-0.0019928758
0.012333987
-0.0019623563
0.012794004
-0.0019311518
0.013258079
-0.0018996156
0.013726288
-0.0018680376
0.014198803
-0.0018366518
0.014675872
0.015157804
-0.0020164018
0.006326109
0.001959242
-0.0020662166
0.0066447533
-0.0021084358
0.0069777274
-0.0021429287
0.0073247614
-0.0021696947
0.0076853663
-0.0021888722
0.0080588804
-0.0022007476
0.0084445009
-0.0022057505
0.0088413146
-0.0022043071
0.0092482552
-0.0021969389
0.0096643435
-0.0021844432
0.010088742
-0.0021675223
0.010520435
-0.0021468553
0.010958584
-0.0021231043
0.011402511
-0.0020968941
0.01185168
-0.0020687956
0.012305706
-0.0020393165
0.012764343
-0.0020088993
0.013227483
-0.0019779215
0.013695136
-0.0019466988
0.01416741
-0.0019154902
0.014644499
0.015126661
-0.0020568857
0.0063853681
0.0019975306
-0.0021091622
0.0066969361
-0.0021540862
0.0070225533
-0.0021914903
0.0073620589
-0.0022213256
0.0077150859
-0.0022436688
0.0080810993
-0.002258721
0.0084594196
-0.0022667973
0.0088492486
-0.0022684105
0.0092497204
-0.0022641643
0.0096599447
-0.0022545796
0.010078998
-0.0022402619
0.010505951
-0.0022218886
0.01094004
-0.0022001236
0.011380571
-0.0021755933
0.011826974
-0.0021488763
0.012278812
-0.0021204957
0.012735787
-0.002090913
0.013197727
-0.002060529
0.013664581
-0.0020296839
0.014136399
-0.0019986622
0.014613318
0.015095544
-0.0021025412
0.0064466529
0.0020411685
-0.002157111
0.006751421
-0.002204586
0.0070699396
-0.0022447704
0.0074021466
-0.0022775756
0.0077477859
-0.0023030315
0.008106442
-0.0023212941
0.0084775613
-0.0023326506
0.0088604767
-0.0023374925
0.0092544261
-0.0023361686
0.009658475
-0.0023291802
0.010071855
-0.0023172958
0.010493907
-0.0023011542
0.010923735
-0.0022813681
0.011360618
-0.0022585396
0.011803976
-0.0022332413
0.012253345
-0.0022060009
0.012708378
-0.0021772934
0.013168853
-0.0021475371
0.013634662
-0.0021170942
0.014105798
-0.0020862733
0.014582344
0.015064456
-0.0021535086
0.0065097646
0.0020903185
-0.0022101692
0.0068080068
-0.0022599912
0.0071196836
-0.0023027491
0.0074448188
-0.0023383128
0.0077832557
-0.0023666585
0.0081346858
-0.0023878732
0.0084986662
-0.0024021491
0.0088746347
-0.0024097848
0.0092619356
-0.0024113148
0.0096598734
-0.0024072955
0.010067699
-0.00239815
0.010484618
-0.0023844222
0.010909857
-0.0023667381
0.01134278
-0.0023457082
0.011782789
-0.0023219091
0.012229387
-0.0022958767
0.012682187
-0.0022681002
0.01314092
-0.0022390163
0.013605425
-0.0022090089
0.014075642
-0.0021784091
0.014551602
0.01503341
-0.0022099849
0.0065745252
0.0021451576
-0.0022685633
0.0068665232
-0.0023205722
0.007171628
-0.0023657645
0.0074899396
-0.0024039793
0.0078213916
-0.0024351538
0.0081657745
-0.0024593327
0.0085227521
-0.0024766755
0.0088918775
-0.0024874581
0.0092726115
-0.0024920215
0.0096643234
-0.0024906429
0.010066198
-0.002483807
0.010477652
-0.0024722581
0.010898172
-0.0024565789
0.01132696
-0.0024373199
0.011763387
-0.0024150279
0.012206949
-0.0023902305
0.012657244
-0.0023634195
0.013113965
-0.0023350433
0.013576907
-0.0023055015
0.014045964
-0.0022751454
0.014521116
0.015002421
-0.0022719893
0.0066407389
0.0022057228
-0.0023322847
0.0069267713
-0.0023862766
0.007225571
-0.0024336962
0.0075373041
-0.0024743493
0.0078619827
-0.0025081278
0.0081994845
-0.0025350191
0.0085495682
-0.0025551069
0.0089118831
-0.0025685635
0.0092859786
-0.0025756627
0.0096713259
-0.0025769501
0.010067383
-0.0025729352
0.010473528
-0.0025639612
0.010889083
-0.0025505209
0.011313399
-0.0025331835
0.011745924
-0.0025125078
0.012186145
-0.0024890296
0.012633636
-0.0024632522
0.013088059
-0.0024356388
0.013549169
-0.0024066072
0.014016812
-0.0023765284
0.014490923
0.014971513
-0.002339585
0.006708232
0.0022720554
-0.0024014263
0.0069885827
-0.0024572408
0.0072813549
-0.0025067451
0.0075867724
-0.0025497221
0.0079049178
-0.0025860336
0.0082357485
-0.0026156309
0.0085791121
-0.0026385622
0.0089347547
-0.0026549806
0.0093023308
-0.00266514
0.0096814127
-0.0026693149
0.01007148
-0.0026676962
0.010471824
-0.0026607635
0.010882056
-0.002649273
0.011301808
-0.0026337067
0.011730253
-0.0026145785
0.012166909
-0.0025924022
0.01261135
-0.0025676719
0.013063219
-0.0025408502
0.01352224
-0.0025123624
0.013988222
-0.002482593
0.014461057
0.014940715
-0.0024126651
0.0067768177
0.0023440606
-0.0024758602
0.0070517663
-0.0025333018
0.007338785
-0.002584692
0.0076381463
-0.0026297897
0.0079499938
-0.0026684225
0.0082743544
-0.0027004969
0.0086111541
-0.0027260048
0.0089602246
-0.0027450248
0.0093213067
-0.0027577167
0.0096940547
-0.0027643465
0.010078055
-0.0027654536
0.010472871
-0.0027612734
0.010877807
-0.0027520112
0.01129247
-0.0027383743
0.011716537
-0.0027209214
0.012149374
-0.0027001546
0.012590499
-0.0026765613
0.013039541
-0.0026506077
0.013496203
-0.0026227287
0.013960264
-0.0025933222
0.014431577
0.014910073
-0.0024911356
0.0068463257
0.0024216296
-0.0025555103
0.007116151
-0.0026144066
0.0073976922
-0.002667516
0.0076912626
-0.0027145779
0.0079970582
-0.0027553915
0.0083151661
-0.0027898258
0.0086455824
-0.0028178285
0.0089882168
-0.0028394327
0.0093428958
-0.002854761
0.0097093636
-0.0028640161
0.010087288
-0.0028674302
0.010476261
-0.0028654514
0.010875791
-0.0028585058
0.011285471
-0.0028470168
0.011704991
-0.0028314059
0.012133706
-0.0028121782
0.012571214
-0.0027898322
0.013017138
-0.0027648423
0.013471157
-0.0027376537
0.013933022
-0.0027086787
0.014402555
0.014879647
-0.002574809
0.0069165907
0.0025045677
-0.0026401956
0.0071815697
-0.0027003805
0.0074579105
-0.0027550475
0.0077459594
-0.0028039208
0.008045957
-0.0028467756
0.0083580425
-0.0028834491
0.0086822734
-0.0029138493
0.0090186301
-0.0029379623
0.0093670168
-0.0029558545
0.0097272581
-0.002967677
0.010099105
-0.0029736848
0.010482259
-0.0029742906
0.010876394
-0.0029696978
0.011280877
-0.0029601364
0.011695419
-0.0029462559
0.012119809
-0.0029285544
0.012553494
-0.0029074911
0.012996054
-0.0028835215
0.013447167
-0.002857089
0.013906571
-0.0028286111
0.014374062
0.014849503
-0.00266345
0.0069874602
0.0025926296
-0.0027296904
0.0072478686
-0.0027910061
0.007519287
-0.0028470763
0.007802088
-0.0028976134
0.0080965495
-0.0029423733
0.0084028553
-0.0029811645
0.0087211153
-0.0030138587
0.0090513724
-0.0030403976
0.0093936015
-0.0030608005
0.0097477043
-0.0030751654
0.010113512
-0.0030836535
0.010490789
-0.0030864425
0.010879227
-0.0030839795
0.011278443
-0.0030766568
0.011688106
-0.0030648288
0.012107991
-0.0030488705
0.012537547
-0.0030292501
0.012976445
-0.003006435
0.013424365
-0.002980874
0.013881025
-0.0029529942
0.014346201
0.014819728
-0.0027567483
0.0070587868
0.0026854975
-0.0028236907
0.0073148966
-0.0028859844
0.0075816693
-0.0029433072
0.0078594974
-0.0029953633
0.0081486898
-0.0030418923
0.0084494664
-0.0030826796
0.0087619825
-0.0031175651
0.0090863353
-0.0031464516
0.0094225623
-0.0031693108
0.0097706343
-0.003186187
0.010130454
-0.0031971997
0.010501861
-0.003202566
0.010884648
-0.0032026377
0.011278583
-0.0031975725
0.011683118
-0.0031875788
0.012098064
-0.0031732699
0.012523299
-0.0031551031
0.012958338
-0.0031335016
0.013402822
-0.0031088936
0.013856475
-0.0030817008
0.014319069
0.014790419
-0.0028543535
0.007130434
0.0027828121
-0.0029218547
0.0073825141
-0.0029849812
0.007644916
-0.0030434116
0.0079180474
-0.0030968448
0.0082022414
-0.0031450085
0.0084977479
-0.0031876681
0.0088047592
-0.003224635
0.0091234187
-0.0032557753
0.0094538186
-0.0032810173
0.0097959918
-0.0033003568
0.010149909
-0.0033138601
0.01051548
-0.0033216481
0.010892556
-0.003323859
0.011280919
-0.0033209213
0.011680288
-0.0033131763
0.012090406
-0.0033009171
0.012511129
-0.0032844813
0.012941996
-0.0032643045
0.013382741
-0.0032408259
0.013833096
-0.0032144727
0.014292819
0.01476171
-0.0029558594
0.007202271
0.0028841585
-0.003023783
0.0074505846
-0.0030876029
0.0077088874
-0.0031470009
0.0079775968
-0.0032016743
0.0082570656
-0.0032513418
0.0085475658
-0.0032957539
0.008849321
-0.0033346994
0.0091625131
-0.0033680141
0.009487281
-0.0033955887
0.0098237124
-0.0034173748
0.010171839
-0.0034333888
0.010531635
-0.003443717
0.010903019
-0.0034485368
0.011285871
-0.0034481442
0.011680047
-0.0034426512
0.01208508
-0.0034322331
0.012500869
-0.0034174604
0.012927377
-0.0033987518
0.013364186
-0.0033764985
0.013810997
-0.0033511036
0.01426758
0.014733738
-0.0030608346
0.0072741782
0.0029890961
-0.0031290532
0.0075189832
-0.0031934346
0.0077734544
-0.0032536667
0.0080380156
-0.0033094466
0.0083130329
-0.0033604886
0.0085987963
-0.0034065313
0.0088955532
-0.0034473443
0.0092035166
-0.003482737
0.0095228651
-0.0035125649
0.0098537331
-0.0035367374
0.010196206
-0.0035552235
0.010550318
-0.0035680551
0.010916051
-0.0035753112
0.011293335
-0.0035770869
0.01168204
-0.0035737843
0.012081979
-0.0035656943
0.01249296
-0.003553045
0.012914914
-0.0035361356
0.013347471
-0.003515369
0.01379043
-0.0034911573
0.014243573
0.014706697
-0.0031688119
0.0073460422
0.0030971494
-0.0032372051
0.0075875893
-0.0033020228
0.0078384913
-0.00336296
0.008099174
-0.0034197171
0.0083700127
-0.0034720073
0.0086513108
-0.0035195613
0.0089433331
-0.0035621352
0.0092463177
-0.0035995174
0.0095604756
-0.0036315358
0.0098859808
-0.0036580654
0.010222966
-0.0036790341
0.010571517
-0.0036944275
0.010931675
-0.0037042949
0.01130343
-0.0037087701
0.011686743
-0.0037080861
0.012081547
-0.0037023127
0.012487458
-0.0036915916
0.012904457
-0.0036764443
0.013332587
-0.0036572471
0.013771498
-0.0036343584
0.014220951
0.014680764
-0.0032793145
0.0074177599
0.0032078324
-0.0033477706
0.0076562928
-0.0034129062
0.0079038815
-0.0034744249
0.0081609509
-0.0035320331
0.0084278825
-0.0035854448
0.0087049875
-0.0036343867
0.0089925433
-0.0036786049
0.0092908077
-0.0037178704
0.0096000164
-0.0037519868
0.0099203763
-0.0037807964
0.010252058
-0.0038041875
0.010595196
-0.0038220993
0.01094988
-0.003834526
0.011316157
-0.0038415015
0.011694029
-0.003843079
0.012083448
-0.0038396308
0.012484321
-0.0038313957
0.012896518
-0.0038185274
0.013320022
-0.0038012838
0.013754567
-0.0037800322
0.01420002
0.014656213
-0.003391853
0.0074892357
0.0033206473
-0.0034602676
0.0077249893
-0.0035256093
0.0079695132
-0.0035875922
0.0082232289
-0.0036459302
0.0084865202
-0.0037003409
0.0087597027
-0.0037505512
0.0090430629
-0.003796301
0.0093368713
-0.0038373507
0.0096413844
-0.0038734858
0.009956834
-0.0039045249
0.010283424
-0.0039303252
0.010621328
-0.0039507897
0.010970679
-0.0039658717
0.011331576
-0.0039755825
0.011704078
-0.0039800083
0.012088215
-0.0039793066
0.012483987
-0.0039735045
0.012891105
-0.0039627178
0.01330962
-0.0039474121
0.013739647
-0.0039279128
0.014180911
0.014633236
-0.0035059418
0.0075603827
0.0034351005
-0.0035742181
0.0077935831
-0.0036396606
0.0080352824
-0.0037019946
0.0082858963
-0.0037609431
0.0085458084
-0.0038162299
0.0088153361
-0.0038675839
0.00909477
-0.003914743
0.0093843901
-0.0039574586
0.0096844664
-0.0039955027
0.0099952513
-0.0040286719
0.010316974
-0.0040567945
0.010649838
-0.0040797361
0.010994016
-0.0040974055
0.011349649
-0.0041097561
0.011716841
-0.0041167763
0.01209566
-0.0041184794
0.012486131
-0.0041152012
0.012888261
-0.0041071279
0.013301972
-0.0040943288
0.013727283
-0.0040770176
0.014164047
0.014612193
-0.0036211038
0.0076311221
0.0035507057
-0.0036891534
0.0078619855
-0.0037545991
0.008101091
-0.0038171785
0.0083488468
-0.0038766252