/*--------------------------------*- C++ -*----------------------------------*\
| =========                 |                                                 |
| \\      /  F ield         | OpenFOAM: The Open Source CFD Toolbox           |
|  \\    /   O peration     | Version:  2406                                  |
|   \\  /    A nd           | Website:  www.openfoam.com                      |
|    \\/     M anipulation  |                                                 |
\*---------------------------------------------------------------------------*/
FoamFile
{
    version     2.0;
    format      ascii;
    arch        "LSB;label=32;scalar=64";
    class       volScalarField;
    location    "0.008";
    object      pMean;
}
// * * * * * * * * * * * * * * * * * * * * * * * * * * * * * * * * * * * * * //

dimensions      [1 -1 -2 0 0 0 0];

internalField   nonuniform List<scalar> 
23203
(
100201.99
100213.53
100225.41
100237.07
100248.96
100261.24
100273.86
100286.87
100300.25
100313.95
100327.99
100342.39
100357.13
100372.1
100387.25
100402.6
100418.16
100433.9
100449.78
100465.75
100481.86
100498.12
100514.53
100229.91
100240.91
100252.38
100263.64
100275.11
100286.92
100298.99
100311.41
100324.21
100337.32
100350.79
100364.6
100378.69
100393.05
100407.61
100422.36
100437.33
100452.49
100467.79
100483.22
100498.8
100514.55
100530.45
100257.76
100268.22
100279.28
100290.17
100301.21
100312.54
100324.16
100336.09
100348.31
100360.84
100373.72
100386.93
100400.42
100414.18
100428.15
100442.31
100456.69
100471.27
100486.02
100500.91
100515.97
100531.21
100546.6
100285.43
100295.34
100306.02
100316.58
100327.25
100338.13
100349.3
100360.75
100372.42
100384.39
100396.69
100409.31
100422.21
100435.39
100448.78
100462.37
100476.18
100490.19
100504.38
100518.74
100533.28
100548.03
100562.91
100312.84
100322.23
100332.55
100342.8
100353.13
100363.6
100374.3
100385.24
100396.4
100407.88
100419.66
100431.7
100444.03
100456.63
100469.46
100482.49
100495.74
100509.2
100522.85
100536.69
100550.73
100564.98
100339.92
100348.79
100358.77
100368.73
100378.72
100388.83
100399.13
100409.61
100420.29
100431.27
100442.53
100454.03
100465.81
100477.87
100490.16
100502.64
100515.35
100528.27
100541.4
100554.74
100568.29
100582.03
100366.61
100374.96
100384.61
100394.32
100404
100413.8
100423.72
100433.76
100444.01
100454.52
100465.26
100476.25
100487.51
100499.04
100510.82
100522.79
100534.96
100547.37
100560
100572.83
100585.89
100599.14
100392.85
100400.69
100410.05
100419.53
100428.95
100438.42
100447.97
100457.62
100467.48
100477.55
100487.82
100498.33
100509.09
100520.12
100531.4
100542.87
100554.54
100566.45
100578.59
100590.94
100603.51
100616.27
100418.58
100425.92
100434.99
100444.28
100453.46
100462.63
100471.87
100481.17
100490.64
100500.3
100510.14
100520.2
100530.51
100541.06
100551.86
100562.86
100574.06
100585.48
100597.14
100609.02
100621.12
100633.4
100443.67
100450.56
100459.36
100468.47
100477.47
100486.41
100495.35
100504.37
100513.51
100522.77
100532.2
100541.84
100551.71
100561.81
100572.16
100582.71
100593.46
100604.42
100615.62
100627.04
100638.68
100650.5
100468.19
100474.6
100483.17
100492.15
100500.99
100509.72
100518.4
100527.15
100535.97
100544.88
100553.94
100563.2
100572.66
100582.34
100592.26
100602.4
100612.71
100623.23
100633.99
100644.97
100656.17
100667.55
100491.97
100497.96
100506.36
100515.24
100523.94
100532.49
100540.97
100549.45
100557.98
100566.59
100575.33
100584.23
100593.32
100602.62
100612.13
100621.87
100631.78
100641.89
100652.22
100662.77
100673.55
100684.51
100515.13
100520.6
100528.87
100537.73
100546.31
100554.69
100563
100571.28
100579.56
100587.89
100596.33
100604.92
100613.67
100622.6
100631.74
100641.1
100650.63
100660.35
100670.28
100680.43
100690.8
100701.35
100537.72
100542.49
100550.54
100559.44
100568.03
100576.3
100584.48
100592.59
100600.66
100608.75
100616.92
100625.22
100633.65
100642.26
100651.05
100660.05
100669.24
100678.6
100688.14
100697.91
100707.89
100718.05
100559.51
100563.82
100571.66
100580.48
100589.07
100597.34
100605.39
100613.34
100621.23
100629.12
100637.06
100645.1
100653.26
100661.56
100670.04
100678.7
100687.56
100696.58
100705.77
100715.17
100724.79
100734.57
100580.74
100584.54
100592.04
100600.82
100609.39
100617.65
100625.68
100633.52
100641.27
100648.99
100656.73
100664.54
100672.45
100680.49
100688.67
100697.03
100705.56
100714.28
100723.15
100732.2
100741.46
100750.89
100601.09
100604.45
100611.84
100620.59
100629.11
100637.31
100645.31
100653.14
100660.78
100668.35
100675.91
100683.53
100691.22
100699.01
100706.93
100715
100723.24
100731.66
100740.23
100748.96
100757.89
100766.98
100620.75
100623.76
100630.98
100639.66
100648.17
100656.33
100664.29
100672.06
100679.69
100687.17
100694.59
100702.02
100709.52
100717.1
100724.78
100732.6
100740.56
100748.7
100756.99
100765.44
100774.05
100782.82
100639.65
100642.26
100649.4
100658.12
100666.61
100674.74
100682.65
100690.4
100697.96
100705.4
100712.74
100720.03
100727.35
100734.74
100742.21
100749.8
100757.51
100765.37
100773.4
100781.58
100789.91
100798.37
100657.83
100660.05
100667.14
100675.87
100684.39
100692.56
100700.43
100708.11
100715.64
100723.02
100730.3
100737.51
100744.69
100751.91
100759.19
100766.57
100774.06
100781.68
100789.44
100797.37
100805.44
100813.62
100675.29
100677.14
100684.16
100692.98
100701.5
100709.64
100717.58
100725.25
100732.73
100740.07
100747.28
100754.42
100761.52
100768.59
100775.71
100782.9
100790.18
100797.58
100805.1
100812.78
100820.61
100828.53
100692.02
100693.52
100700.47
100709.37
100717.97
100726.14
100734.07
100741.78
100749.25
100756.52
100763.7
100770.76
100777.78
100784.77
100791.74
100798.77
100805.87
100813.06
100820.36
100827.8
100835.39
100843.07
100708.06
100709.21
100716.1
100725.08
100733.77
100741.97
100749.93
100757.67
100765.15
100772.42
100779.53
100786.56
100793.49
100800.39
100807.27
100814.15
100821.08
100828.09
100835.19
100842.41
100849.77
100857.23
100723.4
100724.24
100731.07
100740.11
100748.87
100757.15
100765.14
100772.94
100780.47
100787.75
100794.82
100801.76
100808.65
100815.47
100822.25
100829.03
100835.82
100842.66
100849.58
100856.6
100863.73
100870.96
100738.06
100738.62
100745.41
100754.5
100763.34
100771.69
100779.73
100787.54
100795.14
100802.46
100809.53
100816.43
100823.23
100829.99
100836.69
100843.37
100850.05
100856.74
100863.49
100870.32
100877.26
100884.28
100752.07
100752.38
100759.12
100768.26
100777.16
100785.58
100793.7
100801.54
100809.16
100816.54
100823.65
100830.54
100837.28
100843.93
100850.58
100857.16
100863.73
100870.32
100876.91
100883.58
100890.33
100897.14
100765.44
100765.57
100772.28
100781.43
100790.36
100798.82
100807
100814.93
100822.58
100829.97
100837.13
100844.03
100850.75
100857.35
100863.88
100870.4
100876.88
100883.35
100889.83
100896.34
100902.92
100909.55
100778.2
100778.21
100784.9
100794.03
100802.94
100811.43
100819.66
100827.64
100835.34
100842.78
100849.97
100856.92
100863.64
100870.2
100876.65
100883.07
100889.47
100895.83
100902.2
100908.59
100915.01
100921.47
100790.27
100790.2
100796.9
100805.99
100814.88
100823.38
100831.64
100839.68
100847.44
100854.94
100862.16
100869.15
100875.91
100882.44
100888.86
100895.19
100901.48
100907.78
100914.03
100920.29
100926.59
100932.89
100801.63
100801.51
100808.21
100817.26
100826.14
100834.64
100842.94
100851.02
100858.86
100866.43
100873.71
100880.73
100887.53
100894.1
100900.46
100906.73
100912.93
100919.12
100925.3
100931.45
100937.62
100943.8
100812.29
100812.12
100818.82
100827.84
100836.69
100845.18
100853.5
100861.65
100869.57
100877.2
100884.57
100891.65
100898.46
100905.07
100911.48
100917.7
100923.84
100929.91
100935.99
100942.07
100948.11
100954.16
100822.26
100822.01
100828.72
100837.71
100846.52
100855.01
100863.37
100871.57
100879.55
100887.26
100894.7
100901.87
100908.76
100915.39
100921.82
100928.07
100934.16
100940.17
100946.12
100952.09
100958.05
100963.98
100831.52
100831.2
100837.89
100846.84
100855.63
100864.12
100872.49
100880.74
100888.79
100896.6
100904.14
100911.39
100918.37
100925.07
100931.51
100937.78
100943.87
100949.83
100955.71
100961.56
100967.42
100973.25
100840.14
100839.73
100846.39
100855.29
100864.04
100872.52
100880.9
100889.18
100897.3
100905.19
100912.83
100920.18
100927.26
100934.04
100940.56
100946.84
100952.95
100958.89
100964.72
100970.48
100976.23
100981.98
100848.17
100847.66
100854.25
100863.08
100871.77
100880.22
100888.61
100896.9
100905.06
100913.03
100920.77
100928.24
100935.42
100942.31
100948.92
100955.25
100961.38
100967.33
100973.13
100978.85
100984.49
100990.12
100855.59
100854.93
100861.49
100870.23
100878.85
100887.23
100895.58
100903.88
100912.08
100920.12
100927.95
100935.53
100942.84
100949.84
100956.56
100963
100969.17
100975.15
100980.95
100986.6
100992.19
100997.73
100862.4
100861.69
100868.17
100876.78
100885.28
100893.58
100901.87
100910.16
100918.38
100926.46
100934.37
100942.07
100949.5
100956.64
100963.47
100970.03
100976.3
100982.3
100988.13
100993.81
100999.34
101004.8
100868.77
100867.9
100874.21
100882.68
100891.05
100899.26
100907.5
100915.75
100923.96
100932.07
100940.05
100947.83
100955.38
100962.67
100969.65
100976.33
100982.72
100988.83
100994.68
101000.37
101005.91
101011.34
100874.53
100873.51
100879.72
100888.05
100896.27
100904.34
100912.5
100920.7
100928.87
100936.98
100944.99
100952.84
100960.5
100967.92
100975.06
100981.89
100988.43
100994.67
101000.62
101006.34
101011.9
101017.31
100879.87
100878.75
100884.74
100892.83
100900.9
100908.86
100916.88
100924.97
100933.1
100941.19
100949.22
100957.13
100964.87
100972.41
100979.7
100986.7
100993.39
100999.78
101005.88
101011.69
101017.28
101022.71
100884.71
100883.43
100889.24
100897.16
100905.06
100912.84
100920.7
100928.68
100936.73
100944.78
100952.78
100960.71
100968.52
100976.16
100983.58
100990.75
100997.61
101004.17
101010.43
101016.38
101022.05
101027.53
100889.2
100887.77
100893.42
100901.05
100908.66
100916.27
100923.99
100931.87
100939.82
100947.78
100955.74
100963.65
100971.48
100979.18
100986.72
100994.03
101001.07
101007.81
101014.26
101020.4
101026.22
101031.78
100893.3
100891.7
100897.14
100904.56
100911.96
100919.37
100926.91
100934.57
100942.34
100950.2
100958.09
100965.97
100973.8
100981.54
100989.15
100996.58
101003.79
101010.72
101017.35
101023.69
101029.71
101035.42
100897.1
100895.33
100900.55
100907.74
100914.83
100921.97
100929.33
100936.81
100944.45
100952.2
100959.97
100967.76
100975.55
100983.29
100990.93
100998.45
101005.78
101012.89
101019.72
101026.26
101032.48
101038.4
100900.63
100898.68
100903.67
100910.61
100917.51
100924.34
100931.39
100938.71
100946.16
100953.71
100961.35
100969.05
100976.77
100984.47
100992.12
100999.68
101007.1
101014.35
101021.35
101028.08
101034.55
101040.71
100903.91
100901.77
100906.51
100913.18
100919.82
100926.41
100933.22
100940.3
100947.51
100954.85
100962.34
100969.91
100977.53
100985.17
100992.78
101000.35
101007.82
101015.16
101022.32
101029.25
101035.91
101042.29
100906.98
100904.67
100909.14
100915.53
100921.9
100928.26
100934.74
100941.5
100948.54
100955.75
100963.08
100970.46
100977.93
100985.46
100993
101000.53
101008
101015.4
101022.65
101029.72
101036.57
101043.2
100909.91
100907.42
100911.63
100917.73
100923.83
100929.94
100936.22
100942.69
100949.41
100956.34
100963.41
100970.63
100977.97
100985.37
100992.83
101000.29
101007.73
101015.13
101022.45
101029.64
101036.64
101043.44
100912.69
100910.02
100913.95
100919.75
100925.55
100931.38
100937.4
100943.61
100950.02
100956.68
100963.62
100970.69
100977.81
100985.04
100992.36
100999.72
101007.09
101014.46
101021.78
101029.03
101036.14
101043.1
100915.39
100912.54
100916.19
100921.7
100927.22
100932.77
100938.53
100944.52
100950.66
100957.04
100963.64
100970.43
100977.38
100984.44
100991.61
100998.86
101006.14
101013.44
101020.73
101027.99
101035.17
101042.24
100918.01
100914.98
100918.35
100923.56
100928.79
100934.04
100939.51
100945.23
100951.14
100957.18
100963.48
100970.13
100976.92
100983.76
100990.72
100997.8
101004.96
101012.16
101019.38
101026.6
101033.79
101040.92
100920.59
100917.39
100920.48
100925.4
100930.34
100935.31
100940.5
100945.95
100951.62
100957.47
100963.46
100969.68
100976.21
100982.91
100989.69
100996.59
101003.6
101010.68
101017.8
101024.95
101032.11
101039.26
100923.16
100919.77
100922.57
100927.21
100931.87
100936.55
100941.46
100946.62
100952.02
100957.62
100963.38
100969.3
100975.55
100982.03
100988.6
100995.3
101002.12
101009.06
101016.06
101023.11
101030.19
101037.3
100925.72
100922.14
100924.67
100929.03
100933.41
100937.82
100942.46
100947.34
100952.46
100957.8
100963.35
100969.02
100974.86
100981.06
100987.5
100993.99
101000.61
101007.36
101014.22
101021.14
101028.12
101035.16
100928.32
100924.53
100926.77
100930.87
100934.99
100939.13
100943.49
100948.1
100952.94
100958.01
100963.3
100968.77
100974.37
100980.23
100986.36
100992.66
100999.08
101005.64
101012.32
101019.1
101025.95
101032.88
100930.96
100926.95
100928.91
100932.75
100936.61
100940.49
100944.59
100948.93
100953.5
100958.3
100963.31
100968.54
100973.94
100979.43
100985.29
100991.45
100997.65
101003.98
101010.45
101017.06
101023.76
101030.56
100933.67
100929.44
100931.12
100934.7
100938.32
100941.95
100945.78
100949.86
100954.17
100958.7
100963.46
100968.43
100973.61
100978.94
100984.39
100990.17
100996.25
101002.38
101008.64
101015.05
101021.58
101028.24
100936.48
100932.01
100933.4
100936.74
100940.12
100943.5
100947.08
100950.91
100954.96
100959.23
100963.72
100968.43
100973.35
100978.46
100983.69
100989.14
100994.93
101000.91
101006.96
101013.14
101019.47
101025.95
100939.4
100934.67
100935.78
100938.87
100942.02
100945.17
100948.52
100952.1
100955.9
100959.92
100964.16
100968.61
100973.28
100978.16
100983.22
100988.4
100993.79
100999.48
101005.34
101011.33
101017.46
101023.76
100942.44
100937.44
100938.25
100941.11
100944.05
100946.98
100950.09
100953.43
100956.99
100960.77
100964.75
100968.95
100973.36
100977.98
100982.79
100987.75
100992.88
100998.31
101003.96
101009.72
101015.62
101021.7
100945.62
100940.35
100940.86
100943.48
100946.22
100948.94
100951.83
100954.94
100958.27
100961.8
100965.55
100969.5
100973.66
100978.03
100982.6
100987.36
100992.26
100997.32
101002.68
101008.27
101013.96
101019.83
100948.93
100943.4
100943.63
100946.05
100948.58
100951.09
100953.76
100956.65
100959.75
100963.04
100966.55
100970.25
100974.17
100978.28
100982.6
100987.11
100991.8
100996.67
101001.71
101007
101012.51
101018.16
100952.4
100946.63
100946.59
100948.8
100951.14
100953.44
100955.9
100958.57
100961.44
100964.51
100967.78
100971.25
100974.92
100978.79
100982.87
100987.14
100991.6
100996.22
101001.01
101005.99
101011.23
101016.71
100956.02
100950.02
100949.73
100951.74
100953.89
100955.99
100958.24
100960.7
100963.35
100966.2
100969.24
100972.47
100975.91
100979.54
100983.37
100987.39
100991.61
100996
101000.58
101005.33
101010.26
101015.47
100959.81
100953.59
100953.05
100954.87
100956.84
100958.76
100960.81
100963.06
100965.5
100968.13
100970.95
100973.96
100977.16
100980.55
100984.15
100987.93
100991.91
100996.08
101000.4
101004.9
101009.59
101014.52
100963.77
100957.35
100956.57
100958.22
100960.01
100961.74
100963.6
100965.65
100967.88
100970.3
100972.9
100975.69
100978.66
100981.83
100985.19
100988.73
100992.47
100996.39
101000.49
101004.76
101009.21
101013.87
100967.91
100961.32
100960.31
100961.77
100963.41
100964.95
100966.62
100968.48
100970.52
100972.73
100975.12
100977.69
100980.44
100983.38
100986.5
100989.82
100993.32
100997
101000.87
101004.89
101009.11
101013.56
100972.23
100965.51
100964.29
100965.58
100967.04
100968.41
100969.9
100971.56
100973.4
100975.41
100977.59
100979.95
100982.49
100985.2
100988.1
100991.19
100994.46
100997.91
101001.54
101005.34
101009.31
101013.51
100976.72
100969.9
100968.49
100969.62
100970.91
100972.11
100973.41
100974.89
100976.53
100978.34
100980.32
100982.47
100984.8
100987.3
100989.98
100992.84
100995.88
100999.1
101002.49
101006.06
101009.79
101013.76
100981.39
100974.49
100972.91
100973.87
100975
100976.03
100977.15
100978.45
100979.91
100981.53
100983.31
100985.26
100987.38
100989.67
100992.14
100994.77
100997.59
101000.58
101003.75
101007.09
101010.6
101014.32
100986.21
100979.25
100977.53
100978.34
100979.31
100980.17
100981.13
100982.25
100983.53
100984.96
100986.56
100988.31
100990.22
100992.31
100994.56
100996.98
100999.58
101002.35
101005.29
101008.4
101011.68
101015.19
100991.17
100984.19
100982.33
100983
100983.82
100984.52
100985.32
100986.27
100987.38
100988.63
100990.04
100991.6
100993.32
100995.21
100997.25
100999.47
101001.85
101004.4
101007.13
101010.01
101013.07
101016.36
100996.28
100989.29
100987.32
100987.84
100988.51
100989.07
100989.71
100990.5
100991.44
100992.52
100993.75
100995.13
100996.66
100998.36
101000.21
101002.22
101004.4
101006.74
101009.24
101011.91
101014.75
101017.82
101001.53
100994.54
100992.46
100992.85
100993.39
100993.8
100994.29
100994.93
100995.71
100996.63
100997.69
100998.89
101000.24
101001.75
101003.41
101005.22
101007.2
101009.33
101011.63
101014.09
101016.71
101019.56
101006.91
100999.94
100997.77
100998.03
100998.43
100998.71
100999.06
100999.55
101000.18
101000.94
101001.83
101002.87
101004.04
101005.37
101006.85
101008.47
101010.25
101012.19
101014.29
101016.54
101018.95
101021.59
101012.41
101005.46
101003.21
101003.35
101003.63
101003.78
101003.99
101004.34
101004.83
101005.44
101006.18
101007.05
101008.06
101009.21
101010.51
101011.96
101013.55
101015.3
101017.2
101019.24
101021.45
101023.88
101018.02
101011.12
101008.8
101008.82
101008.97
101009
101009.09
101009.31
101009.65
101010.12
101010.71
101011.43
101012.28
101013.27
101014.4
101015.67
101017.08
101018.64
101020.35
101022.2
101024.21
101026.44
101023.74
101016.9
101014.5
101014.41
101014.45
101014.36
101014.34
101014.43
101014.64
101014.97
101015.42
101015.99
101016.69
101017.52
101018.48
101019.58
101020.83
101022.21
101023.74
101025.4
101027.22
101029.25
101029.55
101022.76
101020.32
101020.12
101020.05
101019.86
101019.71
101019.69
101019.78
101019.98
101020.29
101020.72
101021.27
101021.95
101022.76
101023.7
101024.78
101025.99
101027.34
101028.83
101030.46
101032.3
101035.43
101028.72
101026.23
101025.94
101025.76
101025.47
101025.22
101025.08
101025.05
101025.12
101025.31
101025.61
101026.02
101026.56
101027.22
101028.01
101028.92
101029.97
101031.15
101032.47
101033.92
101035.58
101041.38
101034.75
101032.22
101031.84
101031.57
101031.17
101030.82
101030.58
101030.44
101030.4
101030.47
101030.64
101030.92
101031.32
101031.84
101032.48
101033.24
101034.14
101035.16
101036.3
101037.59
101039.07
101047.38
101040.83
101038.28
101037.81
101037.45
101036.97
101036.52
101036.18
101035.94
101035.79
101035.74
101035.8
101035.96
101036.23
101036.61
101037.11
101037.73
101038.47
101039.34
101040.33
101041.45
101042.77
101053.43
101046.97
101044.39
101043.84
101043.4
101042.83
101042.3
101041.87
101041.53
101041.28
101041.12
101041.07
101041.11
101041.26
101041.51
101041.88
101042.37
101042.97
101043.69
101044.52
101045.48
101046.64
101059.51
101053.14
101050.54
101049.92
101049.4
101048.76
101048.15
101047.63
101047.2
101046.85
101046.6
101046.44
101046.37
101046.4
101046.54
101046.78
101047.14
101047.6
101048.18
101048.87
101049.69
101050.69
101065.62
101059.33
101056.72
101056.03
101055.44
101054.73
101054.05
101053.45
101052.93
101052.5
101052.15
101051.89
101051.72
101051.65
101051.67
101051.8
101052.03
101052.37
101052.82
101053.37
101054.04
101054.9
101071.74
101065.55
101062.93
101062.17
101061.52
101060.74
101059.99
101059.32
101058.72
101058.21
101057.77
101057.42
101057.16
101056.98
101056.9
101056.92
101057.03
101057.25
101057.57
101057.99
101058.53
101059.25
101077.86
101071.76
101069.13
101068.32
101067.61
101066.77
101065.96
101065.22
101064.55
101063.96
101063.45
101063.01
101062.66
101062.39
101062.21
101062.12
101062.12
101062.23
101062.43
101062.73
101063.14
101063.73
101083.97
101077.97
101075.34
101074.48
101073.71
101072.82
101071.94
101071.14
101070.42
101069.75
101069.16
101068.65
101068.21
101067.85
101067.58
101067.39
101067.3
101067.3
101067.39
101067.57
101067.86
101068.32
101090.07
101084.16
101081.53
101080.62
101079.8
101078.86
101077.94
101077.08
101076.29
101075.57
101074.91
101074.32
101073.8
101073.37
101073.01
101072.73
101072.54
101072.44
101072.42
101072.5
101072.67
101073.01
101096.14
101090.33
101087.71
101086.75
101085.89
101084.9
101083.93
101083.02
101082.18
101081.4
101080.67
101080.02
101079.43
101078.91
101078.47
101078.11
101077.83
101077.64
101077.53
101077.5
101077.56
101077.79
101102.17
101096.47
101093.85
101092.86
101091.95
101090.92
101089.91
101088.96
101088.06
101087.22
101086.44
101085.72
101085.07
101084.49
101083.97
101083.53
101083.17
101082.89
101082.68
101082.56
101082.52
101082.65
101108.16
101102.56
101099.95
101098.92
101097.98
101096.92
101095.87
101094.87
101093.93
101093.04
101092.21
101091.43
101090.72
101090.07
101089.49
101088.97
101088.53
101088.17
101087.88
101087.67
101087.54
101087.56
101114.1
101108.59
101106
101104.94
101103.97
101102.88
101101.79
101100.76
101099.77
101098.84
101097.96
101097.13
101096.36
101095.65
101095.01
101094.43
101093.92
101093.48
101093.11
101092.81
101092.59
101092.53
101119.98
101114.58
101111.99
101110.91
101109.91
101108.79
101107.67
101106.6
101105.59
101104.61
101103.69
101102.81
101101.99
101101.23
101100.53
101099.89
101099.31
101098.8
101098.36
101097.98
101097.68
101097.53
101125.8
101120.49
101117.93
101116.82
101115.79
101114.65
101113.5
101112.41
101111.36
101110.35
101109.38
101108.47
101107.6
101106.79
101106.03
101105.33
101104.7
101104.12
101103.61
101103.16
101102.79
101102.55
101131.54
101126.33
101123.79
101122.66
101121.61
101120.44
101119.28
101118.16
101117.08
101116.04
101115.04
101114.08
101113.18
101112.32
101111.52
101110.77
101110.07
101109.44
101108.87
101108.35
101107.9
101107.59
101137.2
101132.1
101129.57
101128.43
101127.36
101126.18
101124.99
101123.85
101122.74
101121.67
101120.64
101119.66
101118.71
101117.82
101116.97
101116.17
101115.43
101114.74
101114.11
101113.53
101113.02
101112.64
101142.78
101137.78
101135.28
101134.12
101133.03
101131.84
101130.64
101129.47
101128.34
101127.25
101126.2
101125.18
101124.2
101123.27
101122.38
101121.54
101120.75
101120.01
101119.33
101118.7
101118.12
101117.68
101148.27
101143.37
101140.9
101139.73
101138.62
101137.42
101136.2
101135.02
101133.88
101132.76
101131.68
101130.64
101129.63
101128.67
101127.74
101126.86
101126.03
101125.25
101124.52
101123.83
101123.2
101122.7
101153.67
101148.87
101146.42
101145.25
101144.13
101142.91
101141.69
101140.5
101139.33
101138.2
101137.1
101136.03
101135
101134.01
101133.05
101132.14
101131.27
101130.45
101129.67
101128.94
101128.26
101127.7
101158.97
101154.27
101151.85
101150.67
101149.55
101148.32
101147.09
101145.89
101144.71
101143.56
101142.45
101141.36
101140.3
101139.28
101138.3
101137.36
101136.46
101135.6
101134.78
101134.01
101133.28
101132.67
101164.17
101159.57
101157.18
101155.99
101154.87
101153.64
101152.4
101151.19
101150
101148.84
101147.71
101146.61
101145.53
101144.49
101143.49
101142.52
101141.58
101140.69
101139.84
101139.03
101138.26
101137.61
101169.27
101164.77
101162.41
101161.22
101160.09
101158.86
101157.61
101156.4
101155.21
101154.04
101152.89
101151.77
101150.68
101149.63
101148.6
101147.6
101146.65
101145.73
101144.85
101144
101143.19
101142.5
101174.27
101169.86
101167.53
101166.34
101165.21
101163.98
101162.73
101161.51
101160.32
101159.14
101157.99
101156.86
101155.76
101154.68
101153.64
101152.62
101151.64
101150.7
101149.79
101148.91
101148.07
101147.34
101179.16
101174.85
101172.55
101171.36
101170.23
101169
101167.75
101166.53
101165.33
101164.15
101162.99
101161.85
101160.74
101159.65
101158.59
101157.56
101156.56
101155.6
101154.66
101153.76
101152.89
101152.12
101183.94
101179.73
101177.46
101176.27
101175.14
101173.91
101172.67
101171.45
101170.25
101169.07
101167.9
101166.76
101165.64
101164.54
101163.47
101162.42
101161.41
101160.42
101159.47
101158.54
101157.64
101156.84
101188.62
101184.5
101182.27
101181.08
101179.95
101178.73
101177.49
101176.27
101175.07
101173.89
101172.72
101171.57
101170.45
101169.34
101168.26
101167.2
101166.17
101165.17
101164.2
101163.25
101162.33
101161.5
101193.18
101189.16
101186.96
101185.78
101184.66
101183.44
101182.21
101180.99
101179.8
101178.61
101177.45
101176.29
101175.16
101174.05
101172.96
101171.9
101170.85
101169.84
101168.85
101167.88
101166.94
101166.1
101197.64
101193.71
101191.55
101190.37
101189.25
101188.04
101186.82
101185.61
101184.42
101183.24
101182.07
101180.92
101179.79
101178.67
101177.58
101176.5
101175.45
101174.43
101173.42
101172.44
101171.48
101170.62
101201.99
101198.15
101196.03
101194.86
101193.75
101192.55
101191.33
101190.13
101188.94
101187.76
101186.6
101185.45
101184.31
101183.2
101182.1
101181.02
101179.96
101178.93
101177.92
101176.92
101175.95
101175.06
101206.24
101202.49
101200.4
101199.24
101198.13
101196.94
101195.73
101194.54
101193.36
101192.19
101191.03
101189.88
101188.75
101187.63
101186.53
101185.45
101184.39
101183.35
101182.33
101181.32
101180.34
101179.44
101210.37
101206.71
101204.66
101203.51
101202.42
101201.23
101200.04
101198.85
101197.68
101196.51
101195.36
101194.22
101193.09
101191.97
101190.87
101189.79
101188.72
101187.68
101186.65
101185.64
101184.64
101183.73
101214.41
101210.84
101208.82
101207.68
101206.59
101205.42
101204.24
101203.06
101201.89
101200.74
101199.59
101198.45
101197.33
101196.22
101195.12
101194.04
101192.97
101191.92
101190.89
101189.87
101188.87
101187.95
101218.33
101214.85
101212.87
101211.74
101210.66
101209.51
101208.33
101207.17
101206.01
101204.86
101203.72
101202.59
101201.47
101200.37
101199.27
101198.19
101197.13
101196.08
101195.04
101194.02
101193.01
101192.08
101222.15
101218.76
101216.82
101215.7
101214.63
101213.49
101212.32
101211.17
101210.02
101208.89
101207.76
101206.63
101205.52
101204.42
101203.33
101202.25
101201.19
101200.14
101199.11
101198.08
101197.07
101196.14
101225.87
101222.56
101220.66
101219.55
101218.49
101217.36
101216.21
101215.07
101213.94
101212.81
101211.69
101210.58
101209.47
101208.38
101207.3
101206.22
101205.17
101204.12
101203.09
101202.06
101201.05
101200.11
101229.48
101226.26
101224.39
101223.3
101222.26
101221.14
101220
101218.88
101217.75
101216.64
101215.53
101214.43
101213.33
101212.25
101211.17
101210.1
101209.05
101208.01
101206.98
101205.95
101204.94
101204
101233
101229.86
101228.03
101226.95
101225.92
101224.82
101223.7
101222.58
101221.47
101220.37
101219.27
101218.18
101217.09
101216.02
101214.95
101213.89
101212.84
101211.8
101210.78
101209.75
101208.74
101207.8
101236.41
101233.36
101231.57
101230.5
101229.48
101228.39
101227.29
101226.19
101225.09
101224
101222.92
101221.84
101220.76
101219.69
101218.64
101217.58
101216.54
101215.51
101214.49
101213.47
101212.46
101211.52
101239.72
101236.75
101235
101233.95
101232.94
101231.87
101230.78
101229.7
101228.62
101227.54
101226.47
101225.4
101224.34
101223.28
101222.23
101221.19
101220.15
101219.13
101218.12
101217.1
101216.1
101215.16
101242.94
101240.05
101238.34
101237.3
101236.31
101235.25
101234.18
101233.11
101232.04
101230.98
101229.92
101228.87
101227.82
101226.77
101225.73
101224.7
101223.68
101222.66
101221.65
101220.65
101219.65
101218.71
101246.06
101243.25
101241.58
101240.56
101239.58
101238.54
101237.48
101236.43
101235.38
101234.33
101233.28
101232.24
101231.2
101230.17
101229.15
101228.12
101227.11
101226.1
101225.1
101224.11
101223.11
101222.18
101249.08
101246.36
101244.72
101243.72
101242.75
101241.73
101240.69
101239.65
101238.62
101237.58
101236.55
101235.53
101234.5
101233.48
101232.47
101231.46
101230.46
101229.46
101228.47
101227.48
101226.5
101225.57
101252.01
101249.37
101247.77
101246.78
101245.83
101244.83
101243.8
101242.78
101241.76
101240.75
101239.73
101238.72
101237.71
101236.7
101235.7
101234.71
101233.71
101232.73
101231.75
101230.77
101229.79
101228.88
101254.85
101252.29
101250.73
101249.76
101248.82
101247.83
101246.83
101245.82
101244.82
101243.82
101242.82
101241.82
101240.83
101239.84
101238.85
101237.86
101236.89
101235.91
101234.94
101233.98
101233.01
101232.1
101257.6
101255.12
101253.6
101252.64
101251.72
101250.75
101249.76
101248.77
101247.79
101246.8
101245.82
101244.84
101243.86
101242.88
101241.91
101240.94
101239.97
101239.01
101238.06
101237.1
101236.14
101235.24
101260.26
101257.86
101256.37
101255.43
101254.53
101253.58
101252.6
101251.63
101250.67
101249.7
101248.73
101247.77
101246.8
101245.84
101244.88
101243.93
101242.98
101242.03
101241.09
101240.14
101239.2
101238.31
101262.84
101260.51
101259.06
101258.14
101257.25
101256.32
101255.36
101254.41
101253.46
101252.51
101251.56
101250.61
101249.67
101248.72
101247.78
101246.84
101245.9
101244.97
101244.04
101243.1
101242.17
101241.29
101265.33
101263.08
101261.67
101260.76
101259.89
101258.97
101258.04
101257.11
101256.17
101255.24
101254.31
101253.38
101252.45
101251.52
101250.59
101249.66
101248.74
101247.82
101246.91
101245.99
101245.07
101244.2
101267.75
101265.57
101264.19
101263.3
101262.45
101261.55
101260.63
101259.72
101258.8
101257.89
101256.97
101256.06
101255.15
101254.23
101253.32
101252.41
101251.51
101250.6
101249.7
101248.8
101247.9
101247.04
101270.08
101267.97
101266.64
101265.76
101264.93
101264.05
101263.15
101262.25
101261.36
101260.46
101259.56
101258.67
101257.77
101256.87
101255.98
101255.09
101254.2
101253.31
101252.42
101251.53
101250.64
101249.8
101272.34
101270.3
101269
101268.15
101267.33
101266.47
101265.59
101264.71
101263.83
101262.95
101262.08
101261.2
101260.32
101259.44
101258.56
101257.69
101256.81
101255.94
101255.07
101254.19
101253.32
101252.49
101274.53
101272.56
101271.3
101270.46
101269.66
101268.81
101267.95
101267.09
101266.24
101265.38
101264.52
101263.65
101262.79
101261.93
101261.07
101260.21
101259.36
101258.5
101257.64
101256.79
101255.93
101255.11
101276.64
101274.74
101273.52
101272.7
101271.91
101271.09
101270.25
101269.41
101268.57
101267.72
101266.88
101266.04
101265.2
101264.35
101263.51
101262.67