/*--------------------------------*- C++ -*----------------------------------*\
| =========                 |                                                 |
| \\      /  F ield         | OpenFOAM: The Open Source CFD Toolbox           |
|  \\    /   O peration     | Version:  2406                                  |
|   \\  /    A nd           | Website:  www.openfoam.com                      |
|    \\/     M anipulation  |                                                 |
\*---------------------------------------------------------------------------*/
FoamFile
{
    version     2.0;
    format      ascii;
    arch        "LSB;label=32;scalar=64";
    class       volScalarField;
    location    "0.03";
    object      nut;
}
// * * * * * * * * * * * * * * * * * * * * * * * * * * * * * * * * * * * * * //

dimensions      [0 2 -1 0 0 0 0];

internalField   nonuniform List<scalar> 
8260
(
0.043780697
0.050162254
0.057837226
0.066776575
0.076971299
0.088457598
0.10130881
0.11562321
0.13151184
0.14912692
0.16864466
0.19023384
0.21404929
0.24019571
0.26866652
0.29929248
0.33163921
0.36489026
0.39770151
0.42803172
0.45288401
0.46801875
0.46772095
0.44489694
0.39162552
0.30564068
0.19012235
0.096337533
0.065075746
0.049937454
0.042104701
0.051941325
0.058586242
0.066116775
0.074739259
0.08456694
0.095685593
0.10818722
0.12218045
0.13778779
0.15515591
0.17445444
0.19584652
0.2194756
0.24543554
0.27370416
0.30409617
0.33616109
0.36906399
0.4014453
0.43124299
0.45544115
0.46978751
0.46856412
0.44468129
0.39033676
0.30334965
0.18773373
0.094570108
0.06471212
0.049812695
0.042105019
0.061510427
0.068083001
0.075454306
0.083814642
0.093307535
0.10405815
0.11618754
0.12982438
0.14510634
0.16218264
0.18121732
0.20236831
0.22576812
0.25149801
0.27951846
0.30962587
0.34135147
0.37383959
0.40571306
0.43488704
0.45832394
0.47175778
0.46946885
0.44437292
0.38881212
0.30068498
0.1849337
0.092751821
0.064320387
0.049684453
0.042107913
0.072713685
0.079002661
0.086123288
0.094190162
0.10334091
0.11371469
0.12545297
0.13870342
0.15361916
0.17035684
0.18907866
0.20993789
0.23305659
0.25850094
0.2862154
0.31597495
0.34729066
0.37928394
0.41055766
0.43900182
0.46155444
0.47393432
0.47042085
0.44393823
0.38700217
0.29757699
0.18166044
0.09087073
0.063901737
0.049548858
0.04211193
0.085727365
0.09161868
0.098403637
0.10611594
0.11488593
0.12485507
0.13617477
0.14900543
0.16351263
0.17986174
0.19821585
0.21872462
0.24150083
0.26659336
0.29393056
0.32326489
0.3540847
0.38548669
0.41605045
0.44363887
0.46516255
0.4763235
0.47140098
0.44333201
0.38483166
0.29393921
0.17783972
0.088907357
0.063448906
0.049409174
0.042117461
0.10066939
0.10613784
0.11252594
0.11982807
0.12817198
0.13769961
0.14856664
0.16094047
0.17499486
0.19090254
0.20882886
0.22892034
0.25128096
0.27594287
0.30281681
0.33163197
0.36185095
0.39254531
0.42226722
0.44885011
0.46917449
0.47892392
0.47237799
0.44249282
0.3821977
0.28966643
0.17338934
0.086841718
0.062955317
0.04926907
0.042071061
0.11765351
0.12270762
0.12867341
0.13553425
0.14341974
0.15247391
0.16285529
0.1747351
0.18829196
0.2037036
0.22113735
0.24073668
0.26259705
0.28673488
0.31304247
0.34122497
0.37071661
0.40056292
0.42928525
0.45468447
0.47360897
0.48172184
0.47330342
0.44133729
0.37897962
0.28462991
0.16821996
0.084656294
0.062415259
0.049130094
0.041981509
0.13677258
0.1414435
0.14699335
0.15341111
0.16082927
0.16939438
0.17926742
0.19062213
0.20363994
0.21850136
0.23537459
0.25439964
0.27566366
0.29916857
0.32478758
0.35220115
0.38081425
0.40964406
0.43717836
0.46118259
0.47847112
0.48468451
0.47410428
0.43975247
0.37503163
0.27867102
0.16223664
0.082338568
0.061823684
0.048989031
0.041872113
0.15808984
0.16242785
0.16759717
0.17359933
0.18056812
0.18865129
0.19801112
0.20882265
0.22126852
0.23553003
0.25177461
0.27013816
0.29069955
0.31344712
0.33823491
0.36471861
0.39227367
0.41988641
0.44600869
0.46836807
0.48374326
0.48775022
0.47467264
0.4375853
0.37016623
0.27159338
0.15534273
0.079882985
0.061176073
0.04883701
0.041757171
0.18162107
0.18569139
0.19054283
0.19618489
0.20274941
0.21038353
0.2192486
0.2295186
0.24137486
0.25499702
0.27054967
0.28816341
0.30790853
0.32976037
0.35355416
0.3789213
0.40520783
0.43136711
0.45581321
0.47623384
0.48937081
0.49081387
0.47485085
0.43462798
0.36414115
0.26315379
0.14744788
0.077292291
0.060468441
0.048660913
0.041650384
0.20728665
0.21117899
0.21579835
0.22116252
0.22739623
0.23464249
0.24305881
0.25281428
0.2640851
0.27704563
0.29185454
0.30863511
0.32744811
0.34825583
0.37087523
0.39491414
0.41968961
0.44412069
0.46658235
0.48472115
0.4952414
0.49370589
0.47441067
0.43059788
0.35664146
0.25305202
0.13848307
0.074578712
0.059697474
0.048457885
0.041561655
0.23491113
0.23871952
0.2432066
0.24839519
0.25439835
0.26134686
0.26938939
0.27868582
0.28940212
0.30170223
0.31573438
0.33161115
0.34938149
0.36899358
0.39024608
0.41272382
0.43571524
0.45810457
0.4782271
0.4936878
0.50115381
0.49616193
0.47302372
0.4251098
0.34725619
0.24092114
0.12842752
0.07176425
0.058860491
0.048227513
0.041508692
0.26419656
0.26801815
0.27247785
0.27759815
0.28348016
0.29023867
0.29800405
0.30692142
0.31714039
0.32880761
0.34205452
0.35697744
0.37360914
0.3918805
0.4115703
0.43223979
0.45314881
0.47314679
0.49052944
0.50286079
0.50677244
0.49777894
0.47021975
0.41763803
0.33544759
0.22632273
0.11735308
0.068827275
0.057954672
0.047965259
0.04148724
0.29463439
0.29856582
0.30310236
0.30826343
0.31413506
0.32081587
0.32841317
0.33704754
0.34684622
0.35793188
0.37041141
0.38435691
0.39977739
0.41658003
0.43451917
0.45312976
0.47164166
0.48886932
0.50306947
0.51176688
0.51156121
0.49795248
0.46532787
0.40746434
0.3205121
0.20875909
0.10549083
0.065772483
0.056975685
0.047678177
0.041481038
0.32546443
0.32958407
0.33428507
0.33958028
0.34554151
0.35224585
0.35978004
0.36823296
0.37769991
0.38827309
0.40002718
0.41299964
0.42716467
0.44239566
0.45841438
0.47472342
0.49051889
0.50457855
0.51512038
0.51963238
0.51468843
0.49578735
0.45739425
0.39360825
0.30153366
0.18773273
0.093909636
0.062758447
0.055914273
0.04737833
0.041483761
0.35561824
0.35997201
0.36489052
0.37038005
0.37649775
0.38330366
0.39085673
0.39921542
0.40843638
0.41856952
0.42964751
0.44166492
0.45454934
0.46812769
0.48207734
0.49585825
0.50862471
0.51911284
0.52550021
0.52524076
0.5148917
0.48997158
0.44506809
0.37473566
0.27733698
0.16291396
0.083865467
0.059896634
0.054754269
0.047064875
0.041493318
0.38365439
0.3882442
0.39338567
0.39907878
0.40536566
0.41228923
0.4198882
0.42819318
0.43721835
0.4469622
0.45739981
0.4684692
0.48004228
0.4918912
0.50363512
0.5146766
0.52411467
0.53063375
0.53236583
0.52673275
0.51028779
0.47860054
0.42644582
0.34904596
0.24647401
0.13457309
0.074536306
0.05716087
0.053481059
0.046741675
0.041500831
0.40753303
0.41230387
0.41761285
0.42345541
0.42985932
0.43684807
0.4444383
0.45263447
0.46141986
0.4707475
0.48052781
0.4906272
0.50084158
0.51086964
0.52026257
0.52835505
0.534175
0.5363401
0.53292722
0.52132692
0.49810665
0.45893455
0.39886405
0.31415125
0.20736885
0.10481171
0.065950842
0.054427392
0.05202894
0.046474401
0.041504208
0.4242204
0.42906564
0.43442562
0.4402948
0.44668842
0.45360927
0.46105214
0.46899207
0.47738194
0.48613702
0.49512622
0.5041392
0.51288268
0.52096476
0.52782944
0.53273068
0.53463065
0.53206574
0.52304347
0.50492429
0.47431759
0.42707138
0.35863958
0.26700902
0.15908421
0.084589407
0.059085106
0.051727132
0.050828716
0.045891997
0.041522363
0.42867479
0.43345566
0.43871365
0.4444418
0.4506416
0.45730216
0.46439795
0.47187064
0.47963368
0.48756629
0.49549104
0.50315258
0.51019364
0.51610335
0.52022592
0.52167663
0.51932705
0.51166435
0.4966157
0.47152359
0.43309003
0.37752101
0.30078291
0.20418001
0.10662899
0.068037475
0.053828699
0.04995043
0.04935829
0.045372953
0.041487056
0.41205268
0.41662159
0.42161593
0.42702703
0.43284271
0.43903505
0.44555305
0.45231478
0.4592028
0.4660459
0.47259848
0.47856152
0.48352196
0.48690813
0.48797529
0.48575578
0.47894397
0.46591801
0.44456206
0.41227591
0.36596636
0.30273377
0.21875545
0.12824693
0.076763422
0.057039651
0.050759798
0.04838073
0.048072862
0.044525242
0.041433206
0.35869022
0.36305752
0.36778415
0.37285656
0.37824472
0.3838991
0.38974173
0.39565718
0.40148275
0.40699607
0.41191171
0.41583833
0.41827553
0.418641
0.41612184
0.40975263
0.39831208
0.38009841
0.35272357
0.31360635
0.26034336
0.19360353
0.13011214
0.080358788
0.056983665
0.050559322
0.048940971
0.047000801
0.046725647
0.044140618
0.041178382
0.25750465
0.26079621
0.26432099
0.26805339
0.27195064
0.27595162
0.27996898
0.28387933
0.28750841
0.29062622
0.29294016
0.29410274
0.29365555
0.29106406
0.2857596
0.27696719
0.26408902
0.24598686
0.22150346
0.18973088
0.15115334
0.10908378
0.076819266
0.056582575
0.049697955
0.048284494
0.046866896
0.045545955
0.045656833
0.043958324
0.041046334
0.14484896
0.14701501
0.14933434
0.15177715
0.15430251
0.15685624
0.15936815
0.16175382
0.16386086
0.1655259
0.16656058
0.16673282
0.16579141
0.16340072
0.15924602
0.15297277
0.14439121
0.1330952
0.11885197
0.10167555
0.082887094
0.065229643
0.053489197
0.047708421
0.046525944
0.04596256
0.045347575
0.044348075
0.044518417
0.043839175
0.041010542
0.071935832
0.073440504
0.075049072
0.076744556
0.078495669
0.080250537
0.081924424
0.083393612
0.08466434
0.08570746
0.086461987
0.086828335
0.086676931
0.08580366
0.084048104
0.081314074
0.077534108
0.072684699
0.066961295
0.060445469
0.053871617
0.048285768
0.045295801
0.044406092
0.044765433
0.04437457
0.043683816
0.043114978
0.043250848
0.043372114
0.040940664
0.04779205
0.048221976
0.048673888
0.049143774
0.049625809
0.050112612
0.05059489
0.051062683
0.051504719
0.051902522
0.052233891
0.052480379
0.052612867
0.052588601
0.052359043
0.051855632
0.050906296
0.049526235
0.04791812
0.046120529
0.044320935
0.042921313
0.042543034
0.042779858
0.042731066
0.042552485
0.042431141
0.041993231
0.041934532
0.04242518
0.040905638
0.041469581
0.041645764
0.041824782
0.042004301
0.042182852
0.042358881
0.042529929
0.042691612
0.042838649
0.042970215
0.043084742
0.043179243
0.043248083
0.043281011
0.043264024
0.043174324
0.042975878
0.042674312
0.042315467
0.041953136
0.041537559
0.041352133
0.041258861
0.041434923
0.041664395
0.041447281
0.04121518
0.041037304
0.041273103
0.042167502
0.040783068
0.040366034
0.040420303
0.040472516
0.040524652
0.040575811
0.040624682
0.04067037
0.040712462
0.040751058
0.040786729
0.040820864
0.040856551
0.040892997
0.040925733
0.040951162
0.040961313
0.040946206
0.040913202
0.040876679
0.040848955
0.040742513
0.040658651
0.040604512
0.040740033
0.040835351
0.040692147
0.04056873
0.040484349
0.040673711
0.040905661
0.040726658
0.040109393
0.040130815
0.040149561
0.040165544
0.040178885
0.040189846
0.040198865
0.040206607
0.040214063
0.040222655
0.040234214
0.04025003
0.04027375
0.040306156
0.040344777
0.040385563
0.040425855
0.040456492
0.040489849
0.040515849
0.040488052
0.040409016
0.040332275
0.040350635
0.04038797
0.040310686
0.040183579
0.040168413
0.040234429
0.04029975
0.040530557
0.040055183
0.040059669
0.040063011
0.040065092
0.040066033
0.040065795
0.040064343
0.040061875
0.040059148
0.040057785
0.040060499
0.040070687
0.040091221
0.040124402
0.040165632
0.040210984
0.040262027
0.040331735
0.04038743
0.04044333
0.040418739
0.040345543
0.040234543
0.040182651
0.040137489
0.040109259
0.039998403
0.039998554
0.040036969
0.040108116
0.040209124
0.04001658
0.040017861
0.040019028
0.040019745
0.040019425
0.04001747
0.04001351
0.040007579
0.040000215
0.039992406
0.039985401
0.039980398
0.03997828
0.039979336
0.039983964
0.039992899
0.040006373
0.040023395
0.040046676
0.040069843
0.040099361
0.040095811
0.040014833
0.039923375
0.039833185
0.039828597
0.039800728
0.039805733
0.039816767
0.040069282
0.039815571
0.0037019498
0.0057589543
0.0086603213
0.012431124
0.017158587
0.022992489
0.030119154
0.038836559
0.049020162
0.061167453
0.075514042
0.092274324
0.11166977
0.13397734
0.15945176
0.18826279
0.22041877
0.25564839
0.29323447
0.33177548
0.36898253
0.40130476
0.42359452
0.42885095
0.40810401
0.35422768
0.26275693
0.15407308
0.082805418
0.056499499
0.043264034
0.0062631751
0.0090466697
0.012452298
0.0166107
0.021657367
0.027800837
0.035335048
0.044299245
0.054838453
0.067301358
0.081919649
0.098923283
0.11855109
0.14106546
0.16669799
0.19559155
0.22772362
0.26278531
0.30001495
0.33797212
0.37432885
0.40550515
0.4263394
0.42985767
0.40720128
0.3515369
0.25877618
0.15051047
0.081390148
0.056041975
0.043148786
0.0079000355
0.010861022
0.014578723
0.019170529
0.024752001
0.031521461
0.039626493
0.049034911
0.060071942
0.072980064
0.087982528
0.10531852
0.1252375
0.14799352
0.17380279
0.2027886
0.23490007
0.26979442
0.30666418
0.3440372
0.37954717
0.40958601
0.42897944
0.43077953
0.40623897
0.34881712
0.25478074
0.14697642
0.080006456
0.055583558
0.043038181
0.0098104529
0.01316972
0.017271106
0.022232556
0.028215126
0.035398853
0.043823845
0.053671274
0.065158211
0.078487583
0.093873416
0.11155279
0.13177194
0.15477435
0.18076288
0.2098408
0.24193105
0.27665403
0.31316187
0.34995263
0.38462274
0.4135366
0.43150865
0.43161652
0.40522278
0.34607377
0.25078243
0.14349655
0.078677756
0.055136669
0.042934815
0.011684746
0.015369771
0.019826909
0.025177032
0.03162298
0.039181319
0.047995409
0.058266702
0.070169634
0.083893485
0.09964672
0.11765947
0.13817042
0.16141346
0.18757621
0.2167418
0.24880731
0.28335164
0.31949754
0.35570987
0.38954995
0.41735494
0.43392938
0.43237559
0.40416277
0.34332
0.24679581
0.14009054
0.077415386
0.054704158
0.042839622
0.013494066
0.01755404
0.022400631
0.028176819
0.034997427
0.042930762
0.052155257
0.062830228
0.075122056
0.089215965
0.10531603
0.12364431
0.14443387
0.16790683
0.1942351
0.22348238
0.25551454
0.28987543
0.32566063
0.36130077
0.39432389
0.42104015
0.43624496
0.43306455
0.40306976
0.3405695
0.24283536
0.13677565
0.076225477
0.054285785
0.042752788
0.015325847
0.019748499
0.024974692
0.031179053
0.038346567
0.046671567
0.056289768
0.06734765
0.080007048
0.094448987
0.11087479
0.12950131
0.15055415
0.17424398
0.20072902
0.23004949
0.26203713
0.29621294
0.33164051
0.36671754
0.39894037
0.42459216
0.43845964
0.43369192
0.40195519
0.33783636
0.2389155
0.13356712
0.07511183
0.053882186
0.042673934
0.017109778
0.021899855
0.027522216
0.034106279
0.041660986
0.050374459
0.060372832
0.071796276
0.084804942
0.09957629
0.11630944
0.13521687
0.15651699
0.18041123
0.2070441
0.23642443
0.26836073
0.30235126
0.33742659
0.3719528
0.4033958
0.42801168
0.44057851
0.43426687
0.40083106
0.33513486
0.23505031
0.13047812
0.074075461
0.053498338
0.042604889
0.018868889
0.024021653
0.030043402
0.036971986
0.044919168
0.054014249
0.064379378
0.076153626
0.089494535
0.10457791
0.12160095
0.14077235
0.16230551
0.18639315
0.21315926
0.2425878
0.2744701
0.30827717
0.3430084
0.37699955
0.4076872
0.4313001
0.44260733
0.43479915
0.3997098
0.33247939
0.23125333
0.12751973
0.073114674
0.053138058
0.042541905
0.020593081
0.026104638
0.032502137
0.039786395
0.04811083
0.057571253
0.068287383
0.080396039
0.094052209
0.10943068
0.12672681
0.14614749
0.16790237
0.19217022
0.21905192
0.24852251
0.28034947
0.31397728
0.34837564
0.38185117
0.41181208
0.4344594
0.44455241
0.43529891
0.39860421
0.32988425
0.22753752
0.12470095
0.072226783
0.052801385
0.042483992
0.022279752
0.028148436
0.034885307
0.042534639
0.051216031
0.061023372
0.072072944
0.084498551
0.098452539
0.11410955
0.13166423
0.15132198
0.17328594
0.19771561
0.22470251
0.2542104
0.28598269
0.31943817
0.35351818
0.38650139
0.4157684
0.437492
0.44642051
0.4357766
0.39752731
0.32736355
0.22391518
0.12202884
0.071408597
0.052486325
0.042431052
0.023929777
0.030134374
0.037197928
0.045194912
0.054213702
0.064347679
0.075711465
0.088435977
0.10267161
0.11859216
0.13639207
0.15627139
0.17842572
0.20300297
0.23009002
0.25963262
0.29135337
0.32464643
0.35842612
0.39094424
0.41955448
0.4404007
0.44821863
0.43624286
0.39649227
0.32493107
0.22039783
0.11950861
0.070656622
0.052190966
0.042383654
0.025539451
0.032056008
0.039434396
0.047750731
0.057089032
0.067526175
0.079183525
0.092188176
0.10668927
0.12285766
0.14088441
0.16096843
0.18329298
0.20801048
0.23519293
0.26477001
0.29644501
0.32958871
0.36308971
0.395174
0.42316885
0.44318851
0.44995393
0.43670831
0.39551233
0.32260011
0.21699622
0.11714374
0.069967199
0.051914565
0.042340591
0.027111765
0.033917646
0.041595864
0.05019713
0.05982265
0.070544249
0.082472544
0.095735485
0.11047938
0.12687729
0.14511044
0.16537981
0.18786415
0.21271461
0.2399895
0.26960327
0.30124109
0.33425173
0.36749938
0.39918512
0.42661018
0.44585853
0.45163358
0.43718346
0.39460064
0.3203834
0.21372022
0.11493493
0.069336591
0.051657186
0.042304228
0.028570672
0.035632785
0.043581317
0.052464529
0.062370335
0.073368205
0.085547252
0.099043823
0.11400568
0.13060713
0.14903187
0.16947315
0.19211295
0.2170913
0.24445789
0.274113
0.30572509
0.33862231
0.37164568
0.40297215
0.42987717
0.4484138
0.4532646
0.43767854
0.39377017
0.31829296
0.21058142
0.11287598
0.068758596
0.051417735
0.042271424
0.029852634
0.037162111
0.045364283
0.054519056
0.064677577
0.075919727
0.088338275
0.10205262
0.11721923
0.13400881
0.15261494
0.17322365
0.19601322
0.2211166
0.24857622
0.27827982
0.30988055
0.34268735
0.37551921
0.40652966
0.43296837
0.45085718
0.45485377
0.43820334
0.39303362
0.31634
0.20759976
0.11094338
0.068226266
0.051196065
0.042240974
0.031232484
0.038699594
0.047070064
0.05640431
0.066755164
0.078193962
0.090814673
0.10473099
0.1200888
0.13705989
0.15583696
0.17660558
0.19953975
0.22476675
0.25232275
0.28208444
0.31369111
0.34643379
0.37911059
0.40985214
0.43588214
0.45319114
0.45640743
0.43876713
0.39240327
0.31453474
0.20479388
0.10911583
0.067735511
0.05099202
0.042213135
0.032567066
0.040157907
0.048656147
0.058113597
0.068600959
0.08018912
0.092968585
0.10705463
0.12258916
0.13973654
0.15867402
0.17959388
0.2026679
0.22801828
0.25567594
0.28550774
0.31714051
0.34984861
0.38241035
0.41293389
0.43861643
0.45541768
0.45793135
0.43937846
0.39189086
0.3128863
0.20218093
0.10737388
0.067283657
0.05080559
0.042187785
0.033865295
0.041532592
0.050110246
0.059654657
0.070230247
0.081916162
0.094806907
0.10901792
0.12468937
0.14198032
0.16107014
0.18214208
0.20536194
0.23084655
0.25861448
0.28853079
0.3202126
0.35291879
0.38540894
0.41576894
0.44116892
0.45753804
0.45943059
0.44004508
0.39150744
0.31140257
0.19977654
0.10569924
0.066868767
0.050635156
0.042164771
0.035101461
0.042800282
0.05141191
0.061000512
0.071630071
0.083382523
0.096353664
0.11066006
0.12644293
0.14385516
0.16307116
0.18427218
0.20762142
0.23323171
0.26111684
0.29113095
0.3228834
0.35562264
0.38809621
0.41835098
0.44353685
0.45955267
0.46090925
0.44077378
0.39126315
0.31009016
0.19759494
0.10407417
0.066489079
0.050478933
0.042144242
0.036280107
0.04395311
0.052545595
0.062129051
0.072767665
0.084544168
0.097552878
0.11191517
0.12777719
0.14528795
0.1646155
0.18593656
0.20941191
0.23515131
0.26316475
0.29329896
0.32515417
0.35796481
0.39046262
0.42067341
0.44570901
0.46146094
0.46237042
0.44157022
0.39116701
0.30895432
0.19564908
0.10248095
0.066142947
0.050336939
0.042126722
0.037400006
0.044986015
0.053498139
0.063020167
0.073616343
0.08536841
0.098385635
0.11278595
0.12870957
0.14629965
0.16572026
0.1871446
0.21073273
0.23659333
0.26473803
0.29501172
0.32699988
0.35992298
0.39249819
0.42272914
0.44769778
0.46326165
0.46381583
0.44243894
0.39122667
0.30799906
0.19395101
0.1009015
0.065828806
0.050209082
0.042112994
0.038473038
0.045901539
0.054257422
0.063644622
0.074153698
0.085875093
0.098896822
0.11331188
0.12923492
0.14684553
0.16631904
0.18782637
0.2115248
0.23752077
0.26581698
0.29625583
0.32841547
0.36150263
0.39419837
0.42451055
0.44948971
0.46495278
0.46524443
0.44338312
0.39144634
0.30722715
0.19251216
0.099317018
0.065545064
0.050094527
0.042102373
0.039569762
0.046739864
0.054831869
0.063986479
0.074326141
0.085923542
0.098867659
0.1132544
0.12919098
0.14683734
0.1663705
0.18796157
0.21176804
0.23789705
0.26634908
0.29696286
0.32931271
0.36259488
0.3954778
0.42594175
0.4510102
0.46646503
0.46661317
0.44438918
0.39182683
0.30664055
0.19134437
0.097707564
0.065289593
0.049991715
0.042099281
0.0037018835
0.0057059759
0.0084763682
0.012092147
0.016645873
0.022183172
0.028999318
0.037327253
0.047136829
0.0588618
0.072763491
0.089080887
0.10809214
0.13003965
0.15519361
0.18374529
0.21572468
0.25088818
0.28855028
0.32736669
0.36506202
0.39810137
0.42134804
0.42781497
0.40847781
0.35600973
0.26569224
0.15687001
0.083972999
0.056915321
0.043354918
0.0039387623
0.0060012465
0.0087216362
0.01223166
0.016646587
0.022087894
0.028794698
0.036967995
0.046695325
0.058218718
0.071850167
0.08788007
0.10659735
0.12827373
0.15317504
0.18149583
0.2132791
0.24829895
0.28589129
0.32473721
0.36258915
0.39593778
0.41967102
0.42681312
0.40833108
0.35678791
0.26736791
0.15861658
0.084707945
0.057194729
0.043436719
0.0041877244
0.0062855814
0.0089956381
0.01245868
0.016795632
0.022122844
0.028681288
0.036661668
0.046178473
0.057480792
0.070861024
0.086619096
0.10505462
0.12645042
0.151081
0.17915154
0.21071968
0.24557839
0.28308683
0.32195321
0.35995937
0.39362591
0.41786665
0.42571979
0.40814656
0.35758467
0.26912839
0.1604847
0.085510001
0.057508633
0.043535084
0.0044513362
0.0065696853
0.0092657815
0.012679296
0.016937801
0.022154841
0.028563175
0.036355129
0.045664521
0.056735545
0.069857424
0.085332116
0.10347249
0.12457096
0.14891246
0.17671269
0.20804541
0.24272394
0.28013235
0.31900809
0.35716482
0.39115686
0.41592558
0.42452628
0.40791786
0.35839604
0.27097344
0.16247879
0.086383347
0.057864984
0.04366205
0.0047238873
0.0068488418
0.0095279548
0.012893597
0.017073972
0.022183922
0.028441858
0.036048616
0.045148686
0.05598414
0.068840654
0.084018524
0.1018513
0.12263586
0.14667017
0.17417955
0.2052556
0.2397334
0.27702384
0.315896
0.35419752
0.38852135
0.41383784
0.42322308
0.40763769
0.35921737
0.2729028
0.16460484
0.087334846
0.058262616
0.043815644
0.0050115343
0.0071334089
0.0097911535
0.013107238
0.01720822
0.022211439
0.028318187
0.035741183
0.044629974
0.055226147
0.067810535
0.082690537
0.10020717
0.12066281
0.14437373
0.17157165
0.2023685
0.23662252
0.27377372
0.31262581
0.35106359
0.38572292
0.41160602
0.42181147
0.40730438
0.36006177
0.27492755
0.16687348
0.088368572
0.05867881
0.043976128
0.005305511
0.0074153526
0.01004691
0.013311565
0.01733321
0.022231401
0.028188892
0.035431776
0.044110788
0.054469458
0.066778806
0.081370187
0.098560463
0.11868003
0.14204065
0.16890396
0.19939608
0.23339989
0.27038692
0.30919873
0.34776226
0.38275705
0.40922419
0.42028461
0.40691127
0.36092945
0.27705042
0.16929149
0.089495271
0.059137165
0.044162731
0.0056153894
0.007709715
0.010312505
0.013525959
0.017469524
0.022264589
0.028075484
0.035141671
0.043612348
0.053730857
0.065764219
0.080044716
0.09689739
0.11666151
0.13965559
0.1661609
0.19632225
0.23004883
0.26684606
0.30559635
0.34427317
0.3796015
0.4066685
0.41861963
0.40644205
0.36179503
0.27925738
0.17186184
0.09072342
0.059644808
0.04437406
0.0059407791
0.008016072
0.010587165
0.013748215
0.01761378
0.022306187
0.027972947
0.034863112
0.0431248
0.052991971
0.064754645
0.078719309
0.0952238
0.11461508
0.1372247
0.16334849
0.19315192
0.22657243
0.2631518
0.30181637
0.34058998
0.37624767
0.40392828
0.41680479
0.40588582
0.36265063
0.28154517
0.17458975
0.092062012
0.060210006
0.044610633
0.0062867938
0.0083406428
0.010877147
0.013984155
0.017771064
0.022360546
0.027888181
0.034600501
0.042654296
0.052278384
0.063757647
0.077400025
0.093546252
0.11255017
0.13475477
0.16047368
0.18989113
0.22297505
0.25930601
0.29785763
0.3367081
0.37268724
0.40099282
0.41482778
0.40523002
0.36348706
0.2839093
0.17747964
0.093520458
0.060841879
0.044871919
0.0066575243
0.0086881208
0.011188111
0.014239812
0.017947548
0.022434764
0.027825995
0.034359942
0.042206372
0.05158647
0.062780246
0.076093623
0.09187187
0.11047444
0.13225261
0.15754455
0.18654711
0.21926235
0.25531197
0.29372023
0.33262411
0.36891453
0.39785144
0.41267581
0.40446059
0.36429366
0.28634382
0.18053484
0.095108576
0.061549624
0.045153812
0.0070625094
0.0090681958
0.01152924
0.014523925
0.018152156
0.022535668
0.027792535
0.034148134
0.041787387
0.050922671
0.061834875
0.074807474
0.090208266
0.10839664
0.12973756
0.15457043
0.18312828
0.2154414
0.25117444
0.28940574
0.32833573
0.36492395
0.39449345
0.41033582
0.40356106
0.36505802
0.28884105
0.18375746
0.096836397
0.062340666
0.045444112
0.0075145721
0.0094917499
0.011911127
0.014846635
0.0183942
0.022671866
0.027795252
0.03397241
0.041404051
0.050291689
0.060906523
0.073546263
0.088563065
0.10632527
0.1272113
0.15156081
0.17964417
0.21152066
0.24689977
0.28491733
0.32384202
0.36070837
0.39090839
0.40779518
0.40251532
0.36576594
0.29139143
0.18714804
0.098713915
0.063217631
0.045752193
0.0080212182
0.0099680127
0.012343258
0.015217471
0.018682697
0.022852784
0.027842451
0.03384062
0.041063611
0.049700485
0.06001079
0.07231745
0.08694439
0.10426879
0.1246767
0.14852535
0.17610532
0.20751
0.24249594
0.28025988
0.31914366
0.35626312
0.38708598
0.40504111
0.40130768
0.36640099
0.29398316
0.19070541
0.10075078
0.064174693
0.046085591
0.0086023374
0.010513686
0.012839933
0.015648819
0.019028525
0.023088519
0.027943083
0.033761135
0.040774238
0.049159632
0.059175993
0.071133501
0.085361532
0.10223673
0.12215061
0.14547453
0.1725233
0.20342065
0.23797264
0.27544016
0.3142432
0.35158565
0.38302045
0.40206029
0.39992188
0.36694652
0.29660212
0.19442645
0.10295599
0.065194315
0.046396826
0.0092777
0.011144825
0.013415145
0.016153021
0.019442613
0.023388937
0.028105893
0.033742182
0.040543765
0.048676338
0.058395806
0.070008875
0.083824082
0.10023876
0.11964353
0.14241743
0.16891068
0.19926515
0.23334122
0.27046688
0.30914519
0.34667517
0.37870733
0.3988382
0.39834105
0.36738478
0.2992318
0.19830597
0.10533793
0.066246686
0.046571762
0.010043042
0.011865956
0.014076378
0.016738249
0.019932972
0.023761601
0.028337718
0.033791093
0.040378759
0.04825663
0.057674978
0.068930437
0.082337026
0.098283736
0.11716713
0.13938293
0.16528174
0.19505722
0.22861464
0.26535075
0.30385633
0.34153264
0.37413848
0.39536106
0.39654772
0.36769673
0.30185339
0.20233667
0.10790494
0.067295374
0.046568364
0.010914174
0.012684309
0.014828084
0.017408205
0.020503047
0.024209556
0.028641183
0.033915842
0.040283151
0.047904496
0.057016739
0.067899572
0.080904987
0.09637976
0.11473131
0.13637148
0.16164963
0.1908114
0.22380734
0.26010446
0.29838557
0.3361613
0.36930841
0.39161483
0.39452391
0.36786197
0.304446
0.20650924
0.11066639
0.068305791
0.04662579
0.011883051
0.013593389
0.015665042
0.01815887
0.021150143
0.024731842
0.029017529
0.034114615
0.040259695
0.047623413
0.05643029
0.066958322
0.079541483
0.094535809
0.11234471
0.13338431
0.15802642
0.18654274
0.21893507
0.2547426
0.29274423
0.33056703
0.36421599
0.38759298
0.39225074
0.36785785
0.30698751
0.21081255
0.11363427
0.069320343
0.046641483
0.012935237
0.01458239
0.016578311
0.01898281
0.021868503
0.025324821
0.029461427
0.034382922
0.040307137
0.047413734
0.055916515
0.06608877
0.078256881
0.092760193
0.11001664
0.13044217
0.15442442
0.18226663
0.21401462
0.24928155
0.28694602
0.32475846
0.35886275
0.38329452
0.38970743
0.36766414
0.30945604
0.21523386
0.11682515
0.070376142
0.046715459
0.014055449
0.015636395
0.017554194
0.019867685
0.022647017
0.025978031
0.029965798
0.03471377
0.040420702
0.047272523
0.055473663
0.065290794
0.077042026
0.091055608
0.10775419
0.12755464
0.15085043
0.17799874
0.20906364
0.24373925
0.28100691
0.31874687
0.35325238
0.37871108
0.3868778
0.3672699
0.31183044
0.21975895
0.12026385
0.071611677
0.046866061
0.015228373
0.016741094
0.018579185
0.020800646
0.023473439
0.026679953
0.030520667
0.0350979
0.040592681
0.047193532
0.055096086
0.064556837
0.075872164
0.089417832
0.10556198
0.12473364
0.1473518
0.1737578
0.20410044
0.23813488
0.27494497
0.31254624
0.34739149
0.3738348
0.38375196
0.36665645
0.31408819
0.2243714
0.12398432
0.073139623
0.047169448
0.016433586
0.017878382
0.019636896
0.021766522
0.02433352
0.027417227
0.031113771
0.03552395
0.040813047
0.047168554
0.054778576
0.063891327
0.07480009
0.087858451
0.10344555
0.12198476
0.14390673
0.16955629
0.19914283
0.23248847
0.26878012
0.30617322
0.34129003
0.36866584
0.38031463
0.36580223
0.31620411
0.22905093
0.12802519
0.075009125
0.047662936
0.017644409
0.019024934
0.020706965
0.022747338
0.025211072
0.028175006
0.031731387
0.035979141
0.041070073
0.047187489
0.054512939
0.063286367
0.073793893
0.086374719
0.10140744
0.1193119
0.14052023
0.1654046
0.19420768
0.22682035
0.26253369
0.29964696
0.33496109
0.36320768
0.37656056
0.36468735
0.31814722
0.23377087
0.13242279
0.077232482
0.048346418
0.018852539
0.020172834
0.021781544
0.023734982
0.026097429
0.028943912
0.032363448
0.03645288
0.041352949
0.047240163
0.054290257
0.062734977
0.07285354
0.084983731
0.099452858
0.11671995
0.13721049
0.16130892
0.18931081
0.22115079
0.25622805
0.29298869
0.32842057
0.35746643
0.37248906
0.36328796
0.31989072
0.23849661
0.13720253
0.079803213
0.049184821
0.020042208
0.021306185
0.022845655
0.024715825
0.026980152
0.029712238
0.032998529
0.036933774
0.041650095
0.047315227
0.054099291
0.06222456
0.071958147
0.083613416
0.097561932
0.1142066
0.13398403
0.15729807
0.18446982
0.21549981
0.24988603
0.28622137
0.32168694
0.35145003
0.36809242
0.36156392
0.32140116
0.24318557
0.14237208
0.082725279
0.050203961
0.02120072
0.022413413
0.023888381
0.025679488
0.027849342
0.030470379
0.03362701
0.037411957
0.041950948
0.047401858
0.053929283
0.061745603
0.071106041
0.08231039
0.095739149
0.11177201
0.13084573
0.1533887
0.17970013
0.20988625
0.24353038
0.27936923
0.31478144
0.34517092
0.36336051
0.35947324
0.32264399
0.24778933
0.14791847
0.08598499
0.051464052
0.022308483
0.023478751
0.024897098
0.026615795
0.028696516
0.031210767
0.034241508
0.037879745
0.042246848
0.047490767
0.053770834
0.061289946
0.070293164
0.081073781
0.093984941
0.10941456
0.12779103
0.1495428
0.17500603
0.20432596
0.23718296
0.2724573
0.30772807
0.33864675