/*--------------------------------*- C++ -*----------------------------------*\
| =========                 |                                                 |
| \\      /  F ield         | OpenFOAM: The Open Source CFD Toolbox           |
|  \\    /   O peration     | Version:  2406                                  |
|   \\  /    A nd           | Website:  www.openfoam.com                      |
|    \\/     M anipulation  |                                                 |
\*---------------------------------------------------------------------------*/
FoamFile
{
    version     2.0;
    format      ascii;
    arch        "LSB;label=32;scalar=64";
    class       volScalarField;
    location    "0.03";
    object      T;
}
// * * * * * * * * * * * * * * * * * * * * * * * * * * * * * * * * * * * * * //

dimensions      [0 0 0 1 0 0 0];

internalField   nonuniform List<scalar> 
8260
(
292.22315
292.22885
292.24078
292.26373
292.29594
292.33525
292.37916
292.42576
292.47333
292.51985
292.56357
292.60345
292.63884
292.66922
292.6947
292.71553
292.73209
292.74496
292.75475
292.76205
292.76746
292.77201
292.77701
292.78316
292.79261
292.80819
292.83959
292.91025
292.99375
293.13219
293.38636
292.32046
292.319
292.32487
292.33954
292.3617
292.39044
292.42444
292.46214
292.50189
292.54188
292.58039
292.61617
292.64842
292.67644
292.70017
292.71971
292.73531
292.74747
292.75673
292.76361
292.76873
292.77304
292.77786
292.7839
292.79331
292.809
292.84075
292.91173
292.99423
293.13181
293.38647
292.42075
292.41424
292.41347
292.41968
292.43217
292.45068
292.47465
292.503
292.53436
292.56718
292.59978
292.63092
292.65954
292.68483
292.70652
292.72457
292.73906
292.75041
292.75905
292.76547
292.77024
292.77429
292.77887
292.78477
292.79409
292.80988
292.84204
292.91338
292.99472
293.13121
293.38576
292.51984
292.50897
292.50215
292.50076
292.50461
292.51383
292.5283
292.54746
292.57032
292.59562
292.62191
292.6479
292.67244
292.69462
292.71397
292.73028
292.74348
292.75387
292.76178
292.76764
292.77201
292.77573
292.78005
292.78578
292.795
292.81089
292.84353
292.91524
292.99524
293.13041
293.38583
292.615
292.60071
292.58902
292.58127
292.57771
292.5787
292.5845
292.59494
292.60946
292.62716
292.64684
292.66728
292.68735
292.70602
292.7227
292.73697
292.74867
292.75793
292.76499
292.77019
292.77408
292.77742
292.78142
292.78695
292.79608
292.81207
292.84528
292.91734
292.99581
293.12943
293.38663
292.7047
292.68802
292.67274
292.66004
292.6504
292.64438
292.64248
292.64492
292.6515
292.66168
292.6746
292.6892
292.70441
292.71922
292.73287
292.74481
292.75476
292.7627
292.76875
292.77319
292.7765
292.77939
292.78303
292.78831
292.79737
292.81345
292.84733
292.91974
292.99645
293.12831
293.38801
292.78716
292.76919
292.75162
292.73542
292.72117
292.70953
292.70117
292.69656
292.69585
292.69887
292.70509
292.7137
292.72378
292.73437
292.74465
292.75396
292.7619
292.7683
292.77317
292.77672
292.77935
292.78171
292.78491
292.7899
292.79888
292.81506
292.84977
292.92245
292.99717
293.12712
293.38985
292.86096
292.84266
292.82396
292.80564
292.78828
292.77254
292.75914
292.74871
292.74167
292.73816
292.73799
292.74068
292.7455
292.75161
292.75821
292.76459
292.77024
292.77486
292.77837
292.78087
292.7827
292.78443
292.78712
292.79177
292.80062
292.81695
292.85266
292.92553
292.99799
293.12595
293.392
292.92517
292.90705
292.88823
292.8691
292.85009
292.83178
292.81486
292.80003
292.78786
292.77875
292.77281
292.76986
292.76947
292.77098
292.77367
292.77685
292.77994
292.78254
292.78448
292.78576
292.78664
292.78764
292.78973
292.79397
292.80265
292.81918
292.85614
292.92901
292.99894
293.12491
293.39432
292.9792
292.96191
292.9438
292.92491
292.90546
292.88594
292.86697
292.84918
292.83323
292.81965
292.8088
292.80079
292.79547
292.79242
292.79109
292.79086
292.79114
292.79149
292.79164
292.7915
292.79128
292.79141
292.7928
292.79655
292.80504
292.82184
292.86033
292.93293
293.00005
293.12405
293.39673
293.02395
293.00789
292.99075
292.97268
292.95372
292.93411
292.91433
292.89495
292.87657
292.85979
292.8451
292.83283
292.8231
292.81575
292.81044
292.80669
292.80398
292.80185
292.79998
292.79824
292.79674
292.79585
292.79643
292.79961
292.80786
292.82504
292.86542
292.93732
293.00136
293.12336
293.39912
293.05933
293.04503
293.0294
293.01256
292.99467
292.97581
292.95624
292.93642
292.91686
292.89812
292.88075
292.86521
292.8518
292.84062
292.83156
292.82433
292.81852
292.81375
292.80967
292.80612
292.80315
292.80109
292.80072
292.80323
292.81121
292.82893
292.87161
292.94219
293.0029
293.12279
293.40144
293.08652
293.07393
293.06008
293.0449
293.02845
293.01089
292.99231
292.97298
292.95331
292.93376
292.91486
292.89709
292.8809
292.86655
292.85416
292.84365
292.83478
292.82726
292.82082
292.81527
292.81065
292.80725
292.80579
292.80753
292.81521
292.83374
292.87913
292.94751
293.00472
293.12216
293.40375
293.10679
293.09585
293.08374
293.07037
293.05566
293.03967
293.02257
293.00442
292.98547
292.96607
292.94666
292.92771
292.90968
292.89296
292.87784
292.86441
292.85265
292.84242
292.83352
292.82583
292.81939
292.81447
292.81178
292.81264
292.82001
292.83976
292.88818
292.95324
293.00684
293.12119
293.40625
293.12166
293.11222
293.1017
293.09003
293.07713
293.06298
293.0476
293.03103
293.01334
292.99477
292.97566
292.95641
292.93746
292.91922
292.90207
292.88626
292.87195
292.85914
292.8478
292.83789
292.82949
292.8229
292.81884
292.81873
292.82586
292.84744
292.89889
292.95929
293.00924
293.12023
293.40922
293.13284
293.12472
293.11565
293.10551
293.09421
293.08165
293.06783
293.05289
293.03682
293.01962
293.00147
292.98268
292.96363
292.9447
292.92629
292.90874
292.89234
292.87726
292.86361
292.85149
292.84106
292.83268
292.82714
292.826
292.83302
292.8574
292.91122
292.9655
293.01188
293.11931
293.41315
293.14097
293.13399
293.12617
293.11741
293.1076
293.09666
293.08446
293.07096
293.05632
293.04068
293.02398
293.00626
292.98777
292.96887
292.94992
292.93131
292.91339
292.89647
292.88079
292.86658
292.85413
292.84392
292.83683
292.83469
292.8421
292.87041
292.92482
292.97175
293.01467
293.11789
293.41869
293.14645
293.14046
293.13374
293.12619
293.11771
293.10821
293.09763
293.08587
293.07282
293.05852
293.04319
293.02685
293.00946
292.9912
292.97238
292.95337
292.93457
292.91633
292.89903
292.883
292.86868
292.85669
292.8481
292.84517
292.8539
292.88729
292.93896
292.9779
293.01754
293.11576
293.39986
293.14933
293.14428
293.13858
293.13217
293.12494
293.11679
293.10765
293.09742
293.08601
293.07328
293.05917
293.04397
293.02792
293.01092
292.99292
292.97421
292.95519
292.93627
292.91787
292.90044
292.88454
292.871
292.86114
292.85801
292.86978
292.90791
292.95231
292.98396
293.02056
293.11338
293.40329
293.14834
293.14416
293.13943
293.13408
293.12803
293.12118
293.11345
293.10475
293.095
293.08412
293.07199
293.05843
293.04343
293.02743
293.01067
292.99297
292.97445
292.95553
292.93668
292.9184
292.9014
292.88674
292.87624
292.87438
292.89199
292.92972
292.96371
292.98984
293.02379
293.11032
293.37808
293.14247
293.13914
293.13537
293.13108
293.12619
293.12062
293.11429
293.1071
293.09897
293.08978
293.07945
293.06791
293.05506
293.04071
293.0251
293.00863
292.99124
292.97309
292.95454
292.93611
292.91873
292.90385
292.89445
292.89715
292.92018
292.94869
292.97276
292.99528
293.02677
293.10742
293.38544
293.12975
293.12732
293.12454
293.12135
293.11768
293.11347
293.10862
293.10305
293.09666
293.08933
293.08095
293.07141
293.06057
293.04831
293.03443
293.0192
293.00328
292.98672
292.96952
292.95223
292.93614
292.92345
292.91882
292.92791
292.94545
292.96194
292.97976
292.99984
293.02835
293.10262
293.39993
293.10689
293.1054
293.10368
293.10166
293.09929
293.09651
293.09325
293.08943
293.08495
293.07971
293.0736
293.06651
293.05831
293.0489
293.03807
293.0253
293.01038
292.99465
292.97973
292.96625
292.95482
292.94814
292.94883
292.95469
292.96114
292.97105
292.98555
293.00332
293.02834
293.09362
293.35875
293.06888
293.06842
293.06783
293.06708
293.06613
293.06492
293.06341
293.06151
293.05916
293.05627
293.05276
293.04854
293.04354
293.03777
293.03131
293.02437
293.01679
293.0071
292.99477
292.9832
292.97508
292.97076
292.96883
292.96759
292.97013
292.97827
292.99074
293.00623
293.0274
293.08156
293.30586
293.02464
293.02479
293.02492
293.025
293.02502
293.02494
293.02474
293.02436
293.02378
293.02291
293.0217
293.02008
293.018
293.01537
293.01219
293.00853
293.00472
293.00153
292.99926
292.99504
292.98759
292.98122
292.97685
292.97498
292.97735
292.98436
292.99529
293.00894
293.02588
293.06817
293.24066
292.99625
292.99646
292.99669
292.99695
292.99723
292.99752
292.99781
292.99809
292.99832
292.99846
292.99847
292.99827
292.99784
292.99708
292.99591
292.9942
292.99194
292.98943
292.98708
292.98558
292.98581
292.98541
292.98309
292.98232
292.98489
292.99031
292.99913
293.01073
293.02333
293.05637
293.25816
292.97503
292.97546
292.97593
292.97646
292.97704
292.97767
292.97837
292.97914
292.97996
292.98085
292.98179
292.98275
292.98368
292.98452
292.98522
292.98574
292.98648
292.98731
292.98823
292.98986
292.99123
292.99039
292.99046
292.9935
292.9968
292.99991
293.00492
293.0128
293.02121
293.04346
293.19832
292.96991
292.9705
292.97117
292.97194
292.9728
292.97376
292.97483
292.97601
292.97729
292.9787
292.98023
292.9819
292.98373
292.98578
292.98811
292.99086
292.99372
292.9963
292.99849
293.00007
293.00023
293.00244
293.00657
293.01008
293.01275
293.01368
293.01589
293.01956
293.023
293.04311
293.20041
293.00169
293.00169
293.0017
293.00172
293.00175
293.00179
293.00183
293.00188
293.00195
293.00205
293.00218
293.00236
293.0026
293.00293
293.00332
293.00373
293.00412
293.00478
293.0064
293.00905
293.01263
293.01676
293.02044
293.02405
293.02644
293.02722
293.03008
293.03133
293.02882
293.03547
293.22332
293.00432
293.00382
293.00325
293.00263
293.00194
293.0012
293.00044
292.99966
292.99891
292.99821
292.9976
292.99712
292.99682
292.99671
292.99682
292.99719
292.99806
292.99987
293.00292
293.00713
293.01219
293.0172
293.02214
293.02647
293.03039
293.03274
293.0378
293.03931
293.03996
293.04081
293.1591
292.98312
292.98266
292.98219
292.98173
292.98127
292.98084
292.98041
292.97999
292.97956
292.97911
292.97864
292.97819
292.97781
292.9776
292.97767
292.97815
292.97919
292.98099
292.98376
292.98775
292.99313
292.99832
293.00724
293.01443
293.03129
293.04263
293.04386
293.04737
293.05056
293.04296
293.04244
293.55074
293.43722
293.32666
293.22045
293.12004
293.02742
292.94547
292.87596
292.8197
292.77702
292.7471
292.72838
292.71879
292.71618
292.71848
292.72347
292.72958
292.73605
292.74217
292.74766
292.75259
292.75751
292.76332
292.77012
292.77987
292.79437
292.81931
292.87393
292.97474
293.13247
293.46348
293.43531
293.31815
293.21277
293.1151
293.02515
292.94454
292.87534
292.81832
292.77381
292.74172
292.7208
292.70938
292.70549
292.70722
292.71256
292.71957
292.72709
292.73454
292.74129
292.74717
292.75238
292.75752
292.76351
292.77043
292.78031
292.79501
292.82032
292.87584
292.97668
293.1329
293.45659
293.32644
293.21624
293.11746
293.0265
292.94466
292.87377
292.81493
292.76843
292.73411
292.71117
292.69796
292.69283
292.69395
292.6994
292.70726
292.71605
292.72486
292.73322
292.74052
292.74678
292.75227
292.75761
292.76375
292.77077
292.78076
292.79562
292.82131
292.87774
292.97858
293.13326
293.44953
293.19996
293.10094
293.01216
292.93191
292.86187
292.80326
292.75647
292.7214
292.69739
292.6833
292.67736
292.67817
292.68382
292.69245
292.70258
292.71299
292.723
292.73215
292.73991
292.74652
292.75224
292.75776
292.76403
292.77115
292.78123
292.79624
292.8223
292.87962
292.98039
293.13354
293.44246
293.06299
292.97692
292.90113
292.83488
292.77917
292.73434
292.70035
292.67695
292.66311
292.65762
292.65873
292.66508
292.6747
292.68624
292.69845
292.71038
292.72149
292.73128
292.73946
292.74637
292.75231
292.75797
292.76435
292.77155
292.78172
292.79687
292.82329
292.88149
292.98214
293.13376
293.43555
292.90943
292.84246
292.78545
292.73692
292.69766
292.66761
292.6469
292.63533
292.63141
292.63426
292.64198
292.65322
292.66653
292.68074
292.69485
292.70823
292.72028
292.73058
292.73916
292.74634
292.75245
292.75825
292.76472
292.77198
292.78223
292.7975
292.82428
292.88335
292.98379
293.13396
293.42897
292.74995
292.70644
292.6705
292.64075
292.6188
292.60401
292.59657
292.59684
292.60256
292.61303
292.62677
292.64257
292.65926
292.6759
292.69182
292.70651
292.71929
292.73007
292.739
292.74641
292.75268
292.75858
292.76512
292.77244
292.78275
292.79814
292.82527
292.88519
292.98535
293.13421
293.42291
292.5929
292.5731
292.55755
292.54727
292.5431
292.54423
292.55018
292.56131
292.57614
292.59376
292.61308
292.63307
292.65282
292.67174
292.6894
292.70512
292.71851
292.72974
292.73898
292.7466
292.75299
292.75897
292.76556
292.77291
292.78328
292.79878
292.82626
292.88701
292.9868
293.13452
293.41763
292.43722
292.44228
292.4492
292.459
292.47219
292.48845
292.50733
292.52884
292.55213
292.5764
292.60083
292.62458
292.64718
292.66835
292.68746
292.70397
292.71796
292.7296
292.73911
292.74689
292.75338
292.75941
292.76604
292.77342
292.78383
292.79942
292.82724
292.8888
292.98815
293.13491
293.41539
292.28971
292.31914
292.34797
292.37704
292.40681
292.43726
292.46817
292.49942
292.5305
292.56083
292.58987
292.61711
292.64247
292.66564
292.68585
292.7031
292.71764
292.72963
292.73936
292.74727
292.75384
292.75991
292.76655
292.77394
292.78438
292.80006
292.8282
292.89056
292.98937
293.13537
293.41284
292.15427
292.20644
292.2556
292.30249
292.34759
292.39106
292.43289
292.473
292.51111
292.54691
292.58021
292.61082
292.63873
292.66339
292.68453
292.7025
292.71752
292.72982
292.73975
292.74776
292.75437
292.76046
292.76709
292.77449
292.78495
292.80069
292.82915
292.89227
292.99047
293.13587
293.41
292.0368
292.1077
292.17413
292.23649
292.29509
292.35011
292.40158
292.44949
292.49388
292.53476
292.57211
292.60579
292.63565
292.66146
292.68354
292.70217
292.7176
292.73016
292.74025
292.74834
292.75498
292.76106
292.76767
292.77505
292.78551
292.80131
292.83008
292.89395
292.99144
293.13637
293.40662
291.94105
292.02593
292.10563
292.18033
292.25005
292.31479
292.37455
292.42934
292.4793
292.52472
292.56552
292.60163
292.63304
292.65994
292.68287
292.70207
292.71787
292.73065
292.74086
292.74901
292.75565
292.7617
292.76828
292.77563
292.78608
292.80193
292.83098
292.89557
292.99228
293.13682
293.4035
291.86522
291.96212
292.05191
292.13564
292.21364
292.28589
292.35233
292.41293
292.46758
292.51659
292.56011
292.59809
292.6308
292.65882
292.68251
292.7022
292.71831
292.73127
292.74158
292.74976
292.75638
292.76239
292.76891
292.77622
292.78665
292.80253
292.83186
292.89713
292.99299
293.13718
293.40206
291.78967
291.90206
292.00434
292.09788
292.18368
292.26236
292.3342
292.39935
292.45792
292.50978
292.55526
292.59494
292.62906
292.65807
292.68241
292.70254
292.71891
292.73202
292.7424
292.75059
292.75717
292.76312
292.76957
292.77683
292.78723
292.80312
292.83272
292.89864
292.99356
293.13743
293.4008
291.7276
291.84651
291.95794
292.06079
292.15482
292.24028
292.31755
292.38699
292.44891
292.50349
292.55117
292.59246
292.6278
292.65766
292.68258
292.70307
292.71966
292.73289
292.74332
292.7515
292.75802
292.76388
292.77026
292.77745
292.78779
292.8037
292.83354
292.90008
292.99402
293.13757
293.40047
291.71472
291.82751
291.93624
292.03942
292.13573
292.22433
292.30488
292.37731
292.44179
292.49857
292.54804
292.59068
292.62701
292.65758
292.68299
292.70379
292.72056
292.73387
292.74432
292.75247
292.75891
292.76468
292.77096
292.77807
292.78836
292.80426
292.83433
292.90146
292.99435
293.13759
293.39979
291.71683
291.8255
291.93066
292.03139
292.12666
292.21548
292.29707
292.37095
292.43695
292.49517
292.5459
292.58956
292.62668
292.65783
292.68364
292.70469
292.72159
292.73496
292.7454
292.75351
292.75986
292.76551
292.77168
292.7787
292.78892
292.80481
292.83509
292.90277
292.99458
293.13748
293.3983
291.73609
291.83799
291.93769
292.03411
292.12627
292.21321
292.294
292.36789
292.43437
292.49328
292.54475
292.58911
292.6268
292.65838
292.6845
292.70574
292.72274
292.73613
292.74656
292.75461
292.76085
292.76638
292.77241
292.77934
292.78948
292.80533
292.83582
292.90401
292.9947
293.13725
293.39618
291.77299
291.86493
291.95664
292.04665
292.13382
292.21711
292.2955
292.36807
292.43404
292.4929
292.54459
292.5893
292.62735
292.65922
292.68556
292.70694
292.72399
292.73739
292.74778
292.75575
292.76187
292.76726
292.77316
292.77998
292.79003
292.80584
292.83652
292.9052
292.99472
293.1369
293.39405
291.82675
291.90595
291.98717
292.0686
292.14892
292.22691
292.30142
292.3714
292.4359
292.49399
292.54539
292.5901
292.62829
292.66032
292.68679
292.70827
292.72534
292.73872
292.74905
292.75693
292.76293
292.76817
292.77391
292.78062
292.79056
292.80633
292.83719
292.90632
292.99466
293.1364
293.3919
291.89537
291.95956
292.02818
292.099
292.17077
292.24204
292.31138
292.37762
292.43977
292.49647
292.54709
292.59149
292.62961
292.66166
292.68819
292.7097
292.72678
292.74011
292.75037
292.75814
292.76402
292.7691
292.77467
292.78125
292.79108
292.8068
292.83782
292.90738
292.99452
293.13572
293.38947
291.97752
292.02379
292.07705
292.13527
292.19717
292.26085
292.3243
292.38604
292.44522
292.50007
292.54957
292.59336
292.63124
292.6632
292.6897
292.71122
292.72827
292.74155
292.75172
292.75938
292.76512
292.77004
292.77543
292.78188
292.79158
292.80726
292.83842
292.90839
292.99429
293.13484
293.38667
292.08084
292.10649
292.13937
292.18139
292.23059
292.28477
292.34096
292.39724
292.45257
292.50493
292.55285
292.59571
292.63313
292.66489
292.6913
292.71278
292.72979
292.74301
292.75309
292.76063
292.76625
292.771
292.7762
292.7825
292.79207
292.80769
292.83896
292.90932
292.99399
293.13361
293.38629
293.55851
293.44329
293.33924
293.23954
293.14401
293.05493
292.97389
292.90329
292.84486
292.79902
292.76553
292.74319
292.73025
292.72472
292.7246
292.72777
292.73253
292.73798
292.74336
292.74835
292.75293
292.75762
292.76326
292.76995
292.77963
292.79402
292.81874
292.87261
292.97322
293.1318
293.4666
293.53433
293.42313
293.32485
293.23307
293.14611
293.06376
292.98744
292.91945
292.8617
292.81513
292.77999
292.75551
292.74028
292.73255
292.73047
292.73203
292.73554
292.74002
292.7447
292.74918
292.75341
292.75787
292.76334
292.76994
292.77958
292.79389
292.81849
292.87187
292.97243
293.13198
293.47085
293.51808
293.41309
293.31952
293.2339
293.1525
293.07482
293.00194
292.93588
292.87861
292.83135
292.79468
292.7682
292.75074
292.74083
292.73676
292.73666
292.73885
292.7423
292.7462
292.75013
292.75397
292.75818
292.76346
292.76996
292.77953
292.79376
292.81825
292.8711
292.97158
293.13218
293.47474
293.50326
293.40422
293.3158
293.23448
293.15756
293.08415
293.01475
292.95098
292.89469
292.84725
292.80944
292.78124
292.76171
292.74967
292.74359
292.74174
292.74252
292.74486
292.74792
292.75123
292.75464
292.75856
292.76363
292.77001
292.7795
292.79365
292.81801
292.87032
292.97068
293.13238
293.47779
293.4871
293.39417
293.31023
293.23324
293.16082
293.09172
293.02602
292.96491
292.91006
292.86288
292.82431
292.79463
292.7732
292.75908
292.75098
292.74732
292.7466
292.74774
292.74987
292.75249
292.75543
292.75903
292.76386
292.77009
292.77948
292.79355
292.81777
292.86951
292.96972
293.13258
293.47899
293.47042
293.38338
293.30394
293.23127
293.16313
293.09819
293.03618
292.97794
292.92485
292.87828
292.83928
292.80835
292.78518
292.76905
292.75891
292.75339
292.75109
292.75095
292.75208
292.75395
292.75636
292.75959
292.76415
292.77022
292.77949
292.79347
292.81755
292.86868
292.9687
293.13278
293.47998
293.45362
293.373
293.29848
293.2296
293.16523
293.10409
293.04562
292.99027
292.93914
292.89346
292.8543
292.82236
292.79761
292.77957
292.76741
292.75998
292.75603
292.75452
292.75456
292.75563
292.75745
292.76026
292.76452
292.77041
292.77954
292.79342
292.81734
292.86783
292.9676
293.13297
293.48091
293.43813
293.36337
293.29334
293.22829
293.16747
293.10981
293.05465
293.00213
292.95305
292.90845
292.86939
292.83665
292.8105
292.79064
292.77649
292.76712
292.76145
292.75848
292.75736
292.75754
292.7587
292.76105
292.76497
292.77065
292.77962
292.79339
292.81714
292.86698
292.96643
293.13314
293.48173
293.4241
293.35475
293.28905
293.22768
293.17019
293.11573
293.06361
293.01378
292.96674
292.92335
292.88457
292.85123
292.82382
292.80226
292.78616
292.77484
292.76738
292.76287
292.7605
292.7597
292.76014
292.76197
292.76551
292.77096
292.77975
292.7934
292.81697
292.86611
292.96519
293.1333
293.48235
293.41197
293.3477
293.28622
293.22834
293.17391
293.12231
293.07292
293.02554
292.98045
292.93828
292.8999
292.86613
292.83759
292.81443
292.79644
292.78315
292.77385
292.76772
292.764
292.76215
292.76179
292.76304
292.76616
292.77135
292.77993
292.79344
292.81682
292.86525
292.96388
293.13345
293.48267
293.40233
293.34269
293.28521
293.23066
293.17906
293.13002
293.08302
293.03779
292.99444
292.95343
292.91548
292.88138
292.85182
292.82715
292.80732
292.79207
292.78087
292.77305
292.7679
292.7649
292.76368
292.76428
292.76692
292.77182
292.78018
292.79353
292.8167
292.86439
292.96249
293.1336
293.48261
293.39625
293.34121
293.28721
293.23551
293.18633
293.13943
293.09439
293.05092
293.00903
292.96901
292.93145
292.89706
292.86655
292.84044
292.81882
292.80161
292.78849
292.77889
292.77223
292.76799
292.76582
292.7657
292.76781
292.7724
292.78051
292.79368
292.81663
292.86354
292.96103
293.13377
293.482
293.39541
293.34385
293.29287
293.24359
293.19636
293.1511
293.10753
293.06537
293.02455
292.98526
292.94794
292.91323
292.88181
292.85429
292.83094
292.81179
292.79671
292.78528
292.77701
292.77145
292.76824
292.76733
292.76886
292.77308
292.78092
292.7939
292.8166
292.86273
292.95951
293.13398
293.48073
293.39918
293.35071
293.3024
293.2552
293.20953
293.16546
293.12285
293.0815
293.04132
293.00242
292.96514
292.93
292.89766
292.86874
292.84368
292.82262
292.80555
292.79223
292.78229
292.77531
292.77097
292.7692
292.77009
292.77388
292.78144
292.7942
292.81663
292.86194
292.95793
293.13427
293.47859
293.40942
293.36333
293.31692
293.27112
293.22639
293.18293
293.14072
293.09963
293.05961
293.02071
292.98318
292.94746
292.91413
292.88382
292.85705
292.83408
292.81501
292.79977
292.78807
292.77959
292.77404
292.77134
292.77151
292.77482
292.78208
292.7946
292.81673
292.86121
292.95632
293.13466
293.4755
293.42606
293.38178
293.3366
293.29154
293.24714
293.2037
293.16131
293.11994
293.07958
293.04026
293.00217
292.96567
292.93126
292.89953
292.87103
292.84617
292.82511
292.8079
292.79438
292.78433
292.77748
292.77377
292.77316
292.77593
292.78285
292.7951
292.81692
292.86055
292.95468
293.13518
293.47161
293.44782
293.40481
293.36049
293.31578
293.2713
293.22746
293.18446
293.14237
293.10123
293.06111
293.02217
292.98467
292.94905
292.91585
292.88563
292.85888
292.83582
292.81662
292.80124
292.78954
292.78131
292.7765
292.77504
292.77724
292.78376
292.79573
292.81721
292.85997
292.95303
293.13586
293.46789
293.47306
293.43106
293.38733
293.34278
293.29802
293.25354
293.20967
293.16657
293.12435
293.08315
293.04309
293.00441
292.96747
292.93276
292.90082
292.87216
292.84713
292.82593
292.80865
292.79523
292.78556
292.77957
292.7772
292.77875
292.78484
292.79651
292.81761
292.85949
292.95138
293.13669
293.46742
293.49907
293.45817
293.41518
293.3709
293.32596
293.2809
293.23614
293.19196
293.14855
293.10611
293.06478
293.02478
292.98644
292.95019
292.91653
292.88598
292.85899
292.8358
292.8166
292.80143
292.79023
292.78299
292.77966
292.78049
292.78608
292.79743
292.81815
292.85915
292.94975
293.13762
293.45573
293.52419
293.48461
293.44256
293.39878
293.35389
293.30846
293.26298
293.21782
293.17327
293.12957
293.08694
293.04559
293.00582
292.96802
292.93267
292.90028
292.87135
292.84621
292.82508
292.80812
292.79536
292.78681
292.78246
292.78249
292.78753
292.79851
292.81885
292.85895
292.94814
293.13854
293.44237
293.54658
293.50869
293.46797
293.42507
293.3806
293.33515
293.28926
293.24338
293.19787
293.15306
293.1092
293.06654
293.02538
292.98609
292.94911
292.91496
292.88415
292.85708
292.83406
292.81531
292.80093
292.79102
292.78559
292.78479
292.78922
292.79977
292.81972
292.85894
292.94654
293.13908
293.43221
293.56514
293.52939
293.49044
293.44886
293.40523
293.36015
293.31422
293.26795
293.22177
293.17606
293.13116
293.08733
293.0449
293.00421
292.96571
292.92989
292.89728
292.86836
292.84349
292.82296
292.80696
292.79564
292.78907
292.78741
292.79118
292.80124
292.82079
292.85913
292.94494
293.13874
293.41383
293.57827
293.54522
293.50864
293.46898
293.42677
293.38261
293.33712
293.29088
293.24438
293.19809
293.15239
293.10761
293.06407
293.02215
292.98227
292.94492
292.91064
292.87996
292.8533
292.83103
292.81341
292.80066
292.79292
292.79038
292.79345
292.80299
292.82211
292.85957
292.94332
293.13723
293.39355
293.58565
293.55567
293.52194
293.48476
293.44456
293.40189
293.35738
293.31164
293.26524
293.21871
293.17252
293.12703
293.08262
293.03966
292.99858
292.95987
292.92407
292.89175
292.86342
292.83946
292.82026
292.80609
292.79714
292.79369
292.79607
292.80506
292.82371
292.86028
292.94166
293.13429
293.37238
293.58784
293.56117
293.53061
293.4963
293.45855
293.41784
293.37476
293.32994
293.28403
293.23761
293.19122
293.1453
293.10025
293.05648
293.01442
292.97455
292.93743
292.90363
292.87372
292.84819
292.82746
292.81188
292.80174
292.79735
292.79902
292.80748
292.82566
292.86133
292.93995
293.12995
293.35226
293.58357
293.56041
293.53338
293.50243
293.46771
293.42958
293.38854
293.34522
293.30029
293.25441
293.20818
293.16213
293.11672
293.07238
293.02957
292.98876
292.95052
292.91543
292.88411
292.85712
292.83495
292.81802
292.8067
292.80133
292.80231
292.81032
292.82802
292.86277
292.93821
293.12442
293.34144
293.57382
293.55409
293.53063
293.50324
293.47191
293.43683
293.39838
293.35711
293.31368
293.26879
293.22312
293.17728
293.1318
293.08715
293.04382
293.00231
292.96317
292.927
292.89445
292.86614
292.84264
292.82445
292.812
292.80568
292.80597
292.81357
292.83083
292.86468
292.93652
293.11824
293.34167
293.55917
293.54269
293.52273
293.49896
293.47122
293.43953
293.4041
293.36538
293.32396
293.28053
293.23584
293.19055
293.14529
293.1006
293.05701
293.01502
292.97521
292.93818
292.9046
292.87514
292.85045
292.83111
292.81761
292.81042
292.8101
292.81724
292.83407
292.86712
292.93502
293.11218
293.34161
293.54034
293.52683
293.51016
293.48992
293.4658
293.43768
293.4056
293.36984
293.3309
293.28941
293.24612
293.20177
293.15705
293.11259
293.06898
293.02675
292.98649
292.94882
292.91443
292.88401
292.85829
292.83793
292.8235
292.81556
292.81473
292.82142
292.83783
292.87022
292.93397
293.10615
293.33732
293.51845
293.50758
293.49386
293.47689
293.45626
293.4317
293.40311
293.37059
293.33449
293.29535
293.25388
293.21084
293.16698
293.12303
293.07963
293.03738
292.99689
292.9588
292.9238
292.89264
292.86607
292.84484
292.82963
292.82106
292.81983
292.82619
292.84223
292.87408
292.93363
293.10042
293.32696
293.49436
293.48576
293.47466
293.46061
293.44321
293.42207
293.39696
293.36781
293.3348
293.29835
293.25907
293.21769
293.17503
293.13185
293.0889
293.04684
293.00633
292.96802
292.93262
292.90091
292.87369
292.85177
292.83594
292.8269
292.82542
292.83164
292.8474
292.87881
292.9343
293.09585
293.35362
293.46915
293.46237
293.45348
293.44199
293.42745
293.40946
293.38767
293.36187
293.33207
293.29853
293.26173
293.22236
293.18119
293.13907
293.0968
293.05512
293.01476
292.97641
292.9408
292.90874
292.88106
292.85866
292.84239
292.83304
292.83145
292.83769
292.85344
292.88468
292.93636
293.0924
293.34145
293.44356
293.43824
293.43113
293.4218
293.40977
293.39458
293.37585
293.35325
293.32665
293.29613
293.26203
293.22491
293.18553
293.14472
293.10334
293.06224
293.02219
292.98395
292.9483
292.91607
292.88813
292.86543
292.84891
292.83946
292.83789
292.8444
292.86041
292.89169
292.94015
293.09019
293.31776
293.4178
293.41366
293.40802
293.40048
293.3906
293.37791
293.36195
293.34235
293.31885
293.29137
293.2601
293.22545
293.1881
293.14885
293.10859
293.06824
293.02865
292.99067
292.95511
292.92286
292.89484
292.87203
292.85547
292.8461
292.84473
292.85184
292.86833
292.89971
292.94593
293.08805
293.2955
293.39194
293.38877
293.38434
293.3783
293.37025
293.35974
293.34627
293.32942
293.30886
293.28438
293.25601
293.22401
293.18892
293.15148
293.11257
293.07316
293.0342
292.99659
292.96126
292.92912
292.90117
292.87846
292.86206
292.85298
292.85202
292.85992
292.8773
292.90827
292.95418
293.08528
293.31089
293.3655
293.36313
293.35973
293.35498
293.34852
293.33993
293.32875
293.31451
293.29679
293.27528
293.24985
293.22062
293.18799
293.1526
293.11529
293.07703
293.03886
293.00177
292.96677
292.93488
292.90716
292.88471
292.86869
292.86014
292.85987
292.86863
292.88668
292.91767
292.96468
293.08258
293.30384
293.3386
293.33689
293.33434
293.33069
293.32561
293.3187
293.30953
293.29762
293.28251
293.26386
293.24138
293.21506
293.18511
293.15203
293.1166
293.07977
293.0426
293.00621
292.97169
292.94018
292.91282
292.89082
292.87538
292.8676
292.86827
292.87795
292.89679
292.9277
292.97475
293.08037
293.2694
293.31135
293.31015
293.30829
293.30553
293.30158
293.2961
293.28869
293.27888
293.26621
293.25023
293.23064
293.20724
293.18011
293.1496
293.11634
293.08124
293.04536
293.00989
292.97604
292.94506
292.91823
292.89685
292.88219
292.87538
292.87715
292.88785
292.90754
292.9387
292.98437
293.07652
293.25423
293.28451
293.28367
293.2823
293.28022
293.27716
293.27283
293.26687
293.25885
293.24831
293.23479
293.21788
293.19732
293.17305
293.14525
293.11441
293.08132
293.04704
293.01276
292.97982
292.94959
292.92346
292.90286
292.88916
292.88348
292.88645
292.8982
292.91867
292.94974
292.99356
293.0724
293.21324
293.25883
293.25821
293.25717
293.25556
293.25316
293.24971
293.24489
293.23832
293.22956
293.21816
293.20363
293.18565
293.16414
293.13909
293.11082
293.08
293.04759
293.01482
292.98306
292.95381
292.92859
292.90897
292.89637
292.89192
292.89612
292.9089
292.93006
292.96111