/*--------------------------------*- C++ -*----------------------------------*\
| =========                 |                                                 |
| \\      /  F ield         | OpenFOAM: The Open Source CFD Toolbox           |
|  \\    /   O peration     | Version:  2406                                  |
|   \\  /    A nd           | Website:  www.openfoam.com                      |
|    \\/     M anipulation  |                                                 |
\*---------------------------------------------------------------------------*/
FoamFile
{
    version     2.0;
    format      ascii;
    arch        "LSB;label=32;scalar=64";
    class       volScalarField;
    location    "0.009";
    object      Ma;
}
// * * * * * * * * * * * * * * * * * * * * * * * * * * * * * * * * * * * * * //

dimensions      [0 0 0 0 0 0 0];

internalField   nonuniform List<scalar> 
86779
(
0.1464341
0.14716905
0.1478999
0.14859839
0.14925331
0.14985209
0.15040427
0.15092919
0.15143943
0.1519465
0.1524605
0.15298977
0.15354113
0.15412067
0.15472513
0.15535305
0.15599627
0.15663917
0.15727454
0.15789822
0.15850371
0.15910091
0.15969242
0.16027844
0.16085785
0.1614285
0.16198792
0.16253472
0.16306688
0.16358164
0.16407571
0.16454533
0.16498637
0.16539423
0.16576385
0.16608964
0.16636502
0.16658488
0.16674469
0.16682046
0.16681068
0.16671993
0.16652503
0.16621471
0.16577943
0.16521207
0.16451108
0.1636869
0.16277174
0.16182997
0.16095373
0.16022464
0.15966753
0.15925098
0.1589256
0.1586521
0.1584077
0.1581805
0.15796428
0.15775681
0.15755701
0.15736363
0.15717615
0.15699448
0.15681837
0.15664735
0.15648123
0.15631957
0.15616192
0.15600822
0.15585842
0.15571177
0.15556821
0.15542831
0.15529195
0.15515871
0.15502841
0.15490214
0.15477945
0.15465979
0.15454333
0.15443015
0.15432016
0.15421275
0.15410758
0.15400471
0.15390423
0.15380598
0.1537096
0.15361526
0.15352351
0.15343405
0.15334667
0.15326181
0.15317942
0.15309924
0.15302143
0.15294613
0.15287319
0.15280273
0.15273481
0.15266928
0.15260615
0.15254524
0.15248639
0.15242951
0.15237457
0.15232157
0.15227058
0.15222168
0.15217487
0.1521302
0.15208769
0.15204738
0.15200928
0.15197345
0.15193989
0.15190873
0.15187992
0.15185374
0.15182993
0.15180912
0.15179063
0.15177577
0.15176336
0.15175629
0.1517526
0.14430508
0.14513731
0.14597807
0.1467776
0.14753452
0.14824987
0.14892976
0.1495831
0.15021802
0.15084266
0.15146482
0.15209174
0.15272952
0.15338209
0.15404837
0.15472513
0.15540593
0.15608223
0.15674895
0.15740336
0.15804351
0.15867288
0.15929317
0.15990455
0.16050617
0.16109604
0.16167202
0.16223266
0.16277615
0.16329979
0.16380032
0.16427407
0.1647169
0.16512423
0.16549098
0.16581151
0.16607942
0.16628887
0.16643363
0.16649305
0.16646791
0.16635458
0.16613309
0.16579441
0.1653286
0.16473014
0.16400052
0.16315573
0.16223669
0.16131743
0.16049183
0.15982787
0.15933063
0.15895847
0.15866277
0.15840924
0.15817956
0.15796434
0.15775856
0.15756067
0.15736987
0.15718489
0.15700539
0.15683135
0.15666246
0.15649831
0.15633872
0.15618327
0.15603154
0.15588345
0.15573902
0.15559751
0.15545877
0.15532347
0.15519155
0.15506256
0.15493621
0.15481373
0.15469471
0.15457851
0.15446535
0.15435529
0.15424829
0.15414375
0.15404131
0.15394106
0.15384305
0.15374719
0.1536531
0.1535609
0.15347118
0.15338369
0.15329817
0.15321506
0.15313436
0.15305579
0.1529795
0.15290567
0.15283413
0.15276499
0.15269833
0.152634
0.152572
0.15251216
0.15245433
0.15239841
0.15234436
0.15229222
0.15224205
0.15219391
0.15214782
0.15210382
0.15206195
0.15202222
0.15198466
0.15194933
0.15191621
0.15188547
0.15185702
0.15183117
0.15180765
0.15178709
0.1517688
0.15175414
0.15174185
0.15173486
0.15173121
0.14181333
0.14274836
0.14374532
0.14469162
0.14558591
0.14643576
0.14724814
0.14802959
0.14878673
0.14952642
0.15025543
0.15098012
0.15170589
0.1524362
0.15317099
0.15390774
0.1546417
0.15536698
0.15607959
0.15677728
0.15745906
0.15812653
0.15878102
0.15942291
0.1600516
0.16066549
0.16126249
0.16184142
0.16240053
0.16293724
0.16344838
0.16393035
0.16437908
0.16478998
0.16515797
0.16547737
0.16574179
0.16594485
0.16607874
0.16612735
0.16609072
0.16595874
0.16571577
0.16535369
0.16486279
0.16423933
0.16348823
0.16263153
0.16171899
0.16083234
0.16006237
0.15946013
0.15901412
0.15867782
0.15840605
0.15816933
0.15795285
0.15774898
0.15755333
0.15736487
0.15718298
0.15700634
0.15683476
0.15666828
0.15650656
0.15634923
0.1561961
0.15604679
0.15590095
0.15575841
0.1556193
0.15548291
0.15534896
0.15521818
0.15509064
0.15496585
0.15484339
0.15472461
0.15460918
0.15449641
0.15438648
0.15427948
0.15417543
0.15407375
0.15397403
0.15387637
0.15378082
0.15368734
0.15359554
0.15350547
0.15341777
0.15333225
0.15324858
0.1531672
0.15308819
0.15301124
0.15293646
0.1528641
0.15279396
0.15272615
0.15266076
0.15259765
0.15253681
0.15247806
0.15242127
0.15236634
0.15231323
0.15226197
0.15221263
0.15216528
0.15211993
0.15207663
0.15203541
0.15199629
0.1519593
0.15192449
0.15189187
0.15186157
0.15183352
0.15180803
0.15178482
0.15176455
0.15174649
0.15173203
0.15171989
0.15171299
0.15170938
0.13943009
0.14047049
0.14160183
0.14268456
0.14371074
0.14468792
0.14562317
0.14652241
0.14739162
0.14823694
0.14906443
0.1498797
0.15068747
0.15149085
0.15229044
0.15308482
0.15387079
0.15464429
0.15540217
0.15614253
0.15686449
0.15756898
0.158257
0.15892895
0.15958433
0.16022185
0.16083955
0.16143642
0.16201079
0.16256015
0.16308145
0.16357112
0.16402514
0.16443895
0.16480742
0.16512484
0.16538476
0.16558045
0.16570248
0.16573928
0.1656898
0.16553786
0.16527247
0.16488594
0.16436946
0.16372147
0.16295106
0.16208736
0.1611895
0.16034476
0.15963612
0.15909561
0.15869787
0.15839466
0.15814518
0.15792453
0.15772105
0.15752853
0.1573431
0.15716421
0.15699138
0.1568232
0.15665968
0.15650091
0.15634647
0.15619609
0.15604957
0.15590652
0.15576669
0.15562983
0.15549614
0.155365
0.15523595
0.15510979
0.15498675
0.15486627
0.15474783
0.15463284
0.15452112
0.15441187
0.15430529
0.15420145
0.15410043
0.1540017
0.15390477
0.1538098
0.1537168
0.15362576
0.15353634
0.15344848
0.15336286
0.15327936
0.15319762
0.15311804
0.15304077
0.1529655
0.1528923
0.15282145
0.15275277
0.15268633
0.15262225
0.1525604
0.15250075
0.15244314
0.15238743
0.15233351
0.15228137
0.15223102
0.15218254
0.152136
0.15209142
0.15204884
0.15200829
0.1519698
0.1519334
0.15189913
0.151867
0.15183716
0.15180952
0.15178441
0.15176152
0.15174153
0.15172371
0.15170946
0.15169746
0.15169066
0.1516871
0.13715825
0.13831459
0.13956184
0.14076436
0.14191016
0.14300422
0.14405256
0.14506038
0.14603302
0.14697598
0.14789469
0.14879414
0.14967851
0.15055069
0.15141177
0.15226119
0.15309704
0.15391666
0.15471782
0.15549901
0.15625951
0.15699981
0.15772053
0.15842193
0.15910366
0.15976438
0.16040252
0.16101709
0.16160646
0.1621682
0.16269931
0.16319629
0.16365513
0.16407126
0.16443953
0.16475414
0.16500859
0.1651959
0.16530501
0.16532885
0.16526495
0.16509141
0.16480232
0.16439012
0.16384749
0.16317563
0.16238875
0.16152425
0.16065051
0.15985705
0.15921424
0.15873445
0.15838186
0.15810917
0.15788053
0.15767532
0.15748469
0.15730359
0.15712848
0.15695932
0.15679573
0.15663614
0.15648084
0.15632996
0.15618295
0.15603966
0.15589988
0.15576319
0.15562952
0.15549847
0.1553703
0.15524454
0.15512052
0.15499907
0.1548806
0.15476455
0.15465021
0.15453909
0.15443116
0.15432552
0.15422235
0.15412173
0.1540238
0.15392809
0.15383401
0.15374179
0.15365139
0.15356285
0.15347585
0.15339025
0.15330677
0.15322534
0.15314556
0.15306783
0.15299234
0.15291879
0.15284719
0.15277789
0.1527107
0.15264566
0.15258293
0.15252236
0.15246393
0.15240748
0.15235286
0.15229998
0.15224882
0.1521994
0.15215181
0.1521061
0.1520623
0.15202046
0.1519806
0.15194275
0.15190694
0.15187323
0.15184161
0.15181223
0.15178502
0.15176029
0.15173773
0.15171804
0.15170045
0.15168642
0.15167457
0.15166786
0.15166435
0.13500865
0.13628198
0.13763135
0.13893747
0.14018822
0.1413861
0.1425357
0.14364135
0.14470768
0.14573954
0.14674172
0.14771869
0.14867418
0.14961092
0.1505303
0.15143245
0.15231637
0.1531805
0.15402334
0.1548438
0.15564135
0.15641616
0.15716857
0.15789872
0.15860616
0.15928973
0.15994802
0.16058003
0.16118416
0.16175802
0.16229866
0.16280263
0.16326589
0.16368388
0.16405139
0.16436251
0.16461064
0.16478866
0.16488405
0.16489442
0.16481407
0.16461744
0.16430366
0.16386495
0.16329612
0.16260187
0.16180266
0.16094508
0.16010579
0.15937214
0.15879772
0.15837632
0.15806547
0.15782087
0.15761182
0.15742156
0.15724371
0.15707412
0.15690946
0.15675019
0.15659601
0.15644515
0.15629824
0.15615541
0.15601595
0.15587991
0.15574701
0.15561681
0.15548942
0.15536431
0.15524176
0.15512151
0.15500262
0.15488596
0.15477216
0.15466064
0.15455048
0.1544433
0.15433926
0.1542373
0.15413762
0.15404029
0.1539455
0.15385288
0.15376172
0.1536723
0.15358456
0.15349857
0.15341406
0.15333078
0.15324947
0.15317016
0.1530924
0.15301655
0.15294288
0.15287109
0.15280114
0.15273342
0.15266775
0.15260414
0.15254278
0.15248353
0.15242633
0.15237106
0.15231757
0.15226575
0.1522156
0.15216713
0.15212044
0.15207558
0.15203258
0.15199149
0.15195233
0.15191514
0.15187994
0.1518468
0.1518157
0.1517868
0.15176002
0.15173567
0.15171345
0.15169406
0.15167672
0.1516629
0.1516512
0.1516446
0.15164114
0.13299863
0.13438102
0.13581944
0.1372138
0.13855434
0.13984196
0.14107995
0.14227179
0.14342136
0.14453283
0.14561036
0.14665786
0.14767868
0.14867538
0.14964952
0.15060166
0.15153153
0.15243829
0.15332104
0.15417906
0.15501195
0.15581974
0.15660255
0.15736036
0.1580927
0.15879844
0.15947627
0.16012524
0.16074366
0.16132918
0.16187889
0.16238934
0.1628565
0.16327573
0.16364175
0.16394855
0.16418938
0.16435682
0.16443842
0.16443472
0.1643347
0.16411396
0.16377473
0.16330901
0.16271452
0.16200036
0.16119448
0.16035323
0.15955931
0.15889265
0.15838717
0.15802077
0.15774811
0.15752936
0.15733882
0.15716311
0.15699803
0.15684005
0.15668597
0.15653678
0.15639218
0.1562502
0.15611184
0.15597724
0.15584547
0.15571681
0.15559093
0.15546732
0.15534636
0.15522732
0.15511049
0.15499587
0.15488224
0.15477046
0.15466141
0.1545545
0.15444864
0.15434547
0.15424539
0.15414719
0.15405107
0.15395712
0.15386552
0.15377606
0.15368788
0.15360132
0.15351631
0.15343291
0.15335095
0.15327005
0.15319096
0.15311381
0.15303812
0.15296419
0.15289239
0.15282239
0.15275413
0.15268802
0.1526239
0.15256176
0.1525018
0.15244389
0.15238796
0.1523339
0.15228155
0.15223081
0.15218169
0.15213419
0.15208841
0.15204443
0.15200224
0.15196192
0.15192348
0.15188696
0.15185238
0.15181982
0.15178925
0.15176083
0.15173449
0.15171054
0.15168867
0.15166958
0.1516525
0.1516389
0.15162736
0.15162085
0.15161744
0.13114031
0.13261785
0.13413174
0.13559965
0.13701519
0.13837849
0.1396919
0.14095812
0.1421803
0.1433619
0.14450647
0.14561733
0.14669744
0.14774915
0.14877406
0.14977301
0.15074619
0.15169329
0.15261385
0.15350742
0.15437373
0.15521272
0.15602437
0.15680853
0.15756463
0.15829158
0.15898818
0.15965333
0.16028533
0.16088185
0.16143997
0.16195622
0.16242653
0.1628462
0.16320987
0.16351138
0.16374386
0.16389924
0.1639669
0.16394762
0.16382487
0.16357933
0.16321384
0.1627209
0.16210194
0.16137158
0.16056642
0.1597525
0.15901483
0.15842042
0.15798253
0.15766704
0.15742911
0.15723423
0.15706132
0.15689988
0.15674759
0.15660137
0.156458
0.15631906
0.15618423
0.15605125
0.15592162
0.15579542
0.15567144
0.15555031
0.15543161
0.15531469
0.15520031
0.15508747
0.15497644
0.15486757
0.15475933
0.15465251
0.1545483
0.15444612
0.15434465
0.15424557
0.15414952
0.15405517
0.15396269
0.15387217
0.15378382
0.15369758
0.15361246
0.15352882
0.15344661
0.15336586
0.15328648
0.15320803
0.1531312
0.15305626
0.15298269
0.15291074
0.15284083
0.15277267
0.15270614
0.15264167
0.15257915
0.1525185
0.15245997
0.15240342
0.15234879
0.15229595
0.15224478
0.15219515
0.15214707
0.15210056
0.15205572
0.15201262
0.15197128
0.15193174
0.15189403
0.15185819
0.15182425
0.15179228
0.15176226
0.15173433
0.15170845
0.15168489
0.15166338
0.1516446
0.15162777
0.15161439
0.15160302
0.15159661
0.15159326
0.12943821
0.1309946
0.13257009
0.13409751
0.13557398
0.13699951
0.13837579
0.13970485
0.14098916
0.1422315
0.14343475
0.1446017
0.14573487
0.14683635
0.1479077
0.14894989
0.14996334
0.15094812
0.15190406
0.15283092
0.15372852
0.15459674
0.15543547
0.15624441
0.15702294
0.15776994
0.15848421
0.15916456
0.15980925
0.16041591
0.16098159
0.16150278
0.16197534
0.1623945
0.16275476
0.16304989
0.16327293
0.1634148
0.1634673
0.16343054
0.16328326
0.16301205
0.16261933
0.16209942
0.1614581
0.16071677
0.1599217
0.15914738
0.158476
0.1579567
0.15758338
0.15731434
0.1571079
0.15693519
0.15677919
0.15663181
0.15649238
0.15635804
0.15622552
0.15609701
0.15597212
0.15584827
0.15572755
0.15560994
0.15549386
0.15538039
0.15526903
0.1551589
0.15505121
0.15494473
0.15483961
0.15473659
0.15463386
0.1545321
0.1544328
0.15433545
0.15423846
0.15414355
0.15405162
0.15396119
0.15387243
0.15378543
0.15370038
0.15361744
0.15353543
0.15345477
0.15337542
0.15329737
0.15322065
0.1531447
0.15307019
0.15299749
0.1529261
0.15285617
0.15278819
0.15272192
0.15265715
0.15259436
0.15253346
0.15247434
0.15241727
0.15236212
0.15230881
0.15225722
0.15220724
0.15215874
0.15211173
0.15206623
0.15202235
0.15198016
0.15193967
0.15190093
0.15186397
0.15182883
0.15179554
0.15176417
0.1517347
0.15170729
0.15168186
0.15165871
0.15163757
0.1516191
0.15160254
0.15158938
0.15157818
0.15157187
0.15156858
0.12789734
0.12951166
0.13113373
0.13270724
0.13423157
0.13570683
0.13713421
0.13851518
0.13985156
0.14114548
0.14239921
0.14361498
0.14479488
0.14594072
0.14705388
0.14813536
0.14918572
0.15020519
0.1511938
0.15215145
0.153078
0.1539733
0.15483713
0.1556691
0.15646849
0.15723413
0.15796477
0.15865913
0.15931539
0.15993113
0.16050334
0.16102842
0.16150215
0.16191964
0.16227528
0.16256273
0.16277508
0.16290172
0.16293754
0.16288176
0.16270821
0.16241021
0.16198958
0.16144363
0.16078331
0.16003818
0.15926466
0.1585429
0.15794601
0.15750208
0.15718896
0.15696182
0.15678394
0.15663196
0.15649233
0.15635889
0.1562324
0.1561101
0.15598854
0.15587063
0.15575585
0.15564127
0.15552962
0.15542078
0.1553127
0.15520701
0.15510316
0.15499992
0.15489906
0.15479909
0.15469994
0.15460288
0.1545058
0.1544092
0.1543149
0.15422247
0.15413006
0.15403939
0.15395165
0.15386523
0.15378027
0.15369686
0.15361517
0.15353558
0.15345677
0.15337915
0.15330272
0.15322744
0.15315341
0.15308003
0.15300789
0.15293749
0.15286831
0.15280046
0.15273445
0.15267011
0.15260715
0.15254607
0.15248683
0.15242928
0.15237368
0.15231995
0.152268
0.15221769
0.15216892
0.15212157
0.15207565
0.15203119
0.15198829
0.15194702
0.1519074
0.15186948
0.15183329
0.15179886
0.15176624
0.15173548
0.15170658
0.15167968
0.15165472
0.15163199
0.15161122
0.15159307
0.15157679
0.15156385
0.15155282
0.15154662
0.15154339
0.12651627
0.12816554
0.12981934
0.13142653
0.13298702
0.13450075
0.1359685
0.13739124
0.13877023
0.14010699
0.14140322
0.14266066
0.14388095
0.14506558
0.14621573
0.1473323
0.14841588
0.14946678
0.1504851
0.1514708
0.15242377
0.15334379
0.15423057
0.1550836
0.15590205
0.1566847
0.1574302
0.15813717
0.15880369
0.15942725
0.16000474
0.16053247
0.16100609
0.16142057
0.16177014
0.16204836
0.16224844
0.1623581
0.16237627
0.16229928
0.16209755
0.16177182
0.16132318
0.16075308
0.1600788
0.15933937
0.1586008
0.15794425
0.15742732
0.15705645
0.15679831
0.15660867
0.15645678
0.15632436
0.15620068
0.1560811
0.15596768
0.15585754
0.15574707
0.15563994
0.15553543
0.15543023
0.15532784
0.15522794
0.15512795
0.15503015
0.15493398
0.15483773
0.15474381
0.15465051
0.15455744
0.15446641
0.15437511
0.15428378
0.15419457
0.15410714
0.15401942
0.15393308
0.15384959
0.15376727
0.15368618
0.15360644
0.15352816
0.15345199
0.15337645
0.15330193
0.15322849
0.15315603
0.15308476
0.15301401
0.15294428
0.15287622
0.15280932
0.1527436
0.15267959
0.15261722
0.15255611
0.15249678
0.15243923
0.15238328
0.1523292
0.15227692
0.15222634
0.15217734
0.15212981
0.15208363
0.15203883
0.15199543
0.15195353
0.1519132
0.15187447
0.15183738
0.15180197
0.15176828
0.15173633
0.1517062
0.15167788
0.1516515
0.15162702
0.15160472
0.15158433
0.15156651
0.1515505
0.1515378
0.15152694
0.15152085
0.15151768
0.12527769
0.12694841
0.12862213
0.13025225
0.13183858
0.13338072
0.13487911
0.13633429
0.13774704
0.13911837
0.14044948
0.14174162
0.14299602
0.14421383
0.14539599
0.14654326
0.14765615
0.14873495
0.14977978
0.1507906
0.15176725
0.15270947
0.15361684
0.15448877
0.15532431
0.15612212
0.15688077
0.15759874
0.15827399
0.15890389
0.15948522
0.16001415
0.16048618
0.1608961
0.16123795
0.16150509
0.16169077
0.16178271
0.16178223
0.16168011
0.16144884
0.16109498
0.16061905
0.16002805
0.15934702
0.15862536
0.15793651
0.15735621
0.15692137
0.15661911
0.15641032
0.15625412
0.15612603
0.15601223
0.15590421
0.1557985
0.15569827
0.15560039
0.15550113
0.15540495
0.15531084
0.15521517
0.15512221
0.15503143
0.15493959
0.1548498
0.15476147
0.15467232
0.15458545
0.15449899
0.15441207
0.15432713
0.15424177
0.15415583
0.15407179
0.15398944
0.15390649
0.15382458
0.15374541
0.15366726
0.15359014
0.15351414
0.15343933
0.15336664
0.15329444
0.15322308
0.1531527
0.15308313
0.15301465
0.1529466
0.15287935
0.15281368
0.1527491
0.15268555
0.1526236
0.15256324
0.15250403
0.15244648
0.15239066
0.15233634
0.1522838
0.152233
0.15218383
0.15213615
0.15208989
0.15204491
0.15200124
0.15195892
0.15191804
0.15187868
0.15184086
0.15180462
0.15177001
0.15173706
0.1517058
0.15167631
0.15164858
0.15162275
0.15159875
0.15157689
0.15155688
0.15153939
0.15152367
0.1515112
0.15150052
0.15149455
0.15149144
0.12417352
0.12585475
0.12753829
0.12918165
0.1307844
0.1323458
0.13386591
0.13534493
0.13678321
0.13818134
0.13954004
0.14086014
0.14214249
0.14338789
0.14459702
0.14577045
0.14690856
0.14801156
0.14907951
0.15011231
0.15110974
0.15207144
0.15299689
0.15388537
0.15473581
0.15554676
0.15631664
0.15704379
0.15772603
0.15836058
0.15894409
0.15947255
0.15994129
0.16034491
0.16067721
0.16093133
0.1611002
0.16117368
0.16115268
0.16102134
0.16076015
0.16037814
0.1598767
0.15926991
0.15859203
0.15790277
0.15727863
0.15678264
0.15642854
0.1561889
0.15602385
0.15589748
0.15579138
0.15569548
0.15560292
0.15551114
0.1554242
0.15533869
0.15525077
0.15516568
0.15508209
0.1549961
0.15491274
0.15483122
0.15474763
0.15466593
0.15458562
0.15450368
0.15442395
0.1543445
0.15426382
0.15418502
0.15410573
0.15402533
0.15394655
0.15386934
0.15379126
0.15371386
0.15363908
0.15356519
0.15349212
0.15341994
0.15334865
0.15327949
0.15321074
0.15314258
0.15307533
0.15300872
0.15294308
0.15287779
0.15281307
0.15274983
0.15268764
0.15262632
0.15256646
0.15250814
0.15245088
0.15239515
0.15234108
0.15228843
0.15223746
0.15218817
0.15214044
0.15209412
0.15204915
0.15200539
0.15196288
0.15192166
0.15188182
0.15184345
0.15180655
0.15177119
0.15173739
0.15170519
0.15167464
0.15164581
0.15161868
0.15159339
0.1515699
0.15154848
0.15152887
0.15151172
0.15149629
0.15148405
0.15147356
0.1514677
0.15146466
0.12319722
0.12487974
0.12656418
0.12821195
0.12982247
0.13139467
0.13292829
0.13442318
0.13587934
0.13729695
0.13867634
0.14001795
0.14132224
0.14258971
0.14382076
0.14501573
0.14617485
0.14729818
0.14838569
0.14943717
0.1504523
0.15143061
0.15237146
0.15327397
0.15413695
0.15495879
0.15573778
0.15647209
0.15715938
0.15779668
0.15838048
0.15890659
0.15937013
0.15976547
0.16008624
0.1603253
0.16047493
0.1605279
0.16048383
0.1603212
0.1600301
0.15962019
0.15909655
0.15848156
0.15781984
0.1571796
0.15663372
0.15622603
0.1559482
0.15576437
0.15563778
0.15553817
0.1554526
0.15537404
0.15529685
0.15521912
0.15514556
0.15507248
0.15499605
0.15492218
0.1548492
0.15477305
0.15469945
0.1546273
0.15455206
0.15447855
0.15440641
0.1543318
0.15425931
0.154187
0.15411269
0.15404005
0.15396698
0.15389228
0.15381882
0.15374682
0.1536737
0.15360092
0.15353057
0.15346104
0.1533921
0.1533238
0.15325611
0.15319053
0.1531253
0.15306041
0.15299635
0.15293277
0.15287002
0.15280756
0.15274543
0.15268467
0.1526249
0.15256587
0.15250814
0.15245192
0.15239664
0.15234276
0.15229049
0.15223954
0.15219018
0.15214243
0.15209616
0.15205122
0.15200756
0.15196505
0.15192373
0.15188363
0.15184485
0.15180748
0.15177153
0.15173706
0.15170409
0.15167268
0.15164284
0.15161468
0.15158817
0.15156344
0.15154045
0.15151948
0.15150027
0.15148347
0.15146834
0.15145634
0.15144604
0.1514403
0.15143733
0.12234311
0.12401851
0.12569576
0.1273399
0.12895028
0.13052554
0.13206512
0.13356853
0.13503546
0.13646571
0.13785926
0.13921619
0.14053662
0.14182074
0.14306869
0.14428056
0.14545639
0.14659609
0.14769947
0.14876619
0.14979581
0.15078771
0.1517411
0.15265497
0.15352793
0.15435825
0.15514405
0.15588328
0.15657344
0.15721137
0.15779334
0.15831496
0.15877114
0.15915601
0.159463
0.15968475
0.15981226
0.15984249
0.15977344
0.1595779
0.15925694
0.15882065
0.15828032
0.15766792
0.15703854
0.15646463
0.15600723
0.15568728
0.15547893
0.15534398
0.15525112
0.15517575
0.15510957
0.1550479
0.15498605
0.15492259
0.15486243
0.15480179
0.15473702
0.15467449
0.15461218
0.15454608
0.15448238
0.15441965
0.15435288
0.15428769
0.15422382
0.1541567
0.15409153
0.15402649
0.15395868
0.1538922
0.15382548
0.15375667
0.15368861
0.15362184
0.15355377
0.15348572
0.15341986
0.15335479
0.15329005
0.15322569
0.15316168
0.15309971
0.1530381
0.15297655
0.15291573
0.15285526
0.15279543
0.15273588
0.1526764
0.15261816
0.15256087
0.15250418
0.15244863
0.15239454
0.1523413
0.15228931
0.15223887
0.15218966
0.15214194
0.15209574
0.15205097
0.15200743
0.15196512
0.15192388
0.15188377
0.15184482
0.15180713
0.15177078
0.1517358
0.15170223
0.15167011
0.15163949
0.15161039
0.15158291
0.15155702
0.15153286
0.1515104
0.15148989
0.15147109
0.15145464
0.15143982
0.15142806
0.15141795
0.15141233
0.15140943
0.12160484
0.12326537
0.1249282
0.12656156
0.12816472
0.12973607
0.13127473
0.13277994
0.13425105
0.13568757
0.13708913
0.13845549
0.13978648
0.14108197
0.14234186
0.14356601
0.14475423
0.14590625
0.14702171
0.14810012
0.14914088
0.15014321
0.15110615
0.15202852
0.15290876
0.15374496
0.15453504
0.15527676
0.1559674
0.15660359
0.15718138
0.15769614
0.15814252
0.15851443
0.15880508
0.15900688
0.15910938
0.15911566
0.15901895
0.15878913
0.15843932
0.15798025
0.15743174
0.15683648
0.15625817
0.15576641
0.15540268
0.15516573
0.15501884
0.15492632
0.154863
0.1548099
0.1547622
0.15471702
0.15467059
0.15462181
0.15457498
0.15452662
0.15447376
0.1544227
0.15437103
0.15431525
0.15426156
0.15420822
0.15415011
0.1540934
0.15403783
0.15397838
0.1539206
0.15386293
0.15380178
0.15374146
0.15368123
0.15361848
0.15355588
0.15349437
0.15343145
0.15336825
0.15330693
0.15324641
0.15318595
0.15312559
0.15306534
0.15300702
0.15294913
0.15289098
0.15283346
0.15277616
0.15271932
0.15266273
0.15260595
0.1525503
0.15249554
0.15244124
0.15238791
0.15233599
0.15228484
0.15223478
0.15218619
0.15213876
0.15209271
0.1520481
0.15200486
0.15196276
0.15192181
0.15188187
0.15184299
0.15180521
0.15176862
0.15173332
0.15169933
0.15166669
0.15163543
0.15160561
0.15157727
0.15155048
0.15152523
0.15150166
0.15147972
0.15145968
0.15144131
0.15142521
0.15141071
0.1513992
0.15138929
0.15138379
0.15138096
0.12097477
0.12261377
0.12425602
0.12587245
0.12746218
0.12902341
0.13055498
0.13205586
0.13352511
0.13496195
0.13636575
0.13773596
0.13907214
0.1403739
0.14164088
0.14287271
0.14406899
0.14522925
0.14635294
0.14743941
0.14848785
0.14949732
0.15046668
0.15139455
0.15227918
0.15311847
0.15391012
0.15465169
0.15534019
0.15597203
0.15654302
0.15704828
0.15748218
0.15783836
0.15810972
0.15828826
0.15836463
0.15834602
0.15821621
0.15795292
0.157577
0.15710154
0.15655721
0.15599748
0.15548981
0.1550919
0.15482134
0.15465952
0.15456593
0.15451031
0.15447263
0.15444039
0.15441045
0.15438127
0.15435061
0.15431726
0.15428335
0.15424683
0.15420637
0.15416693
0.15412577
0.15408064
0.15403703
0.15399296
0.15394378
0.15389574
0.15384841
0.15379684
0.15374655
0.1536963
0.15364201
0.15358785
0.15353421
0.15347771
0.15342061
0.15336441
0.15330673
0.15324849
0.15319177
0.15313589
0.15307978
0.15302346
0.15296707
0.15291245
0.15285836
0.15280368
0.15274951
0.15269547
0.15264164
0.15258808
0.15253408
0.15248105
0.15242888
0.15237702
0.15232596
0.15227626
0.15222723
0.15217915
0.15213244
0.15208683
0.15204249
0.15199949
0.15195781
0.15191716
0.15187761
0.151839
0.15180137
0.15176478
0.15172933
0.15169509
0.15166211
0.15163041
0.15160004
0.15157105
0.15154347
0.15151739
0.15149279
0.15146981
0.15144842
0.15142885
0.15141091
0.15139518
0.15138099
0.15136973
0.15136003
0.15135465
0.1513519
0.12044501
0.12205709
0.12367361
0.12526783
0.12683876
0.1283844
0.12990334
0.13139431
0.13285614
0.13428781
0.13568842
0.1370572
0.13839344
0.13969653
0.14096587
0.14220086
0.1434009
0.14456531
0.14569334
0.14678414
0.14783673
0.14884995
0.14982247
0.15075269
0.15163866
0.15247807
0.15326839
0.15400692
0.15469042
0.15531507
0.15587638
0.15636922
0.1567877
0.15712519
0.15737427
0.15752583
0.15757558
0.15752964
0.15736261
0.1570689
0.15667143
0.15618978
0.1556665
0.15516362
0.15474404
0.15444531
0.15426241
0.15416618
0.15411858
0.15409513
0.15407913
0.15406709
0.15405432
0.15404065
0.15402634
0.15400938
0.15398762
0.15396209
0.15393517
0.15390735
0.15387627
0.15384235
0.1538089
0.1537738
0.15373392
0.15369478
0.15365556
0.1536121
0.15356941
0.15352655
0.15347937
0.1534314
0.15338442
0.15333433
0.15328279
0.15323191
0.1531796
0.15312642
0.15307437
0.1530232
0.15297149
0.15291928
0.15286685
0.15281596
0.15276577
0.15271463
0.15266385
0.15261316
0.1525624
0.15251191
0.15246075
0.15241042
0.15236087
0.1523115
0.15226277
0.15221532
0.15216847
0.1521224
0.15207761
0.15203386
0.15199125
0.1519499
0.1519098
0.15187064
0.15183251
0.15179524
0.1517589
0.15172353
0.15168923
0.15165608
0.15162412
0.15159339
0.15156392
0.15153577
0.15150897
0.15148361
0.15145969
0.15143731
0.15141647
0.15139739
0.15137989
0.15136452
0.15135067
0.15133966
0.15133017
0.15132492
0.15132224
0.12000826
0.12158899
0.12317543
0.12474293
0.12629036
0.12781556
0.1293169
0.13079291
0.13224222
0.13366361
0.13505596
0.1364183
0.13774972
0.13904939
0.14031648
0.14155022
0.14274976
0.14391424
0.14504269
0.14613407
0.14718718
0.14820066
0.14917295
0.15010223
0.15098633
0.1518227
0.15260857
0.15334096
0.15401638
0.1546307
0.15517918
0.15565642
0.15605625
0.15637184
0.15659554
0.15671682
0.15673881
0.15666228
0.1564578
0.15613783
0.15572671
0.15525384
0.15477295
0.15434868
0.15402903
0.1538277
0.1537242
0.15368357
0.15367572
0.15367867
0.15368175
0.15368997
0.15369415
0.15369588
0.15369814
0.15369789
0.15368714
0.15367256
0.15366084
0.15364392
0.15362235
0.15360062
0.15357725
0.15355061
0.15352063
0.15349064
0.15345924
0.1534242
0.15338919
0.15335367
0.15331387
0.15327218
0.15323186
0.15318831
0.15314237
0.15309687
0.15305006
0.15300204
0.15295472
0.15290833
0.15286107
0.15281303
0.15276466
0.15271755
0.15267134
0.15262382
0.15257647
0.15252919
0.15248155
0.15243419
0.15238595
0.15233837
0.15229149
0.15224467
0.15219832
0.15215316
0.15210854
0.15206451
0.15202168
0.15197981
0.15193899
0.1518993
0.15186082
0.15182317
0.15178649
0.1517506
0.15171556
0.15168144
0.1516483
0.15161628
0.15158536
0.15155561
0.15152706
0.15149977
0.15147377
0.15144915
0.1514259
0.15140414
0.15138386
0.15136528
0.15134823
0.15133324
0.15131972
0.15130897
0.15129969
0.15129457
0.15129198
0.11965738
0.12120312
0.12275586
0.12429281
0.12581269
0.12731318
0.12879247
0.13024892
0.13168101
0.13308735
0.13446669
0.13581787
0.1371398
0.13843147
0.13969188
0.14092003
0.14211489
0.14327538
0.14440035
0.14548851
0.14653846
0.14754861
0.14851718
0.1494421
0.15032095
0.15115094
0.15192903
0.15265194
0.15331589
0.15391649
0.15444871
0.15490687
0.15528457
0.15557469
0.15576924
0.15585899
0.15585236
0.1557405
0.15550139
0.15516267
0.15475085
0.15430707
0.15389272
0.15356521
0.15334931
0.1532383
0.15320581
0.15321045
0.15323175
0.15325733
0.15328215
0.1533094
0.15333102
0.15334882
0.15336634
0.15338013
0.15338091
0.15338084
0.15338371
0.15337599
0.15336422
0.15335585
0.15334202
0.15332328
0.15330419
0.15328336
0.1532594
0.15323321
0.15320596
0.1531776
0.15314546
0.15311025
0.15307652
0.1530396
0.15299935
0.15295929
0.1529181
0.15287535
0.15283281
0.15279124
0.15274849
0.15270469
0.1526605
0.15261723
0.15257504
0.15253121
0.15248734
0.15244356
0.1523991
0.15235491
0.15230967
0.15226489
0.15222073
0.15217649
0.15213259
0.15208976
0.1520474
0.15200547
0.15196463
0.15192468
0.15188567
0.15184768
0.15181084
0.15177475
0.15173954
0.15170505
0.15167134
0.15163848
0.15160655
0.15157565
0.15154581
0.15151706
0.15148945
0.15146303
0.15143784
0.15141397
0.15139142
0.15137029
0.15135058
0.15133251
0.15131591
0.15130131
0.15128813
0.15127765
0.15126858
0.1512636
0.15126109
0.11938496
0.120893
0.1224092
0.12391244
0.12540131
0.12687332
0.12832654
0.12975921
0.13116972
0.13255658
0.13391842
0.13525396
0.13656197
0.13784127
0.13909069
0.14030905
0.14149512
0.14264763
0.14376519
0.14484632
0.14588938
0.14689254
0.14785378
0.14877077
0.14964083
0.15046089
0.15122764
0.15193748
0.15258634
0.15316953
0.15368175
0.15411712
0.15446911
0.15473035
0.15489159
0.15494932
0.15491297
0.15476235
0.15449633
0.15415034
0.15375686
0.15336716
0.15304253
0.15282218
0.15270665
0.15267846
0.15269985
0.15273791
0.15278529
0.15283356
0.15288123
0.15292604
0.15296502
0.15299915
0.15303061
0.15305632
0.15307201
0.15308696
0.15310113
0.15310318
0.15310396
0.1531081
0.1531026
0.15309223
0.153085
0.15307277
0.15305596
0.15303934
0.15301978
0.15299823
0.15297411
0.15294575
0.15291842
0.15288814
0.1528537
0.15281917
0.15278375
0.15274632
0.15270865
0.15267188
0.15263371
0.15259426
0.15255435
0.15251497
0.15247685
0.1524368
0.15239647
0.15235624
0.15231503
0.15227403
0.15223187
0.15218998
0.15214857
0.15210696
0.15206556
0.1520251
0.15198506
0.15194526
0.15190644
0.15186844
0.1518313
0.15179502
0.15175986
0.15172534
0.15169163
0.15165857
0.15162622
0.15159466
0.15156394
0.15153421
0.15150545
0.15147773
0.15145107
0.15142555
0.15140119
0.15137808
0.15135623
0.15133574
0.15131662
0.15129906
0.15128293
0.15126872
0.1512559
0.15124568
0.15123684
0.151232
0.15122957
0.11918385
0.12065245
0.12212997
0.12359692