/*--------------------------------*- C++ -*----------------------------------*\
| =========                 |                                                 |
| \\      /  F ield         | OpenFOAM: The Open Source CFD Toolbox           |
|  \\    /   O peration     | Version:  2406                                  |
|   \\  /    A nd           | Website:  www.openfoam.com                      |
|    \\/     M anipulation  |                                                 |
\*---------------------------------------------------------------------------*/
FoamFile
{
    version     2.0;
    format      ascii;
    arch        "LSB;label=32;scalar=64";
    class       volScalarField;
    location    "0.009";
    object      omega;
}
// * * * * * * * * * * * * * * * * * * * * * * * * * * * * * * * * * * * * * //

dimensions      [0 0 -1 0 0 0 0];

internalField   nonuniform List<scalar> 
86779
(
20435.178
18537.426
16803.684
15248.693
13859.138
12616.337
11502.642
10502.483
9602.2975
8789.8708
8055.7024
7391.2195
6788.7903
6241.7378
5744.1753
5290.9324
4877.4576
4499.7374
4154.2515
3837.8909
3547.9051
3281.8454
3037.5138
2812.94
2606.3555
2416.1746
2240.9924
2079.4968
1930.5207
1793.011
1666.0134
1548.6607
1440.163
1339.7987
1246.9056
1160.8723
1081.1298
1007.1465
938.40757
874.39114
814.63949
758.66122
705.91035
655.79486
607.67105
560.84241
514.64221
468.62407
422.97504
379.03058
339.80312
307.95427
283.87687
265.82256
251.61904
239.77955
229.42136
220.11862
211.65707
203.88922
196.73617
190.14832
184.04997
178.39132
173.13205
168.22223
163.61406
159.27693
155.2051
151.4046
147.86274
144.57946
141.57149
138.80004
136.22463
133.83678
131.63238
129.5804
127.66208
125.87658
124.21261
122.66388
121.19856
119.81233
118.49715
117.25228
116.09016
114.99635
113.97555
113.03716
112.165
111.34187
110.56988
109.84361
109.15007
108.49403
107.87679
107.2914
106.73918
106.2205
105.72923
105.26339
104.82118
104.40048
104.00395
103.63363
103.28868
102.96672
102.66453
102.38026
102.11371
101.86468
101.63229
101.41547
101.21363
101.02639
100.8539
100.69627
100.55382
100.42671
100.31529
100.21878
100.13819
100.07104
100.02245
99.983128
99.96608
18298.464
16662.733
15194.531
13873.346
12682.357
11606.79
10633.858
9752.4469
8952.774
8226.1666
7565.2172
6963.343
6414.6485
5913.8652
5456.2694
5037.6464
4654.2292
4302.6564
3979.9525
3683.473
3410.8627
3160.0236
2929.057
2716.2444
2520.0309
2339.0126
2171.9242
2017.6052
1874.9983
1743.1491
1621.188
1508.3213
1403.8227
1307.0251
1217.3134
1134.1164
1056.8994
985.15918
918.40928
856.12554
797.85791
743.15048
691.43089
642.09387
594.48105
547.88763
501.67529
455.52391
409.94952
366.90884
329.56693
300.11342
278.12333
261.50057
248.21029
236.92617
226.93237
217.89989
209.65654
202.07358
195.08573
188.64654
182.67562
177.13437
171.98347
167.16829
162.6535
158.39982
154.39773
150.66686
147.18831
143.95536
141.00241
138.28303
135.75607
133.41129
131.24425
129.22898
127.34284
125.58627
123.94891
122.42573
120.98391
119.61748
118.32175
117.09323
115.94504
114.86471
113.85437
112.92463
112.06101
111.24574
110.48004
109.75991
109.0722
108.421
107.80862
107.22811
106.68041
106.16627
105.67955
105.21797
104.77978
104.3629
103.96981
103.60255
103.26032
102.94073
102.64062
102.35819
102.0933
101.84577
101.61479
101.39928
101.19864
101.0125
100.84102
100.68434
100.54275
100.41642
100.30565
100.2097
100.12955
100.06276
100.01447
99.975215
99.958593
16417.789
15035.164
13786.254
12654.853
11627.092
10691.535
9838.618
9060.1355
8348.8824
7698.4651
7103.2351
6558.1297
6058.5714
5600.4072
5179.8618
4793.5139
4438.2679
4111.3337
3810.2142
3532.673
3276.7047
3040.5082
2822.4464
2621.0263
2434.8869
2262.789
2103.6113
1956.3166
1819.9564
1693.6689
1576.6652
1468.221
1367.6702
1274.3982
1187.8347
1107.4469
1032.7328
963.21529
898.43129
837.86323
781.0721
727.61694
676.90544
628.32871
581.21891
534.88419
488.75828
442.72458
397.70689
356.13765
321.10713
294.0593
273.89048
258.40394
245.77649
234.89612
225.17926
216.35982
208.28969
200.85347
193.99556
187.67082
181.79671
176.34323
171.27199
166.5243
162.07508
157.88066
153.92723
150.24336
146.80844
143.60838
140.68375
137.9942
135.49531
133.17315
131.02582
129.03292
127.16469
125.42433
123.80254
122.29526
120.86962
119.51598
118.23247
117.01233
115.87101
114.79679
113.78939
112.86196
112.00186
111.1901
110.42656
109.70912
109.02423
108.37483
107.7646
107.18662
106.64118
106.12961
105.64578
105.18692
104.75141
104.33704
103.94609
103.58065
103.23999
102.92177
102.62286
102.34149
102.07752
101.83085
101.60069
101.38596
101.18607
101.00062
100.82979
100.67372
100.53269
100.40689
100.29655
100.20096
100.12111
100.05455
100.00647
99.9672
99.95103
14752.598
13589.724
12528.248
11557.952
10669.222
9853.9401
9105.2254
8417.115
7784.3314
7202.1472
6666.3057
6172.9397
5718.5098
5299.7613
4913.6958
4557.5582
4228.8253
3925.1989
3644.5995
3385.1481
3145.1463
2923.0555
2717.4698
2527.0989
2350.7574
2187.358
2035.9165
1895.5047
1765.2777
1644.4612
1532.3421
1428.2622
1331.6129
1241.8291
1158.3835
1080.7802
1008.5474
941.23294
878.39249
819.52258
764.1957
711.97059
662.23967
614.39561
567.76638
521.69027
475.70694
429.95658
385.79745
346.00363
313.36785
288.54341
269.94358
255.40879
243.3411
232.81262
223.34707
214.72645
206.81971
199.52358
192.79138
186.57822
180.79912
175.43316
170.44287
165.7641
161.38314
157.25182
153.35008
149.71645
146.32914
143.16609
140.27563
137.62201
135.15745
132.86399
130.74137
128.77531
126.92952
125.20975
123.60757
122.11892
120.71226
119.37371
118.10508
116.89654
115.76418
114.69889
113.6976
112.77491
111.92028
111.114
110.35446
109.64109
108.96051
108.31441
107.70756
107.13332
106.59132
106.08328
105.60325
105.14794
104.71582
104.30466
103.91653
103.55356
103.21506
102.8987
102.60144
102.32154
102.05888
101.81341
101.58438
101.37072
101.17183
100.9873
100.81733
100.66207
100.52178
100.39665
100.28686
100.19175
100.11228
100.04603
99.998213
99.958954
99.943291
13277.66
12299.522
11397.205
10564.624
9795.5828
9084.6671
8427.1535
7818.8488
7255.9706
6735.0737
6252.9988
5806.8291
5393.8556
5011.552
4657.5595
4329.6815
4025.8814
3744.2829
3483.1687
3240.9718
3016.2631
2807.7368
2614.192
2434.5197
2267.6934
2112.7679
1968.8768
1835.1987
1710.9851
1595.5431
1488.2307
1388.4521
1295.653
1209.3156
1128.9532
1054.1046
984.32674
919.19071
858.26507
801.06759
747.18219
696.15216
647.35908
600.1992
554.00249
508.15535
462.34141
417.01593
373.99133
336.24562
306.07502
283.35407
266.16954
252.48299
240.92257
230.72418
221.50444
213.08319
205.34143
198.18827
191.58491
185.48575
179.80441
174.5286
169.62212
165.0146
160.70349
156.63797
152.79013
149.20736
145.86909
142.7443
139.88727
137.26918
134.8386
132.57316
130.47429
128.5342
126.71007
125.01027
123.42717
121.956
120.56787
119.24387
117.98915
116.79157
115.66705
114.60967
113.61364
112.6948
111.84487
111.04352
110.28747
109.5776
108.90094
108.2578
107.65392
107.08313
106.5443
106.03953
105.56308
105.11115
104.68223
104.27411
103.88861
103.52791
103.19137
102.87671
102.58095
102.30239
102.04092
101.79652
101.56853
101.35585
101.15787
100.97419
100.80502
100.65051
100.51092
100.38642
100.27715
100.18248
100.10336
100.03738
99.989827
99.950544
99.935426
11969.465
11145.371
10377.476
9662.5204
8996.74
8376.6974
7799.2859
7261.6621
6761.1946
6295.4319
5862.0784
5458.974
5084.0775
4735.4553
4411.2754
4109.8081
3829.4285
3568.6212
3325.9821
3100.2161
2890.1303
2694.6246
2512.6801
2343.3495
2185.7501
2039.0637
1902.5296
1775.4309
1657.1051
1546.9355
1444.3467
1348.8014
1259.7968
1176.8593
1099.541
1027.4129
960.05887
897.07221
838.02591
782.46812
729.99289
680.1103
632.19996
585.66172
539.83695
494.18517
448.58465
403.87297
362.3098
326.88775
299.22071
278.47002
262.55365
249.62057
238.51931
228.62967
219.64865
211.42452
203.84593
196.83537
190.36065
184.37454
178.79097
173.60533
168.78327
164.24782
160.00632
156.00786
152.21525
148.68291
145.39429
142.30912
139.4858
136.90366
134.50778
132.27127
130.19661
128.28265
126.4809
124.80185
123.23844
121.78462
120.41539
119.10628
117.86553
116.67955
115.56293
114.51375
113.52366
112.609
111.764
110.96796
110.21581
109.50963
108.83722
108.19744
107.59676
107.02973
106.49439
105.9931
105.52049
105.07217
104.64664
104.24175
103.85906
103.50078
103.16634
102.8535
102.55936
102.28223
102.02205
101.77882
101.55194
101.34031
101.14331
100.96054
100.79223
100.63854
100.49969
100.37586
100.26715
100.17295
100.0942
100.02852
99.981247
99.941931
99.927406
10806.517
10111.467
9456.6701
8842.0299
8265.3234
7724.4533
7217.4594
6742.4886
6297.7749
5881.628
5492.4256
5128.606
4788.6635
4471.1453
4174.6521
3897.8422
3639.4373
3398.2289
3173.0825
2962.9391
2766.8123
2583.7838
2412.9956
2253.644
2104.9752
1966.2847
1836.9117
1716.2318
1603.6627
1498.6578
1400.7044
1309.3199
1224.0493
1144.4612
1070.1434
1000.6972
935.73099
874.86005
817.65346
763.69522
712.58946
663.79507
616.70318
570.71569
525.20067
479.72629
434.43053
390.59719
350.86832
318.00652
292.81323
273.8693
259.07535
246.81008
236.1266
226.52787
217.78029
209.75184
202.33515
195.4677
189.12211
183.24856
177.76379
172.66914
167.93282
163.47154
159.2999
155.37023
151.63529
148.15341
144.91542
141.87195
139.08269
136.53648
134.17555
131.96872
129.91848
128.03033
126.25151
124.5936
123.05008
121.61319
120.26284
118.96883
117.74168
116.56751
115.45852
114.41722
113.43323
112.52269
111.68246
110.89174
110.14359
109.44099
108.77287
108.13656
107.53907
106.97585
106.4441
105.94633
105.47759
105.03294
104.61083
104.20919
103.82934
103.47347
103.14113
102.8301
102.53756
102.26188
102.00298
101.76092
101.53514
101.32456
101.12855
100.9467
100.77926
100.62639
100.48828
100.36514
100.25698
100.16325
100.08487
100.01949
99.972495
99.933128
99.919236
9770.6619
9183.5665
8624.0852
8095.0417
7595.176
7123.2772
6678.1758
6258.7267
5863.8003
5492.2792
5143.0585
4815.0446
4507.1572
4218.3305
3947.5181
3693.6988
3455.8836
3233.1232
3024.5138
2829.2002
2646.3762
2475.2826
2315.2039
2165.4638
2025.4234
1894.4802
1772.0651
1657.637
1550.6869
1450.7337
1357.322
1270.0205
1188.4189
1112.1248
1040.7592
973.95125
911.33173
852.53497
797.12919
744.72492
694.92972
647.15671
600.81165
555.2994
510.039
464.75606
419.92485
377.31603
339.80811
309.66646
286.84413
269.52297
255.71317
244.04065
233.74017
224.41748
215.89921
208.06509
200.80883
194.08511
187.86887
182.10673
176.72181
171.71864
167.06887
162.68416
158.58218
154.72236
151.04768
147.61596
144.42905
141.42954
138.67473
136.16396
133.83796
131.66173
129.63629
127.7735
126.01839
124.38204
122.85855
121.4383
120.10678
118.8282
117.61436
116.45233
115.35091
114.31734
113.33985
112.43357
111.59811
110.81286
110.06898
109.37
108.70629
108.07373
107.47954
106.92027
106.39231
105.89816
105.43342
104.99259
104.57399
104.1757
103.79876
103.44539
103.11519
102.80601
102.51513
102.24093
101.98336
101.74252
101.51788
101.30839
101.11339
100.9325
100.76595
100.61393
100.47661
100.35416
100.24658
100.15333
100.07533
100.01026
99.963555
99.924125
99.910905
8846.3459
8349.1249
7870.3222
7414.4511
6980.9113
6569.09
6178.3613
5808.0786
5457.5717
5126.1475
4813.0918
4517.6723
4239.142
3976.7439
3729.7162
3497.3
3278.7458
3073.3217
2880.3194
2699.0585
2528.8888
2369.1905
2219.373
2078.8729
1947.1533
1823.7029
1708.0356
1599.6857
1498.211
1403.1902
1314.2211
1230.9195
1152.9166
1079.856
1011.3895
947.17116
886.85184
830.08059
776.42926
725.52791
676.97346
630.1462
584.46845
539.35501
494.31083
449.28263
405.16167
364.19547
329.26588
301.9043
281.28793
265.39821
252.44645
241.30264
231.3565
222.29765
214.00542
206.36432
199.26698
192.68792
186.60127
180.9491
175.66539
170.75437
166.19166
161.88659
157.85418
154.06482
150.45351
147.07195
143.93639
140.98345
138.26368
135.78746
133.49614
131.35162
129.35148
127.51349
125.78296
124.1685
122.66502
121.26125
119.94832
118.68558
117.4847
116.33503
115.24122
114.2151
113.24444
112.34254
111.51181
110.73211
109.99271
109.29738
108.63817
108.00956
107.41875
106.86352
106.33952
105.84907
105.38841
104.95151
104.53649
104.14162
103.76763
103.41679
103.08876
102.78146
102.49225
102.21957
101.96336
101.72375
101.50028
101.29189
101.09792
100.918
100.75237
100.60123
100.4647
100.34296
100.23597
100.1432
100.06559
100.00083
99.954428
99.914922
99.902409
8019.7949
7597.5905
7187.2043
6793.9643
6417.704
6058.2092
5715.222
5388.4414
5077.5234
4782.0829
4501.6963
4235.905
3984.22
3746.1268
3521.0911
3308.5658
3107.998
2918.8364
2740.5368
2572.5677
2414.413
2265.574
2125.5693
1993.9349
1870.224
1754.0066
1644.8709
1542.4193
1446.2701
1356.0565
1271.4251
1192.0348
1117.5549
1047.662
982.036
920.3533
862.28252
807.47943
755.52632
706.06972
658.67829
612.71198
567.61468
522.8289
477.99261
433.35278
390.28625
351.4261
319.35661
294.72717
276.10723
261.46156
249.25647
238.58791
228.97291
220.16797
212.09906
204.64948
197.70952
191.27634
185.3195
179.77548
174.59466
169.77658
165.30091
161.07891
157.11621
153.39719
149.85262
146.52155
143.43716
140.53348
137.84947
135.40647
133.14934
131.03778
129.06355
127.24971
125.54473
123.95228
122.46871
121.08145
119.78667
118.54026
117.35201
116.21485
115.12884
114.10989
113.14643
112.24912
111.42311
110.64904
109.9144
109.22278
108.56816
107.94375
107.35644
106.80535
106.2855
105.79886
105.34236
104.9095
104.49815
104.10676
103.7358
103.38753
103.06171
102.75632
102.46883
102.1977
101.94287
101.70454
101.48226
101.275
101.08209
100.90317
100.73849
100.58824
100.45254
100.33152
100.22513
100.13286
100.05565
99.991197
99.945107
99.905514
99.893737
7279.1639
6919.786
6567.5096
6227.937
5901.1708
5587.2524
5286.1672
4997.8483
4722.1782
4458.9908
4208.0743
3969.1743
3741.9981
3526.2188
3321.4813
3127.408
2943.6054
2769.6702
2605.1953
2449.7744
2303.0059
2164.4952
2033.8561
1910.7113
1794.6934
1685.4445
1582.6187
1485.8796
1394.9002
1309.3628
1228.9584
1153.3851
1082.3468
1015.55
952.6998
893.49272
837.61333
784.71045
734.38977
686.31338
639.9956
594.79651
550.18948
505.67507
461.08726
417.06354
375.49521
339.20399
310.15976
288.11437
271.25709
257.68074
246.12682
235.88972
226.58736
218.02837
210.1803
202.9204
196.13633
189.85049
184.02366
178.58584
173.50991
168.78591
164.39663
160.26125
156.369
152.71947
149.24508
145.96548
142.93169
140.07985
137.43252
135.02112
132.7976
130.72029
128.77275
126.98242
125.30388
123.73339
122.26957
120.89908
119.62182
118.39229
117.21638
116.09175
115.01389
114.00184
113.04591
112.15342
111.33215
110.56378
109.83416
109.14637
108.4964
107.87643
107.29274
106.74589
106.23036
105.74764
105.29536
104.86665
104.45906
104.07121
103.70333
103.35767
103.0341
102.73064
102.44489
102.17535
101.92194
101.68492
101.46384
101.25774
101.06591
100.88801
100.72431
100.57498
100.44012
100.31984
100.21406
100.1223
100.04549
99.98136
99.935588
99.895899
99.884881
6614.2019
6307.6215
6004.7923
5711.2654
5427.2977
5153.0862
4888.7707
4634.4378
4390.123
4155.8124
3931.4452
3716.9164
3512.0795
3316.751
3130.7148
2953.727
2785.5214
2625.8151
2474.3138
2330.7159
2194.7164
2066.0097
1944.2914
1829.2597
1720.6169
1618.0678
1521.3254
1430.1077
1344.1367
1263.139
1186.8451
1114.9887
1047.3046
983.52607
923.38028
866.58137
812.82944
761.75032
712.98705
666.215
620.86694
576.33532
532.13223
487.86266
443.63811
400.5746
361.02789
327.70635
301.71073
282.02221
266.68913
254.02594
243.04348
233.20261
224.1983
215.87895
208.24932
201.17686
194.54733
188.41034
182.7137
177.38021
172.41146
167.78322
163.47897
159.43334
155.6133
152.03178
148.63072
145.40442
142.42014
139.62229
137.01278
134.63129
132.4408
130.39896
128.47896
126.71159
125.06021
123.51143
122.06722
120.71396
119.45345
118.24133
117.07754
115.96537
114.89617
113.89076
112.94267
112.05529
111.23882
110.4762
109.75188
109.06807
108.42282
107.80751
107.22762
106.68507
106.17405
105.69536
105.24737
104.82293
104.41916
104.03492
103.67018
103.32717
103.00587
102.70438
102.42041
102.15248
101.90053
101.66485
101.44502
101.2401
101.04938
100.87253
100.70982
100.56144
100.42745
100.30792
100.20276
100.11151
100.03512
99.971313
99.925865
99.886074
99.87583
6016.008
5753.9549
5493.2925
5239.3306
4992.4062
4752.8035
4520.7543
4296.4413
4079.9993
3871.5171
3671.0388
3478.5659
3294.0592
3117.4426
2948.6056
2787.4082
2633.6851
2487.2498
2347.8996
2215.4193
2089.5847
1970.1654
1856.9271
1749.633
1648.0457
1551.925
1461.0354
1375.1433
1294.0141
1217.4137
1145.1083
1076.8628
1012.4394
951.59452
894.07415
839.60716
787.90567
738.5755
691.28793
645.71455
601.22334
557.25929
513.38846
469.38882
425.74737
384.11587
347.14462
317.06686
293.99968
276.39107
262.3553
250.47075
239.99485
230.52227
221.80453
213.71998
206.30632
199.41869
192.94255
186.9557
181.38935
176.15883
171.29969
166.76962
162.54843
158.59461
154.84989
151.33461
148.00926
144.83904
141.90283
139.16033
136.59004
134.23704
132.07911
130.07368
128.1821
126.43734
124.81349
123.28605
121.86146
120.52605
119.28138
118.08717
116.9354
115.83549
114.77556
113.77664
112.83663
111.95471
111.14315
110.38633
109.66756
108.98796
108.34746
107.73703
107.16111
106.62295
106.11659
105.64207
105.19841
104.77834
104.37849
103.99791
103.63636
103.29604
102.97704
102.67754
102.39539
102.12911
101.87865
101.64435
101.42579
101.22208
101.03249
100.85672
100.69503
100.54762
100.41452
100.29575
100.19123
100.1005
100.02452
99.961051
99.915933
99.876036
99.866574
5476.8914
5252.5116
5027.8815
4807.9665
4593.1357
4383.7142
4179.9828
3982.1795
3790.5002
3605.0998
3426.0928
3253.5544
3087.5223
2927.9985
2774.9519
2628.3217
2488.0207
2353.9388
2225.9468
2103.8999
1987.6406
1877.0016
1771.8077
1671.8777
1577.0261
1487.0603
1401.7896
1321.023
1244.5641
1172.2136
1103.7688
1039.0221
977.75941
919.75657
864.77482
812.55466
762.81471
715.14636
669.24165
624.74667
580.99353
537.49987
493.92034
450.29795
407.59635
367.98233
334.09267
307.35736
286.9775
271.1531
258.21063
246.9926
236.97166
227.84534
219.40507
211.55177
204.35153
197.64585
191.32224
185.48621
180.05013
174.92212
170.17497
165.74624
161.60584
157.74423
154.07948
150.62885
147.38032
144.26986
141.38007
138.69318
136.16376
133.83853
131.71288
129.7443
127.88195
126.15971
124.56329
123.05684
121.65207
120.33517
119.10542
117.92946
116.78976
115.70185
114.65188
113.65943
112.72769
111.8516
111.04512
110.29412
109.58116
108.90602
108.27032
107.66498
107.09324
106.55954
106.05799
105.58777
105.14848
104.73289
104.33703
103.96016
103.60187
103.26426
102.94758
102.65011
102.36981
102.10522
101.85629
101.6234
101.40615
101.20366
101.01523
100.84058
100.67994
100.53351
100.40132
100.28334
100.17946
100.08926
100.0137
99.950571
99.905787
99.865783
99.8571
4990.1894
4797.7783
4603.9983
4413.423
4226.4232
4043.3353
3864.4597
3690.0617
3520.371
3355.5821
3195.8541
3041.3113
2892.0441
2748.1101
2609.5363
2476.3209
2348.4363
2225.8316
2108.4359
1996.1608
1888.9033
1786.5481
1688.9696
1596.0335
1507.5986
1423.5129
1343.6246
1267.7797
1195.8151
1127.5619
1062.8442
1001.478
943.26888
888.00869
835.47025
785.40237
737.51947
691.40937
646.78407
603.23761
560.10176
516.99382
473.72306
430.70745
389.46018
352.50846
322.0668
298.58136
280.56686
266.23935
254.21509
243.57295
233.96673
225.16917
216.99907
209.37479
202.38521
195.85846
189.68705
184.00142
178.69538
173.67084
169.03763
164.71396
160.65236
156.88133
153.30251
149.91582
146.74354
143.69713
140.85225
138.21988
135.73323
133.43607
131.34264
129.41065
127.57818
125.87866
124.30908
122.82348
121.43894
120.14112
118.92543
117.76785
116.64045
115.56425
114.52495
113.53911
112.61575
111.74594
110.94474
110.1996
109.49267
108.82232
108.19144
107.59137
107.02404
106.49487
105.99826
105.53249
105.09761
104.68657
104.2948
103.92169
103.56669
103.23182
102.9175
102.62209
102.34368
102.08081
101.83345
101.602
101.38609
101.18486
100.99762
100.8241
100.66453
100.51912
100.38786
100.27067
100.16745
100.07778
100.00265
99.939866
99.895421
99.85531
99.847397
4550.1167
4384.9047
4217.5838
4052.3233
3889.4782
3729.3771
3572.3214
3418.5843
3268.4104
3122.0143
2979.581
2841.2652
2707.1917
2577.4563
2452.1265
2331.2437
2214.8245
2102.8631
1995.3337
1892.1926
1793.3804
1698.8245
1608.44
1522.132
1439.7966
1361.316
1286.5715
1215.4413
1147.791
1083.4772
1022.3472
964.23645
908.96628
856.34047
806.14013
758.11966
711.96874
667.29961
623.84426
581.10164
538.46821
495.69744
452.85129
410.83723
371.70523
338.02027
311.17684
290.68063
274.67536
261.58565
250.33439
240.19716
230.97461
222.4914
214.58575
207.19021
200.40761
194.05652
188.0379
182.50101
177.32443
172.40609
167.88796
163.67291
159.68932
156.00557
152.51899
149.19703
146.09878
143.12067
140.31979
137.73943
135.29761
133.0301
130.96899
129.07246
127.27027
125.59405
124.05025
122.58574
121.22197
119.94356
118.7413
117.60191
116.48725
115.42252
114.39456
113.41565
112.50071
111.63771
110.84203
110.10277
109.40208
108.73688
108.11083
107.51622
106.95353
106.42897
105.93742
105.47624
105.0458
104.63939
104.25179
103.88247
103.53082
103.19873
102.88679
102.59348
102.31698
102.05587
101.81012
101.58015
101.36561
101.16567
100.97964
100.80729
100.64882
100.50444
100.37413
100.25775
100.15519
100.06607
99.991363
99.928932
99.884827
99.844617
99.837449
4151.6256
4009.6083
3865.0156
3721.6218
3579.7561
3439.7288
3301.83
3166.3286
3033.4704
2903.4771
2776.5456
2652.847
2532.5269
2415.7052
2302.4769
2192.9133
2087.0628
1984.9532
1886.5929
1791.9727
1701.0679
1613.8397
1530.2368
1450.1963
1373.6458
1300.4958
1230.6552
1164.0299
1100.5095
1039.9725
982.28474
927.29701
874.84237
824.73223
776.7527
730.66198
686.09893
642.74669
600.33579
558.24002
516.02034
473.6115
431.45616
391.03235
354.75525
324.77484
301.43402
283.55188
269.20827
257.13718
246.53946
236.85422
227.99117
219.80909
212.16464
205.00093
198.41883
192.2391
186.37591
180.9852
175.93669
171.12939
166.72637
162.62203
158.71789
155.11784
151.7284
148.47374
145.4463
142.53984
139.78321
137.2511
134.85615
132.62107
130.59234
128.72937
126.9576
125.30563
123.78626
122.3436
121.00112
119.74208
118.55294
117.43116
116.32999
115.27659
114.26048
113.28907
112.38252
111.52693
110.73699
110.00368
109.30943
108.64977
108.02856
107.43956
106.88175
106.36189
105.87549
105.41906
104.99307
104.59136
104.20802
103.84252
103.49426
103.16498
102.85543
102.56426
102.28971
102.03039
101.7863
101.55785
101.34472
101.14609
100.9613
100.79015
100.6328
100.48948
100.36014
100.24457
100.14268
100.05411
99.979836
99.917764
99.874
99.833701
99.827244
3790.2876
3668.0918
3543.0502
3418.5646
3294.9335
3172.4431
3051.3657
2931.9574
2814.457
2699.0837
2586.0365
2475.4928
2367.6083
2262.5168
2160.3301
2061.1392
1965.0147
1872.0079
1782.1527
1695.4659
1611.9496
1531.5917
1454.3675
1380.2405
1309.1635
1241.0703
1175.8929
1113.5602
1053.9816
997.05319
942.6555
890.65046
840.87811
793.15303
747.26273
702.95799
659.8467
617.68043
576.13601
534.55489
492.71699
450.82038
409.82687
371.75903
339.02113
312.90861
292.76141
277.06831
264.07929
252.85049
242.80435
233.53647
225.01336
217.11835
209.73618
202.81225
196.41823
190.40321
184.70247
179.45516
174.53156
169.84272
165.55382
161.55871
157.73871
154.22095
150.92963
147.74643
144.78693
141.9537
139.24301
136.75462
134.40833
132.20927
130.21271
128.3809
126.63951
125.01303
123.51674
122.09718
120.77622
119.53614
118.36022
117.25515
116.16849
115.12642
114.12252
113.15933
112.26113
111.41364
110.62967
109.90235
109.21475
108.56102
107.94467
107.36143
106.80875
106.29369
105.8125
105.36097
104.93946
104.54248
104.16348
103.80184
103.45701
103.13057
102.82344
102.53443
102.26187
102.00439
101.76199
101.5351
101.32341
101.12612
100.94261
100.77268
100.61647
100.47423
100.34587
100.23113
100.12992
100.0419
99.968065
99.906357
99.862932
99.822558
99.816766
3462.2033
3356.9795
3248.7787
3140.6591
3032.8878
2925.7244
2819.4196
2714.2127
2610.3297
2507.9812
2407.3612
2308.6462
2211.9944
2117.5451
2025.4194
1935.7196
1848.5305
1763.9199
1681.939
1602.6241
1525.9972
1452.0668
1380.8289
1312.268
1246.3574
1183.049
1122.2933
1064.0382
1008.209
954.71534
903.4483
854.27645
807.04197
761.55835
717.61266
674.92403
633.11224
591.99486
551.13501
509.9762
468.58466
427.54464
388.41898
353.55136
324.81114
302.4172
285.02562
271.10061
259.21776
248.68835
239.10425
230.23966
222.04022
214.41659
207.30226
200.62906
194.40211
188.54439
183.02062
177.91244
173.10816
168.54884
164.37201
160.47923
156.75194
153.31954
150.12115
147.01449
144.12207
141.36116
138.69971
136.25044
133.95397
131.79458
129.82956
128.02654
126.31545
124.71584
123.24161
121.84666
120.54697
119.32511
118.16299
117.07347
116.00264
114.97202
113.98051
113.02645
112.13653
111.2979
110.52008
109.79884
109.11814
108.47068
107.85923
107.28187
106.73458
106.22441
105.74848
105.30199
104.88499
104.49277
104.11819
103.76043
103.41906
103.09549
102.7908
102.50399
102.23346
101.97785
101.73719
101.5119
101.30169
101.10576
100.92356
100.75488
100.59985
100.4587
100.33133
100.21743
100.11691
100.02944
99.956043
99.894703
99.851616
99.811185
99.806002
3163.9343
3073.2676
2979.5902
2885.6486
2791.6798
2697.9168
2604.5878
2511.9127
2420.1013
2329.3517
2239.8483
2151.7613
2065.2456
1980.4407
1897.4702
1816.4421
1737.4491
1660.569
1585.8649
1513.3864
1443.17
1375.2394
1309.6066
1246.272
1185.2247
1126.4307
1069.8546
1015.4595
963.18268
912.94342
864.63911
818.14028
773.28585
729.884
687.72265
646.45332
605.78254
565.56776
525.22633
484.48635
443.77844
404.19715
367.83744
336.90387
312.26124
293.17751
278.07898
265.53282
254.55869
244.60788
235.42227
226.9644
219.07526
211.71171
204.86104
198.44421
192.36662
186.66436
181.33649
176.35604
171.66604
167.25145
163.18243
159.38045
155.75834
152.4182
149.30149
146.27671
143.45307
140.7612
138.1536
135.73974
133.49315
131.37638
129.44177
127.66583
125.98512
124.41363
122.96108
121.59208
120.31287
119.10839
117.96103
116.8859
115.83235
114.81344
113.83432
112.89042
112.00877
111.17975
110.40826
109.69323
109.01969
108.3788
107.77231
107.20094
106.65928
106.15413
105.68347
105.24214
104.8297
104.44225
104.07214
103.71828
103.38041
103.05976
102.75753
102.47296
102.20448
101.95078
101.71192
101.48826
101.27956
101.08503
100.90416
100.73676
100.58293
100.44289
100.31653
100.20347
100.10363
100.01672
99.943765
99.882797
99.840043
99.799577
99.794937
2892.4407
2814.2774
2733.1367
2651.4868
2569.5366
2487.4942
2405.5651
2323.9489
2242.8376
2162.4138
2082.8494
2004.3046
1926.9273
1850.8526
1776.2025
1703.0858
1631.5985
1561.8234
1493.831
1427.6793
1363.4146
1301.0717
1240.6738
1182.2331
1125.7508
1071.2025
1018.5631
967.80725
918.88022
871.7071
826.18752
782.18905
739.54148
698.04251
657.46982
617.43577
577.75816
538.24664
498.33525
458.18048
418.65656
381.40733
348.74095
322.14491
301.32336
285.00832
271.77384
260.3177
249.9644
240.52116
231.80579
223.70645
216.13178
209.04383
202.41694
196.18477
190.30201
184.80078
179.6541
174.78196
170.20939
165.95386
161.98384
158.26363
154.76104
151.5177
148.47022
145.53316
142.78023
140.15268
137.60455
135.22445
133.02602
130.95344
129.04796
127.29848
125.64859
124.10608
122.67546
121.33311
120.07323
118.88548
117.75411
116.69248
115.65757
114.6507
113.68391
112.75125
111.87795
111.05921
110.29427
109.58563
108.91953
108.2854
107.68401
107.1187
106.58294
106.0829
105.61754
105.18146
104.77363
104.39092
104.02535
103.67542
103.34107
103.02337
102.72363
102.44132
102.17494
101.92319
101.68617
101.46419
101.25703
101.06394
100.88442
100.71832
100.56571
100.42681
100.30145
100.18924
100.0901
100.00374
99.931225
99.870633
99.828207
99.787731
99.783557
2645.0232
2577.6118
2507.3015
2436.3148
2364.8361
2293.05
2221.1396
2149.2841
2077.6566
2006.4229
1935.7404
1865.757
1796.611
1728.4302
1661.3318
1595.4221
1530.7966
1467.5397
1405.7253
1345.4161
1286.6646
1229.5123
1173.9903
1120.119
1067.9077
1017.3377
968.39078
921.04908
875.26227
830.9573
788.03201
746.3465
705.7165
665.9264
626.71305
587.71559
548.89506
509.92818
470.51423
431.3583
393.84155
359.95934
331.67665
309.35492
291.81225
277.81118
265.87627
255.15807
245.471
236.53764
228.23028
220.46854
213.19169
206.36537
199.96296
193.93737
188.25468
182.92127
177.91214
173.18437
168.76793
164.6538
160.77287
157.13848
153.76532
150.61202
147.62938
144.78676
142.10226
139.53387
137.05142
134.70708
132.55257
130.52405
128.64699
126.9245
125.30625
123.79293
122.38495
121.06893
119.8274
118.65616
117.54202
116.49351
115.4782
114.48383
113.52933
112.60899
111.74422
110.93622
110.1782
109.47621
108.81777
108.1905
107.59443
107.03525
106.50561
106.01081
105.55072
105.11997
104.71683
104.33881
103.97782
103.63184
103.30103
102.98633
102.6891
102.40908
102.14484
101.89509
101.65996
101.43969
101.23411
101.04248
100.86436
100.69958
100.54822
100.41046
100.28611
100.17476
100.0763
99.990497
99.918418
99.858203
99.816097
99.77564
99.77185
2419.2656
2361.1135
2300.1692
2238.4422
2176.095
2113.2899
2050.1887
1986.9502
1923.7284
1860.6718
1797.9224
1735.6147
1673.8757
1612.8241
1552.5701
1493.2152
1434.8518
1377.5632
1321.4233
1266.4969
1212.8391
1160.4954
1109.5014
1059.882
1011.6515
964.79343
919.29199
875.13365
832.26835
790.62097
750.08364
710.50507
671.6839
633.39475
595.27742
557.13768
519.07306
480.5979
442.01565
404.61915
370.19772
340.61456
316.92222
298.36978
283.57919
271.17673
260.13232
250.2063
241.09121
232.61194
224.68166
217.2444
210.25531
203.68387
197.50383
191.68103
186.1906
181.02859
176.17504
171.60294
167.31779
163.30758
159.54195
156.03309
152.77208
149.69372
146.7843
144.0415
141.41734
138.90307
136.49186
134.18997
132.07268
130.08624
128.23859
126.54426
124.95859
123.47401
122.08943
120.7983
119.57493
118.42062
117.32462
116.28952
115.29405
114.31287
113.37074
112.46371
111.60779
110.81069
110.06016
109.3652
108.71452
108.09411
107.50371
106.95066
106.42738
105.9379
105.48308
105.05769
104.65934
104.28595
103.92957
103.58757
103.26029
102.94865
102.65398
102.37627
102.11419
101.8665
101.6333
101.41478
101.21082
101.02068
100.84397
100.68054
100.53044
100.39384
100.27051
100.16001
100.06223
99.976983
99.905338
99.8455
99.803705
99.763297
99.759802
2213.0298
2162.8519
2110.017
2056.34
2001.9636
1947.0289
1891.6769
1836.0467
1780.274
1724.4903
1668.8218
1613.3894
1558.308
1503.6864
1449.6263
1396.2226
1343.5628
1291.7269
1240.787
1190.8069
1141.8421