/*--------------------------------*- C++ -*----------------------------------*\
| =========                 |                                                 |
| \\      /  F ield         | OpenFOAM: The Open Source CFD Toolbox           |
|  \\    /   O peration     | Version:  2406                                  |
|   \\  /    A nd           | Website:  www.openfoam.com                      |
|    \\/     M anipulation  |                                                 |
\*---------------------------------------------------------------------------*/
FoamFile
{
    version     2.0;
    format      ascii;
    arch        "LSB;label=32;scalar=64";
    class       volScalarField;
    location    "0.009";
    object      rho;
}
// * * * * * * * * * * * * * * * * * * * * * * * * * * * * * * * * * * * * * //

dimensions      [1 -3 0 0 0 0 0];

internalField   nonuniform List<scalar> 
86779
(
1.197532
1.1968496
1.1965436
1.1961794
1.1958088
1.1954896
1.1952227
1.1950004
1.1948207
1.1946814
1.1945783
1.1945052
1.1944543
1.194421
1.1944009
1.194399
1.1944209
1.1944687
1.1945427
1.1946388
1.1947536
1.1948837
1.1950276
1.1951834
1.1953502
1.1955276
1.1957137
1.1959065
1.1961053
1.1963095
1.1965182
1.1967308
1.1969462
1.1971635
1.1973818
1.1975996
1.1978166
1.1980313
1.1982337
1.1984282
1.1986222
1.1988285
1.19901
1.1991704
1.1993148
1.1994381
1.1995364
1.1996055
1.1996432
1.1996521
1.1996429
1.1996307
1.1996281
1.1996399
1.1996642
1.1996967
1.1997333
1.1997717
1.1998104
1.199849
1.1998871
1.1999246
1.1999616
1.1999979
1.2000336
1.2000688
1.2001034
1.2001375
1.2001711
1.2002042
1.200237
1.2002694
1.2003015
1.2003331
1.2003643
1.2003951
1.2004256
1.2004556
1.2004852
1.2005145
1.2005433
1.2005718
1.2005999
1.2006277
1.2006551
1.2006823
1.2007092
1.2007359
1.2007622
1.2007883
1.2008141
1.2008396
1.2008649
1.2008898
1.2009146
1.200939
1.2009633
1.2009872
1.2010109
1.2010342
1.2010573
1.20108
1.2011023
1.2011241
1.2011455
1.2011665
1.2011869
1.2012068
1.2012263
1.2012453
1.201264
1.2012824
1.2013005
1.2013183
1.2013356
1.2013523
1.2013683
1.2013834
1.2013975
1.2014103
1.2014219
1.2014319
1.2014406
1.2014476
1.2014534
1.201457
1.2014598
1.1988493
1.1983784
1.1979366
1.1974507
1.1970156
1.1966499
1.1963436
1.1960896
1.1958825
1.1957171
1.1955875
1.1954873
1.1954086
1.1953433
1.1952894
1.1952501
1.1952287
1.1952312
1.1952595
1.1953119
1.1953868
1.1954834
1.1955971
1.1957246
1.1958641
1.1960147
1.1961746
1.196342
1.1965158
1.1966953
1.1968795
1.1970677
1.1972589
1.1974522
1.1976467
1.1978413
1.198035
1.198227
1.1984133
1.1985809
1.1987553
1.198947
1.1991107
1.1992554
1.1993856
1.1994961
1.1995827
1.1996415
1.1996708
1.1996748
1.1996653
1.1996565
1.1996586
1.1996741
1.1997004
1.1997332
1.1997692
1.1998063
1.1998437
1.1998808
1.1999175
1.1999537
1.1999893
1.2000244
1.200059
1.200093
1.2001265
1.2001595
1.2001921
1.2002243
1.2002562
1.2002877
1.2003189
1.2003498
1.2003802
1.2004103
1.2004401
1.2004695
1.2004985
1.2005271
1.2005554
1.2005834
1.200611
1.2006383
1.2006653
1.200692
1.2007185
1.2007448
1.2007707
1.2007965
1.2008219
1.2008471
1.2008721
1.2008968
1.2009212
1.2009454
1.2009694
1.2009931
1.2010166
1.2010398
1.2010627
1.2010852
1.2011074
1.2011291
1.2011504
1.2011712
1.2011915
1.2012113
1.2012307
1.2012497
1.2012683
1.2012866
1.2013047
1.2013224
1.2013397
1.2013564
1.2013724
1.2013875
1.2014015
1.2014143
1.2014259
1.2014359
1.2014447
1.2014516
1.2014575
1.2014611
1.2014638
1.1994678
1.1991231
1.1986328
1.1981029
1.1976397
1.1972507
1.1969228
1.1966473
1.1964183
1.1962299
1.1960765
1.1959522
1.1958511
1.1957675
1.1956994
1.1956462
1.1956097
1.1955947
1.1956036
1.1956369
1.1956962
1.1957776
1.1958768
1.195991
1.1961182
1.1962572
1.1964064
1.1965639
1.1967286
1.1968994
1.1970755
1.1972558
1.1974394
1.1976253
1.1978125
1.1979998
1.198186
1.1983704
1.1985513
1.1987071
1.1988752
1.1990596
1.1992132
1.1993486
1.1994689
1.1995689
1.1996446
1.1996924
1.199712
1.1997096
1.1996982
1.199691
1.1996958
1.1997133
1.1997401
1.1997724
1.1998073
1.199843
1.1998788
1.1999144
1.1999496
1.1999843
1.2000186
1.2000524
1.2000856
1.2001184
1.2001508
1.2001827
1.2002142
1.2002454
1.2002763
1.2003069
1.2003373
1.2003673
1.200397
1.2004263
1.2004554
1.2004841
1.2005124
1.2005405
1.2005682
1.2005956
1.2006227
1.2006494
1.200676
1.2007022
1.2007283
1.2007541
1.2007797
1.200805
1.2008301
1.200855
1.2008796
1.200904
1.2009282
1.2009521
1.2009759
1.2009994
1.2010226
1.2010456
1.2010683
1.2010906
1.2011126
1.2011342
1.2011553
1.201176
1.2011962
1.2012159
1.2012352
1.2012541
1.2012727
1.201291
1.201309
1.2013267
1.2013439
1.2013606
1.2013766
1.2013916
1.2014057
1.2014185
1.2014301
1.2014401
1.2014488
1.2014558
1.2014616
1.2014652
1.201468
1.1999301
1.1996383
1.1991569
1.1986232
1.1981499
1.1977453
1.1973975
1.1970993
1.1968461
1.1966331
1.1964553
1.1963079
1.1961864
1.1960866
1.1960063
1.1959446
1.195902
1.1958808
1.1958824
1.1959071
1.1959555
1.1960247
1.1961119
1.1962148
1.1963316
1.1964608
1.1966011
1.1967505
1.1969077
1.1970717
1.1972415
1.197416
1.1975941
1.1977749
1.1979572
1.1981398
1.1983212
1.1985013
1.1986776
1.1988257
1.1989914
1.1991698
1.1993153
1.1994434
1.1995551
1.1996453
1.1997102
1.1997468
1.1997566
1.199748
1.1997348
1.1997287
1.1997355
1.1997543
1.1997812
1.1998127
1.1998462
1.1998804
1.1999146
1.1999486
1.1999822
1.2000155
1.2000484
1.2000808
1.2001128
1.2001444
1.2001755
1.2002063
1.2002367
1.2002669
1.2002968
1.2003265
1.200356
1.2003852
1.2004141
1.2004426
1.2004709
1.200499
1.2005266
1.200554
1.2005812
1.200608
1.2006345
1.2006608
1.2006868
1.2007126
1.2007382
1.2007636
1.2007888
1.2008137
1.2008385
1.200863
1.2008873
1.2009114
1.2009353
1.200959
1.2009824
1.2010057
1.2010287
1.2010515
1.201074
1.2010962
1.201118
1.2011394
1.2011604
1.201181
1.2012011
1.2012207
1.2012399
1.2012587
1.2012772
1.2012954
1.2013134
1.201331
1.2013482
1.2013649
1.2013808
1.2013959
1.2014099
1.2014227
1.2014343
1.2014443
1.2014531
1.20146
1.2014658
1.2014694
1.2014722
1.2003679
1.2000949
1.199628
1.1991048
1.1986325
1.1982213
1.1978618
1.1975486
1.1972781
1.1970466
1.19685
1.1966846
1.1965464
1.1964322
1.1963399
1.1962684
1.1962177
1.1961887
1.1961819
1.1961973
1.1962346
1.1962921
1.1963676
1.1964592
1.1965653
1.1966843
1.1968151
1.1969555
1.1971043
1.1972603
1.1974226
1.19759
1.1977615
1.1979358
1.1981119
1.1982884
1.1984639
1.1986389
1.1988073
1.1989474
1.1991113
1.1992817
1.1994185
1.1995385
1.199641
1.1997209
1.1997745
1.1998
1.1998007
1.199787
1.1997729
1.1997684
1.1997771
1.1997967
1.1998235
1.1998539
1.1998859
1.1999185
1.199951
1.1999834
1.2000155
1.2000473
1.2000787
1.2001098
1.2001404
1.2001708
1.2002007
1.2002303
1.2002597
1.2002889
1.2003178
1.2003465
1.2003751
1.2004034
1.2004315
1.2004593
1.2004868
1.2005141
1.2005412
1.2005679
1.2005944
1.2006207
1.2006467
1.2006724
1.2006979
1.2007232
1.2007484
1.2007733
1.200798
1.2008226
1.200847
1.2008712
1.2008951
1.2009189
1.2009425
1.2009659
1.2009891
1.2010122
1.201035
1.2010575
1.2010798
1.2011018
1.2011235
1.2011448
1.2011656
1.201186
1.201206
1.2012255
1.2012446
1.2012634
1.2012818
1.2013
1.2013179
1.2013355
1.2013527
1.2013693
1.2013852
1.2014003
1.2014143
1.2014271
1.2014386
1.2014487
1.2014574
1.2014644
1.2014702
1.2014738
1.2014765
1.2007706
1.2004947
1.2000388
1.1995323
1.1990684
1.198658
1.198294
1.1979725
1.197691
1.1974467
1.1972365
1.1970571
1.1969056
1.1967793
1.1966763
1.1965953
1.1965361
1.1964986
1.1964831
1.1964891
1.1965162
1.196563
1.1966279
1.196709
1.196805
1.1969144
1.1970358
1.1971675
1.1973079
1.1974561
1.1976108
1.197771
1.1979355
1.1981031
1.1982727
1.1984427
1.198612
1.1987819
1.1989391
1.1990717
1.1992355
1.1993957
1.1995229
1.1996341
1.1997264
1.1997952
1.1998371
1.1998515
1.199844
1.1998266
1.1998126
1.1998101
1.1998205
1.1998407
1.1998669
1.1998961
1.1999265
1.1999574
1.1999882
1.200019
1.2000495
1.2000797
1.2001097
1.2001394
1.2001687
1.2001977
1.2002265
1.2002549
1.2002832
1.2003113
1.2003392
1.2003669
1.2003946
1.200422
1.2004493
1.2004763
1.2005031
1.2005297
1.200556
1.2005821
1.200608
1.2006336
1.2006591
1.2006843
1.2007093
1.2007341
1.2007588
1.2007832
1.2008076
1.2008317
1.2008557
1.2008795
1.2009032
1.2009266
1.2009499
1.2009731
1.200996
1.2010188
1.2010414
1.2010637
1.2010858
1.2011076
1.2011291
1.2011502
1.2011709
1.2011912
1.2012111
1.2012305
1.2012495
1.2012682
1.2012865
1.2013046
1.2013225
1.20134
1.2013572
1.2013738
1.2013897
1.2014047
1.2014188
1.2014315
1.2014431
1.2014531
1.2014618
1.2014688
1.2014746
1.2014782
1.201481
1.2011332
1.2008422
1.2003941
1.1999075
1.199457
1.1990525
1.1986891
1.1983644
1.1980767
1.197824
1.197604
1.1974143
1.1972524
1.1971162
1.1970041
1.1969148
1.1968476
1.1968024
1.1967787
1.1967763
1.1967943
1.1968316
1.1968868
1.1969584
1.1970451
1.1971455
1.1972582
1.1973814
1.1975138
1.1976543
1.1978018
1.1979549
1.1981126
1.1982735
1.1984365
1.1986001
1.1987632
1.1989281
1.1990705
1.1991994
1.199363
1.1995107
1.199628
1.1997297
1.1998112
1.1998682
1.199898
1.1999017
1.1998871
1.1998673
1.1998544
1.199854
1.1998658
1.1998862
1.1999115
1.1999392
1.199968
1.1999971
1.2000262
1.2000553
1.2000842
1.2001129
1.2001413
1.2001696
1.2001975
1.2002253
1.2002528
1.20028
1.2003071
1.2003341
1.200361
1.2003878
1.2004145
1.2004411
1.2004674
1.2004936
1.2005196
1.2005455
1.2005711
1.2005966
1.2006218
1.2006469
1.2006717
1.2006964
1.2007209
1.2007452
1.2007694
1.2007934
1.2008173
1.200841
1.2008647
1.2008881
1.2009114
1.2009345
1.2009575
1.2009803
1.201003
1.2010255
1.2010479
1.20107
1.2010919
1.2011136
1.2011349
1.2011558
1.2011764
1.2011965
1.2012163
1.2012356
1.2012545
1.201273
1.2012913
1.2013094
1.2013272
1.2013447
1.2013618
1.2013784
1.2013943
1.2014093
1.2014233
1.2014361
1.2014476
1.2014577
1.2014664
1.2014733
1.2014791
1.2014828
1.2014855
1.2014586
1.2011472
1.2007059
1.2002403
1.1998058
1.1994105
1.1990516
1.1987276
1.1984377
1.1981804
1.1979542
1.1977572
1.1975877
1.1974438
1.1973242
1.1972278
1.1971537
1.1971014
1.1970704
1.1970603
1.1970701
1.1970989
1.1971454
1.1972082
1.1972863
1.1973783
1.1974827
1.1975978
1.1977225
1.1978556
1.1979958
1.198142
1.1982928
1.1984471
1.1986035
1.1987603
1.1989171
1.199075
1.1992042
1.1993324
1.1994914
1.1996262
1.1997336
1.199825
1.199895
1.1999396
1.199957
1.1999507
1.1999305
1.1999097
1.1998984
1.1999001
1.1999129
1.1999331
1.1999573
1.1999834
1.2000104
1.2000377
1.200065
1.2000923
1.2001196
1.2001467
1.2001736
1.2002004
1.200227
1.2002534
1.2002796
1.2003057
1.2003316
1.2003575
1.2003833
1.2004091
1.2004348
1.2004605
1.200486
1.2005114
1.2005366
1.2005617
1.2005866
1.2006114
1.200636
1.2006604
1.2006847
1.2007088
1.2007327
1.2007565
1.2007802
1.2008038
1.2008272
1.2008506
1.2008738
1.2008968
1.2009198
1.2009426
1.2009653
1.2009878
1.2010102
1.2010325
1.2010546
1.2010765
1.2010982
1.2011196
1.2011408
1.2011615
1.201182
1.201202
1.2012216
1.2012408
1.2012596
1.2012781
1.2012963
1.2013143
1.201332
1.2013495
1.2013666
1.2013831
1.201399
1.201414
1.201428
1.2014408
1.2014523
1.2014623
1.201471
1.201478
1.2014838
1.2014874
1.2014902
1.2017463
1.2014173
1.2009829
1.200538
1.2001204
1.1997365
1.1993849
1.1990647
1.1987757
1.1985172
1.1982878
1.1980865
1.1979118
1.1977623
1.1976369
1.1975346
1.1974545
1.1973961
1.1973587
1.1973417
1.1973442
1.1973653
1.1974039
1.1974588
1.1975289
1.197613
1.1977095
1.197817
1.1979343
1.1980601
1.1981932
1.1983325
1.1984765
1.198624
1.1987736
1.1989237
1.1990739
1.1992232
1.1993411
1.1994687
1.19962
1.1997419
1.1998393
1.1999195
1.1999772
1.2000088
1.2000142
1.1999989
1.1999746
1.199954
1.1999449
1.1999483
1.1999618
1.1999814
1.2000042
1.2000285
1.2000537
1.2000791
1.2001045
1.2001301
1.2001557
1.2001812
1.2002066
1.2002319
1.200257
1.2002821
1.200307
1.2003318
1.2003566
1.2003813
1.2004061
1.2004308
1.2004556
1.2004804
1.200505
1.2005295
1.2005539
1.2005783
1.2006025
1.2006265
1.2006505
1.2006743
1.200698
1.2007215
1.2007449
1.2007681
1.2007913
1.2008144
1.2008374
1.2008603
1.2008831
1.2009058
1.2009284
1.2009509
1.2009732
1.2009954
1.2010176
1.2010396
1.2010614
1.2010831
1.2011046
1.2011258
1.2011468
1.2011674
1.2011877
1.2012075
1.201227
1.2012461
1.2012648
1.2012832
1.2013013
1.2013192
1.2013369
1.2013544
1.2013714
1.2013879
1.2014038
1.2014188
1.2014328
1.2014455
1.2014571
1.2014671
1.2014758
1.2014827
1.2014886
1.2014922
1.2014949
1.2019951
1.2016561
1.2012322
1.2008067
1.2004057
1.2000343
1.1996917
1.1993778
1.1990924
1.1988351
1.1986053
1.198402
1.1982244
1.1980712
1.1979417
1.1978349
1.19775
1.1976864
1.1976434
1.1976203
1.1976164
1.1976307
1.1976622
1.1977099
1.1977726
1.1978494
1.1979386
1.1980388
1.1981489
1.1982677
1.1983939
1.1985263
1.1986635
1.1988042
1.198947
1.1990901
1.1992338
1.1993728
1.1994802
1.1996073
1.1997489
1.1998578
1.1999446
1.2000128
1.2000573
1.2000757
1.2000695
1.2000468
1.2000201
1.2000006
1.1999937
1.1999987
1.2000123
1.2000309
1.2000522
1.2000745
1.2000978
1.2001213
1.2001448
1.2001687
1.2001926
1.2002163
1.2002402
1.200264
1.2002877
1.2003113
1.200335
1.2003585
1.2003821
1.2004057
1.2004294
1.200453
1.2004768
1.2005006
1.2005244
1.2005481
1.2005716
1.2005952
1.2006187
1.200642
1.2006653
1.2006884
1.2007115
1.2007344
1.2007573
1.20078
1.2008027
1.2008253
1.2008478
1.2008703
1.2008927
1.200915
1.2009372
1.2009593
1.2009813
1.2010033
1.2010251
1.2010468
1.2010684
1.2010899
1.2011112
1.2011322
1.201153
1.2011734
1.2011935
1.2012132
1.2012326
1.2012515
1.2012701
1.2012884
1.2013065
1.2013244
1.201342
1.2013594
1.2013764
1.2013929
1.2014087
1.2014237
1.2014376
1.2014504
1.2014619
1.201472
1.2014807
1.2014876
1.2014934
1.2014971
1.2014998
1.2022053
1.2018638
1.2014565
1.2010498
1.2006649
1.2003067
1.1999746
1.1996687
1.199389
1.1991352
1.1989072
1.1987042
1.1985255
1.1983705
1.1982384
1.1981284
1.1980398
1.1979721
1.1979244
1.1978962
1.1978867
1.197895
1.1979202
1.1979613
1.1980174
1.1980873
1.1981696
1.1982629
1.1983662
1.1984781
1.1985976
1.1987232
1.1988536
1.1989875
1.1991232
1.1992595
1.1993971
1.1995227
1.1996205
1.1997485
1.1998781
1.1999735
1.2000488
1.2001041
1.2001349
1.2001401
1.2001233
1.2000949
1.2000673
1.2000497
1.200045
1.2000509
1.2000643
1.2000817
1.2001011
1.2001215
1.2001427
1.2001644
1.2001859
1.2002079
1.2002301
1.2002522
1.2002744
1.2002967
1.2003189
1.2003412
1.2003635
1.2003858
1.2004081
1.2004305
1.2004531
1.2004757
1.2004984
1.2005213
1.2005442
1.200567
1.2005897
1.2006125
1.2006352
1.2006578
1.2006804
1.2007029
1.2007253
1.2007477
1.2007699
1.2007921
1.2008143
1.2008364
1.2008584
1.2008805
1.2009024
1.2009243
1.2009462
1.200968
1.2009896
1.2010113
1.2010328
1.2010542
1.2010756
1.2010968
1.2011179
1.2011387
1.2011593
1.2011796
1.2011995
1.2012191
1.2012383
1.2012571
1.2012756
1.2012938
1.2013118
1.2013296
1.2013472
1.2013645
1.2013815
1.2013979
1.2014137
1.2014287
1.2014427
1.2014554
1.2014669
1.201477
1.2014857
1.2014926
1.2014984
1.201502
1.2015048
1.2023799
1.2020432
1.2016549
1.2012679
1.2008998
1.2005558
1.2002357
1.1999394
1.1996671
1.1994188
1.1991944
1.1989935
1.1988157
1.1986604
1.1985272
1.1984153
1.1983241
1.1982532
1.1982018
1.1981694
1.1981551
1.1981582
1.1981778
1.198213
1.198263
1.1983266
1.1984025
1.1984893
1.198586
1.1986914
1.1988042
1.1989231
1.1990467
1.1991736
1.1993022
1.1994315
1.1995631
1.1996711
1.1997637
1.1998924
1.2000067
1.2000883
1.2001514
1.200193
1.2002096
1.2002019
1.200176
1.2001439
1.2001168
1.2001014
1.2000986
1.2001051
1.2001177
1.2001336
1.2001511
1.2001693
1.2001885
1.2002082
1.2002278
1.2002479
1.2002684
1.2002887
1.2003093
1.20033
1.2003508
1.2003717
1.2003926
1.2004136
1.2004347
1.2004559
1.2004773
1.2004989
1.2005206
1.2005425
1.2005644
1.2005863
1.2006082
1.2006302
1.2006521
1.200674
1.2006958
1.2007177
1.2007395
1.2007612
1.2007829
1.2008045
1.2008262
1.2008478
1.2008693
1.2008909
1.2009124
1.2009339
1.2009554
1.2009768
1.2009981
1.2010194
1.2010407
1.2010618
1.2010829
1.2011039
1.2011247
1.2011454
1.2011658
1.2011858
1.2012056
1.2012251
1.2012441
1.2012628
1.2012812
1.2012993
1.2013172
1.2013349
1.2013525
1.2013698
1.2013867
1.2014031
1.2014189
1.2014338
1.2014478
1.2014605
1.201472
1.2014821
1.2014908
1.2014977
1.2015035
1.2015072
1.2015099
1.2025242
1.2021966
1.201829
1.2014628
1.2011127
1.2007841
1.2004771
1.2001917
1.1999283
1.199687
1.1994678
1.1992707
1.1990952
1.1989412
1.1988081
1.1986956
1.198603
1.1985299
1.1984758
1.1984399
1.1984216
1.1984203
1.198435
1.198465
1.1985094
1.1985673
1.1986372
1.1987179
1.1988083
1.1989073
1.1990136
1.1991258
1.1992426
1.1993624
1.1994836
1.1996053
1.1997284
1.1998212
1.1999127
1.2000356
1.2001335
1.2002018
1.2002516
1.2002787
1.200281
1.2002614
1.2002284
1.2001945
1.2001688
1.2001558
1.2001545
1.2001609
1.2001724
1.2001866
1.200202
1.2002179
1.2002352
1.2002529
1.2002703
1.2002887
1.2003074
1.2003259
1.2003448
1.200364
1.2003832
1.2004027
1.2004223
1.2004419
1.2004617
1.2004818
1.200502
1.2005225
1.2005431
1.200564
1.200585
1.200606
1.200627
1.2006482
1.2006693
1.2006905
1.2007116
1.2007328
1.200754
1.2007751
1.2007961
1.2008172
1.2008383
1.2008594
1.2008804
1.2009015
1.2009227
1.2009437
1.2009648
1.2009858
1.2010068
1.2010278
1.2010487
1.2010696
1.2010904
1.2011112
1.2011318
1.2011522
1.2011724
1.2011923
1.2012119
1.2012312
1.2012501
1.2012687
1.201287
1.201305
1.2013228
1.2013404
1.2013579
1.2013751
1.201392
1.2014084
1.2014242
1.2014391
1.201453
1.2014658
1.2014773
1.2014873
1.201496
1.201503
1.2015087
1.2015124
1.2015151
1.2026435
1.2023279
1.2019819
1.2016373
1.201306
1.2009937
1.2007008
1.2004275
1.2001742
1.1999412
1.1997287
1.1995366
1.1993649
1.1992134
1.1990818
1.1989697
1.1988767
1.1988024
1.1987463
1.1987079
1.1986864
1.1986814
1.1986919
1.1987173
1.1987567
1.1988093
1.1988736
1.1989485
1.1990329
1.1991257
1.1992256
1.1993312
1.1994411
1.1995536
1.1996672
1.199781
1.1998938
1.1999742
1.200064
1.200177
1.2002582
1.2003132
1.2003486
1.2003607
1.200349
1.2003191
1.2002811
1.2002471
1.2002237
1.2002129
1.2002126
1.2002184
1.2002284
1.2002406
1.2002538
1.2002674
1.2002826
1.2002983
1.2003136
1.2003301
1.2003471
1.2003637
1.200381
1.2003987
1.2004163
1.2004343
1.2004525
1.2004707
1.2004894
1.2005081
1.2005272
1.2005466
1.2005662
1.200586
1.2006061
1.2006262
1.2006463
1.2006666
1.200687
1.2007073
1.2007278
1.2007482
1.2007687
1.2007892
1.2008097
1.2008302
1.2008507
1.2008713
1.2008918
1.2009124
1.2009331
1.2009538
1.2009744
1.2009951
1.2010157
1.2010364
1.201057
1.2010776
1.2010981
1.2011186
1.201139
1.2011592
1.2011792
1.2011989
1.2012183
1.2012374
1.2012562
1.2012747
1.2012928
1.2013108
1.2013285
1.2013461
1.2013635
1.2013806
1.2013975
1.2014139
1.2014296
1.2014445
1.2014584
1.2014712
1.2014827
1.2014927
1.2015014
1.2015083
1.2015141
1.2015177
1.2015205
1.2027429
1.2024423
1.2021179
1.2017947
1.2014825
1.2011871
1.200909
1.2006487
1.2004065
1.2001829
1.1999781
1.1997923
1.1996255
1.1994776
1.1993485
1.1992379
1.1991455
1.1990709
1.1990137
1.1989735
1.1989496
1.1989415
1.1989485
1.1989698
1.1990048
1.1990525
1.1991117
1.1991811
1.1992598
1.1993465
1.19944
1.199539
1.1996419
1.1997471
1.1998529
1.1999586
1.2000591
1.2001282
1.2002163
1.2003161
1.2003807
1.2004215
1.2004418
1.2004386
1.2004139
1.2003757
1.2003351
1.2003025
1.2002815
1.2002723
1.2002725
1.2002772
1.2002854
1.2002956
1.2003065
1.2003176
1.2003308
1.2003445
1.2003576
1.2003723
1.2003875
1.2004022
1.2004178
1.2004339
1.2004499
1.2004665
1.2004834
1.2005001
1.2005175
1.200535
1.2005529
1.2005712
1.2005897
1.2006085
1.2006275
1.2006468
1.2006659
1.2006854
1.200705
1.2007246
1.2007442
1.200764
1.2007838
1.2008037
1.2008235
1.2008434
1.2008634
1.2008834
1.2009034
1.2009236
1.2009438
1.200964
1.2009843
1.2010045
1.2010248
1.2010451
1.2010654
1.2010857
1.201106
1.2011262
1.2011463
1.2011663
1.2011861
1.2012056
1.2012249
1.2012439
1.2012625
1.2012808
1.2012989
1.2013167
1.2013343
1.2013518
1.2013692
1.2013863
1.2014031
1.2014194
1.2014351
1.20145
1.2014639
1.2014767
1.2014881
1.2014982
1.2015069
1.2015138
1.2015196
1.2015232
1.201526
1.2028289
1.202544
1.2022404
1.2019381
1.201645
1.2013667
1.2011039
1.2008572
1.2006269
1.2004135
1.2002174
1.2000389
1.199878
1.1997347
1.199609
1.1995008
1.1994098
1.1993358
1.1992783
1.199237
1.1992114
1.1992009
1.1992049
1.1992227
1.1992537
1.1992969
1.1993513
1.1994155
1.1994887
1.1995695
1.1996568
1.1997491
1.1998449
1.1999425
1.2000405
1.200138
1.2002227
1.200282
1.2003691
1.2004525
1.2005
1.2005259
1.2005303
1.2005122
1.2004763
1.2004324
1.2003911
1.2003609
1.2003422
1.200334
1.2003341
1.2003373
1.2003436
1.2003515
1.2003601
1.2003686
1.2003797
1.2003915
1.2004023
1.2004151
1.2004286
1.2004413
1.2004553
1.2004699
1.2004841
1.2004993
1.2005148
1.2005301
1.2005462
1.2005625
1.2005791
1.2005963
1.2006137
1.2006314
1.2006494
1.2006677
1.200686
1.2007046
1.2007233
1.2007421
1.2007611
1.2007801
1.2007992
1.2008185
1.2008377
1.200857
1.2008763
1.2008958
1.2009153
1.200935
1.2009547
1.2009745
1.2009944
1.2010142
1.2010341
1.2010541
1.2010741
1.2010941
1.201114
1.201134
1.2011539
1.2011736
1.2011932
1.2012125
1.2012316
1.2012504
1.2012689
1.2012871
1.201305
1.2013227
1.2013403
1.2013577
1.201375
1.2013921
1.2014089
1.2014252
1.2014408
1.2014557
1.2014696
1.2014823
1.2014938
1.2015038
1.2015125
1.2015194
1.2015252
1.2015289
1.2015316
1.202904
1.2026351
1.2023518
1.20207
1.2017959
1.2015348
1.2012877
1.2010549
1.2008371
1.2006346
1.200448
1.2002774
1.2001232
1.1999854
1.199864
1.199759
1.1996702
1.1995974
1.1995403
1.1994986
1.1994719
1.1994596
1.1994611
1.1994759
1.1995034
1.1995426
1.1995924
1.1996517
1.1997195
1.1997945
1.1998755
1.1999611
1.2000497
1.2001394
1.2002295
1.2003183
1.2003816
1.2004374
1.2005222
1.2005849
1.2006153
1.2006253
1.2006136
1.2005818
1.200537
1.2004902
1.20045
1.2004226
1.2004055
1.2003976
1.2003974
1.2003985
1.2004026
1.2004084
1.2004144
1.2004202
1.2004293
1.2004394
1.2004477
1.2004586
1.2004704
1.200481
1.2004934
1.2005064
1.200519
1.2005326
1.2005468
1.2005606
1.2005753
1.2005904
1.2006057
1.2006218
1.2006381
1.2006547
1.2006718
1.2006892
1.2007065
1.2007241
1.2007421
1.2007601
1.2007782
1.2007966
1.200815
1.2008335
1.2008521
1.2008708
1.2008896
1.2009085
1.2009275
1.2009466
1.2009659
1.2009853
1.2010047
1.2010241
1.2010437
1.2010633
1.2010829
1.2011026
1.2011223
1.201142
1.2011616
1.2011811
1.2012005
1.2012196
1.2012385
1.2012572
1.2012755
1.2012935
1.2013114
1.201329
1.2013464
1.2013638
1.201381
1.201398
1.2014147
1.201431
1.2014467
1.2014615
1.2014754
1.2014881
1.2014996
1.2015096
1.2015182
1.2015252
1.201531
1.2015346
1.2015374
1.2029694
1.2027175
1.2024543
1.2021926
1.2019374
1.2016936
1.2014623
1.2012439
1.2010389
1.2008478
1.2006712
1.2005093
1.2003624
1.2002307
1.2001143
1.2000131
1.1999272
1.1998563
1.1998002
1.1997588
1.1997314
1.1997178
1.1997174
1.1997297
1.1997539
1.1997894
1.199835
1.1998895
1.199952
1.2000213
1.200096
1.2001747
1.2002557
1.2003373
1.2004188
1.200495
1.2005406
1.2005965
1.20067
1.2007118
1.2007255
1.2007188
1.2006915
1.2006481
1.2005975
1.2005502
1.2005119
1.2004872
1.2004709
1.200463
1.2004621
1.2004608
1.2004626
1.200466
1.2004695
1.2004725
1.2004797
1.2004881
1.2004936
1.2005028
1.200513
1.2005214
1.200532
1.2005436
1.2005543
1.2005665
1.2005793
1.2005916
1.200605
1.2006189
1.2006329
1.2006478
1.2006631
1.2006786
1.2006945
1.200711
1.2007273
1.2007441
1.2007612
1.2007784
1.2007958
1.2008134
1.2008311
1.200849
1.2008669
1.2008849
1.2009031
1.2009214
1.2009399
1.2009585
1.2009773
1.2009962
1.2010152
1.2010343
1.2010534
1.2010727
1.2010919
1.2011113
1.2011307
1.2011501
1.2011695
1.2011888
1.2012079
1.2012269
1.2012456
1.2012641
1.2012822
1.2013001
1.2013178
1.2013353
1.2013527
1.20137
1.2013871
1.2014041
1.2014208
1.201437
1.2014526
1.2014675
1.2014813
1.201494
1.2015055
1.2015155
1.2015242
1.2015311
1.2015369
1.2015405
1.2015433
1.203028
1.2027937
1.2025502
1.2023085
1.202072
1.2018455
1.20163
1.2014261
1.2012342
1.2010548
1.2008886
1.2007357
1.2005967
1.2004716
1.2003607
1.2002639
1.2001814
1.200113
1.2000585
1.2000177
1.1999903
1.1999759
1.1999739
1.1999839
1.2000053
1.2000373
1.2000788
1.2001288
1.200186
1.2002495
1.2003178
1.2003894
1.2004625
1.2005359
1.2006083
1.2006674
1.2006993
1.2007551
1.2008118
1.2008327
1.2008294
1.2008059
1.2007645
1.2007125
1.2006591
1.200613
1.2005766
1.2005542
1.2005384
1.2005309
1.2005279
1.200524
1.2005233
1.200524
1.2005254
1.2005258
1.2005311
1.2005371
1.20054
1.2005478
1.2005562
1.2005623
1.2005713
1.2005815
1.2005903
1.2006009
1.2006125
1.2006231
1.2006353
1.2006479
1.2006605
1.2006743
1.2006885
1.2007028
1.2007178
1.2007333
1.2007486
1.2007645
1.2007807
1.2007971
1.2008137
1.2008305
1.2008475
1.2008647
1.2008819
1.2008994
1.2009169
1.2009347
1.2009526
1.2009707
1.200989
1.2010074
1.201026
1.2010446
1.2010634
1.2010823
1.2011012
1.2011203
1.2011394
1.2011585
1.2011776
1.2011967
1.2012156
1.2012343
1.2012528
1.2012711
1.2012891
1.2013069
1.2013245
1.2013419
1.2013591
1.2013763
1.2013934
1.2014103
1.201427
1.2014432
1.2014588
1.2014736
1.2014874
1.2015001
1.2015116
1.2015216
1.2015302
1.2015372
1.2015429
1.2015466
1.2015494
1.2030835
1.2028668
1.2026426
1.2024202
1.2022021
1.2019927
1.201793
1.2016035
1.2014247
1.2012573
1.2011016
1.2009581
1.2008272
1.2007092
1.2006041
1.2005122
1.2004335
1.200368
1.2003155
1.2002759
1.2002488
1.2002339
1.2002307
1.2002388
1.2002576
1.2002863
1.2003239
1.2003692
1.2004213
1.2004788
1.2005405
1.2006046
1.2006695
1.2007344
1.200797
1.2008328
1.2008577
1.2009119
1.2009464
1.2009466
1.2009259
1.2008864
1.2008336
1.2007765
1.2007229
1.2006782
1.2006437
1.2006236
1.20061
1.200601
1.2005936
1.2005879
1.2005845
1.2005825
1.2005813
1.2005807
1.2005836
1.2005859
1.2005872
1.2005936
1.2005999
1.2006036
1.2006113
1.20062
1.2006267
1.2006359
1.2006462
1.2006552
1.200666
1.2006774
1.2006887
1.2007012
1.2007143
1.2007276
1.2007414
1.200756
1.2007704
1.2007852
1.2008006
1.2008162
1.200832
1.200848
1.2008642
1.2008807
1.2008973
1.2009141
1.2009311
1.2009482
1.2009656
1.2009832
1.2010009
1.2010189
1.201037
1.2010552
1.2010736
1.2010921
1.2011107
1.2011294
1.2011482
1.201167
1.2011859
1.2012047
1.2012234
1.2012419
1.2012603
1.2012784
1.2012962
1.2013138
1.2013313
1.2013485
1.2013657
1.2013828
1.2013999
1.2014167
1.2014333
1.2014495
1.201465
1.2014798
1.2014936
1.2015063
1.2015178
1.2015278
1.2015364
1.2015434
1.2015491
1.2015528
1.2015556
1.2031391
1.2029392
1.2027336
1.2025301
1.2023301
1.2021375
1.2019533
1.2017782
1.2016125
1.2014569
1.2013118
1.2011779
1.2010553
1.2009445
1.2008456
1.2007588
1.2006843
1.200622
1.2005718
1.2005336
1.2005072
1.2004921
1.200488
1.2004944
1.2005107
1.2005362
1.2005699
1.2006107
1.2006574
1.2007088
1.2007635
1.2008197
1.2008758
1.2009309
1.2009793
1.2009954
1.2010189
1.2010607
1.2010712
1.2010525
1.2010148
1.2009613
1.2009006
1.2008416
1.2007883
1.2007446
1.2007168
1.2006987
1.2006823
1.20067
1.2006602
1.2006523
1.2006463
1.2006418
1.2006382
1.2006358
1.2006356
1.2006357
1.2006364
1.20064
1.2006434
1.2006458
1.2006521
1.2006589
1.2006636
1.2006716
1.2006805
1.2006878
1.2006972
1.2007075
1.2007173
1.2007286
1.2007407
1.2007528
1.2007655
1.2007791
1.2007925
1.2008064
1.2008209
1.2008356
1.2008506
1.2008659
1.2008813
1.2008971
1.200913
1.2009291
1.2009455
1.200962
1.2009788
1.2009959
1.2010131
1.2010306
1.2010483
1.2010661
1.201084
1.2011021
1.2011204
1.2011388
1.2011573
1.2011758
1.2011944
1.2012129
1.2012314
1.2012497
1.2012679
1.2012858
1.2013035
1.2013209
1.2013382
1.2013554
1.2013725
1.2013895
1.2014065
1.2014233
1.2014398
1.2014559
1.2014715
1.2014862
1.2015001
1.2015127
1.2015242
1.2015342
1.2015428
1.2015498
1.2015555
1.2015592
1.201562
1.2031988
1.2030129
1.2028252
1.2026404
1.2024583
1.2022822
1.2021133
1.2019522
1.2017993
1.2016554
1.2015209
1.2013963
1.2012821
1.2011786
1.201086
1.2010046
1.2009344
1.2008755
1.2008279
1.2007914
1.2007658
1.2007507
1.2007458
1.2007506
1.2007646
1.2007869
1.2008167
1.2008527
1.2008938
1.2009387
1.200986
1.2010337
1.2010807
1.2011255
1.2011547
1.2011547
1.2011768
1.2011994
1.2011862
1.2011495
1.2010964
1.2010318
1.2009669
1.2009081
1.2008551
1.2008194
1.200795
1.2007726
1.2007544
1.2007398
1.2007277
1.2007174
1.2007088
1.2007017
1.2006958
1.2006913
1.2006885
1.2006865
1.2006854
1.2006863
1.2006877
1.2006893
1.2006935
1.2006977
1.2007012
1.200708
1.2007152
1.2007208
1.200729
1.2007381
1.2007465
1.2007564
1.2007675
1.2007785
1.20079
1.2008026
1.200815
1.200828
1.2008416
1.2008555
1.2008696
1.2008841
1.2008987
1.2009138
1.2009291
1.2009445
1.2009602
1.2009762
1.2009924
1.2010089
1.2010256
1.2010426
1.2010598
1.2010772
1.2010947
1.2011124
1.2011303
1.2011483
1.2011665
1.2011848
1.2012031
1.2012214
1.2012396
1.2012577
1.2012756
1.2012934
1.2013109
1.2013282
1.2013454
1.2013624
1.2013794
1.2013964
1.2014133
1.20143
1.2014465
1.2014626
1.2014781
1.2014928
1.2015066
1.2015193
1.2015307
1.2015407
1.2015494
1.2015563
1.2015621
1.2015657
1.2015685
1.2032572
1.2030876
1.2029185
1.2027531
1.202589
1.2024293
1.2022752
1.2021276
1.2019871
1.2018544
1.2017302
1.2016148
1.2015088
1.2014125
1.2013263
1.2012502
1.2011845
1.2011292
1.2010842
1.2010495
1.2010249
1.2010099
1.2010043
1.2010075
1.2010191
1.2010381
1.2010637
1.2010947
1.2011298
1.2011677
1.2012069
1.2012456
1.201283
1.2013164
1.2013196
1.2013101
1.201329
1.2013263
1.2012906
1.2012377
1.201172
1.2010993
1.2010333
1.2009759
1.2009313
1.2008999
1.2008713
1.2008474
1.2008274
1.2008105
1.2007958
1.2007829
1.2007718
1.2007622
1.2007539
1.2007471
1.2007419
1.2007378
1.2007348
1.2007334
1.2007329
1.200733
1.2007348
1.2007373
1.20074
1.2007449
1.20075
1.2007545
1.2007615
1.200769
1.2007761
1.2007847
1.2007948
1.2008047
1.200815
1.2008266
1.200838
1.2008499
1.2008627
1.2008757
1.200889
1.2009027
1.2009165
1.2009309
1.2009455
1.2009602
1.2009752
1.2009906
1.2010062
1.2010222
1.2010384
1.2010549
1.2010716
1.2010885
1.2011056
1.2011229
1.2011404
1.2011581
1.201176
1.201194
1.201212
1.20123
1.201248
1.2012659
1.2012836
1.2013012
1.2013185
1.2013357
1.2013527
1.2013697
1.2013865
1.2014034
1.2014202
1.2014369
1.2014533
1.2014694
1.2014849
1.2014996
1.2015134
1.201526
1.2015374
1.2015474
1.2015561
1.201563
1.2015688
1.2015725
1.2015752
1.2033259
1.2031777
1.2030219
1.2028736
1.2027264
1.202582
1.2024417
1.2023067
1.2021777
1.2020557
1.2019412
1.2018346
1.2017366
1.2016473
1.2015672
1.2014965
1.2014352
1.2013834
1.2013412
1.2013083
1.2012846