/*--------------------------------*- C++ -*----------------------------------*\
| =========                 |                                                 |
| \\      /  F ield         | OpenFOAM: The Open Source CFD Toolbox           |
|  \\    /   O peration     | Version:  2406                                  |
|   \\  /    A nd           | Website:  www.openfoam.com                      |
|    \\/     M anipulation  |                                                 |
\*---------------------------------------------------------------------------*/
FoamFile
{
    version     2.0;
    format      ascii;
    arch        "LSB;label=32;scalar=64";
    class       volScalarField;
    location    "0.011";
    object      alphat;
}
// * * * * * * * * * * * * * * * * * * * * * * * * * * * * * * * * * * * * * //

dimensions      [1 -1 -1 0 0 0 0];

internalField   nonuniform List<scalar> 
86779
(
0.039889592
0.043103079
0.046456677
0.049860164
0.053277171
0.056685837
0.060068102
0.063409219
0.066697466
0.069926969
0.073084572
0.076159425
0.079141901
0.082022234
0.084789195
0.087431278
0.08993619
0.092290637
0.094481067
0.096493377
0.098313403
0.099926673
0.10131812
0.10247206
0.10337234
0.10400246
0.10434647
0.10438614
0.10410387
0.10348218
0.10250379
0.10115194
0.099410826
0.097266088
0.094705466
0.09171952
0.088302714
0.084454701
0.080180419
0.075492023
0.070416548
0.064992215
0.059267864
0.053312227
0.047215728
0.041094124
0.035097736
0.029421558
0.024308396
0.020046046
0.0168479
0.01468918
0.013308348
0.01239983
0.011735289
0.011198561
0.010734655
0.010318908
0.0099407483
0.0095942624
0.0092747264
0.0089796899
0.0087070465
0.0084535845
0.0082179494
0.0079991808
0.0077949577
0.007605136
0.0074287861
0.0072641215
0.007111757
0.0069716212
0.0068411384
0.0067198541
0.006607789
0.006502687
0.0064034952
0.0063102082
0.0062221823
0.0061387908
0.0060612771
0.0059893512
0.0059221065
0.005860566
0.0058040617
0.0057510324
0.0057013775
0.0056545702
0.0056104175
0.0055683829
0.0055281529
0.0054904843
0.0054548616
0.0054208724
0.0053891387
0.0053592856
0.0053308442
0.0053041065
0.0052791025
0.0052554727
0.005233269
0.0052126045
0.0051930609
0.0051745544
0.005157142
0.0051406871
0.0051251958
0.0051106772
0.0050971001
0.0050844108
0.00507251
0.0050613427
0.0050508541
0.0050410053
0.0050318409
0.0050233763
0.0050156195
0.0050085586
0.0050021769
0.0049964628
0.0049914179
0.0049870081
0.0049833104
0.0049801889
0.0049780036
0.0049759177
0.0049757689
0.044052742
0.047323133
0.050600848
0.05388828
0.057176358
0.060450342
0.063695554
0.066899588
0.070051683
0.073142893
0.076162764
0.079101009
0.081947497
0.084691616
0.087322053
0.089826966
0.092193532
0.094408232
0.096457135
0.09832583
0.099999859
0.10146496
0.10270589
0.10370687
0.10445171
0.10492386
0.1051069
0.10498335
0.10453555
0.10374623
0.10259842
0.10107579
0.099163121
0.09684678
0.09411544
0.090960846
0.087378875
0.083371003
0.078945202
0.07411351
0.06890679
0.063369288
0.057552024
0.051528575
0.045395229
0.039275472
0.033330849
0.027772984
0.02286899
0.018906295
0.016046824
0.014179293
0.012992556
0.012186974
0.011576004
0.011067884
0.010621365
0.010218005
0.0098499398
0.0095120891
0.0092000725
0.008911841
0.0086453978
0.0083973488
0.0081666061
0.0079524396
0.0077522548
0.0075660541
0.0073932199
0.0072316492
0.0070819659
0.0069444764
0.0068165646
0.0066975566
0.0065874119
0.0064840824
0.0063866269
0.0062947835
0.0062080583
0.0061260204
0.0060496355
0.0059788668
0.0059126915
0.0058520094
0.0057963269
0.0057440141
0.0056949421
0.005648663
0.0056049571
0.0055633883
0.0055235382
0.0054861661
0.0054508895
0.0054171804
0.0053856708
0.0053560846
0.0053278725
0.0053013323
0.0052765518
0.0052531286
0.0052310962
0.0052105969
0.0051912127
0.0051728433
0.0051555548
0.0051392236
0.0051238401
0.0051094164
0.0050959295
0.0050833199
0.0050714951
0.0050603983
0.0050499762
0.0050401864
0.0050310712
0.0050226509
0.0050149315
0.0050079049
0.0050015537
0.004995869
0.0049908505
0.0049864655
0.0049827879
0.0049796855
0.0049775102
0.0049753739
0.0049752842
0.048354737
0.051570746
0.054759612
0.057935425
0.061098321
0.064239381
0.067347766
0.070413067
0.073425476
0.076375669
0.079253943
0.082050396
0.084754903
0.087356732
0.089844458
0.092205751
0.094427448
0.096495863
0.098396823
0.10011587
0.10163857
0.1029501
0.10403514
0.10487792
0.10546219
0.10577137
0.10578913
0.10549805
0.10488066
0.10391996
0.10259935
0.10090297
0.098816217
0.096326289
0.093422879
0.090099032
0.08635221
0.082185849
0.077610645
0.072640212
0.067309656
0.061668137
0.055770357
0.049696216
0.043549121
0.037462558
0.031612146
0.026227899
0.021591951
0.017969997
0.015444542
0.013821648
0.012775402
0.012040383
0.011464691
0.010976192
0.010542422
0.01014866
0.009788571
0.0094574827
0.009151342
0.0088683454
0.0086065388
0.0083625046
0.0081353122
0.0079244205
0.0077271416
0.0075434182
0.0073729174
0.0072134659
0.0070655113
0.0069295807
0.0068031473
0.0066854093
0.0065763024
0.0064740535
0.0063776875
0.0062866532
0.0062007711
0.0061194489
0.0060435521
0.0059734038
0.0059077432
0.0058473804
0.0057921066
0.0057401665
0.00569138
0.0056453765
0.0056018898
0.0055605847
0.005520928
0.0054836674
0.0054485757
0.0054150021
0.005383573
0.0053541266
0.0053260326
0.0052995797
0.005274919
0.0052516075
0.0052296597
0.0052092443
0.0051899503
0.0051716575
0.0051544344
0.0051381743
0.0051228502
0.0051084764
0.005095039
0.0050824725
0.005070692
0.005059637
0.0050492554
0.0050395014
0.0050304142
0.0050220192
0.0050143203
0.0050073129
0.0050009786
0.004995311
0.0049903084
0.0049859389
0.0049822737
0.0049791842
0.004977016
0.0049749573
0.0049747918
0.052787615
0.055893739
0.058968506
0.062021964
0.065054807
0.068060133
0.071029058
0.073952565
0.076821627
0.079627157
0.082359791
0.085009842
0.087567207
0.090021134
0.092360081
0.094571591
0.096642379
0.098558543
0.10030572
0.10186928
0.10323452
0.1043864
0.10530957
0.10598822
0.10640606
0.1065465
0.1063936
0.10592963
0.10513753
0.10400062
0.10250269
0.10062847
0.098364057
0.095697567
0.092619853
0.089125402
0.085213438
0.080889574
0.076167044
0.071062425
0.065615432
0.059879459
0.053913972
0.047806155
0.041667457
0.035642635
0.029922297
0.024752962
0.020420161
0.017147228
0.014929145
0.01351214
0.012578643
0.011900101
0.011353495
0.01088196
0.010459693
0.010074873
0.0097223663
0.0093977482
0.009097322
0.0088194825
0.0085622625
0.0083222579
0.008098667
0.0078911433
0.0076969276
0.0075158147
0.0073477845
0.0071906493
0.0070446079
0.0069104345
0.0067857459
0.006669546
0.0065616784
0.0064606894
0.0063656159
0.006275557
0.0061906336
0.0061102754
0.006035094
0.005965746
0.0059008402
0.0058409907
0.0057862668
0.0057348435
0.0056864564
0.0056408289
0.0055976469
0.005556686
0.0055173171
0.0054802413
0.0054454025
0.0054120437
0.0053807585
0.005351508
0.0053235928
0.0052972815
0.0052727905
0.0052496381
0.0052278201
0.0052075256
0.0051883554
0.0051701729
0.005153043
0.005136882
0.0051216436
0.0051073432
0.0050939773
0.0050814727
0.0050697542
0.0050587568
0.0050484301
0.0050387258
0.0050296782
0.0050213197
0.0050136508
0.0050066714
0.005000362
0.0049947185
0.0049897382
0.0049853899
0.0049817419
0.0049786689
0.0049765101
0.0049744098
0.0049742911
0.057331672
0.060299831
0.063239921
0.066157725
0.069052034
0.071915861
0.074740823
0.077518457
0.080240124
0.082896927
0.085479639
0.087978632
0.090383771
0.092684244
0.094868432
0.096923849
0.098837182
0.10059445
0.10218122
0.10358271
0.10478399
0.10576991
0.10652499
0.10703337
0.10727875
0.10724473
0.10691524
0.10627273
0.10530053
0.1039823
0.10230231
0.10024591
0.097800027
0.094953807
0.0916994
0.088032897
0.083955468
0.079475176
0.07460752
0.069373392
0.0638176
0.057996977
0.051976789
0.045852173
0.039743424
0.033807505
0.028250343
0.023331937
0.01932922
0.016406261
0.014471755
0.013233406
0.012395098
0.011764535
0.011243524
0.010787713
0.010376596
0.010000737
0.0096559503
0.009337923
0.0090433907
0.0087708791
0.0085183466
0.0082825019
0.0080626256
0.0078585494
0.0076675314
0.0074890939
0.0073235325
0.0071687852
0.0070246796
0.0068922096
0.0067692493
0.0066545618
0.0065478845
0.006448123
0.006354318
0.006265202
0.0061812204
0.0061017954
0.0060272755
0.0059586732
0.0058944817
0.0058350942
0.0057808595
0.0057299205
0.0056818958
0.0056366137
0.005593708
0.0055530594
0.0055139671
0.0054770535
0.0054424416
0.0054092893
0.0053781326
0.005349057
0.005321312
0.0052951311
0.0052707944
0.005247788
0.00522609
0.0052059029
0.0051868453
0.0051687659
0.0051517195
0.0051356498
0.0051204902
0.0051062565
0.0050929556
0.0050805065
0.0050688453
0.0050579008
0.0050476247
0.0050379668
0.0050289553
0.0050206303
0.0050129888
0.0050060348
0.004999748
0.0049941264
0.0049891665
0.0049848375
0.0049812053
0.0049781476
0.0049759978
0.0049739584
0.0049737824
0.061957456
0.064772058
0.067563957
0.070335348
0.073082734
0.075798398
0.078473808
0.081100525
0.083669962
0.086173238
0.088601114
0.090943918
0.093191436
0.095332775
0.097356264
0.099249399
0.10099888
0.10259075
0.10401054
0.10524342
0.10627433
0.10708798
0.10766879
0.10800084
0.10806784
0.10785356
0.10734169
0.1065152
0.1053577
0.10385326
0.10198669
0.099744059
0.097113223
0.094084483
0.090651429
0.086811922
0.082569292
0.077934373
0.072924433
0.067566356
0.061910367
0.056015712
0.049954882
0.043831432
0.037775389
0.031956921
0.026597448
0.021966152
0.018317268
0.015740475
0.014065088
0.012980917
0.012222753
0.011632962
0.011134545
0.010693323
0.010292942
0.0099259389
0.0095888578
0.0092773795
0.0089887696
0.0087216117
0.0084737246
0.0082420531
0.0080259076
0.0078252634
0.0076374981
0.007461752
0.0072986097
0.007146285
0.007004139
0.0068733425
0.0067521311
0.0066389802
0.0065334968
0.0064349651
0.0063424409
0.0062542887
0.0061712583
0.0060928142
0.0060189925
0.0059511437
0.005887723
0.0058288344
0.0057750918
0.0057246651
0.0056770203
0.0056320966
0.0055894819
0.0055491515
0.0055103646
0.0054736298
0.005439251
0.0054063313
0.00537532
0.0053464259
0.0053188707
0.0052928359
0.0052686629
0.0052458144
0.0052242491
0.0052041767
0.0051852391
0.0051672726
0.0051503161
0.005134345
0.0051192715
0.005105111
0.0050918807
0.0050794915
0.0050678928
0.0050570051
0.0050467834
0.0050371762
0.005028204
0.0050199158
0.0050123046
0.0050053785
0.0049991166
0.0049935187
0.0049885811
0.0049842729
0.004980658
0.0049776166
0.0049754764
0.0049734234
0.0049732653
0.066639348
0.069286441
0.071923318
0.074540984
0.077134502
0.079695665
0.082215717
0.084686055
0.087097968
0.089442466
0.091710204
0.093891397
0.095975717
0.097952183
0.099809071
0.10153387
0.10311333
0.10453351
0.10577997
0.10683788
0.10769209
0.10832721
0.10872759
0.10887726
0.10875997
0.10835959
0.10765984
0.10664405
0.10529622
0.10360086
0.10154345
0.099110845
0.096291936
0.093078319
0.089465178
0.085452318
0.081045464
0.076258592
0.071110293
0.065635103
0.059888683
0.053931933
0.047846346
0.041744167
0.035766251
0.030097127
0.024973334
0.020666258
0.017389933
0.015147915
0.013704163
0.012750842
0.012059605
0.011504535
0.011026262
0.010598727
0.010208763
0.0098505635
0.0095212143
0.0092162747
0.0089336574
0.0086719154
0.0084286587
0.0082012168
0.0079888677
0.0077916653
0.0076072306
0.0074342332
0.0072734805
0.0071236259
0.0069834852
0.0068543381
0.0067348898
0.0066232892
0.0065190059
0.0064217004
0.0063304523
0.0062432927
0.00616122
0.0060837752
0.0060106712
0.0059435587
0.0058809277
0.0058225511
0.0057692777
0.0057193672
0.0056721015
0.0056275314
0.0055852099
0.0055451863
0.0055067189
0.0054701686
0.0054360133
0.0054033391
0.0053724798
0.0053437608
0.0053164047
0.0052905224
0.0052665107
0.0052438225
0.0052223936
0.0052024345
0.0051836166
0.0051657653
0.0051488986
0.0051330264
0.0051180401
0.0051039539
0.0050907943
0.0050784644
0.0050669293
0.0050560985
0.0050459311
0.0050363758
0.0050274431
0.0050191923
0.0050116116
0.0050047138
0.004998477
0.0049929027
0.0049879876
0.0049837003
0.0049801026
0.0049770775
0.0049749471
0.0049729352
0.0049727401
0.071351796
0.073821779
0.076299179
0.07875772
0.081191669
0.08359265
0.085951793
0.088260318
0.090509332
0.09268968
0.094791859
0.096805939
0.098721459
0.10052734
0.10221181
0.10376235
0.10516575
0.10640813
0.10747508
0.10835179
0.10902308
0.10947351
0.10968736
0.10964868
0.10934125
0.10874908
0.10785604
0.1066458
0.10510278
0.10321206
0.1009598
0.098333813
0.095324124
0.091923771
0.088129701
0.083943849
0.07937457
0.074439126
0.069158501
0.06357456
0.057748146
0.051743437
0.04565149
0.039593673
0.033723107
0.028239792
0.023393564
0.019446755
0.016553099
0.014625523
0.013383593
0.012539483
0.011903848
0.011378524
0.010918424
0.010503858
0.010124051
0.0097746248
0.0094530332
0.0091546088
0.0088780446
0.0086217621
0.0083830972
0.0081599303
0.0079514415
0.0077576631
0.0075765993
0.0074064068
0.0072480017
0.007100636
0.0069625444
0.0068350211
0.0067173379
0.0066072953
0.0065042272
0.0064081419
0.0063181551
0.0062320318
0.0061509229
0.0060744957
0.0060021445
0.0059357542
0.0058739407
0.0058161046
0.0057632849
0.0057138999
0.0056670212
0.0056228053
0.0055807866
0.005541063
0.0055029344
0.0054665832
0.0054326456
0.0054002348
0.0053695411
0.0053409947
0.0053138519
0.0052881339
0.0052642843
0.0052417637
0.005220479
0.0052006357
0.0051819412
0.00516421
0.0051474364
0.0051316667
0.0051167712
0.0051027635
0.0050896767
0.0050774078
0.0050659392
0.0050551673
0.0050450557
0.0050355549
0.0050266634
0.0050184518
0.0050109033
0.0050040352
0.0049978248
0.004992275
0.0049873833
0.0049831176
0.0049795379
0.0049765295
0.0049744093
0.0049723971
0.0049722066
0.076066034
0.078357834
0.080671448
0.082966185
0.085235646
0.08747139
0.089664492
0.091806019
0.093886902
0.095897809
0.097829068
0.099670591
0.10141179
0.10304148
0.10454783
0.10591835
0.10713982
0.10819846
0.10907989
0.10976934
0.11025164
0.11051134
0.11053273
0.11029985
0.1097966
0.10900712
0.10791555
0.10650592
0.10476312
0.10267287
0.10022216
0.097399819
0.094197168
0.090608848
0.086633762
0.082276189
0.077547383
0.07246796
0.067062502
0.061379959
0.055486034
0.049450039
0.043373127
0.037386551
0.031657316
0.026401524
0.021877664
0.018322437
0.015809793
0.014168103
0.013097614
0.012343398
0.011753915
0.011254324
0.010810839
0.010408676
0.010038817
0.0096981556
0.0093843493
0.0090924128
0.0088219625
0.0085711774
0.008337062
0.0081182244
0.0079136788
0.0077232986
0.0075456187
0.0073783077
0.0072222225
0.007077349
0.0069413609
0.0068154467
0.0066995221
0.0065910414
0.0064892187
0.0063943503
0.0063056025
0.0062205756
0.0061404375
0.0060650366
0.0059934812
0.0059277955
0.0058668161
0.0058095501
0.0057571668
0.0057083084
0.0056618239
0.0056179604
0.0055762536
0.0055368202
0.0054990459
0.0054629096
0.005429181
0.005397048
0.0053665335
0.0053381549
0.0053112377
0.0052856948
0.0052620055
0.0052396587
0.0052185242
0.0051987977
0.0051802294
0.005162621
0.0051459432
0.005130278
0.0051154753
0.0051015496
0.0050885366
0.0050763292
0.0050649294
0.0050542172
0.0050441623
0.0050347181
0.0050258691
0.0050176978
0.0050101826
0.005003345
0.0049971618
0.0049916369
0.0049867693
0.0049825255
0.0049789644
0.0049759729
0.004973863
0.0049718701
0.0049716648
0.080754316
0.08287144
0.08501758
0.087144465
0.08924517
0.091311219
0.093333633
0.095303356
0.097211163
0.099047561
0.10080272
0.10246642
0.10402793
0.10547599
0.10679873
0.10798362
0.10901751
0.10988666
0.11057678
0.11107312
0.11136057
0.11142371
0.11124686
0.11081414
0.11010958
0.10911754
0.10782244
0.10620875
0.10426193
0.10196841
0.0993161
0.096294988
0.092897852
0.089121114
0.084965854
0.080438957
0.075554912
0.070337478
0.064816236
0.05904755
0.053101342
0.047053786
0.041016912
0.035133121
0.029584835
0.024603594
0.020447408
0.017305772
0.015159067
0.013768697
0.012840493
0.012159534
0.011608499
0.011131462
0.010703373
0.010313165
0.0099530816
0.0096211955
0.009315196
0.009029713
0.0087654313
0.0085201688
0.0082905584
0.0080761062
0.007875599
0.0076885765
0.0075142509
0.0073499106
0.0071961332
0.0070537291
0.0069199012
0.0067955908
0.0066814022
0.0065744807
0.0064739474
0.0063802951
0.0062927561
0.0062088974
0.0061297352
0.0060553614
0.005984655
0.0059196572
0.0058595213
0.0058028603
0.0057509
0.0057025643
0.0056564849
0.0056129732
0.0055715885
0.0055324374
0.0054950308
0.0054591296
0.0054256024
0.0053937603
0.0053634416
0.0053352275
0.0053085482
0.0052831929
0.0052596617
0.0052374964
0.005216519
0.0051969111
0.0051784732
0.0051609903
0.0051444122
0.0051288542
0.0051141467
0.0051003073
0.0050873694
0.0050752244
0.0050638962
0.0050532451
0.0050432479
0.0050338625
0.0050250578
0.0050169282
0.0050094479
0.0050026419
0.004996487
0.0049909877
0.0049861449
0.0049819237
0.0049783816
0.0049754073
0.0049733081
0.0049713241
0.0049711145
0.08539099
0.087335366
0.089311847
0.091267857
0.093196345
0.095088906
0.096936544
0.09873012
0.1004603
0.10211745
0.10369163
0.10517249
0.1065492
0.10781043
0.10894425
0.10993817
0.11077906
0.11145322
0.11194645
0.11224409
0.11233107
0.11219206
0.11181146
0.11117352
0.11026244
0.10906287
0.10755959
0.10573757
0.10358291
0.10108286
0.098226389
0.095004784
0.091412443
0.087447781
0.083114304
0.078421827
0.073388522
0.068040568
0.062414699
0.056575256
0.050594989
0.044559264
0.038591904
0.032848068
0.027526673
0.022871458
0.019124676
0.016404736
0.014595899
0.013419274
0.012606842
0.011985268
0.011466537
0.011009574
0.010595944
0.010217328
0.0098668749
0.0095437911
0.0092456067
0.0089665373
0.0087084693
0.0084687418
0.0082435981
0.0080335886
0.0078372254
0.0076535109
0.0074824676
0.0073212001
0.0071697436
0.0070297648
0.0068981552
0.0067754583
0.0066629677
0.0065575978
0.006458415
0.0063659835
0.00627962
0.0061970088
0.0061188271
0.0060454747
0.0059756795
0.0059113551
0.00585206
0.0057960423
0.0057444962
0.0056966708
0.0056510101
0.0056078501
0.0055667968
0.0055279221
0.0054908917
0.0054552489
0.0054219167
0.005390375
0.0053602702
0.0053322188
0.0053057874
0.0052806325
0.0052572569
0.0052352805
0.0052144669
0.0051949794
0.0051766765
0.0051593206
0.0051428464
0.005127398
0.0051127873
0.005099039
0.0050861769
0.005074095
0.0050628409
0.0050522521
0.0050423133
0.0050329888
0.0050242303
0.0050161437
0.0050086996
0.0050019263
0.0049958008
0.0049903276
0.0049855103
0.0049813121
0.0049777897
0.004974833
0.0049727445
0.0049707689
0.0049705559
0.08994816
0.091720935
0.093526223
0.095309205
0.097062815
0.098778778
0.10044815
0.10206176
0.1036102
0.10508378
0.10647246
0.1077658
0.1089529
0.11002238
0.1109623
0.11176016
0.11240288
0.11287684
0.11316791
0.11326153
0.11314273
0.11279629
0.11220674
0.11135852
0.11023608
0.10882439
0.10710868
0.10507452
0.10270874
0.099999542
0.096937067
0.093514081
0.089726794
0.08557584
0.081067427
0.076214673
0.071040017
0.065571162
0.059854661
0.053962893
0.047970164
0.04197421
0.03611135
0.030551258
0.025509269
0.021233615
0.01792871
0.015621319
0.014111832
0.01311146
0.01239183
0.011818415
0.011327182
0.01088839
0.010488508
0.010121181
0.009780236
0.0094659939
0.0091756121
0.0089029143
0.0086510908
0.0084168968
0.0081961949
0.0079906805
0.0077985668
0.0076181061
0.0074502378
0.0072921468
0.0071430514
0.0070054381
0.0068761008
0.0067550431
0.0066441963
0.006540366
0.0064426105
0.0063514113
0.0062661895
0.0061849036
0.0061077072
0.0060353669
0.0059665507
0.0059028905
0.0058444208
0.0057890872
0.0057379526
0.0056906168
0.0056453923
0.0056025848
0.0055618707
0.0055232709
0.0054866196
0.0054512619
0.0054181214
0.0053868852
0.0053570148
0.0053291268
0.0053029507
0.00527801
0.0052547882
0.0052330075
0.0052123647
0.0051929999
0.0051748373
0.0051576094
0.0051412444
0.0051259079
0.0051113954
0.0050977432
0.0050849576
0.0050729399
0.0050617621
0.0050512371
0.0050413576
0.0050320961
0.005023386
0.0050153436
0.0050079373
0.0050011977
0.0049951028
0.0049896563
0.0049848652
0.0049806907
0.0049771883
0.0049742495
0.0049721721
0.0049702051
0.0049699886
0.094395581
0.095997785
0.09763088
0.099239312
0.10081602
0.10235289
0.10384107
0.10527142
0.10663452
0.10792064
0.10911971
0.11022123
0.11121428
0.11208744
0.11282878
0.11342582
0.11386555
0.1141344
0.11421837
0.11410299
0.11377345
0.11321466
0.11241135
0.1113482
0.11000997
0.10838205
0.1064502
0.10420067
0.10162116
0.098700944
0.095431508
0.091807274
0.087826484
0.083492249
0.078813769
0.073807846
0.068501498
0.062925317
0.0571356
0.05121199
0.045233046
0.039310477
0.033593731
0.02826865
0.023564423
0.019719381
0.016873077
0.014951055
0.013696111
0.012837192
0.012191309
0.0116572
0.011189782
0.010767717
0.010381053
0.010024761
0.0096932146
0.0093878569
0.0091052372
0.0088388747
0.008593307
0.0083646306
0.0081483667
0.0079473877
0.0077596125
0.0075823577
0.0074175419
0.0072627173
0.0071160473
0.0069807383
0.0068537174
0.006734342
0.0066250736
0.006522768
0.0064265295
0.0063365818
0.0062524726
0.0061725783
0.0060963757
0.0060250392
0.0059572709
0.005894273
0.0058366
0.0057819926
0.0057312736
0.0056843984
0.0056396307
0.0055971768
0.005556808
0.0055184875
0.0054822111
0.0054471678
0.0054142202
0.005383289
0.0053536754
0.0053259547
0.0053000373
0.0052753253
0.0052522567
0.0052306774
0.0052102126
0.0051909735
0.0051729565
0.0051558571
0.005139607
0.0051243848
0.0051099714
0.0050964204
0.005083712
0.0050717595
0.0050606599
0.0050502003
0.0050403807
0.0050311838
0.005022525
0.0050145279
0.0050071609
0.0050004561
0.0049943929
0.0049889737
0.0049842096
0.0049800592
0.0049765776
0.004973657
0.0049715907
0.0049696326
0.0049694128
0.098701172
0.10013396
0.10159425
0.10302705
0.10442534
0.10578114
0.10708572
0.10833001
0.10950463
0.11059987
0.11160566
0.11251149
0.11330644
0.1139791
0.11451757
0.1149094
0.11514167
0.1152009
0.1150732
0.11474426
0.11419942
0.1134238
0.11240238
0.11112013
0.10956222
0.10771453
0.10556346
0.10309605
0.10030101
0.097168832
0.093692541
0.089868427
0.085697015
0.081184183
0.07634247
0.071192796
0.065767011
0.060100156
0.054258271
0.048327746
0.042394432
0.036585322
0.031064005
0.02603305
0.021728237
0.018355356
0.015963076
0.014383758
0.013337014
0.012589197
0.012001846
0.011500226
0.011053846
0.010647421
0.01027359
0.0099281174
0.0096058788
0.0093094272
0.0090344973
0.0087744524
0.0085351265
0.0083119361
0.0081001343
0.0079037108
0.0077203227
0.0075462463
0.0073843801
0.0072328731
0.0070887068
0.0069556591
0.0068309821
0.0067133485
0.0066055891
0.0065047933
0.0064101673
0.0063214974
0.0062384806
0.0061600213
0.0060848299
0.0060144946
0.0059478369
0.0058855094
0.005828593
0.005774753
0.0057244599
0.0056780104
0.0056337222
0.0055916226
0.005551604
0.0055135736
0.0054776606
0.0054429628
0.0054102149
0.0053795825
0.0053502496
0.0053227042
0.0052970444
0.0052725764
0.0052496627
0.0052282881
0.005208009
0.0051888996
0.005171033
0.0051540629
0.005137934
0.0051228282
0.005108515
0.00509507
0.0050824396
0.0050705536
0.0050595336
0.0050491412
0.0050393824
0.0050302514
0.0050216468
0.0050136963
0.0050063703
0.0049997012
0.0049936709
0.0049882799
0.0049835433
0.0049794177
0.0049759572
0.0049730553
0.0049710001
0.0049690512
0.0049688282
0.10283122
0.10409567
0.10538285
0.10663933
0.10785807
0.10903126
0.11015029
0.1112062
0.11218968
0.11309108
0.11390036
0.11460707
0.11520031
0.11566872
0.11600044
0.11618311
0.11620388
0.1160494
0.11570592
0.11515929
0.11439509
0.11339867
0.11215532
0.11065041
0.10886955
0.10679925
0.10442665
0.10173972
0.098728321
0.095384372
0.091702623
0.087681488
0.083324065
0.078639339
0.07364361
0.068362432
0.062832358
0.057094873
0.051226634
0.045319838
0.039470641
0.033822628
0.028554837
0.023884205
0.020038364
0.017160964
0.015194525
0.013905242
0.013023055
0.012361273
0.011820697
0.01134642
0.010919018
0.010527412
0.010166129
0.0098313219
0.0095183275
0.0092307394
0.0089633927
0.0087096828
0.0084765567
0.0082588027
0.0080515184
0.0078596454
0.0076806248
0.007509736
0.0073507789
0.0072025762
0.007060992
0.006930201
0.0068078718
0.0066920529
0.0065857428
0.0064864449
0.0063935212
0.0063061614
0.0062242295
0.006147217
0.0060730698
0.0060037427
0.0059382441
0.0058766076
0.0058204001
0.0057673645
0.0057175125
0.0056714513
0.0056276646
0.005585919
0.0055462559
0.0055085332
0.0054729651
0.0054386446
0.0054061092
0.005375764
0.0053467365
0.0053193782
0.0052939702
0.0052697623
0.005247008
0.0052258384
0.0052057534
0.0051867789
0.0051690663
0.005152227
0.0051362261
0.0051212385
0.0051070266
0.0050936917
0.0050811402
0.0050693225
0.0050583825
0.0050480597
0.0050383624
0.0050292982
0.0050207514
0.0050128485
0.0050055653
0.0049989328
0.0049929368
0.0049875746
0.0049828661
0.0049787658
0.0049753269
0.0049724441
0.0049704004
0.0049684608
0.0049682348
0.10674977
0.10784709
0.10896118
0.11004095
0.11107939
0.11206881
0.11300076
0.11386639
0.11465652
0.11536157
0.11597161
0.11647624
0.11686464
0.11712551
0.11724709
0.1172171
0.11702281
0.11665102
0.11608815
0.11532027
0.11433319
0.1131126
0.11164416
0.10991369
0.10790738
0.10561246
0.10301695
0.10010991
0.096882517
0.093328331
0.089444079
0.085230576
0.080693829
0.075846329
0.070708655
0.065311652
0.059695614
0.053912143
0.048049592
0.042203405
0.036484708
0.031054539
0.026107635
0.021867476
0.018529158
0.016144278
0.014554545
0.013499487
0.012743886
0.012148407
0.011645723
0.011194977
0.01078505
0.010407635
0.010058659
0.0097344558
0.0094307098
0.0091518124
0.0088918976
0.0086445987
0.0084176053
0.0082052132
0.0080025345
0.0078151824
0.0076404183
0.0074727762
0.0073167868
0.0071717942
0.0070328586
0.0069043685
0.0067843637
0.0066704393
0.0065655451
0.0064677404
0.0063765875
0.006290574
0.0062097364
0.0061341462
0.0060610977
0.0059927968
0.0059284833
0.0058675742
0.0058120259
0.0057598226
0.0057104298
0.0056647228
0.0056214542
0.0055800611
0.0055407617
0.005503369
0.005468123
0.0054342097
0.0054019057
0.0053718329
0.0053431344
0.0053159788
0.005290813
0.0052668814
0.0052442947
0.0052233269
0.005203445
0.005184612
0.005167055
0.0051503497
0.0051344834
0.0051196155
0.0051055067
0.0050922849
0.0050798139
0.0050680666
0.005057206
0.0050469554
0.0050373206
0.0050283235
0.0050198384
0.0050119843
0.0050047457
0.0049981509
0.0049921903
0.0049868578
0.0049821779
0.0049781035
0.0049746866
0.0049718234
0.0049697911
0.0049678611
0.0049676325
0.11041867
0.1113502
0.11229149
0.1131945
0.1140522
0.11485706
0.11560079
0.11627468
0.11686969
0.11737637
0.11778489
0.11808497
0.1182659
0.11831647
0.11822503
0.11797942
0.11756705
0.11697492
0.11618964
0.11519754
0.11398475
0.11253732
0.11084136
0.10888326
0.1066499
0.10412936
0.10131068
0.098184185
0.094742601
0.090981354
0.08689943
0.082500378
0.077793489
0.072795218
0.067531049
0.062037932
0.056358445
0.050560097
0.044741836
0.039000415
0.033468302
0.028323223
0.023772675
0.020030017
0.017225181
0.015299852
0.014024151
0.013150677
0.012490813
0.011946791
0.011475264
0.011045308
0.010651793
0.010288083
0.0099511313
0.0096375846
0.0093432271
0.00907266
0.0088199405
0.0085792311
0.0083582856
0.0081511358
0.0079531862
0.0077703098
0.0075995928
0.0074353102
0.0072824558
0.0071405083
0.0070042712
0.006878166
0.0067604351
0.0066484845
0.0065450177
0.0064487114
0.0063593601
0.006274732
0.0061950182
0.006120793
0.006048921
0.0059816724
0.0059185431
0.0058584155
0.0058034813
0.0057521225
0.0057032082
0.0056578303
0.0056150857
0.0055740432
0.0055351219
0.0054980835
0.0054631355
0.0054296553
0.0053976066
0.0053677905
0.0053394419
0.0053125077
0.0052875724
0.0052639326
0.0052415251
0.0052207528
0.0052010833
0.0051823998
0.0051649978
0.0051484318
0.0051327064
0.0051179592
0.0051039562
0.0050908491
0.0050784607
0.0050667861
0.0050560034
0.0050458283
0.0050362569
0.0050273268
0.0050189073
0.0050111036
0.0050039113
0.0049973552
0.0049914313
0.0049861294
0.0049814785
0.0049774306
0.0049740361
0.0049711928
0.0049691722
0.004967252
0.0049670211
0.11379741
0.11456466
0.11533375
0.11606022
0.11673709
0.11735695
0.1179117
0.1183928
0.11879137
0.11909813
0.11930338
0.11939699
0.11936836
0.11920642
0.11889965
0.11843606
0.11780323
0.11698836
0.11597832
0.11475975
0.11331915
0.11164302
0.10971803
0.10753121
0.10507026
0.10232427
0.09928351
0.095939749
0.092287499
0.08832434
0.084051852
0.079476689
0.074611866
0.069478333
0.064107173
0.058541454
0.052829127
0.04705442
0.041323848
0.035742201
0.030464178
0.025682226
0.021606963
0.018413689
0.016135026
0.014609824
0.013581807
0.012844671
0.012256983
0.011753716
0.011307944
0.01089699
0.010519182
0.010168814
0.0098434998
0.009540695
0.0092560724
0.0089933085
0.0087473956
0.0085136363
0.0082986145
0.0080965071
0.0079034636
0.0077250115
0.0075580588
0.0073972941
0.0072478082
0.0071087185
0.0069752218
0.0068515915
0.0067360648
0.0066261572
0.0065241891
0.0064293984
0.0063418288
0.0062586277
0.0061800895
0.006107152
0.0060365521
0.0059703834
0.0059084117
0.0058491373
0.0057947828
0.0057442576
0.0056958409
0.0056507828
0.005608552
0.0055678597
0.0055293386
0.0054926771
0.0054580069
0.0054249782
0.0053932128
0.0053636409
0.0053356572
0.0053089654
0.0052842496
0.0052609143
0.0052387013
0.0052181161
0.005198668
0.0051801431
0.0051628933
0.0051464742
0.0051308953
0.0051162695
0.0051023764
0.0050893834
0.0050770806
0.0050654817
0.0050547742
0.0050446779
0.0050351715
0.0050263077
0.0050179577
0.005010206
0.0050030619
0.0049965455
0.0049906595
0.0049853893
0.0049807679
0.0049767469
0.004973375
0.0049705523
0.0049685434
0.0049666333
0.0049664005
0.11684325
0.11744786
0.11804557
0.11859602
0.11909224
0.11952701
0.1198924
0.12018009
0.12038138
0.12048717
0.12048794
0.12037371
0.12013403
0.119758
0.11923425
0.11855098
0.11769598
0.1166567
0.11542033
0.11397387
0.11230426
0.11039853
0.10824402
0.10582855
0.10314076
0.10017096
0.096910805
0.09335379
0.08949649
0.08533897
0.080885786
0.07614714
0.071140286
0.065891359
0.060438017
0.05482842
0.049120974
0.043417415
0.037827814
0.032472767
0.027528372
0.023196054
0.019668103
0.01704559
0.01524847
0.014048058
0.013206897
0.012569813
0.012037305
0.011567187
0.011142503
0.010749794
0.010387254
0.010049971
0.0097358639
0.009443629
0.00916929
0.0089137612
0.0086741473
0.0084479507
0.0082385746
0.0080412152
0.0078533589
0.0076792603
0.0075157761
0.0073587252
0.0072128062
0.0070764404
0.0069457381
0.0068246332
0.0067112363
0.0066034233
0.006503088
0.0064098405
0.00632398
0.0062422512
0.0061649638
0.0060932375
0.0060240084
0.0059589393
0.0058980807
0.0058397446
0.0057859499
0.0057362186