/*--------------------------------*- C++ -*----------------------------------*\
| =========                 |                                                 |
| \\      /  F ield         | OpenFOAM: The Open Source CFD Toolbox           |
|  \\    /   O peration     | Version:  2406                                  |
|   \\  /    A nd           | Website:  www.openfoam.com                      |
|    \\/     M anipulation  |                                                 |
\*---------------------------------------------------------------------------*/
FoamFile
{
    version     2.0;
    format      ascii;
    arch        "LSB;label=32;scalar=64";
    class       volScalarField;
    location    "0.007";
    object      Ma;
}
// * * * * * * * * * * * * * * * * * * * * * * * * * * * * * * * * * * * * * //

dimensions      [0 0 0 0 0 0 0];

internalField   nonuniform List<scalar> 
8260
(
0.14948135
0.15067585
0.15191071
0.15322096
0.15453285
0.15581824
0.15709084
0.15834465
0.15967487
0.16117636
0.16269423
0.16425881
0.16581264
0.16723173
0.16799687
0.16759119
0.16506866
0.16146058
0.15954806
0.15842078
0.15742396
0.15670156
0.15597664
0.15527911
0.15476446
0.15431887
0.1539334
0.15362273
0.15335424
0.15320208
0.15298361
0.14563144
0.14719327
0.14885849
0.15054186
0.15221059
0.15384847
0.15545555
0.15703831
0.15864931
0.16033395
0.16202313
0.16371577
0.16535146
0.16679881
0.16752551
0.16699785
0.16435194
0.1608705
0.15918146
0.15815905
0.15722112
0.15654235
0.15585191
0.15517949
0.15468408
0.15425293
0.15387897
0.15357727
0.15331472
0.15316695
0.1529437
0.1412013
0.14312037
0.14523897
0.14735499
0.14943331
0.15146516
0.15344691
0.15538163
0.15730068
0.15922762
0.16112306
0.16297387
0.16471763
0.16621209
0.16692533
0.16629928
0.16354048
0.16026248
0.15879502
0.15787218
0.15699561
0.15636286
0.15571255
0.1550674
0.15459217
0.15417735
0.15381637
0.15352482
0.15326917
0.15312668
0.15289992
0.13696089
0.13917766
0.14163578
0.14411218
0.1465557
0.14895134
0.15128883
0.15356201
0.15578458
0.15796835
0.16008048
0.16210007
0.1639603
0.16550085
0.16619463
0.16544717
0.16258519
0.15958368
0.15835106
0.15753854
0.15673348
0.15615384
0.15554973
0.15493719
0.15448613
0.15409046
0.15374463
0.15346486
0.15321735
0.15308054
0.15284721
0.13303606
0.13546717
0.13815895
0.14090784
0.14365211
0.14636386
0.14902251
0.15161076
0.15412459
0.15656218
0.15889262
0.16108525
0.16306514
0.16464668
0.16530446
0.16440299
0.16147127
0.15884859
0.15785186
0.15715963
0.15643621
0.15591549
0.15536464
0.15478927
0.15436525
0.15399149
0.15366288
0.15339642
0.15315835
0.15302774
0.15278858
0.12953083
0.13209354
0.13492202
0.13784844
0.14081038
0.14376911
0.14669345
0.14955463
0.15233195
0.15500781
0.15754795
0.15990968
0.16200577
0.16361704
0.16421064
0.16312549
0.16018809
0.1580569
0.1572883
0.15672745
0.15609824
0.15564259
0.15515263
0.15462014
0.15422703
0.15387858
0.15356978
0.1533184
0.15309138
0.1529673
0.15272491
0.12655523
0.12917952
0.13205498
0.13505883
0.13814005
0.14125637
0.14436904
0.14743935
0.15043203
0.15331348
0.15604008
0.15855446
0.16075217
0.1623694
0.16285482
0.16156288
0.15875946
0.15720447
0.15665385
0.15623526
0.15571563
0.15533143
0.154911
0.15442782
0.15406935
0.15374985
0.15346379
0.15322942
0.15301529
0.15289814
0.1526556
0.1242935
0.12686199
0.1296795
0.1326557
0.13575003
0.13892159
0.14212826
0.14532448
0.14846357
0.15149717
0.15436811
0.15700128
0.15926888
0.16084782
0.16116177
0.15964789
0.15723836
0.15628145
0.15594126
0.15567555
0.15528135
0.15497656
0.15463494
0.15420944
0.15388963
0.15360311
0.1533431
0.15312814
0.15292904
0.15281916
0.15259511
0.12275232
0.12518374
0.12785902
0.1307148
0.13372269
0.13684622
0.14004432
0.14326939
0.14646782
0.14957913
0.15253073
0.1552262
0.15750643
0.15897506
0.15903713
0.15736477
0.15569353
0.1552807
0.15514642
0.15504341
0.15478549
0.15457206
0.15431968
0.15396224
0.15368527
0.15343615
0.15320551
0.15301298
0.15283137
0.15272933
0.15254528
0.12191147
0.12414905
0.12662163
0.12928202
0.13211145
0.13508534
0.13816912
0.14131785
0.1444752
0.14757124
0.15051707
0.1531896
0.15538542
0.15663853
0.15635641
0.15484893
0.15417272
0.15418907
0.15426776
0.15433737
0.15421723
0.15411159
0.15395972
0.15368125
0.15345291
0.1532468
0.15304874
0.15288213
0.15272097
0.15262769
0.15248121
0.12166371
0.12366655
0.12588972
0.1282983
0.13088096
0.13362216
0.13649829
0.13947078
0.14248314
0.14545753
0.14828746
0.1508154
0.15277084
0.1536359
0.15310111
0.1524508
0.15264731
0.15299743
0.1533073
0.15355902
0.15357462
0.15359164
0.15354966
0.15335872
0.15318819
0.15303249
0.15287058
0.15273322
0.152596
0.15251274
0.15238172
0.12198961
0.12368094
0.12557905
0.1276614
0.12992744
0.13236618
0.1349573
0.13766395
0.14042658
0.14315636
0.14572232
0.14791457
0.14940199
0.14984007
0.14983898
0.15035057
0.15110233
0.15172394
0.15224865
0.15269476
0.1528775
0.15301271
0.153084
0.15298485
0.15288587
0.15278916
0.15266885
0.15256328
0.15245372
0.15238215
0.15227212
0.12240643
0.12378771
0.12536538
0.12711462
0.12903037
0.13111235
0.13334645
0.13569315
0.13808252
0.14041041
0.14253764
0.14425304
0.14528964
0.14598422
0.14719319
0.14848476
0.14951222
0.15037606
0.15110059
0.15175688
0.15211278
0.15237424
0.15256198
0.15255742
0.15254098
0.15251052
0.15243996
0.15236887
0.15229016
0.15223254
0.15213869
0.12250234
0.12361383
0.12488817
0.12631629
0.12790224
0.12962974
0.1314699
0.13338731
0.13531648
0.13716085
0.13881305
0.14025142
0.1416444
0.14335889
0.14513335
0.14663001
0.14792449
0.14898795
0.1498873
0.1507354
0.15127852
0.15167915
0.15198088
0.15208131
0.15215061
0.15218984
0.15217766
0.15214669
0.15210027
0.15205955
0.1519838
0.12221361
0.12291474
0.12380315
0.12489145
0.12619583
0.1276456
0.12914916
0.13073763
0.13239407
0.13407972
0.13578456
0.13758928
0.13956529
0.14150926
0.1432923
0.14492829
0.14637612
0.14762006
0.1486557
0.14965443
0.15036804
0.15091293
0.15135306
0.15155052
0.15171216
0.15182369
0.15187536
0.15189344
0.15187874
0.15185862
0.15180091
0.12331964
0.12385575
0.12444403
0.12508945
0.12585251
0.12681216
0.12797033
0.12931246
0.13078316
0.13236871
0.13411648
0.13605891
0.13799748
0.13988652
0.14174275
0.14341612
0.14491689
0.14629089
0.14746597
0.14857354
0.14939688
0.15007564
0.1506654
0.1509707
0.15122616
0.15141258
0.15152813
0.15160457
0.15162186
0.15162626
0.15158707
0.12478645
0.12532133
0.12593287
0.12661283
0.1273214
0.12807584
0.12887903
0.12965748
0.13057135
0.13179047
0.13333227
0.13489337
0.13657077
0.13840243
0.14040958
0.14215407
0.14362093
0.14504344
0.14634735
0.14755448
0.14843732
0.14917118
0.14990958
0.15034426
0.15069392
0.15096004
0.1511322
0.15127728
0.15133003
0.15136113
0.15134235
0.12624242
0.12658488
0.12698366
0.12745255
0.12801136
0.12869026
0.12953378
0.13055545
0.13154642
0.13247057
0.13328828
0.13444048
0.13588139
0.13740519
0.13903132
0.14087252
0.14246341
0.14389535
0.14526975
0.14657551
0.14754105
0.14827984
0.14909154
0.14966794
0.15011415
0.15047245
0.1506921
0.15091066
0.15100704
0.15106611
0.15107153
0.1281718
0.12848986
0.12885366
0.1292636
0.12971955
0.13021494
0.1307359
0.13128638
0.13193939
0.13278985
0.13385015
0.13479607
0.1358119
0.13701208
0.13825891
0.13968484
0.14129575
0.14286936
0.14421729
0.14552784
0.14664906
0.14746648
0.14826478
0.14895234
0.14948219
0.14995366
0.1502256
0.15050287
0.15065732
0.15074648
0.15077676
0.12968069
0.12988869
0.13012952
0.13040899
0.13073726
0.13112822
0.13160176
0.1321719
0.13282166
0.13350585
0.13422089
0.13516468
0.13617979
0.13709698
0.13802887
0.13916778
0.14054443
0.14192354
0.14322433
0.14438524
0.14561299
0.14666225
0.14748666
0.14824617
0.14881368
0.14939888
0.1497466
0.15005946
0.15028306
0.15040558
0.15045791
0.13151708
0.13170792
0.13192604
0.13217302
0.13245139
0.13276246
0.13310386
0.13347345
0.13388573
0.13438015
0.13498217
0.13560563
0.13627391
0.1372431
0.13818161
0.13909404
0.14020333
0.14130599
0.14246182
0.14351103
0.14457508
0.14568143
0.14671773
0.14759882
0.14815713
0.1487975
0.14925839
0.14959416
0.14988367
0.15004329
0.15011882
0.13290072
0.13302224
0.13316234
0.13332426
0.13351344
0.13373681
0.13400287
0.134322
0.13469965
0.1351271
0.13559622
0.13614917
0.13678204
0.13739885
0.13825411
0.13915089
0.14000731
0.14097022
0.14201193
0.14303662
0.14401464
0.14485509
0.14584927
0.14696234
0.14757089
0.14816507
0.1487495
0.14912111
0.14945783
0.14965844
0.14974972
0.13455515
0.13466597
0.13479232
0.13493522
0.13509586
0.13527475
0.13547197
0.13568678
0.13592126
0.13618814
0.1365073
0.13688012
0.13732503
0.13788197
0.13845992
0.1391328
0.13982814
0.14064253
0.14154722
0.14264512
0.14368559
0.14442754
0.14515395
0.14623245
0.14703796
0.14756139
0.14821086
0.14864018
0.14900616
0.14925208
0.14935971
0.13580402
0.13587166
0.13594966
0.13603989
0.1361453
0.13626976
0.13641811
0.13659641
0.13681101
0.1370645
0.13735452
0.1376833
0.13804818
0.13844764
0.13894035
0.13947052
0.13998838
0.14055381
0.1412764
0.14208908
0.14316423
0.14413926
0.14476969
0.14549066
0.14643874
0.147028
0.14764361
0.14814656
0.14853242
0.14882039
0.14894491
0.13716942
0.1372343
0.13730875
0.13739367
0.13748991
0.13759803
0.13771828
0.13785087
0.1379967
0.13815927
0.13834637
0.13856811
0.13883812
0.13916503
0.13951835
0.13994318
0.14049716
0.14093357
0.1412862
0.1419023
0.14271067
0.14367706
0.1444449
0.1449513
0.14572095
0.14651102
0.14707059
0.1476338
0.14804126
0.14835592
0.14851014
0.13815649
0.13818953
0.13822967
0.13827761
0.13833485
0.13840378
0.13848769
0.13859056
0.13871697
0.13887187
0.13906003
0.13928544
0.13954907
0.13983738
0.14013827
0.14042593
0.14071626
0.14116764
0.14166248
0.14209401
0.14263841
0.14335653
0.14409804
0.14461557
0.14516909
0.14594471
0.14652879
0.1470982
0.14754182
0.14786893
0.14805417
0.13929262
0.13932799
0.1393662
0.13940845
0.13945619
0.13951079
0.13957361
0.13964605
0.13972951
0.13982547
0.13993579
0.14006296
0.14020661
0.14036792
0.14055518
0.14078243
0.14104555
0.14136354
0.14181351
0.14223625
0.14267292
0.14317075
0.14377711
0.14437865
0.14486823
0.145433
0.14604776
0.14657692
0.14704842
0.14738457
0.14759115
0.13995018
0.13997215
0.13999815
0.14002867
0.14006427
0.14010558
0.14015332
0.14020834
0.14027146
0.1403432
0.14042362
0.14051419
0.14062949
0.14077488
0.14095239
0.14116298
0.14141698
0.14169491
0.14194981
0.14225674
0.14259794
0.14296876
0.14346191
0.14406568
0.1446148
0.14507795
0.14562138
0.14611077
0.1465613
0.14690331
0.14711923
0.14071106
0.14072855
0.14074841
0.14077112
0.14079735
0.14082794
0.1408639
0.14090638
0.14095668
0.1410161
0.14108525
0.14116153
0.14123338
0.14131342
0.14142346
0.14156266
0.14172857
0.14191635
0.14213307
0.14238725
0.1426548
0.14295317
0.14333745
0.14378684
0.14428444
0.14475503
0.1452189
0.14568278
0.14609334
0.14642951
0.14663933
0.14109533
0.14110921
0.14112539
0.14114433
0.14116662
0.141193
0.14122438
0.14126187
0.14130697
0.14136182
0.14142958
0.14151359
0.14161474
0.14172572
0.1418362
0.14195788
0.14209434
0.14225125
0.14243617
0.142642
0.14287903
0.14314365
0.1434004
0.14372021
0.14411689
0.14452161
0.1449439
0.14536312
0.14574942
0.1460646
0.1462867
0.14143985
0.14145506
0.14147253
0.14149241
0.14151503
0.14154086
0.14157048
0.1416046
0.14164405
0.14168995
0.14174406
0.14180738
0.14187897
0.14195899
0.14204893
0.14215145
0.1422694
0.14240545
0.1425618
0.14273975
0.14294005
0.14316942
0.14344252
0.14373529
0.14404577
0.14441273
0.14480423
0.14519869
0.145566
0.14586677
0.14609147
0.081360482
0.098539681
0.10995513
0.11850417
0.12565739
0.13215731
0.13813599
0.14322707
0.14817394
0.15276203
0.15695082
0.16074623
0.1641692
0.1672118
0.16984018
0.17189431
0.17294864
0.17259897
0.16994298
0.16577338
0.16291269
0.16104609
0.1595219
0.15827955
0.15728424
0.15644643
0.15574526
0.15518888
0.15474595
0.15446505
0.15417566
0.10440186
0.1130913
0.11977601
0.12562129
0.13126213
0.13676843
0.14190424
0.14661443
0.15106094
0.15514962
0.1588861
0.1622924
0.16538507
0.16814307
0.17051822
0.17229242
0.17304705
0.1723724
0.16936163
0.1652327
0.16259262
0.16082667
0.15935109
0.15814258
0.15717357
0.15635558
0.1556696
0.15512485
0.15468987
0.15441437
0.15412127
0.11123899
0.11757838
0.12363067
0.12946941
0.13505014
0.14025456
0.14500457
0.14933553
0.15335106
0.15703662
0.16041754
0.16351774
0.16634682
0.16887368
0.17103907
0.17257368
0.17307115
0.17209807
0.16878257
0.1647884
0.16233013
0.16063113
0.1591923
0.15801125
0.15706535
0.15626585
0.15559425
0.15506076
0.15463372
0.15436371
0.15407461
0.11756221
0.12359506
0.12925347
0.13451078
0.13940993
0.14394781
0.14811163
0.15194188
0.15549892
0.15878345
0.1618207
0.16463006
0.16721083
0.16952027
0.17148418
0.17277029
0.1730352
0.17175682
0.16819794
0.16435602
0.16205779
0.16042633
0.15902701
0.15787571
0.1569546
0.15617446
0.15551789
0.15499603
0.15457716
0.1543127
0.15402969
0.12438194
0.12971819
0.13462746
0.13918738
0.14344316
0.1473825
0.15100741
0.15435804
0.15747827
0.1603832
0.16309785
0.1656357
0.16798448
0.17008901
0.17185239
0.17290233
0.17295572
0.17136735
0.167604
0.16395032
0.16179908
0.16022799
0.15886518
0.15774165
0.15684434
0.15608302
0.15544116
0.15493078
0.1545201
0.15426137
0.15398836
0.13158756
0.13594239
0.14000135
0.14380401
0.14735967
0.15066247
0.15372976
0.15659386
0.15928882
0.16183328
0.16424622
0.166532
0.16866531
0.17057734
0.17214175
0.17297302
0.17284387
0.17092749
0.16701184
0.16356776
0.16154442
0.16003008
0.15870295
0.1576069
0.15673346
0.15599097
0.15536389
0.15486503
0.15446258
0.15420965
0.15393431
0.13875141
0.14211001
0.14527277
0.14826068
0.15107988
0.15373728
0.15624844
0.15863676
0.1609264
0.16313262
0.16526547
0.16731861
0.16925313
0.17098607
0.17235831
0.17300189
0.17268976
0.17043748
0.16642894
0.16320751
0.16129626
0.15983518
0.15854238
0.15747279
0.15662273
0.15589876
0.15528628
0.15479882
0.15440463
0.15415753
0.15388351
0.14592106
0.14818149
0.15036223
0.15248984
0.15456559
0.1565841
0.15855245
0.160484
0.16239171
0.16428318
0.16615774
0.16799763
0.16975046
0.1713193
0.17251373
0.17300369
0.1724764
0.16989942
0.16586504
0.16286711
0.16105226
0.15964213
0.15838272
0.1573389
0.15651198
0.15580632
0.15520836
0.15473225
0.15434631
0.15410506
0.15383505
0.15273082
0.1538881
0.15510751
0.15640603
0.15776921
0.15917566
0.16062884
0.16213121
0.16368422
0.16528608
0.16692477
0.16857105
0.17015984
0.17157918
0.17261222
0.17295924
0.17220527
0.16932243
0.16532693
0.16254339
0.16081244
0.15945135
0.15822451
0.15720564
0.15640146
0.15571384
0.15513026
0.15466537
0.15428765
0.15405229
0.15379174
0.15891362
0.1590673
0.1594266
0.15995976
0.16065408
0.16149009
0.16246702
0.16357424
0.16480292
0.16614189
0.16756785
0.16904036
0.17048221
0.17176046
0.1726496
0.17286695
0.17187615
0.16872091
0.16481846
0.16223368
0.16057607
0.15926262
0.15806768
0.15707304
0.15629123
0.15562138
0.15505203
0.15459827
0.1542287
0.15399927
0.1537421
0.16441606
0.16368667
0.16326269
0.1630965
0.16318091
0.16350692
0.16405704
0.16480893
0.1657468
0.16685116
0.16808807
0.16940598
0.17071529
0.17185938
0.17262822
0.17272528
0.17149553
0.16811972
0.16433943
0.16193537
0.16034301
0.159076
0.15791244
0.15694129
0.15618145
0.15552908
0.1549738
0.154531
0.15416951
0.153946
0.15368871
0.16910732
0.16764052
0.16653713
0.16576803
0.16532987
0.16521385
0.16538664
0.16583027
0.16651449
0.16741369
0.16848507
0.16966582
0.17085028
0.17188236
0.17256216
0.17253904
0.1710786
0.16752097
0.16388781
0.16164667
0.16011299
0.15889147
0.15775888
0.15681052
0.15607222
0.15543702
0.15489563
0.15446366
0.15411015
0.15389251
0.15363758
0.17284809
0.17081621
0.16918827
0.1679472
0.1670867
0.16659309
0.16645068
0.16663051
0.16710094
0.16782533
0.16875319
0.16980983
0.17089591
0.17185126
0.17244778
0.1723112
0.17063281
0.16693373
0.16346163
0.16136582
0.15988593
0.15870905
0.15760716
0.15668092
0.15596368
0.15534533
0.15481764
0.15439632
0.15405066
0.15383884
0.15359132
0.17556908
0.17316199
0.1711827
0.16960599
0.16842718
0.16764053
0.16723758
0.16719506
0.16748471
0.16806314
0.16887543
0.16984972
0.1708867
0.17177241
0.17228738
0.17204202
0.170166
0.16636255
0.16305811
0.1610917
0.15966181
0.15852878
0.15745742
0.15655266
0.15585596
0.15525412
0.1547399
0.15432907
0.15399108
0.15378504
0.15354354
0.17736736
0.17470242
0.17249002
0.17069082
0.16929433
0.16829609
0.16769403
0.16748539
0.16764955
0.1681366
0.16889445
0.16982755
0.17081494
0.1716351
0.1720741
0.17173246
0.16968447
0.16581015
0.16267517
0.16082369
0.15944069
0.1583507
0.15730983
0.1564259
0.15574917
0.15516349
0.15466251
0.15426196
0.15393147
0.15373112
0.15349137
0.1784582
0.17562554
0.17323302
0.17126848
0.16972404
0.16859033
0.16786158
0.16757201
0.16768357
0.16811977
0.16883192
0.16972458
0.17066404
0.17143989
0.17181792
0.17138508
0.16919263
0.165279
0.16231085
0.16056127
0.15922264
0.15817484
0.15716451
0.15630079
0.15564343
0.15507354
0.15458555
0.15419506
0.15387189
0.15367711
0.15343483
0.17893311
0.17607882
0.17359949
0.1715336
0.16989556
0.16868325
0.16789241
0.16755058
0.16760877
0.16799229
0.16865268
0.16951443
0.17043331
0.17118781
0.17152284
0.1710134
0.16869589
0.16477004
0.16196207
0.16030404
0.15900772
0.15800116
0.15702151
0.15617745
0.15553882
0.15498435
0.15450907
0.15412844
0.15381238
0.15362304
0.15338681
0.1781162
0.17558633
0.17330176
0.17132911
0.16972028
0.16850823
0.16771327
0.16733842
0.16734704
0.16770094
0.16834404
0.16919963
0.1701227
0.17087978
0.17119065
0.17061776
0.16820128
0.16428344
0.16162673
0.16005181
0.15879592
0.15782958
0.15688087
0.156056
0.15543544
0.15489602
0.1544332
0.15406221
0.15375304
0.15356899
0.15333983
0.17612446
0.17398451
0.17204907
0.17035773
0.16895127
0.16787294
0.16716379
0.16683608
0.1668708
0.16724489
0.1679057
0.16878141
0.16973199
0.17051663
0.17082386
0.17020468
0.16771436
0.16381956
0.16130303
0.15980432
0.15858733
0.15766013
0.15674274
0.15593667
0.15533349
0.15480876
0.15435809
0.15399651
0.15369397
0.15351504
0.15329201
0.17342284
0.1716708
0.17010716
0.16875698
0.16764016
0.16679282
0.16626246
0.16605749
0.16618
0.16662436
0.16733835
0.16826041
0.16926108
0.17009878
0.17042531
0.16978026
0.16723939
0.16337781
0.16098932
0.15956185
0.15838267
0.15749334
0.15660765
0.15581998
0.15523338
0.15472286
0.15428395
0.15393148
0.15363529
0.15346121
0.153229
0.16994003
0.1686798
0.16756966
0.16662825
0.16586635
0.16532393
0.16504056
0.1650158
0.16528064
0.1658407
0.16664314
0.16763801
0.16871038
0.16962652
0.16999757
0.16935006
0.16678004
0.16295895
0.16068636
0.15932606
0.15818361
0.15733042
0.15647651
0.15570666
0.15513557
0.15463862
0.15421095
0.15386716
0.15357696
0.1534074
0.15317741
0.1656653
0.16499507
0.16444384
0.16399936
0.16367116
0.16349701
0.16350076
0.16371517
0.1641773
0.16489376
0.1658187
0.16691339
0.16807857
0.1690983
0.16954176
0.1689202
0.16634217
0.16256908
0.1603979
0.15909961
0.15799213
0.1571725
0.15634992
0.15559707
0.15504019
0.15455601
0.15413893
0.15380336
0.15351875
0.15335334
0.15313109
0.16053018
0.16050318
0.16062085
0.16079422
0.1609988
0.16125782
0.16161989
0.16213255
0.16285016
0.16376846
0.16485263
0.16607714
0.16735786
0.16850733
0.16905491
0.16849585
0.16593564
0.16221786
0.16012659
0.15888191
0.15780709
0.15701813
0.15622629
0.15548988
0.15494616
0.15447417
0.15406723
0.15373961
0.15346028
0.15329894
0.15308669
0.1546826
0.15502193
0.15572646
0.15658314
0.15745502
0.15829899
0.15916693
0.16008014
0.1611517
0.16236054
0.16366642
0.16506826
0.1664994
0.16781494
0.16851292
0.16807253
0.16557339
0.16189972
0.15986166
0.15866258
0.15762025
0.15686111
0.15610086
0.15538179
0.15485131
0.15439179
0.15399515
0.15367572
0.15340164
0.15324468
0.15303188
0.074478596
0.093588441
0.10608733
0.11537187
0.12298459
0.12973456
0.13593554
0.14144209
0.14661367
0.15142403
0.15583465
0.15983672
0.16344474
0.16665257
0.16942872
0.17164582
0.172876
0.17270386
0.17025474
0.16610746
0.16313564
0.16121524
0.15965977
0.15839407
0.1573788
0.15652434
0.15581019
0.15524353
0.15479326
0.15450683
0.15420884
0.073617806
0.093341352
0.1058102
0.1150985
0.12268479
0.12935918
0.13546079
0.14097812
0.14612984
0.15094606
0.15539358
0.15945152
0.16312229
0.16639407
0.16922742
0.17150996
0.17279292
0.17272043
0.17038669
0.1662694
0.16324732
0.1613068
0.15973989
0.15846511
0.15744033
0.15657675
0.15585526
0.15528242
0.15482791
0.1545382
0.15423237
0.073154995
0.093235875
0.1057907
0.11495766
0.12240141
0.12895383
0.13494652
0.14041898
0.14554794
0.15037402
0.15486311
0.15898396
0.16272674
0.16607315
0.16897668
0.17133756
0.17270032
0.17271827
0.17053279
0.16644561
0.16335989
0.16139501
0.15981727
0.15853462
0.15750147
0.15662952
0.1559013
0.15532266
0.15486422
0.15457144
0.15426529
0.072474462
0.092902464
0.10561746
0.11470714
0.12206479
0.12852475
0.13442732
0.13985491
0.14496213
0.14979176
0.15431392
0.15849109
0.16230252
0.1657231
0.16869998
0.17114115
0.17259408
0.17271077
0.17067889
0.16663814
0.16348588
0.16149244
0.15990222
0.15861056
0.15756813
0.15668703
0.15595144
0.15536643
0.15490362
0.15460723
0.1543051
0.071493136
0.092151932
0.10518274
0.11435812
0.121712
0.12811472
0.13394225
0.13932557
0.14440376
0.14922381
0.15376457
0.15798614
0.16185851
0.16534931
0.16839959
0.17091915
0.17246962
0.17269405
0.17081667
0.16683977
0.16362326
0.16159932
0.15999555
0.15869381
0.15764112
0.1567498
0.15600603
0.15541399
0.15494627
0.15464581
0.1543423
0.070390338
0.091208694
0.10463683
0.11399778
0.12138768
0.12775138
0.13351103
0.13884319
0.14388086
0.14867694
0.15322078
0.15747325
0.16139705
0.16495246
0.16807431
0.17066762
0.17232607
0.17266504
0.17094727
0.16704431
0.16376723
0.16171198
0.16009462
0.1587825
0.1577191
0.15681701
0.15606452
0.15546496
0.15499195
0.15468715
0.1543757
0.069309268
0.09019157
0.10406049
0.11365017
0.1210995
0.12743565
0.13313172
0.13840477
0.14339073
0.14814986
0.15268224
0.15695223
0.16091747
0.1645311
0.16772159
0.17038321
0.17215547
0.17262026
0.17106574
0.16725447
0.16391558
0.16182811
0.16019754
0.15887524
0.1578011
0.15688805
0.15612651
0.1555191
0.15504057
0.15473107
0.15441678
0.068339297
0.089129396
0.10344214
0.11330205
0.12083898
0.12716158
0.13279872
0.1380063
0.1429305
0.14764085
0.15214827
0.1564227
0.16041898
0.16408383
0.16733926
0.17006641
0.17194742
0.17255486
0.17116247
0.16746948
0.16406823
0.16194725
0.16030386
0.1589717
0.15788693
0.15696254
0.15619175
0.15557626
0.15509204
0.15477781
0.15446241
0.067501328
0.088026411
0.10278039
0.11294961
0.12060311
0.12692616
0.13250809
0.13764438
0.14249734
0.1471477
0.15161754
0.15588383
0.15990067
0.16360935
0.16692557
0.16971895
0.17170809
0.17246861
0.17124285
0.1676822
0.16422512
0.1620691
0.16041337
0.15907176
0.15797655
0.15704084
0.15626059
0.15563678
0.15514668
0.15482753
0.1545096
0.066950322
0.086977208
0.10210065
0.11260143
0.12039388
0.1267276
0.13225538
0.13731397
0.14208646
0.14666638
0.15108708
0.15533357
0.1593609
0.16310597
0.16647873
0.16933977
0.17143269
0.172337
0.17130427
0.16789326
0.16438641
0.16219371
0.16052624
0.1591757
0.15807028
0.1571231
0.15633321
0.15570083
0.15520469
0.15488043
0.15455756
0.066868018
0.086105235
0.10146508
0.11227579
0.12021197
0.12656028
0.13203223
0.13700624
0.14168922
0.14618942
0.15055125
0.1547679
0.15879671
0.16257131
0.16599655
0.16892655
0.17112232
0.17217798
0.17133526
0.16809599
0.16455134
0.16232048
0.16064208
0.15928332
0.1581681
0.15720944
0.15640977
0.1557686
0.15526625
0.15493668
0.15460767
0.067140829
0.08546664
0.10090764
0.11200074
0.12006972
0.12642115
0.13182725
0.13670733
0.14129238
0.14570538
0.15000101
0.1541803
0.15820348
0.16200199
0.16547631
0.16847618
0.1707753
0.17198476
0.17133301
0.16828122
0.1647189
0.16244844
0.16076034
0.1593944
0.15826989
0.15729984
0.15649031
0.15584021
0.1553315
0.15499647
0.15466158
0.068103131
0.08545628
0.10055989
0.11179071
0.11994514
0.12628238
0.1316132
0.13639241
0.14087449
0.14519693
0.14942311
0.15356118
0.15757458
0.16139339
0.16491461
0.16798531
0.17038834
0.17174877
0.17130005
0.16845003
0.16488861
0.1625767
0.16088014
0.15950833
0.15837538
0.15739422
0.15657491
0.15591571
0.15540056
0.15505995
0.15471887
0.069829588
0.08588538
0.10052864
0.11160607
0.11976743
0.12608481
0.1313426
0.13602299
0.14040457
0.14463933
0.14879892
0.15289731
0.15690098
0.16073942
0.16430725
0.16745035
0.16995778
0.1714611
0.17122452
0.16860284
0.16505884
0.1627038
0.16100068
0.15962479
0.15848432
0.15749244
0.15666343
0.1559952
0.15547357
0.15512731
0.15477944
0.072101392
0.086963735
0.10070312
0.11150954
0.11960163
0.1258294
0.13098001
0.1355554
0.13984302
0.14400064
0.14810445
0.15217161
0.15617113
0.16003249
0.16364916
0.16686736
0.16948038
0.17112336
0.1710967
0.16873086
0.16522929
0.16282898
0.16112083
0.15974283
0.15859611
0.15759425
0.15675605
0.15607869
0.15555064
0.15519868
0.15484343
0.074965543
0.088570105
0.10125425
0.11149476
0.11930847
0.12537972
0.13042225
0.13491291
0.13913248
0.14323881
0.14730965
0.15136335
0.1553712
0.15926371
0.1629345
0.16623197
0.16895306
0.17073356
0.17091339
0.16882204
0.16539417
0.16294991
0.16123918
0.15986187
0.15871073
0.15769957
0.15685233
0.15616627
0.15563196
0.15527424
0.15491115
0.078290324
0.090548564
0.10195589
0.11131424
0.11865818
0.12454755
0.1295312
0.13399667
0.13820351
0.14230547
0.14638063
0.15044949
0.15448597
0.15842318
0.16215673
0.16553893
0.16836944
0.17028466
0.17069183
0.16887432
0.16555841
0.16306541
0.16135521
0.15998131
0.15882658
0.15780766
0.15695264
0.15625783
0.15571754
0.1553541
0.15498265
0.081368018
0.09215001
0.10203268
0.11058887
0.1175131
0.12326814
0.12823824
0.13274069
0.13700134
0.14115874
0.14528712
0.14940889
0.15350107
0.15750134
0.16130918
0.16478177
0.16771975
0.16977606
0.17042049
0.16888821
0.16570565
0.16317303
0.16146476
0.16009818
0.15894463
0.15791886
0.15705604
0.15635348
0.15580759
0.15543844
0.15505737
0.083450166
0.092779421
0.10155757
0.10923175
0.11581429
0.12148158
0.12650076
0.13111165
0.13549687
0.13977377
0.14400913
0.14822636
0.15240596
0.15649094
0.16038659
0.16395561
0.1670006
0.16920011
0.17008648
0.16886847
0.16582256
0.16326985
0.16157105
0.16021589
0.15906147
0.15803131
0.15716312
0.15645285
0.15590196
0.15552726
0.15513584
0.084201664
0.09240075
0.10018453
0.10724943
0.11356527
0.11920987
0.12434267
0.12912645
0.13369856
0.13815269
0.1425453
0.14689879
0.15119743
0.15538963
0.1593874
0.16306034
0.16621821
0.16857038
0.1696888
0.16879996
0.16592959
0.16335632
0.16166375
0.1603235
0.15917868
0.15814618
0.15727248
0.15655617
0.15600081
0.15562071
0.15521838
0.083809209
0.091089047
0.09810786
0.10474995
0.11090544
0.11658594
0.12187179
0.12686535
0.13166226
0.13633215
0.14091855
0.14544039
0.14988391
0.1542026
0.15831532
0.1621
0.16537751
0.16788206
0.16921862
0.16864081
0.16604056
0.1634263
0.16174879
0.16043277
0.15929378
0.15826098
0.15738447
0.1566626
0.15610376
0.1557186
0.15530441
0.082436631
0.088997062
0.095550436
0.10192336
0.10800747
0.11376774
0.11922761
0.12444326
0.12947746
0.13437825
0.13917578
0.14388339
0.1484872
0.15294444
0.15718048
0.16108226
0.16448365
0.1671422
0.16869725
0.16840878
0.16609253
0.16348552
0.16182557
0.16052876
0.15940228
0.15837498
0.1574982
0.15677266
0.15621089
0.15582103
0.15539432
0.080328906
0.086418545
0.092659859
0.098892323
0.10498873
0.11087475
0.11652904
0.12197217
0.12724282
0.13237245
0.13738075
0.14227542
0.14704187
0.1516398
0.15600031
0.16001933
0.16354443
0.16635651
0.16813241
0.16816947
0.16608424
0.16350286
0.16186765
0.16060682
0.15951211
0.15849087
0.15761199
0.15688478
0.15632155
0.15592751
0.15548814
0.077837664
0.083573041
0.089594613
0.095757755
0.10192227
0.10797531
0.11385128
0.11953579
0.12504443
0.13039566
0.13560385
0.14067409
0.14559241
0.15032179
0.1547988
0.15892785
0.16257008
0.1655266
0.1675034
0.16789585
0.16605744
0.16350244
0.16190586
0.16069883
0.15960771
0.15859702
0.1577284
0.15699983
0.15643556
0.15603804
0.15558586
0.075266452
0.080707641
0.086542108
0.092649995
0.098891009
0.10512678
0.11124938
0.11719664
0.12295071
0.12851852
0.1339126
0.13913928
0.14418879
0.14902973
0.15360543
0.15782907
0.16157435
0.16465798
0.16680302
0.16747922
0.16598655
0.1635157
0.1619128
0.16074068
0.159695
0.15870855
0.15783933
0.15711535
0.15655223
0.15615179
0.15568705
0.072947679
0.07813448
0.08378478
0.089808369
0.096083061
0.10246369
0.10880956
0.11501342
0.12101531
0.1267971
0.13236419
0.13772572
0.14287977
0.14780439
0.15245255
0.15674746
0.1605746
0.16376513
0.16605975
0.1669951
0.16588258
0.16351801
0.16189877
0.16076653
0.15978606
0.15880746
0.15795611
0.15723259
0.15667053
0.15626851
0.15579341
0.071222326
0.07617287
0.081626355
0.087522208
0.093760253
0.10020413
0.10670007
0.11310669
0.11932153
0.12529339
0.13101108
0.13648098
0.14170837
0.1466831
0.15137084
0.1557072
0.15958978
0.16286496
0.16529675
0.16647798
0.16573401
0.16348297
0.16185272
0.16079757
0.15984822
0.15889235
0.15805889
0.15734809
0.15679082
0.15638711
0.15590241
0.070434446
0.075161684
0.080402779
0.086118845
0.092234008
0.098628925
0.10515474
0.11165494
0.11799693
0.12409646
0.12991589
0.13545126
0.14071088
0.14569566
0.15038502
0.15472838
0.15863663
0.16197088
0.16451697
0.16591294
0.16548204
0.16342389
0.16182809
0.1607932
0.1598834
0.1589886
0.15816865
0.15746243
0.15690934
0.1565066
0.1560177
0.07067165
0.075195582
0.080229146
0.085738415
0.091667214
0.097915935
0.1043492
0.11081406
0.11716522
0.12329227
0.12913349
0.1346701
0.13990852
0.14485742
0.14950829
0.15382291
0.15772575
0.16109208
0.16372772
0.16530885
0.16517584
0.16334053
0.16176746
0.16077377
0.15991058
0.15905699
0.15826282
0.15757458
0.15702987
0.15662615
0.15613571
0.072170218
0.076306291
0.080991089
0.086210631
0.091905441
0.09797039
0.10425161
0.11058179
0.11682545
0.12287601
0.12864913
0.13411668
0.13928191
0.14415362
0.14873129
0.15298775
0.15685828
0.16023149
0.16293177
0.16467041
0.16487874
0.16319686
0.16168649
0.16076331
0.15990686
0.15911134
0.15834191
0.15767686
0.15714312
0.15674329
0.15624954
0.075246991
0.078981432
0.083199776
0.087914804
0.093108771
0.098722203
0.10465627
0.11075318
0.11682696
0.12271365
0.128358
0.13371247
0.13877045
0.14353998
0.14802375
0.1522029
0.15602324
0.15938487
0.16212769
0.16399064
0.16445734
0.16306255
0.16161379
0.16073625
0.15989214
0.15914932
0.15843591
0.15778179
0.15725735
0.15685945