/*--------------------------------*- C++ -*----------------------------------*\
| =========                 |                                                 |
| \\      /  F ield         | OpenFOAM: The Open Source CFD Toolbox           |
|  \\    /   O peration     | Version:  2406                                  |
|   \\  /    A nd           | Website:  www.openfoam.com                      |
|    \\/     M anipulation  |                                                 |
\*---------------------------------------------------------------------------*/
FoamFile
{
    version     2.0;
    format      ascii;
    arch        "LSB;label=32;scalar=64";
    class       volScalarField;
    location    "0.007";
    object      nut;
}
// * * * * * * * * * * * * * * * * * * * * * * * * * * * * * * * * * * * * * //

dimensions      [0 2 -1 0 0 0 0];

internalField   nonuniform List<scalar> 
8260
(
0.034611825
0.039293453
0.044789826
0.05101153
0.057815159
0.065047626
0.072518822
0.079973689
0.087067899
0.093312199
0.098016751
0.10023257
0.098677834
0.091746904
0.077654263
0.055317171
0.029756634
0.013620282
0.0085045427
0.0068357896
0.0059400693
0.0053854532
0.0049480995
0.0046678444
0.0045103314
0.0043852415
0.0042887325
0.0042175791
0.0041684741
0.0041345863
0.0041132084
0.04092529
0.045741987
0.051036802
0.056875605
0.063218331
0.069950302
0.076892647
0.083790072
0.090292431
0.095902839
0.099906248
0.10133351
0.098885639
0.09096616
0.075837093
0.052823034
0.027315993
0.012749308
0.0082590785
0.0067488891
0.0058932211
0.0053604252
0.0049334035
0.0046577179
0.0045042346
0.0043813119
0.0042863551
0.004216048
0.0041674781
0.004133901
0.0041128184
0.048178122
0.052815004
0.057852798
0.063325172
0.069206723
0.0754063
0.081761141
0.088023232
0.093838753
0.098700423
0.10187891
0.10238331
0.098898133
0.089843523
0.073557986
0.04978336
0.02479881
0.011875041
0.008107183
0.006706801
0.0058686474
0.0053479989
0.0049265116
0.0046524104
0.0045009172
0.0043791442
0.0042850351
0.0042151017
0.0041667151
0.0041332954
0.0041123818
0.056458042
0.060724671
0.065383599
0.070415522
0.075781072
0.081389736
0.087084273
0.092620553
0.097641184
0.10162852
0.10384139
0.10326926
0.098582665
0.088228846
0.070661305
0.046112742
0.022145841
0.011100691
0.0079500008
0.0066416271
0.0058259921
0.0053257769
0.0049142959
0.0046427828
0.0044947282
0.0043750128
0.0042824972
0.0042134053
0.0041655421
0.0041324621
0.0041117965
0.065763982
0.069518258
0.073690148
0.078181201
0.082939977
0.087868796
0.092806993
0.097507626
0.10160665
0.10457559
0.10566102
0.1038353
0.097759786
0.085924132
0.066950435
0.041713466
0.019375346
0.010351094
0.0077913646
0.0065802141
0.0057880756
0.0053062574
0.0049042579
0.0046351709
0.0044897608
0.004371622
0.0042804171
0.0042119663
0.0041644399
0.0041316165
0.0041110433
0.075926573
0.079109041
0.082694863
0.086542307
0.090589946
0.094731217
0.09879751
0.10253378
0.10556546
0.10735149
0.1071256
0.10384548
0.096171523
0.082659031
0.062177163
0.03651777
0.016891587
0.0096635297
0.0076304005
0.006503929
0.0057384391
0.0052795673
0.0048903464
0.004624515
0.0044826381
0.0043667388
0.0042773957
0.0042099398
0.0041629867
0.0041305564
0.0041101828
0.086639656
0.089215266
0.092139033
0.095252733
0.098486912
0.10172648
0.10479332
0.10742142
0.10922306
0.10964278
0.10790121
0.10294471
0.093447072
0.078064629
0.056037416
0.03056008
0.014586942
0.009027952
0.0074637205
0.0064231574
0.0056889644
0.0052527028
0.0048773076
0.0046151014
0.0044760715
0.0043621081
0.0042745225
0.004207977
0.0041614959
0.004129418
0.0041092457
0.097398279
0.099340089
0.1015412
0.10384385
0.10617005
0.10839547
0.11033136
0.11169918
0.11209652
0.11095285
0.10747652
0.1006082
0.089061875
0.071648086
0.048196903
0.024111184
0.012464412
0.0084799117
0.007291072
0.0063274242
0.0056296533
0.0052189782
0.0048606282
0.004603322
0.0044675692
0.0043561307
0.0042707673
0.0042054631
0.0041596509
0.0041280479
0.0041083424
0.10739528
0.10868061
0.11010849
0.11153346
0.11286706
0.11397364
0.1146519
0.11460885
0.11342637
0.11051953
0.1050878
0.096075696
0.082291595
0.062780629
0.038418485
0.018502219
0.01067887
0.0081180465
0.0071062642
0.0062226571
0.0055674852
0.0051832524
0.0048437286
0.0045926135
0.0044592463
0.0043501398
0.0042669474
0.0042028831
0.0041576882
0.0041265505
0.0041075695
0.11536096
0.11597893
0.11659413
0.11708842
0.11736044
0.11726052
0.11657135
0.11498265
0.11206008
0.10720791
0.099625211
0.088274075
0.072175322
0.05074954
0.027037008
0.014227486
0.0092740821
0.0077233431
0.00690314
0.0061035104
0.0054935015
0.0051400148
0.004822572
0.0045797332
0.0044489363
0.0043428581
0.0042621908
0.0041997219
0.0041553394
0.0041248036
0.0041067329
0.11938747
0.11934232
0.11913039
0.11866659
0.11783418
0.11646737
0.11433019
0.11109358
0.10631008
0.099384369
0.089536394
0.075753979
0.057532967
0.035145885
0.018126641
0.011077506
0.0083300239
0.0074231765
0.0066903304
0.0059763069
0.0054127188
0.0050939053
0.0048005344
0.0045672339
0.0044384455
0.0043354687
0.0042572205
0.0041963722
0.0041527942
0.0041228943
0.0041056222
0.1166681
0.11594441
0.11492022
0.11351737
0.11159549
0.10896412
0.10536524
0.10045243
0.0937794
0.084786451
0.072785624
0.056713591
0.037365162
0.021165172
0.012737937
0.0090849033
0.0079521152
0.007044912
0.0064645756
0.0058361117
0.0053170566
0.0050412214
0.0047743697
0.0045512349
0.0044255271
0.0043267797
0.0042512517
0.0041923381
0.0041497786
0.0041206861
0.0041041813
0.10321678
0.10190948
0.10017204
0.097922976
0.094976325
0.091135248
0.086135205
0.079614955
0.071192165
0.060470488
0.047246337
0.033474225
0.021481643
0.013445174
0.0096036814
0.0081852468
0.007317124
0.006729604
0.0062138026
0.0056865246
0.00522431
0.0049821887
0.0047465981
0.0045345547
0.0044118464
0.0043177731
0.0042449831
0.0041879512
0.0041464221
0.0041182038
0.0041021493
0.07400967
0.072144095
0.069812616
0.067033629
0.063751522
0.059797099
0.055006295
0.04920111
0.042403674
0.034679273
0.026353172
0.018600775
0.012818308
0.009622045
0.0083047716
0.0076637373
0.0070596161
0.0063672992
0.0059648481
0.0055225544
0.0051198372
0.0049197608
0.004713024
0.004513159
0.0043950768
0.0043070199
0.0042375079
0.0041827043
0.0041424176
0.0041152552
0.0040996504
0.04246184
0.041240316
0.039719811
0.037892379
0.035630542
0.032838936
0.029532576
0.026043959
0.022283193
0.018290105
0.014333043
0.011008677
0.0089618887
0.0080298966
0.007675528
0.0069486504
0.0064638263
0.0060619383
0.0057184165
0.0053629741
0.0050145324
0.0048455685
0.0046769395
0.0044933222
0.0043768944
0.0042954832
0.0042293287
0.0041769406
0.0041378722
0.0041118217
0.0040968049
0.020949864
0.020497717
0.019831723
0.018981264
0.017913009
0.016618765
0.015119188
0.01353668
0.011926791
0.010331674
0.0089424749
0.0079101418
0.0074180552
0.0074211555
0.0068753176
0.0065525335
0.0061721955
0.0057678095
0.0054714028
0.0051876858
0.0049192874
0.0047639072
0.0046325779
0.004467391
0.0043557072
0.0042821366
0.0042190094
0.0041702561
0.0041325147
0.0041077215
0.0040937441
0.010821284
0.010713239
0.010489617
0.010172362
0.0097705247
0.0092960466
0.0087872515
0.0082613242
0.0077218837
0.0072213911
0.0069823714
0.0068694226
0.006870173
0.0064114196
0.0063446182
0.0059626627
0.0056902734
0.0054460663
0.0052360822
0.0050565299
0.0048126325
0.004675588
0.004588967
0.0044402085
0.0043321852
0.0042681329
0.0042079992
0.0041630326
0.0041264397
0.0041030661
0.0040906266
0.0070678992
0.0070439792
0.0069769042
0.0068788116
0.0067532346
0.0065789001
0.0064598263
0.0063597037
0.0063014652
0.0062937112
0.006317609
0.0062282585
0.0059049313
0.0057900323
0.0056367313
0.0055749967
0.0054610452
0.0052142313
0.0050290787
0.0049033076
0.0047485191
0.0045899045
0.0045300073
0.004408126
0.0043071147
0.0042526499
0.0041945139
0.0041543672
0.0041197269
0.0040979223
0.0040864564
0.0058403085
0.005809614
0.0057818394
0.0057587329
0.0057502068
0.0057685312
0.0057933487
0.0057654873
0.0057360381
0.005717979
0.0056526234
0.0055255498
0.0055619574
0.005495884
0.0052810948
0.0052671222
0.005092372
0.0050355679
0.0048793474
0.0047908844
0.0046612569
0.0045189144
0.0044765823
0.0043747826
0.0042810778
0.0042358198
0.0041810425
0.0041450704
0.0041125579
0.0040925672
0.0040825626
0.0053666584
0.0053640038
0.0053620156
0.0053650121
0.0053805635
0.0053957037
0.0053739129
0.0053501933
0.0052990081
0.0052130927
0.0051674202
0.0051793945
0.0051265207
0.0051203483
0.0050516503
0.0049445385
0.0049060297
0.0048319232
0.0046886645
0.0046145244
0.004565803
0.0044724452
0.004413265
0.0043350141
0.0042538012
0.0042176272
0.0041668593
0.0041331024
0.0041053375
0.0040869967
0.0040774645
0.0049995288
0.0049948725
0.0049850637
0.0049632824
0.0049297675
0.0048898095
0.0048721968
0.0048654454
0.0048548108
0.0048492488
0.0048548214
0.004832992
0.0048202928
0.0047730624
0.0048246899
0.00476108
0.0046723443
0.0046249887
0.0045909021
0.0045265075
0.0044319656
0.0043925434
0.0043605126
0.0042965276
0.0042281595
0.0041938932
0.004153568
0.0041212102
0.0040979176
0.0040813034
0.0040730237
0.0046396985
0.0046385783
0.0046349579
0.0046282729
0.0046208911
0.0046177469
0.0046267991
0.0046203677
0.0046137808
0.0045958521
0.0045651233
0.0045550064
0.0045592278
0.0045449068
0.0045326234
0.0044926097
0.0044900449
0.0044632683
0.0044409113
0.004412031
0.004358077
0.0042961939
0.0042646124
0.0042523382
0.0042033623
0.0041648954
0.004137786
0.0041085426
0.0040906512
0.0040753463
0.004067543
0.0044511211
0.0044511325
0.0044489477
0.0044434339
0.0044350598
0.004422438
0.0044018796
0.0044000889
0.0043981707
0.0043978013
0.0043976547
0.0044007634
0.0043846621
0.0043994739
0.0043881885
0.0043639486
0.0043482134
0.0042951945
0.0042910656
0.0043086062
0.0043087118
0.0042422285
0.0041903847
0.0042028531
0.00417927
0.0041332718
0.0041225533
0.0040991008
0.0040827494
0.004069118
0.0040620366
0.0042731945
0.0042740197
0.0042735522
0.0042721132
0.0042707072
0.0042707789
0.0042769412
0.0042826467
0.0042867735
0.0042900705
0.0042915722
0.0042905671
0.0042899691
0.0042797533
0.0042706396
0.0042671845
0.0042348008
0.004213138
0.0042106082
0.0042104183
0.0042211276
0.0042111896
0.0041534365
0.0041452174
0.0041508208
0.0041173919
0.0041064045
0.0040887059
0.0040746366
0.0040633729
0.0040556828
0.004184798
0.0041861929
0.0041864522
0.0041859508
0.0041849138
0.0041832315
0.0041804857
0.004180008
0.0041813173
0.0041841006
0.0041876976
0.0041918823
0.0041951688
0.0041922902
0.0041891763
0.0041763352
0.0041669272
0.0041674806
0.0041727614
0.0041698313
0.0041571052
0.0041650816
0.0041347205
0.0041169616
0.0041176588
0.0041064595
0.0040937805
0.0040802224
0.0040661008
0.0040575664
0.0040510533
0.0041166119
0.0041177161
0.0041182106
0.0041184458
0.0041188647
0.0041196399
0.0041210379
0.0041249195
0.0041287814
0.0041326534
0.0041363743
0.0041393059
0.0041378871
0.0041324547
0.0041209242
0.0041183972
0.0041258206
0.0041372984
0.0041351898
0.0041424672
0.004124778
0.0041167906
0.0041213214
0.0041022112
0.0040922155
0.0040965766
0.0040796072
0.0040714749
0.0040589992
0.0040511971
0.0040463287
0.0040843109
0.0040850951
0.004085407
0.0040855585
0.0040857913
0.0040860195
0.0040859477
0.004085236
0.0040852279
0.0040852998
0.004085459
0.0040856991
0.0040859057
0.0040859621
0.0040867129
0.004088028
0.0040907202
0.0040995197
0.0040946341
0.004091992
0.0040966069
0.0040917719
0.004098235
0.0040932344
0.0040789222
0.0040777407
0.0040714159
0.0040621659
0.0040523211
0.0040455055
0.0040421669
0.0040593822
0.0040598721
0.0040601622
0.004060409
0.0040607514
0.0040612188
0.0040617999
0.0040624825
0.0040632063
0.0040638556
0.0040646146
0.0040654859
0.0040662185
0.0040673973
0.0040689788
0.0040705826
0.004072156
0.0040702004
0.0040697758
0.0040693212
0.0040694819
0.0040683411
0.0040699315
0.0040711198
0.0040670219
0.004059809
0.0040570624
0.0040512966
0.0040465728
0.0040423093
0.0040399319
0.0040477991
0.0040480832
0.0040482466
0.0040483994
0.0040486436
0.0040490068
0.0040494912
0.0040501333
0.0040510785
0.004052252
0.0040533731
0.0040542285
0.0040548638
0.0040552822
0.0040563331
0.0040586669
0.0040579353
0.0040588878
0.0040583036
0.0040573079
0.0040576643
0.0040570532
0.0040575487
0.0040541607
0.0040537061
0.0040513965
0.0040488465
0.0040464115
0.0040432933
0.0040406131
0.0040367872
0.0040418831
0.0040419505
0.0040419371
0.0040419302
0.0040419605
0.0040420422
0.0040421815
0.0040424267
0.0040429257
0.0040440128
0.004045458
0.0040468485
0.0040481617
0.0040478467
0.0040469528
0.0040465102
0.004047
0.0040479422
0.0040498254
0.0040501835
0.0040490937
0.0040489029
0.0040495198
0.0040477349
0.0040476036
0.0040470664
0.0040457111
0.0040442453
0.0040406387
0.0040371706
0.0040358138
0.004036676
0.0040367706
0.0040369081
0.0040371052
0.0040373779
0.0040377422
0.0040382133
0.0040388044
0.0040394936
0.0040404911
0.0040415343
0.0040422679
0.0040423596
0.004042237
0.0040419544
0.0040417314
0.0040416527
0.0040417641
0.0040420207
0.0040427841
0.0040438645
0.0040432986
0.0040442082
0.0040445431
0.0040441767
0.0040442107
0.0040434389
0.0040415318
0.0040400882
0.0040390523
0.0040386882
0.00076377146
0.0016484202
0.0032981456
0.005763835
0.0090294967
0.013178012
0.018293828
0.024425646
0.03166175
0.039529635
0.048170307
0.057200276
0.065947399
0.073352565
0.077813787
0.077045108
0.068137878
0.050035249
0.028536789
0.013619279
0.0078126273
0.0060577716
0.0053409937
0.0049430774
0.0046789517
0.0044777758
0.0043476044
0.0042579675
0.0041962406
0.004156652
0.0041256309
0.0018687824
0.0037518377
0.0062330086
0.0092066889
0.01284095
0.017243481
0.022477829
0.028833842
0.035871186
0.04368657
0.052157529
0.060846243
0.06903571
0.075613161
0.078925213
0.076659896
0.065995086
0.046576145
0.025193187
0.012272138
0.0073523115
0.0059170118
0.0052820337
0.004911808
0.0046607873
0.0044676448
0.0043420577
0.0042548391
0.0041944216
0.0041554469
0.0041252769
0.0034505099
0.0054895041
0.0080087236
0.011165476
0.015082482
0.019843212
0.025543476
0.032082223
0.039317133
0.047251218
0.055655303
0.064067308
0.071738484
0.077513663
0.079699911
0.075979261
0.063663198
0.043235202
0.022573756
0.010908364
0.0070215068
0.0058543284
0.0052539522
0.0048966269
0.0046515486
0.0044625423
0.0043389911
0.0042529149
0.0041930918
0.0041544523
0.0041248995
0.0050069473
0.0072506791
0.01008651
0.013590557
0.017802949
0.022833912
0.028765862
0.035351673
0.042689114
0.05064567
0.058926787
0.067030984
0.074165681
0.079129833
0.080194314
0.075050276
0.061179443
0.040030677
0.020279135
0.010154633
0.0068372238
0.0057761235
0.005211119
0.0048719267
0.0046367829
0.0044543303
0.0043343067
0.0042501906
0.0041914581
0.0041533328
0.0041245909
0.0065388285
0.0090957792
0.012234816
0.016002866
0.020482353
0.025785181
0.031793292
0.038536422
0.04596768
0.053906604
0.062026263
0.069790425
0.076364128
0.080503055
0.080447316
0.073910627
0.058582612
0.036950718
0.018242767
0.0092896134
0.0066459933
0.0057213723
0.0051832268
0.0048559079
0.0046270987
0.0044490652
0.0043310913
0.0042481808
0.0041901131
0.0041523325
0.0041242891
0.0081578657
0.010979997
0.014362469
0.018371951
0.023150035
0.028637243
0.034803829
0.041681777
0.049166433
0.057049193
0.064973906
0.072369241
0.078359718
0.081661448
0.080489713
0.072590129
0.055913844
0.034002355
0.016448319
0.0087826148
0.0065211942
0.0056647776
0.0051491611
0.0048354929
0.0046147292
0.0044422591
0.0043270383
0.0042457459
0.004188609
0.0041512744
0.0041238611
0.0097331474
0.012807807
0.016452671
0.020755253
0.025764293
0.03142456
0.03777139
0.044762515
0.052272875
0.060072055
0.06777596
0.074779605
0.080169894
0.082627481
0.080348462
0.071121357
0.053212932
0.031219635
0.014908396
0.0082435378
0.0064039872
0.0056191517
0.0051233693
0.0048199263
0.0046053364
0.0044372091
0.0043238674
0.0042437397
0.0041872836
0.004150283
0.0041233668
0.011260099
0.014612775
0.018532119
0.023135067
0.028329579
0.034183216
0.040684458
0.047764433
0.055278163
0.062972155
0.070435024
0.077029964
0.081809184
0.083421715
0.080049546
0.069538164
0.050516349
0.028641818
0.013625492
0.0079083112
0.0063175535
0.0055754202
0.0050956346
0.0048025745
0.0045948057
0.0044314828
0.0043203106
0.0042415288
0.0041858876
0.0041492596
0.0041229128
0.012784801
0.016399171
0.020598523
0.02543264
0.03084011
0.036882501
0.043523505
0.050675578
0.058175029
0.065746586
0.072953191
0.079128189
0.083291853
0.084065
0.07962092
0.067868043
0.047861775
0.026295037
0.012600142
0.0075902516
0.0062397749
0.0055381834
0.0050728808
0.0047880957
0.004586114
0.0044268467
0.0043173094
0.0042395853
0.0041846084
0.0041482807
0.00412252
0.014262458
0.018142235
0.022623174
0.027660619
0.033289689
0.039512297
0.046278925
0.053487702
0.06095778
0.068393402
0.075333348
0.081082943
0.084633168
0.084579663
0.079098312
0.066151987
0.045286247
0.024198796
0.011724357
0.0073749456
0.0061777411
0.0055038723
0.0050501781
0.0047731405
0.0045770997
0.0044219931
0.0043141768
0.0042375627
0.004183308
0.0041472945
0.0041220765
0.015724821
0.019862607
0.024585839
0.029836406
0.035677507
0.042064424
0.048941769
0.056193344
0.063621739
0.070911776
0.077579563
0.082904115
0.08584969
0.084989773
0.078508827
0.064433605
0.042817126
0.022362885
0.011045091
0.0072047057
0.0061227387
0.0054742583
0.0050308253
0.0047600519
0.0045693097
0.0044178573
0.0043114227
0.004235719
0.0041820886
0.0041463364
0.0041214968
0.017145112
0.021541952
0.026480445
0.031954178
0.037991658
0.044527713
0.051503132
0.058785732
0.066163145
0.073301929
0.079697053
0.084602683
0.086958971
0.085324924
0.077884031
0.062744671
0.040487592
0.020789689
0.010490771
0.0070863874
0.0060767547
0.0054478205
0.0050124514
0.0047471535
0.0045616166
0.0044137408
0.0043086789
0.0042338677
0.0041808758
0.0041453747
0.0041209245
0.018538669
0.023171861
0.028321429
0.03400479
0.040212377
0.046892733
0.053955075
0.061258841
0.068579012
0.075564882
0.081691894
0.086190721
0.087981183
0.085605807
0.077257969
0.06111709
0.038328344
0.019469894
0.01007384
0.0069906802
0.0060364152
0.0054252576
0.004996625
0.0047356209
0.0045548088
0.004410131
0.0043062183
0.0042321486
0.0041797241
0.0041444335
0.004120438
0.019901553
0.02474763
0.030104783
0.035980045
0.042335984
0.049153605
0.056289287
0.063606876
0.07086747
0.077703804
0.083572452
0.08768549
0.088934099
0.085851536
0.076648368
0.059576673
0.03636189
0.018387514
0.0097639682
0.0069227068
0.006002677
0.0054058733
0.0049822295
0.0047246326
0.0045483042
0.0044066574
0.0043038454
0.0042304631
0.0041785926
0.0041434987
0.0041199756
0.021245211
0.026277625
0.031825698
0.037875489
0.044383896
0.051281193
0.05850091
0.065828524
0.073029631
0.079726544
0.085350351
0.089097496
0.089835155
0.086092044
0.076090121
0.058146233
0.034605517
0.01752721
0.0095598189
0.006872113
0.0059740195
0.0053899384
0.0049700139
0.0047147772
0.0045424933
0.0044035677
0.0043017029
0.004228886
0.0041775095
0.0041425851
0.0041194148
0.022546941
0.027756334
0.033476534
0.03968088
0.046321183
0.053320928
0.060565951
0.067914935
0.07506498
0.081627618
0.087026036
0.09043389
0.090704172
0.08635336
0.075615601
0.056841983
0.033068472
0.016882737
0.0094137112
0.0068335673
0.0059508276
0.0053771955
0.0049593887
0.004705666
0.0045370782
0.0044006658
0.0042996868
0.0042273661
0.0041764523
0.0041416852
0.0041186697
0.023753886
0.029140036
0.035023806
0.041372007
0.048130298
0.055218397
0.062510092
0.069834961
0.076934199
0.083397703
0.088598109
0.091708158
0.09155846
0.08665979
0.075255937
0.055708365
0.031797291
0.016343132
0.009260835
0.0068013991
0.0059324576
0.0053676893
0.004950727
0.0046975945
0.0045322456
0.0043980722
0.0042978686
0.0042259429
0.0041754355
0.004140804
0.0041180626
0.02483143
0.030362978
0.03639048
0.042871896
0.049747864
0.056927764
0.064281139
0.07162174
0.078672013
0.085016144
0.090061692
0.092929515
0.092414029
0.08703349
0.075038926
0.054795101
0.030779933
0.015895763
0.0091320695
0.0067818107
0.0059189598
0.0053612057
0.0049437811
0.0046903915
0.0045278461
0.0043956839
0.0042961932
0.0042245912
0.0041744475
0.0041399403
0.0041175765
0.025969538
0.031562481
0.037666101
0.044233216
0.051192609
0.05844646
0.065856192
0.073225746
0.080263834
0.086543307
0.091449336
0.094084474
0.093283187
0.087493879
0.074988118
0.054137781
0.030002971
0.015523797
0.0090142501
0.0067688356
0.0059100985
0.0053576773
0.004938728
0.0046842151
0.0045239709
0.0043935599
0.0042946959
0.0042233331
0.0041734966
0.0041390995
0.0041170819
0.027097431
0.032730072
0.038871589
0.045482012
0.052489794
0.059793577
0.06724661
0.074645392
0.081686537
0.087930218
0.092746143
0.095231052
0.094180688
0.088030125
0.075121757
0.053764985
0.02945794
0.015214328
0.0089115617
0.0067636663
0.0059058031
0.0053569519
0.0049355102
0.0046790207
0.0045205589
0.0043916533
0.0042933497
0.0042221575
0.0041725762
0.0041382807
0.0041162972
0.028191667
0.033832964
0.039981253
0.046603327
0.053630044
0.060963264
0.068448016
0.075876613
0.082935824
0.089174089
0.093945747
0.096335416
0.095115056
0.088719001
0.075448727
0.053700176
0.029145644
0.01494851
0.0088185461
0.0067647374
0.0059060522
0.0053590083
0.0049342893
0.0046749269
0.0045176653
0.0043899954
0.0042921694
0.0042210737
0.0041716877
0.0041374809
0.00411552
0.02924298
0.034858379
0.040978924
0.047581681
0.054598749
0.061946067
0.069477643
0.07696141
0.084071587
0.090323589
0.09507093
0.097405013
0.096085612
0.089527364
0.076004815
0.053963699
0.029082035
0.014701272
0.0087337044
0.0067775169
0.0059111633
0.0053637446
0.0049351516
0.0046719495
0.0045152589
0.0043885557
0.0042911301
0.0042200683
0.0041708211
0.004136694
0.004115004
0.030257974
0.035786818
0.041828845
0.048378723
0.055395377
0.06277104
0.070343858
0.077866294
0.085002909
0.091292686
0.096074881
0.098424295
0.097089526
0.090460119
0.076778756
0.05457429
0.029270821
0.014440202
0.0086529403
0.0067936396
0.0059203406
0.0053708568
0.0049382384
0.0046701134
0.0045133138
0.0043873152
0.0042902141
0.0042191325
0.0041699692
0.0041359176
0.0041145973
0.031238846
0.036587691
0.042457049
0.048872218
0.055812975
0.063162652
0.070748152
0.078323013
0.085543445
0.091928462
0.096807442
0.099241767
0.097961611
0.091342788
0.077587398
0.055305823
0.029689338
0.014079664
0.0085863769
0.0068143968
0.0059310753
0.0053790321
0.0049432534
0.0046690515
0.0045117242
0.004386213
0.0042893867
0.0042182547
0.0041691296
0.0041351599
0.0041139778
0.00078410295
0.0015949515
0.0031467447
0.0054796643
0.0085809756
0.012479066
0.017306748
0.023162199
0.03016199
0.037863925
0.046400748
0.055418088
0.064274589
0.071965051
0.076934329
0.076928541
0.069004799
0.051652873
0.03002107
0.014141633
0.0079410964
0.0060996916
0.0053618492
0.0049551845
0.0046862712
0.0044818863
0.0043500315
0.0042594837
0.0041973132
0.0041574338
0.0041256944
0.00083227809
0.0016384997
0.0031640759
0.0054297453
0.0084459448
0.01227907
0.017032251
0.022791938
0.029671099
0.037295311
0.045701513
0.054611516
0.063441108
0.071192531
0.076338315
0.076655606
0.069239426
0.05238014
0.030796484
0.014492433
0.0080227786
0.0061263495
0.0053762999
0.0049637693
0.0046914894
0.0044845137
0.0043516284
0.0042604965
0.0041980283
0.0041580825
0.0041257297
0.00089129057
0.0016846735
0.0031878394
0.0054099038
0.0083661363
0.012121427
0.016774586
0.022414966
0.029142588
0.036655242
0.044953293
0.05378063
0.062578066
0.070384404
0.075704269
0.076349462
0.069452737
0.053120562
0.031622173
0.014875071
0.008115045
0.0061537242
0.0053903755
0.0049719815
0.0046964715
0.0044875885
0.0043533891
0.0042616001
0.0041988572
0.004158626
0.0041258094
0.00096055043
0.0017354867
0.0032105984
0.0053876634
0.0082825282
0.011959193
0.01651255
0.022035689
0.02860975
0.036004123
0.044188691
0.052925949
0.061685438
0.069540016
0.075030514
0.076007388
0.069639448
0.053874476
0.032496478
0.015298061
0.0082152645
0.0061864469
0.0054079628
0.0049822654
0.0047026923
0.0044904059
0.0043551386
0.0042627226
0.004199639
0.0041593853
0.0041258627
0.0010410767
0.0017900907
0.0032320189
0.0053628396
0.00819624
0.011793845
0.016246999
0.021645362
0.028072466
0.035344283
0.043409575
0.052050456
0.06076426
0.068659541
0.074315935
0.075626759
0.069793562
0.054635684
0.033410857
0.015765179
0.0083361834
0.0062168669
0.005422586
0.0049907152
0.0047078784
0.0044940663
0.0043572057
0.0042640164
0.004200616
0.0041601254
0.0041259192
0.0011401503
0.0018552185
0.0032581223
0.0053398532
0.0081104538
0.011628022
0.015980235
0.021253492
0.02753299
0.034678252
0.042618434
0.051156231
0.059815803
0.067743313
0.07355925
0.075204247
0.069916094
0.055399545
0.034361145
0.016279187
0.008466146
0.0062569151
0.0054435781
0.0050028114
0.0047151579
0.0044977607
0.0043593376
0.0042653625
0.0042016091
0.0041609209
0.0041259647
0.0012581735
0.0019298092
0.0032848364
0.0053151687
0.0080231172
0.011461333
0.015713486
0.020865097
0.026993461
0.034009935
0.041818366
0.0502461
0.058842015
0.066793611
0.07276213
0.074740323
0.070017118
0.056171758
0.035381093
0.016848724
0.0086162289
0.0062971209
0.005463405
0.0050141878
0.0047220572
0.0045016977
0.0043616075
0.004266796
0.0042026706
0.0041617696
0.0041260589
0.0014025081
0.0020212281
0.0033202966
0.0052958597
0.0079405958
0.011299666
0.015452191
0.02048237
0.026463907
0.033341667
0.041014143
0.049325023
0.057845831
0.065816193
0.07193075
0.074240796
0.070081657
0.05693849
0.036474299
0.017477878
0.0087846545
0.0063406816
0.0054843329
0.0050260636
0.004729284
0.0045059224
0.0043640122
0.0042683079
0.0042038009
0.0041626732
0.0041261764
0.0015763103
0.0021284405
0.0033665691
0.0052829918
0.0078640275
0.01114486
0.015198873
0.020108609
0.025945967
0.032679019
0.040209471
0.04839672
0.056843776
0.064811585
0.071061325
0.073696983
0.070105319
0.057699967
0.037621713
0.018172273
0.0089744043
0.0063883607
0.0055065272
0.0050387882
0.0047369993
0.0045104005
0.0043665671
0.0042699172
0.0042050071
0.0041636347
0.0041262969
0.0017888399
0.0022653949
0.0034283412
0.0052815735
0.0077979124
0.011001302
0.014957914
0.019746911
0.025429661
0.032024295
0.039409135
0.047465782
0.055826971
0.063782821
0.070155689
0.073108318
0.070084313
0.058448421
0.038823276
0.018939423
0.0091887161
0.0064399375
0.0055299176
0.0050518221
0.0047449447
0.0045151944
0.0043692869
0.0042716114
0.004206295
0.0041646538
0.0041264229
0.002040624
0.0024379826
0.0035169338
0.0053005212
0.0077495568
0.010875309
0.014735153
0.01940356
0.024937694
0.031384568
0.03861934
0.046537591
0.054798262
0.062733601
0.069216358
0.072474922
0.07001529
0.05916649
0.040048851
0.019780629
0.0094304968
0.006496725
0.0055542204
0.0050660098
0.0047535777
0.0045202798
0.0043721719
0.0042734228
0.0042076723
0.0041657321
0.0041265686
0.0023262968
0.0026446778
0.0036277233
0.0053371064
0.0077198782
0.010771053
0.014536751
0.019086484
0.02448097
0.030781092
0.037849283
0.04561914
0.053768279
0.061668758
0.068246615
0.071797622
0.069895618
0.059848498
0.041282994
0.020700772
0.0097042462
0.0065581787
0.0055802898
0.0050802086
0.0047621943
0.0045256376
0.004375257
0.0042753143
0.0042091393
0.0041668697
0.0041267393
0.0026419812
0.0028993679
0.0038017869
0.0054246196
0.0077321072
0.010704428
0.014374599
0.018805652
0.02405873
0.030183784
0.037101354
0.04471747
0.052743798
0.060592344
0.067250454
0.071077982
0.069723242
0.060487482
0.042534755
0.021705479
0.010012806
0.0066257357
0.0056058375
0.0050957547
0.0047717883
0.0045313881
0.0043785025
0.0042773509
0.0042107137
0.0041680677
0.0041269328
0.0029684953
0.0031874336
0.004013453
0.0055599033
0.0077933031
0.010686093
0.014260399
0.018571486
0.023681303
0.029628469
0.036392162
0.043842515
0.051732737
0.059509521
0.06623292
0.070318439
0.069496676
0.061075915
0.043800589
0.022794433
0.010363061
0.0066997583
0.0056348735
0.0051114019
0.0047810114
0.0045372374
0.0043819956
0.0042794581
0.0042123764
0.0041693368
0.0041271536
0.003285141
0.0035011594
0.0042813278
0.005756252
0.0079170133
0.010730445
0.014209522
0.018397924
0.023361289
0.029142102
0.03573549
0.043005123
0.050745935
0.058448966
0.065202213
0.069522544
0.069215029
0.061605828
0.04506457
0.023969866
0.010755428
0.006779591
0.005660544
0.0051276011
0.0047913691
0.0045437222
0.0043856073
0.004281755
0.0042141695
0.004170662
0.0041274075
0.003587788
0.0038431829
0.0046117172
0.0060412641
0.0081370795
0.010867609
0.014245471
0.018305227
0.023112775
0.028719548
0.035109137
0.042209351
0.049791522
0.057397259
0.064164397
0.068694708
0.068878441
0.062069558
0.046328562
0.025216593
0.011202163
0.0068704784
0.005692065
0.0051455845
0.0048013198
0.0045499756
0.0043895283
0.0042841268
0.0042160273
0.004172062
0.0041276988
0.0039118723
0.0042438923
0.0050452079
0.0064555952
0.008481595
0.011123318
0.014390884
0.018313533
0.022952847
0.028377681
0.034566764
0.041479904
0.048881395
0.056365221
0.063126633
0.067840273
0.068488871
0.06246323
0.04758127
0.026573523
0.011698333
0.0069634073
0.0057184643
0.0051609998
0.0048116838
0.0045572509
0.00439348
0.0042867326
0.0042180225
0.0041734788
0.0041280324
0.0043049171
0.004740294
0.0056041857
0.0070072708
0.0089665368
0.011514964
0.014662572
0.018438697
0.022897175
0.028131537
0.034117443
0.040821296
0.048025802
0.055367185
0.062097235
0.066965205
0.068048909
0.06278865
0.048820739
0.027999106
0.012265462
0.0070781783
0.0057486947
0.0051818255
0.0048228947
0.0045639265
0.0043978002
0.0042894665
0.0042200346
0.0041749409
0.0041284171
0.0048672497
0.0054073105
0.0063246623
0.0077113229
0.0096299077
0.01206539
0.015075881
0.018692159
0.022957406
0.027989593
0.033755644
0.040214864
0.047227009
0.054410514
0.061083934
0.066075217
0.06755916
0.063042047
0.050009871
0.029449076
0.012884513
0.0071940428
0.0057807387
0.0051962478
0.0048321774
0.0045718873
0.0044020741
0.0042924061
0.0042221395
0.0041763653
0.0041288651
0.0056884281
0.0062956103
0.0072398391
0.008602472
0.010435724
0.012758212
0.015625073
0.019072052
0.023136414
0.027955425
0.033491282
0.039714908
0.04649881
0.053502821
0.060093811
0.065175589
0.067020827
0.063212202
0.051130005
0.030973159
0.013593355
0.0073468545
0.0058033318
0.0052164798
0.0048450085
0.004579095
0.004406722
0.004295626
0.0042242541
0.0041777327
0.0041293847
0.0067994627
0.0074167921
0.0083453173
0.0096500547
0.011378456
0.013589751
0.016299202
0.019566623
0.023426811
0.028023914
0.033321546
0.039299617
0.045842283
0.052646927