/*--------------------------------*- C++ -*----------------------------------*\
| =========                 |                                                 |
| \\      /  F ield         | OpenFOAM: The Open Source CFD Toolbox           |
|  \\    /   O peration     | Version:  2406                                  |
|   \\  /    A nd           | Website:  www.openfoam.com                      |
|    \\/     M anipulation  |                                                 |
\*---------------------------------------------------------------------------*/
FoamFile
{
    version     2.0;
    format      ascii;
    arch        "LSB;label=32;scalar=64";
    class       volScalarField;
    location    "0.019";
    object      alphat;
}
// * * * * * * * * * * * * * * * * * * * * * * * * * * * * * * * * * * * * * //

dimensions      [1 -1 -1 0 0 0 0];

internalField   nonuniform List<scalar> 
23203
(
0.013216339
0.013011126
0.012790279
0.012531447
0.01220733
0.011785998
0.01123234
0.010510677
0.0095894189
0.008450059
0.0071041887
0.0056239707
0.0041848236
0.0030660217
0.0024607131
0.0022399603
0.002178225
0.0021620017
0.0021551185
0.0021481884
0.0021377476
0.0021220449
0.002100887
0.013354006
0.013122823
0.012875563
0.012590704
0.012242151
0.011799462
0.011229273
0.010497563
0.0095742721
0.0084416151
0.0071100725
0.0056469448
0.0042168996
0.0030874987
0.0024603753
0.0022266102
0.0021612558
0.0021448855
0.0021386729
0.002132387
0.0021225161
0.0021074017
0.0020868072
0.013476011
0.013219734
0.012947081
0.012637276
0.012265296
0.011802067
0.011215738
0.010473943
0.0095480916
0.0084212622
0.0071032621
0.0056574469
0.0042390652
0.0031040079
0.0024587099
0.0022129043
0.0021440082
0.0021274887
0.0021219592
0.0021163486
0.002107057
0.0020925359
0.0020725375
0.013585919
0.013305331
0.013008162
0.012674338
0.012279794
0.011796689
0.011194559
0.010442599
0.0095136137
0.0083916266
0.0070860973
0.0056571982
0.0042520474
0.0031154477
0.0024556008
0.0021989377
0.0021266672
0.0021100024
0.0021051355
0.0021002069
0.0020914811
0.002077531
0.0020580953
0.013687297
0.013383011
0.013062019
0.012704908
0.012288483
0.011786
0.011168303
0.010405991
0.0094732333
0.0083550353
0.0070607591
0.0056480336
0.0042570148
0.0031222071
0.0024512099
0.0021849518
0.0021094811
0.0020926571
0.0020884292
0.0020841498
0.0020759507
0.002062399
0.013783748
0.013456203
0.01311189
0.012732018
0.012294177
0.011772613
0.01113937
0.01036636
0.0094290632
0.0083134978
0.0070291369
0.0056316145
0.0042551564
0.0031248083
0.0024457603
0.0021712064
0.0020927647
0.0020757495
0.0020720522
0.0020683765
0.0020606734
0.0020475987
0.013878895
0.01352833
0.013160983
0.012758639
0.012299606
0.011759034
0.011110048
0.01032581
0.009383053
0.0082688367
0.0069929314
0.0056094582
0.0042476236
0.0031238298
0.0024395209
0.0021579874
0.0020767246
0.0020594772
0.0020562502
0.0020530889
0.0020458435
0.0020332573
0.013976392
0.013602841
0.01321251
0.012787738
0.012307479
0.011747695
0.011082559
0.010286364
0.0093370605
0.0082227723
0.0069537298
0.0055829703
0.0042354901
0.0031198274
0.0024327176
0.0021454769
0.0020615725
0.0020440158
0.0020412103
0.0020384629
0.0020316336
0.0020195153
0.014079924
0.013683234
0.013269751
0.012822341
0.012320558
0.01174114
0.011059197
0.01025008
0.0092929407
0.008176986
0.0069130543
0.0055534802
0.0042197691
0.0031133471
0.0024255648
0.0021338185
0.002047503
0.0020295589
0.0020270832
0.0020246534
0.0020181916
0.0020065018
0.014193122
0.013772963
0.013335956
0.012865478
0.012341636
0.011741888
0.011042192
0.010218973
0.0092525076
0.0081331131
0.0068723764
0.0055222708
0.0042014552
0.0031049563
0.0024182888
0.0021231556
0.0020346769
0.0020162719
0.0020140031
0.0020117985
0.0020056465
0.0019943311
0.014319505
0.013875366
0.013414246
0.012920026
0.012373332
0.011752291
0.011033702
0.010194976
0.0092174976
0.0080927226
0.0068331085
0.0054905767
0.0041815221
0.0030952378
0.0024111257
0.0021136197
0.0020232339
0.0020042941
0.0020020877
0.0020000201
0.0019941087
0.0019831006
0.014462503
0.013993723
0.013507714
0.012988864
0.012418293
0.011774773
0.011035885
0.010180007
0.0091896199
0.0080573393
0.0067966099
0.0054595824
0.0041609148
0.0030847809
0.0024043269
0.0021053351
0.0020132716
0.001993728
0.0019914543
0.0019894253
0.0019836715
0.0019728902
0.014625399
0.014131187
0.013619342
0.013074773
0.012479081
0.011811645
0.011050819
0.010175918
0.0091705166
0.0080284204
0.00676417
0.0054304044
0.0041405228
0.0030741551
0.0023981398
0.0020984038
0.002004884
0.0019846668
0.0019821881
0.0019801021
0.0019744108
0.0019637637
0.01481128
0.014290745
0.013751975
0.013180415
0.012558147
0.011865137
0.01108052
0.010184506
0.0091617778
0.0080073672
0.0067370188
0.0054041007
0.0041211912
0.0030639115
0.0023928127
0.002092935
0.0019981425
0.0019771876
0.0019743678
0.0019721142
0.0019663817
0.0019557679
0.015022995
0.014475176
0.013908286
0.013308321
0.012657842
0.011937425
0.011126942
0.010207518
0.0091649495
0.0079955384
0.0067163422
0.0053816872
0.0041037343
0.0030545928
0.0023886005
0.0020890313
0.0019930957
0.0019713299
0.0019680502
0.0019655131
0.0019596268
0.001948938
0.015263093
0.014686983
0.014090699
0.013460805
0.012780341
0.012030506
0.011191897
0.010246592
0.0091814935
0.0079942255
0.0067032688
0.0053641247
0.0040889132
0.0030467005
0.0023857346
0.0020867812
0.0019898
0.0019671394
0.0019632679
0.0019603293
0.001954166
0.0019432958
0.015533825
0.014928393
0.014301382
0.013639952
0.012927634
0.012146227
0.011277103
0.01030328
0.0092128048
0.0080046721
0.0066988911
0.005352345
0.0040774686
0.0030407313
0.002384449
0.0020862534
0.0019882626
0.0019646686
0.0019600905
0.0019565541
0.0019500166
0.0019388498
0.015837129
0.01520136
0.014542275
0.013847656
0.013101537
0.012286332
0.011384193
0.01037908
0.0092602391
0.0080280892
0.0067042694
0.0053472435
0.0040701011
0.003037158
0.002384983
0.0020875404
0.0019885659
0.001963813
0.0019584238
0.0019542798
0.0019471795
0.0019356091
0.016174589
0.015507513
0.01481503
0.014085558
0.013303652
0.012452348
0.01151462
0.01047537
0.0093250754
0.0080656351
0.0067204205
0.0053496675
0.0040674505
0.0030363713
0.0023874998
0.002090684
0.0019906789
0.0019646247
0.0019582835
0.0019534583
0.0019456455
0.0019335657
0.016547481
0.015848222
0.015121094
0.014355152
0.013535477
0.012645811
0.011669862
0.010593559
0.009408624
0.0081184926
0.0067483764
0.0053604721
0.0040701605
0.0030387679
0.0023921594
0.0020957057
0.0019945626
0.0019671434
0.0019597071
0.0019540236
0.0019454035
0.0019326993
0.016956618
0.016224402
0.01546149
0.014657583
0.013798284
0.012867984
0.011851177
0.01073491
0.0095121184
0.0081878234
0.0067891774
0.0053805232
0.004078875
0.0030447475
0.0023991332
0.0021026332
0.0020002011
0.0019713028
0.0019626591
0.0019559691
0.0019464203
0.0019329855
0.017402362
0.0166365
0.015836762
0.014993521
0.014092905
0.013119793
0.012059602
0.01090048
0.0096366479
0.0082747145
0.0068438396
0.0054106852
0.0040942339
0.0030546934
0.002408577
0.0021114797
0.0020075597
0.0019770388
0.0019670543
0.0019592541
0.0019486813
0.0019343958
0.017884865
0.017084836
0.016247419
0.01536364
0.014420111
0.013402194
0.012296224
0.011091466
0.009783416
0.0083803273
0.0069134287
0.0054518517
0.0041168797
0.0030689629
0.0024206084
0.0021222256
0.0020165692
0.0019842742
0.0019728966
0.0019638732
0.0019520947
0.0019368925
0.018403944
0.017569325
0.016693454
0.015767939
0.014779674
0.013715231
0.012561721
0.011308841
0.0099535674
0.0085058561
0.0069990794
0.0055049868
0.0041475064
0.0030879435
0.0024353613
0.0021348657
0.0020271811
0.0019929993
0.0019800265
0.0019696978
0.0019567032
0.0019404298
0.018959238
0.018089783
0.017174942
0.016206911
0.015173102
0.014060611
0.012857219
0.011553752
0.01014833
0.0086525819
0.0071020304
0.0055711582
0.0041868856
0.0031120537
0.0024529652
0.0021493763
0.0020393243
0.0020031293
0.0019883846
0.0019766352
0.0019624095
0.001944965
0.01955016
0.018645734
0.017691556
0.01668041
0.015600158
0.014438312
0.013183359
0.011827133
0.010368902
0.0088218561
0.0072236414
0.0056515611
0.0042358804
0.0031417437
0.0024735402
0.0021657105
0.0020529016
0.0020145448
0.0019978911
0.0019847013
0.0019692048
0.0019504135
0.020176057
0.019236678
0.018242997
0.01718835
0.01606096
0.014848778
0.01354092
0.012130082
0.01061662
0.0090151857
0.0073654596
0.0057475924
0.0042955278
0.0031775792
0.0024972698
0.0021838653
0.0020678558
0.0020271622
0.0020085353
0.0019937159
0.0019768832
0.0019567959
0.020836256
0.019862069
0.018828907
0.017730614
0.016555697
0.015292505
0.013930711
0.012463748
0.010892939
0.00923425
0.0075292521
0.0058608894
0.004367072
0.0032202428
0.0025243662
0.0022038182
0.0020840815
0.0020408552
0.0020202145
0.0020036081
0.0019854223
0.0019641096
0.021530077
0.02052132
0.019448848
0.018306968
0.017084433
0.015769865
0.014353454
0.012829234
0.011199339
0.0094808523
0.0077169981
0.0059933588
0.0044520217
0.0032706058
0.0025551306
0.0022255805
0.0021015046
0.002055561
0.0020328226
0.0020143947
0.0019946985
0.0019721262
0.022257072
0.021214003
0.020102485
0.018917272
0.017647224
0.016281288
0.014809944
0.013227747
0.011537458
0.0097570071
0.0079309542
0.0061472402
0.0045522201
0.0033297887
0.0025899885
0.0022492043
0.002120054
0.0020711745
0.0020462491
0.0020260191
0.0020046495
0.0019808538
0.023017468
0.021940452
0.020790248
0.019562044
0.018244812
0.016827752
0.015301508
0.013661004
0.011909391
0.010065153
0.0081738012
0.0063252189
0.0046699451
0.0033992382
0.0026295325
0.0022748105
0.0021396953
0.0020876272
0.0020604484
0.0020383595
0.0020153666
0.0019901173
0.023811601
0.022701076
0.021512674
0.020242007
0.018878184
0.017410428
0.015829659
0.014130878
0.012317404
0.010407963
0.0084485477
0.0065304118
0.0048079635
0.0034808161
0.0026745834
0.0023026095
0.0021604311
0.0021048695
0.0020753496
0.0020513749
0.0020267531
0.0020000712
0.024639981
0.023496378
0.022270321
0.02095784
0.019548102
0.018030429
0.016395772
0.014639129
0.012763746
0.010788208
0.0087584408
0.0067663312
0.0049695624
0.0035768783
0.0027262571
0.0023329267
0.0021822961
0.0021228691
0.0020909118
0.0020650213
0.0020387806
0.0020106579
0.025503737
0.02432752
0.02306441
0.021710854
0.020256056
0.018689369
0.017001705
0.015187936
0.013251001
0.011208961
0.0091070638
0.0070369417
0.0051586226
0.003690379
0.0027860488
0.002366247
0.0022053892
0.0021416204
0.0021071119
0.0020792806
0.0020514078
0.0020218516
0.026404599
0.025196247
0.023896712
0.02250289
0.021003981
0.019389327
0.017649746
0.01577986
0.01378209
0.011673604
0.0094983441
0.0073466727
0.0053796844
0.0038250155
0.0028559642
0.0024032678
0.0022298928
0.0021611593
0.0021239487
0.0020941438
0.0020646269
0.0020336367
0.027344807
0.026104815
0.024769506
0.023336232
0.021794212
0.020132752
0.018342517
0.016417767
0.014360222
0.012185813
0.0099365564
0.0077004551
0.0056380386
0.003985317
0.0029386405
0.0024449795
0.0022560917
0.002181571
0.0021414551
0.0021096274
0.0020784516
0.0020460276
0.028327185
0.02705604
0.025685601
0.024213741
0.022629671
0.020922633
0.019083114
0.017104939
0.014988965
0.012749588
0.010426314
0.008103668
0.005939682
0.0041768853
0.0030375899
0.0024927573
0.0022843995
0.0022029906
0.0021596955
0.0021257756
0.0020929195
0.0020590558
0.029355123
0.028053336
0.026648429
0.025138824
0.023513741
0.021762401
0.019875058
0.017845042
0.015672231
0.013369237
0.010972538
0.0085621004
0.0062913275
0.0044064751
0.0031574549
0.0025485378
0.0023154109
0.0022256145
0.0021787655
0.0021426593
0.0021080938
0.0020727786
0.030432512
0.029100592
0.027661873
0.026115374
0.024450361
0.022655991
0.020722316
0.018642143
0.016414285
0.014049378
0.011580441
0.0090819016
0.0067003565
0.0046820905
0.0033043223
0.0026150555
0.002349986
0.0022497251
0.0021988007
0.0021603761
0.0021240608
0.0020872755
0.031563933
0.030202401
0.028730518
0.027147971
0.025444073
0.023607941
0.021629435
0.019500832
0.017219839
0.014794991
0.012255533
0.0096695354
0.007174717
0.0050130055
0.0034860799
0.0026961796
0.0023893752
0.0022757228
0.002219988
0.0021790557
0.0021409317
0.0021026481
0.032754528
0.031363937
0.029859542
0.028241772
0.026500004
0.024623353
0.022601494
0.020426192
0.018094044
0.015611432
0.013003625
0.010331735
0.0077228015
0.005409689
0.003712782
0.0027973857
0.0024354159
0.0023041795
0.0022425785
0.0021988658
0.002158847
0.0021190228
0.034009998
0.032590941
0.031054706
0.029402536
0.027623899
0.025707932
0.02364416
0.021423865
0.019042568
0.016504501
0.013830884
0.011075503
0.0083533303
0.0058836008
0.0039969056
0.002926388
0.0024908516
0.0023359241
0.002266905
0.002220017
0.0021779792
0.0021365537
0.035336597
0.033889735
0.032322372
0.030636647
0.02882214
0.026868034
0.024763741
0.022500113
0.020071651
0.017480499
0.014743864
0.011908088
0.0090751836
0.0064468327
0.0043534269
0.0030939596
0.0025598211
0.0023721837
0.0022934145
0.0022427694
0.0021985343
0.0021554234
0.036740997
0.035267076
0.033669351
0.031950945
0.030101569
0.028110483
0.025967026
0.023661673
0.021187982
0.018546123
0.015749436
0.012836926
0.0098972989
0.0071117677
0.004799352
0.0033147489
0.0026486602
0.0024148306
0.0023227213
0.0022674424
0.0022207558
0.0021758456
0.038230187
0.036730042
0.035102779
0.033352597
0.03146937
0.029442448
0.027261145
0.024915622
0.02239859
0.019708395
0.016854738
0.013869611
0.010828565
0.0078906007
0.0053528811
0.0036079501
0.0027670744
0.002466815
0.0023557114
0.0022944377
0.0022449306
0.0021980677
0.039811585
0.038286147
0.036630235
0.034849256
0.032933227
0.030871621
0.028653762
0.026269566
0.023711009
0.020974794
0.018067286
0.01501393
0.01187769
0.0087948175
0.0060325493
0.0039976016
0.0029296792
0.0025329068
0.0023937353
0.0023242801
0.0022713976
0.0022223762
0.041492908
0.039943254
0.038259697
0.036448947
0.034501191
0.032406087
0.030152974
0.02773158
0.025133268
0.022353295
0.019395025
0.016277921
0.013053235
0.0098350439
0.0068558675
0.0045117438
0.0031579713
0.0026209454
0.002438955
0.002357704
0.0023005626
0.0022490983
0.043282021
0.041709386
0.039999329
0.038159943
0.036181637
0.034054247
0.031767189
0.029310073
0.026673749
0.02385222
0.020846187
0.017669757
0.014363556
0.011020953
0.0078383122
0.0051800552
0.0034820841
0.0027439598
0.0024949963
0.0023957822
0.0023329305
0.0022786099
0.045187145
0.043592908
0.04185762
0.039990908
0.037983366
0.035824985
0.033505327
0.031013953
0.028341306
0.025480323
0.022429396
0.019197931
0.015817162
0.012361815
0.0089932853
0.0060299382
0.0039408588
0.0029234471
0.0025682267
0.0024402223
0.0023691543
0.0023113401
0.047216662
0.045602391
0.043843295
0.041950683
0.039915315
0.037727379
0.035376574
0.032852456
0.030145167
0.027246769
0.024153691
0.020871301
0.017422702
0.013866302
0.010331464
0.0070842838
0.004579405
0.0031930188
0.0026700345
0.0024939817
0.0024101771
0.0023477954
0.049378781
0.047746266
0.045964989
0.044048082
0.04198648
0.039770564
0.037390186
0.034834932
0.032094729
0.029160936
0.02602835
0.022698916
0.019188813
0.015542476
0.011861176
0.0083595
0.0054429225
0.003601803
0.0028208549
0.0025624598
0.0024574779
0.0023886114
0.051681497
0.050032743
0.048231113
0.046291718
0.044205687
0.041963551
0.03955534
0.036970686
0.034199376
0.031232228
0.028062706
0.024689908
0.021124219
0.017398366
0.013589851
0.0098667389
0.0065671472
0.0042125833
0.0030565696
0.0026560682
0.0025136629
0.0024346632
0.054132166
0.052469338
0.05064938
0.048689542
0.04658115
0.04431479
0.041880572
0.039268366
0.036467908
0.033469587
0.030265773
0.026853216
0.023237513
0.019441748
0.015523807
0.011612073
0.0079746492
0.005093421
0.0034352212
0.002794971
0.0025837315
0.0024873437
0.056738846
0.055064319
0.053228273
0.051250216
0.04912139
0.04683276
0.044374679
0.041737061
0.038909618
0.035882427
0.03264699
0.029198147
0.025537592
0.021680562
0.017669055
0.01359894
0.0096752349
0.0063012045
0.0040392881
0.0030177147
0.0026778949
0.0025491599
0.059509507
0.05782588
0.055976108
0.05398219
0.051835452
0.04952705
0.047047555
0.044386884
0.041534741
0.038481005
0.035216526
0.031734638
0.028033902
0.024123267
0.020032069
0.015830297
0.011670531
0.0078676735
0.0049641445
0.0033927612
0.0028175308
0.0026251907
0.062450754
0.060760885
0.058900051
0.056892952
0.054731118
0.052405738
0.049907433
0.047226282
0.04435199
0.041274282
0.037983517
0.034471853
0.030735371
0.026778027
0.022619183
0.018308588
0.013957265
0.0098003194
0.0062925867
0.0040255159
0.0030465198
0.0027264294
0.065568182
0.063875095
0.062006115
0.059988804
0.057814748
0.055475343
0.05296114
0.050262233
0.047368541
0.044269717
0.040955724
0.037417781
0.033650002
0.029652405
0.025436568
0.021036629
0.016531663
0.01209207
0.0080667419
0.0050433654
0.0034485479
0.0028776132
0.068867607
0.067174598
0.065300627
0.063276322
0.061093234
0.058742602
0.056215338
0.053501761
0.050591768
0.04747495
0.044140985
0.040580364
0.036785659
0.032753811
0.028490355
0.024017484
0.019390107
0.014729001
0.010288135
0.0065558829
0.0041588328
0.0031327804
0.072353657
0.070664343
0.068788691
0.066760674
0.064571852
0.062213457
0.059676644
0.056951903
0.054029043
0.050897594
0.047547058
0.043967406
0.04015004
0.03608953
0.031786762
0.027254849
0.022530619
0.01769793
0.012936014
0.0086106576
0.0053419234
0.0036000022
0.076028257
0.074346271
0.072472437
0.070444246
0.06825332
0.065891138
0.063348865
0.060616784
0.057684685
0.054542282
0.051178973
0.047584321
0.04374882
0.039665211
0.035330821
0.030751891
0.025951787
0.020987306
0.015982237
0.011195711
0.0071290165
0.0044557015
0.079893483
0.078222616
0.076354389
0.074329979
0.072141029
0.069778983
0.067234794
0.064499057
0.061561807
0.058412625
0.055040784
0.051435542
0.047586702
0.043485602
0.039126863
0.034511545
0.029653039
0.024588448
0.0194016
0.01427064
0.0095594817
0.0059044798
0.083950667
0.082295019
0.080436396
0.078419815
0.076236896
0.07387908
0.071337303
0.068602355
0.065664386
0.062512842
0.05913689
0.055525584
0.051668231
0.047555125
0.043178844
0.03853657
0.033634311
0.028494882
0.023173636
0.017790663
0.012596665
0.0080834239
0.088198612
0.08656241
0.084717575
0.082713096
0.080540553
0.078191422
0.075656857
0.072927623
0.069993607
0.066844218
0.063468792
0.059856249
0.055995503
0.051876051
0.047488935
0.042828434
0.037895111
0.032701428
0.027282546
0.021717949
0.01617606
0.011001946
0.092635511
0.091023231
0.08919666
0.087208904
0.085051518
0.082715987
0.080193387
0.077474174
0.074548661
0.071406533
0.068036832
0.06442831
0.060569615
0.056449667
0.052058371
0.047387857
0.042434687
0.037203838
0.03171618
0.026023083
0.020236125
0.014587928
0.097257397
0.095673711
0.093870092
0.091903855
0.089766503
0.087449482
0.084943873
0.082240285
0.079329075
0.076199663
0.072840939
0.0692418
0.065390739
0.061276247
0.056887381
0.052214691
0.047251813
0.041998328
0.036465004
0.030683809
0.024727807
0.018751673
0.1020593
0.10050916
0.098733507
0.096793961
0.094681954
0.092388905
0.089905899
0.087223507
0.084331699
0.081220256
0.077878353
0.074294577
0.070457226
0.0663545
0.061974862
0.05730772
0.0523446
0.047081219
0.041521234
0.03568325
0.029614397
0.023417227
0.10703408
0.10552265
0.10378026
0.10187283
0.099791728
0.097528314
0.095073632
0.092418224
0.089552123
0.086465228
0.083146467
0.079584184
0.075766801
0.071682356
0.067318881
0.062664962
0.057710612
0.052448808
0.046878219
0.041008249
0.034868542
0.02852706
0.11217338
0.11070618
0.10900272
0.10713324
0.10508904
0.10286142
0.10044135
0.097819392
0.094985546
0.091929251
0.088639766
0.085105749
0.081315283
0.077256194
0.07291623
0.068283415
0.063346713
0.058097179
0.052530009
0.04664827
0.040469742
0.034039322
0.11746673
0.11604954
0.114391
0.11256565
0.11056469
0.10837933
0.10600051
0.1034187
0.10062386
0.097605453
0.094352863
0.090854475
0.087098112
0.083071728
0.078762921
0.074159318
0.069249141
0.064022107
0.058471003
0.052594519
0.046402318
0.039923755
0.1229025
0.12154147
0.11993428
0.11815968
0.11620878
0.11407272
0.11174234
0.10920804
0.10645976
0.10348693
0.1002784
0.096822916
0.093108656
0.089123174
0.084853856
0.080288071
0.07541356
0.070219133
0.064695918
0.058839577
0.052654161
0.046158402
0.12846707
0.12716864
0.12561959
0.12390274
0.1220091
0.11992974
0.11765539
0.11517637
0.11248253
0.10956324
0.1064074
0.10300382
0.099340341
0.095404288
0.091183193
0.086664283
0.081834945
0.076683358
0.071199497
0.065376903
0.059215687
0.052727192
0.13414579
0.13291678
0.13143306
0.1297814
0.12795272
0.12593798
0.12372783
0.12131248
0.11868171
0.11582485
0.11273069
0.1093875
0.10578374
0.10190685
0.09774364
0.093281424
0.088507423
0.083409375
0.077976432
0.07220062
0.066079224
0.059618343
0.13992265
0.13877022
0.13735945
0.13578088
0.13402533
0.13208366
0.12994641
0.1276037
0.12504519
0.12226012
0.11923726
0.11596485
0.1124308
0.10862275
0.10452784
0.10013303
0.095425293
0.09039207
0.085021926
0.079305788
0.073238874
0.06682347
0.14578045
0.14471206
0.14338221
0.141885
0.14021116
0.13835145
0.13629629
0.13403568
0.13155919
0.12885596
0.12591464
0.12272342
0.11926993
0.11554217
0.11152709
0.10721112
0.10258134
0.097624997
0.092330206
0.08668704
0.080689145
0.074335952
0.15170105
0.15072441
0.14948377
0.14807654
0.14649337
0.14472492
0.1427615
0.14059302
0.13820891
0.1355982
0.13274948
0.12965088
0.12629006
0.12265418
0.11873055
0.11450598
0.10996704
0.10510069
0.099894736
0.094338601
0.088424699
0.082150242
0.15766574
0.15678877
0.1556459
0.15433757
0.15285437
0.15118686
0.14932525
0.14725933
0.14497843
0.14247145
0.13972689
0.13673278
0.13347666
0.12994571
0.12612723
0.12200766
0.1175732
0.11281092
0.10770833
0.10225427
0.096440127
0.090261342
0.1636553
0.16288609
0.16184973
0.16064945
0.15927576
0.15771917
0.15596978
0.15401727
0.15185087
0.14945938
0.14683118
0.14395421
0.14081597
0.13740351
0.13370334
0.12970277
0.12538809
0.12074527
0.11576176
0.11042599
0.10472848
0.098663182
0.16965039
0.16899706
0.16807602
0.16699301
0.16573852
0.16430298
0.16267642
0.16084841
0.15880809
0.15654417
0.15404493
0.15129819
0.14829138
0.1450115
0.14144513
0.13757857
0.13339881
0.12889192
0.12404422
0.11884398
0.11328104
0.10734807
0.17563201
0.1751026
0.17430569
0.1733492
0.17222363
0.17091934
0.16942632
0.16773406
0.16583162
0.16370763
0.16135028
0.15874731
0.15588605
0.15275343
0.14933598
0.14561982
0.14159124
0.13723665
0.13254251
0.1274963
0.12208712
0.11630652
0.18158166
0.18118405
0.18051993
0.17969908
0.17871203
0.17754913
0.17620032
0.17465503
0.17290227
0.17093061
0.16872816
0.16628259
0.16358114
0.16061067
0.15735763
0.15380809
0.14994779
0.14576366
0.14124192
0.13636887
0.13113336
0.12552603
0.1874818
0.18722362
0.18670067
0.18602436
0.18518522
0.18417364
0.18297951
0.18159227
0.18000087
0.17819383
0.17615923
0.17388468
0.17135737
0.16856408
0.16549121
0.16212483
0.15845075
0.15445465
0.15012356
0.14544391
0.14040285
0.1349905
0.19331626
0.1932046
0.19283078
0.19230758
0.19162547
0.19077486
0.18974563
0.18852723
0.18710859
0.18547825
0.18362423
0.18153415
0.17919515
0.17659398
0.17371699
0.17055023
0.16707948
0.16329032
0.1591687
0.15470142
0.14987588
0.14468083
0.19907011
0.19911182
0.19889471
0.1985327
0.19801622
0.19733567
0.196481
0.19544168
0.19420667
0.1927645
0.19110325
0.18921049
0.18707341
0.18467872
0.18201277
0.17906157
0.17581087
0.17224621
0.16835314
0.16411887
0.15953015
0.15457426
0.20472958
0.20493107
0.20487775
0.20468442
0.20434153
0.20383955
0.20316849
0.20231785
0.20127669
0.20003356
0.19857658
0.1968934
0.19497121
0.19279676
0.19035643
0.18763624
0.18462194
0.18129914
0.17765337
0.17367037
0.16933797
0.16464342
0.21028242
0.21064945
0.21076632
0.21074848
0.21058647
0.21027083
0.20979167
0.2091386
0.20830073
0.20726672
0.20602477
0.2045626
0.20286747
0.20092623
0.19872529
0.19625072
0.19348831
0.19042367
0.1870424
0.18333022
0.17927337
0.17485945
0.21571816
0.21625576
0.21654843
0.2167121
0.2167374
0.21661502
0.21633517
0.21588759
0.2152615
0.21444569
0.21342846
0.21219766
0.21074067
0.20904441
0.20709542
0.20487983
0.2023835
0.19959209
0.1964912
0.1930665
0.18930403
0.18519149
0.22102829
0.22174077
0.22221402
0.22256431
0.22278247
0.22285933
0.22278525
0.22255011
0.2221433
0.22155375
0.22076991
0.21977978
0.21857087
0.21713028
0.21544465
0.21350026
0.21128307
0.20877884
0.20597323
0.202852
0.19940101
0.19560613
0.2262065
0.22709725
0.22775497
0.22829611
0.22871173
0.22899284
0.22912997
0.22911319
0.22893207
0.2285757
0.22803275
0.22729136
0.22633925
0.22516367
0.22375145
0.22208903
0.2201625
0.21795775
0.21546051
0.2126566
0.20953194
0.20607239
0.2312488
0.23232016
0.23316527
0.23390062
0.23451741
0.23500683
0.23535964
0.23556611
0.235616
0.23549865
0.23520289
0.23471712
0.23402923
0.23312671
0.23199657
0.23062546
0.22899965
0.22710517
0.22492789
0.2224537
0.21966853
0.21655814
0.23615368
0.23740729
0.23844194
0.23937395
0.24019463
0.24089541
0.24146729
0.24190076
0.24218583
0.24231206
0.24226853
0.24204386
0.2416262
0.24100325
0.24016228
0.23909013
0.23777331
0.23619802
0.2343503
0.23221611
0.22978143
0.22703191
0.24092167
0.24235827
0.24358362
0.24471373
0.24574017
0.24665446
0.24744783
0.24811102
0.24863432
0.24900753
0.24922001
0.24926063
0.24911781
0.24877951
0.24823325
0.24746613
0.2464649
0.24521597
0.24370557
0.2419198
0.23984467
0.23746578
0.24555456
0.24717488
0.24859167
0.24992068
0.25115374
0.25228262
0.2532988
0.25419332
0.25495673
0.25557913
0.25605014
0.25635893
0.25649419
0.25644418
0.25619668
0.25573909
0.25505841
0.25414131
0.25297421
0.2515434
0.24983498
0.24783449
0.25005536
0.25185874
0.25346668
0.25499465
0.2564345
0.2577783
0.25901784
0.26014443
0.26114893
0.26202171
0.26275271
0.2633314
0.26374676
0.26398735
0.26404128
0.26389621
0.26353943
0.26295788
0.26213823
0.26106693
0.25973021
0.2581136
0.25442908
0.25641441
0.2582125
0.25993868
0.26158473
0.26314296
0.26460549
0.26596397
0.26720952
0.26833286
0.26932421
0.27017335
0.27086961
0.27140184
0.27175847
0.27192746
0.27189642
0.27165256
0.27118281
0.27047384
0.26951201
0.26828287
0.25868171
0.26084736
0.26283407
0.26475699
0.26660784
0.26837926
0.27006367
0.27165299
0.27313869
0.27451179
0.27576283
0.27688193
0.27785873
0.27868242
0.27934174
0.27982501
0.28012012
0.28021458
0.28009561
0.27975012
0.27916461
0.27832472
0.26281948
0.26516344
0.2673367
0.26945436
0.27150813
0.27349086
0.27539528
0.27721365
0.27893776
0.28055893
0.28206807
0.2834556
0.2847115
0.28582531
0.28678611
0.28758254
0.28820282
0.28863478
0.28886591
0.28888337
0.28867387
0.28822311
0.26684887
0.26936891
0.2717263
0.27403619
0.27629035
0.27848186
0.28060378
0.28264868
0.28460871
0.28647551
0.28824029
0.28989384
0.29142646
0.29282804
0.29408801
0.29519536
0.29613864
0.29690601
0.29748524
0.29786376
0.29802849
0.29796523
0.27077607
0.27346967
0.27600837
0.27850757
0.28095916
0.28335642
0.28569273
0.28796103
0.29015375
0.29226292
0.2942801
0.29619641
0.29800253
0.29968866
0.30124458
0.30265963
0.30392271
0.30502229
0.30594646
0.30668292
0.30721881
0.30754008
0.27460731
0.27747133
0.28018807
0.28287314
0.28551866
0.28811812
0.29066527
0.29315335
0.29557513
0.29792296
0.30018873
0.30236392
0.30443955
0.30640621
0.30825401
0.30997263
0.31155133
0.31297891
0.31424377
0.3153339
0.31623666
0.31693819
0.27834847
0.28137965
0.28427099
0.28713819
0.28997374
0.29277145
0.29552537
0.29822907
0.30087566
0.3034578
0.30596774
0.3083973
0.31073785
0.31298033
0.31511521
0.31713254
0.31902189
0.32077242
0.32237285
0.32381144
0.32507582
0.32615229
0.28200535
0.28520002
0.28826208
0.29130739
0.29432882
0.29732051
0.30027681
0.30319162
0.30605836
0.30887005
0.31161926
0.31429817
0.31689849
0.31941152
0.32182808
0.32413857
0.32633292
0.32840061
0.33033069
0.33211171
0.33373156
0.33517674
0.28558348
0.28893777
0.29216645
0.29538561
0.29858852
0.30176964
0.30492363
0.30804471
0.31112663
0.31416272
0.31714591
0.32006871
0.32292319
0.325701
0.32839332
0.33099089
0.33348399
0.33586244
0.33811561
0.34023236
0.34220083
0.34400774
0.28908812
0.29259799
0.29598901
0.29937759
0.30275738
0.30612319
0.30946995
0.3127922
0.31608402
0.31933907
0.32255062
0.32571151
0.32881417
0.33185059
0.3348123
0.33769039
0.34047549
0.34315776
0.3457269
0.34817205
0.35048164
0.35264262
0.29252408
0.29618539
0.29973438
0.30328782
0.30683978
0.31038535
0.31391979
0.31743793
0.32093418
0.32440252
0.32783655
0.33122946
0.33457402
0.33786255
0.34108694
0.34423863
0.3473086
0.35028733
0.35316484
0.3559306
0.3585733
0.36108013
0.29589575
0.29970431
0.30340682
0.3071205
0.3108398
0.31456013
0.31827704
0.32198567
0.32568072
0.32935652
0.33300699
0.33662565
0.34020559
0.3437395
0.34721961
0.3506377
0.35398508
0.35725258
0.36043053
0.36350873
0.36647611
0.36932016
0.29920708
0.30315867
0.30701023
0.31087948
0.31476126
0.31865129
0.32254539
0.32643901
0.33032717
0.33420449
0.33806523
0.34190322
0.34571191
0.34948431
0.35321299
0.35689006
0.36050719
0.36405553
0.36752575
0.37090791
0.37419128
0.37736359
0.30246156
0.30655195
0.31054809
0.31456825
0.31860763
0.32266228
0.32672828
0.33080138
0.33487688
0.33894974
0.34301451
0.34706536
0.35109605
0.35509994
0.35906992
0.36299844
0.36687751
0.3706986
0.3744527
0.3781302
0.38172062
0.38521198
0.30566224
0.30988724
0.31402352
0.31818994
0.32238208
0.32659627
0.33082888
0.33507593
0.33933303
0.34359542
0.34785796
0.35211516
0.35636109
0.36058941
0.36479337
0.36896574
0.37309885
0.3771845
0.381214
0.38517805
0.38906645
0.39286752
0.30881176
0.31316722
0.31743924
0.32174733
0.32608742
0.33045613
0.3348501
0.33926562
0.34369858
0.34814452
0.35259862
0.35705566
0.36151005
0.36595576
0.37038636
0.37479495
0.37917417
0.38351617
0.38781254
0.39205429
0.39623154
0.40033286
0.31191239
0.31639422
0.32079766
0.32524288
0.32972618
0.33424445
0.33879459
0.34337315
0.3479763
0.35259987
0.35723933
0.36188977
0.36654588
0.37120198
0.37585192
0.38048913
0.38510656
0.38969668
0.3942514
0.39876202
0.40321894
0.40761106
0.31496605
0.31957024
0.32410083
0.32867874
0.3333006
0.33796355
0.34266474
0.34740099
0.35216875
0.3569641
0.36178281
0.36662026
0.37147145
0.37633098
0.38119303
0.38605132
0.39089912
0.39572921
0.4005338
0.40530448
0.41003197
0.41470544
0.31797435
0.32269697
0.32735057
0.33205681
0.33681264
0.34161549
0.34646273
0.35135142
0.35627828
0.36123967
0.36623163
0.37124981
0.37628952
0.38134564
0.38641264
0.39148457
0.39655499
0.40161697
0.40666304
0.41168508