/*--------------------------------*- C++ -*----------------------------------*\
| =========                 |                                                 |
| \\      /  F ield         | OpenFOAM: The Open Source CFD Toolbox           |
|  \\    /   O peration     | Version:  2406                                  |
|   \\  /    A nd           | Website:  www.openfoam.com                      |
|    \\/     M anipulation  |                                                 |
\*---------------------------------------------------------------------------*/
FoamFile
{
    version     2.0;
    format      ascii;
    arch        "LSB;label=32;scalar=64";
    class       volScalarField;
    location    "0.019";
    object      pMean;
}
// * * * * * * * * * * * * * * * * * * * * * * * * * * * * * * * * * * * * * //

dimensions      [1 -1 -2 0 0 0 0];

internalField   nonuniform List<scalar> 
23203
(
100288.61
100295.2
100301.99
100308.67
100315.63
100322.98
100330.7
100338.79
100347.25
100356.05
100365.21
100374.73
100384.61
100394.81
100405.33
100416.09
100427.06
100438.24
100449.59
100461.1
100472.77
100484.6
100496.59
100307.95
100314.27
100320.84
100327.31
100334.04
100341.13
100348.55
100356.31
100364.44
100372.89
100381.7
100390.85
100400.34
100410.17
100420.29
100430.67
100441.27
100452.06
100463.03
100474.17
100485.47
100496.94
100508.57
100327.34
100333.38
100339.75
100346.02
100352.52
100359.36
100366.51
100373.99
100381.79
100389.91
100398.36
100407.15
100416.25
100425.7
100435.44
100445.44
100455.65
100466.05
100476.65
100487.42
100498.36
100509.47
100520.73
100346.7
100352.48
100358.66
100364.76
100371.06
100377.65
100384.56
100391.76
100399.24
100407.03
100415.14
100423.56
100432.3
100441.37
100450.73
100460.35
100470.17
100480.19
100490.41
100500.81
100511.38
100522.13
100533.04
100365.98
100371.53
100377.53
100383.48
100389.6
100395.97
100402.62
100409.54
100416.73
100424.22
100432.01
100440.07
100448.45
100457.15
100466.14
100475.37
100484.82
100494.46
100504.31
100514.33
100524.55
100534.94
100385.15
100390.46
100396.32
100402.12
100408.07
100414.25
100420.67
100427.33
100434.25
100441.44
100448.9
100456.64
100464.66
100472.99
100481.62
100490.49
100499.56
100508.83
100518.31
100527.97
100537.82
100547.85
100404.16
100409.26
100414.97
100420.65
100426.44
100432.45
100438.67
100445.09
100451.74
100458.65
100465.8
100473.21
100480.9
100488.88
100497.15
100505.66
100514.37
100523.27
100532.38
100541.69
100551.18
100560.84
100422.98
100427.87
100433.45
100439.03
100444.69
100450.53
100456.55
100462.75
100469.17
100475.81
100482.67
100489.77
100497.13
100504.78
100512.7
100520.87
100529.21
100537.76
100546.51
100555.46
100564.59
100573.9
100441.56
100446.25
100451.73
100457.22
100462.77
100468.45
100474.29
100480.29
100486.49
100492.88
100499.47
100506.28
100513.33
100520.65
100528.24
100536.06
100544.06
100552.26
100560.67
100569.26
100578.05
100587
100459.84
100464.36
100469.74
100475.16
100480.61
100486.18
100491.85
100497.69
100503.68
100509.83
100516.16
100522.7
100529.45
100536.46
100543.73
100551.23
100558.9
100566.76
100574.82
100583.07
100591.51
100600.12
100477.83
100482.19
100487.47
100492.84
100498.23
100503.68
100509.22
100514.89
100520.68
100526.62
100532.71
100538.99
100545.47
100552.18
100559.14
100566.33
100573.69
100581.22
100588.95
100596.87
100604.98
100613.25
100495.47
100499.67
100504.91
100510.24
100515.55
100520.91
100526.34
100531.86
100537.48
100543.22
100549.09
100555.13
100561.35
100567.79
100574.46
100581.34
100588.4
100595.62
100603.03
100610.62
100618.41
100626.35
100512.78
100516.8
100521.99
100527.32
100532.58
100537.86
100543.18
100548.58
100554.04
100559.6
100565.28
100571.09
100577.07
100583.25
100589.64
100596.24
100603.01
100609.93
100617.03
100624.31
100631.78
100639.42
100529.76
100533.54
100538.66
100544
100549.27
100554.48
100559.73
100565.02
100570.34
100575.74
100581.24
100586.85
100592.6
100598.53
100604.66
100610.99
100617.49
100624.13
100630.93
100637.92
100645.09
100652.42
100546.32
100549.95
100555.01
100560.33
100565.59
100570.79
100575.96
100581.14
100586.35
100591.61
100596.94
100602.36
100607.91
100613.62
100619.51
100625.58
100631.82
100638.19
100644.71
100651.42
100658.31
100665.34
100562.54
100566.01
100570.95
100576.27
100581.52
100586.7
100591.84
100596.95
100602.05
100607.19
100612.37
100617.62
100622.99
100628.48
100634.14
100639.97
100645.97
100652.09
100658.35
100664.79
100671.4
100678.15
100578.3
100581.63
100586.54
100591.85
100597.08
100602.23
100607.34
100612.41
100617.43
100622.45
100627.5
100632.61
100637.8
100643.1
100648.55
100654.16
100659.92
100665.81
100671.83
100678.02
100684.36
100690.85
100593.65
100596.86
100601.72
100607.02
100612.25
100617.39
100622.45
100627.47
100632.45
100637.39
100642.32
100647.29
100652.32
100657.46
100662.72
100668.12
100673.66
100679.33
100685.12
100691.07
100697.16
100703.4
100608.56
100611.62
100616.47
100621.8
100627.03
100632.14
100637.18
100642.17
100647.08
100651.96
100656.81
100661.65
100666.55
100671.53
100676.61
100681.83
100687.17
100692.63
100698.21
100703.93
100709.79
100715.79
100623.03
100625.96
100630.81
100636.15
100641.4
100646.52
100651.53
100656.47
100661.34
100666.16
100670.94
100675.69
100680.47
100685.3
100690.23
100695.27
100700.42
100705.69
100711.07
100716.57
100722.23
100728
100637.06
100639.87
100644.7
100650.09
100655.34
100660.45
100665.48
100670.39
100675.22
100679.99
100684.69
100689.37
100694.05
100698.76
100703.54
100708.42
100713.42
100718.51
100723.69
100729
100734.45
100740.01
100650.65
100653.35
100658.15
100663.58
100668.86
100673.98
100679
100683.92
100688.72
100693.43
100698.08
100702.69
100707.28
100711.89
100716.55
100721.29
100726.12
100731.06
100736.07
100741.19
100746.45
100751.82
100663.79
100666.37
100671.17
100676.63
100681.95
100687.08
100692.11
100697.02
100701.81
100706.49
100711.09
100715.64
100720.15
100724.67
100729.23
100733.84
100738.54
100743.32
100748.17
100753.13
100758.21
100763.39
100676.49
100678.96
100683.75
100689.24
100694.59
100699.75
100704.79
100709.71
100714.51
100719.17
100723.72
100728.21
100732.66
100737.1
100741.56
100746.08
100750.64
100755.29
100760
100764.81
100769.71
100774.73
100688.75
100691.13
100695.9
100701.42
100706.81
100712
100717.04
100721.97
100726.78
100731.44
100735.97
100740.41
100744.79
100749.17
100753.55
100757.97
100762.43
100766.95
100771.54
100776.2
100780.95
100785.81
100700.59
100702.87
100707.62
100713.16
100718.58
100723.8
100728.88
100733.81
100738.62
100743.3
100747.82
100752.23
100756.57
100760.87
100765.18
100769.51
100773.88
100778.31
100782.78
100787.31
100791.93
100796.63
100712
100714.2
100718.93
100724.49
100729.93
100735.17
100740.27
100745.24
100750.06
100754.73
100759.26
100763.66
100767.96
100772.21
100776.45
100780.72
100785
100789.32
100793.7
100798.12
100802.62
100807.18
100722.97
100725.13
100729.85
100735.41
100740.86
100746.11
100751.24
100756.23
100761.07
100765.75
100770.29
100774.69
100778.97
100783.19
100787.37
100791.56
100795.77
100800.01
100804.29
100808.62
100813.01
100817.45
100733.49
100735.61
100740.35
100745.91
100751.35
100756.62
100761.77
100766.78
100771.64
100776.35
100780.9
100785.31
100789.59
100793.78
100797.92
100802.05
100806.19
100810.37
100814.57
100818.81
100823.1
100827.43
100743.56
100745.67
100750.41
100755.96
100761.4
100766.68
100771.84
100776.88
100781.78
100786.51
100791.09
100795.51
100799.81
100803.99
100808.1
100812.18
100816.26
100820.37
100824.51
100828.66
100832.87
100837.1
100753.19
100755.27
100760
100765.54
100770.98
100776.27
100781.46
100786.53
100791.46
100796.24
100800.85
100805.3
100809.6
100813.79
100817.9
100821.96
100826
100830.03
100834.1
100838.2
100842.32
100846.47
100762.37
100764.41
100769.13
100774.66
100780.11
100785.41
100790.62
100795.74
100800.7
100805.52
100810.17
100814.66
100818.99
100823.19
100827.31
100831.36
100835.37
100839.36
100843.36
100847.39
100851.46
100855.53
100771.08
100773.08
100777.8
100783.34
100788.8
100794.11
100799.34
100804.48
100809.49
100814.36
100819.06
100823.59
100827.97
100832.2
100836.32
100840.37
100844.37
100848.34
100852.3
100856.27
100860.27
100864.29
100779.37
100781.34
100786.04
100791.58
100797.03
100802.35
100807.6
100812.77
100817.83
100822.74
100827.5
100832.09
100836.52
100840.79
100844.94
100849
100853.01
100856.96
100860.89
100864.82
100868.76
100872.73
100787.26
100789.18
100793.87
100799.37
100804.81
100810.15
100815.42
100820.62
100825.71
100830.68
100835.5
100840.15
100844.64
100848.97
100853.17
100857.25
100861.26
100865.22
100869.14
100873.04
100876.93
100880.84
100794.72
100796.59
100801.25
100806.73
100812.18
100817.52
100822.8
100828.02
100833.15
100838.17
100843.05
100847.77
100852.32
100856.72
100860.98
100865.11
100869.15
100873.12
100877.04
100880.91
100884.78
100888.65
100801.79
100803.62
100808.26
100813.72
100819.13
100824.45
100829.73
100834.97
100840.14
100845.21
100850.15
100854.94
100859.58
100864.05
100868.37
100872.57
100876.65
100880.64
100884.57
100888.46
100892.32
100896.15
100808.51
100810.27
100814.85
100820.27
100825.65
100830.95
100836.24
100841.51
100846.71
100851.82
100856.81
100861.68
100866.39
100870.94
100875.34
100879.61
100883.76
100887.8
100891.76
100895.66
100899.52
100903.35
100814.83
100816.52
100821.06
100826.45
100831.78
100837.06
100842.36
100847.63
100852.85
100857.99
100863.04
100867.97
100872.76
100877.41
100881.9
100886.24
100890.47
100894.58
100898.59
100902.52
100906.4
100910.22
100820.8
100822.44
100826.91
100832.22
100837.53
100842.8
100848.07
100853.34
100858.57
100863.75
100868.84
100873.84
100878.7
100883.43
100888.02
100892.46
100896.77
100900.96
100905.05
100909.03
100912.93
100916.78
100826.44
100828
100832.4
100837.67
100842.94
100848.15
100853.39
100858.67
100863.91
100869.11
100874.24
100879.29
100884.23
100889.04
100893.71
100898.26
100902.66
100906.95
100911.11
100915.17
100919.13
100923.01
100831.77
100833.25
100837.6
100842.78
100847.97
100853.15
100858.35
100863.61
100868.87
100874.09
100879.25
100884.34
100889.34
100894.23
100898.99
100903.63
100908.14
100912.52
100916.8
100920.95
100924.99
100928.93
100836.79
100838.17
100842.44
100847.56
100852.69
100857.82
100863
100868.24
100873.49
100878.7
100883.88
100889.01
100894.06
100899.02
100903.87
100908.6
100913.21
100917.7
100922.08
100926.34
100930.48
100934.5
100841.54
100842.84
100847.02
100852.08
100857.14
100862.2
100867.33
100872.49
100877.73
100882.97
100888.17
100893.32
100898.41
100903.43
100908.35
100913.17
100917.88
100922.48
100926.96
100931.34
100935.59
100939.73
100846.04
100847.23
100851.32
100856.3
100861.31
100866.29
100871.34
100876.49
100881.7
100886.92
100892.12
100897.29
100902.41
100907.47
100912.46
100917.36
100922.15
100926.85
100931.45
100935.94
100940.32
100944.58
100850.31
100851.39
100855.37
100860.27
100865.21
100870.13
100875.13
100880.22
100885.34
100890.53
100895.75
100900.94
100906.09
100911.19
100916.23
100921.19
100926.07
100930.86
100935.56
100940.17
100944.67
100949.06
100854.36
100855.33
100859.19
100864
100868.85
100873.71
100878.62
100883.63
100888.74
100893.91
100899.12
100904.3
100909.46
100914.59
100919.67
100924.69
100929.63
100934.5
100939.3
100944.01
100948.64
100953.16
100858.23
100859.07
100862.82
100867.53
100872.29
100877.08
100881.95
100886.9
100891.92
100897
100902.16
100907.37
100912.55
100917.7
100922.81
100927.87
100932.88
100937.82
100942.7
100947.51
100952.25
100956.89
100861.92
100862.62
100866.24
100870.85
100875.52
100880.22
100885.02
100889.9
100894.85
100899.89
100905.02
100910.2
100915.39
100920.55
100925.68
100930.78
100935.83
100940.83
100945.78
100950.68
100955.52
100960.27
100865.47
100866.03
100869.52
100874.02
100878.6
100883.21
100887.93
100892.75
100897.65
100902.62
100907.66
100912.76
100917.94
100923.14
100928.29
100933.41
100938.51
100943.56
100948.56
100953.53
100958.46
100963.33
100868.89
100869.3
100872.65
100877.03
100881.52
100886.02
100890.65
100895.4
100900.23
100905.13
100910.11
100915.19
100920.33
100925.5
100930.67
100935.81
100940.93
100946.02
100951.07
100956.1
100961.11
100966.06
100872.21
100872.46
100875.66
100879.93
100884.3
100888.72
100893.25
100897.91
100902.68
100907.53
100912.44
100917.42
100922.48
100927.63
100932.83
100937.99
100943.13
100948.25
100953.35
100958.42
100963.48
100968.52
100875.44
100875.52
100878.57
100882.73
100886.99
100891.29
100895.72
100900.28
100904.96
100909.74
100914.6
100919.52
100924.54
100929.62
100934.76
100939.95
100945.12
100950.27
100955.39
100960.5
100965.6
100970.7
100878.6
100878.52
100881.41
100885.44
100889.58
100893.77
100898.09
100902.55
100907.14
100911.85
100916.64
100921.5
100926.43
100931.46
100936.56
100941.71
100946.91
100952.08
100957.23
100962.37
100967.5
100972.65
100881.72
100881.46
100884.19
100888.09
100892.11
100896.18
100900.39
100904.74
100909.23
100913.84
100918.56
100923.37
100928.24
100933.2
100938.24
100943.32
100948.49
100953.7
100958.88
100964.04
100969.19
100974.37
100884.82
100884.37
100886.93
100890.7
100894.6
100898.55
100902.63
100906.88
100911.25
100915.76
100920.39
100925.12
100929.94
100934.8
100939.8
100944.88
100949.95
100955.13
100960.35
100965.53
100970.71
100975.9
100887.92
100887.28
100889.67
100893.3
100897.07
100900.89
100904.85
100908.97
100913.23
100917.63
100922.16
100926.81
100931.56
100936.38
100941.26
100946.27
100951.34
100956.43
100961.62
100966.84
100972.04
100977.25
100891.03
100890.2
100892.41
100895.9
100899.54
100903.23
100907.05
100911.04
100915.18
100919.46
100923.88
100928.42
100933.09
100937.84
100942.66
100947.58
100952.61
100957.68
100962.79
100967.99
100973.2
100978.43
100894.18
100893.15
100895.18
100898.52
100902.02
100905.57
100909.25
100913.11
100917.12
100921.29
100925.59
100930.02
100934.58
100939.26
100944.03
100948.86
100953.78
100958.81
100963.86
100969
100974.22
100979.46
100897.36
100896.14
100897.98
100901.17
100904.53
100907.94
100911.49
100915.2
100919.08
100923.11
100927.29
100931.6
100936.05
100940.62
100945.3
100950.06
100954.9
100959.87
100964.91
100969.96
100975.1
100980.35
100900.61
100899.19
100900.85
100903.88
100907.1
100910.36
100913.76
100917.33
100921.07
100924.97
100929.01
100933.2
100937.52
100941.98
100946.56
100951.24
100956
100960.85
100965.82
100970.87
100975.93
100981.11
100903.92
100902.31
100903.79
100906.67
100909.74
100912.85
100916.1
100919.52
100923.11
100926.86
100930.76
100934.82
100939.01
100943.34
100947.81
100952.38
100957.06
100961.84
100966.7
100971.68
100976.72
100981.81
100907.31
100905.53
100906.82
100909.55
100912.46
100915.42
100918.52
100921.79
100925.22
100928.81
100932.58
100936.48
100940.54
100944.74
100949.08
100953.54
100958.12
100962.8
100967.57
100972.44
100977.41
100982.47
100910.78
100908.83
100909.96
100912.52
100915.28
100918.09
100921.02
100924.13
100927.4
100930.84
100934.45
100938.21
100942.12
100946.18
100950.38
100954.71
100959.18
100963.75
100968.43
100973.2
100978.07
100983.07
100914.33
100912.24
100913.19
100915.6
100918.21
100920.84
100923.62
100926.57
100929.69
100932.96
100936.41
100940.01
100943.77
100947.68
100951.74
100955.93
100960.27
100964.72
100969.28
100973.95
100978.72
100983.62
100917.99
100915.75
100916.54
100918.79
100921.24
100923.72
100926.34
100929.12
100932.07
100935.18
100938.46
100941.9
100945.5
100949.25
100953.16
100957.21
100961.4
100965.72
100970.16
100974.72
100979.38
100984.16
100921.73
100919.38
100920
100922.1
100924.39
100926.71
100929.16
100931.78
100934.57
100937.51
100940.62
100943.89
100947.33
100950.92
100954.66
100958.56
100962.59
100966.77
100971.08
100975.5
100980.04
100984.72
100925.59
100923.13
100923.6
100925.54
100927.67
100929.83
100932.11
100934.56
100937.18
100939.96
100942.89
100945.99
100949.26
100952.68
100956.26
100959.99
100963.87
100967.89
100972.06
100976.34
100980.75
100985.3
100929.53
100926.99
100927.32
100929.1
100931.07
100933.07
100935.19
100937.47
100939.92
100942.52
100945.29
100948.21
100951.3
100954.55
100957.96
100961.52
100965.24
100969.1
100973.11
100977.24
100981.5
100985.92
100933.57
100930.96
100931.16
100932.78
100934.59
100936.43
100938.39
100940.5
100942.78
100945.21
100947.8
100950.55
100953.47
100956.54
100959.78
100963.17
100966.71
100970.4
100974.25
100978.22
100982.34
100986.61
100937.7
100935.03
100935.1
100936.58
100938.24
100939.91
100941.7
100943.66
100945.77
100948.03
100950.45
100953.02
100955.75
100958.65
100961.71
100964.92
100968.3
100971.81
100975.49
100979.29
100983.25
100987.37
100941.91
100939.2
100939.16
100940.49
100941.99
100943.51
100945.15
100946.93
100948.88
100950.97
100953.22
100955.62
100958.17
100960.89
100963.77
100966.81
100970
100973.34
100976.84
100980.48
100984.27
100988.23
100946.2
100943.46
100943.31
100944.5
100945.85
100947.22
100948.7
100950.33
100952.11
100954.04
100956.12
100958.35
100960.72
100963.26
100965.96
100968.82
100971.83
100975
100978.31
100981.78
100985.39
100989.19
100950.57
100947.81
100947.56
100948.61
100949.82
100951.04
100952.37
100953.84
100955.46
100957.23
100959.14
100961.2
100963.41
100965.77
100968.29
100970.97
100973.8
100976.79
100979.92
100983.21
100986.64
100990.27
100955.01
100952.24
100951.89
100952.81
100953.88
100954.96
100956.14
100957.47
100958.93
100960.53
100962.28
100964.18
100966.22
100968.4
100970.75
100973.25
100975.9
100978.71
100981.67
100984.77
100988.03
100991.48
100959.52
100956.75
100956.31
100957.1
100958.03
100958.97
100960.02
100961.2
100962.51
100963.96
100965.55
100967.28
100969.16
100971.18
100973.35
100975.67
100978.14
100980.77
100983.55
100986.48
100989.55
100992.83
100964.1
100961.33
100960.81
100961.47
100962.28
100963.09
100963.99
100965.03
100966.2
100967.5
100968.94
100970.51
100972.23
100974.08
100976.08
100978.23
100980.53
100982.98
100985.58
100988.33
100991.23
100994.32
100968.74
100965.98
100965.38
100965.92
100966.6
100967.29
100968.07
100968.97
100970
100971.15
100972.44
100973.86
100975.42
100977.11
100978.95
100980.93
100983.05
100985.34
100987.76
100990.33
100993.05
100995.97
100973.45
100970.69
100970.02
100970.45
100971.01
100971.58
100972.23
100973
100973.9
100974.92
100976.06
100977.33
100978.73
100980.28
100981.95
100983.77
100985.73
100987.83
100990.09
100992.48
100995.03
100997.77
100978.2
100975.46
100974.73
100975.05
100975.5
100975.94
100976.48
100977.13
100977.9
100978.78
100979.79
100980.92
100982.17
100983.57
100985.09
100986.75
100988.55
100990.49
100992.57
100994.79
100997.16
100999.73
100983.02
100980.29
100979.49
100979.71
100980.05
100980.4
100980.82
100981.35
100981.99
100982.75
100983.62
100984.62
100985.73
100986.98
100988.35
100989.86
100991.5
100993.28
100995.2
100997.25
100999.45
101001.85
100987.89
100985.17
100984.32
100984.44
100984.68
100984.92
100985.23
100985.65
100986.18
100986.82
100987.57
100988.43
100989.41
100990.51
100991.74
100993.1
100994.59
100996.22
100997.98
100999.87
101001.9
101004.13
100992.8
100990.1
100989.19
100989.23
100989.37
100989.51
100989.73
100990.04
100990.46
100990.98
100991.61
100992.34
100993.2
100994.17
100995.26
100996.48
100997.82
100999.3
101000.9
101002.63
101004.5
101006.57
100997.77
100995.08
100994.12
100994.08
100994.13
100994.18
100994.3
100994.51
100994.83
100995.23
100995.75
100996.37
100997.09
100997.94
100998.9
100999.98
101001.18
101002.51
101003.97
101005.55
101007.27
101009.17
101002.78
101000.11
100999.1
100998.98
100998.94
100998.91
100998.94
100999.05
100999.27
100999.58
100999.98
101000.49
101001.1
101001.82
101002.65
101003.6
101004.67
101005.86
101007.18
101008.61
101010.17
101011.92
101007.83
101005.18
101004.13
101003.93
101003.82
101003.7
101003.64
101003.67
101003.79
101004
101004.3
101004.7
101005.2
101005.81
101006.52
101007.34
101008.28
101009.34
101010.52
101011.82
101013.23
101014.83
101012.93
101010.29
101009.2
101008.93
101008.74
101008.55
101008.41
101008.36
101008.39
101008.51
101008.71
101009.01
101009.4
101009.9
101010.5
101011.2
101012.02
101012.95
101014
101015.16
101016.44
101017.89
101018.06
101015.44
101014.31
101013.97
101013.72
101013.45
101013.24
101013.11
101013.06
101013.09
101013.2
101013.4
101013.7
101014.09
101014.57
101015.17
101015.86
101016.67
101017.6
101018.63
101019.77
101021.09
101023.23
101020.62
101019.46
101019.05
101018.73
101018.4
101018.13
101017.92
101017.79
101017.74
101017.76
101017.88
101018.07
101018.37
101018.75
101019.24
101019.82
101020.51
101021.31
101022.22
101023.24
101024.43
101028.43
101025.83
101024.63
101024.18
101023.8
101023.41
101023.07
101022.79
101022.59
101022.46
101022.4
101022.43
101022.54
101022.74
101023.02
101023.4
101023.88
101024.46
101025.15
101025.94
101026.83
101027.89
101033.66
101031.07
101029.84
101029.33
101028.9
101028.45
101028.05
101027.71
101027.44
101027.23
101027.1
101027.05
101027.08
101027.18
101027.38
101027.66
101028.04
101028.52
101029.1
101029.77
101030.54
101031.48
101038.91
101036.33
101035.07
101034.52
101034.03
101033.53
101033.07
101032.67
101032.34
101032.07
101031.87
101031.74
101031.68
101031.71
101031.82
101032.01
101032.29
101032.67
101033.14
101033.7
101034.37
101035.19
101044.18
101041.61
101040.33
101039.73
101039.19
101038.65
101038.13
101037.68
101037.29
101036.95
101036.69
101036.49
101036.36
101036.3
101036.33
101036.44
101036.63
101036.91
101037.28
101037.74
101038.3
101039.01
101049.46
101046.9
101045.6
101044.96
101044.38
101043.79
101043.22
101042.72
101042.27
101041.88
101041.55
101041.28
101041.09
101040.96
101040.91
101040.93
101041.04
101041.23
101041.51
101041.88
101042.33
101042.93
101054.76
101052.21
101050.88
101050.2
101049.59
101048.95
101048.34
101047.79
101047.29
101046.85
101046.46
101046.13
101045.87
101045.67
101045.55
101045.49
101045.52
101045.63
101045.82
101046.09
101046.45
101046.95
101060.06
101057.51
101056.17
101055.46
101054.8
101054.13
101053.49
101052.89
101052.34
101051.84
101051.4
101051.02
101050.69
101050.43
101050.24
101050.12
101050.06
101050.09
101050.2
101050.38
101050.65
101051.05
101065.35
101062.82
101061.46
101060.72
101060.03
101059.32
101058.64
101058
101057.41
101056.87
101056.37
101055.94
101055.55
101055.23
101054.98
101054.79
101054.66
101054.62
101054.65
101054.75
101054.92
101055.24
101070.64
101068.13
101066.75
101065.98
101065.26
101064.52
101063.8
101063.13
101062.49
101061.91
101061.37
101060.88
101060.45
101060.07
101059.75
101059.5
101059.31
101059.19
101059.14
101059.17
101059.26
101059.49
101075.92
101073.42
101072.03
101071.24
101070.49
101069.72
101068.96
101068.25
101067.59
101066.96
101066.38
101065.84
101065.36
101064.93
101064.56
101064.24
101063.99
101063.81
101063.69
101063.64
101063.66
101063.8
101081.18
101078.7
101077.3
101076.48
101075.71
101074.91
101074.13
101073.38
101072.68
101072.02
101071.4
101070.82
101070.29
101069.81
101069.39
101069.02
101068.71
101068.46
101068.28
101068.16
101068.11
101068.17
101086.42
101083.95
101082.54
101081.7
101080.91
101080.09
101079.28
101078.51
101077.77
101077.08
101076.42
101075.8
101075.23
101074.71
101074.23
101073.81
101073.45
101073.15
101072.9
101072.72
101072.59
101072.58
101091.63
101089.17
101087.76
101086.9
101086.08
101085.24
101084.41
101083.62
101082.85
101082.12
101081.44
101080.78
101080.17
101079.61
101079.09
101078.62
101078.2
101077.85
101077.54
101077.3
101077.11
101077.03
101096.81
101094.37
101092.94
101092.07
101091.24
101090.38
101089.53
101088.71
101087.92
101087.16
101086.44
101085.76
101085.11
101084.5
101083.94
101083.43
101082.97
101082.56
101082.21
101081.9
101081.65
101081.52
101101.95
101099.52
101098.1
101097.21
101096.36
101095.48
101094.61
101093.77
101092.96
101092.18
101091.43
101090.71
101090.03
101089.4
101088.8
101088.24
101087.74
101087.28
101086.88
101086.52
101086.22
101086.01
101107.05
101104.64
101103.21
101102.31
101101.44
101100.55
101099.67
101098.81
101097.98
101097.17
101096.4
101095.66
101094.95
101094.27
101093.64
101093.05
101092.5
101092
101091.55
101091.14
101090.78
101090.53
101112.1
101109.71
101108.28
101107.37
101106.49
101105.59
101104.69
101103.81
101102.96
101102.14
101101.34
101100.57
101099.84
101099.13
101098.47
101097.84
101097.26
101096.72
101096.22
101095.77
101095.36
101095.05
101117.11
101114.73
101113.31
101112.38
101111.5
101110.58
101109.67
101108.78
101107.91
101107.07
101106.25
101105.46
101104.7
101103.97
101103.27
101102.61
101102
101101.41
101100.88
101100.38
101099.93
101099.57
101122.06
101119.71
101118.28
101117.34
101116.45
101115.53
101114.6
101113.7
101112.82
101111.96
101111.12
101110.31
101109.52
101108.77
101108.05
101107.36
101106.71
101106.1
101105.53
101104.99
101104.49
101104.09
101126.96
101124.63
101123.2
101122.26
101121.36
101120.42
101119.49
101118.58
101117.68
101116.81
101115.95
101115.12
101114.32
101113.54
101112.8
101112.08
101111.4
101110.76
101110.15
101109.57
101109.04
101108.59
101131.8
101129.49
101128.06
101127.12
101126.21
101125.27
101124.33
101123.4
101122.49
101121.61
101120.74
101119.9
101119.07
101118.28
101117.5
101116.76
101116.06
101115.39
101114.75
101114.14
101113.57
101113.07
101136.58
101134.28
101132.86
101131.92
101131
101130.05
101129.11
101128.18
101127.26
101126.36
101125.48
101124.62
101123.78
101122.97
101122.18
101121.41
101120.68
101119.98
101119.31
101118.67
101118.06
101117.53
101141.29
101139.02
101137.6
101136.65
101135.74
101134.79
101133.83
101132.89
101131.97
101131.06
101130.17
101129.29
101128.44
101127.6
101126.8
101126.01
101125.26
101124.54
101123.84
101123.17
101122.53
101121.97
101145.94
101143.69
101142.28
101141.33
101140.41
101139.45
101138.5
101137.55
101136.62
101135.7
101134.8
101133.91
101133.05
101132.2
101131.37
101130.57
101129.8
101129.05
101128.33
101127.64
101126.97
101126.37
101150.52
101148.3
101146.89
101145.93
101145.02
101144.06
101143.1
101142.15
101141.21
101140.28
101139.37
101138.48
101137.6
101136.74
101135.9
101135.08
101134.29
101133.52
101132.77
101132.06
101131.36
101130.74
101155.04
101152.83
101151.43
101150.48
101149.55
101148.59
101147.63
101146.67
101145.74
101144.81
101143.89
101142.98
101142.09
101141.22
101140.37
101139.54
101138.72
101137.94
101137.17
101136.43
101135.71
101135.06
101159.47
101157.29
101155.9
101154.94
101154.02
101153.06
101152.09
101151.14
101150.19
101149.26
101148.33
101147.42
101146.52
101145.64
101144.78
101143.93
101143.11
101142.3
101141.52
101140.76
101140.01
101139.34
101163.84
101161.68
101160.29
101159.34
101158.42
101157.46
101156.49
101155.54
101154.59
101153.65
101152.72
101151.8
101150.89
101150
101149.13
101148.27
101147.43
101146.61
101145.82
101145.03
101144.27
101143.57
101168.12
101166
101164.62
101163.67
101162.74
101161.79
101160.82
101159.86
101158.91
101157.97
101157.03
101156.11
101155.2
101154.3
101153.41
101152.55
101151.69
101150.86
101150.05
101149.25
101148.47
101147.75
101172.33
101170.23
101168.86
101167.91
101166.99
101166.03
101165.07
101164.11
101163.16
101162.21
101161.28
101160.35
101159.44
101158.53
101157.64
101156.76
101155.9
101155.05
101154.22
101153.41
101152.61
101151.87
101176.47
101174.39
101173.03
101172.08
101171.17
101170.21
101169.24
101168.29
101167.34
101166.39
101165.45
101164.52
101163.6
101162.69
101161.79
101160.9
101160.03
101159.18
101158.34
101157.51
101156.7
101155.94
101180.52
101178.47
101177.12
101176.17
101175.26
101174.3
101173.34
101172.39
101171.44
101170.49
101169.55
101168.62
101167.69
101166.78
101165.88
101164.98
101164.1
101163.24
101162.39
101161.55
101160.72
101159.95
101184.49
101182.47
101181.13
101180.18
101179.27
101178.33
101177.37
101176.41
101175.46
101174.52
101173.58
101172.64
101171.72
101170.8
101169.89
101168.99
101168.1
101167.23
101166.37
101165.52
101164.68
101163.89
101188.38
101186.38
101185.05
101184.12
101183.21
101182.27
101181.31
101180.36
101179.41
101178.46
101177.53
101176.59
101175.66
101174.74
101173.83
101172.92
101172.03
101171.16
101170.28
101169.42
101168.57
101167.78
101192.18
101190.21
101188.9
101187.97
101187.06
101186.12
101185.17
101184.22
101183.28
101182.34
101181.39
101180.46
101179.53
101178.61
101177.69
101176.79
101175.89
101175
101174.13
101173.26
101172.4
101171.59
101195.9
101193.96
101192.66
101191.73
101190.83
101189.9
101188.95
101188.01
101187.07
101186.13
101185.19
101184.25
101183.32
101182.4
101181.48
101180.57
101179.68
101178.78
101177.91
101177.03
101176.16
101175.34
101199.53
101197.62
101196.34
101195.42
101194.52
101193.59
101192.65
101191.71
101190.77
101189.83
101188.9
101187.97
101187.04
101186.12
101185.2
101184.29
101183.39
101182.49
101181.6
101180.72
101179.85
101179.02
101203.08
101201.2
101199.93
101199.02
101198.12
101197.2
101196.27
101195.33
101194.4
101193.47
101192.53
101191.6
101190.68
101189.75
101188.83
101187.92
101187.02
101186.12
101185.23
101184.35
101183.47
101182.63
101206.54
101204.69
101203.44
101202.53
101201.65
101200.73
101199.8
101198.87
101197.94
101197.01
101196.08
101195.16
101194.23
101193.31
101192.39
101191.48
101190.57
101189.68
101188.79
101187.9
101187.01
101186.17
101209.92
101208.1
101206.86
101205.96
101205.08
101204.17
101203.25
101202.32
101201.4
101200.48
101199.55
101198.63
101197.71
101196.79
101195.88
101194.96
101194.06
101193.16
101192.27
101191.37
101190.49
101189.64
101213.21
101211.42
101210.2
101209.3
101208.43
101207.53
101206.61
101205.69
101204.78
101203.86
101202.94
101202.02
101201.1
101200.19
101199.28
101198.37
101197.46
101196.56
101195.67
101194.77
101193.88
101193.03
101216.41
101214.66
101213.45
101212.56
101211.7
101210.8
101209.89
101208.98
101208.07
101207.16
101206.24
101205.33
101204.42
101203.5
101202.59
101201.69
101200.79
101199.89
101198.99
101198.1
101197.21
101196.35
101219.53
101217.81
101216.61
101215.74
101214.88
101213.99
101213.09
101212.19
101211.28
101210.38
101209.47
101208.56
101207.65
101206.74
101205.84
101204.93
101204.03
101203.13
101202.24
101201.35
101200.45
101199.6
101222.56
101220.87
101219.69
101218.82
101217.97
101217.1
101216.2
101215.3
101214.41
101213.51
101212.61
101211.71
101210.8
101209.9
101209
101208.1
101207.2
101206.31
101205.41
101204.52
101203.63
101202.77
101225.5
101223.85
101222.68
101221.82
101220.98
101220.11
101219.23
101218.34
101217.45
101216.56
101215.67
101214.77
101213.87
101212.98
101212.08
101211.19
101210.29
101209.4