/*--------------------------------*- C++ -*----------------------------------*\
| =========                 |                                                 |
| \\      /  F ield         | OpenFOAM: The Open Source CFD Toolbox           |
|  \\    /   O peration     | Version:  2406                                  |
|   \\  /    A nd           | Website:  www.openfoam.com                      |
|    \\/     M anipulation  |                                                 |
\*---------------------------------------------------------------------------*/
FoamFile
{
    version     2.0;
    format      ascii;
    arch        "LSB;label=32;scalar=64";
    class       volScalarField;
    location    "0.06";
    object      p;
}
// * * * * * * * * * * * * * * * * * * * * * * * * * * * * * * * * * * * * * //

dimensions      [1 -1 -2 0 0 0 0];

internalField   nonuniform List<scalar> 
8260
(
101105.79
101005.74
100946.51
100876.09
100811.48
100763.38
100735.24
100726.57
100736.26
100761.92
100803.77
100858.61
100925.32
100996.19
101072.26
101149.02
101208.71
101246.27
101281.09
101311.13
101338.24
101362.75
101385.87
101405.83
101427.14
101442.08
101459.5
101468.12
101476.75
101485.12
101494.23
101296.91
101208.86
101123.04
101031.61
100951.33
100889.14
100846.28
100823.63
100819.56
100832.49
100862.68
100907.59
100964.97
101029.2
101095.55
101166.16
101218.72
101255.6
101288.78
101317.13
101342.98
101366.51
101388.89
101408.26
101429.21
101443.83
101461.15
101469.6
101478.23
101486.79
101497.88
101424.22
101343.76
101250.58
101151.39
101063.43
100992.24
100939.13
100905.98
100891.79
100893.26
100913.83
100950.38
101000.23
101060
101119.66
101186.03
101231.16
101267.39
101297.88
101324.18
101348.53
101370.92
101392.41
101411.09
101431.6
101445.87
101463.04
101471.3
101479.91
101488.67
101501.67
101528.41
101453.02
101360.86
101260
101167.81
101090.13
101028.78
100985.82
100961.55
100954.04
100965.62
100994.09
101036.8
101092.21
101146.09
101207.95
101245.83
101281.03
101308.2
101332.21
101354.87
101375.97
101396.43
101414.34
101434.32
101448.21
101465.19
101473.23
101481.83
101490.73
101505.47
101617.79
101547.56
101460.06
101361.63
101268.73
101187.6
101120.48
101069.62
101036.36
101020.48
101023.27
101043.47
101078.78
101128.91
101176.59
101232.22
101263.23
101296.47
101319.93
101341.36
101362.1
101381.72
101400.99
101418.06
101437.39
101450.89
101467.62
101475.45
101484.02
101493.08
101509.18
101690.89
101625.15
101544.58
101452.42
101362.73
101281.7
101211.92
101155.9
101115.68
101092.29
101086.86
101098.93
101126.79
101170.83
101211.74
101258.89
101284.34
101313.7
101333.19
101351.74
101370.33
101388.28
101406.17
101422.31
101440.86
101453.97
101470.35
101477.97
101486.52
101495.77
101512.67
101746.88
101686.35
101613.46
101530.42
101447.42
101369.91
101300.67
101242.41
101197.68
101168.3
101155.73
101160.23
101180.94
101218.33
101251.71
101287.85
101309.81
101332.81
101348.16
101363.51
101379.68
101395.74
101412.04
101427.17
101444.76
101457.5
101473.42
101480.85
101489.39
101498.81
101515.66
101787.92
101733.26
101669.9
101597.23
101522.87
101451.43
101385.57
101327.92
101281.22
101247.81
101229.57
101227.43
101241.58
101271.81
101296.34
101319.79
101339.13
101354.08
101364.96
101376.8
101390.27
101404.21
101418.72
101432.7
101449.14
101461.55
101476.87
101484.13
101492.69
101502.24
101517.52
101819.29
101769.32
101715.08
101653.62
101589.58
101526.39
101466.33
101411.85
101365.66
101330.35
101308.14
101300.65
101309.14
101331.29
101345.17
101357.07
101371.13
101377.8
101383.78
101391.76
101402.2
101413.8
101426.31
101439
101454.08
101466.17
101480.76
101487.86
101496.46
101506.1
101520.4
101842.04
101800.92
101754.36
101703.05
101650.14
101596.57
101543.97
101494.56
101450.94
101415.71
101391.32
101380.1
101383.97
101395.84
101397.75
101400.73
101404.94
101404
101404.74
101408.53
101415.6
101424.61
101434.91
101446.14
101459.68
101471.4
101485.18
101492.12
101500.74
101510.45
101521.71
101856.5
101834.7
101801.74
101759.14
101713.66
101667.48
101621.69
101577.82
101537.9
101504.25
101479.37
101466.24
101465.99
101464.18
101454.79
101447.88
101440.25
101432.52
101427.92
101427.23
101430.6
101436.7
101444.61
101454.19
101466.09
101477.28
101490.19
101496.97
101505.59
101515.37
101524.36
101893.43
101875.66
101847.7
101814.81
101777.76
101739.39
101700.89
101663.34
101628.25
101597.56
101573.72
101559.45
101552.31
101536.31
101513.78
101494.35
101477.15
101463.09
101453.14
101447.89
101447.31
101450.13
101455.47
101463.2
101473.42
101483.88
101495.88
101502.51
101511.09
101520.96
101525.84
101931.07
101918.55
101900.14
101874.59
101845.66
101815.8
101785.63
101755.6
101726.52
101699.58
101675.97
101655.51
101633.07
101602.38
101569.31
101539.62
101514.8
101495
101480.08
101470.36
101465.71
101464.96
101467.56
101473.21
101481.75
101491.28
101502.31
101508.82
101517.35
101527.27
101523.73
102004
101998.51
101979.48
101949.3
101920.15
101895.76
101872.81
101849.02
101823.7
101796.67
101767.35
101734.42
101696.84
101656.48
101617.27
101582.25
101552.51
101527.94
101508.34
101494.17
101485.52
101481.21
101480.96
101484.22
101491.05
101499.51
101509.56
101515.94
101524.48
101534.22
101521.34
102058.38
102060.34
102058.4
102046.56
102023.4
101994.76
101964.72
101933.37
101899.43
101862.57
101823.76
101783.58
101741.82
101699.48
101658.88
101621.58
101588.63
101560.5
101537.18
101518.94
101506.38
101498.71
101495.61
101496.24
101501.28
101508.59
101517.66
101523.89
101532.52
101541.98
101517.05
102053.27
102043.06
102028.66
102015.72
102006
101995.54
101983.48
101969.01
101944.31
101907.34
101865.14
101820.88
101777.24
101734.83
101694.42
101656.46
101621.83
101591.46
101565.65
101544.12
101527.86
101517.13
101511.29
101509.3
101512.34
101518.45
101526.58
101532.59
101541.4
101550.93
101526.64
102051.72
102042.9
102032.16
102020.18
102006.61
101989.79
101968.94
101944.53
101921.91
101903.95
101880.56
101847.53
101806.96
101764.7
101724.74
101687.16
101651.82
101619.75
101592.47
101569.01
101549.61
101536.11
101527.82
101523.31
101524.18
101529.02
101536.21
101541.94
101550.91
101561.21
101546.38
102016.51
102009.55
102001.11
101991.32
101979.95
101966.87
101951.74
101934.4
101915.72
101894.75
101873.26
101853.48
101826.5
101789.03
101749.66
101712.91
101678.56
101645.75
101616.81
101592.56
101571.43
101555.07
101544.72
101538.24
101536.69
101540.19
101546.37
101551.81
101560.85
101572.05
101559.02
101984.01
101978.29
101971.4
101963.64
101954.85
101944.6
101932.65
101919
101903.54
101886.23
101866.28
101842.52
101819.53
101798.77
101767.64
101732.95
101700.58
101669.06
101638.84
101613.76
101592.09
101573.95
101561.51
101553.6
101549.85
101551.7
101556.91
101562
101571.04
101582.13
101612
101945.46
101941.01
101935.64
101929.52
101922.52
101914.46
101905.18
101894.54
101882.35
101868.39
101852.64
101835.37
101816.1
101796.73
101777.03
101747.82
101716.59
101687.9
101658.75
101632.22
101610.57
101591.93
101577.81
101568.84
101563.44
101563.39
101567.57
101572.15
101581.14
101589.3
101633.57
101911.17
101907.67
101903.42
101898.6
101893.09
101886.76
101879.47
101871.05
101861.36
101850.21
101837.41
101822.75
101806.74
101788.44
101771.08
101754.91
101728.67
101700.7
101675.04
101648.75
101626.17
101608.05
101593.42
101583.51
101577.04
101575.15
101578.05
101581.78
101590.63
101593.12
101619.49
101873.51
101870.81
101867.55
101863.85
101859.64
101854.78
101849.18
101842.74
101835.33
101826.83
101817.15
101806.21
101793.58
101779.86
101763.82
101748.39
101733.15
101710.54
101687.96
101663.74
101640.17
101622.21
101607.91
101597.46
101590.16
101586.56
101588.03
101590.56
101598.99
101598.6
101600.24
101839.89
101837.83
101835.33
101832.51
101829.27
101825.54
101821.23
101816.22
101810.42
101803.71
101795.92
101786.9
101776.68
101764.88
101751.77
101736.74
101722.79
101711.68
101696.85
101676.23
101654.11
101635.72
101620.82
101610.16
101602.13
101597.17
101597.13
101598.45
101606.02
101609
101615.85
101804.4
101802.87
101801.01
101798.9
101796.5
101793.73
101790.53
101786.86
101782.66
101777.82
101772.24
101765.82
101758.36
101749.81
101740.15
101729.25
101717.19
101703.59
101690.76
101678.47
101662.22
101647.21
101632.12
101620.83
101612.38
101606.53
101604.87
101605.2
101611.73
101614.96
101628.5
101772.47
101771.36
101770.02
101768.53
101766.85
101764.91
101762.66
101760.06
101757.03
101753.5
101749.41
101744.68
101739.23
101732.97
101725.8
101717.79
101708.63
101699.07
101687.03
101672.89
101662.9
101651.42
101639.95
101628.98
101620.62
101614.25
101611.15
101610.59
101616.85
101616.69
101637.77
101741.66
101740.95
101740.09
101739.13
101738.03
101736.76
101735.29
101733.59
101731.61
101729.32
101726.66
101723.56
101719.94
101715.72
101710.75
101704.89
101698.22
101690.05
101680.32
101672.68
101663.81
101652.37
101643.79
101635.19
101627.32
101620.69
101616.5
101615.23
101622.21
101620.92
101637.6
101715.2
101714.8
101714.3
101713.74
101713.1
101712.36
101711.47
101710.42
101709.17
101707.67
101705.89
101703.75
101701.2
101698.16
101694.57
101690.3
101685.14
101679.28
101673.96
101667.03
101659.53
101653.9
101645.96
101639.22
101632.88
101626.89
101622.38
101619.98
101625.96
101623.27
101644.1
101688.5
101688.34
101688.14
101687.91
101687.64
101687.32
101686.92
101686.42
101685.83
101685.12
101684.28
101683.28
101682.08
101680.63
101678.85
101676.65
101673.66
101669.57
101664.4
101659.97
101656.29
101651.32
101646.62
101642.12
101638.1
101633.74
101630.28
101627.4
101631.84
101621.67
101649.33
101665.92
101665.98
101666.03
101666.07
101666.1
101666.11
101666.11
101666.07
101666.01
101665.89
101665.71
101665.42
101664.99
101664.34
101663.42
101662.34
101661.51
101661.03
101660.36
101659.89
101658.02
101653.96
101651.08
101648.75
101646.12
101643.35
101641.12
101638.38
101642.15
101625.84
101690.99
101654.81
101654.75
101654.68
101654.6
101654.5
101654.39
101654.27
101654.13
101654
101653.88
101653.78
101653.72
101653.72
101653.8
101654.05
101654.64
101655.63
101655.18
101653.22
101651.46
101649.18
101649.73
101652.64
101655.11
101655.97
101656.48
101657.96
101656.94
101657.02
101635.09
101653.53
101645.52
101644.91
101644.25
101643.57
101642.85
101642.08
101641.24
101640.32
101639.28
101638.13
101636.84
101635.44
101633.93
101632.4
101630.79
101628.81
101626.7
101626.47
101629.41
101634.15
101641.35
101645.87
101646.46
101647.48
101650.77
101654.32
101655.12
101654.1
101652.75
101644.29
101633.58
100314.59
100299.95
100290.37
100280.54
100270.6
100265.7
100272.63
100293.22
100324.55
100370.55
100429.94
100500.71
100580.84
100667.87
100758.39
100856.25
100943.04
101037.35
101099.46
101154.79
101210.07
101256.47
101297.63
101331.85
101362.64
101385.51
101406.55
101419.41
101427.3
101433.1
101422.02
100326.02
100309.68
100287
100268.6
100256.55
100254.96
100267.54
100295.46
100335.58
100388.31
100452.32
100525.92
100607.27
100693.67
100782.33
100877.04
100961.41
101049.09
101102.42
101161.61
101216.14
101261.57
101301.83
101335.31
101365.56
101387.96
101408.75
101421.38
101429.3
101435.12
101423.53
100279.09
100250.4
100224.3
100210.76
100209.28
100219.54
100243.84
100282.43
100331.39
100391.5
100461.34
100539.12
100623.08
100710.43
100799.25
100892.45
100978.03
101059.44
101107.61
101169.47
101222.52
101266.82
101306.12
101338.85
101368.53
101390.47
101411
101423.37
101431.32
101437.19
101425.52
100204.92
100181.3
100163.86
100159.47
100167.36
100187.69
100221.59
100268.52
100325.45
100392.33
100467.46
100549.06
100635.51
100724.04
100814.06
100905.4
100992.13
101068.98
101114.96
101177.47
101228.8
101272.03
101310.38
101342.37
101371.51
101392.99
101413.26
101425.38
101433.36
101439.31
101427.13
100108.76
100094.81
100089.19
100097.83
100119.29
100152.94
100198.69
100255.37
100320.85
100394.5
100474.64
100559.74
100648.38
100737.96
100829.56
100918.91
101005.45
101078.36
101123.46
101185.41
101235.02
101277.2
101314.63
101345.89
101374.5
101395.52
101415.54
101427.42
101435.42
101441.45
101430.04
99994.223
99995.657
100007.36
100033.35
100071.05
100119.23
100177.31
100244.1
100318.03
100398.14
100482.97
100571.29
100661.81
100752.33
100845.58
100933.55
101017.92
101087.18
101132.3
101193.2
101241.16
101282.3
101318.83
101349.39
101377.48
101398.06
101417.84
101429.48
101437.49
101443.51
101432.79
99864.36
99888.237
99922.37
99968.57
100023.95
100087.25
100157.85
100234.78
100316.79
100402.96
100492.11
100583.29
100675.42
100766.72
100861.31
100948.43
101029.05
101095
101141.29
101200.83
101247.21
101287.34
101322.99
101352.87
101380.45
101400.61
101420.15
101431.56
101439.57
101445.57
101435.24
99732.682
99782.372
99840.493
99907.243
99980.287
100058.48
100141.23
100227.84
100317.33
100409.01
100501.99
100595.68
100689.07
100780.98
100876.04
100961.72
101040.54
101102.42
101150.41
101208.28
101253.19
101292.32
101327.11
101356.31
101383.4
101403.16
101422.47
101433.65
101441.67
101447.7
101439.21
99609.004
99685.195
99766.07
99851.912
99941.84
100034.23
100128.22
100223.67
100319.84
100416.38
100512.67
100608.45
100702.77
100795.31
100889.57
100974.21
101053.26
101109.9
101159.6
101215.54
101259.08
101297.22
101331.17
101359.72
101386.34
101405.7
101424.8
101435.75
101443.78
101449.9
101443.37
99498.55
99600.063
99702.95
99805.061
99910.601
100015.83
100119.5
100222.6
100324.47
100425.12
100524.14
100621.61
100716.73
100810.57
100902.98
100986.55
101065.32
101117.96
101168.76
101222.63
101264.88
101302.04
101335.18
101363.1
101389.26
101408.23
101427.13
101437.86
101445.89
101452.14
101447.36
99410.379
99531.083
99651.407
99770.202
99888.62
100004.2
100115.65
100224.98
100331.33
100435.28
100536.45
100635.34
100731.46
100825.42
100916.14
100999.52
101076.39
101126.67
101177.81
101229.54
101270.59
101306.78
101339.13
101366.42
101392.14
101410.75
101429.45
101439.98
101448.01
101454.35
101451.01
99348.643
99484.681
99618.252
99748.677
99875.739
99998.899
100117.5
100231.33
100340.69
100447.07
100549.9
100650.09
100747.5
100840.23
100927.98
101011.56
101086.71
101135.73
101186.68
101236.31
101276.2
101311.44
101343.02
101369.7
101395
101413.25
101431.77
101442.1
101450.13
101456.5
101454.22
99318.521
99464.147
99605.032
99741.71
99874.122
100001.79
100124.67
100242.1
100353.55
100461.29
100565.21
100666.03
100761.15
100852.25
100940.39
101024.15
101096.64
101144.92
101195.36
101242.93
101281.71
101316.01
101346.83
101372.92
101397.82
101415.73
101434.08
101444.21
101452.26
101458.61
101456.77
99319.323
99470.214
99612.664
99750.358
99884.22
100013.64
100138.88
100258.47
100371.12
100478.77
100581.82
100679.2
100772.9
100864.84
100953.22
101036.5
101106.35
101154.2
101203.83
101249.4
101287.11
101320.49
101350.57
101376.09
101400.59
101418.18
101436.37
101446.32
101454.38
101460.76
101460.18
99337.416
99493.935
99637.129
99773.912
99906.626
100035.41
100160.54
100278.47
100389.79
100494.64
100593.07
100690.07
100786.65
100877.49
100965.35
101047.77
101115.96
101163.52
101212.06
101255.73
101292.38
101324.86
101354.24
101379.18
101403.32
101420.61
101438.65
101448.43
101456.5
101462.92
101463.29
99369.584
99522.532
99666.344
99804.109
99935.845
100061.78
100182.85
100294.68
100400.69
100505.34
100607.56
100705.36
100800.91
100889.9
100976.79
101058.04
101125.52
101172.82
101220.04
101261.91
101297.54
101329.14
101357.81
101382.21
101406
101422.99
101440.9
101450.52
101458.62
101465.08
101465.99
99475.679
99599.06
99720.442
99843.776
99966.753
100085.86
100198.2
100309.01
100420.31
100525.16
100625.2
100721.51
100815.27
100902.08
100987.72
101068.15
101135.01
101182.03
101227.74
101267.94
101302.57
101333.32
101361.31
101385.17
101408.62
101425.34
101443.13
101452.6
101460.73
101467.25
101468.12
99640.061
99740.458
99833.491
99930.803
100033.06
100136.97
100239.23
100342.72
100447.53
100548.04
100644.15
100737.88
100829.71
100914.15
100998.33
101078.52
101144.42
101191.07
101235.17
101273.82
101307.47
101337.39
101364.71
101388.06
101411.18
101427.64
101445.33
101454.66
101462.83
101469.5
101471.34
99808.353
99890.219
99960.973
100035.78
100117.25
100203.25
100291.17
100382.97
100479.17
100572.78
100664.12
100754.63
100844.24
100926.21
101008.78
101088.98
101153.71
101199.91
101242.35
101279.56
101312.26
101341.35
101368.03
101390.86
101413.68
101429.89
101447.49
101456.7
101464.91
101471.73
101474.53
99995.963
100054.3
100099.89
100151.03
100210.86
100277.21
100348.27
100427.94
100514.36
100599.48
100685.16
100771.72
100858.76
100938.25
101019.07
101099.35
101162.9
101208.51
101249.3
101285.13
101316.89
101345.19
101371.23
101393.57
101416.1
101432.08
101449.61
101458.71
101466.97
101473.87
101477.67
100207.7
100237.59
100254.27
100278.65
100314.34
100358.42
100411.55
100478.21
100552.23
100628.53
100707.39
100789.16
100873.19
100950.24
101029.26
101110
101171.95
101216.74
101255.93
101290.47
101321.31
101348.84
101374.28
101396.15
101418.41
101434.19
101451.67
101460.68
101469.02
101476.04
101480.79
100443.29
100439.98
100425.24
100420.09
100428.94
100449.21
100484.95
100535.35
100594.29
100661.04
100731.96
100807.87
100888.15
100962.52
101039.69
101119.95
101180.45
101224.18
101262.06
101295.49
101325.47
101352.29
101377.18
101398.6
101420.63
101436.24
101453.69
101462.63
101471.05
101478.35
101483.94
100711.02
100674.53
100630.05
100591.41
100569.64
100565.29
100577.72
100605.73
100647.49
100701.57
100762.48
100830.73
100905.76
100976.43
101050.96
101127.45
101187.79
101230.41
101267.7
101300.28
101329.46
101355.62
101379.98
101400.98
101422.8
101438.24
101455.7
101464.57
101473.08
101480.77
101487.17
100988.78
100936.83
100881.59
100817.51
100759.86
100719.75
100700.58
100701.24
100720.51
100754.98
100802.19
100860.16
100927.77
100993.72
101064.26
101135.29
101194.92
101236.38
101273.63
101305.37
101333.68
101359.1
101382.91
101403.44
101425.04
101440.26
101457.73
101466.49
101475.08
101483.15
101490.55
100365.06
100357.03
100346.37
100336.43
100328.48
100324.56
100328.89
100344
100369.13
100408.44
100460.98
100525.19
100599.16
100680.53
100765.33
100856.25
100938.38
101023.01
101091.52
101147.18
101204.43
101251.94
101293.92
101328.79
101360.04
101383.34
101404.6
101417.7
101425.57
101431.35
101419.46
100376.9
100373.43
100363.98
100353.74
100345.72
100342.85
100347.13
100358.43
100381.07
100417.39
100466.72
100527.92
100599.28
100678.68
100762.37
100851.96
100937.26
101017.81
101089.81
101144.31
101201.49
101249.26
101291.56
101326.74
101358.2
101381.74
101403.1
101416.32
101424.15
101429.72
101416.43
100370.91
100367.82
100363.47
100359.12
100355.53
100355.38
100361.09
100372.83
100394.89
100429.17
100475.78
100534.05
100602.62
100679.63
100761.75
100849.24
100935.63
101015.69
101087.68
101141.84
101199.06
101247
101289.48
101324.89
101356.46
101380.19
101401.59
101414.88
101422.65
101427.73
101412.82
100365.66
100364.99
100365.43
100365.7
100366.39
100369.26
100376.66
100389.67
100411.46
100443.92
100487.85
100543.07
100608.56
100682.77
100762.77
100847.42
100933.37
101013.44
101084.55
101138.83
101196.33
101244.55
101287.24
101322.91
101354.6
101378.53
101399.97
101413.35
101421.04
101425.49
101409.74
100364.96
100367.97
100371.6
100374.59
100378.11
100383.5
100392.57
100406.71
100428.34
100459.31
100500.84
100553.15
100615.59
100686.88
100764.51
100846.1
100931.23
101010.9
101081.14
101135.42
101193.27
101241.8
101284.76
101320.71
101352.55
101376.7
101398.22
101411.69
101419.3
101423.1
101406.25
100366.12
100372
100377.9
100383.31
100389.27
100396.93
100407.72
100422.96
100444.63
100474.5
100513.98
100563.63
100623.15
100691.53
100766.69
100845.49
100929.71
101008.36
101078.16
101131.87
101190.05
101238.87
101282.08
101318.32
101350.34
101374.74
101396.33
101409.9
101417.43
101420.61
101402.73
100367.66
100375.54
100383.46
100391.29
100399.72
100409.63
100422.17
100438.56
100460.47
100489.55
100527.29
100574.51
100631.23
100696.74
100769.36
100845.85
100928.33
101005.61
101075.85
101128.4
101186.77
101235.83
101279.29
101315.82
101348
101372.65
101394.32
101407.99
101415.44
101418.04
101399.51
100370.06
100379.61
100389.45
100399.49
100410.19
100422.18
100436.4
100453.92
100476.15
100504.65
100540.89
100585.88
100639.93
100702.61
100772.61
100846.92
100926.84
101002.58
101073.71
101125.17
101183.47
101232.72
101276.41
101313.2
101345.54
101370.44
101392.2
101405.96
101413.32
101415.41
101396.31
100374.41
100385.47
100396.97
100408.86
100421.43
100435.19
100450.86
100469.37
100491.93
100519.95
100554.87
100597.8
100649.29
100709.18
100776.51
100848.57
100925.75
100999.68
101071.19
101122.17
101180.14
101229.55
101273.43
101310.47
101342.98
101368.11
101389.96
101403.8
101411.04
101412.66
101398.58
100381.66
100393.99
100406.84
100420.12
100434.12
100449.22
100466.02
100485.29
100508.06
100535.61
100569.31
100610.32
100659.36
100716.51
100781.11
100850.82
100925.65
100997.46
101068.16
101119.39
101176.79
101226.32
101270.36
101307.63
101340.28
101365.66
101387.58
101401.5
101408.55
101409.66
101399.97
100392.69
100405.93
100419.75
100433.95
100448.86
100464.83
100482.33
100502.03
100524.82
100551.83
100584.34
100623.5
100670.18
100724.63
100786.47
100853.73
100926.32
100996.18
101065.16
101116.9
101173.45
101223.04
101267.2
101304.67
101337.46
101363.07
101385.07
101399.05
101405.9
101406.41
101398.77
100408.35
100422.05
100436.4
100451
100466.27
100482.55
100500.27
100519.98
100542.5
100568.81
100600.08
100637.44
100681.8
100733.6
100792.64
100857.36
100927.63
100995.95
101062.67
101114.7
101170.16
101219.74
101263.97
101301.61
101334.51
101360.35
101382.42
101396.43
101403.08
101402.97
101396.71
100429.18
100442.91
100457.3
100471.74
100486.78
100502.8
100520.2
100539.48
100561.37
100586.75
100616.67
100652.21
100694.3
100743.46
100799.67
100861.76
100929.52
100995.54
101060.52
101113.01
101166.98
101216.44
101260.68
101298.44
101331.44
101357.48
101379.62
101393.66
101400.09
101399.34
101396.47
100455.03
100468.44
100482.46
100496.28
100510.56
100525.79
100542.35
100560.74
100581.64
100605.83
100634.25
100667.93
100707.74
100754.27
100807.63
100866.95
100931.9
100995.27
101058.66
101111.63
101163.93
101213.18
101257.35
101295.18
101328.25
101354.48
101376.66
101390.7
101396.9
101395.56
101396.85
100486.21
100498.74
100511.82
100524.53
100537.56
100551.47
100566.73
100583.83
100603.39
100626.14
100652.93
100684.67
100722.19
100766.09
100816.56
100872.99
100934.7
100995.53
101057.5
101110.59
101161.07
101210
101254.01
101291.84
101324.95
101351.34
101373.55
101387.57
101393.5
101391.71
101397.19
100520.61
100532.11
100544.08
100555.48
100567.02
100579.36
100593.04
100608.58
100626.58
100647.71
100672.75
100702.49
100737.7
100778.98
100826.55
100879.95
100937.95
100996.39
101057.11
101110.02
101158.42
101206.94
101250.68
101288.45
101321.54
101348.06
101370.27
101384.24
101389.89
101387.84
101396.93
100556.89
100567.07
100577.76
100587.82
100597.86
100608.63
100620.7
100634.64
100651.01
100670.47
100693.7
100721.42
100754.35
100793.01
100837.66
100887.92
100941.98
100998.24
101057.85
101109.98
101156.03
101204.05
101247.41
101285.01
101318.03
101344.64
101366.84
101380.72
101386.06
101383.95
101394.16
100593.69
100602.29
100611.58
100620.35
100629.07
100638.44
100649.08
100661.54
100676.4
100694.25
100715.72
100741.48
100772.16
100808.25
100850
100897.1
100947.69
101001.94
101059.88
101110.33
101153.98
101201.39
101244.21
101281.56
101314.45
101341.1
101363.24
101377
101382.01
101379.84
101387.02
100629.08
100636.38
100644.35
100652.02
100659.7
100668.01
100677.55
100688.85
100702.45
100718.9
100738.78
100762.68
100791.18
100824.74
100863.64
100907.67
100955.43
101007.17
101062.61
101110.95
101152.45
101199.02
101241.13
101278.13
101310.8
101337.43
101359.47
101373.12
101377.74
101375.12
101375.58
100663.67
100668.98
100675.46
100682.13
100689.09
100696.81
100705.74
100716.31
100729.02
100744.35
100762.84
100785.03
100811.45
100842.56
100878.65
100919.64
100964.56
101013.1
101064.59
101111.81
101151.87
101197.01
101238.22
101274.73
101307.1
101333.65
101355.53
101369.09
101373.27
101370
101367.5
100697.41
100701.55
100706.35
100711.65
100718.04
100725.42
100734.02
100744.18
100756.27
100770.73
100788.02
100808.63
100833.06
100861.77
100895.06
100932.98
100974.85
101020.07
101067.8
101113.17
101151.96
101195.37
101235.51
101271.42
101303.39
101329.76
101351.43
101364.87
101368.59
101365.06
101356.71
100729.55
100733.09
100738.04
100742.66
100747.79
100754.83
100763.28
100773.15
100784.74
100798.42
100814.58
100833.66
100856.14
100882.44
100912.93
100947.71
100986.36
101028.23
101072.45
101114.9
101152.71
101194.14
101233.08
101268.23
101299.67
101325.77
101347.16
101360.38
101363.72
101360.27
101341.48
100762.87
100765.34
100769.23
100774.52
100780.7
100787.32
100795.11
100804.37
100815.25
100827.99
100842.91
100860.38
100880.82
100904.67
100932.29
100963.87
100999.16
101037.55
101078.01
101118.19
101154.5
101193.37
101230.96
101265.18
101295.99
101321.7
101342.74
101355.63
101358.67
101355.68
101327.39
100801.39
100803.69
100807.05
100811.12
100816.17
100822.3
100829.64
100838.25
100848.24
100859.82
100873.28
100888.95
100907.22
100928.5
100953.18
100981.46
101013.27
101048.03
101084.38
101121.29
101157.01
101193.43
101229.22
101262.36
101292.39
101317.58
101338.16
101350.66
101353.43
101351.26
101321.35
100843.19
100845.57
100848.78
100851.8
100855.59
100861.1
100867.72
100875.32
100884.06
100894.15
100905.85
100919.46
100935.35
100953.91
100975.51
101000.42
101028.66
101059.7
101092.16
101126.46
101160.21
101194.25
101227.96
101259.71
101288.88
101313.42
101333.45
101345.52
101347.98
101346.29
101308.13
100886.24
100888.32
100891.24
100894.66
100898.76
100903.43
100908.85
100915.1
100922.3
100930.63
100940.33
100951.67
100965
100980.69
100999.12
101020.61
101045.24
101072.67
101101.91
101133.42
101163.99
101195.09
101226.91
101257.41
101285.55
101309.28
101328.63
101340.25
101342.27
101340.21
101297.88
100930.31
100932.49
100935.15
100938.32
100942.19
100946.2
100950.7
100955.8
100961.58
100968.21
100975.91
100984.94
100995.67
101008.46
101023.71
101041.75
101062.79
101086.64
101112.57
101140.69
101168.21
101196.46
101226.72
101255.29
101282.36
101305.14
101323.74
101334.86
101336.23
101333.3
101295.04
100972.64
100974.82
100977.82
100981.17
100984.53
100988.03
100991.83
100995.97
101000.54
101005.67
101011.52
101018.38
101026.61
101036.59
101048.74
101063.43
101080.94
101101.23
101123.78
101148.5
101173.68
101197.96
101226.16
101253.8
101279.4
101301.09
101318.8
101329.38
101329.84
101325.57
101298.21
101012.75
101014.98
101017.92
101020.91
101024.03
101027.32
101030.73
101034.22
101037.84
101041.72
101046
101050.95
101056.92
101064.32
101073.58
101085.12
101099.28
101116.14
101135.35
101156.78
101178.21
101199.49
101226.89
101252.95
101276.68
101297.11
101313.83
101323.84
101323.21
101317.03
101302.01
101051.88
101053.31
101055.53
101058.03
101060.72
101063.57
101066.51
101069.43
101072.3
101075.16
101078.16
101081.54
101085.6
101090.76
101097.48
101106.19
101117.3
101130.97
101146.96
101164.86
101182.69
101203.14
101229.01
101252.29
101273.78
101293.22
101308.9
101318.26
101316.41
101307.98
101297.61
101088.76
101089.48
101091.02
101092.85
101094.83
101096.93
101099.1
101101.25
101103.3
101105.22
101107.12
101109.2
101111.73
101115.07
101119.68
101126.02
101134.51
101145.38
101158.51
101173.5
101189.6
101207.82
101230.28
101250.99
101271.6
101289.68
101304.02
101312.7
101309.36
101298.9
101307.65
101123.11
101123.94
101124.63
101125.56
101126.64
101127.77
101128.9
101129.94
101130.87
101131.71
101132.5
101133.41
101134.66
101136.58
101139.56
101144.04
101150.42
101159.01
101169.81
101182.56
101197.02
101211.76
101231.02
101251
101270.26
101286.09
101299.31
101307.24
101302.32
101289.63
101298.72
101145.73
101145.7
101147.37
101149.41
101151.53
101153.6
101154.58
101154.42
101154.14
101153.92
101153.71
101153.63
101153.9
101154.79
101156.63
101159.78
101164.62
101171.46
101180.37
101191.16
101203.69
101215.88
101233.19
101251.29
101268.32
101282.5
101294.87
101301.93
101295.69
101280.05
101300.27
101170.17
101168.92
101168.02
101167.26
101166.5
101165.92
101166.4
101167.86
101169.21
101169.55
101169.04
101168.66
101168.62
101169.13
101170.46
101172.91
101176.83
101182.47
101189.94
101199.04
101209.62
101220.44
101235.22
101250.33
101266.67
101280.18
101290.76
101296.94
101289.94
101271.07
101282.84
101190.53
101189.44
101188.19
101186.79
101185.26
101183.58
101181.87
101180.35
101179.06
101178.7
101179.15
101179.31
101179.33
101179.85
101181.18
101183.51
101187.07
101192.04
101198.5
101206.34
101215.44
101225
101237.15
101250.69
101265.32
101277.41
101286.91
101292.24
101285.5
101264.86
101267.23
101190.91
101190.83
101190.63
101190.31
101189.92
101189.51
101189.05
101188.53
101187.95
101187.36
101186.85
101186.68
101187.12
101188.2
101189.9
101192.39
101195.85
101200.42
101206.17
101213.08
101220.95
101229.28
101239.58
101251.4
101263.92
101275.06
101283.19
101288
101282.37
101261.93
101257.48
101188.26
101188.69
101189.01
101189.28
101189.57
101189.86
101190.16
101190.5
101190.92
101191.49
101192.28
101193.04
101194
101195.61
101197.69
101200.32
101203.7
101207.94
101213.12
101219.21
101226.05
101233.28
101241.92
101252.05
101263.17
101273.03
101279.82
101284.3
101280.51
101261.82
101253.68
101189.19
101189.92
101190.56
101191.18
101191.87
101192.68
101193.62
101194.71
101195.88
101196.67
101197.13
101198.46
101200.66
101202.87
101205.23
101207.94
101211.13
101214.95
101219.48
101224.74
101230.62
101236.87
101244.15
101252.94
101262.34
101270.47
101277.45
101282.02
101279.62
101263.95
101255.25
101194.19
101194.72
101195.25
101195.82
101196.49
101197.33
101198.31
101199.42
101200.54
101202.09
101204.43
101206.86
101208.97
101210.93
101213.07
101215.49
101218.25
101221.45
101225.23
101229.63
101234.6
101240.04
101246.26
101253.95
101262.09
101269.71
101275.87
101279.79
101279.32
101267.96
101260.76
101203.36
101203.66
101204.06
101204.53
101205.11
101205.82
101206.71
101207.94
101209.53
101211.26
101213.04
101214.74
101216.42
101218.19
101220.07
101222.11
101224.37
101226.97
101230.05
101233.68
101237.91
101242.75
101248.29
101255.36
101263
101270.01
101275.07
101278.62
101279.44
101271.73
101270.14
101213.8