/*--------------------------------*- C++ -*----------------------------------*\
| =========                 |                                                 |
| \\      /  F ield         | OpenFOAM: The Open Source CFD Toolbox           |
|  \\    /   O peration     | Version:  2406                                  |
|   \\  /    A nd           | Website:  www.openfoam.com                      |
|    \\/     M anipulation  |                                                 |
\*---------------------------------------------------------------------------*/
FoamFile
{
    version     2.0;
    format      ascii;
    arch        "LSB;label=32;scalar=64";
    class       volScalarField;
    location    "0.11";
    object      Ma;
}
// * * * * * * * * * * * * * * * * * * * * * * * * * * * * * * * * * * * * * //

dimensions      [0 0 0 0 0 0 0];

internalField   nonuniform List<scalar> 
2065
(
0.10473753
0.10713058
0.10917039
0.11078561
0.11207399
0.070331824
0.075084348
0.079618111
0.083760799
0.087376113
0.035580034
0.039109144
0.043265896
0.047836858
0.013157104
0.015577062
0.018352838
0.0061541672
0.0071958657
0.0085051499
0.0061299842
0.0055176378
0.0070136121
0.007848311
0.0086547011
0.011479936
0.011155544
0.010663225
0.010053264
0.0093835079
0.0093447715
0.0088847131
0.0087836559
0.0091086101
0.0094241669
0.0095851747
0.010997374
0.012269716
0.013693558
0.017036187
0.018701443
0.020514213
0.022590185
0.024850339
0.12287241
0.13226955
0.14154557
0.15031995
0.15806298
0.16445742
0.1695231
0.17343558
0.17640201
0.12326023
0.13281136
0.1418067
0.15018089
0.15752829
0.16364389
0.16851669
0.17229549
0.17517367
0.12400994
0.13348002
0.14202158
0.14993335
0.15692642
0.16278053
0.16746763
0.17111513
0.17390225
0.1245753
0.13386471
0.14207012
0.14961251
0.15629927
0.16190728
0.16641143
0.16992642
0.17262041
0.12504304
0.13412767
0.14207865
0.14931236
0.15569506
0.16105483
0.1653734
0.12543914
0.17887033
0.18119285
0.18342552
0.18562815
0.18781998
0.18917128
0.177562
0.17980569
0.18196198
0.18409209
0.18622623
0.18756393
0.17621582
0.17839293
0.18049007
0.18256928
0.1846697
0.18600159
0.17485941
0.17696949
0.17900892
0.18104068
0.18310795
0.1844306
0.14539919
0.14619149
0.14702388
0.14805592
0.14973427
0.15384383
0.15089859
0.15169987
0.15256483
0.15361607
0.15517602
0.15835331
0.15674805
0.15758673
0.15851728
0.1596547
0.16132499
0.16457797
0.16287402
0.16375082
0.16472023
0.1658525
0.16732419
0.16959536
0.16912742
0.17003939
0.17105325
0.17225412
0.17394044
0.17795376
0.17538253
0.17633625
0.17739742
0.17865336
0.18039823
0.18386399
0.18152908
0.18255929
0.18370945
0.18505821
0.18684073
0.18954171
0.18734939
0.18846129
0.18969863
0.19112548
0.19290741
0.19497673
0.19263226
0.19382385
0.19514265
0.19664008
0.19841363
0.19990007
0.19718472
0.19844285
0.1998176
0.20134668
0.20307534
0.2041257
0.20086504
0.20220553
0.20366095
0.20526447
0.20701196
0.20754928
0.20350762
0.20491582
0.20640713
0.20799955
0.20965953
0.20996983
0.20498805
0.20656386
0.20821967
0.20996348
0.21169668
0.21149433
0.20519145
0.20682238
0.2085254
0.21030318
0.21204019
0.21187804
0.2048124
0.20644921
0.2081441
0.20987575
0.21148752
0.21113651
0.20369384
0.2054075
0.20719285
0.20903571
0.21068862
0.21022551
0.20177241
0.20357606
0.20540495
0.20726866
0.2090241
0.20852478
0.19931624
0.20120744
0.20309144
0.2049777
0.20673632
0.2063636
0.19646317
0.1984494
0.20041158
0.20236694
0.20419666
0.20392395
0.19336734
0.19543691
0.19745886
0.19945303
0.20132059
0.20128149
0.19018749
0.1923426
0.19444295
0.19652177
0.19849742
0.19858948
0.18699046
0.18920352
0.1913402
0.19343884
0.19545138
0.19588714
0.18399687
0.18628267
0.18848795
0.19066145
0.19277022
0.19332133
0.18085168
0.18319774
0.18545667
0.18768566
0.18988712
0.19080234
0.12992051
0.13187433
0.13461296
0.13740603
0.13987474
0.14182244
0.14321317
0.14414258
0.14474834
0.13991206
0.14125172
0.14300673
0.14483941
0.14652029
0.14790566
0.14895447
0.14971154
0.15026348
0.1496505
0.15015965
0.15098499
0.15201078
0.1530717
0.1540418
0.15486332
0.15553416
0.15608958
0.15893679
0.15869757
0.1587515
0.15909448
0.1596343
0.16027447
0.16093692
0.16157444
0.16216953
0.16773171
0.16682568
0.16622616
0.16600151
0.16612135
0.16651039
0.16707329
0.16771655
0.168371
0.17586872
0.17440667
0.17326032
0.17258359
0.17239494
0.17262015
0.17314344
0.17382975
0.17456351
0.18315417
0.18126141
0.17971232
0.17870509
0.17831119
0.17845971
0.17900388
0.17977398
0.18061759
0.18943548
0.1872428
0.18543207
0.18422694
0.18372758
0.18387098
0.18448512
0.18536763
0.18633606
0.19449514
0.19217967
0.19026072
0.18898957
0.188486
0.18868752
0.18940794
0.19041955
0.19151698
0.1985675
0.19619743
0.19417401
0.19287839
0.19243245
0.19274144
0.19359895
0.19475144
0.19597552
0.20071554
0.19838585
0.19659134
0.19555106
0.19532152
0.19581995
0.19686834
0.19818956
0.19955185
0.20066792
0.19861495
0.19720869
0.1965477
0.19672031
0.19762477
0.19900312
0.20056362
0.20208746
0.19988262
0.19811465
0.19691541
0.19650141
0.1969961
0.19821861
0.19984458
0.20163577
0.2033816
0.19777039
0.19652358
0.19582434
0.19587947
0.19666602
0.19805527
0.19980523
0.2016932
0.20352065
0.19362928
0.19319364
0.19330019
0.19405154
0.19540653
0.19719969
0.19922569
0.20125866
0.20312662
0.18787492
0.18835216
0.18935637
0.19090169
0.19291813
0.19523427
0.19763679
0.19990752
0.20191687
0.18084003
0.18241558
0.18444606
0.18689152
0.18962017
0.19245172
0.19520171
0.19770904
0.19987922
0.17276815
0.17558661
0.17877991
0.18221896
0.18572208
0.18911407
0.19224295
0.19499299
0.19731438
0.1640708
0.16822374
0.17265252
0.17713233
0.18143581
0.18539623
0.18890341
0.19189015
0.19435486
0.1552916
0.16075688
0.16638999
0.17188798
0.17697662
0.18148756
0.18535697
0.18856758
0.19116328
0.14684644
0.15357219
0.1603217
0.16674733
0.17255519
0.17756983
0.18176893
0.18518294
0.18789531
0.13918265
0.14681885
0.15450211
0.16176814
0.16824839
0.17373564
0.1782313
0.18182286
0.18463147
0.13254618
0.14126955
0.14968796
0.15748581
0.16440675
0.17023126
0.17495277
0.17868331
0.18157
0.12463061
0.13374329
0.14329603
0.15221476
0.15997869
0.1663664
0.17143577
0.17536804
0.17835874
0.15831925
0.14855234
0.14153989
0.13672417
0.13314646
0.13042679
0.17053721
0.1610787
0.15363022
0.14827162
0.1441223
0.14078878
0.18176339
0.17282983
0.16506247
0.15929194
0.15474532
0.15104162
0.19195306
0.18368747
0.17572016
0.16965153
0.16481399
0.16083253
0.20104317
0.19352815
0.18549274
0.17924275
0.17421963
0.17005726
0.20888489
0.20221555
0.19419184
0.18787346
0.1827662
0.17852204
0.2153061
0.20968646
0.20171811
0.19540067
0.1902854
0.18603767
0.22007066
0.21547772
0.20775667
0.20158889
0.19658502
0.19243643
0.22314676
0.22003512
0.21248568
0.20637791
0.20147084
0.19747441
0.22422854
0.22198053
0.21465436
0.20909998
0.20483329
0.20133431
0.22327922
0.22257525
0.2167452
0.21152972
0.20714798
0.2035498
0.22273551
0.22275102
0.21688663
0.21149754
0.2069645
0.20336655
0.22109253
0.22119282
0.21467165
0.20939173
0.20531469
0.20217234
0.21644165
0.21672
0.21045529
0.20559646
0.2021185
0.19953366
0.20355521
0.20788485
0.20356257
0.19967346
0.19676728
0.19471269
0.18967086
0.19756471
0.19472445
0.19172535
0.18955973
0.18816819
0.17443955
0.18606194
0.18430828
0.18212078
0.18076908
0.18017176
0.15791768
0.17084665
0.17120995
0.17065927
0.170548
0.17097122
0.13939562
0.15474112
0.15699876
0.15800217
0.15932361
0.16102268
0.11688904
0.13302086
0.14037814
0.14437104
0.14770147
0.15091287
0.094983716
0.11362682
0.12333415
0.13036794
0.13607193
0.14108293
0.047051259
0.085927375
0.10825526
0.11855929
0.12612145
0.13246865
0.020440676
0.047289461
0.083209517
0.10605048
0.11662966
0.12441422
0.027193841
0.027489675
0.048583945
0.080223652
0.10538482
0.11729082
0.017906993
0.0037027378
0.022707372
0.042977716
0.070074746
0.098590735
0.019862767
0.012755516
0.0057134835
0.017359623
0.034717165
0.062094521
0.016562188
0.013984808
0.010495117
0.0056332482
0.011401604
0.031558861
0.01569435
0.013890913
0.011373203
0.0084522157
0.004385988
0.0098118137
0.015654342
0.013838752
0.011723516
0.0096350561
0.0072709293
0.0053724894
0.015857894
0.013979713
0.012093943
0.010413975
0.0087581171
0.0070910559
0.01580037
0.013877071
0.012165311
0.01071769
0.0094035113
0.0081385685
0.015207902
0.013090593
0.011555792
0.010414727
0.0094689169
0.0086067875
0.01363618
0.011580405
0.010371719
0.0096416208
0.0091744695
0.008846559
0.010407855
0.0092086839
0.0086481818
0.0085311762
0.0086871985
0.0089942658
0.0070403014
0.0063154569
0.0066483561
0.007350152
0.0082165949
0.0091267739
0.0040179321
0.0038961854
0.0054425597
0.0067770472
0.0081141873
0.00940369
0.0028159157
0.0038082395
0.0054171408
0.0069451841
0.0084060869
0.0097826173
0.006329985
0.0064562662
0.0071754654
0.0081393355
0.0092201494
0.010323317
0.010393123
0.0098116125
0.0096628375
0.0098800378
0.010335001
0.010920158
0.013598416
0.012580717
0.011828659
0.011456507
0.011333076
0.011347622
0.016939658
0.01478126
0.013476918
0.012608086
0.011986511
0.011499243
0.018043464
0.016034232
0.014422407
0.013205458
0.012221514
0.011370322
0.01829904
0.016265922
0.01449381
0.013084388
0.011959728
0.010925297
0.017699241
0.015750715
0.013919967
0.012424874
0.011132913
0.010025043
0.01640501
0.014605433
0.012638986
0.010909931
0.0094108308
0.008627281
0.01511416
0.013214134
0.010996628
0.0087551061
0.0066638453
0.0076691987
0.013814155
0.01229305
0.0099257661
0.0065755964
0.0053160499
0.014773786
0.012691445
0.011778625
0.0090787314
0.0077945251
0.18789707
0.17894002
0.17124862
0.1657768
0.17801818
0.16913184
0.1619143
0.15689185
0.15317765
0.15041996
0.16718283
0.15847164
0.15176165
0.14721642
0.14395766
0.14165498
0.15555141
0.14709652
0.14094893
0.13693045
0.13417595
0.13236026
0.14318753
0.13501662
0.12949869
0.12607049
0.12388031
0.12259811
0.13014106
0.12226978
0.11747624
0.11471789
0.11317018
0.11247679
0.11667739
0.10903115
0.10506132
0.10305499
0.10218718
0.10210594
0.10303554
0.095723717
0.092604147
0.091338263
0.091120343
0.091641129
0.084958711
0.081732158
0.079892007
0.079428022
0.079913453
0.081137306
0.07061175
0.068007122
0.066997553
0.067338173
0.068669772
0.070747494
0.055124972
0.053917381
0.05395931
0.055366791
0.057750718
0.060808335
0.039617046
0.039534408
0.041059065
0.043886569
0.047569544
0.051759139
0.025459077
0.025634638
0.029179355
0.033830385
0.038986987
0.044343431
0.016188391
0.015378198
0.021468067
0.027528223
0.033687664
0.039795986
0.012191481
0.013849344
0.019719627
0.026042035
0.032410631
0.038664511
0.024070979
0.024026373
0.026883438
0.031173039
0.036219451
0.041592
0.039232396
0.03793973
0.038458835
0.04062617
0.043920747
0.047931642
0.054712211
0.051942622
0.051123968
0.051852248
0.053724814
0.056453528
0.070090193
0.065955494
0.064068875
0.063779089
0.0645789
0.066221565
0.084619047
0.079943731
0.077140878
0.076003034
0.075928943
0.076678827
0.10249684
0.094284525
0.090283152
0.088253605
0.087426765
0.087471854
0.1173635
0.10807226
0.10324182
0.10051109
0.098991249
0.098363617
0.13135034
0.12208412
0.11646618
0.11300594
0.1107647
0.10939276
0.14517089
0.13537483
0.12904867
0.12492476
0.12203498
0.11998197
0.011819529
0.011310861
0.012894841
0.20457655
0.19674362
0.18780375
0.11646473
0.10638096
0.096172335
0.08609564
0.076229691
0.066923523
0.058508214
0.051487504
0.04659718
0.044604278
0.045791929
0.049749556
0.056090207
0.063943653
0.072737155
0.082073365
0.091656121
0.10132191
0.11096721
0.1204333
0.12960684
0.13839726
0.14675621
0.11176504
0.10197467
0.092715631
0.083710384
0.075154278
0.067292834
0.060490522
0.055126079
0.051700809
0.050611701
0.051916526
0.055372909
0.060700956
0.06733092
0.074864093
0.082977595
0.091438506
0.10006746
0.10877235
0.11742235
0.12590756
0.13413944
0.14207858
0.10711281
0.098251
0.090060191
0.082252276
0.075039035
0.068656014
0.063370652
0.059444563
0.057174852
0.056737667
0.058100938
0.061130467
0.065611801
0.071182724
0.077571171
0.084536275
0.091890901
0.099494942
0.10721804
0.1150059
0.12273962
0.13034077
0.13774637
0.10303275
0.095294927
0.08824295
0.081706049
0.075862552
0.070910849
0.066988839
0.064270268
0.062899766
0.06293331
0.064317443
0.06697667
0.070747597
0.075405839
0.080769786
0.086669381
0.092963065
0.099547867
0.10631678
0.11319231
0.12011919
0.12701313
0.13381583
0.099756999
0.093216624
0.087375296
0.082118517
0.077619198
0.073957196
0.071208763
0.069462302
0.068770246
0.069132572
0.070506582
0.072843968
0.076021455
0.079904982
0.084376153
0.089320725
0.094637163
0.10024244
0.10607367
0.1120537
0.11813466
0.12426075
0.13037817
0.097447982
0.092147164
0.08749928
0.083507953
0.080224744
0.077671617
0.075881922
0.074886484
0.074689591
0.07527203
0.07661142
0.078666592
0.081349765
0.08458315
0.088290963
0.092399228
0.096839544
0.10155122
0.10648405
0.11159856
0.11684059
0.12217341
0.12754851
0.096240004
0.092117099
0.088648395
0.085798532
0.083550877
0.08190235
0.080858001
0.080418159
0.08056939
0.081292795
0.08257723
0.084383363
0.086656134
0.089349334
0.092415348
0.095807297
0.099480768
0.1033948
0.10751306
0.11180721
0.11625291
0.12080578
0.12543382
0.096077778
0.093120239
0.090728752
0.088837634
0.087425054
0.086479606
0.085991639
0.085947532
0.086332362
0.087138353
0.08835212
0.089940482
0.091872904
0.094121106
0.096655698
0.099447445
0.10246814
0.10569124
0.1090924
0.11265102
0.11635033
0.12017412
0.12408551
0.096964603
0.095039473
0.093538679
0.092416735
0.091654501
0.091236989
0.091149505
0.091377805
0.091914842
0.092758045
0.09388964
0.095289118
0.09693959
0.098823728
0.10092359
0.10322114
0.10569867
0.10833922
0.11112706
0.11404831
0.11709075
0.1202428
0.12349186
0.098804199
0.097702471
0.096900301
0.096368039
0.096088215
0.096046554
0.096231757
0.096638756
0.097267741
0.098110321
0.099153907
0.10038846
0.10180419
0.1033907
0.10513718
0.10703262
0.10906597
0.11122638
0.11350362
0.11588849
0.11837274
0.12094748
0.12360319
0.10144038
0.10095719
0.10066912
0.10055674
0.10060811
0.10081493
0.10117489
0.10168931
0.10235518
0.10316675
0.10411865
0.10520566
0.10642215
0.10776215
0.10921943
0.11078752
0.11245978
0.1142294
0.11608963
0.11803403
0.12005659
0.12215134
0.1243112
0.10467608
0.10464087
0.1047149
0.10488239
0.10513993
0.10549304
0.10594318
0.10649269
0.10714479
0.10789835
0.10874968
0.10969585
0.11073396
0.11186108
0.11307415
0.11436988
0.11574472
0.11719474
0.11871567
0.1203029
0.12195133
0.12365686
0.12542135
0.10835926
0.10859103
0.10886829
0.10919421
0.10957435
0.11001233
0.1105083
0.11106176
0.11167234
0.11234087
0.11306976
0.11386071
0.11471451
0.11563151
0.11661178
0.11765513
0.11876101
0.11992828
0.12115503
0.12243827
0.12377325
0.12515591
0.11268838
0.11304041
0.11342412
0.11382757
0.11425216
0.11469718
0.11516081
0.11564233
0.116142
0.11666004
0.11721295
0.11780489
0.11843754
0.1191132
0.11983459
0.12060468
0.12142648
0.12230261
0.12323457
0.12422157
0.12525782
0.12633485
0.11734153
0.1176818
0.11804446
0.11841309
0.11878412
0.11915804
0.11953781
0.11992651
0.12032646
0.12073998
0.12116805
0.12161069
0.1220693
0.12254582
0.12304217
0.12356072
0.12410474
0.12467834
0.12528648
0.12593396
0.12662045
0.12733096
0.12108538
0.12141399
0.1217453
0.12207368
0.12240335
0.1227378
0.12307913
0.12342817
0.12378521
0.12415051
0.12452437
0.1249072
0.12529933
0.1257009
0.12611199
0.12653266
0.12696251
0.12740055
0.12784541
0.12829552
0.1287478
0.12919538
0.12401184
0.12434786
0.12469618
0.12504423
0.12539016
0.12573239
0.1260696
0.12640105
0.12672665
0.12704674
0.12736197
0.12767316
0.12798149
0.12828882
0.12859801
0.12891222
0.12923434
0.12956746
0.12991471
0.13027796
0.13065564
0.13104208
0.12709707
0.12744763
0.12779045
0.12812106
0.12844163
0.12875479
0.12906273
0.12936702
0.12966849
0.12996727
0.13026281
0.130554
0.1308397
0.13111863
0.13138873
0.13164732
0.13189213
0.13212187
0.13233704
0.13253903
0.13273018
0.13291477
0.12991964
0.13022176
0.13051823
0.13080826
0.13109315
0.13137324
0.13164805
0.13191687
0.13217917
0.13243475
0.13268377
0.13292725
0.13316651
0.13340245
0.13363604
0.13386827
0.13409965
0.13432958
0.13455606
0.13477618
0.13498809
0.13519074
0.13285389
0.13313236
0.13340218
0.13366257
0.13391379
0.13415616
0.1343901
0.13461612
0.13483471
0.13504622
0.13525069
0.13544743
0.13563509
0.13581248
0.13597883
0.13613395
0.13627827
0.13641287
0.13653912
0.13665854
0.136772
0.13687905
0.13547501
0.13569062
0.13590015
0.13610382
0.13630251
0.13649685
0.13668708
0.13687311
0.13705462
0.13723127
0.13740279
0.13756931
0.13773143
0.1378899
0.13804518
0.13819715
0.13834506
0.13848763
0.13862376
0.1387527
0.13887398
0.13898727
0.13809579
0.13827881
0.13845628
0.13862752
0.13879227
0.13895035
0.13910152
0.13924561
0.13938247
0.13951206
0.13963429
0.139749
0.13985591
0.13995472
0.14004537
0.14012815
0.14020375
0.14027316
0.1403373
0.14039672
0.14045155
0.14050165
0.14035873
0.14048922
0.14061603
0.14073917
0.1408591
0.14097625
0.14109079
0.14120273
0.141312
0.14141846
0.14152201
0.14162261
0.14172026
0.14181501
0.14190679
0.14199536
0.14208035
0.14216136
0.14223804
0.14231019
0.1423777
0.14244033
0.14250461
0.1426075
0.14270743
0.14280397
0.14289682
0.14298563
0.14306995
0.14314935
0.14322347
0.14329202
0.14335483
0.14341181
0.14346294
0.14350832
0.14354817
0.14358285
0.14361273
0.14363819
0.1436597
0.14367796
0.14369414
0.1437101
0.14424757
0.14431331
0.14437788
0.14444131
0.14450384
0.14456562
0.14462656
0.1446866
0.14474566
0.14480373
0.14486073
0.14491657
0.14497116
0.14502432
0.14507588
0.14512557
0.14517301
0.14521762
0.14525844
0.145294
0.14532248
0.14534245
0.14583093
0.14587973
0.14592713
0.14597267
0.14601593
0.14605646
0.14609386
0.14612777
0.14615787
0.14618393
0.1462058
0.14622341
0.14623674
0.14624589
0.14625116
0.1462531
0.14625265
0.14625111
0.14625011
0.14625122
0.14625331
0.14625613
0.14697534
0.14700222
0.14702949
0.14705722
0.14708509
0.14711305
0.14714119
0.14716962
0.14719838
0.14722752
0.14725697
0.14728651
0.14731571
0.14734392
0.14737026
0.14739373
0.14741328
0.14742799
0.1474372
0.14744081
0.14744147
0.14744048
0.1480977
0.14811077
0.14812099
0.14813203
0.14814235
0.14815104
0.14815804
0.14816323
0.1481664
0.14816726
0.14816564
0.14816152
0.14815518
0.14814714
0.14813817
0.14812913
0.1481209
0.14811422
0.14810925
0.14810496
0.14810037
0.14809526
0.14873254
0.14873938
0.14874343
0.14875358
0.14876083
0.14876647
0.14877086
0.14877408
0.14877629
0.14877766
0.1487784
0.14877864
0.14877841
0.14877764
0.14877608
0.14877344
0.14876945
0.14876409
0.14875781
0.14875211
0.14874787
0.14874482
0.14894356
0.14895008
0.14895691
0.14896402
0.14897002
0.14897488
0.14897855
0.14898097
0.14898245
0.1489834
0.14898417
0.14898498
0.14898588
0.1489866
0.14898659
0.14898517
0.14898159
0.14897538
0.14896672
0.14895904
0.14895433
0.14895189
0.14925289
0.14926027
0.14926638
0.14927111
0.14927434
0.1492759
0.14927547
0.14927307
0.14926909
0.14926427
0.14925945
0.14925533
0.14925216
0.14924966
0.14924705
0.14924301
0.14923583
0.14922363
0.14920549
0.14919095
0.14918577
0.14918667
0.14065123
0.13999883
0.13896157
0.13737053
0.13510851
0.13221772
0.12891839
0.12557804
0.12267907
0.13759958
0.13688659
0.13576425
0.13404419
0.13159917
0.1284695
0.12489463
0.12125196
0.11804047
0.13434864
0.1335831
0.1323748
0.13052481
0.12789737
0.12452713
0.12065472
0.11666897
0.11317411
0.13102935
0.13020661
0.12892184
0.12697025
0.12421247
0.12068106
0.11661932
0.11242962
0.10872735
0.12773261
0.12685374
0.12550605
0.12348802
0.12066504
0.11707425
0.11296469
0.10874027
0.10496505
0.12458063
0.1236477
0.12225412
0.12021163
0.1173999
0.11386646
0.10986203
0.10577158
0.10207217
0.12171154
0.12072988
0.11931056
0.1172895
0.11456876
0.1112082
0.10744814
0.10363476
0.10016853
0.11925146
0.11823288
0.1168157
0.11486244
0.11229721
0.1091843
0.1057501
0.10232321
0.099236881
0.11740706
0.11630538
0.11488568
0.11302801
0.11067031
0.10788307
0.10487712
0.10193453
0.099344079
0.11647536
0.11523637
0.11378081
0.11201348
0.10989267
0.10748296
0.10498406
0.10260769
0.10051777
0.11642855
0.11498409
0.11348066
0.11184234
0.11003877
0.1080939
0.10610024
0.10422186
0.10259505
0.1183799
0.11658422
0.11451776
0.11266693
0.11104664
0.10948377
0.10794909
0.10655122
0.10536932
0.11938538
0.1188904
0.11760855
0.11566583
0.11376702
0.11211683
0.11072757
0.10959054
0.10871656
0.11971771
0.11977402
0.11956059
0.11880246
0.11745407
0.11597205
0.11468151
0.11366955
0.11291957
0.12096172
0.12064477
0.12047502
0.12042711
0.12018966
0.11958105
0.11879522
0.11805609
0.11747093
0.12255409
0.12259267
0.12243737
0.1220967
0.12180737
0.12162715
0.12144817
0.1212358
0.12102768
0.12481782
0.12465891
0.12460229
0.12459841
0.12451288
0.12432586
0.1241356
0.12398993
0.12388883
0.12719397
0.1272291
0.12717274
0.12705539
0.12697918
0.126956
0.12694531
0.12693351
0.12692399
0.13001753
0.12993663
0.12990933
0.12991034
0.1298882
0.12984054
0.12979781
0.12977335
0.12976565
0.13258939
0.1326321
0.13263114
0.13261078
0.13260591
0.13262132
0.13264565
0.13267118
0.13269718
0.13546451
0.13540388
0.13537329
0.1353617
0.13535106
0.1353412
0.13533825
0.13534339
0.13535506
0.1378012
0.13784596
0.1378713
0.13788489
0.13789975
0.13791943
0.13794156
0.13796477
0.13798789
0.14035236
0.14031507
0.14028998
0.14027539
0.14026694
0.1402638
0.14026626
0.14027327
0.14028312
0.14229523
0.14232394
0.14234618
0.14236305
0.14237806
0.14239335
0.14240961
0.14242602
0.14244122
0.14430864
0.1442763
0.1442474
0.14422496
0.14420918
0.14420083
0.1442005
0.14420397
0.14420827
0.14563857
0.1456728
0.14570433
0.14573028
0.14575047
0.14576685
0.14577978
0.14578988
0.14579853
0.14706599
0.14704305
0.14701908
0.14699712
0.14697955
0.14696755
0.14696073
0.14695813
0.14695816
0.14801046
0.14802205
0.14803608
0.14804986
0.14806202
0.14807199
0.14807936
0.14808406
0.14808652
0.1486887
0.14869134
0.14869671
0.14870158
0.14870671
0.1487121
0.14871724
0.14872173
0.14872522
0.14890407
0.14890657
0.14891016
0.14891379
0.14891822
0.14892332
0.14892858
0.1489334
0.1489374
0.14917811
0.149184
0.14919147
0.14920055
0.14921075
0.14922105
0.14923029
0.14923772
0.14924328
0.14132264
0.13829105
0.13504732
0.13175265
0.12848365
0.12536424
0.12252615
0.12010265
0.11839397
0.11766026
0.11804824
0.1192648
0.11957443
0.1197207
0.1211574
0.12249786
0.12494595
0.1271278
0.1300968
0.13251308
0.13553358
0.13773644
0.14039282
0.14225914
0.14433856
0.14560348
0.1470856
0.14799984
0.14868621
0.14890183
0.14917395
0.14210405
0.13907567
0.13581508
0.13252306
0.12925911
0.12615775
0.12332977
0.12095431
0.11947701
0.11906609
0.11954936
0.11962796
0.11956737
0.11985854
0.12117354
0.12252405
0.12496562
0.12709509
0.13013394
0.13243298
0.13559303
0.13766254
0.14042621
0.14221999
0.14435707
0.14557048
0.1470973
0.14798894
0.14868194
0.14889824
0.14916881
0.14289684
0.13986243
0.13656903
0.13328174
0.13002027
0.12695962
0.12413547
0.12193241
0.12086255
0.12070569
0.12026382
0.11976889
0.11967475
0.11991899
0.12124486
0.12254333
0.1249868
0.12709541
0.13015223
0.13239785
0.13562168
0.1376304
0.14043166
0.14220964
0.14435088
0.14556387
0.14709498
0.14798493
0.1486786
0.14889523
0.14916342
0.1438583
0.14082556
0.13748287
0.13420878
0.13092914
0.1279859
0.12522972
0.12346778
0.12266904
0.12147343
0.12052252
0.12004101
0.11992776
0.12007556
0.12144086
0.12265481
0.1250808
0.12717477
0.13016285
0.13249019
0.13555546
0.13774745
0.14033053
0.14231475
0.14426508
0.14564567
0.14705146
0.14800684
0.14867886
0.14888968
0.14915951
0.14542599
0.14249961
0.13911605
0.13593907
0.13255252
0.13012633
0.1278726
0.12637165
0.12481162
0.12340212
0.1222861
0.12152174
0.12133883
0.12128436
0.12203273
0.1240371
0.12532212
0.12824705
0.13012179
0.13342448
0.13531465
0.13846495
0.14016854
0.14269256
0.14405596
0.14592408
0.14694674
0.14810159
0.14870927
0.1488902
0.14916017
0.14981515
0.14767904
0.14470357
0.14289763
0.14048637
0.13913436
0.13654917
0.13481059
0.13308482
0.13162204
0.13045197
0.12959007
0.12924618
0.12894884
0.1293372
0.13001028
0.13110941
0.13254052
0.13431157
0.13625276
0.13822891
0.14018443
0.14196182
0.14351796
0.14468453
0.14633599
0.14769841
0.14843857
0.14890765
0.14900521
0.14919668
)
;

boundaryField
{
    Side1
    {
        type            empty;
    }
    Inlet
    {
        type            calculated;
        value           uniform 0.14977318;
    }
    Side2
    {
        type            empty;
    }
    Outlet
    {
        type            calculated;
        value           nonuniform List<scalar> 0();
    }
    Botwall
    {
        type            calculated;
        value           nonuniform List<scalar> 
59
(
0.14993576
0.14992583
0.14991588
0.14990577
0.14979223
0.14981677
0.14984695
0.14987702
0.14991471
0.14994716
0.14997958
0.15001082
0.15003982
0.15006454
0.15008512
0.15009762
0.15010785
0.15010594
0.15009821
0.15008945
0.1500757
0.15005895
0.15004076
0.15002118
0.15000221
0.14998265
0.14996568
0.14994723
0.14976819
0.14975963
0.14974602
0.14973944
0.14973047
0.14972935
0.14971591
0.14970998
0.14970125
0.14969502
0.14968985
0.14968632
0.149685
0.14968327
0.14968502
0.14968811
0.14969306
0.14969987
0.14970771
0.14971669
0.14972427
0.14973226
0.14973825
0.1497443
0.14975032
0.14975797
0.14976478
0.1497682
0.14977373
0.14977865
0.14977774
)
;
    }
    Cyli
    {
        type            calculated;
        value           uniform 0;
    }
    procBoundary0to1
    {
        type            processor;
        value           nonuniform List<scalar> 
44
(
0.11311188
0.11311188
0.090388838
0.052523412
0.052523412
0.021484307
0.021484307
0.010011943
0.0051906314
0.0051906314
0.0061113753
0.0061113753
0.0073361352
0.0087168339
0.0094122889
0.0094122889
0.010076743
0.010662785
0.011102993
0.011419817
0.01157088
0.01157088
0.011864989
0.011079799
0.010185055
0.010185055
0.0088057693
0.16875359
0.17135236
0.13431842
0.14207061
0.14903881
0.15511712
0.16022679
0.16875359
0.16435814
0.13431842
0.12579475
0.17351551
0.17555551
0.17753234
0.17950846
0.18152869
0.18284495
)
;
    }
    procBoundary0to2
    {
        type            processor;
        value           nonuniform List<scalar> 
55
(
0.038582758
0.040885606
0.043102388
0.044950272
0.046550747
0.019874186
0.035472835
0.0091692156
0.019874186
0.025062284
0.17977578
0.16164208
0.17395289
0.16164208
0.1585209
0.0091692156
0.010805045
0.010805045
0.0066952447
0.21118004
0.19587792
0.19587792
0.17977578
0.15461079
0.15006333
0.14535511
0.14088382
0.13680153
0.13322149
0.13032118
0.12822466
0.12693158
0.12641837
0.12658308
0.12729516
0.12659036
0.12659036
0.12745279
0.12804304
0.12962823
0.13143019
0.13309652
0.13538204
0.13697953
0.13909288
0.14054693
0.14249773
0.14372494
0.14535652
0.14625923
0.14743844
0.14808954
0.14874222
0.14895063
0.14919024
)
;
    }
    procBoundary0to3
    {
        type            processor;
        value           nonuniform List<scalar> 7(0.0085165635 0.0085165635 0.00979221 0.00979221 0.015130868 0.015130868 0.02720427);
    }
}


// ************************************************************************* //
