/*--------------------------------*- C++ -*----------------------------------*\
| =========                 |                                                 |
| \\      /  F ield         | OpenFOAM: The Open Source CFD Toolbox           |
|  \\    /   O peration     | Version:  2406                                  |
|   \\  /    A nd           | Website:  www.openfoam.com                      |
|    \\/     M anipulation  |                                                 |
\*---------------------------------------------------------------------------*/
FoamFile
{
    version     2.0;
    format      ascii;
    arch        "LSB;label=32;scalar=64";
    class       volScalarField;
    location    "0.008";
    object      nutMean;
}
// * * * * * * * * * * * * * * * * * * * * * * * * * * * * * * * * * * * * * //

dimensions      [0 2 -1 0 0 0 0];

internalField   nonuniform List<scalar> 
23203
(
0.070424491
0.072231803
0.073981794
0.075673349
0.077304033
0.078870861
0.080370422
0.081798858
0.083151765
0.084424112
0.08561013
0.086703404
0.087696864
0.088582857
0.089353075
0.08999851
0.090509518
0.090875833
0.091086676
0.091130925
0.090997367
0.090674771
0.090152027
0.089418444
0.08846413
0.087280264
0.085859134
0.084194681
0.082283141
0.080123381
0.077717061
0.075068063
0.072182687
0.069071872
0.065752467
0.062246488
0.058581296
0.054791005
0.050917473
0.047005751
0.043103503
0.039268746
0.035570374
0.032085483
0.028886822
0.02602947
0.02351571
0.021238596
0.019078456
0.016995748
0.01500041
0.013119161
0.011372976
0.0097769281
0.0083502934
0.0071172347
0.0061044253
0.0053327281
0.0048181537
0.0045626076
0.0044779294
0.0044408962
0.0044120092
0.0043861374
0.0043625777
0.0043410631
0.0043213932
0.0043033644
0.0042868067
0.0042716071
0.0042576971
0.0042449784
0.004233295
0.0042225022
0.0042125436
0.0042033988
0.0041950056
0.0041872229
0.0041799469
0.004173188
0.0041669024
0.0041609755
0.0041553587
0.0041500125
0.0041449149
0.0041400497
0.0041353705
0.0041309113
0.0041266919
0.0041226842
0.0041189031
0.0041154119
0.004112271
0.0041095768
0.0041073301
0.0041053831
0.0041036074
0.0041017823
0.0040998808
0.0040977583
0.0040956431
0.0040931892
0.0040902162
0.0040870329
0.0040835704
0.0040802206
0.0040743609
0.0040770906
0.072003179
0.073753039
0.075446584
0.077081639
0.078655481
0.080164925
0.081606356
0.082975688
0.08426829
0.085478911
0.086601585
0.087629803
0.088556438
0.089373769
0.090073422
0.090646343
0.09108291
0.091372923
0.09150576
0.091470528
0.091256306
0.090852157
0.090247311
0.089431599
0.088395746
0.087131492
0.085631773
0.083891381
0.081907431
0.079679639
0.077210386
0.074504138
0.071567905
0.068413673
0.065059326
0.061528019
0.05784849
0.054055954
0.050192471
0.046302314
0.04243369
0.038645378
0.03500617
0.031591773
0.028470298
0.025689609
0.02323388
0.020984408
0.018836052
0.016762828
0.014779385
0.012913209
0.011184112
0.0096071718
0.0082019689
0.0069930619
0.0060066506
0.0052626055
0.0047764081
0.0045454053
0.0044703014
0.0044350155
0.0044066827
0.004381203
0.0043579869
0.0043367828
0.0043173949
0.0042996219
0.0042832971
0.0042683115
0.0042545996
0.0042420646
0.0042305514
0.0042199153
0.0042101009
0.0042010902
0.0041928218
0.0041851535
0.0041779825
0.0041713235
0.0041651332
0.0041592956
0.0041537628
0.0041484956
0.0041434727
0.0041386782
0.0041340645
0.0041296669
0.0041255067
0.0041215547
0.0041178265
0.0041143854
0.0041112916
0.0041086397
0.004106429
0.0041045118
0.0041027608
0.0041009588
0.0040990842
0.0040969912
0.0040949106
0.0040924821
0.0040895289
0.0040863667
0.0040829167
0.0040795711
0.0040737127
0.0040763703
0.073617922
0.075303442
0.076933837
0.078506213
0.080017404
0.081463898
0.082841777
0.084146669
0.085373664
0.086517242
0.087571247
0.088529103
0.089383609
0.090126966
0.09075073
0.091245823
0.09160269
0.091811247
0.091861087
0.091741597
0.09144219
0.090952274
0.090261543
0.089360458
0.088240384
0.086893639
0.085313892
0.08349687
0.08144057
0.07914548
0.076614648
0.073853056
0.07086851
0.067674049
0.064288537
0.060736389
0.057047749
0.053258825
0.049411354
0.04554881
0.041720388
0.037985469
0.034412834
0.031076229
0.028038672
0.025338995
0.02293952
0.020714888
0.018578375
0.016516144
0.0145466
0.012697254
0.010986666
0.0094303381
0.0080482158
0.0068652259
0.0059068534
0.0051920104
0.0047357057
0.0045292284
0.0044627775
0.0044290753
0.0044012798
0.0043761977
0.004353332
0.0043324443
0.0043133431
0.0042958298
0.0042797416
0.0042649736
0.004251463
0.0042391145
0.0042277736
0.004217296
0.004207628
0.0041987531
0.0041906105
0.0041830576
0.0041759929
0.0041694349
0.0041633407
0.0041575931
0.0041521453
0.0041469577
0.0041420102
0.0041372871
0.0041327395
0.0041284046
0.0041243046
0.0041204095
0.0041167354
0.0041133458
0.0041103004
0.0041076918
0.0041055179
0.004103631
0.0041019045
0.0041001259
0.0040982785
0.0040962158
0.0040941699
0.0040917672
0.0040888343
0.0040856939
0.0040822573
0.0040789158
0.0040730613
0.0040756446
0.075269229
0.076885329
0.078447573
0.079952485
0.081396468
0.082775647
0.08408574
0.085322065
0.086479427
0.08755204
0.088533595
0.089417456
0.09019631
0.090862263
0.091406804
0.091820858
0.092094973
0.092219204
0.09218338
0.091977176
0.091590335
0.091012655
0.09023437
0.089246591
0.088041265
0.086611316
0.084951242
0.083057712
0.080929522
0.078567862
0.075976408
0.073160631
0.070129238
0.066896334
0.063481907
0.059911858
0.056217591
0.0524359
0.048607746
0.044776356
0.040992177
0.03731502
0.033813776
0.030559422
0.027609326
0.024990298
0.022641199
0.020437528
0.018312268
0.01626164
0.014306962
0.0124754
0.010784285
0.0092495975
0.0078916695
0.006735755
0.0058065288
0.0051220438
0.0046968241
0.0045142431
0.0044553317
0.0044230094
0.0043957406
0.0043710661
0.0043485615
0.0043279998
0.0043091939
0.0042919482
0.004276104
0.0042615602
0.0042482572
0.0042361006
0.0042249369
0.0042146224
0.0042051046
0.004196369
0.0041883553
0.0041809206
0.0041739646
0.00416751
0.0041615141
0.0041558583
0.004150497
0.0041453907
0.00414052
0.0041358696
0.0041313896
0.0041271186
0.0041230802
0.0041192433
0.0041156247
0.0041122879
0.0041092921
0.004106728
0.0041045915
0.0041027356
0.0041010343
0.0040992796
0.0040974601
0.0040954282
0.0040934176
0.0040910412
0.004088129
0.004085011
0.0040815882
0.0040782511
0.0040724015
0.0040749083
0.076955793
0.078497707
0.079987069
0.081419849
0.082792067
0.08409949
0.085337421
0.086500893
0.087584455
0.088582058
0.089487268
0.090293377
0.090992914
0.091577904
0.092039784
0.092369516
0.092557792
0.092594817
0.092470672
0.09217532
0.09169886
0.091031532
0.090164167
0.089088497
0.087797013
0.08628334
0.084542876
0.082573173
0.080373724
0.077946415
0.075295472
0.072426911
0.069350418
0.066081198
0.062640611
0.059056116
0.055360082
0.051589385
0.047784103
0.043987899
0.040252411
0.036637807
0.03321293
0.030044942
0.027184817
0.024643417
0.022337693
0.020151719
0.018037529
0.015999287
0.014060535
0.012247742
0.010577103
0.0090651455
0.0077325959
0.0066049827
0.0057060894
0.0050532158
0.0046601917
0.0045004448
0.0044479943
0.0044168715
0.0043901182
0.0043658565
0.0043437189
0.0043234886
0.0043049827
0.0042880088
0.0042724125
0.0042580968
0.0042450047
0.0042330432
0.0042220594
0.0042119103
0.0042025449
0.0041939504
0.0041860673
0.0041787521
0.0041719063
0.0041655566
0.0041596602
0.0041540971
0.0041488233
0.0041437991
0.0041390061
0.0041344293
0.0041300176
0.0041258115
0.0041218357
0.004118058
0.0041144958
0.0041112128
0.0041082677
0.0041057488
0.0041036504
0.0041018258
0.0041001501
0.0040984196
0.0040966285
0.004094628
0.0040926533
0.0040903035
0.0040874124
0.0040843171
0.0040809086
0.0040775762
0.0040717322
0.0040741603
0.078673123
0.080136496
0.081548552
0.082904696
0.084200689
0.085431947
0.086593318
0.087679638
0.088685228
0.089603773
0.090428726
0.091153289
0.091769804
0.092270249
0.092646033
0.092888189
0.09298759
0.092934596
0.09271955
0.092332706
0.091764569
0.091005886
0.090048101
0.088883508
0.087505178
0.085907537
0.084086897
0.082041584
0.079771722
0.077279904
0.074570833
0.071651173
0.068531635
0.065228649
0.061765204
0.058170185
0.054476536
0.050720722
0.046942226
0.043185719
0.039503733
0.035956872
0.032613328
0.029535409
0.026766446
0.024297166
0.022027636
0.019856857
0.017753898
0.015728983
0.013807305
0.012014302
0.010365207
0.0088771357
0.007571237
0.0064732357
0.0056059478
0.004986015
0.0046261102
0.0044877711
0.0044407543
0.0044106772
0.0043844292
0.0043605834
0.0043388166
0.0043189214
0.0043007189
0.0042840198
0.0042686742
0.0042545893
0.004241711
0.004229947
0.0042191451
0.0042091632
0.0041999519
0.0041915
0.0041837487
0.0041765542
0.0041698197
0.0041635759
0.00415778
0.0041523105
0.0041471248
0.0041421836
0.004137469
0.0041329664
0.0041286238
0.0041244833
0.0041205711
0.0041168535
0.0041133487
0.0041101205
0.004107227
0.0041047541
0.0041026942
0.0041009015
0.0040992516
0.0040975459
0.0040957837
0.0040938151
0.0040918767
0.0040895539
0.0040866843
0.0040836123
0.0040802183
0.0040768908
0.0040710535
0.0040734005
0.080414937
0.08179581
0.083126361
0.084401552
0.085617035
0.086767813
0.0878483
0.088853259
0.089776792
0.09061229
0.091353108
0.091992348
0.092522162
0.092934529
0.093220854
0.093372281
0.093379878
0.093234166
0.092925758
0.092445229
0.091783561
0.090932045
0.08988271
0.088628384
0.087162804
0.085481271
0.083580957
0.081460823
0.079121645
0.076566693
0.073801126
0.070832358
0.067672177
0.064338478
0.060856028
0.057254807
0.053567883
0.049830994
0.04608365
0.042371766
0.03874844
0.035274815
0.032017368
0.029032687
0.026354296
0.023949556
0.021709604
0.019552325
0.017461066
0.015450576
0.01354721
0.011775063
0.010148659
0.0086857148
0.0074078447
0.0063408565
0.0055065209
0.0049209187
0.0045947937
0.0044760981
0.0044335794
0.0044044243
0.0043786742
0.0043552475
0.0043338553
0.0043142988
0.0042964028
0.0042799816
0.0042648897
0.0042510384
0.0042383764
0.0042268123
0.0042161944
0.0042063815
0.0041973258
0.0041890178
0.0041813996
0.004174327
0.0041677049
0.0041615681
0.0041558736
0.0041504984
0.0041454018
0.0041405442
0.0041359086
0.004131481
0.0041272081
0.0041231342
0.0041192864
0.0041156299
0.0041121834
0.0041090111
0.0041061701
0.0041037439
0.004101723
0.0040999626
0.0040983389
0.0040966583
0.0040949255
0.0040929894
0.0040910879
0.0040887923
0.0040859445
0.0040828962
0.0040795172
0.0040761949
0.0040703652
0.0040726289
0.082173969
0.083468658
0.084713568
0.085903689
0.087034589
0.088100676
0.089096116
0.090015672
0.090853159
0.091601708
0.092254588
0.09280479
0.093244299
0.093565162
0.093758789
0.093816468
0.093729479
0.093488489
0.093084422
0.092508225
0.091751431
0.090805867
0.089664084
0.0883195
0.086766615
0.085001607
0.083022395
0.080828492
0.078421373
0.075804922
0.072984808
0.069969255
0.066771256
0.06341048
0.059913391
0.056310622
0.052634887
0.048921229
0.045209894
0.041547912
0.037988768
0.034594025
0.031427084
0.028538082
0.025947398
0.023598274
0.02138232
0.019237591
0.017158766
0.015163945
0.013280207
0.011530035
0.0099275599
0.008491072
0.0072427196
0.0062082168
0.0054082572
0.0048584092
0.0045663721
0.0044652875
0.0044264438
0.0043981124
0.0043728552
0.0043498507
0.0043288367
0.0043096221
0.0042920358
0.0042758953
0.0042610598
0.0042474448
0.0042350016
0.0042236397
0.0042132079
0.0042035656
0.004194667
0.0041865043
0.0041790202
0.0041720706
0.004165562
0.0041595332
0.0041539412
0.0041486609
0.0041436541
0.0041388808
0.0041343247
0.0041299728
0.0041257704
0.0041217637
0.0041179815
0.004114387
0.0041109996
0.0041078842
0.0041050966
0.0041027179
0.0041007365
0.0040990089
0.0040974118
0.0040957567
0.0040940538
0.0040921507
0.0040902865
0.0040880186
0.004085193
0.0040821689
0.0040788054
0.0040754885
0.0040696674
0.0040718457
0.083941453
0.085146087
0.08630186
0.087403559
0.088445913
0.089423111
0.090329609
0.091159904
0.091907432
0.092565259
0.093126527
0.093584074
0.093929807
0.094155899
0.094253756
0.094214846
0.09403065
0.093692005
0.093190208
0.09251664
0.091663424
0.090622862
0.089388016
0.087953006
0.086313145
0.084465423
0.08240836
0.080142037
0.077668637
0.074992635
0.07212026
0.069060608
0.065828144
0.062444547
0.058937641
0.055338227
0.051678248
0.04799252
0.044322534
0.040716041
0.037226969
0.03391671
0.030844214
0.028052255
0.0255438
0.023240957
0.021044683
0.018912191
0.016846761
0.014868995
0.013006265
0.011279254
0.0097020375
0.0082934385
0.007076198
0.0060757231
0.005311614
0.0047989472
0.0045408527
0.0044551938
0.004419323
0.0043917394
0.0043669722
0.004344393
0.0043237606
0.0043048914
0.0042876177
0.0042717609
0.0042571845
0.0042438084
0.0042315867
0.0042204294
0.0042101854
0.0042007155
0.0041919754
0.0041839592
0.0041766106
0.0041697851
0.004163391
0.0041574713
0.0041519825
0.0041467979
0.0041418816
0.0041371932
0.0041327174
0.0041284418
0.0041243105
0.0041203719
0.004116656
0.0041131245
0.0041097974
0.0041067398
0.0041040067
0.004101676
0.0040997348
0.0040980403
0.0040964701
0.004094841
0.0040931686
0.004091299
0.0040894726
0.0040872325
0.0040844295
0.0040814301
0.0040780825
0.0040747714
0.0040689601
0.0040710508
0.085707959
0.086819488
0.087882619
0.088891832
0.089841706
0.090726687
0.091540982
0.092278152
0.092931842
0.093495384
0.09396154
0.094322936
0.09457162
0.094699886
0.094699102
0.094560965
0.09427714
0.093838705
0.093237408
0.092465106
0.091514491
0.090378274
0.089050116
0.087524931
0.085798819
0.083869463
0.081735893
0.07939882
0.076861115
0.074127863
0.071205871
0.068105251
0.064842313
0.061440747
0.057929236
0.054338232
0.05069876
0.047046164
0.043423279
0.039878187
0.036465381
0.033244947
0.030270247
0.027575062
0.025140797
0.022875415
0.020695772
0.018575734
0.016524864
0.01456567
0.012725381
0.011022796
0.0094722651
0.0080931086
0.0069086721
0.0059438198
0.0052170829
0.0047429923
0.0045181589
0.0044456768
0.0044121974
0.0043853043
0.0043610258
0.004338875
0.0043186276
0.0043001071
0.0042831489
0.0042675785
0.0042532641
0.0042401297
0.004228132
0.0042171814
0.0042071272
0.0041978311
0.0041892511
0.0041813828
0.0041741707
0.0041674703
0.0041611918
0.0041553822
0.0041499975
0.0041449093
0.0041400841
0.0041354814
0.0041310864
0.0041268876
0.0041228283
0.0041189585
0.0041153099
0.0041118423
0.0041085764
0.0041055778
0.0041029
0.0041006182
0.0040987176
0.0040970566
0.0040955137
0.004093911
0.0040922697
0.0040904341
0.004088646
0.0040864341
0.0040836539
0.0040806798
0.0040773487
0.0040740438
0.0040682434
0.0040702444
0.087462868
0.088478309
0.08944557
0.090359074
0.09121327
0.092002425
0.092720486
0.093361186
0.093917982
0.094383901
0.094751557
0.095013467
0.095162094
0.095189704
0.095087634
0.094847883
0.094462252
0.093922224
0.093220037
0.092348004
0.091299339
0.090067175
0.088645902
0.08703124
0.085219985
0.083210389
0.08100199
0.078596179
0.075996513
0.073208689
0.070240115
0.067102224
0.063813513
0.060399364
0.056888763
0.053311315
0.049697427
0.046083716
0.042514026
0.039036616
0.035706411
0.032580676
0.029706352
0.027105338
0.024735242
0.02249974
0.02033484
0.0182279
0.016192942
0.014253959
0.012437585
0.010760782
0.0092384737
0.0078904261
0.006740578
0.0058129942
0.0051251915
0.0046909928
0.0044981047
0.0044366022
0.0044050512
0.0043788063
0.0043550163
0.0043332972
0.004313438
0.0042952693
0.0042786297
0.0042633484
0.0042492988
0.0042364086
0.0042246375
0.0042138959
0.0042040333
0.0041949127
0.004186494
0.0041787748
0.0041717005
0.0041651263
0.0041589645
0.0041532658
0.0041479861
0.004142995
0.0041382616
0.0041337451
0.0041294315
0.0041253103
0.0041213234
0.0041175233
0.0041139429
0.0041105402
0.0041073365
0.004104398
0.0041017765
0.0040995443
0.0040976848
0.0040960578
0.0040945426
0.0040929667
0.0040913569
0.004089556
0.0040878065
0.0040856231
0.0040828662
0.0040799178
0.0040766038
0.0040733054
0.0040675174
0.0040694264
0.08919453
0.090111206
0.090979821
0.091794599
0.092550012
0.093240192
0.093858992
0.094399945
0.094856336
0.095221203
0.095487407
0.095647294
0.095693162
0.095617409
0.095411674
0.09506822
0.094578928
0.093935927
0.093131884
0.092159496
0.091012507
0.08968456
0.08817087
0.086467875
0.084572938
0.082484833
0.080203654
0.077731487
0.07507262
0.072233289
0.069221644
0.066050895
0.062741811
0.059320917
0.055816933
0.05225831
0.048675575
0.045107014
0.041596921
0.03819386
0.034952472
0.031925695
0.029153179
0.026640777
0.024323909
0.022112353
0.019961289
0.017868435
0.01585092
0.013933905
0.012142944
0.01049338
0.0090009363
0.0076857946
0.0065723918
0.0056837791
0.0050365213
0.0046433635
0.0044804277
0.0044278542
0.0043978722
0.0043722451
0.0043489443
0.0043276599
0.0043081922
0.0042903785
0.0042740603
0.004259071
0.0042452889
0.0042326457
0.0042211036
0.0042105732
0.004200904
0.0041919603
0.0041837043
0.0041761355
0.0041692
0.0041627531
0.0041567091
0.0041511223
0.0041459483
0.004141055
0.0041364139
0.0041319843
0.0041277526
0.0041237096
0.0041197959
0.0041160661
0.0041125548
0.0041092182
0.0041060776
0.0041032003
0.004100636
0.0040984541
0.0040966364
0.0040950437
0.0040935565
0.0040920079
0.0040904303
0.0040886644
0.0040869541
0.0040847993
0.0040820662
0.004079144
0.0040758477
0.0040725565
0.0040667822
0.0040685972
0.090890663
0.091706056
0.092473505
0.093186985
0.093840801
0.09442911
0.094945675
0.095383916
0.095737068
0.095998119
0.096159879
0.096214921
0.096155654
0.095974423
0.095663241
0.095214289
0.094619844
0.093872996
0.092966548
0.091893582
0.090648462
0.089225436
0.087620535
0.085830759
0.083853954
0.081689459
0.079337936
0.07680223
0.074087354
0.071200004
0.068149428
0.064951044
0.061627609
0.05820616
0.054714588
0.051180328
0.047634919
0.044118189
0.040674444
0.037352684
0.034205917
0.031281601
0.02861053
0.026178037
0.023903809
0.021711993
0.019574655
0.017497154
0.015498792
0.013605595
0.011841571
0.010220823
0.0087599987
0.0074796796
0.0064046578
0.0055567531
0.0049516665
0.004600403
0.0044648237
0.004419337
0.0043906513
0.0043656206
0.0043428103
0.0043219639
0.0043028908
0.0042854351
0.0042694412
0.0042547466
0.0042412347
0.0042288411
0.0042175304
0.0042072134
0.0041977392
0.0041889739
0.0041808821
0.0041734649
0.0041666694
0.0041603508
0.0041544255
0.0041489514
0.004143884
0.0041390892
0.004134541
0.0041301988
0.0041260497
0.0041220853
0.0041182454
0.0041145868
0.0041111456
0.0041078759
0.0041047996
0.0041019845
0.0040994784
0.0040973477
0.0040955721
0.0040940141
0.0040925553
0.0040910345
0.0040894897
0.0040877594
0.0040860887
0.0040839628
0.0040812538
0.0040783584
0.0040750804
0.0040717968
0.0040660381
0.004067757
0.092538101
0.093250066
0.093914019
0.094523848
0.095073646
0.095557475
0.095969145
0.096302042
0.096549362
0.096704123
0.096759184
0.096707136
0.096540494
0.096251721
0.095833327
0.095277796
0.094577668
0.093726539
0.092717476
0.091544219
0.09020171
0.088684875
0.086990452
0.085115812
0.083059353
0.080821
0.078402009
0.075806068
0.073038803
0.07010745
0.067022891
0.063802899
0.060471648
0.057056051
0.053582776
0.050078878
0.046577586
0.043119697
0.03974946
0.036515986
0.033468977
0.030649645
0.028076973
0.025713105
0.023472384
0.02129768
0.019174593
0.01711394
0.015136622
0.013269167
0.011533647
0.0099434318
0.0085160534
0.0072726065
0.0062379432
0.0054325361
0.0048712892
0.0045623058
0.0044509554
0.0044109737
0.0043833819
0.004358933
0.0043366151
0.0043162098
0.0042975342
0.0042804395
0.0042647728
0.0042503755
0.0042371367
0.0042249952
0.0042139184
0.0042038169
0.0041945394
0.0041859538
0.0041780274
0.0041707631
0.0041641086
0.0041579194
0.0041521137
0.0041467532
0.0041417932
0.0041370976
0.0041326427
0.0041283885
0.0041243225
0.0041204374
0.004116672
0.0041130852
0.0041097151
0.0041065134
0.0041035024
0.0041007505
0.0040983037
0.0040962247
0.0040944919
0.004092969
0.004091539
0.0040900465
0.004088535
0.0040868408
0.00408521
0.0040831133
0.0040804288
0.0040775608
0.0040743018
0.0040710264
0.0040652851
0.0040669061
0.094122833
0.09472952
0.095287998
0.095792024
0.096235658
0.096612852
0.096917349
0.097142645
0.09728194
0.097328314
0.097274655
0.097113644
0.096837974
0.096440337
0.095913521
0.095250467
0.094444483
0.093489111
0.092378021
0.091105574
0.089666882
0.08805805
0.086276207
0.08431901
0.082185559
0.079876319
0.077393255
0.074740874
0.07192531
0.068954678
0.065842005
0.06260714
0.059274988
0.055871747
0.052422878
0.048955972
0.045506109
0.042114397
0.038825207
0.03568666
0.032743703
0.030030426
0.027549594
0.025241825
0.023027588
0.020868676
0.018760862
0.016718768
0.014764546
0.012924818
0.011219402
0.0096615759
0.0082695846
0.0070651724
0.0060728857
0.0053117984
0.0047960443
0.0045290785
0.0044384821
0.0044027056
0.0043760593
0.0043521826
0.0043303594
0.0043103982
0.0042921231
0.0042753924
0.0042600555
0.0042459583
0.0042329951
0.0042211084
0.0042102679
0.0042003838
0.0041913046
0.0041829001
0.0041751405
0.0041680302
0.0041615179
0.004155459
0.0041497738
0.0041445278
0.004139676
0.00413508
0.0041307191
0.0041265534
0.004122571
0.0041187657
0.0041150753
0.0041115612
0.0041082631
0.0041051304
0.0041021857
0.0040994982
0.0040971116
0.0040950853
0.0040933956
0.0040919083
0.0040905074
0.0040890438
0.0040875661
0.0040859086
0.0040843181
0.0040822507
0.0040795911
0.0040767511
0.0040735119
0.0040702453
0.0040645235
0.0040660446
0.095629935
0.096129866
0.096581217
0.096977683
0.097313344
0.097582076
0.097777581
0.09789344
0.097922961
0.097859248
0.097695241
0.097423824
0.097037936
0.096530583
0.095894959
0.095124449
0.094212703
0.093153587
0.09194154
0.090571369
0.089038693
0.087340315
0.085473476
0.083436467
0.081229154
0.078852514
0.076309333
0.073604791
0.070745618
0.067741349
0.064607323
0.061364886
0.058038969
0.05465467
0.051236758
0.047814159
0.044423436
0.041105634
0.037905172
0.034867472
0.032031861
0.029423398
0.027024105
0.024760389
0.022567856
0.020424444
0.018333308
0.016311676
0.014382777
0.012572772
0.010899169
0.0093757007
0.0080211709
0.0068580443
0.005910171
0.0051952465
0.0047265694
0.0045005148
0.0044270948
0.0043944887
0.0043686803
0.0043453703
0.004324044
0.0043045299
0.0042866582
0.0042702943
0.00425529
0.0042414955
0.0042288107
0.0042171812
0.0042065793
0.0041969146
0.0041880351
0.004179813
0.0041722214
0.0041652664
0.0041588973
0.0041529698
0.0041474059
0.0041422752
0.0041375322
0.0041330364
0.00412877
0.0041246933
0.0041207951
0.0041170702
0.0041134553
0.0041100147
0.0041067895
0.0041037268
0.0041008496
0.0040982276
0.0040959022
0.0040939291
0.0040922832
0.0040908317
0.0040894605
0.0040880262
0.004086583
0.0040849627
0.0040834128
0.0040813749
0.0040787407
0.0040759292
0.0040727107
0.0040694534
0.0040637533
0.0040651727
0.097043584
0.097435727
0.097778721
0.098066275
0.098292546
0.098451423
0.098536571
0.098541623
0.098460022
0.098284928
0.098009466
0.097626776
0.097130118
0.096512901
0.0957687
0.0948913
0.093874704
0.09271324
0.091401808
0.089935934
0.088311955
0.086526671
0.0845779
0.082464613
0.080187008
0.077747016
0.075148224
0.072396356
0.069499083
0.06646783
0.063319971
0.060077655
0.056765195
0.053406657
0.050026887
0.046656525
0.043332993
0.040097251
0.036992895
0.03406097
0.031334666
0.028826327
0.02649539
0.024265652
0.022092038
0.019964625
0.017891903
0.015892829
0.01399163
0.012213325
0.010573349
0.0090863212
0.0077714788
0.0066519643
0.0057505669
0.00508367
0.0046635066
0.0044762196
0.0044164952
0.0043862883
0.0043612432
0.0043384969
0.0043176699
0.0042986059
0.0042811403
0.0042651459
0.0042504769
0.0042369876
0.0042245839
0.0042132142
0.004202853
0.0041934095
0.0041847313
0.0041766928
0.0041692705
0.0041624718
0.0041562471
0.0041504518
0.00414501
0.0041399955
0.0041353619
0.004130967
0.0041267955
0.0041228081
0.0041189946
0.0041153506
0.0041118119
0.0041084455
0.0041052942
0.0041023026
0.0040994939
0.0040969384
0.0040946753
0.0040927563
0.0040911545
0.0040897392
0.004088398
0.0040869936
0.0040855855
0.0040840029
0.004082494
0.0040804858
0.0040778775
0.0040750951
0.004071898
0.0040686509
0.0040629748
0.0040642908
0.098347307
0.098630966
0.09886489
0.099042675
0.099158609
0.099206639
0.099180484
0.09907384
0.098880234
0.098593025
0.098205617
0.097711493
0.097104289
0.096377781
0.09552588
0.094542797
0.093422933
0.092161153
0.090752884
0.089194136
0.087481611
0.085612613
0.083585485
0.08139969
0.079056219
0.076557709
0.073908362
0.071114712
0.06818586
0.065135223
0.061981627
0.058747305
0.055455633
0.052130133
0.048796404
0.045486682
0.042238791
0.039093449
0.03609176
0.03326939
0.03065227
0.028235029
0.02595829
0.023755225
0.021599317
0.01948901
0.017436686
0.015462509
0.013591439
0.011846837
0.010242448
0.0087940439
0.0075212758
0.0064477681
0.0055949306
0.0049779307
0.0046073952
0.0044556266
0.0044064431
0.0043780796
0.0043537472
0.0043315634
0.0043112382
0.0042926269
0.0042755701
0.0042599479
0.0042456168
0.0042324353
0.0042203153
0.004209208
0.0041990895
0.004189869
0.0041813933
0.0041735398
0.0041662879
0.0041596467
0.0041535674
0.0041479051
0.0041425864
0.0041376888
0.0041331652
0.0041288716
0.0041247954
0.004120898
0.0041171696
0.0041136069
0.0041101449
0.0041068535
0.0041037771
0.0041008575
0.0040981184
0.0040956307
0.0040934308
0.0040915666
0.0040900095
0.0040886307
0.00408732
0.0040859461
0.0040845736
0.0040830293
0.0040815615
0.0040795832
0.0040770012
0.0040742487
0.004071074
0.0040678377
0.0040621883
0.0040633997
0.099524206
0.099698938
0.099823498
0.099891205
0.099896309
0.099832963
0.09969503
0.099476302
0.099170418
0.098771069
0.098272015
0.09766711
0.096950336
0.096115788
0.095157798
0.094070985
0.092850225
0.09149093
0.089988915
0.088340596
0.086543054
0.084594043
0.082492486
0.08023876
0.077834435
0.075282603
0.072588566
0.069759885
0.066807051
0.063745323
0.06059444
0.057376055
0.054112808
0.050828256
0.047549108
0.044308839
0.041145449
0.03809851
0.035204848
0.032494431
0.029983022
0.027643707
0.025408296
0.023227413
0.021089138
0.01899753
0.016967807
0.015021072
0.013182676
0.011473737
0.0099071028
0.0084995816
0.0072714189
0.0062463389
0.0054441606
0.0048789666
0.0045585828
0.0044380985
0.0043967468
0.0043698455
0.0043461923
0.004324571
0.0043047499
0.0042865942
0.0042699486
0.0042547012
0.0042407107
0.0042278394
0.0042160057
0.0042051631
0.0041952894
0.0041862935
0.0041780217
0.0041703542
0.0041632739
0.0041567915
0.0041508583
0.00414533
0.0041401351
0.004135355
0.004130942
0.0041267503
0.0041227699
0.0041189627
0.00411532
0.0041118391
0.0041084543
0.0041052387
0.0041022381
0.0040993916
0.0040967233
0.0040943044
0.0040921687
0.00409036
0.004088848
0.0040875061
0.0040862263
0.0040848835
0.0040835473
0.0040820417
0.0040806154
0.0040786671
0.0040761119
0.0040733897
0.0040702384
0.0040670139
0.0040613941
0.0040624996
0.10055684
0.10062267
0.10063785
0.10059555
0.10048993
0.10031523
0.10006561
0.099735042
0.099317421
0.098806776
0.098197224
0.097482972
0.096658331
0.095717782
0.094656117
0.093468368
0.092149898
0.090696514
0.089104354
0.08737024
0.085491691
0.083467015
0.081295948
0.078979489
0.076519677
0.073920682
0.071188758
0.068332579
0.065364394
0.0623006
0.059160993
0.055966656
0.052740008
0.049504981
0.046289464
0.043127919
0.040058023
0.03711649
0.034334835
0.03173673
0.029322848
0.027045913
0.024841925
0.022681068
0.020561172
0.018490248
0.016485533
0.014568984
0.012765818
0.011094556
0.0095679658
0.0082037481
0.0070228604
0.006048635
0.0052992403
0.0047877058
0.0045171048
0.004422969
0.0043872855
0.0043615746
0.0043385791
0.0043175211
0.0042982063
0.0042805087
0.0042642768
0.0042494067
0.0042357594
0.0042232007
0.0042116558
0.0042010803
0.0041914531
0.0041826834
0.0041746168
0.0041671364
0.0041602288
0.0041539062
0.0041481202
0.0041427267
0.0041376564
0.0041329944
0.0041286925
0.0041246031
0.0041207188
0.0041170023
0.0041134457
0.004110047
0.00410674
0.004103601
0.004100677
0.0040979047
0.0040953083
0.0040929593
0.0040908889
0.0040891364
0.00408767
0.0040863653
0.0040851169
0.0040838058
0.0040825064
0.0040810401
0.0040796555
0.0040777373
0.0040752095
0.0040725184
0.0040693914
0.0040661797
0.0040605924
0.0040615911
0.10142718
0.1013847
0.10129088
0.10113905
0.10092337
0.10063808
0.10027766
0.099836382
0.099308438
0.098688192
0.097970124
0.097148747
0.09621876
0.095175158
0.094013106
0.092728023
0.091315666
0.089772128
0.088093925
0.086278381
0.084323451
0.082228237
0.079993265
0.077619938
0.075111088
0.072471858
0.069709768
0.066834914
0.063860553
0.060803743
0.057684186
0.054522651
0.051341444
0.048165048
0.04502271
0.041949562
0.038981618
0.036151003
0.033483776
0.030994948
0.028665323
0.026435672
0.024256759
0.022115451
0.020015285
0.017967356
0.015990271
0.014106845
0.012341419
0.010709927
0.0092258767
0.0079075409
0.0067766714
0.005855714
0.0051611921
0.00470503
0.0044826144
0.0044096166
0.0043779657
0.0043532597
0.0043309086
0.0043104151
0.0042916087
0.0042743716
0.0042585559
0.0042440653
0.0042307638
0.0042185201
0.0042072665
0.0041969604
0.0041875815
0.0041790393
0.004171179
0.0041638867
0.0041571532
0.0041509913
0.0041453532
0.0041400954
0.0041351503
0.0041306071
0.0041264168
0.00412243
0.0041186422
0.0041150167
0.0041115467
0.0041082305
0.004105002
0.0041019404
0.0040990939
0.0040963968
0.0040938734
0.0040915955
0.0040895913
0.0040878957
0.0040864753
0.0040852081
0.0040839917
0.0040827128
0.0040814509
0.0040800245
0.0040786817
0.0040767937
0.0040742938
0.0040716344
0.0040685328
0.0040653352
0.0040597835
0.0040606751
0.10211675
0.10196706
0.10176536
0.10150506
0.10118064
0.10078647
0.10031709
0.099767113
0.099131158
0.098403866
0.097580073
0.096654688
0.095622885
0.094480052
0.093221678
0.091843511
0.090341576
0.088712338
0.086952821
0.08506082
0.083034961
0.080875223
0.078582623
0.076159065
0.073608455
0.070937197
0.068153954
0.065269775
0.062298825
0.059258349
0.056167783
0.053048246
0.049922055
0.046814074
0.043754983
0.040779849
0.037920976
0.035205102
0.032652515
0.030264824
0.028002727
0.025808259
0.023651271
0.02153012
0.019451533
0.017429176
0.015482585
0.01363534
0.011910091
0.010320642
0.0088817102
0.0076120293
0.0065339772
0.005668717
0.0050312164
0.0046318604
0.0044543718
0.0043974917
0.0043687185
0.0043448967
0.0043231823
0.0043032547
0.0042849586
0.0042681843
0.0042527869
0.0042386783
0.0042257248
0.0042137984
0.0042028387
0.0041928041
0.0041836751
0.0041753617
0.0041677087
0.0041606057
0.0041540472
0.004148047
0.0041425578
0.0041374364
0.0041326171
0.0041281932
0.004124115