/*--------------------------------*- C++ -*----------------------------------*\
| =========                 |                                                 |
| \\      /  F ield         | OpenFOAM: The Open Source CFD Toolbox           |
|  \\    /   O peration     | Version:  2406                                  |
|   \\  /    A nd           | Website:  www.openfoam.com                      |
|    \\/     M anipulation  |                                                 |
\*---------------------------------------------------------------------------*/
FoamFile
{
    version     2.0;
    format      ascii;
    arch        "LSB;label=32;scalar=64";
    class       volScalarField;
    location    "0.008";
    object      p;
}
// * * * * * * * * * * * * * * * * * * * * * * * * * * * * * * * * * * * * * //

dimensions      [1 -1 -2 0 0 0 0];

internalField   nonuniform List<scalar> 
23203
(
100909.06
100889.73
100872.69
100857.58
100844.33
100831.9
100821.08
100812.69
100805.06
100798.19
100792.14
100786.97
100782.68
100779.26
100776.53
100774.42
100772.9
100772.01
100771.8
100772.3
100773.46
100775.2
100777.47
100780.36
100783.95
100788.15
100792.9
100798.28
100804.47
100811.44
100819.13
100827.51
100836.57
100846.28
100856.6
100867.62
100879.3
100891.59
100904.43
100917.8
100931.64
100945.9
100960.55
100975.53
100990.79
101006.27
101021.94
101037.72
101053.57
101069.37
101085.28
101100.43
101115.58
101130.71
101145.45
101159.36
101171.77
101184.64
101194.95
101196.81
101204.73
101210.96
101215.96
101220.69
101225.23
101229.61
101233.86
101237.99
101242.01
101245.92
101249.73
101253.43
101257.03
101260.52
101263.91
101267.19
101270.36
101273.4
101276.32
101279.1
101281.74
101284.24
101286.61
101288.87
101291
101293.02
101294.93
101296.7
101298.34
101299.84
101301.21
101302.44
101303.54
101304.53
101305.39
101306.14
101306.78
101307.32
101307.78
101308.15
101308.44
101308.67
101308.82
101308.95
101309.03
101309.13
101309.16
101309.27
100971.58
100949.12
100929.33
100911.85
100896.5
100882.82
100871.14
100861.45
100853.27
100846.21
100840.1
100835.01
100831.01
100828.09
100826.16
100825.04
100824.53
100824.61
100825.35
100826.71
100828.62
100831.05
100833.95
100837.15
100840.54
100844.19
100848.25
100852.83
100858.13
100864.18
100870.87
100878.14
100885.96
100894.32
100903.19
100912.68
100922.77
100933.38
100944.43
100955.87
100967.67
100979.78
100992.15
101004.75
101017.54
101030.47
101043.51
101056.63
101069.79
101082.91
101096.16
101108.95
101121.65
101134.71
101147.79
101160.45
101172.2
101185.38
101195.6
101198.56
101207.69
101213.42
101218.25
101222.86
101227.29
101231.58
101235.75
101239.8
101243.74
101247.58
101251.31
101254.95
101258.48
101261.92
101265.25
101268.48
101271.6
101274.6
101277.46
101280.2
101282.8
101285.26
101287.6
101289.81
101291.92
101293.91
101295.79
101297.53
101299.15
101300.63
101301.97
101303.18
101304.27
101305.24
101306.08
101306.82
101307.45
101307.98
101308.42
101308.78
101309.06
101309.28
101309.43
101309.56
101309.63
101309.73
101309.76
101309.87
101012.5
100987.75
100965.72
100946.04
100928.52
100912.92
100899.19
100887.33
100877.01
100867.85
100859.82
100852.93
100847.24
100842.74
100839.31
100836.75
100834.92
100833.75
100833.2
100833.2
100833.76
100834.89
100836.43
100838.14
100839.99
100842.16
100844.88
100848.28
100852.63
100857.83
100863.82
100870.54
100877.99
100886.14
100894.97
100904.62
100915.05
100926.11
100937.74
100949.87
100962.45
100975.41
100988.69
101002.25
101016.01
101029.91
101043.9
101057.92
101071.9
101085.73
101099.51
101112.81
101125.65
101138.72
101151.68
101164.06
101175.57
101188.9
101198.1
101201.37
101210.88
101216.03
101220.66
101225.14
101229.46
101233.65
101237.72
101241.68
101245.54
101249.3
101252.96
101256.53
101260
101263.37
101266.65
101269.82
101272.89
101275.83
101278.65
101281.34
101283.89
101286.31
101288.61
101290.8
101292.87
101294.83
101296.67
101298.39
101299.98
101301.43
101302.75
101303.95
101305.01
101305.96
101306.79
101307.51
101308.13
101308.64
101309.07
101309.42
101309.7
101309.91
101310.05
101310.17
101310.24
101310.34
101310.37
101310.48
101053.42
101026.57
101002.45
100980.71
100961.16
100943.62
100928.01
100914.24
100902.07
100891.28
100881.78
100873.54
100866.56
100860.94
100856.45
100852.92
100850.24
100848.32
100847.14
100846.65
100846.83
100847.64
100848.9
100850.34
100851.95
100853.88
100856.4
100859.62
100863.68
100868.57
100874.23
100880.63
100887.74
100895.55
100904.02
100913.34
100923.39
100934.07
100945.29
100957
100969.15
100981.68
100994.54
101007.69
101021.07
101034.63
101048.33
101062.11
101075.91
101089.64
101103.36
101116.73
101129.59
101142.75
101155.8
101168.18
101179.73
101193.2
101200.83
101204.62
101213.95
101218.66
101223.12
101227.46
101231.67
101235.75
101239.73
101243.6
101247.37
101251.05
101254.64
101258.14
101261.55
101264.86
101268.08
101271.19
101274.2
101277.1
101279.86
101282.5
101285.01
101287.39
101289.65
101291.8
101293.83
101295.76
101297.58
101299.27
101300.83
101302.26
101303.55
101304.72
101305.77
101306.7
101307.52
101308.22
101308.82
101309.32
101309.74
101310.08
101310.34
101310.54
101310.68
101310.8
101310.86
101310.96
101310.98
101311.09
101094.03
101065.25
101039.21
101015.57
100994.17
100974.85
100957.5
100942.01
100928.19
100915.88
100904.97
100895.4
100887.14
100880.16
100874.34
100869.55
100865.69
100862.69
100860.48
100859.02
100858.27
100858.21
100858.77
100859.64
100860.75
100862.28
100864.49
100867.46
100871.24
100875.85
100881.26
100887.44
100894.37
100902.03
100910.41
100919.58
100929.46
100940
100951.1
100962.72
100974.78
100987.24
101000.04
101013.11
101026.41
101039.88
101053.46
101067.11
101080.77
101094.34
101107.91
101121.15
101133.86
101146.95
101159.95
101172.25
101183.9
101197.39
101203.36
101208.13
101216.95
101221.34
101225.63
101229.83
101233.92
101237.9
101241.78
101245.56
101249.25
101252.85
101256.36
101259.79
101263.13
101266.38
101269.53
101272.59
101275.54
101278.38
101281.1
101283.69
101286.15
101288.49
101290.71
101292.82
101294.82
101296.71
101298.5
101300.16
101301.69
101303.09
101304.37
101305.52
101306.54
101307.46
101308.25
101308.94
101309.52
101310.02
101310.42
101310.75
101311
101311.19
101311.33
101311.44
101311.5
101311.59
101311.61
101311.72
101132.82
101102.32
101074.55
101049.18
101026.07
101005.08
100986.1
100968.98
100953.6
100939.8
100927.49
100916.59
100907.04
100898.79
100891.75
100885.81
100880.87
100876.87
100873.73
100871.41
100869.85
100869.02
100868.81
100869.09
100869.81
100871.06
100872.99
100875.67
100879.16
100883.48
100888.61
100894.54
100901.24
100908.69
100916.89
100925.86
100935.55
100945.9
100956.84
100968.3
100980.23
100992.56
101005.25
101018.23
101031.44
101044.83
101058.34
101071.93
101085.51
101099.02
101112.52
101125.67
101138.28
101151.31
101164.21
101176.39
101188.17
101201.45
101205.83
101211.85
101219.89
101224.05
101228.18
101232.25
101236.22
101240.09
101243.87
101247.56
101251.16
101254.68
101258.12
101261.47
101264.74
101267.93
101271.02
101274.02
101276.91
101279.7
101282.36
101284.9
101287.31
101289.61
101291.79
101293.86
101295.82
101297.69
101299.44
101301.07
101302.57
101303.95
101305.2
101306.32
101307.33
101308.22
101309
101309.67
101310.24
101310.72
101311.11
101311.43
101311.67
101311.86
101311.98
101312.09
101312.14
101312.23
101312.25
101312.36
101169.85
101137.85
101108.55
101081.64
101056.98
101034.46
101013.96
100995.36
100978.52
100963.34
100949.7
100937.52
100926.75
100917.31
100909.13
100902.1
100896.14
100891.18
100887.15
100884
100881.67
100880.11
100879.25
100878.98
100879.27
100880.17
100881.78
100884.17
100887.38
100891.42
100896.3
100901.98
100908.46
100915.71
100923.73
100932.51
100942.02
100952.2
100962.97
100974.27
100986.06
100998.25
101010.81
101023.66
101036.75
101050.03
101063.44
101076.92
101090.41
101103.84
101117.25
101130.28
101142.82
101155.82
101168.62
101180.66
101192.62
101205.36
101208.37
101215.7
101222.81
101226.8
101230.78
101234.72
101238.57
101242.33
101246.01
101249.6
101253.12
101256.55
101259.91
101263.19
101266.39
101269.51
101272.54
101275.47
101278.31
101281.04
101283.65
101286.13
101288.5
101290.75
101292.89
101294.92
101296.85
101298.68
101300.4
101302
101303.47
101304.82
101306.04
101307.15
101308.13
101309.01
101309.77
101310.42
101310.98
101311.44
101311.82
101312.12
101312.35
101312.53
101312.65
101312.75
101312.8
101312.89
101312.91
101313.02
101205.07
101171.79
101141.15
101112.87
101086.84
101062.93
101041.05
101021.08
101002.91
100986.43
100971.55
100958.17
100946.23
100935.67
100926.39
100918.32
100911.38
100905.49
100900.59
100896.63
100893.55
100891.29
100889.79
100888.98
100888.83
100889.37
100890.66
100892.75
100895.68
100899.45
100904.07
100909.52
100915.78
100922.84
100930.68
100939.28
100948.61
100958.61
100969.23
100980.38
100992.03
101004.09
101016.53
101029.26
101042.25
101055.42
101068.73
101082.11
101095.5
101108.83
101122.16
101135.03
101147.51
101160.48
101173.16
101185.06
101197.24
101209.11
101211.11
101219.59
101225.75
101229.59
101233.43
101237.23
101240.96
101244.62
101248.19
101251.69
101255.11
101258.46
101261.74
101264.94
101268.07
101271.12
101274.08
101276.96
101279.73
101282.4
101284.96
101287.39
101289.71
101291.91
101294.01
101296
101297.89
101299.69
101301.37
101302.94
101304.39
101305.71
101306.91
101307.99
101308.95
101309.81
101310.55
101311.19
101311.72
101312.17
101312.54
101312.83
101313.05
101313.22
101313.33
101313.42
101313.47
101313.56
101313.57
101313.68
101238.37
101204.01
101172.24
101142.77
101115.52
101090.38
101067.26
101046.05
101026.66
101008.98
100992.93
100978.43
100965.4
100953.77
100943.47
100934.42
100926.54
100919.77
100914.04
100909.31
100905.5
100902.58
100900.48
100899.15
100898.57
100898.73
100899.7
100901.49
100904.13
100907.65
100912.02
100917.24
100923.29
100930.15
100937.81
100946.23
100955.39
100965.22
100975.67
100986.68
100998.18
101010.11
101022.42
101035.04
101047.91
101060.98
101074.18
101087.45
101100.74
101113.98
101127.23
101139.91
101152.35
101165.28
101177.83
101189.59
101201.98
101212.65
101214.13
101223.44
101228.72
101232.42
101236.13
101239.8
101243.41
101246.94
101250.41
101253.81
101257.14
101260.41
101263.6
101266.73
101269.78
101272.76
101275.66
101278.47
101281.19
101283.79
101286.29
101288.67
101290.94
101293.1
101295.15
101297.1
101298.96
101300.72
101302.37
101303.9
101305.32
101306.61
101307.78
101308.84
101309.79
101310.62
101311.35
101311.96
101312.48
101312.92
101313.27
101313.55
101313.76
101313.92
101314.02
101314.11
101314.16
101314.23
101314.25
101314.36
101269.66
101234.43
101201.71
101171.24
101142.93
101116.71
101092.49
101070.18
101049.68
101030.91
101013.79
100998.25
100984.2
100971.58
100960.32
100950.34
100941.59
100933.99
100927.48
100922.01
100917.52
100913.97
100911.3
100909.47
100908.45
100908.24
100908.88
100910.37
100912.74
100916
100920.13
100925.13
100930.97
100937.64
100945.11
100953.36
100962.34
100972.01
100982.31
100993.16
101004.52
101016.32
101028.5
101041
101053.76
101066.71
101079.8
101092.97
101106.15
101119.3
101132.45
101144.92
101157.36
101170.24
101182.61
101194.27
101206.82
101215.97
101217.53
101227.18
101231.75
101235.3
101238.88
101242.41
101245.9
101249.32
101252.68
101255.98
101259.22
101262.39
101265.5
101268.55
101271.53
101274.44
101277.27
101280.01
101282.67
101285.21
101287.65
101289.98
101292.2
101294.31
101296.32
101298.23
101300.05
101301.77
101303.39
101304.89
101306.27
101307.53
101308.68
101309.71
101310.64
101311.45
101312.16
101312.76
101313.26
101313.68
101314.01
101314.28
101314.48
101314.63
101314.73
101314.81
101314.85
101314.93
101314.94
101315.05
101298.89
101262.99
101229.5
101198.2
101169.01
101141.86
101116.68
101093.39
101071.91
101052.16
101034.07
101017.57
101002.58
100989.05
100976.9
100966.07
100956.49
100948.11
100940.86
100934.7
100929.57
100925.42
100922.21
100919.9
100918.46
100917.89
100918.2
100919.4
100921.5
100924.51
100928.41
100933.18
100938.83
100945.31
100952.6
100960.67
100969.49
100978.99
100989.13
100999.84
101011.06
101022.73
101034.78
101047.15
101059.79
101072.63
101085.61
101098.67
101111.74
101124.78
101137.81
101150.11
101162.54
101175.34
101187.52
101199.1
101211.71
101219.11
101221.37
101230.82
101234.85
101238.24
101241.67
101245.08
101248.43
101251.74
101254.99
101258.19
101261.33
101264.42
101267.45
101270.42
101273.32
101276.15
101278.91
101281.59
101284.17
101286.66
101289.04
101291.31
101293.48
101295.54
101297.51
101299.38
101301.16
101302.84
101304.42
101305.89
101307.24
101308.47
101309.59
101310.6
101311.5
101312.29
101312.98
101313.56
101314.05
101314.45
101314.77
101315.03
101315.22
101315.36
101315.45
101315.52
101315.56
101315.63
101315.64
101315.75
101326.01
101289.62
101255.56
101223.6
101193.69
101165.76
101139.76
101115.63
101093.29
101072.67
101053.71
101036.34
101020.51
101006.14
100993.17
100981.55
100971.22
100962.11
100954.17
100947.36
100941.63
100936.92
100933.2
100930.43
100928.59
100927.67
100927.66
100928.58
100930.41
100933.17
100936.85
100941.41
100946.86
100953.15
100960.27
100968.17
100976.82
100986.17
100996.15
101006.72
101017.79
101029.32
101041.25
101053.49
101066.01
101078.73
101091.6
101104.54
101117.5
101130.44
101143.32
101155.46
101167.89
101180.56
101192.55
101204.11
101216.57
101222.12
101225.63
101234.36
101238
101241.23
101244.52
101247.79
101251.02
101254.21
101257.35
101260.44
101263.49
101266.49
101269.43
101272.31
101275.14
101277.9
101280.59
101283.19
101285.71
101288.14
101290.46
101292.67
101294.78
101296.8
101298.72
101300.55
101302.29
101303.93
101305.48
101306.91
101308.23
101309.43
101310.52
101311.51
101312.38
101313.16
101313.82
101314.39
101314.85
101315.24
101315.55
101315.79
101315.97
101316.1
101316.18
101316.25
101316.28
101316.35
101316.36
101316.46
101350.99
101314.31
101279.84
101247.39
101216.9
101188.35
101161.68
101136.83
101113.75
101092.38
101072.66
101054.53
101037.93
101022.8
101009.1
100996.76
100985.73
100975.96
100967.39
100959.98
100953.68
100948.45
100944.26
100941.06
100938.83
100937.57
100937.26
100937.89
100939.48
100942
100945.45
100949.82
100955.07
100961.18
100968.13
100975.87
100984.35
100993.54
101003.38
101013.79
101024.73
101036.12
101047.91
101060.03
101072.43
101085.03
101097.77
101110.6
101123.44
101136.28
101148.98
101160.99
101173.4
101185.93
101197.71
101209.31
101221.33
101225.11
101230.19
101237.84
101241.18
101244.27
101247.42
101250.55
101253.66
101256.72
101259.75
101262.74
101265.69
101268.59
101271.45
101274.25
101277
101279.68
101282.29
101284.83
101287.28
101289.64
101291.9
101294.06
101296.11
101298.08
101299.95
101301.74
101303.44
101305.05
101306.55
101307.95
101309.24
101310.41
101311.47
101312.43
101313.28
101314.03
101314.68
101315.22
101315.67
101316.04
101316.34
101316.57
101316.73
101316.85
101316.93
101316.99
101317.02
101317.08
101317.09
101317.19
101373.83
101337.01
101302.3
101269.52
101238.62
101209.59
101182.39
101156.96
101133.27
101111.25
101090.87
101072.07
101054.8
101039.01
101024.65
101011.66
101000.01
100989.63
100980.48
100972.52
100965.71
100960
100955.36
100951.76
100949.18
100947.58
100946.98
100947.35
100948.69
100950.99
100954.23
100958.4
100963.46
100969.4
100976.18
100983.75
100992.09
101001.12
101010.8
101021.07
101031.87
101043.13
101054.78
101066.78
101079.04
101091.52
101104.14
101116.85
101129.56
101142.29
101154.8
101166.69
101179.07
101191.44
101203.02
101214.7
101225.91
101228.23
101234.88
101241.3
101244.41
101247.37
101250.37
101253.37
101256.34
101259.29
101262.21
101265.09
101267.94
101270.74
101273.51
101276.23
101278.89
101281.49
101284.03
101286.49
101288.88
101291.17
101293.37
101295.47
101297.47
101299.38
101301.21
101302.96
101304.61
101306.18
101307.65
101309.01
101310.26
101311.4
101312.44
101313.37
101314.2
101314.93
101315.55
101316.08
101316.51
101316.86
101317.14
101317.36
101317.51
101317.62
101317.69
101317.74
101317.77
101317.83
101317.83
101317.93
101394.53
101357.74
101322.94
101289.98
101258.82
101229.46
101201.85
101175.97
101151.79
101129.25
101108.32
101088.95
101071.11
101054.74
101039.79
101026.24
101014.02
101003.1
100993.43
100984.98
100977.69
100971.55
100966.5
100962.53
100959.61
100957.71
100956.83
100956.95
100958.06
100960.14
100963.18
100967.16
100972.05
100977.81
100984.43
100991.84
101000.02
101008.9
101018.44
101028.56
101039.22
101050.34
101061.86
101073.72
101085.86
101098.21
101110.71
101123.29
101135.87
101148.5
101160.77
101172.56
101184.91
101197.08
101208.48
101220.26
101230.24
101231.67
101239.54
101244.77
101247.69
101250.51
101253.37
101256.23
101259.07
101261.9
101264.7
101267.48
101270.22
101272.94
101275.61
101278.24
101280.82
101283.34
101285.8
101288.19
101290.5
101292.73
101294.86
101296.9
101298.85
101300.72
101302.5
101304.2
101305.81
101307.34
101308.77
101310.09
101311.31
101312.42
101313.42
101314.33
101315.13
101315.84
101316.44
101316.95
101317.36
101317.69
101317.96
101318.16
101318.31
101318.41
101318.46
101318.51
101318.53
101318.58
101318.59
101318.69
101413.1
101376.49
101341.76
101308.77
101277.49
101247.92
101220.05
101193.84
101169.29
101146.34
101124.96
101105.13
101086.81
101069.94
101054.5
101040.45
101027.75
101016.35
101006.22
100997.32
100989.62
100983.08
100977.67
100973.35
100970.12
100967.94
100966.8
100966.68
100967.57
100969.45
100972.3
100976.1
100980.82
100986.42
100992.87
101000.14
101008.16
101016.9
101026.29
101036.27
101046.78
101057.77
101069.15
101080.88
101092.89
101105.11
101117.48
101129.92
101142.38
101154.88
101166.89
101178.63
101190.93
101202.86
101214.11
101225.95
101234.3
101235.6
101244.05
101248.3
101251.01
101253.71
101256.43
101259.15
101261.86
101264.56
101267.25
101269.91
101272.56
101275.17
101277.75
101280.29
101282.79
101285.23
101287.61
101289.92
101292.16
101294.32
101296.39
101298.37
101300.26
101302.07
101303.8
101305.46
101307.03
101308.52
101309.91
101311.19
101312.37
101313.45
101314.43
101315.3
101316.09
101316.77
101317.35
101317.83
101318.23
101318.54
101318.79
101318.98
101319.11
101319.2
101319.25
101319.29
101319.31
101319.36
101319.36
101319.46
101429.59
101393.3
101358.77
101325.88
101294.61
101264.98
101236.96
101210.56
101185.75
101162.5
101140.79
101120.6
101101.88
101084.61
101068.76
101054.29
101041.17
101029.36
101018.83
101009.55
101001.47
100994.58
100988.84
100984.22
100980.71
100978.27
100976.89
100976.55
100977.24
100978.93
100981.6
100985.23
100989.78
100995.23
101001.53
101008.64
101016.52
101025.11
101034.35
101044.19
101054.57
101065.41
101076.66
101088.26
101100.13
101112.21
101124.45
101136.75
101149.08
101161.45
101173.17
101184.89
101197.11
101208.79
101219.93
101231.68
101238.1
101240.12
101248.39
101251.89
101254.41
101256.96
101259.53
101262.11
101264.69
101267.27
101269.84
101272.4
101274.93
101277.45
101279.93
101282.38
101284.79
101287.15
101289.45
101291.68
101293.85
101295.93
101297.94
101299.86
101301.69
101303.45
101305.14
101306.75
101308.28
101309.72
101311.07
101312.32
101313.46
101314.5
101315.45
101316.3
101317.05
101317.71
101318.27
101318.73
101319.11
101319.41
101319.64
101319.81
101319.94
101320.01
101320.06
101320.09
101320.1
101320.14
101320.14
101320.24
101444.04
101408.19
101374
101341.34
101310.21
101280.63
101252.6
101226.12
101201.16
101177.73
101155.79
101135.33
101116.32
101098.73
101082.55
101067.75
101054.28
101042.13
101031.26
101021.64
101013.25
101006.05
101000.02
100995.13
100991.36
100988.69
100987.1
100986.56
100987.06
100988.57
100991.07
100994.54
100998.94
101004.24
101010.39
101017.36
101025.09
101033.54
101042.64
101052.34
101062.58
101073.28
101084.4
101095.85
101107.59
101119.53
101131.63
101143.79
101155.98
101168.17
101179.65
101191.37
101203.45
101214.86
101225.95
101237.33
101241.72
101245.17
101252.58
101255.52
101257.86
101260.27
101262.69
101265.13
101267.58
101270.03
101272.48
101274.93
101277.35
101279.77
101282.15
101284.51
101286.83
101289.1
101291.32
101293.48
101295.57
101297.58
101299.52
101301.38
101303.16
101304.86
101306.5
101308.06
101309.54
101310.94
101312.25
101313.46
101314.57
101315.58
101316.49
101317.31
101318.04
101318.67
101319.21
101319.65
101320.01
101320.29
101320.5
101320.66
101320.77
101320.84
101320.87
101320.9
101320.9
101320.94
101320.94
101321.04
101456.51
101421.23
101387.49
101355.18
101324.31
101294.91
101266.98
101240.52
101215.54
101192.02
101169.95
101149.32
101130.11
101112.3
101095.87
101080.8
101067.06
101054.63
101043.48
101033.59
101024.93
101017.47
101011.2
101006.08
101002.09
100999.21
100997.42
100996.7
100997.03
100998.38
101000.73
101004.04
101008.3
101013.45
101019.47
101026.29
101033.89
101042.2
101051.16
101060.72
101070.82
101081.38
101092.36
101103.67
101115.27
101127.07
101139.02
101151.03
101163.09
101175.06
101186.34
101198.04
101209.93
101221.1
101232.18
101242.78
101245.35
101250.53
101256.66
101259.19
101261.38
101263.63
101265.91
101268.2
101270.52
101272.84
101275.17
101277.5
101279.82
101282.13
101284.42
101286.68
101288.91
101291.09
101293.22
101295.3
101297.31
101299.26
101301.13
101302.92
101304.64
101306.3
101307.88
101309.4
101310.83
101312.19
101313.46
101314.62
101315.69
101316.67
101317.55
101318.34
101319.05
101319.65
101320.17
101320.59
101320.92
101321.19
101321.38
101321.53
101321.63
101321.68
101321.71
101321.72
101321.72
101321.76
101321.76
101321.85
101467.08
101432.48
101399.29
101367.44
101336.95
101307.83
101280.11
101253.79
101228.88
101205.38
101183.28
101162.57
101143.25
101125.3
101108.71
101093.45
101079.51
101066.87
101055.51
101045.4
101036.52
101028.85
101022.37
101017.05
101012.87
101009.82
101007.86
101006.98
101007.15
101008.36
101010.56
101013.74
101017.86
101022.88
101028.76
101035.46
101042.92
101051.09
101059.91
101069.33
101079.29
101089.72
101100.55
101111.72
101123.18
101134.83
101146.63
101158.49
101170.41
101182.12
101193.24
101204.9
101216.57
101227.51
101238.61
101247.93
101249.26
101255.91
101260.69
101262.9
101264.95
101267.04
101269.17
101271.33
101273.51
101275.7
101277.91
101280.12
101282.33
101284.53
101286.72
101288.89
101291.02
101293.12
101295.16
101297.16
101299.09
101300.96
101302.76
101304.5
101306.16
101307.76
101309.29
101310.76
101312.15
101313.46
101314.68
101315.81
101316.84
101317.78
101318.63
101319.4
101320.07
101320.65
101321.14
101321.54
101321.85
101322.1
101322.28
101322.41
101322.49
101322.54
101322.55
101322.57
101322.56
101322.59
101322.59
101322.68
101475.84
101442.01
101409.48
101378.19
101348.17
101319.44
101292.03
101265.95
101241.21
101217.83
101195.79
101175.1
101155.75
101137.75
101121.06
101105.7
101091.63
101078.84
101067.32
101057.05
101048.01
101040.17
101033.53
101028.05
101023.72
101020.51
101018.41
101017.4
101017.44
101018.51
101020.59
101023.64
101027.63
101032.53
101038.28
101044.84
101052.17
101060.21
101068.9
101078.19
101088
101098.29
101108.98
101120.01
101131.32
101142.82
101154.46
101166.17
101177.94
101189.36
101200.35
101211.96
101223.36
101234.11
101245.16
101252.7
101253.75
101261.12
101264.73
101266.68
101268.57
101270.51
101272.49
101274.51
101276.55
101278.61
101280.7
101282.79
101284.89
101286.98
101289.07
101291.13
101293.17
101295.18
101297.14
101299.05
101300.91
101302.7
101304.43
101306.1
101307.7
101309.25
101310.73
101312.15
101313.49
101314.75
101315.93
101317.02
101318.01
101318.91
101319.73
101320.47
101321.11
101321.67
101322.13
101322.51
101322.8
101323.03
101323.19
101323.31
101323.38
101323.41
101323.42
101323.42
101323.41
101323.44
101323.43
101323.52
101482.89
101449.91
101418.13
101387.5
101358.03
101329.79
101302.78
101277.04
101252.57
101229.39
101207.5
101186.92
101167.63
101149.65
101132.95
101117.55
101103.42
101090.55
101078.94
101068.56
101059.4
101051.45
101044.68
101039.08
101034.63
101031.3
101029.09
101027.95
101027.88
101028.84
101030.8
101033.74
101037.62
101042.39
101048.03
101054.47
101061.67
101069.58
101078.14
101087.29
101096.97
101107.11
101117.66
101128.54
101139.69
101151.04
101162.52
101174.07
101185.68
101196.76
101207.69
101219.22
101230.32
101240.92
101251.72
101257.13
101258.98
101266.11
101268.81
101270.52
101272.25
101274.04
101275.87
101277.73
101279.64
101281.57
101283.53
101285.5
101287.49
101289.47
101291.45
101293.42
101295.36
101297.27
101299.15
101300.97
101302.75
101304.47
101306.13
101307.73
101309.28
101310.76
101312.19
101313.56
101314.85
101316.07
101317.2
101318.25
101319.2
101320.07
101320.85
101321.56
101322.18
101322.7
101323.14
101323.5
101323.77
101323.97
101324.12
101324.22
101324.28
101324.3
101324.3
101324.29
101324.27
101324.3
101324.29
101324.38
101488.35
101456.29
101425.33
101395.43
101366.62
101338.94
101312.42
101287.1
101262.98
101240.1
101218.45
101198.05
101178.9
101161.02
101144.39
101129.01
101114.89
101102
101090.35
101079.92
101070.7
101062.68
101055.83
101050.14
101045.6
101042.19
101039.88
101038.65
101038.48
101039.35
101041.21
101044.05
101047.82
101052.49
101058.01
101064.33
101071.41
101079.2
101087.62
101096.64
101106.18
101116.18
101126.58
101137.31
101148.31
101159.5
101170.81
101182.19
101193.61
101204.36
101215.27
101226.66
101237.44
101247.95
101258.11
101261.34
101264.82
101270.85
101272.9
101274.42
101275.99
101277.62
101279.29
101281.02
101282.78
101284.58
101286.41
101288.26
101290.13
101292.01
101293.88
101295.75
101297.59
101299.41
101301.19
101302.93
101304.62
101306.27
101307.86
101309.39
101310.88
101312.31
101313.68
101315
101316.24
101317.41
101318.5
101319.5
101320.41
101321.24
101321.99
101322.67
101323.26
101323.76
101324.17
101324.5
101324.75
101324.94
101325.07
101325.15
101325.2
101325.21
101325.19
101325.18
101325.16
101325.17
101325.16
101325.25
101492.32
101461.25
101431.19
101402.09
101374
101346.96
101321.02
101296.19
101272.51
101249.99
101228.66
101208.52
101189.6
101171.88
101155.38
101140.11
101126.05
101113.21
101101.58
101091.15
101081.91
101073.86
101066.97
101061.24
101056.65
101053.17
101050.8
101049.5
101049.25
101050.04
101051.82
101054.57
101058.25
101062.81
101068.23
101074.44
101081.41
101089.07
101097.37
101106.25
101115.65
101125.5
101135.76
101146.34
101157.17
101168.2
101179.33
101190.55
101201.72
101212.2
101223.09
101234.26
101244.75
101255.19
101264.17
101265.67
101270.87
101275.43
101277.03
101278.37
101279.78
101281.25
101282.77
101284.35
101285.98
101287.64
101289.34
101291.07
101292.82
101294.58
101296.35
101298.11
101299.85
101301.58
101303.26
101304.92
101306.53
101308.1
101309.61
101311.08
101312.51
101313.88
101315.2
101316.46
101317.66
101318.78
101319.82
101320.78
101321.65
101322.44
101323.16
101323.8
101324.36
101324.83
101325.22
101325.52
101325.75
101325.92
101326.03
101326.1
101326.13
101326.13
101326.1
101326.08
101326.05
101326.07
101326.05
101326.14
101494.94
101464.92
101435.8
101407.57
101380.26
101353.94
101328.63
101304.38
101281.2
101259.13
101238.19
101218.39
101199.74
101182.27
101165.97
101150.86
101136.93
101124.19
101112.63
101102.25
101093.05
101085.01
101078.13
101072.38
101067.77
101064.26
101061.84
101060.5
101060.2
101060.92
101062.64
101065.31
101068.9
101073.38
101078.69
101084.8
101091.65
101099.2
101107.37
101116.12
101125.38
101135.09
101145.19
101155.62
101166.29
101177.14
101188.09
101199.14
101210.01
101220.28
101231.13
101242.02
101252.27
101262.56
101269.77
101270.57
101276.79
101279.94
101281.21
101282.38
101283.62
101284.94
101286.3
101287.73
101289.22
101290.75
101292.32
101293.92
101295.55
101297.2
101298.86
101300.51
101302.16
101303.78
101305.38
101306.94
101308.47
101309.96
101311.4
101312.81
101314.17
101315.48
101316.75
101317.96
101319.1
101320.17
101321.16
101322.07
101322.9
101323.66
101324.34
101324.95
101325.48
101325.92
101326.29
101326.56
101326.77
101326.92
101327.01
101327.06
101327.08
101327.06
101327.03
101327
101326.97
101326.97
101326.96
101327.04
101496.34
101467.41
101439.28
101411.97
101385.51
101359.96
101335.35
101311.73
101289.13
101267.57
101247.08
101227.68
101209.38
101192.21
101176.17
101161.28
101147.54
101134.95
101123.52
101113.25
101104.12
101096.14
101089.29
101083.57
101078.97
101075.46
101073.03
101071.66
101071.33
101072
101073.66
101076.27
101079.79
101084.19
101089.41
101095.42
101102.17
101109.59
101117.64
101126.26
101135.38
101144.95
101154.9
101165.16
101175.66
101186.32
101197.1
101207.97
101218.47
101228.6
101239.4
101249.96
101259.99
101269.93
101274.9
101276.3
101282.4
101284.46
101285.45
101286.45
101287.52
101288.67
101289.89
101291.17
101292.51
101293.9
101295.34
101296.82
101298.33
101299.86
101301.4
101302.95
101304.49
101306.02
101307.52
101309
101310.44
101311.85
101313.22
101314.56
101315.85
101317.11
101318.32
101319.48
101320.57
101321.59
101322.53
101323.39
101324.18
101324.9
101325.54
101326.12
101326.62
101327.04
101327.37
101327.62
101327.81
101327.93
101328.01
101328.04
101328.04
101328.02
101327.98
101327.94
101327.9
101327.9
101327.88
101327.96
101496.67
101468.85
101441.76
101415.4
101389.83
101365.1
101341.26
101318.33
101296.36
101275.36
101255.39
101236.44
101218.56
101201.75
101186.03
101171.42
101157.91
101145.53
101134.28
101124.15
101115.14
101107.26
101100.49
101094.83
101090.26
101086.78
101084.36
101082.99
101082.64
101083.29
101084.91
101087.47
101090.93
101095.25
101100.39
101106.31
101112.95
101120.26
101128.18
101136.67
101145.65
101155.07
101164.87
101174.96
101185.28
101195.77
101206.36
101217.03
101227.11
101237.18
101247.88
101258.08
101267.94
101277.07
101279.74
101282.71
101287.67
101288.98
101289.74
101290.57
101291.47
101292.47
101293.52
101294.65
101295.86
101297.11
101298.41
101299.76
101301.15
101302.56
101303.99
101305.43
101306.87
101308.29
101309.7
101311.08
101312.44
101313.77
101315.07
101316.34
101317.57
101318.77
101319.92
101321.02
101322.06
101323.03
101323.92
101324.74
101325.48
101326.16
101326.77
101327.31
101327.78
101328.17
101328.47
101328.7
101328.86
101328.97
101329.02
101329.04
101329.03
101328.99
101328.94
101328.89
101328.84
101328.84
101328.82
101328.9
101496.07
101469.39
101443.36
101417.99
101393.35
101369.48
101346.44
101324.25
101302.96
101282.59
101263.18
101244.75
101227.32
101210.93
101195.58
101181.29
101168.08
101155.95
101144.92
101134.98
101126.13
101118.38
101111.73
101106.16
101101.66
101098.23