/*--------------------------------*- C++ -*----------------------------------*\
| =========                 |                                                 |
| \\      /  F ield         | OpenFOAM: The Open Source CFD Toolbox           |
|  \\    /   O peration     | Version:  2406                                  |
|   \\  /    A nd           | Website:  www.openfoam.com                      |
|    \\/     M anipulation  |                                                 |
\*---------------------------------------------------------------------------*/
FoamFile
{
    version     2.0;
    format      ascii;
    arch        "LSB;label=32;scalar=64";
    class       volScalarField;
    location    "0.008";
    object      p;
}
// * * * * * * * * * * * * * * * * * * * * * * * * * * * * * * * * * * * * * //

dimensions      [1 -1 -2 0 0 0 0];

internalField   nonuniform List<scalar> 
8950
(
100102.37
100117.46
100124.67
100127.64
100129.71
100131.47
100133.27
100135.23
100137.16
100139.1
100141.21
100143.67
100146.54
100149.87
100153.65
100157.87
100162.52
100167.52
100173.01
100178.85
100184.89
100191.12
100197.5
100204.01
100210.6
100217.22
100223.82
100230.37
100236.82
100243.13
100249.28
100255.24
100261.02
100266.61
100272.02
100277.25
100282.32
100287.27
100292.19
100297.13
100302.11
100307.23
100312.56
100318.19
100324.2
100330.67
100337.69
100345.34
100353.7
100362.84
100372.83
100383.75
100395.71
100408.57
100422.21
100437.28
100453.11
100470.34
100488.17
100507.15
100526.76
100547.11
100568.13
100589.67
100611.61
100633.79
100656.12
100678.48
100700.75
100722.82
100744.59
100765.95
100786.82
100807.13
100826.78
100845.73
100863.91
100881.26
100097.45
100108.4
100115.79
100119.75
100122.53
100124.92
100127.1
100129.14
100131.16
100133.32
100135.8
100138.67
100141.99
100145.77
100149.99
100154.65
100159.73
100165.17
100170.99
100177.08
100183.43
100190
100196.69
100203.41
100210.13
100216.86
100223.55
100230.15
100236.63
100242.94
100249.07
100255
100260.73
100266.27
100271.62
100276.81
100281.84
100286.79
100291.73
100296.7
100301.74
100306.94
100312.38
100318.14
100324.31
100330.97
100338.19
100346.08
100354.69
100364.1
100374.4
100385.65
100397.96
100411.39
100425.18
100440.4
100456.83
100474.11
100492.28
100511.9
100531.74
100552.44
100573.76
100595.54
100617.67
100640.01
100662.47
100684.91
100707.23
100729.31
100751.05
100772.35
100793.13
100813.3
100832.8
100851.57
100869.54
100095.39
100103.12
100109.15
100112.88
100115.67
100118.11
100120.34
100122.51
100124.79
100127.34
100130.24
100133.56
100137.31
100141.5
100146.13
100151.18
100156.62
100162.41
100168.51
100174.85
100181.43
100188.19
100195.04
100201.91
100208.77
100215.6
100222.36
100229.02
100235.52
100241.85
100247.98
100253.91
100259.64
100265.19
100270.56
100275.78
100280.89
100285.95
100291.01
100296.11
100301.33
100306.72
100312.39
100318.4
100324.84
100331.78
100339.32
100347.52
100356.48
100366.25
100376.92
100388.56
100401.23
100414.89
100429.2
100444.93
100461.97
100479.25
100497.83
100517.42
100537.54
100558.67
100580.24
100602.2
100624.43
100646.83
100669.32
100691.76
100714.03
100736.02
100757.64
100778.79
100799.38
100819.34
100838.6
100857.11
100874.81
100091.32
100097.44
100102.42
100105.82
100108.58
100111.08
100113.48
100115.92
100118.54
100121.46
100124.73
100128.42
100132.53
100137.07
100142.02
100147.38
100153.09
100159.14
100165.46
100172.02
100178.77
100185.67
100192.63
100199.61
100206.57
100213.49
100220.32
100227.02
100233.57
100239.94
100246.12
100252.09
100257.88
100263.5
100268.96
100274.3
100279.56
100284.79
100290.02
100295.31
100300.75
100306.4
100312.34
100318.63
100325.36
100332.62
100340.48
100349.01
100358.31
100368.43
100379.45
100391.44
100404.42
100418.35
100433.17
100449.29
100466.46
100484.18
100503.31
100522.72
100543.18
100564.05
100586.04
100608.14
100630.46
100652.88
100675.35
100697.73
100719.92
100741.79
100763.26
100784.24
100804.62
100824.37
100843.38
100861.64
100879.06
100087.38
100092.59
100096.69
100099.7
100102.33
100104.86
100107.39
100110.03
100112.9
100116.09
100119.66
100123.63
100128.02
100132.83
100138.04
100143.63
100149.56
100155.8
100162.3
100169.02
100175.9
100182.89
100189.95
100197.02
100204.06
100211.05
100217.93
100224.69
100231.3
100237.73
100243.97
100250.03
100255.92
100261.66
100267.26
100272.76
100278.2
100283.62
100289.05
100294.58
100300.27
100306.2
100312.42
100319.01
100326.04
100333.61
100341.78
100350.65
100360.27
100370.73
100382.08
100394.39
100407.67
100421.92
100437.14
100453.54
100470.87
100488.99
100508.25
100527.97
100548.9
100569.62
100591.42
100613.48
100636.1
100658.5
100680.97
100703.26
100725.35
100747.08
100768.39
100789.19
100809.36
100828.89
100847.66
100865.66
100083.94
100088.66
100092.09
100094.65
100097.11
100099.61
100102.21
100104.97
100108.02
100111.41
100115.19
100119.38
100123.98
100128.99
100134.39
100140.15
100146.23
100152.61
100159.23
100166.05
100173.02
100180.08
100187.21
100194.34
100201.44
100208.48
100215.42
100222.24
100228.91
100235.42
100241.76
100247.94
100253.96
100259.84
100265.61
100271.31
100276.95
100282.59
100288.26
100294.05
100300.01
100306.23
100312.74
100319.63
100326.97
100334.85
100343.35
100352.53
100362.48
100373.26
100384.94
100397.56
100411.14
100425.7
100441.25
100457.88
100475.43
100493.84
100513.21
100533.24
100554.17
100575.36
100596.98
100618.95
100641.42
100663.81
100686.38
100708.56
100730.54
100752.12
100773.25
100793.86
100813.81
100833.11
100851.63
100869.38
100081.27
100085.96
100088.51
100090.57
100092.86
100095.33
100097.96
100100.8
100103.98
100107.51
100111.43
100115.76
100120.51
100125.66
100131.17
100137.04
100143.22
100149.67
100156.36
100163.23
100170.25
100177.36
100184.52
100191.69
100198.84
100205.92
100212.92
100219.8
100226.55
100233.16
100239.61
100245.92
100252.1
100258.16
100264.12
100270.03
100275.9
100281.78
100287.72
100293.77
100300.02
100306.53
100313.34
100320.54
100328.2
100336.39
100345.21
100354.71
100364.98
100376.08
100388.06
100400.98
100414.85
100429.7
100445.53
100462.38
100480.14
100498.77
100518.27
100538.47
100559.41
100580.74
100602.43
100624.61
100646.79
100669.1
100691.47
100713.58
100735.5
100756.89
100777.85
100798.26
100817.96
100837.04
100855.3
100872.8
100079.49
100083.27
100085.68
100087.66
100089.59
100092.08
100094.66
100097.53
100100.81
100104.42
100108.41
100112.84
100117.68
100122.89
100128.47
100134.38
100140.59
100147.08
100153.78
100160.68
100167.7
100174.82
100182
100189.19
100196.37
100203.49
100210.54
100217.49
100224.33
100231.04
100237.63
100244.09
100250.43
100256.68
100262.86
100268.99
100275.1
100281.24
100287.45
100293.8
100300.34
100307.13
100314.26
100321.77
100329.74
100338.25
100347.38
100357.2
100367.78
100379.18
100391.46
100404.66
100418.81
100433.92
100450
100467.05
100484.99
100503.79
100523.4
100543.71
100564.66
100586.03
100607.78
100629.91
100652.05
100674.39
100696.45
100718.44
100740.14
100761.38
100782.12
100802.36
100821.8
100840.66
100858.65
100875.9
100078.02
100081.32
100083.55
100085.42
100087.58
100089.91
100092.23
100095.19
100098.56
100102.11
100106.13
100110.63
100115.5
100120.74
100126.31
100132.22
100138.42
100144.89
100151.59
100158.46
100165.46
100172.57
100179.73
100186.93
100194.13
100201.29
100208.39
100215.41
100222.33
100229.16
100235.88
100242.5
100249.03
100255.48
100261.87
100268.24
100274.6
100281.01
100287.5
100294.13
100300.97
100308.07
100315.5
100323.33
100331.62
100340.45
100349.89
100360.02
100370.9
100382.59
100395.15
100408.62
100423.02
100438.36
100454.65
100471.87
100489.97
100508.9
100528.6
100548.95
100569.91
100591.28
100613.03
100635.06
100657.15
100679.35
100701.29
100723.15
100744.58
100765.64
100786.09
100806.15
100825.34
100843.99
100861.67
100077.03
100080.06
100082.06
100083.94
100086.3
100088.5
100090.98
100093.99
100097.09
100100.5
100104.6
100109.13
100113.99
100119.18
100124.71
100130.55
100136.72
100143.15
100149.79
100156.61
100163.57
100170.63
100177.78
100184.97
100192.18
100199.37
100206.51
100213.6
100220.62
100227.56
100234.43
100241.21
100247.92
100254.57
100261.19
100267.8
100274.42
100281.1
100287.88
100294.8
100301.94
100309.35
100317.09
100325.23
100333.83
100342.98
100352.73
100363.16
100374.33
100386.31
100399.13
100412.85
100427.47
100443.02
100459.49
100476.86
100495.08
100514.1
100533.85
100554.23
100575.16
100596.51
100618.19
100640.12
100662.1
100684.11
100705.93
100727.58
100748.8
100769.68
100789.88
100809.61
100828.64
100847.04
100864.4
100076.64
100079.5
100081.52
100083.37
100085.32
100087.55
100090.34
100093.31
100096.34
100099.93
100104.02
100108.37
100113.1
100118.18
100123.6
100129.36
100135.46
100141.83
100148.41
100155.15
100162.03
100169.03
100176.15
100183.33
100190.54
100197.75
100204.93
100212.08
100219.2
100226.27
100233.28
100240.22
100247.12
100253.97
100260.82
100267.67
100274.56
100281.51
100288.57
100295.8
100303.24
100310.96
100319.01
100327.46
100336.38
100345.84
100355.9
100366.62
100378.08
100390.32
100403.4
100417.34
100432.17
100447.9
100464.52
100482.01
100500.32
100519.39
100539.16
100559.53
100580.41
100601.7
100623.28
100645.07
100666.91
100688.73
100710.37
100731.78
100752.78
100773.4
100793.44
100812.81
100831.65
100849.7
100866.94
100077.05
100079.79
100081.66
100083.39
100085.34
100087.62
100090.19
100092.88
100096.01
100099.79
100103.79
100108.13
100112.78
100117.72
100123.06
100128.72
100134.68
100140.94
100147.4
100154.02
100160.8
100167.74
100174.83
100182
100189.21
100196.43
100203.64
100210.85
100218.06
100225.25
100232.41
100239.52
100246.6
100253.66
100260.73
100267.84
100274.99
100282.22
100289.57
100297.1
100304.85
100312.88
100321.25
100330.01
100339.24
100349.01
100359.37
100370.39
100382.12
100394.62
100407.93
100422.09
100437.1
100452.99
100469.73
100487.31
100505.68
100524.77
100544.53
100564.85
100585.66
100606.85
100628.31
100649.93
100671.6
100693.21
100714.64
100735.8
100756.56
100776.89
100796.69
100815.82
100834.36
100852.05
100869.16
100078.32
100080.78
100082.45
100084.07
100085.95
100088.13
100090.57
100093.3
100096.47
100100.06
100103.9
100108.02
100112.56
100117.56
100122.83
100128.39
100134.27
100140.42
100146.73
100153.22
100159.9
100166.76
100173.8
100180.94
100188.14
100195.34
100202.57
100209.84
100217.17
100224.49
100231.8
100239.07
100246.32
100253.58
100260.89
100268.26
100275.69
100283.2
100290.83
100298.66
100306.73
100315.08
100323.77
100332.84
100342.39
100352.47
100363.13
100374.43
100386.43
100399.17
100412.71
100427.06
100442.24
100458.26
100475.11
100492.75
100511.15
100530.23
100549.95
100570.2
100590.91
100611.97
100633.27
100654.71
100676.17
100697.55
100718.74
100739.65
100760.16
100780.21
100799.73
100818.6
100836.83
100854.28
100871.07
100080.3
100082.33
100083.76
100085.24
100087
100089.07
100091.43
100094.12
100097.19
100100.6
100104.33
100108.41
100112.88
100117.72
100122.85
100128.28
100133.98
100139.89
100146.08
100152.56
100159.2
100166.01
100173
100180.11
100187.26
100194.46
100201.74
100209.07
100216.49
100223.95
100231.39
100238.8
100246.21
100253.68
100261.26
100268.9
100276.6
100284.38
100292.3
100300.44
100308.84
100317.52
100326.52
100335.92
100345.78
100356.17
100367.13
100378.71
100390.97
100403.96
100417.7
100432.24
100447.57
100463.71
100480.63
100498.31
100516.71
100535.77
100555.42
100575.58
100596.15
100617.05
100638.17
100659.4
100680.63
100701.77
100722.7
100743.34
100763.57
100783.35
100802.57
100821.16
100839.1
100856.28
100872.76
100082.65
100084.23
100085.44
100086.76
100088.39
100090.33
100092.59
100095.18
100098.12
100101.4
100105.02
100108.99
100113.33
100118
100122.97
100128.25
100133.81
100139.62
100145.73
100152.09
100158.63
100165.37
100172.27
100179.25
100186.37
100193.66
100201.01
100208.44
100215.95
100223.54
100231.09
100238.66
100246.29
100253.99
100261.8
100269.71
100277.68
100285.71
100293.93
100302.39
100311.13
100320.15
100329.47
100339.18
100349.38
100360.08
100371.34
100383.19
100395.71
100408.94
100422.88
100437.59
100453.06
100469.29
100486.28
100503.99
100522.37
100541.38
100560.94
100580.97
100601.39
100622.11
100643.02
100664.02
100685
100705.88
100726.53
100746.88
100766.83
100786.3
100805.22
100823.52
100841.16
100858.07
100085.16
100086.42
100087.43
100088.56
100090.01
100091.8
100093.93
100096.38
100099.19
100102.32
100105.81
100109.66
100113.84
100118.34
100123.16
100128.3
100133.72
100139.42
100145.41
100151.64
100158.08
100164.74
100171.56
100178.53
100185.68
100192.98
100200.37
100207.86
100215.44
100223.04
100230.72
100238.56
100246.43
100254.38
100262.45
100270.64
100278.86
100287.19
100295.72
100304.5
100313.58
100322.92
100332.55
100342.58
100353.12
100364.15
100375.71
100387.84
100400.62
100414.07
100428.21
100443.08
100458.68
100475
100492.03
100509.74
100528.09
100547.03
100566.48
100586.38
100606.63
100627.14
100647.82
100668.57
100689.29
100709.88
100730.24
100750.29
100769.93
100789.1
100807.71
100825.71
100843.04
100859.65
100088.06
100088.93
100089.63
100090.51
100091.75
100093.36
100095.33
100097.64
100100.29
100103.27
100106.59
100110.32
100114.33
100118.66
100123.33
100128.32
100133.6
100139.18
100145.03
100151.14
100157.5
100164.07
100170.85
100177.81
100184.95
100192.25
100199.68
100207.24
100214.9
100222.65
100230.53
100238.54
100246.61
100254.78
100263.08
100271.42
100279.92
100288.67
100297.58
100306.73
100316.16
100325.83
100335.75
100346.1
100356.98
100368.34
100380.2
100392.59
100405.64
100419.32
100433.65
100448.68
100464.39
100480.79
100497.86
100515.57
100533.87
100552.72
100572.05
100591.79
100611.85
100632.14
100652.58
100673.07
100693.5
100713.79
100733.85
100753.58
100772.9
100791.75
100810.04
100827.72
100844.74
100861.06
100090.92
100091.39
100091.69
100092.42
100093.46
100094.89
100096.69
100098.84
100101.34
100104.17
100107.3
100110.83
100114.71
100118.86
100123.38
100128.24
100133.37
100138.81
100144.54
100150.54
100156.8
100163.3
100170.03
100176.96
100184.1
100191.41
100198.89
100206.53
100214.3
100222.2
100230.24
100238.41
100246.69
100255.1
100263.64
100272.29
100281.13
100290.19
100299.42
100308.91
100318.61
100328.61
100338.97
100349.74
100360.98
100372.62
100384.72
100397.41
100410.74
100424.65
100439.16
100454.35
100470.18
100486.64
100503.73
100521.43
100539.68
100558.44
100577.63
100597.19
100617.05
100637.11
100657.29
100677.5
100697.64
100717.62
100737.35
100756.76
100775.75
100794.26
100812.23
100829.59
100846.29
100862.31
100093.71
100093.71
100093.66
100094.14
100095.01
100096.28
100097.91
100099.89
100102.22
100104.9
100107.89
100111.19
100114.91
100118.91
100123.25
100127.94
100132.94
100138.26
100143.87
100149.76
100155.93
100162.36
100169.04
100175.95
100183.08
100190.42
100197.95
100205.67
100213.55
100221.59
100229.79
100238.15
100246.65
100255.3
100264.11
100273.07
100282.23
100291.6
100301.18
100311
100321.07
100331.46
100342.19
100353.35
100364.89
100376.83
100389.26
100402.29
100415.88
100429.97
100444.68
100460.06
100475.99
100492.51
100509.63
100527.31
100545.5
100564.15
100583.2
100602.58
100622.22
100642.04
100661.95
100681.87
100701.7
100721.36
100740.76
100759.83
100778.48
100796.65
100814.28
100831.31
100847.69
100863.4
100096.34
100095.83
100095.53
100095.72
100096.38
100097.46
100098.9
100100.71
100102.86
100105.36
100108.19
100111.34
100114.87
100118.73
100122.9
100127.4
100132.26
100137.45
100142.95
100148.74
100154.83
100161.18
100167.81
100174.7
100181.83
100189.2
100196.79
100204.59
100212.59
100220.78
100229.15
100237.7
100246.43
100255.33
100264.42
100273.69
100283.17
100292.87
100302.8
100312.99
100323.44
100334.21
100345.33
100356.84
100368.72
100381
100393.81
100407.15
100420.95
100435.25
100450.23
100465.74
100481.76
100498.35
100515.5
100533.17
100551.29
100569.83
100588.73
100607.92
100627.34
100646.91
100666.54
100686.16
100705.68
100725.01
100744.07
100762.79
100781.1
100798.92
100816.2
100832.9
100848.95
100864.34
100098.65
100097.65
100097.05
100096.99
100097.44
100098.32
100099.58
100101.21
100103.19
100105.51
100108.17
100111.17
100114.52
100118.2
100122.22
100126.59
100131.3
100136.34
100141.72
100147.43
100153.44
100159.72
100166.3
100173.17
100180.31
100187.71
100195.37
100203.26
100211.38
100219.71
100228.26
100237.02
100245.98
100255.15
100264.52
100274.11
100283.92
100293.97
100304.26
100314.83
100325.67
100336.83
100348.33
100360.21
100372.45
100385.12
100398.26
100411.85
100425.9
100440.53
100455.71
100471.3
100487.45
100504.13
100521.32
100538.98
100557.02
100575.44
100594.19
100613.2
100632.4
100651.71
100671.06
100690.37
100709.57
100728.56
100747.28
100765.65
100783.6
100801.07
100818
100834.35
100850.07
100865.15
100100.54
100099.06
100098.15
100097.85
100098.09
100098.78
100099.87
100101.33
100103.13
100105.28
100107.78
100110.61
100113.79
100117.31
100121.18
100125.4
100129.97
100134.89
100140.15
100145.76
100151.71
100157.97
100164.47
100171.31
100178.46
100185.9
100193.63
100201.62
100209.86
100218.35
100227.09
100236.06
100245.26
100254.7
100264.37
100274.28
100284.43
100294.84
100305.51
100316.46
100327.7
100339.26
100351.15
100363.41
100376.04
100389.07
100402.54
100416.44
100430.79
100445.65
100460.95
100476.76
100493.11
100509.84
100527.06
100544.68
100562.65
100580.96
100599.56
100618.38
100637.35
100656.41
100675.47
100694.48
100713.35
100732
100750.37
100768.38
100785.98
100803.09
100819.67
100835.67
100851.06
100865.81
100101.81
100099.92
100098.71
100098.19
100098.24
100098.77
100099.69
100100.99
100102.63
100104.62
100106.95
100109.63
100112.65
100116.02
100119.74
100123.82
100128.26
100133.05
100138.2
100143.7
100149.57
100155.83
100162.35
100169.11
100176.24
100183.74
100191.55
100199.65
100208.02
100216.67
100225.59
100234.78
100244.24
100253.96
100263.93
100274.17
100284.67
100295.44
100306.5
100317.84
100329.48
100341.45
100353.74
100366.4
100379.41
100392.81
100406.62
100420.85
100435.49
100450.59
100466.11
100482.1
100498.53
100515.41
100532.65
100550.19
100568.13
100586.33
100604.8
100623.43
100642.17
100660.97
100679.76
100698.46
100717
100735.32
100753.33
100770.99
100788.22
100804.97
100821.2
100836.85
100851.9
100866.33
100102.18
100100.01
100098.61
100097.93
100097.83
100098.21
100098.99
100100.14
100101.64
100103.48
100105.66
100108.19
100111.06
100114.28
100117.86
100121.81
100126.12
100130.8
100135.84
100141.25
100147.03
100153.21
100159.83
100166.62
100173.64
100181.19
100189.1
100197.32
100205.82
100214.63
100223.75
100233.17
100242.88
100252.88
100263.17
100273.74
100284.6
100295.74
100307.19
100318.93
100330.98
100343.36
100356.07
100369.12
100382.52
100396.3
100410.46
100425.01
100439.95
100455.31
100471.06
100487.22
100503.78
100520.69
100537.94
100555.57
100573.44
100591.53
100609.85
100628.3
100646.83
100665.38
100683.88
100702.28
100720.5
100738.48
100756.15
100773.45
100790.32
100806.71
100822.58
100837.89
100852.6
100866.7
100101.62
100099.31
100097.81
100097.01
100096.79
100097.06
100097.72
100098.75
100100.12
100101.83
100103.88
100106.27
100109
100112.09
100115.54
100119.35
100123.55
100128.12
100133.07
100138.4
100144.09
100150.17
100156.79
100163.73
100170.73
100178.25
100186.29
100194.64
100203.25
100212.22
100221.55
100231.2
100241.17
100251.46
100262.06
100272.97
100284.19
100295.71
100307.55
100319.7
100332.17
100344.96
100358.08
100371.54
100385.33
100399.49
100414
100428.88
100444.12
100459.74
100475.72
100492.06
100508.75
100525.76
100543.05
100560.67
100578.5
100596.55
100614.69
100632.95
100651.27
100669.58
100687.81
100705.91
100723.81
100741.46
100758.78
100775.73
100792.25
100808.29
100823.81
100838.77
100853.14
100866.92
100100.29
100097.88
100096.3
100095.42
100095.12
100095.3
100095.88
100096.8
100098.07
100099.67
100101.61
100103.87
100106.48
100109.45
100112.78
100116.48
100120.56
100125.03
100129.9
100135.15
100140.76
100146.75
100153.32
100160.33
100167.49
100174.95
100183.13
100191.58
100200.27
100209.41
100218.94
100228.82
100239.06
100249.64
100260.55
100271.81
100283.39
100295.29
100307.53
100320.09
100332.99
100346.2
100359.73
100373.59
100387.79
100402.32
100417.19
100432.4
100447.94
100463.83
100480.05
100496.58
100513.41
100530.51
100547.87
100565.49
100583.31
100601.24
100619.25
100637.33
100655.46
100673.54
100691.5
100709.31
100726.91
100744.23
100761.22
100777.83
100794
100809.69
100824.86
100839.48
100853.52
100866.98
100098.07
100095.67
100094.06
100093.15
100092.81
100092.95
100093.45
100094.3
100095.47
100096.96
100098.79
100100.94
100103.44
100106.3
100109.52
100113.11
100117.1
100121.48
100126.27
100131.46
100137.07
100143.17
100149.73
100156.68
100163.82
100171.21
100179.28
100187.89
100196.87
100206.22
100215.94
100226.05
100236.54
100247.4
100258.63
100270.21
100282.14
100294.42
100307.03
100319.98
100333.29
100346.93
100360.88
100375.16
100389.76
100404.68
100419.92
100435.47
100451.33
100467.49
100483.97
100500.7
100517.68
100534.9
100552.32
100569.95
100587.74
100605.59
100623.52
100641.44
100659.35
100677.22
100694.92
100712.46
100729.76
100746.77
100763.44
100779.71
100795.54
100810.89
100825.72
100840.01
100853.72
100866.88
100094.92
100092.66
100091.13
100090.24
100089.91
100090.01
100090.45
100091.22
100092.32
100093.72
100095.45
100097.51
100099.91
100102.66
100105.78
100109.28
100113.18
100117.48
100122.2
100127.36
100132.97
100139.11
100145.53
100152.36
100159.75
100167.31
100175.26
100183.94
100193.15
100202.7
100212.64
100223
100233.75
100244.91
100256.45
100268.37
100280.66
100293.3
100306.3
100319.63
100333.24
100347.26
100361.61
100376.28
100391.27
100406.56
100422.16
100438.04
100454.2
100470.63
100487.35
100504.29
100521.46
100538.81
100556.32
100573.98
100591.76
100609.6
100627.42
100645.22
100662.91
100680.59
100698.03
100715.32
100732.34
100749.05
100765.41
100781.36
100796.86
100811.88
100826.39
100840.35
100853.75
100866.62
100090.97
100088.95
100087.52
100086.69
100086.38
100086.45
100086.88
100087.62
100088.66
100090.01
100091.67
100093.65
100095.97
100098.63
100101.66
100105.08
100108.89
100113.12
100117.77
100122.86
100128.41
100134.42
100140.74
100147.61
100155.32
100163.18
100171.11
100179.85
100189.15
100198.88
100209.04
100219.64
100230.68
100242.13
100254
100266.26
100278.92
100291.95
100305.34
100319.08
100333.1
100347.48
100362.21
100377.25
100392.61
100408.25
100424.17
100440.37
100456.81
100473.47
100490.31
100507.44
100524.76
100542.25
100559.86
100577.57
100595.34
100613.15
100630.94
100648.6
100666.13
100683.62
100700.83
100717.87
100734.63
100751.06
100767.12
100782.76
100797.96
100812.66
100826.86
100840.51
100853.6
100866.17
100086.3
100084.59
100083.32
100082.56
100082.28
100082.38
100082.82
100083.55
100084.56
100085.87
100087.47
100089.38
100091.63
100094.21
100097.17
100100.5
100104.24
100108.4
100112.99
100118.03
100123.53
100129.5
100135.9
100142.81
100150.41
100158.44
100166.49
100175.39
100184.81
100194.7
100205.06
100215.9
100227.19
100238.93
100251.11
100263.7
100276.71
100290.1
100303.88
100318.03
100332.54
100347.35
100362.47
100377.91
100393.63
100409.63
100425.89
100442.39
100459.13
100476.05
100493.11
100510.38
100527.82
100545.4
100563.07
100580.8
100598.56
100616.3
100634.04
100651.58
100668.98
100686.28
100703.27
100720.09
100736.6
100752.76
100768.54
100783.89
100798.79
100813.2
100827.09
100840.45
100853.24
100865.39
100148.68
100138.83
100124.14
100109.58
100098.66
100091.9
100086.21
100080.93
100076.78
100158.18
100151.08
100130.05
100115.75
100105.55
100098.99
100093.44
100088.27
100084.47
100153.39
100150.34
100131.82
100120.63
100112.12
100106.04
100100.71
100095.66
100092.05
100150.35
100148.89
100135.92
100126.81
100119.38
100113.54
100108.31
100103.31
100099.78
100149.22
100149.57
100140.4
100133.3
100126.48
100120.86
100115.72
100110.82
100107.35
100148.25
100151.4
100144.71
100139.2
100133.03
100127.74
100122.79
100118.05
100114.68
100147.63
100153
100148.55
100144.48
100139.1
100134.25
100129.56
100125.04
100121.81
100147.98
100154.43
100152.1
100149.39
100144.84
100140.48
100136.11
100131.86
100128.79
100148.99
100156.19
100155.64
100154.11
100150.37
100146.53
100142.5
100138.54
100135.65
100150.29
100158.33
100159.25
100158.71
100155.76
100152.43
100148.76
100145.1
100142.42
100151.9
100160.77
100162.95
100163.26
100161.04
100158.22
100154.93
100151.59
100149.12
100153.91
100163.53
100166.77
100167.81
100166.28
100163.95
100161.03
100158.01
100155.76
100156.43
100166.67
100170.74
100172.41
100171.51
100169.64
100167.1
100164.39
100162.37
100159.44
100170.12
100174.86
100177.09
100176.77
100175.33
100173.15
100170.75
100168.94
100162.93
100173.89
100179.19
100181.88
100182.08
100181.04
100179.2
100177.1
100175.5
100166.88
100178.02
100183.73
100186.82
100187.45
100186.78
100185.26
100183.44
100182.05
100171.3
100182.48
100188.5
100191.9
100192.92
100192.56
100191.34
100189.78
100188.59
100176.09
100187.27
100193.49
100197.14
100198.47
100198.4
100197.45
100196.14
100195.12
100181.26
100192.23
100198.67
100202.52
100204.11
100204.3
100203.59
100202.49
100201.65
100186.78
100197.46
100204.07
100208.05
100209.84
100210.24
100209.75
100208.86
100208.17
100192.51
100202.97
100209.66
100213.71
100215.65
100216.23
100215.93
100215.22
100214.67
100198.4
100208.69
100215.42
100219.49
100221.54
100222.26
100222.13
100221.58
100221.16
100204.52
100214.62
100221.3
100225.35
100227.47
100228.32
100228.33
100227.93
100227.63
100210.86
100220.69
100227.27
100231.27
100233.45
100234.4
100234.53
100234.26
100234.08
100217.31
100226.82
100233.29
100237.23
100239.44
100240.47
100240.73
100240.58
100240.49
100223.76
100232.95
100239.31
100243.2
100245.43
100246.54
100246.91
100246.87
100246.88
100230.17
100239.06
100245.32
100249.15
100251.41
100252.6
100253.06
100253.13
100253.23
100236.53
100245.12
100251.29
100255.07
100257.36
100258.62
100259.18
100259.36
100259.55
100242.79
100251.1
100257.17
100260.94
100263.26
100264.61
100265.28
100265.57
100265.84
100248.95
100256.98
100262.97
100266.74
100269.12
100270.56
100271.34
100271.74
100272.11
100254.95
100262.75
100268.69
100272.46
100274.92
100276.47
100277.37
100277.9
100278.35
100260.75
100268.37
100274.29
100278.09
100280.65
100282.34
100283.38
100284.04
100284.59
100266.37
100273.81
100279.74
100283.62
100286.33
100288.18
100289.38
100290.18
100290.83
100271.8
100279.08
100285.04
100289.06
100291.95
100294
100295.38
100296.34
100297.1
100277.03
100284.19
100290.21
100294.41
100297.53
100299.81
100301.4
100302.53
100303.41
100282.07
100289.15
100295.27
100299.7
100303.09
100305.64
100307.47
100308.79
100309.8
100286.93
100293.98
100300.25
100304.95
100308.66
100311.52
100313.61
100315.14
100316.28
100291.66
100298.71
100305.16
100310.19
100314.26
100317.48
100319.86
100321.62
100322.9
100296.34
100303.38
100310.04
100315.45
100319.95
100323.55
100326.26
100328.26
100329.7
100301
100308.06
100314.96
100320.79
100325.76
100329.78
100332.85
100335.11
100336.71
100305.7
100312.83
100319.99
100326.28
100331.74
100336.23
100339.67
100342.2
100343.98
100310.52
100317.77
100325.21
100331.97
100337.97
100342.95
100346.78
100349.6
100351.55
100315.55
100322.95
100330.69
100337.94
100344.5
100349.99
100354.23
100357.35
100359.48
100320.87
100328.44
100336.5
100344.27
100351.4
100357.41
100362.07
100365.49
100367.82
100326.55
100334.33
100342.73
100351.02
100358.73
100365.28
100370.36
100374.09
100376.59
100332.71
100340.72
100349.47
100358.27
100366.57
100373.66
100379.16
100383.17
100385.86
100339.43
100347.69
100356.79
100366.11
100374.97
100382.59
100388.5
100392.8
100395.67
100346.79
100355.32
100364.78
100374.6
100384.01
100392.13
100398.43
100403
100406.04
100354.88
100363.69
100373.51
100383.8
100393.75
100402.33
100408.99
100413.81
100417.01
100363.78
100372.86
100383.04
100393.79
100404.22
100413.23
100420.21
100425.27
100428.61
100373.54
100382.91
100393.43
100404.6
100415.47
100424.86
100432.13
100437.39
100440.85
100384.21
100393.86
100404.73
100416.28
100427.53
100437.24
100444.76
100450.18
100453.75
100395.83
100405.77
100416.97
100428.85
100440.41
100450.39
100458.1
100463.66
100467.29
100408.32
100418.7
100430.2
100442.33
100454.14
100464.31
100472.15
100477.8
100481.49
100422.34
100432.83
100444.43
100456.72
100468.69
100478.98
100486.91
100492.6
100496.31
100437.52
100447.93
100459.6
100472
100484.05
100494.4
100502.35
100508.04
100511.74
100453.22
100463.84
100475.66
100488.13
100500.19
100510.52
100518.43
100524.09
100527.76
100470.23
100480.81
100492.65
100505.09
100517.08
100527.31
100535.12
100540.7
100544.31
100488.14
100498.7
100510.49
100522.82
100534.65
100544.71
100552.38
100557.84
100561.36
100506.99
100517.43
100529.11
100541.24
100552.84
100562.68
100570.14
100575.45
100578.86
100526.64
100536.93
100548.43
100560.29
100571.59
100581.13
100588.35
100593.47
100596.75
100547.03
100557.11
100568.36
100579.89
100590.81
100600.01
100606.94
100611.84
100614.97
100568.09
100577.87
100588.8
100599.94
100610.43
100619.23
100625.83
100630.49
100633.46
100589.67
100599.1
100609.65
100620.34
100630.35
100638.71
100644.95
100649.35
100652.14
100611.65
100620.68
100630.8
100641
100650.49
100658.37
100664.23
100668.34
100670.94
100633.9
100642.49
100652.15
100661.81
100670.74
100678.13
100683.58
100687.41
100689.81
100656.29
100664.41
100673.57
100682.67
100691.03
100697.91
100702.94
100706.46
100708.66
100678.72
100686.35
100694.98
100703.5
100711.27
100717.62
100722.23
100725.45
100727.44
100701.06
100708.18
100716.27
100724.2
100731.38
100737.19
100741.38
100744.29
100746.08
100723.21
100729.8
100737.35
100744.68
100751.27
100756.55
100760.32
100762.93
100764.51
100745.06
100751.13
100758.13
100764.87
100770.87
100775.63
100778.99
100781.29
100782.68
100766.52
100772.08
100778.53
100784.69
100790.11
100794.36
100797.31
100799.32
100800.51
100787.49
100792.55
100798.46
100804.07
100808.93
100812.68
100815.23
100816.96
100817.96
100807.89
100812.47
100817.87
100822.93
100827.26
100830.53
100832.7
100834.16
100834.98
100827.65
100831.77
100836.68
100841.23
100845.04
100847.85
100849.66
100850.86
100851.51
100846.71
100850.39
100854.83
100858.89
100862.22
100864.59
100866.07
100867.02
100867.51
100865.01
100868.27
100872.27
100875.88
100878.75
100882.48
100068.69
100059.06
100051.61
100046.04
100041.94
100038.97
100036.85
100035.42