/*--------------------------------*- C++ -*----------------------------------*\
| =========                 |                                                 |
| \\      /  F ield         | OpenFOAM: The Open Source CFD Toolbox           |
|  \\    /   O peration     | Version:  2406                                  |
|   \\  /    A nd           | Website:  www.openfoam.com                      |
|    \\/     M anipulation  |                                                 |
\*---------------------------------------------------------------------------*/
FoamFile
{
    version     2.0;
    format      ascii;
    arch        "LSB;label=32;scalar=64";
    class       volScalarField;
    location    "0.008";
    object      rho;
}
// * * * * * * * * * * * * * * * * * * * * * * * * * * * * * * * * * * * * * //

dimensions      [1 -3 0 0 0 0 0];

internalField   nonuniform List<scalar> 
8950
(
1.1920165
1.1921596
1.1922024
1.1921853
1.1921552
1.1921245
1.1920997
1.1920828
1.1920709
1.1920636
1.1920623
1.192068
1.1920812
1.1921012
1.1921273
1.1921585
1.1921939
1.1922319
1.1922734
1.1923164
1.1923589
1.1924002
1.1924396
1.1924763
1.1925102
1.1925408
1.1925677
1.1925904
1.1926089
1.1926231
1.1926328
1.1926385
1.1926407
1.1926399
1.1926365
1.1926312
1.1926247
1.1926178
1.1926118
1.1926077
1.1926058
1.192607
1.1926123
1.1926224
1.192638
1.1926599
1.1926889
1.1927254
1.1927702
1.1928237
1.1928864
1.192959
1.1930428
1.1931356
1.1932358
1.1933518
1.1934748
1.1936132
1.1937573
1.1939137
1.194077
1.1942482
1.194427
1.1946121
1.1948023
1.1949964
1.1951934
1.1953922
1.1955918
1.1957908
1.1959883
1.196183
1.1963738
1.1965595
1.1967391
1.1969114
1.1970756
1.1972304
1.1913584
1.1915124
1.1916122
1.1916582
1.1916836
1.1917026
1.1917195
1.1917356
1.1917518
1.1917701
1.1917919
1.191818
1.1918484
1.191883
1.1919212
1.1919624
1.1920057
1.1920504
1.1920962
1.192142
1.1921872
1.1922314
1.1922733
1.1923117
1.1923466
1.1923784
1.1924067
1.1924313
1.192452
1.1924688
1.1924819
1.1924916
1.1924984
1.1925029
1.1925054
1.1925067
1.1925072
1.1925078
1.1925097
1.1925134
1.1925194
1.1925285
1.1925415
1.1925591
1.192582
1.192611
1.1926465
1.1926894
1.1927401
1.1927993
1.1928676
1.1929456
1.1930345
1.1931348
1.193237
1.1933547
1.1934849
1.1936234
1.1937713
1.1939349
1.194101
1.1942763
1.1944586
1.1946468
1.19484
1.1950367
1.1952362
1.1954372
1.1956385
1.195839
1.1960374
1.1962326
1.1964233
1.1966085
1.196787
1.1969578
1.19712
1.1907675
1.1909226
1.1910459
1.1911307
1.1911964
1.1912525
1.1913021
1.1913475
1.1913907
1.1914336
1.1914773
1.1915225
1.1915694
1.191618
1.1916681
1.1917195
1.1917715
1.1918236
1.1918753
1.1919262
1.191976
1.1920242
1.19207
1.1921124
1.1921515
1.1921875
1.1922202
1.1922494
1.1922752
1.1922976
1.1923167
1.192333
1.192347
1.192359
1.1923696
1.1923793
1.1923887
1.1923987
1.1924097
1.1924225
1.1924375
1.1924555
1.1924772
1.1925032
1.1925343
1.192571
1.192614
1.1926639
1.1927213
1.1927869
1.1928613
1.1929452
1.1930394
1.193143
1.1932517
1.1933756
1.1935131
1.1936514
1.193804
1.1939668
1.1941368
1.1943172
1.194503
1.1946938
1.1948888
1.1950872
1.1952881
1.1954901
1.195692
1.1958926
1.1960907
1.1962852
1.1964745
1.196658
1.1968342
1.1970024
1.1971615
1.1902275
1.190381
1.1905126
1.1906178
1.1907083
1.1907896
1.1908637
1.1909326
1.1909981
1.1910616
1.1911239
1.1911858
1.1912477
1.1913097
1.1913718
1.1914339
1.1914954
1.1915562
1.191616
1.1916743
1.191731
1.1917856
1.1918375
1.1918864
1.1919323
1.1919751
1.1920147
1.1920512
1.1920845
1.1921148
1.1921422
1.1921671
1.19219
1.1922113
1.1922314
1.1922508
1.1922701
1.1922899
1.1923106
1.1923327
1.192357
1.1923841
1.1924146
1.192449
1.1924881
1.1925324
1.1925826
1.1926394
1.1927034
1.1927752
1.1928554
1.1929447
1.1930435
1.1931509
1.1932663
1.1933951
1.1935343
1.193678
1.1938374
1.1939984
1.1941719
1.19435
1.1945416
1.1947347
1.1949316
1.195131
1.1953328
1.1955352
1.1957372
1.1959374
1.1961347
1.1963279
1.1965156
1.1966969
1.1968706
1.197036
1.1971919
1.1897769
1.1899232
1.1900506
1.1901603
1.1902604
1.1903539
1.1904416
1.1905248
1.1906048
1.1906826
1.1907587
1.1908338
1.1909082
1.190982
1.1910552
1.1911276
1.191199
1.1912692
1.1913379
1.1914049
1.1914698
1.1915325
1.1915924
1.1916496
1.1917037
1.191755
1.1918032
1.1918484
1.1918907
1.1919302
1.191967
1.1920016
1.1920344
1.1920656
1.1920957
1.1921252
1.1921545
1.192184
1.1922141
1.1922455
1.192279
1.192315
1.192354
1.1923965
1.1924433
1.192495
1.1925523
1.1926157
1.192686
1.1927638
1.1928497
1.1929443
1.1930477
1.1931598
1.1932807
1.1934133
1.1935548
1.193704
1.1938652
1.1940308
1.1942096
1.1943869
1.194577
1.1947706
1.194972
1.1951723
1.195375
1.1955774
1.1957791
1.1959786
1.1961748
1.1963664
1.196552
1.196731
1.196902
1.1970644
1.1894173
1.1895535
1.1896706
1.1897745
1.189874
1.1899699
1.1900623
1.1901517
1.1902391
1.190325
1.1904098
1.1904938
1.1905772
1.19066
1.1907422
1.1908234
1.1909036
1.1909823
1.1910596
1.191135
1.1912083
1.1912793
1.1913478
1.1914136
1.1914766
1.1915367
1.1915939
1.1916484
1.1917
1.1917491
1.1917957
1.1918401
1.1918828
1.191924
1.191964
1.1920033
1.1920423
1.1920812
1.1921206
1.192161
1.1922033
1.1922479
1.192295
1.1923454
1.1923998
1.1924587
1.1925229
1.1925929
1.1926696
1.1927533
1.1928449
1.1929448
1.1930531
1.19317
1.193296
1.1934323
1.1935772
1.1937305
1.1938939
1.194064
1.1942438
1.1944275
1.1946163
1.19481
1.1950107
1.1952117
1.1954166
1.1956186
1.19582
1.1960183
1.196213
1.1964028
1.196586
1.1967624
1.1969304
1.1970896
1.1891386
1.1892669
1.1893673
1.1894602
1.1895538
1.1896467
1.1897381
1.1898281
1.1899177
1.190007
1.1900959
1.1901848
1.1902736
1.1903624
1.1904507
1.1905384
1.1906253
1.1907109
1.1907952
1.1908778
1.1909585
1.1910371
1.1911133
1.1911871
1.1912583
1.1913268
1.1913927
1.1914559
1.1915166
1.1915748
1.1916307
1.1916845
1.1917366
1.1917872
1.1918367
1.1918853
1.1919333
1.1919812
1.1920295
1.1920786
1.1921292
1.1921819
1.192237
1.1922951
1.1923569
1.1924229
1.192494
1.1925706
1.1926536
1.1927434
1.1928407
1.1929459
1.1930594
1.1931812
1.193312
1.1934522
1.1936008
1.1937579
1.1939239
1.1940973
1.1942785
1.1944648
1.1946554
1.1948529
1.1950511
1.1952524
1.1954558
1.1956579
1.1958592
1.1960559
1.1962488
1.1964364
1.1966168
1.1967906
1.1969552
1.1971113
1.1889271
1.189036
1.1891271
1.1892122
1.1892955
1.1893836
1.1894704
1.1895576
1.1896465
1.1897355
1.1898251
1.1899158
1.1900072
1.1900989
1.1901907
1.1902823
1.1903734
1.1904638
1.1905532
1.1906413
1.1907277
1.1908124
1.190895
1.1909755
1.1910537
1.1911296
1.191203
1.1912741
1.1913428
1.1914092
1.1914736
1.191536
1.1915967
1.1916559
1.1917139
1.1917711
1.1918276
1.1918839
1.1919405
1.1919978
1.1920564
1.1921169
1.1921796
1.1922452
1.1923142
1.1923873
1.1924652
1.1925484
1.1926377
1.1927337
1.1928367
1.1929474
1.1930661
1.1931929
1.1933283
1.1934725
1.193625
1.1937856
1.1939544
1.1941304
1.1943133
1.1945014
1.1946941
1.1948921
1.195091
1.1952936
1.1954943
1.1956956
1.1958949
1.1960901
1.1962809
1.1964664
1.1966437
1.1968147
1.1969757
1.1971285
1.1887613
1.1888563
1.1889379
1.1890146
1.1890942
1.1891745
1.1892529
1.1893371
1.1894235
1.1895091
1.1895973
1.1896878
1.1897795
1.1898719
1.1899648
1.1900581
1.1901514
1.1902446
1.1903371
1.1904288
1.1905192
1.1906082
1.1906956
1.1907814
1.1908652
1.190947
1.1910267
1.1911043
1.1911799
1.1912534
1.1913251
1.191395
1.1914633
1.1915302
1.1915959
1.1916608
1.1917251
1.1917892
1.1918535
1.1919186
1.1919848
1.1920526
1.1921227
1.1921955
1.1922716
1.1923517
1.1924363
1.1925262
1.1926218
1.1927238
1.1928327
1.1929489
1.1930727
1.1932045
1.1933445
1.1934928
1.193649
1.193813
1.1939846
1.1941629
1.1943476
1.1945372
1.1947312
1.1949294
1.1951289
1.1953308
1.1955308
1.1957313
1.1959279
1.1961213
1.1963087
1.1964921
1.1966661
1.1968343
1.1969912
1.1886319
1.1887164
1.1887881
1.1888584
1.188934
1.189007
1.1890822
1.1891623
1.1892415
1.1893222
1.1894087
1.1894976
1.1895877
1.189679
1.1897712
1.1898644
1.1899583
1.1900525
1.1901466
1.1902401
1.1903329
1.1904247
1.1905154
1.1906049
1.1906929
1.1907793
1.1908639
1.1909467
1.1910279
1.1911074
1.1911853
1.1912616
1.1913364
1.19141
1.1914826
1.1915545
1.1916259
1.1916971
1.1917686
1.1918408
1.1919141
1.1919891
1.1920662
1.192146
1.1922291
1.192316
1.1924073
1.1925036
1.1926055
1.1927135
1.1928282
1.1929499
1.193079
1.1932157
1.1933601
1.1935124
1.1936723
1.1938395
1.1940137
1.1941942
1.1943804
1.1945713
1.1947662
1.1949643
1.1951638
1.1953646
1.1955639
1.1957624
1.195957
1.1961483
1.1963328
1.1965123
1.1966841
1.1968489
1.1970015
1.1885315
1.1886073
1.1886732
1.1887371
1.1888022
1.1888701
1.1889441
1.1890191
1.1890934
1.1891727
1.1892561
1.1893404
1.1894272
1.1895156
1.1896058
1.1896976
1.1897909
1.189885
1.1899792
1.1900732
1.1901668
1.19026
1.1903528
1.1904448
1.1905358
1.1906254
1.1907136
1.1908005
1.1908862
1.1909705
1.1910535
1.1911352
1.1912156
1.1912951
1.1913738
1.1914519
1.1915297
1.1916075
1.1916856
1.1917644
1.1918445
1.1919263
1.1920102
1.1920967
1.1921865
1.19228
1.1923778
1.1924805
1.1925886
1.1927026
1.192823
1.1929501
1.1930843
1.1932257
1.1933745
1.1935307
1.193694
1.1938642
1.1940409
1.1942233
1.194411
1.1946029
1.1947982
1.1949961
1.1951951
1.1953946
1.1955926
1.1957889
1.195981
1.1961695
1.1963519
1.1965271
1.1966963
1.1968565
1.1970072
1.1884558
1.1885246
1.1885831
1.1886405
1.1887004
1.1887641
1.1888309
1.1888983
1.18897
1.189048
1.1891272
1.1892088
1.1892923
1.1893773
1.1894652
1.1895548
1.1896459
1.1897386
1.1898317
1.1899247
1.190018
1.1901116
1.1902055
1.190299
1.1903918
1.1904836
1.1905744
1.1906642
1.1907534
1.1908417
1.190929
1.1910152
1.1911003
1.1911848
1.1912689
1.1913527
1.1914363
1.19152
1.1916042
1.1916893
1.1917757
1.191864
1.1919543
1.1920473
1.1921435
1.1922435
1.1923477
1.1924566
1.1925707
1.1926906
1.1928165
1.1929489
1.193088
1.1932341
1.1933871
1.1935469
1.1937135
1.1938865
1.1940653
1.1942495
1.1944383
1.1946309
1.1948264
1.1950239
1.195222
1.19542
1.1956163
1.1958102
1.1959999
1.1961851
1.1963646
1.1965367
1.1967019
1.1968575
1.1970063
1.1884009
1.1884614
1.1885129
1.1885643
1.1886189
1.1886771
1.1887382
1.1888022
1.1888708
1.1889432
1.1890174
1.1890937
1.1891735
1.1892572
1.1893426
1.1894296
1.1895187
1.1896094
1.1897003
1.1897917
1.1898842
1.1899773
1.1900712
1.1901653
1.1902589
1.1903518
1.1904441
1.1905362
1.1906282
1.1907198
1.1908106
1.1909004
1.1909895
1.1910783
1.1911672
1.1912561
1.1913451
1.1914342
1.191524
1.1916149
1.1917074
1.1918018
1.1918983
1.1919975
1.1921
1.1922061
1.1923165
1.1924314
1.1925514
1.1926769
1.1928082
1.1929458
1.1930897
1.1932401
1.193397
1.1935604
1.19373
1.1939054
1.1940863
1.1942719
1.1944616
1.1946546
1.19485
1.1950467
1.1952437
1.1954401
1.1956343
1.1958257
1.1960128
1.1961949
1.1963711
1.1965399
1.1967013
1.1968536
1.1969982
1.1883619
1.188413
1.1884575
1.188503
1.1885523
1.1886053
1.1886617
1.1887217
1.1887855
1.1888528
1.1889228
1.1889959
1.1890726
1.1891523
1.189234
1.1893179
1.1894036
1.1894903
1.189579
1.1896698
1.1897612
1.1898537
1.1899471
1.1900411
1.1901346
1.1902279
1.1903215
1.1904152
1.1905093
1.1906034
1.1906969
1.1907895
1.1908819
1.1909746
1.191068
1.1911616
1.1912555
1.1913495
1.1914443
1.1915408
1.1916391
1.1917393
1.1918417
1.1919468
1.1920553
1.1921675
1.1922837
1.1924044
1.1925301
1.192661
1.1927976
1.19294
1.1930884
1.193243
1.1934036
1.1935703
1.1937426
1.1939203
1.1941029
1.1942897
1.1944801
1.1946732
1.1948681
1.195064
1.1952596
1.1954541
1.1956462
1.195835
1.1960193
1.1961983
1.196371
1.1965364
1.1966941
1.1968431
1.1969835
1.1883324
1.1883744
1.1884126
1.1884527
1.1884967
1.1885447
1.1885965
1.188652
1.1887112
1.1887739
1.1888398
1.1889091
1.1889817
1.1890571
1.189135
1.1892154
1.1892979
1.1893821
1.1894687
1.1895572
1.1896468
1.1897378
1.1898298
1.189922
1.1900151
1.1901096
1.1902042
1.1902992
1.1903949
1.190491
1.1905863
1.1906816
1.1907774
1.1908736
1.1909707
1.1910686
1.1911667
1.1912649
1.1913646
1.1914663
1.1915702
1.191676
1.1917838
1.1918945
1.1920089
1.1921269
1.1922489
1.1923751
1.1925062
1.1926424
1.1927839
1.1929309
1.1930837
1.1932421
1.1934063
1.1935759
1.1937508
1.1939305
1.1941145
1.1943022
1.194493
1.194686
1.1948803
1.1950751
1.1952691
1.1954616
1.1956514
1.1958375
1.1960188
1.1961946
1.1963639
1.1965259
1.19668
1.1968255
1.1883086
1.1883435
1.1883759
1.1884103
1.1884491
1.1884921
1.1885392
1.18859
1.1886447
1.1887029
1.1887645
1.1888297
1.1888981
1.1889693
1.1890434
1.1891202
1.1891993
1.1892808
1.1893646
1.1894504
1.1895379
1.189627
1.1897174
1.1898089
1.1899019
1.1899961
1.190091
1.1901866
1.1902831
1.1903794
1.1904765
1.1905752
1.1906741
1.1907736
1.1908743
1.1909762
1.191078
1.1911806
1.1912849
1.1913914
1.1915004
1.1916113
1.1917242
1.1918402
1.1919602
1.1920839
1.1922114
1.1923429
1.1924792
1.1926204
1.1927666
1.1929181
1.1930748
1.1932369
1.1934043
1.1935767
1.1937538
1.1939352
1.1941205
1.1943089
1.1944999
1.1946926
1.1948861
1.1950795
1.1952719
1.1954622
1.1956495
1.1958329
1.1960113
1.1961839
1.1963498
1.1965084
1.196659
1.196801
1.1882921
1.1883193
1.1883451
1.1883736
1.1884068
1.1884448
1.188487
1.1885333
1.1885834
1.1886369
1.188694
1.1887554
1.1888194
1.1888864
1.1889565
1.1890297
1.1891053
1.1891836
1.1892644
1.1893475
1.1894326
1.1895197
1.1896085
1.189699
1.1897911
1.1898847
1.1899795
1.1900755
1.1901726
1.1902704
1.1903697
1.1904702
1.1905715
1.1906738
1.1907774
1.1908813
1.1909868
1.1910947
1.191204
1.1913155
1.1914296
1.1915452
1.1916626
1.1917835
1.191909
1.1920381
1.1921707
1.1923071
1.1924485
1.1925945
1.1927451
1.1929008
1.1930614
1.1932268
1.1933971
1.193572
1.1937512
1.1939341
1.1941204
1.1943093
1.1945003
1.1946924
1.194885
1.195077
1.1952675
1.1954557
1.1956405
1.195821
1.1959964
1.1961658
1.1963285
1.1964837
1.1966308
1.1967695
1.1882774
1.1882971
1.1883154
1.1883393
1.1883673
1.1884004
1.1884379
1.1884796
1.1885252
1.1885744
1.1886268
1.1886833
1.1887434
1.1888061
1.1888724
1.1889419
1.1890139
1.1890889
1.1891665
1.1892468
1.1893294
1.1894143
1.1895014
1.1895905
1.1896815
1.1897744
1.189869
1.1899651
1.1900628
1.1901618
1.1902624
1.1903645
1.1904679
1.1905727
1.190679
1.1907864
1.190896
1.1910077
1.1911212
1.191237
1.1913546
1.1914748
1.1915981
1.1917248
1.1918555
1.1919891
1.1921259
1.1922673
1.1924138
1.1925643
1.1927189
1.1928787
1.1930428
1.1932114
1.1933844
1.1935616
1.1937426
1.1939268
1.1941138
1.1943031
1.1944938
1.1946853
1.1948768
1.1950673
1.1952559
1.1954418
1.1956241
1.1958018
1.1959742
1.1961405
1.1962999
1.1964518
1.1965957
1.1967312
1.1882635
1.1882752
1.1882868
1.1883051
1.1883287
1.1883571
1.1883901
1.1884272
1.1884682
1.1885131
1.1885613
1.1886128
1.1886686
1.1887273
1.1887893
1.1888549
1.1889235
1.1889951
1.1890696
1.189147
1.189227
1.1893097
1.1893948
1.1894823
1.1895721
1.1896642
1.1897583
1.1898544
1.1899525
1.1900523
1.1901541
1.1902577
1.190363
1.1904702
1.1905791
1.1906899
1.1908028
1.190918
1.1910354
1.1911553
1.1912773
1.1914024
1.1915305
1.1916623
1.1917974
1.1919353
1.1920771
1.1922238
1.1923748
1.192529
1.1926878
1.1928515
1.1930189
1.1931903
1.1933659
1.1935451
1.1937276
1.193913
1.1941006
1.19429
1.1944804
1.1946711
1.1948613
1.1950502
1.1952369
1.1954206
1.1956003
1.1957753
1.1959447
1.1961079
1.1962642
1.1964129
1.1965537
1.1966862
1.1882496
1.1882529
1.1882591
1.1882717
1.1882902
1.1883139
1.1883421
1.1883746
1.1884111
1.1884514
1.1884952
1.1885427
1.188594
1.1886488
1.1887066
1.1887679
1.1888329
1.1889012
1.1889726
1.189047
1.1891245
1.1892047
1.1892878
1.1893737
1.1894621
1.1895532
1.1896468
1.1897428
1.189841
1.1899416
1.1900443
1.1901493
1.1902564
1.1903657
1.1904772
1.1905909
1.190707
1.1908256
1.1909468
1.1910705
1.191197
1.1913265
1.1914592
1.1915955
1.1917348
1.1918775
1.1920245
1.1921758
1.1923304
1.1924884
1.1926519
1.192819
1.1929892
1.1931633
1.1933412
1.1935224
1.1937063
1.1938925
1.1940806
1.1942699
1.1944599
1.1946497
1.1948387
1.1950259
1.1952107
1.195392
1.1955693
1.1957415
1.1959081
1.1960683
1.1962215
1.1963672
1.196505
1.1966347
1.1882336
1.1882289
1.1882294
1.1882367
1.1882503
1.1882692
1.1882929
1.1883209
1.1883528
1.1883887
1.1884282
1.1884714
1.1885184
1.188569
1.188623
1.1886806
1.1887419
1.1888065
1.1888747
1.1889464
1.1890212
1.1890989
1.1891798
1.189264
1.189351
1.1894411
1.189534
1.1896297
1.1897281
1.1898291
1.1899328
1.190039
1.1901478
1.1902591
1.1903729
1.1904894
1.1906086
1.1907305
1.1908552
1.1909828
1.1911133
1.191247
1.191384
1.1915246
1.1916684
1.1918157
1.1919672
1.1921222
1.1922805
1.1924436
1.1926108
1.1927802
1.1929535
1.1931303
1.1933105
1.1934935
1.1936785
1.1938654
1.1940538
1.194243
1.1944324
1.1946212
1.1948088
1.1949944
1.1951772
1.1953563
1.1955311
1.1957007
1.1958645
1.1960218
1.1961721
1.1963149
1.1964499
1.1965769
1.1882147
1.1882021
1.1881967
1.1881989
1.1882078
1.1882223
1.1882415
1.188265
1.1882926
1.1883241
1.1883594
1.1883984
1.1884412
1.1884877
1.1885378
1.1885917
1.1886493
1.1887106
1.1887756
1.1888442
1.1889166
1.1889923
1.1890707
1.1891529
1.1892384
1.1893274
1.1894197
1.1895151
1.1896135
1.1897149
1.1898193
1.1899267
1.190037
1.1901502
1.1902663
1.1903854
1.1905074
1.1906325
1.1907606
1.1908918
1.1910263
1.191164
1.1913052
1.1914498
1.1915979
1.1917496
1.1919051
1.192064
1.1922265
1.1923931
1.1925626
1.1927359
1.192913
1.1930919
1.193274
1.1934583
1.1936442
1.1938317
1.1940203
1.1942092
1.1943979
1.1945857
1.194772
1.1949559
1.1951367
1.1953136
1.195486
1.195653
1.1958141
1.1959687
1.1961162
1.1962563
1.1963886
1.1965131
1.1881905
1.1881711
1.1881601
1.1881575
1.1881619
1.1881721
1.1881871
1.1882064
1.1882299
1.1882572
1.1882883
1.1883233
1.188362
1.1884045
1.1884509
1.1885011
1.1885552
1.1886131
1.1886749
1.1887404
1.1888101
1.1888842
1.1889611
1.1890406
1.1891243
1.1892122
1.1893039
1.1893989
1.1894973
1.189599
1.1897041
1.1898125
1.1899242
1.1900392
1.1901575
1.190279
1.1904037
1.1905318
1.1906632
1.190798
1.1909361
1.1910777
1.1912227
1.1913714
1.1915235
1.1916791
1.1918385
1.1920013
1.1921675
1.1923374
1.1925103
1.1926865
1.1928656
1.1930477
1.1932316
1.1934165
1.1936036
1.1937915
1.1939802
1.1941688
1.1943567
1.1945435
1.1947284
1.1949106
1.1950895
1.1952643
1.1954343
1.1955988
1.1957574
1.1959093
1.1960542
1.1961917
1.1963216
1.1964437
1.1881581
1.1881334
1.188118
1.1881113
1.1881118
1.1881181
1.1881292
1.1881446
1.1881641
1.1881874
1.1882146
1.1882457
1.1882805
1.1883193
1.188362
1.1884086
1.1884593
1.1885139
1.1885726
1.1886353
1.1887021
1.1887735
1.1888498
1.188928
1.1890086
1.1890954
1.1891866
1.1892814
1.1893796
1.1894815
1.1895872
1.1896966
1.1898097
1.1899264
1.1900466
1.1901705
1.1902979
1.1904288
1.1905633
1.1907014
1.190843
1.1909883
1.1911371
1.1912894
1.1914454
1.1916048
1.1917678
1.1919342
1.1921039
1.1922769
1.1924529
1.1926318
1.1928133
1.1929969
1.1931821
1.1933694
1.1935572
1.1937453
1.1939339
1.194122
1.1943092
1.1944949
1.1946783
1.1948589
1.1950359
1.1952086
1.1953764
1.1955385
1.1956946
1.1958441
1.1959865
1.1961216
1.1962492
1.1963692
1.1881173
1.1880889
1.1880703
1.1880602
1.1880572
1.18806
1.1880675
1.1880792
1.1880951
1.1881148
1.1881383
1.1881656
1.1881968
1.188232
1.1882711
1.1883144
1.1883617
1.1884133
1.188469
1.1885289
1.1885929
1.1886613
1.1887358
1.1888141
1.1888928
1.1889775
1.1890684
1.189163
1.1892607
1.1893627
1.1894691
1.1895794
1.1896937
1.189812
1.1899342
1.1900602
1.1901901
1.1903238
1.1904613
1.1906026
1.1907476
1.1908962
1.1910486
1.1912045
1.191364
1.191527
1.1916934
1.1918631
1.192036
1.192212
1.1923907
1.1925721
1.1927557
1.1929411
1.1931279
1.1933162
1.1935049
1.193694
1.1938819
1.1940692
1.1942556
1.1944402
1.1946222
1.1948011
1.1949763
1.195147
1.1953126
1.1954726
1.1956263
1.1957735
1.1959136
1.1960464
1.1961719
1.1962898
1.1880702
1.1880386
1.188017
1.1880039
1.1879979
1.1879976
1.1880019
1.1880105
1.188023
1.1880393
1.1880595
1.1880834
1.1881112
1.1881429
1.1881788
1.1882188
1.188263
1.1883116
1.1883645
1.1884217
1.188483
1.1885484
1.1886207
1.188698
1.1887769
1.1888592
1.1889499
1.1890438
1.1891407
1.1892428
1.1893496
1.1894608
1.1895764
1.1896961
1.1898201
1.1899483
1.1900806
1.1902169
1.1903572
1.1905015
1.1906499
1.1908019
1.1909575
1.1911168
1.1912796
1.1914459
1.1916156
1.1917884
1.1919643
1.1921429
1.1923243
1.1925079
1.1926934
1.1928805
1.1930687
1.1932579
1.1934476
1.1936365
1.1938243
1.1940109
1.1941964
1.1943799
1.1945604
1.1947379
1.1949113
1.1950801
1.1952436
1.1954014
1.195553
1.195698
1.1958359
1.1959667
1.1960901
1.1962063
1.1880155
1.1879819
1.1879581
1.1879427
1.1879341
1.1879312
1.1879328
1.1879383
1.1879477
1.1879608
1.1879777
1.1879984
1.188023
1.1880516
1.1880843
1.1881213
1.1881626
1.1882083
1.1882586
1.1883134
1.188373
1.188438
1.1885084
1.1885832
1.1886602
1.1887398
1.1888272
1.1889212
1.1890196
1.1891223
1.1892295
1.1893414
1.1894579
1.1895791
1.1897047
1.1898347
1.1899691
1.1901077
1.1902506
1.1903976
1.1905489
1.1907041
1.190863
1.1910256
1.1911917
1.1913613
1.1915341
1.1917099
1.1918885
1.1920698
1.1922537
1.1924394
1.1926267
1.1928153
1.1930047
1.1931947
1.1933848
1.1935739
1.1937619
1.1939479
1.194132
1.1943145
1.1944936
1.1946696
1.1948413
1.1950082
1.1951699
1.1953257
1.1954752
1.1956181
1.1957541
1.1958829
1.1960046
1.1961192
1.1879525
1.1879188
1.1878938
1.1878767
1.1878664
1.1878612
1.1878601
1.1878629
1.1878694
1.1878797
1.1878936
1.1879113
1.1879329
1.1879585
1.1879883
1.1880224
1.1880609
1.188104
1.1881518
1.1882045
1.1882624
1.1883263
1.1883932
1.1884647
1.1885429
1.1886229
1.1887069
1.1887998
1.188899
1.1890023
1.1891101
1.1892229
1.1893406
1.1894631
1.1895903
1.1897222
1.1898587
1.1899996
1.1901449
1.1902941
1.1904472
1.1906049
1.1907666
1.1909321
1.1911011
1.1912735
1.1914491
1.1916276
1.1918087
1.1919923
1.1921784
1.1923662
1.1925553
1.1927454
1.192936
1.1931268
1.1933174
1.1935072
1.1936949
1.1938805
1.1940633
1.1942449
1.1944224
1.1945969
1.1947671
1.1949323
1.1950921
1.195246
1.1953936
1.1955347
1.1956688
1.1957959
1.1959159
1.1960292
1.1878828
1.1878501
1.1878245
1.1878063
1.1877943
1.187787
1.1877839
1.1877845
1.1877888
1.1877966
1.187808
1.187823
1.1878419
1.1878648
1.1878919
1.1879233
1.1879592
1.1879998
1.1880451
1.1880954
1.1881509
1.1882115
1.1882756
1.1883458
1.1884261
1.1885078
1.18859
1.1886817
1.1887799
1.1888833
1.1889917
1.1891054
1.1892242
1.1893481
1.1894771
1.189611
1.1897496
1.1898929
1.1900407
1.1901927
1.1903483
1.1905083
1.1906725
1.1908405
1.1910121
1.1911869
1.1913648
1.1915456
1.1917288
1.191914
1.1921007
1.1922899
1.1924805
1.1926718
1.1928635
1.193055
1.193246
1.1934359
1.193624
1.193809
1.1939909
1.1941714
1.1943475
1.1945207
1.1946893
1.1948529
1.195011
1.1951632
1.1953091
1.1954483
1.1955808
1.1957063
1.1958247
1.1959366
1.1878073
1.1877764
1.1877509
1.1877318
1.1877184
1.1877099
1.1877052
1.1877041
1.1877063
1.187712
1.1877211
1.1877338
1.1877503
1.1877707
1.1877953
1.1878242
1.1878576
1.1878958
1.1879389
1.1879869
1.1880402
1.1880988
1.1881621
1.1882311
1.1883082
1.1883901
1.1884721
1.1885637
1.1886615
1.1887647
1.1888735
1.1889879
1.1891077
1.1892329
1.1893633
1.1894989
1.1896395
1.1897849
1.189935
1.1900898
1.190249
1.1904119
1.1905788
1.1907493
1.1909234
1.1911006
1.1912808
1.1914637
1.191649
1.1918362
1.1920243
1.1922143
1.1924056
1.1925976
1.1927897
1.1929815
1.1931724
1.1933618
1.1935499
1.1937343
1.1939156
1.1940948
1.1942696
1.1944414
1.1946086
1.1947706
1.194927
1.1950776
1.1952218
1.1953595
1.1954904
1.1956144
1.1957312
1.1958404
1.1934296
1.1937047
1.1935888
1.193324
1.1930333
1.1927741
1.1925326
1.1923119
1.1921263
1.1934435
1.1937737
1.1935992
1.1933397
1.1930593
1.1928035
1.1925642
1.1923451
1.1921639
1.1932499
1.1936552
1.1935288
1.1933207
1.1930701
1.1928252
1.1925914
1.1923752
1.1921969
1.1930771
1.1935124
1.193478
1.1933125
1.1930867
1.1928512
1.192622
1.1924084
1.1922319
1.1929361
1.193393
1.1934273
1.1933064
1.1931004
1.1928745
1.1926505
1.1924403
1.1922658
1.1928095
1.1932881
1.1933739
1.1932921
1.1931066
1.1928923
1.192675
1.1924694
1.1922977
1.1927002
1.193184
1.1933155
1.1932699
1.1931066
1.1929057
1.1926964
1.1924964
1.1923283
1.1926147
1.1930852
1.1932556
1.1932437
1.1931032
1.1929164
1.1927161
1.1925225
1.1923583
1.1925489
1.192999
1.1931993
1.1932168
1.1930983
1.1929259
1.1927349
1.1925482
1.1923885
1.1924973
1.1929276
1.1931492
1.1931913
1.1930935
1.1929353
1.1927539
1.1925744
1.1924194
1.1924587
1.1928704
1.1931063
1.1931688
1.19309
1.1929455
1.1927738
1.1926015
1.1924515
1.1924333
1.1928272
1.1930716
1.1931505
1.1930889
1.1929573
1.1927951
1.1926301
1.1924851
1.1924207
1.1927977
1.1930457
1.1931374
1.1930911
1.1929715
1.1928184
1.1926605
1.1925207
1.1924198
1.1927808
1.1930287
1.1931303
1.1930973
1.1929887
1.1928443
1.1926933
1.1925584
1.192429
1.1927751
1.1930207
1.1931296
1.1931079
1.1930093
1.1928729
1.1927285
1.1925985
1.1924469
1.1927799
1.1930215
1.1931354
1.1931232
1.1930333
1.1929046
1.1927663
1.192641
1.1924723
1.1927937
1.1930303
1.1931474
1.1931431
1.1930611
1.1929392
1.1928068
1.1926859
1.1925031
1.1928151
1.1930462
1.1931653
1.1931675
1.1930923
1.1929768
1.1928498
1.1927331
1.1925381
1.192841
1.1930679
1.1931884
1.193196
1.1931269
1.1930171
1.1928952
1.1927825
1.1925762
1.192871
1.1930947
1.193216
1.1932281
1.1931644
1.19306
1.1929427
1.1928338
1.1926146
1.1929041
1.1931253
1.1932471
1.1932632
1.1932044
1.1931048
1.192992
1.1928867
1.1926524
1.1929388
1.1931584
1.1932808
1.1933005
1.1932463
1.1931512
1.1930425
1.1929406
1.1926895
1.1929739
1.1931926
1.1933159
1.1933392
1.1932894
1.1931987
1.1930939
1.1929953
1.1927254
1.1930082
1.1932265
1.1933513
1.1933784
1.193333
1.1932465
1.1931457
1.1930503
1.1927589
1.1930399
1.1932589
1.1933861
1.1934172
1.1933763
1.1932942
1.1931972
1.1931049
1.1927884
1.1930679
1.1932886
1.193419
1.1934547
1.1934186
1.193341
1.1932479
1.1931588
1.1928135
1.1930916
1.1933146
1.1934491
1.1934901
1.1934591
1.1933862
1.1932972
1.1932112
1.1928338
1.1931102
1.1933362
1.1934755
1.1935224
1.1934972
1.1934293
1.1933445
1.1932619
1.1928491
1.1931233
1.1933524
1.1934975
1.1935511
1.1935322
1.1934697
1.1933893
1.1933102
1.1928594
1.1931309
1.193363
1.1935144
1.1935754
1.1935635
1.1935069
1.1934312
1.1933556
1.1928645
1.1931329
1.1933678
1.1935258
1.1935948
1.1935905
1.1935403
1.1934698
1.1933979
1.1928644
1.1931289
1.1933666
1.1935313
1.1936091
1.193613
1.1935697
1.1935046
1.1934368
1.1928598
1.1931193
1.1933591
1.1935307
1.1936178
1.1936307
1.1935948
1.1935355
1.1934719
1.1928511
1.1931046
1.1933454
1.1935241
1.193621
1.1936435
1.1936155
1.1935625
1.1935032
1.1928388
1.1930854
1.1933263
1.1935119
1.1936189
1.1936514
1.1936319
1.1935854
1.1935308
1.1928237
1.1930627
1.1933026
1.1934945
1.1936117
1.1936548
1.1936442
1.1936045
1.1935547
1.1928064
1.1930372
1.1932753
1.1934729
1.1936002
1.193654
1.1936526
1.1936201
1.1935754
1.192788
1.19301
1.1932453
1.1934477
1.1935849
1.1936497
1.1936579
1.1936328
1.1935932
1.1927702
1.1929825
1.1932137
1.1934203
1.1935671
1.1936428
1.1936608
1.1936433
1.1936089
1.1927537
1.192956
1.1931824
1.1933921
1.1935479
1.1936344
1.1936621
1.1936522
1.1936233
1.1927393
1.192932
1.1931528
1.1933647
1.1935286
1.1936256
1.193663
1.1936608
1.1936372
1.1927282
1.192912
1.1931267
1.1933395
1.1935108
1.1936177
1.1936646
1.19367
1.1936518
1.1927216
1.1928968
1.1931052
1.1933182
1.193496
1.1936123
1.1936683
1.1936812
1.1936682
1.19272
1.1928874
1.1930896
1.1933022
1.1934856
1.1936106
1.1936754
1.1936955
1.1936877
1.1927246
1.192885
1.1930813
1.193293
1.1934811
1.1936142
1.1936873
1.1937142
1.1937115
1.1927361
1.1928904
1.1930815
1.1932919
1.193484
1.1936244
1.1937052
1.1937387
1.1937408
1.1927554
1.1929047
1.1930911
1.1933002
1.1934956
1.1936425
1.1937304
1.19377
1.1937768
1.1927832
1.1929286
1.193111
1.1933188
1.193517
1.1936696
1.193764
1.1938093
1.1938205
1.1928203
1.1929627
1.1931419
1.1933486
1.1935491
1.1937067
1.1938068
1.1938574
1.1938729
1.192867
1.1930075
1.1931844
1.1933902
1.1935927
1.1937545
1.1938598
1.1939153
1.1939348
1.1929239
1.1930634
1.1932389
1.1934441
1.1936482
1.1938136
1.1939234
1.1939834
1.1940066
1.1929912
1.1931304
1.1933055
1.1935105
1.1937159
1.1938843
1.193998
1.194062
1.1940887
1.1930689
1.1932089
1.1933843
1.1935894
1.1937958
1.1939665
1.1940836
1.1941513
1.1941812
1.1931554
1.1932988
1.1934755
1.1936807
1.1938877
1.1940603
1.1941801
1.1942509
1.1942838
1.1932597
1.1934031
1.1935792
1.193784
1.1939913
1.1941652
1.1942872
1.1943607
1.1943962
1.1933767
1.1935187
1.1936943
1.1938989
1.194106
1.1942806
1.1944043
1.19448
1.1945179
1.1934982
1.1936427
1.1938199
1.1940244
1.194231
1.1944057
1.1945305
1.194608
1.194648
1.1936343
1.1937786
1.1939561
1.1941599
1.1943654
1.1945397
1.194665
1.1947439
1.1947856
1.1937797
1.1939244
1.1941019
1.1943044
1.1945081
1.1946813
1.1948066
1.1948865
1.1949297
1.1939352
1.1940794
1.1942563
1.1944568
1.1946581
1.1948296
1.1949543
1.1950346
1.195079
1.1940993
1.1942427
1.1944182
1.194616
1.1948141
1.1949833
1.1951069
1.1951872
1.1952322
1.1942716
1.1944133
1.1945866
1.1947809
1.1949751
1.1951412
1.195263
1.1953428
1.1953883
1.1944513
1.1945903
1.1947605
1.1949504
1.1951398
1.195302
1.1954214
1.1955003
1.1955459
1.1946371
1.1947725
1.1949386
1.1951232
1.1953071
1.1954647
1.1955812
1.1956587
1.195704
1.194828
1.1949588
1.19512
1.1952984
1.1954759
1.1956283
1.1957411
1.1958168
1.1958615
1.1950226
1.1951483
1.1953035
1.195475
1.1956453
1.1957918
1.1959005
1.1959739
1.1960176
1.19522
1.1953398
1.1954884
1.1956521
1.1958146
1.1959545
1.1960587
1.1961293
1.1961716
1.195419
1.1955324
1.1956737
1.1958289
1.1959831
1.1961159
1.196215
1.1962825
1.1963232
1.1956186
1.1957252
1.1958586
1.196005
1.1961502
1.1962756
1.1963692
1.1964333
1.1964721
1.1958177
1.1959171
1.1960424
1.1961795
1.1963156
1.1964332
1.1965211
1.1965815
1.1966184
1.1960152
1.1961073
1.1962242
1.1963521
1.1964789
1.1965884
1.1966706
1.1967272
1.196762
1.19621
1.1962949
1.1964035
1.196522
1.1966395
1.1967412
1.1968175
1.1968705
1.1969032
1.196401
1.1964789
1.1965793
1.1966888
1.1967973
1.1968912
1.1969619
1.1970113
1.1970421
1.1965872
1.1966582
1.1967507
1.1968516
1.1969514
1.197038
1.1971035
1.1971498
1.197179
1.1967673
1.1968319
1.1969169
1.1970096
1.1971015
1.1971813
1.1972421
1.1972857
1.1973137
1.1969405
1.1969989
1.197077
1.1971621
1.1972465
1.1973203
1.1973771
1.1974185
1.1974459
1.1971055
1.1971584
1.1972298
1.197308
1.1973858
1.1972614
1.1919092
1.1916804
1.1914909
1.191335
1.1912057
1.1910976
1.1910058