/*--------------------------------*- C++ -*----------------------------------*\
| =========                 |                                                 |
| \\      /  F ield         | OpenFOAM: The Open Source CFD Toolbox           |
|  \\    /   O peration     | Version:  2406                                  |
|   \\  /    A nd           | Website:  www.openfoam.com                      |
|    \\/     M anipulation  |                                                 |
\*---------------------------------------------------------------------------*/
FoamFile
{
    version     2.0;
    format      ascii;
    arch        "LSB;label=32;scalar=64";
    class       volScalarField;
    location    "0.008";
    object      T;
}
// * * * * * * * * * * * * * * * * * * * * * * * * * * * * * * * * * * * * * //

dimensions      [0 0 0 1 0 0 0];

internalField   nonuniform List<scalar> 
8950
(
291.89413
291.90311
291.91362
291.92648
291.93987
291.95253
291.96386
291.97371
291.98225
291.98968
291.99617
292.00194
292.00709
292.01189
292.01651
292.02118
292.02604
292.03135
292.03719
292.04365
292.05085
292.05889
292.06787
292.07784
292.08874
292.10053
292.1132
292.12671
292.14098
292.15592
292.17145
292.18743
292.20374
292.22024
292.23682
292.25335
292.26972
292.28585
292.30164
292.31705
292.33206
292.34667
292.36092
292.37485
292.38852
292.40201
292.41538
292.42871
292.4421
292.45562
292.46934
292.48335
292.49767
292.5124
292.52756
292.54302
292.55896
292.57522
292.59182
292.60874
292.62581
292.64309
292.66045
292.67779
292.695
292.71199
292.72869
292.74501
292.7609
292.77631
292.79123
292.80565
292.8196
292.83312
292.84627
292.85912
292.87176
292.88426
292.04102
292.03521
292.03231
292.03258
292.03446
292.03678
292.039
292.04103
292.04292
292.04476
292.04663
292.04863
292.05084
292.05337
292.05634
292.05985
292.06402
292.06896
292.07469
292.08124
292.08867
292.09699
292.10623
292.1164
292.12744
292.13928
292.15184
292.16507
292.17888
292.19316
292.20782
292.22272
292.23776
292.25281
292.26779
292.28259
292.29716
292.31142
292.32534
292.33891
292.35215
292.36507
292.37774
292.39021
292.40257
292.41488
292.42722
292.43968
292.45234
292.46526
292.47853
292.49218
292.50626
292.52079
292.53592
292.55139
292.56732
292.5837
292.60035
292.61738
292.63442
292.65172
292.66906
292.68633
292.7034
292.7202
292.73666
292.75271
292.76829
292.78339
292.79799
292.81211
292.82579
292.83907
292.85203
292.86473
292.87725
292.17991
292.16444
292.1518
292.14187
292.1339
292.12725
292.12159
292.11681
292.11289
292.10979
292.10753
292.10613
292.10558
292.10589
292.10711
292.10926
292.11238
292.11649
292.12157
292.12761
292.13458
292.14247
292.15125
292.16088
292.17129
292.1824
292.1941
292.20632
292.21897
292.23193
292.24512
292.25841
292.27171
292.28492
292.29798
292.31083
292.32342
292.33572
292.34775
292.35951
292.37102
292.38234
292.39353
292.40466
292.41581
292.42706
292.43848
292.45016
292.46216
292.47456
292.4874
292.50074
292.51459
292.52898
292.54402
292.55945
292.57539
292.59181
292.60849
292.62561
292.64255
292.6598
292.67706
292.6942
292.7111
292.72768
292.74389
292.75966
292.77495
292.78976
292.80408
292.81795
292.83141
292.84451
292.85733
292.86993
292.88239
292.3006
292.28076
292.26302
292.24712
292.23295
292.22032
292.20913
292.19934
292.19093
292.18386
292.17812
292.17369
292.17051
292.16854
292.16776
292.16818
292.16976
292.17247
292.17627
292.1811
292.1869
292.19362
292.20119
292.20956
292.21863
292.22831
292.2385
292.2491
292.26003
292.27118
292.28246
292.29378
292.30505
292.3162
292.3272
292.33801
292.3486
292.35898
292.36917
292.37919
292.38908
292.39891
292.40873
292.41863
292.42868
292.43896
292.44954
292.4605
292.4719
292.48379
292.49623
292.50925
292.52287
292.53711
292.552
292.56736
292.58327
292.59963
292.61626
292.63333
292.65036
292.66743
292.6845
292.70148
292.71817
292.73452
292.75047
292.76597
292.781
292.79555
292.80964
292.82331
292.8366
292.84958
292.86231
292.87485
292.88729
292.39981
292.37906
292.35974
292.34157
292.32467
292.3091
292.29494
292.28222
292.27097
292.26119
292.25291
292.24608
292.24066
292.23658
292.23382
292.23236
292.23216
292.23314
292.23526
292.23842
292.24257
292.24761
292.25348
292.26009
292.26735
292.27515
292.28341
292.29203
292.30092
292.30999
292.31916
292.32835
292.3375
292.34656
292.3555
292.36431
292.37298
292.38155
292.39001
292.39842
292.40682
292.41526
292.42384
292.4326
292.44163
292.45101
292.4608
292.47107
292.48187
292.49327
292.50529
292.51797
292.53131
292.54534
292.56003
292.57526
292.59106
292.60728
292.62383
292.64064
292.65774
292.67461
292.69147
292.70821
292.72466
292.74077
292.75647
292.77172
292.78651
292.80085
292.81475
292.82828
292.84145
292.85435
292.86704
292.87958
292.47814
292.45845
292.43969
292.4216
292.40435
292.38809
292.37297
292.3591
292.34654
292.33534
292.32555
292.31716
292.31012
292.3044
292.29998
292.29685
292.29494
292.29421
292.29457
292.29596
292.2983
292.3015
292.30548
292.31016
292.31543
292.32122
292.32742
292.33395
292.34074
292.34769
292.35475
292.36185
292.36894
292.376
292.38301
292.38997
292.39688
292.40377
292.41066
292.41759
292.42462
292.43181
292.43923
292.44695
292.45502
292.46354
292.47256
292.48215
292.49236
292.50323
292.5148
292.52708
292.5401
292.55384
292.56825
292.58327
292.59886
292.61487
292.63124
292.64784
292.66471
292.68135
292.69802
292.71449
292.73069
292.74654
292.76199
292.77701
292.7916
292.80576
292.81953
292.83295
292.84606
292.85894
292.87163
292.8842
292.53887
292.52102
292.5038
292.48698
292.47066
292.45502
292.44023
292.42641
292.41366
292.40206
292.39166
292.38248
292.37452
292.36774
292.36215
292.35773
292.35445
292.35226
292.35109
292.35088
292.35154
292.35301
292.35519
292.35802
292.3614
292.36525
292.3695
292.37406
292.37887
292.38386
292.38897
292.39415
292.39938
292.40464
292.40991
292.41521
292.42054
292.42593
292.43141
292.43702
292.44282
292.44886
292.45521
292.46194
292.46912
292.47681
292.48508
292.49398
292.50356
292.51387
292.52493
292.53676
292.54937
292.56273
292.5768
292.59151
292.60679
292.62252
292.63861
292.65493
292.67146
292.68786
292.70427
292.72043
292.73639
292.75197
292.7672
292.782
292.79643
292.81045
292.82411
292.83749
292.85057
292.86346
292.87621
292.88884
292.58571
292.56996
292.55462
292.53945
292.52461
292.5102
292.49641
292.48334
292.47109
292.45974
292.44938
292.44004
292.4317
292.4244
292.41812
292.41288
292.40864
292.40536
292.403
292.40149
292.40077
292.40077
292.40143
292.40266
292.40439
292.40657
292.40911
292.41195
292.41503
292.41831
292.42173
292.42526
292.42887
292.43257
292.43634
292.4402
292.44415
292.44823
292.45247
292.4569
292.46159
292.46659
292.47196
292.47777
292.48408
292.49096
292.49848
292.50668
292.51561
292.52532
292.53582
292.54713
292.55926
292.57216
292.5858
292.6001
292.61499
292.63034
292.64607
292.66204
292.67819
292.6943
292.71037
292.72625
292.74192
292.75725
292.77226
292.78688
292.80116
292.81509
292.82867
292.84205
292.85514
292.86809
292.88091
292.89363
292.62223
292.60848
292.59495
292.58153
292.56827
292.55531
292.54278
292.53076
292.51934
292.50864
292.49871
292.4896
292.48132
292.4739
292.46734
292.46166
292.45684
292.45285
292.44966
292.44721
292.44545
292.44432
292.44377
292.44373
292.44414
292.44495
292.4461
292.44753
292.4492
292.45106
292.45308
292.45524
292.45752
292.45991
292.46242
292.46506
292.46784
292.47079
292.47394
292.47734
292.48104
292.48509
292.48956
292.4945
292.49999
292.5061
292.51286
292.52035
292.52861
292.53767
292.54757
292.5583
292.56987
292.58225
292.59538
292.60919
292.6236
292.6385
292.65379
292.66935
292.68508
292.70083
292.71655
292.73211
292.74749
292.76257
292.77737
292.79184
292.80599
292.81986
292.8334
292.84679
292.85994
292.87296
292.8859
292.6512
292.63925
292.62745
292.61563
292.60392
292.59238
292.58115
292.57024
292.55982
292.54992
292.54064
292.532
292.52404
292.51677
292.51023
292.50441
292.49933
292.49494
292.49124
292.48817
292.4857
292.48377
292.48234
292.48135
292.48076
292.48053
292.48061
292.48094
292.4815
292.48225
292.48317
292.48423
292.48543
292.48677
292.48824
292.48987
292.49166
292.49366
292.49588
292.49838
292.5012
292.5044
292.50804
292.51218
292.5169
292.52224
292.52827
292.53505
292.54262
292.55101
292.56026
292.57037
292.58133
292.59311
292.60566
292.61891
292.63278
292.64716
292.66196
292.67704
292.69232
292.70766
292.72301
292.73824
292.75332
292.76816
292.78276
292.79709
292.81114
292.82496
292.83852
292.85189
292.86512
292.87824
292.89131
292.67477
292.66447
292.65415
292.64383
292.63351
292.62331
292.61326
292.60349
292.59405
292.58503
292.57647
292.56844
292.56093
292.55401
292.54767
292.54195
292.53682
292.53229
292.52833
292.52492
292.522
292.51955
292.51753
292.51589
292.5146
292.51362
292.51291
292.51244
292.51217
292.51208
292.51215
292.51237
292.51273
292.51323
292.51388
292.51468
292.51567
292.51686
292.5183
292.52002
292.52207
292.52451
292.5274
292.53081
292.53479
292.53941
292.54473
292.55081
292.55768
292.56539
292.57397
292.58342
292.59372
292.60486
292.61679
292.62943
292.6427
292.65651
292.67075
292.68532
292.70012
292.71503
292.72998
292.74487
292.75964
292.77424
292.78865
292.80284
292.8168
292.83058
292.84417
292.85756
292.87088
292.8841
292.89727
292.69461
292.68569
292.67672
292.66769
292.65863
292.6496
292.64068
292.63195
292.62347
292.6153
292.60751
292.60012
292.59317
292.58668
292.58068
292.57518
292.57019
292.5657
292.56168
292.55813
292.55499
292.55225
292.54987
292.54782
292.54607
292.54459
292.54335
292.54231
292.54145
292.54076
292.54021
292.5398
292.53953
292.53939
292.53939
292.53954
292.53988
292.54041
292.54119
292.54225
292.54364
292.54542
292.54764
292.55037
292.55367
292.55761
292.56225
292.56764
292.57384
292.58087
292.58876
292.59753
292.60716
292.61763
292.62889
292.64088
292.65352
292.66672
292.68038
292.69441
292.7087
292.72315
292.73768
292.75221
292.76668
292.78104
292.79525
292.80931
292.82319
292.83693
292.85053
292.86397
292.87737
292.89067
292.90395
292.71185
292.70413
292.69633
292.68843
292.68047
292.67251
292.66461
292.65683
292.64924
292.6419
292.63485
292.62813
292.62175
292.61576
292.61018
292.60501
292.60027
292.59594
292.59202
292.58848
292.58529
292.58243
292.57989
292.57762
292.57561
292.57384
292.57226
292.57086
292.56961
292.5685
292.56752
292.56667
292.56594
292.56532
292.56483
292.56449
292.56431
292.56432
292.56456
292.56507
292.56589
292.56709
292.56872
292.57085
292.57354
292.57685
292.58085
292.5856
292.59113
292.59749
292.60471
292.6128
292.62174
292.63152
292.6421
292.65342
292.66541
292.67798
292.69104
292.7045
292.71826
292.73223
292.74634
292.7605
292.77465
292.78875
292.80277
292.81668
292.83047
292.84417
292.85776
292.87126
292.88472
292.8981
292.91149
292.72725
292.72059
292.71382
292.70693
292.69995
292.69295
292.68596
292.67906
292.6723
292.66573
292.6594
292.65333
292.64754
292.64207
292.63695
292.63217
292.62776
292.62369
292.61996
292.61655
292.61345
292.61062
292.60806
292.60573
292.60362
292.6017
292.59995
292.59834
292.59686
292.5955
292.59425
292.59311
292.59206
292.59111
292.59027
292.58955
292.58898
292.58859
292.58841
292.58847
292.58882
292.58954
292.59066
292.59226
292.5944
292.59714
292.60056
292.60469
292.6096
292.61532
292.62188
292.6293
292.63757
292.64666
292.65656
292.6672
292.67852
292.69045
292.70289
292.71577
292.72899
292.74248
292.75614
292.76991
292.78374
292.79758
292.81138
292.82514
292.83883
292.85246
292.86604
292.87956
292.89305
292.9065
292.91998
292.74138
292.73565
292.72979
292.7238
292.7177
292.71156
292.70541
292.69932
292.69333
292.68749
292.68184
292.67641
292.67122
292.66629
292.66165
292.65731
292.65327
292.64952
292.64606
292.64287
292.63994
292.63724
292.63477
292.63249
292.6304
292.62846
292.62667
292.62499
292.62341
292.62194
292.62054
292.61923
292.61799
292.61682
292.61574
292.61477
292.61393
292.61324
292.61273
292.61245
292.61244
292.61275
292.61345
292.6146
292.61626
292.6185
292.62138
292.62496
292.62928
292.6344
292.64034
292.64711
292.65471
292.66314
292.67236
292.68233
292.69299
292.70427
292.7161
292.72839
292.74106
292.75405
292.76726
292.78064
292.79412
292.80767
292.82124
292.83482
292.84838
292.86193
292.87546
292.88898
292.90249
292.91598
292.75459
292.74969
292.74465
292.73947
292.73417
292.72881
292.72344
292.7181
292.71283
292.70768
292.7027
292.69789
292.69328
292.6889
292.68476
292.68088
292.67725
292.67387
292.67073
292.66783
292.66514
292.66266
292.66036
292.65822
292.65624
292.65438
292.65263
292.65098
292.64941
292.64791
292.64648
292.6451
292.64378
292.64251
292.64131
292.64019
292.63917
292.63827
292.63754
292.637
292.63671
292.63672
292.63708
292.63786
292.63911
292.64092
292.64333
292.64641
292.65021
292.65476
292.66011
292.66628
292.67325
292.68103
292.6896
292.69891
292.70892
292.71956
292.73077
292.74248
292.7546
292.76708
292.77983
292.79279
292.80592
292.81916
292.83248
292.84585
292.85926
292.87269
292.88615
292.89961
292.9131
292.92659
292.76713
292.76297
292.75867
292.75423
292.74967
292.74504
292.74038
292.73574
292.73116
292.72668
292.72232
292.71812
292.71409
292.71026
292.70664
292.70323
292.70004
292.69706
292.69429
292.69172
292.68933
292.68712
292.68506
292.68314
292.68133
292.67963
292.67802
292.67648
292.675
292.67357
292.67219
292.67083
292.66951
292.66822
292.66698
292.66579
292.66469
292.66369
292.66283
292.66213
292.66165
292.66143
292.66154
292.66203
292.66296
292.6644
292.66641
292.66905
292.67237
292.67642
292.68124
292.68683
292.69322
292.70038
292.70833
292.71701
292.72638
292.7364
292.74701
292.75813
292.76971
292.78166
292.79394
292.80648
292.81923
292.83214
292.84518
292.85831
292.87153
292.88481
292.89814
292.91152
292.92494
292.93838
292.77915
292.77565
292.77204
292.76827
292.76439
292.76044
292.75645
292.75248
292.74855
292.74471
292.74098
292.73737
292.73392
292.73063
292.72752
292.7246
292.72187
292.71932
292.71695
292.71475
292.7127
292.7108
292.70903
292.70737
292.70581
292.70433
292.70292
292.70157
292.70025
292.69897
292.6977
292.69645
292.69521
292.69399
292.69279
292.69163
292.69052
292.68949
292.68857
292.68779
292.6872
292.68684
292.68679
292.68708
292.68776
292.68891
292.69058
292.69285
292.69576
292.69937
292.7037
292.70878
292.71461
292.72121
292.72856
292.73664
292.74541
292.75483
292.76485
292.7754
292.78642
292.79786
292.80966
292.82175
292.8341
292.84665
292.85938
292.87225
292.88524
292.89832
292.91149
292.92474
292.93804
292.95137
292.79072
292.78783
292.78484
292.78171
292.77846
292.77515
292.77181
292.76848
292.76518
292.76196
292.75882
292.75581
292.75292
292.75017
292.74758
292.74515
292.74289
292.74079
292.73884
292.73703
292.73536
292.73381
292.73237
292.73102
292.72975
292.72855
292.7274
292.72628
292.72519
292.72411
292.72304
292.72196
292.72088
292.71979
292.71872
292.71765
292.71662
292.71565
292.71475
292.71398
292.71336
292.71294
292.71278
292.71293
292.71344
292.71438
292.71581
292.71777
292.72033
292.72355
292.72745
292.73207
292.73741
292.74348
292.75028
292.7578
292.766
292.77485
292.78429
292.79428
292.80476
292.81568
292.82699
292.83863
292.85055
292.86273
292.87511
292.88768
292.90039
292.91324
292.9262
292.93926
292.95239
292.96557
292.80184
292.79954
292.79712
292.79459
292.79196
292.78926
292.78653
292.78381
292.78113
292.7785
292.77596
292.77352
292.77118
292.76898
292.76691
292.76498
292.76319
292.76154
292.76003
292.75864
292.75737
292.7562
292.75512
292.75412
292.75318
292.75229
292.75144
292.75062
292.7498
292.74899
292.74816
292.74732
292.74646
292.74558
292.7447
292.74381
292.74293
292.74208
292.74129
292.7406
292.74003
292.73963
292.73945
292.73954
292.73996
292.74076
292.742
292.74372
292.74599
292.74888
292.75242
292.75664
292.76153
292.76713
292.77344
292.78044
292.7881
292.7964
292.8053
292.81475
292.8247
292.8351
292.84591
292.85708
292.86857
292.88033
292.89235
292.90457
292.91698
292.92954
292.94225
292.95506
292.96797
292.98093
292.81254
292.81077
292.8089
292.80694
292.80488
292.80278
292.80065
292.79853
292.79643
292.79439
292.79243
292.79055
292.78876
292.78709
292.78554
292.78411
292.7828
292.78162
292.78055
292.7796
292.77874
292.77797
292.77727
292.77665
292.77607
292.77554
292.77503
292.77453
292.77404
292.77353
292.77301
292.77246
292.77188
292.77127
292.77064
292.76999
292.76933
292.76868
292.76808
292.76754
292.76709
292.76679
292.76667
292.76679
292.76719
292.76792
292.76905
292.77061
292.77267
292.77528
292.7785
292.78235
292.78687
292.79206
292.79792
292.80445
292.81162
292.81941
292.82779
292.83672
292.84615
292.85604
292.86636
292.87705
292.88808
292.89942
292.91103
292.92288
292.93493
292.94717
292.95957
292.9721
292.98473
292.99742
292.82273
292.82148
292.82015
292.81873
292.81725
292.81571
292.81416
292.81261
292.8111
292.80963
292.80823
292.8069
292.80566
292.80451
292.80347
292.80254
292.80171
292.801
292.80039
292.79987
292.79944
292.79908
292.79879
292.79856
292.79838
292.79822
292.79809
292.79796
292.79782
292.79767
292.79749
292.79728
292.79703
292.79675
292.79642
292.79607
292.7957
292.79532
292.79496
292.79465
292.7944
292.79427
292.79429
292.7945
292.79496
292.7957
292.79679
292.79828
292.8002
292.80262
292.80558
292.80912
292.81331
292.81813
292.82359
292.82969
292.83642
292.84375
292.85165
292.86008
292.86902
292.87841
292.88823
292.89844
292.909
292.91989
292.93107
292.94251
292.95418
292.96606
292.9781
292.99029
293.00259
293.01497
292.83239
292.83165
292.83084
292.82995
292.82901
292.82803
292.82704
292.82606
292.8251
292.82419
292.82334
292.82255
292.82184
292.82121
292.82067
292.82023
292.81989
292.81964
292.81948
292.81941
292.81941
292.81948
292.81961
292.81979
292.82001
292.82027
292.82053
292.82079
292.82105
292.82128
292.82149
292.82166
292.82179
292.82187
292.82191
292.82191
292.82188
292.82184
292.82179
292.82176
292.82179
292.82189
292.82212
292.8225
292.82309
292.82392
292.82505
292.82653
292.8284
292.8307
292.8335
292.83681
292.84072
292.8452
292.85028
292.85599
292.86234
292.86924
292.87671
292.88468
292.89315
292.90205
292.91138
292.92111
292.9312
292.94162
292.95235
292.96336
292.97461
292.98608
292.99773
293.00954
293.02146
293.03347
292.84146
292.84121
292.84091
292.84054
292.84013
292.8397
292.83926
292.83882
292.83841
292.83804
292.83772
292.83746
292.83726
292.83714
292.83709
292.83714
292.83727
292.83748
292.83778
292.83815
292.8386
292.8391
292.83964
292.84024
292.8409
292.84157
292.84225
292.84293
292.8436
292.84425
292.84488
292.84546
292.84601
292.84651
292.84695
292.84736
292.84772
292.84805
292.84837
292.84869
292.84905
292.84946
292.84995
292.85058
292.85136
292.85236
292.8536
292.85514
292.85703
292.8593
292.862
292.86517
292.86886
292.87307
292.87784
292.88322
292.88918
292.8957
292.90277
292.91034
292.91835
292.9268
292.93566
292.9449
292.95451
292.96446
292.97472
292.98527
292.99608
293.00711
293.01834
293.02972
293.04123
293.05281
292.84989
292.85012
292.85032
292.85047
292.85058
292.85067
292.85076
292.85086
292.85097
292.85113
292.85132
292.85157
292.85187
292.85224
292.85268
292.85319
292.85379
292.85446
292.8552
292.85602
292.8569
292.85784
292.85881
292.85983
292.86092
292.86203
292.86315
292.86425
292.86536
292.86646
292.86753
292.86856
292.86955
292.87049
292.87139
292.87223
292.87303
292.87379
292.87453
292.87525
292.87599
292.87676
292.87759
292.87851
292.87957
292.88079
292.88221
292.88389
292.88586
292.88816
292.89084
292.89394
292.8975
292.90151
292.90604
292.91114
292.91676
292.92292
292.92963
292.93682
292.94444
292.95245
292.96084
292.96962
292.97875
292.98822
292.99801
293.00809
293.01843
293.029
293.03977
293.05069
293.06174
293.07288
292.85761
292.85834
292.85903
292.85969
292.86031
292.86091
292.86151
292.86212
292.86275
292.8634
292.8641
292.86483
292.86562
292.86646
292.86737
292.86834
292.86938
292.8705
292.87168
292.87293
292.87425
292.87563
292.87704
292.87848
292.87999
292.88154
292.88311
292.88466
292.88623
292.88778
292.88931
292.89081
292.89228
292.89369
292.89506
292.89638
292.89766
292.89888
292.90008
292.90124
292.90241
292.90359
292.9048
292.90609
292.90746
292.90897
292.91064
292.91252
292.91464
292.91705
292.91978
292.92287
292.92636
292.93027
292.93463
292.93948
292.94483
292.95068
292.95704
292.9639
292.97115
292.97876
292.98673
292.99505
293.00371
293.01271
293.02202
293.03162
293.04148
293.05156
293.06185
293.0723
293.08286
293.09351
292.86461
292.86583
292.86702
292.86816
292.86927
292.87037
292.87147
292.87257
292.87369
292.87483
292.876
292.87721
292.87846
292.87975
292.88111
292.88252
292.884
292.88555
292.88716
292.88884
292.89058
292.89238
292.89423
292.89611
292.89803
292.90001
292.90206
292.90408
292.90611
292.90813
292.91014
292.91212
292.91408
292.91599
292.91786
292.91968
292.92145
292.92318
292.92486
292.9265
292.92814
292.92976
292.93141
292.93309
292.93484
292.93669
292.93866
292.9408
292.94314
292.94571
292.94855
292.9517
292.95519
292.95905
292.96331
292.968
292.97314
292.97873
292.98478
292.99132
292.99826
293.0055
293.01306
293.02095
293.02917
293.0377
293.04654
293.05566
293.06503
293.07462
293.08441
293.09436
293.10442
293.11456
292.8709
292.87261
292.87427
292.87588
292.87747
292.87905
292.88062
292.88219
292.88377
292.88536
292.88699
292.88865
292.89034
292.89207
292.89386
292.8957
292.8976
292.89956
292.90159
292.90368
292.90584
292.90806
292.91034
292.91266
292.915
292.91739
292.91995
292.92243
292.92491
292.92741
292.92991
292.93239
292.93485
292.93727
292.93966
292.942
292.94429
292.94654
292.94875
292.95093
292.95303
292.95513
292.95724
292.95936
292.96152
292.96375
292.96607
292.96851
292.97111
292.9739
292.97691
292.98018
292.98374
292.98761
292.99183
292.99642
293.00141
293.00679
293.0126
293.01885
293.0255
293.03241
293.0396
293.04709
293.05488
293.06297
293.07135
293.07999
293.08887
293.09797
293.10726
293.11669
293.12624
293.13586
292.87653
292.87869
292.88081
292.88288
292.88492
292.88694
292.88895
292.89095
292.89297
292.89499
292.89704
292.89912
292.90123
292.90338
292.90558
292.90783
292.91013
292.9125
292.91493
292.91743
292.91999
292.92262
292.92532
292.92808
292.93086
292.9337
292.93665
292.93961
292.94258
292.94556
292.94856
292.95154
292.95451
292.95746
292.96037
292.96325
292.96608
292.96886
292.9716
292.97431
292.97694
292.97954
292.98213
292.98472
292.98733
292.98997
292.99268
292.99547
292.99837
293.00143
293.00466
293.00809
293.01176
293.0157
293.01993
293.02449
293.02938
293.03461
293.04023
293.04625
293.05263
293.05925
293.0661
293.07322
293.08061
293.08828
293.09621
293.10439
293.1128
293.12141
293.1302
293.13913
293.14816
293.15725
292.88149
292.8841
292.88666
292.88916
292.89162
292.89405
292.89647
292.89888
292.90129
292.90372
292.90616
292.90863
292.91113
292.91366
292.91625
292.91889
292.92158
292.92433
292.92715
292.93004
292.933
292.93603
292.93914
292.94232
292.94556
292.94886
292.95217
292.95561
292.95907
292.96255
292.96604
292.96954
292.97303
292.9765
292.97995
292.98337
292.98674
292.99007
292.99334
292.99656
292.99975
293.00288
293.00598
293.00906
293.01213
293.01522
293.01833
293.0215
293.02475
293.0281
293.03159
293.03523
293.03907
293.04312
293.04741
293.05198
293.05682
293.06197
293.06745
293.07327
293.07943
293.08578
293.09234
293.09912
293.10615
293.11342
293.12094
293.12868
293.13662
293.14476
293.15306
293.16148
293.17001
293.17857
291.6834
291.58747
291.57303
291.59532
291.63455
291.67824
291.72069
291.75929
291.79263
291.70764
291.60631
291.58769
291.60945
291.64826
291.69169
291.73403
291.77258
291.80585
291.74103
291.63308
291.61002
291.6283
291.66477
291.70693
291.74859
291.78677
291.81989
291.77442
291.66376
291.6344
291.6483
291.68185
291.72243
291.76323
291.80094
291.83383
291.80562
291.69494
291.65982
291.6687
291.69919
291.73804
291.77787
291.81502
291.8476
291.83375
291.7259
291.68544
291.68938
291.71676
291.75374
291.79247
291.82897
291.86116
291.8587
291.75599
291.7109
291.7102
291.73443
291.76943
291.80697
291.84273
291.87447
291.88065
291.78436
291.73588
291.73091
291.75201
291.78498
291.82126
291.85623
291.88746
291.8997
291.81054
291.75994
291.75121
291.76932
291.80027
291.83526
291.86939
291.90007
291.91611
291.83424
291.78273
291.77085
291.78618
291.81516
291.84886
291.88214
291.91224
291.93024
291.85535
291.804
291.78962
291.80244
291.82955
291.86198
291.8944
291.92392
291.94235
291.87399
291.82362
291.80735
291.81797
291.84334
291.87455
291.90613
291.93505
291.95277
291.89032
291.8415
291.82393
291.83266
291.85645
291.88651
291.91727
291.94559
291.96176
291.90453
291.85769
291.8393
291.84645
291.86883
291.89781
291.92778
291.95553
291.96969
291.9169
291.87224
291.85346
291.85932
291.88043
291.90843
291.93766
291.96483
291.97681
291.92775
291.8853
291.86643
291.87125
291.89127
291.91835
291.94688
291.97351
291.98347
291.93739
291.89704
291.87829
291.88229
291.90134
291.9276
291.95547
291.98157
291.98991
291.94609
291.90768
291.88917
291.89249
291.9107
291.9362
291.96344
291.98905
291.99642
291.95423
291.91745
291.8992
291.90196
291.9194
291.9442
291.97085
291.99597
292.00318
291.96213
291.92662
291.90857
291.9108
291.92754
291.95168
291.97776
292.00241
292.01044
291.97006
291.93543
291.91744
291.91915
291.93521
291.95871
291.98425
292.00844
292.01836
291.97825
291.94411
291.92602
291.92716
291.94254
291.9654
291.9904
292.01413
292.02713
291.98692
291.95289
291.9345
291.93498
291.94964
291.97187
291.99631
292.01959
292.03681
291.99622
291.96197
291.94307
291.94279
291.95668
291.97822
292.00211
292.02492
292.0474
292.00632
291.97157
291.95194
291.95075
291.96379
291.98461
292.0079
292.03024
292.05896
292.01732
291.98186
291.96127
291.95903
291.97112
291.99116
292.01383
292.03567
292.07152
292.02934
291.99298
291.97125
291.9678
291.97882
291.998
292.02001
292.04133
292.08508
292.04244
292.00508
291.98203
291.97721
291.98704
292.00529
292.02658
292.04735
292.09959
292.05663
292.01826
291.99374
291.9874
291.99593
292.01316
292.03367
292.05385
292.11499
292.07191
292.03256
292.00649
291.9985
292.0056
292.02172
292.0414
292.06096
292.13121
292.08825
292.04802
292.02037
292.01062
292.01619
292.0311
292.04989
292.0688
292.14814
292.10557
292.06463
292.03541
292.02384
292.02777
292.04141
292.05925
292.07746
292.16565
292.12378
292.08237
292.05166
292.03822
292.04045
292.05274
292.06957
292.08705
292.1836
292.14273
292.10115
292.0691
292.0538
292.05427
292.06514
292.08092
292.09764
292.20185
292.16231
292.12088
292.08768
292.07058
292.06926
292.07867
292.09336
292.10928
292.22024
292.18234
292.14143
292.10733
292.08853
292.08543
292.09335
292.10691
292.12201
292.23865
292.20266
292.16262
292.12793
292.10758
292.10274
292.10916
292.12157
292.13584
292.25691
292.22309
292.18428
292.14933
292.12762
292.12113
292.12607
292.13733
292.15076
292.27492
292.24344
292.20621
292.17136
292.14854
292.14049
292.144
292.15411
292.1667
292.29258
292.26357
292.22822
292.19383
292.17016
292.16072
292.16285
292.17185
292.1836
292.30979
292.28333
292.25011
292.21653
292.19232
292.18165
292.1825
292.19043
292.20136
292.32654
292.30264
292.27173
292.23928
292.21482
292.20313
292.2028
292.2097
292.21985
292.34284
292.32145
292.29295
292.2619
292.23747
292.22497
292.22359
292.22953
292.23892
292.3587
292.33975
292.31369
292.28424
292.26011
292.24699
292.24469
292.24975
292.25841
292.37417
292.35753
292.33387
292.30615
292.28255
292.26903
292.26594
292.27018
292.27815
292.38929
292.37479
292.35347
292.32755
292.30465
292.29091
292.28715
292.29065
292.29797
292.40413
292.39159
292.37246
292.34835
292.3263
292.31249
292.30817
292.311
292.3177
292.41876
292.40796
292.39085
292.36852
292.34739
292.33365
292.32887
292.33108
292.33718
292.43326
292.42399
292.4087
292.38803
292.36786
292.35427
292.34913
292.35077
292.35629
292.44772
292.43975
292.42604
292.40691
292.38768
292.37429
292.36884
292.36996
292.37492
292.46221
292.45532
292.44296
292.42519
292.40685
292.39368
292.38797
292.38857
292.39297
292.47682
292.4708
292.45954
292.44293
292.42538
292.41243
292.40646
292.40656
292.4104
292.49161
292.48628
292.47588
292.46021
292.44334
292.43055
292.42433
292.42393
292.4272
292.50677
292.50186
292.49205
292.47711
292.46077
292.4481
292.4416
292.44069
292.44337
292.52207
292.51745
292.50807
292.49368
292.47775
292.46513
292.45832
292.45689
292.45898
292.53759
292.53314
292.52404
292.51003
292.49438
292.48173
292.47458
292.47262
292.4741
292.55354
292.54906
292.54004
292.52625
292.51075
292.498
292.49048
292.48796
292.48884
292.56974
292.56518
292.55612
292.54242
292.52697
292.51405
292.50612
292.50304
292.50331
292.58623
292.58151
292.57233
292.55861
292.54314
292.53
292.52164
292.51799
292.51765
292.60301
292.59806
292.5887
292.5749
292.55935
292.54596
292.53715
292.53293
292.53201
292.61997
292.61481
292.60526
292.59134
292.57567
292.56202
292.55278
292.54801
292.54652
292.63712
292.63174
292.62199
292.60797
292.59218
292.57828
292.56862
292.56334
292.5613
292.65438
292.6488
292.6389
292.6248
292.60892
292.5948
292.58476
292.579
292.57647
292.67165
292.66592
292.65593
292.64181
292.6259
292.61162
292.60127
292.59508
292.5921
292.68884
292.68304
292.67304
292.65899
292.64312
292.62876
292.61815
292.6116
292.60822
292.70588
292.70007
292.69015
292.67626
292.66054
292.64618
292.6354
292.62857
292.62486
292.72268
292.71693
292.70719
292.69357
292.67809
292.66383
292.65298
292.64594
292.64196
292.73915
292.73354
292.72406
292.71081
292.69568
292.68162
292.67078
292.66362
292.65944
292.75523
292.74982
292.74068
292.72789
292.7132
292.69943
292.68869
292.68147
292.67715
292.77087
292.76569
292.75696
292.74469
292.73053
292.71713
292.70656
292.69935
292.69493
292.78602
292.78111
292.77282
292.76113
292.74753
292.73456
292.72422
292.71705
292.71257
292.80067
292.79605
292.78822
292.77712
292.76412
292.7516
292.74149
292.73438
292.72984
292.81485
292.8105
292.80313
292.79261
292.78019
292.76811
292.75823
292.75116
292.74654
292.82857
292.82448
292.81754
292.80758
292.7957
292.78401
292.77431
292.76723
292.76248
292.84189
292.83805
292.8315
292.82203
292.81063
292.79926
292.78966
292.78249
292.77753
292.85489
292.85125
292.84505
292.83603
292.82503
292.81388
292.80427
292.79691
292.79164
292.86763
292.86418
292.85829
292.84965
292.83896
292.88022
291.8222
291.85011
291.8748
291.89678
291.91647
291.93429