/*--------------------------------*- C++ -*----------------------------------*\
| =========                 |                                                 |
| \\      /  F ield         | OpenFOAM: The Open Source CFD Toolbox           |
|  \\    /   O peration     | Version:  2406                                  |
|   \\  /    A nd           | Website:  www.openfoam.com                      |
|    \\/     M anipulation  |                                                 |
\*---------------------------------------------------------------------------*/
FoamFile
{
    version     2.0;
    format      ascii;
    arch        "LSB;label=32;scalar=64";
    class       surfaceScalarField;
    location    "0.021";
    object      phi;
}
// * * * * * * * * * * * * * * * * * * * * * * * * * * * * * * * * * * * * * //

dimensions      [1 0 -1 0 0 0 0];

oriented        oriented;

internalField   nonuniform List<scalar> 
71073
(
0.008602143
-0.011637551
0.011903463
-0.0088706591
0.0083369295
-0.013733865
0.013996597
0.0080486128
-0.016188122
0.016474433
0.0077343965
-0.019069879
0.019382599
0.007398516
-0.022452191
0.022787049
0.0070478538
-0.026411283
0.026761297
0.0066906709
-0.031031966
0.031388759
0.0063363851
-0.036414082
0.03676817
0.0059932025
-0.042694062
0.04303721
0.0056642841
-0.050049538
0.050378585
0.0053511669
-0.058665988
0.058979407
0.0050557803
-0.068718354
0.069014119
0.0047762025
-0.080459798
0.0807397
0.0045067756
-0.094164141
0.094433721
0.0042382059
-0.11013062
0.11039917
0.0039546994
-0.12847745
0.12876086
0.0036192291
-0.14897275
0.14930816
0.0031599527
-0.17074384
0.17120299
0.0026530625
-0.19328524
0.19379144
0.0022576817
-0.21944115
0.21983477
0.0019430068
-0.25063479
0.25094784
0.0016680436
-0.2864648
0.28674138
0.0014166755
-0.32677592
0.32703196
0.0011790443
-0.37377427
0.37401698
0.00096124669
-0.42552459
0.4257407
0.00076339355
-0.48761084
0.48780693
0.00057639079
-0.55653642
0.55672773
0.00041127929
-0.63863256
0.63880183
0.00023939055
-0.72997281
0.73014579
8.7922946e-05
-0.8382614
0.83840155
-0.91662053
0.91667026
0.0097302853
-0.011389931
-0.0099776233
0.0094497942
-0.013453559
0.0091429573
-0.015881625
0.008810009
-0.018737259
0.0084525736
-0.02209496
0.0080758207
-0.026034624
0.0076879998
-0.030644206
0.0072995702
-0.03602568
0.0069199601
-0.042314421
0.0065509024
-0.049680289
0.0061946314
-0.058309364
0.005855253
-0.068378537
0.0055318041
-0.080135972
0.0052185513
-0.093850706
0.0049044377
-0.10981654
0.0045681891
-0.12814131
0.0041689342
-0.14857357
0.0036298806
-0.17020493
0.0030439497
-0.19270012
0.0025943207
-0.21899353
0.0022338693
-0.2502762
0.0019173138
-0.2861464
0.0016292856
-0.32648234
0.0013545633
-0.3734937
0.0011057476
-0.4252782
0.00087692647
-0.48738281
0.00066296792
-0.55631589
0.00047242359
-0.63843765
0.0002748248
-0.72977705
9.9625938e-05
-0.83809885
-0.91656364
0.010919504
-0.011154732
-0.011153071
0.010645186
-0.013178168
0.010335828
-0.015571559
0.0099944225
-0.018395349
0.0096232646
-0.021723414
0.0092269599
-0.025638049
0.0088135052
-0.030230571
0.0083941039
-0.035606177
0.0079777702
-0.041897992
0.0075678595
-0.049270176
0.0071661242
-0.057907231
0.006779065
-0.067990984
0.0064065294
-0.079763009
0.0060430501
-0.093487022
0.0056757749
-0.1094493
0.0052773049
-0.12774298
0.0048000525
-0.14809642
0.0041661143
-0.16957118
0.0034933236
-0.19202826
0.0029850555
-0.21848753
0.0025723126
-0.24986557
0.0022072311
-0.28577923
0.0018774684
-0.32614588
0.001558887
-0.37316844
0.0012743792
-0.42499688
0.0010088298
-0.48711678
0.00076392215
-0.55606135
0.00054338177
-0.63821253
0.000315564
-0.72955532
0.00011256615
-0.83791
-0.91649942
0.012179418
-0.010937727
-0.012395196
0.011922557
-0.012920279
0.011624654
-0.015272806
0.011287473
-0.018057466
0.010913463
-0.021348861
0.010507018
-0.025231248
0.010075696
-0.029799074
0.0096302827
-0.035160678
0.0091800762
-0.041447665
0.0087299855
-0.048819835
0.0082823822
-0.057459178
0.0078447021
-0.067552743
0.0074180002
-0.079335818
0.0069973112
-0.093066098
0.0065679584
-0.10902
0.006095936
-0.12727112
0.0055231345
-0.14752374
0.0047758773
-0.16882416
0.0040077446
-0.19126119
0.0034347153
-0.21791708
0.0029616805
-0.24939493
0.0025400006
-0.28535516
0.0021632134
-0.32576106
0.0017935281
-0.37279116
0.0014684524
-0.42467593
0.0011598146
-0.48680594
0.00088025711
-0.55576812
0.0006247759
-0.63795142
0.00036213829
-0.72930456
0.00012676336
-0.83768956
-0.91642781
0.013505486
-0.010748246
-0.013694508
0.01327557
-0.012689878
0.013001549
-0.01499831
0.01268255
-0.017738031
0.012319611
-0.020985583
0.011916082
-0.024827518
0.011478387
-0.029361311
0.011016037
-0.0346983
0.010538424
-0.040969937
0.010051736
-0.048332851
0.0095596958
-0.056966618
0.0090699464
-0.067062348
0.0085846867
-0.078849998
0.0080995479
-0.092580695
0.0075979189
-0.10851844
0.0070388409
-0.12671225
0.0063491827
-0.14683426
0.005466655
-0.16794193
0.0045957753
-0.19039155
0.0039513891
-0.2172756
0.003409691
-0.24885594
0.0029229971
-0.28486574
0.0024931305
-0.32532175
0.002064117
-0.37235359
0.0016926387
-0.42430969
0.001333438
-0.48644251
0.00101462
-0.55543067
0.00071846177
-0.63764673
0.00041538879
-0.72902177
0.00014226228
-0.8374303
-0.9163487
0.01488473
-0.010595491
-0.015037359
0.014692052
-0.012497071
0.01445432
-0.01476045
0.014168264
-0.017451865
0.013832575
-0.020649837
0.013448351
-0.024443309
0.013019772
-0.028932799
0.012554208
-0.034232765
0.012060193
-0.040475797
0.011544636
-0.047816929
0.011012553
-0.056433922
0.010471601
-0.066520652
0.009924769
-0.078302531
0.00936812
-0.092023758
0.0087826798
-0.10793311
0.0081203671
-0.12605021
0.0072879061
-0.14600203
0.006245315
-0.16689974
0.0052680892
-0.18941574
0.0045442217
-0.21655498
0.003924453
-0.24823922
0.0033640493
-0.28430222
0.0028736517
-0.3248205
0.0023758336
-0.37184619
0.0019511288
-0.42389157
0.0015330506
-0.48601832
0.0011692136
-0.55504265
0.00082602195
-0.63728999
0.00047624864
-0.72870098
0.00015911499
-0.83712237
-0.91626163
0.016301041
-0.010488213
-0.016408159
0.016156241
-0.012352211
0.01596762
-0.014571833
0.015730048
-0.017214348
0.015439385
-0.020359276
0.015093452
-0.024097514
0.014693053
-0.028532528
0.014242357
-0.033782093
0.013747779
-0.039981033
0.013215837
-0.047284521
0.01265217
-0.055869524
0.012064063
-0.065931696
0.011454769
-0.077692535
0.01082016
-0.091388854
0.01013765
-0.10725075
0.0093523667
-0.12526527
0.0083452546
-0.14499523
0.0071163812
-0.16567141
0.0060369034
-0.18833787
0.0052231744
-0.21574486
0.0045149533
-0.24753441
0.0038718448
-0.28365557
0.0033123641
-0.32424874
0.002735324
-0.37125845
0.002249415
-0.42341378
0.0017623233
-0.4855242
0.0013473023
-0.55459806
0.00094932165
-0.6368726
0.00054576081
-0.72832784
0.00017732733
-0.8367524
-0.91616566
0.017735235
-0.010434577
-0.017788627
0.017649909
-0.012266802
0.017525046
-0.014446984
0.017352755
-0.017042143
0.017125733
-0.02013239
0.016838278
-0.023810213
0.016487252
-0.028181608
0.016072713
-0.033367513
0.015597612
-0.039505641
0.015066478
-0.04675279
0.014484227
-0.055286412
0.013856896
-0.065303413
0.013187037
-0.077021926
0.012468994
-0.09067054
0.011673162
-0.10645517
0.0107404
-0.12433296
0.0095208769
-0.14377616
0.0080826326
-0.16423381
0.0069146907
-0.18717174
0.0059989617
-0.2148331
0.0051908401
-0.24673011
0.0044548722
-0.28291556
0.0038168552
-0.3235968
0.0031506704
-0.37058037
0.0025942864
-0.42286678
0.0020253774
-0.48494882
0.001552414
-0.55408811
0.0010899065
-0.6363855
0.00062500547
-0.72788805
0.00019689373
-0.83630347
-0.91605946
0.019204039
-0.010439907
-0.01919849
0.0191842
-0.012246889
0.019130486
-0.014393265
0.019033475
-0.016945206
0.018883414
-0.019982458
0.018671158
-0.023598087
0.018389179
-0.027899678
0.018032488
-0.033010685
0.017599064
-0.0390718
0.017089426
-0.046242418
0.016505681
-0.054701684
0.015850995
-0.064647699
0.0151255
-0.076295674
0.014319844
-0.089864689
0.01339544
-0.10553116
0.012276466
-0.12321461
0.010793059
-0.14229336
0.00914933
-0.16259087
0.0079116111
-0.18593604
0.0068827904
-0.21380864
0.0059621752
-0.24581378
0.0051223183
-0.28207104
0.0043949438
-0.32285343
0.0036307595
-0.36980294
0.0029936448
-0.42224009
0.0023269471
-0.48427907
0.0017891752
-0.55349878
0.0012498851
-0.63581696
0.00071572195
-0.72737249
0.00021783775
-0.83575574
-0.91594114
0.020727221
-0.010502354
-0.020664701
0.020772444
-0.012292098
0.020791294
-0.014412174
0.020773392
-0.016927433
0.020707414
-0.019916638
0.020581428
-0.023472221
0.020383606
-0.027701846
0.020103442
-0.032730282
0.019732767
-0.038700576
0.019266089
-0.045774873
0.01870013
-0.054134644
0.018032693
-0.063979204
0.017258581
-0.075520867
0.016360824
-0.088966891
0.015284963
-0.10445591
0.013927896
-0.12185841
0.012136734
-0.14050301
0.010333682
-0.16078879
0.0090332236
-0.18463779
0.0078849164
-0.21266513
0.0068386396
-0.24477233
0.0058847747
-0.28111174
0.0050555071
-0.3220054
0.0041835664
-0.36891622
0.0034551371
-0.42152379
0.0026734275
-0.4835008
0.0020634703
-0.5528258
0.0014310984
-0.63515175
0.00082025873
-0.72676782
0.00024005244
-0.8350906
-0.91580812
0.022316218
-0.010615435
-0.022203189
0.022420686
-0.012396701
0.022508979
-0.014500672
0.022569766
-0.016988459
0.022589966
-0.01993704
0.022555177
-0.023437522
0.022449834
-0.027596397
0.022258337
-0.032538397
0.021966123
-0.038407646
0.021560356
-0.045368097
0.021029845
-0.053602983
0.02036371
-0.063312054
0.019546874
-0.074703503
0.018547742
-0.08796799
0.017281638
-0.10319077
0.015609019
-0.12018701
0.013521122
-0.13841616
0.011662038
-0.15893088
0.010285809
-0.18326399
0.0090120198
-0.21139665
0.0078284829
-0.24359423
0.0067529959
-0.28002985
0.0058075243
-0.32103741
0.0048182384
-0.36791042
0.003982704
-0.42070299
0.0030743938
-0.48260555
0.0023796895
-0.55207588
0.0016367071
-0.63437367
0.00094033954
-0.72606235
0.00026308415
-0.83429981
-0.91565733
0.023996051
-0.0107782
-0.023833633
0.024154204
-0.012555314
0.024301104
-0.014648059
0.024428694
-0.017116426
0.024524447
-0.020032982
0.02457217
-0.023485211
0.024553939
-0.027577844
0.024450318
-0.032434121
0.024240781
-0.038197135
0.023904267
-0.045030396
0.023419186
-0.053116715
0.022761646
-0.062653638
0.021899516
-0.073841155
0.020774905
-0.08684404
0.019247229
-0.10166455
0.01717142
-0.11811284
0.014937743
-0.13618377
0.013153058
-0.15714756
0.011677901
-0.18179156
0.010263887
-0.20998856
0.0089386584
-0.24227513
0.0077365529
-0.27882029
0.0066585226
-0.31993206
0.005545464
-0.36677904
0.0045826998
-0.41976002
0.0035412819
-0.48159098
0.0027401534
-0.55125218
0.0018729529
-0.63347123
0.0010777572
-0.72524014
0.00028581193
-0.83339216
-0.9154872
0.025681825
-0.010983191
-0.025476772
0.025889495
-0.012762867
0.026090361
-0.014848685
0.026274003
-0.01729974
0.026429624
-0.020188126
0.02654317
-0.023598037
0.026596765
-0.027630439
0.026568613
-0.032404707
0.026432899
-0.038059985
0.026159859
-0.044755916
0.025715373
-0.052671051
0.025057035
-0.061994704
0.0241234
-0.072907806
0.022808775
-0.085530722
0.020933773
-0.099791683
0.018551718
-0.1157329
0.016454889
-0.13408844
0.014765794
-0.15545997
0.013147527
-0.18017641
0.011649396
-0.2084971
0.010176581
-0.24080931
0.0088249849
-0.27746029
0.0076118421
-0.31868655
0.006373361
-0.3655203
0.0052651417
-0.41867788
0.0040799797
-0.48045301
0.0031494449
-0.55034769
0.0021451982
-0.63243602
0.0012346909
-0.72426784
0.00030622468
-0.83238434
-0.91530158
0.027125865
-0.01120049
-0.026907841
0.027352325
-0.012988452
0.027582693
-0.015078004
0.027808254
-0.017524057
0.028014838
-0.020393236
0.028185866
-0.023767341
0.028301719
-0.027744349
0.028337275
-0.032438219
0.028259888
-0.037980638
0.028028683
-0.044523078
0.027593568
-0.052234935
0.026885928
-0.06128701
0.025801888
-0.071824904
0.024203093
-0.083934229
0.022113983
-0.097705519
0.019936716
-0.11355814
0.018041459
-0.13219482
0.01638194
-0.15380206
0.014785296
-0.17858344
0.01315001
-0.20686951
0.011548245
-0.23921571
0.010045662
-0.27594831
0.0086666822
-0.31727019
0.007306941
-0.36413791
0.0060361974
-0.41744123
0.0046930697
-0.47917915
0.0036136175
-0.54934509
0.0024568159
-0.6312577
0.0014125761
-0.72311623
0.00032230739
-0.83127286
-0.91511067
0.028095802
-0.011396717
-0.027898243
0.028296708
-0.013187806
0.028496871
-0.015276398
0.02869423
-0.017719445
0.028884467
-0.020581213
0.029053156
-0.023933359
0.02917691
-0.027865214
0.029222789
-0.03248139
0.029149766
-0.03790541
0.028901257
-0.044273122
0.028406475
-0.051739742
0.0275777
-0.060459144
0.026324374
-0.070573949
0.024676499
-0.08228984
0.022932345
-0.095965046
0.021349106
-0.11197757
0.019808615
-0.13065598
0.018181449
-0.15217693
0.016460436
-0.1768671
0.014730484
-0.20514882
0.01302613
-0.23752094
0.011399957
-0.27431078
0.009839726
-0.31566669
0.008348159
-0.36262011
0.0069019392
-0.41603549
0.0053886302
-0.47775167
0.0041415366
-0.5482028
0.0028131672
-0.62991878
0.0016117729
-0.72176845
0.00033147905
-0.83001396
-0.91493038
0.027591886
-0.011606556
-0.027380483
0.027806084
-0.013400462
0.028011934
-0.015480753
0.028193541
-0.017899547
0.028334809
-0.020720921
0.028427078
-0.024024026
0.028462765
-0.02789925
0.028429951
-0.032446962
0.028312003
-0.037786256
0.028049282
-0.044010077
0.027581799
-0.051273032
0.026896075
-0.0597754
0.026004282
-0.069685068
0.02502214
-0.081311198
0.024019874
-0.094966456
0.022861818
-0.11082193
0.021434339
-0.12923037
0.019852236
-0.15059819
0.018179499
-0.17520091
0.016404127
-0.20338504
0.014615874
-0.23574305
0.012839834
-0.27251996
0.011134272
-0.31391052
0.0094941901
-0.36094857
0.0078609121
-0.41444305
0.0061715578
-0.47615375
0.0047375278
-0.54686806
0.0032213719
-0.62839977
0.0018327641
-0.72021889
0.00032893717
-0.82854164
-0.91477624
0.025557802
-0.011880972
-0.025282967
0.025861646
-0.013704119
0.026193598
-0.015812847
0.026547543
-0.018253884
0.026905669
-0.021079544
0.027236964
-0.024355836
0.027490839
-0.028153657
0.027597856
-0.032554724
0.027513129
-0.037702754
0.027269116
-0.043768058
0.02691201
-0.050918954
0.026549673
-0.059416911
0.02616658
-0.069305792
0.02570473
-0.080852435
0.025027759
-0.094291964
0.024086842
-0.10988305
0.022918636
-0.12806503
0.021500547
-0.14918642
0.019858264
-0.1735689
0.018073474
-0.20161483
0.016226181
-0.23390537
0.014399391
-0.27067226
0.012531878
-0.31198355
0.010711845
-0.35909203
0.0088984114
-0.41266564
0.00704177
-0.47438513
0.0054045961
-0.54531129
0.0036848203
-0.62668612
0.0020725594
-0.71847218
0.00030658356
-0.82679961
-0.91464672
0.022921658
-0.012112659
-0.022689293
0.023181884
-0.013963717
0.023473044
-0.016103496
0.023797787
-0.018578228
0.024162299
-0.021443769
0.024572542
-0.024765982
0.02504119
-0.028622539
0.025590247
-0.03310447
0.026153559
-0.03826724
0.026634949
-0.044251003
0.026881799
-0.051167799
0.026745185
-0.059283825
0.026401103
-0.068967081
0.025997373
-0.080453757
0.025532528
-0.093831241
0.024954075
-0.10930923
0.024060119
-0.12717676
0.022850214
-0.14798752
0.021379918
-0.17211446
0.019680877
-0.19993398
0.017858522
-0.23208912
0.015978209
-0.26875887
0.014016262
-0.30995112
0.012027575
-0.35706489
0.01003975
-0.41071115
0.0080007818
-0.47242942
0.006145812
-0.54352905
0.0042105073
-0.62477586
0.0023295023
-0.71652208
0.0002493129
-0.82473765
-0.91444943
0.02256813
-0.012323544
-0.022356934
0.022801972
-0.014197242
0.023059035
-0.016360258
0.02334009
-0.018859026
0.023644598
-0.02174812
0.023970352
-0.025091775
0.024313067
-0.028965635
0.02466346
-0.033455791
0.02504602
-0.038651632
0.025470877
-0.044679205
0.02603634
-0.051738168
0.026621061
-0.059874452
0.026865103
-0.069218843
0.02655017
-0.080147062
0.026029261
-0.09331978
0.025518369
-0.10881135
0.024915623
-0.12658585
0.02398398
-0.14707151
0.022696648
-0.17084827
0.02116438
-0.19842124
0.019386888
-0.23030802
0.017485788
-0.26680435
0.015506751
-0.30789048
0.01341168
-0.35493733
0.011262763
-0.40859801
0.0090389234
-0.47028016
0.0069574841
-0.54152309
0.0048053659
-0.62266822
0.0026083027
-0.71433949
0.00013314813
-0.82227973
-0.91391424
0.021760392
-0.012538273
-0.021546509
0.021999861
-0.014437806
0.022266504
-0.016628349
0.022561103
-0.019155542
0.022882947
-0.022072511
0.023228814
-0.025441048
0.023591822
-0.029333215
0.023963947
-0.033834045
0.024352108
-0.039047932
0.024762098
-0.045099684
0.025132261
-0.052121309
0.025522455
-0.060279101
0.026104235
-0.069814479
0.026693516
-0.080749571
0.026616046
-0.093259819
0.026010627
-0.10823414
0.025356698
-0.12595745
0.024624814
-0.1463583
0.023645646
-0.16988811
0.02235027
-0.19713585
0.020788178
-0.2287201
0.018968755
-0.26490681
0.016971098
-0.30580862
0.014832335
-0.35278345
0.012529712
-0.40633942
0.010108234
-0.46790957
0.0078313158
-0.53928915
0.0054529174
-0.62032627
0.0029233864
-0.71190584
8.4736086e-05
-0.81946947
-0.9132333
0.021127686
-0.01273126
-0.020940621
0.021337985
-0.014654967
0.021573736
-0.016872042
0.021837278
-0.019428231
0.022131054
-0.022376759
0.022457703
-0.025779578
0.022819972
-0.029708786
0.023219436
-0.034248136
0.023650383
-0.039494626
0.024095279
-0.04556124
0.024538091
-0.052581795
0.024960089
-0.06072089
0.02527994
-0.070158143
0.025720526
-0.081220736
0.026389974
-0.093961474
0.026480809
-0.10835146
0.025858471
-0.12537026
0.025058901
-0.14558807
0.024238572
-0.1690758
0.023278044
-0.19615642
0.021891447
-0.22727019
0.020208283
-0.2631247
0.018316043
-0.30384703
0.016104984
-0.35058786
0.013769379
-0.404064
0.011249864
-0.46541885
0.0087533483
-0.53676181
0.0061570317
-0.61772667
0.0032910938
-0.70916138
4.8114463e-05
-0.8162402
-0.9125523
0.020187164
-0.012922117
-0.020005953
0.020392003
-0.01487079
0.020622791
-0.017115292
0.02088158
-0.019701124
0.021169802
-0.022680894
0.021487808
-0.026115449
0.021834491
-0.030075392
0.022207302
-0.034642967
0.022603055
-0.039914431
0.023018742
-0.046002816
0.023449973
-0.053040758
0.023881113
-0.061180661
0.024291219
-0.070596934
0.024497728
-0.081454564
0.02455266
-0.094041845
0.025015785
-0.10883149
0.025470884
-0.12582763
0.025135467
-0.14523171
0.024498882
-0.16839058
0.023735233
-0.1953177
0.022745685
-0.22618141
0.021219133
-0.26150385
0.019416199
-0.30201449
0.017317302
-0.34854054
0.014900804
-0.40172609
0.012329771
-0.4628865
0.0096538995
-0.53403626
0.0068883269
-0.61495745
0.0037019596
-0.70604067
5.0582191e-05
-0.81255224
-0.91143446
0.019140899
-0.013085203
-0.018980271
0.019323075
-0.015055652
0.019529135
-0.017324222
0.019761365
-0.019936379
0.020022054
-0.0229447
0.020313535
-0.026410023
0.020638097
-0.030402838
0.020997545
-0.035004924
0.021392528
-0.040311239
0.021821052
-0.046431941
0.022276161
-0.053494129
0.022745379
-0.061645256
0.023216979
-0.071059735
0.023732842
-0.081954852
0.02431405
-0.0945977
0.024639496
-0.10911923
0.024835494
-0.12596995
0.025153665
-0.14548159
0.024664883
-0.167811
0.023929578
-0.19447803
0.022937965
-0.2251056
0.021668323
-0.26020196
0.020190593
-0.30057533
0.018240543
-0.34666772
0.015885687
-0.39943013
0.013306172
-0.46031222
0.010524634
-0.53121548
0.0075799814
-0.61201899
0.0041992383
-0.70268393
0.00059009337
-0.80891568
-0.90973947
0.01805011
-0.01323114
-0.017896477
0.018224031
-0.015220682
0.018420177
-0.017510126
0.018640405
-0.020144834
0.018886358
-0.023177126
0.019159233
-0.02666736
0.019459464
-0.030685214
0.019786542
-0.035311347
0.020139058
-0.040639821
0.020515611
-0.046780765
0.020914941
-0.05386125
0.021336953
-0.062029553
0.021778352
-0.071456787
0.022207788
-0.082332354
0.022540401
-0.094870655
0.022937249
-0.10944763
0.023235332
-0.12619398
0.02351318
-0.14568388
0.023942742
-0.16817911
0.023433911
-0.19393743
0.022523995
-0.22420259
0.021584057
-0.25932698
0.020518707
-0.29962184
0.018806514
-0.34505932
0.016593155
-0.3972487
0.014094793
-0.45773167
0.011233006
-0.52823378
0.0082581071
-0.60898147
0.0048254007
-0.69928135
0.0017946826
-0.80591676
-0.9092721
0.01696018
-0.013355366
-0.016831629
0.017106201
-0.015361771
0.01727189
-0.017670214
0.017459905
-0.020326484
0.01767347
-0.023383465
0.017916539
-0.026902244
0.018193894
-0.030953323
0.018510886
-0.035617919
0.018872177
-0.040989296
0.019279485
-0.047174561
0.019730658
-0.054296989
0.020216289
-0.062497692
0.020718368
-0.071939355
0.021222736
-0.082815875
0.021728892
-0.095355698
0.022093124
-0.10979521
0.022441431
-0.12653425
0.022607256
-0.14586142
0.022792869
-0.16840472
0.023022828
-0.19422793
0.022237812
-0.22350571
0.021136476
-0.25834071
0.020231842
-0.29884944
0.019039129
-0.34396431
0.016943049
-0.39518356
0.01456226
-0.45526953
0.011708906
-0.52526283
0.0087656341
-0.60599196
0.0054591322
-0.69605278
0.0023338756
-0.80291465
-0.90880887
0.015648652
-0.013475351
-0.015535002
0.015778033
-0.01549845
0.015925093
-0.017825695
0.016091874
-0.020502972
0.016280413
-0.023583189
0.016492598
-0.027127311
0.016730046
-0.031205612
0.01699413
-0.035899124
0.017285798
-0.041300793
0.017605052
-0.04751694
0.017952557
-0.054671674
0.018331038
-0.062908397
0.018745159
-0.072392092
0.01919673
-0.083314246
0.019684034
-0.095899948
0.020219295
-0.11039914
0.020701963
-0.12709928
0.021107833
-0.14635914
0.021061175
-0.16845099
0.020889469
-0.19415021
0.021252502
-0.2239418
0.020684503
-0.25782266
0.019420123
-0.29760626
0.018327385
-0.34286036
0.016614016
-0.39341173
0.014588522
-0.45320049
0.011903923
-0.52260483
0.0090404862
-0.60322121
0.0058914737
-0.69303727
0.0027015923
-0.79975027
-0.90823818
0.014030102
-0.013564327
-0.01394629
0.014125554
-0.015599892
0.014234117
-0.017941219
0.01435728
-0.020634252
0.014496558
-0.02373196
0.014653432
-0.02729532
0.014829292
-0.031394573
0.015025442
-0.03611075
0.015243542
-0.041537281
0.01548634
-0.047781641
0.015754683
-0.054966137
0.016043717
-0.063228516
0.016340734
-0.072725815
0.016622391
-0.083638571
0.016852766
-0.096178657
0.016999437
-0.11059869
0.01707655
-0.1272312
0.01705234
-0.14638821
0.017113688
-0.16856062
0.017179897
-0.19425066
0.017133076
-0.2239121
0.017515903
-0.25820756
0.017429777
-0.29748692
0.016632112
-0.34199623
0.015463465
-0.39215917
0.014018445
-0.45171162
0.011712312
-0.52035414
0.0090474439
-0.60063874
0.0061760805
-0.69025361
0.0027675792
-0.79636341
-0.90734855
0.013301709
-0.013636757
-0.013229642
0.013383575
-0.015682236
0.013476251
-0.018034524
0.013580758
-0.020739595
0.013697991
-0.02385031
0.013828562
-0.027427391
0.013972528
-0.031540561
0.01412884
-0.03626978
0.014295021
-0.04170703
0.014466314
-0.047957559
0.014636903
-0.055142657
0.01480694
-0.063406028
0.014981168
-0.072909225
0.015171364
-0.083839653
0.015401119
-0.096420591
0.015701906
-0.11091179
0.016069756
-0.12760947
0.016575544
-0.1468997
0.017167087
-0.16915343
0.017444053
-0.1945309
0.017542159
-0.22401378
0.016975724
-0.25764742
0.016232093
-0.29674589
0.015508589
-0.34128066
0.014371637
-0.39104757
0.012918398
-0.45031236
0.011118108
-0.51865602
0.0086747018
-0.59832612
0.0061124587
-0.68785349
0.0026374231
-0.79297603
-0.90629352
0.011922326
-0.013673481
-0.011886689
0.011962604
-0.01572381
0.01200803
-0.018081509
0.012059174
-0.020792619
0.012116764
-0.023910174
0.012181835
-0.027495215
0.012255946
-0.031617998
0.012341573
-0.036359407
0.012442163
-0.041812416
0.012562911
-0.048084032
0.012710501
-0.055296992
0.012888782
-0.063592189
0.013104113
-0.073133746
0.013363887
-0.084110089
0.013665228
-0.096733859
0.01398842
-0.11124699
0.014289377
-0.12792075
0.014451458
-0.14707073
0.014324016
-0.16904048
0.013926231
-0.19416617
0.013265603
-0.22340306
0.012812393
-0.25723656
0.012839082
-0.29676413
0.012821641
-0.34130055
0.012125749
-0.39048608
0.01085992
-0.44919423
0.0095577382
-0.51760564
0.0073655305
-0.59634593
0.0053485858
-0.68599666
0.0024457257
-0.79040686
-0.90539666
0.010842572
-0.013688886
-0.010829885
0.01085653
-0.015741081
0.010871762
-0.018100788
0.01088825
-0.020814077
0.010905947
-0.023934008
0.010924751
-0.027521627
0.01094443
-0.031647132
0.010964481
-0.036391233
0.010984031
-0.041846665
0.011001492
-0.048119905
0.011014516
-0.055333236
0.011019837
-0.063627212
0.01101073
-0.07316349
0.010978415
-0.084129088
0.01091865
-0.096738371
0.010848495
-0.11124458
0.010808642
-0.12793523
0.010843642
-0.14714014
0.01106841
-0.16928364
0.011359923
-0.1944731
0.011151387
-0.22321654
0.010490063
-0.25659171
0.0095592446
-0.29587517
0.00947495
-0.34124105
0.0099254934
-0.39097863
0.0092733346
-0.44859016
0.0079574996
-0.51634275
0.0059244698
-0.59447584
0.0043550717
-0.68456633
0.0020428652
-0.78840757
-0.90473398
0.007360211
-0.007396336
0.007319126
0.0072724817
0.0072198718
0.0071608176
0.0070947035
0.007020778
0.0069381984
0.0068461023
0.0067437513
0.0066306952
0.0065068256
0.0063723802
0.0062269543
0.0060701946
0.0058942899
0.0056858051
0.0054289335
0.0050452548
0.0047964951
0.004963453
0.0052179021
0.0046667473
0.0030442289
0.0028003465
0.003636922
0.0040511559
0.0038420529
0.0026910014
0.00033250441
0.0018340059
-0.0018232185
0.0011818551
-0.0011926254
0.0030729349
-0.0040663041
0.0028274012
0.0050662627
-0.0082419974
0.0062487034
0.0071838716
-0.013917915
0.011800339
0.0087431257
-0.019542686
0.017983457
0.009707046
-0.024855074
0.023891169
0.010309916
-0.030281607
0.029678749
0.010737143
-0.036259129
0.035831914
0.011080056
-0.043078
0.042735094
0.011372418
-0.050948926
0.050656566
0.011624498
-0.060067721
0.059815637
0.011837976
-0.070649209
0.070435721
0.012010578
-0.082934779
0.082762148
0.012138426
-0.097198138
0.097070238
0.012214754
-0.11374776
0.11367141
0.01223058
-0.1328825
0.13286669
0.01216408
-0.1549374
0.15500394
0.011971591
-0.17981586
0.18000823
0.011588553
-0.20726132
0.2076437
0.01092662
-0.23570546
0.2363661
0.010114476
-0.26423658
0.26504833
0.0093616618
-0.29734445
0.29809991
0.0086281595
-0.33664924
0.33738856
0.0078527067
-0.38276218
0.38354335
0.0070122029
-0.43419819
0.43504374
0.0061076266
-0.49507624
0.49598579
0.005119053
-0.56355925
0.56454784
0.0040359832
-0.64514177
0.64622468
0.0028135703
-0.7367215
0.7379464
0.0014554965
-0.84257837
0.84394165
-0.91836956
0.91980809
0.0024773943
-0.0027531305
-0.0015474654
0.0041214446
-0.0057103318
0.0062801161
-0.010400637
0.008042499
-0.015680271
0.0091393033
-0.020639472
0.0097959642
-0.02551172
0.01024511
-0.030730735
0.010601528
-0.036615529
0.010907781
-0.04338424
0.011176577
-0.051217715
0.011410798
-0.060301941
0.011609279
-0.070847699
0.011768756
-0.08309429
0.011885048
-0.097314484
0.011951208
-0.11381395
0.011957985
-0.13288926
0.01188157
-0.15486096
0.011681151
-0.17961557
0.011291961
-0.20687284
0.010626803
-0.23504162
0.0098286389
-0.26343878
0.0090975973
-0.29661066
0.0083829262
-0.33592864
0.0076268438
-0.38200032
0.0068075268
-0.43337406
0.0059267975
-0.49419117
0.0049651461
-0.56259777
0.0039127612
-0.64408955
0.0027260239
-0.73553204
0.0014094267
-0.84125678
-0.91698143
0.0032298404
-0.003993987
-0.0019889667
0.0051363701
-0.0076168357
0.0070664983
-0.012330732
0.0083836907
-0.016997434
0.009184539
-0.021440299
0.0097039405
-0.026031101
0.010092244
-0.031119016
0.010416931
-0.036940194
0.010702107
-0.043669397
0.010954363
-0.051469959
0.011174482
-0.060522056
0.011360337
-0.071033563
0.011508389
-0.083242379
0.011614463
-0.097420617
0.011671608
-0.11387113
0.011670359
-0.13288799
0.011585039
-0.1547756
0.011378698
-0.17940938
0.010985203
-0.20648008
0.010318652
-0.23437642
0.0095361366
-0.2626566
0.0088270253
-0.2958987
0.0081312448
-0.33522684
0.0073949666
-0.38125821
0.0065973151
-0.43257187
0.005740935
-0.49333118
0.0048068579
-0.56166405
0.0037859337
-0.64306881
0.0026357678
-0.73437894
0.001362241
-0.83997837
-0.91564108
0.0041634946
-0.0055739905
-0.0025834716
0.0060948922
-0.0095482065
0.0076239328
-0.013859738
0.0085729222
-0.017946397
0.0091612555
-0.022028611
0.0095782091
-0.026448032
0.0099172198
-0.031458
0.01021428
-0.037237224
0.010480306
-0.043935397
0.010717212
-0.051706846
0.010923978
-0.060728815
0.011097732
-0.071207327
0.011234789
-0.083379478
0.011331028
-0.097516919
0.011379497
-0.11391963
0.011370471
-0.13287893
0.011276708
-0.15468181
0.011065579
-0.1791984
0.01066822
-0.20608348
0.010001128
-0.2337107
0.0092356963
-0.26189148
0.0085487087
-0.29520877
0.0078721026
-0.33454411
0.0071562223
-0.38053645
0.0063809332
-0.43179236
0.0055496893
-0.49249719
0.0046440507
-0.56075896
0.0036555501
-0.64208052
0.0025430402
-0.73326329
0.001313753
-0.83874431
-0.91435113
0.0051795087
-0.007365652
-0.0033878199
0.0068334944
-0.011202161
0.0079319021
-0.014958114
0.0086050247
-0.018619494
0.0090580379
-0.022481601
0.0094117984
-0.026801764
0.0097178951
-0.031764062
0.0099937794
-0.037513071
0.010243379
-0.044184964
0.010466295
-0.051929736
0.010660434
-0.060922943
0.010822542
-0.071369446
0.010948952
-0.083505935
0.01103565
-0.097603684
0.011075686
-0.11395969
0.011059073
-0.13286229
0.010957671
-0.15458037
0.010742519
-0.1789834
0.010341057
-0.20568281
0.0096745278
-0.23304558
0.0089276534
-0.26114489
0.0082630015
-0.29454109
0.0076059074
-0.3338808
0.0069109976
-0.37983561
0.0061587326
-0.43103622
0.0053533597
-0.49169006
0.0044769536
-0.55988331
0.0035217636
-0.64112557
0.0024479357
-0.73218616
0.0012640306
-0.8375558
-0.91311298
0.0060483541
-0.0090345632
-0.0043794104
0.0072786351
-0.01243241
0.0080418976
-0.015721349
0.0085363869
-0.019113959
0.0089051469
-0.022850334
0.0092172405
-0.027113823
0.0094988529
-0.032045631
0.0097571089
-0.037771281
0.0099920848
-0.044419897
0.010202033
-0.052139653
0.01038415
-0.061105044
0.010535023
-0.07152033
0.010651119
-0.083622082
0.010728557
-0.097681192
0.010760417
-0.11399158
0.010736493
-0.13283833
0.010628236
-0.15447208
0.010409683
-0.17876502
0.010004055
-0.20527801
0.009339273
-0.23238224
0.0086123579
-0.26041823
0.0079701656
-0.29389578
0.0073329192
-0.33323726
0.0066595329
-0.37915627
0.0059309287
-0.43030411
0.0051521341
-0.49091064
0.0043057352
-0.55903789
0.0033847145
-0.64020483
0.0023505582
-0.73114855
0.0012131112
-0.83641402
-0.91192719
0.0066335496
-0.010325832
-0.0053422506
0.0074783039
-0.013277135
0.0080162196
-0.016259236
0.0084003226
-0.019498034
0.0087161577
-0.023166135
0.0089995931
-0.027397214
0.0092621931
-0.032308178
0.009505344
-0.038014375
0.009727102
-0.044641603
0.0099248885
-0.0523374
0.01009549
-0.061275627
0.010235499
-0.071660352
0.010341603
-0.083728241
0.010410068
-0.097749731
0.010434025
-0.11401556