/*--------------------------------*- C++ -*----------------------------------*\
| =========                 |                                                 |
| \\      /  F ield         | OpenFOAM: The Open Source CFD Toolbox           |
|  \\    /   O peration     | Version:  2406                                  |
|   \\  /    A nd           | Website:  www.openfoam.com                      |
|    \\/     M anipulation  |                                                 |
\*---------------------------------------------------------------------------*/
FoamFile
{
    version     2.0;
    format      ascii;
    arch        "LSB;label=32;scalar=64";
    class       volScalarField;
    location    "0.039";
    object      alphat;
}
// * * * * * * * * * * * * * * * * * * * * * * * * * * * * * * * * * * * * * //

dimensions      [1 -1 -1 0 0 0 0];

internalField   nonuniform List<scalar> 
92813
(
0.039230607
0.042357707
0.045603955
0.048892932
0.052192157
0.055480855
0.058741411
0.06195971
0.065124018
0.068224258
0.071251378
0.074196745
0.077051515
0.079806292
0.082450388
0.084973115
0.087365958
0.0896124
0.091697425
0.093606589
0.095325217
0.096838812
0.098132517
0.099190939
0.099998131
0.10053772
0.100793
0.10074701
0.10038269
0.099683106
0.098631705
0.097212653
0.095411281
0.09321463
0.090612107
0.087596249
0.084164048
0.080317372
0.076064372
0.071421035
0.066419617
0.061100913
0.055517207
0.049742016
0.043866252
0.037996298
0.032307047
0.027001
0.022333601
0.018560416
0.015828976
0.014024217
0.012857783
0.012058103
0.011450862
0.010947443
0.010506436
0.010108917
0.0097453763
0.0094110718
0.0091034906
0.0088193225
0.0085570021
0.0083146031
0.0080903433
0.0078819596
0.0076884275
0.0075089055
0.0073407753
0.0071844248
0.0070384702
0.0069005588
0.0067716827
0.0066514621
0.0065385689
0.0064340536
0.0063371094
0.0062459769
0.006161373
0.0060818343
0.0060060817
0.0059357802
0.0058697954
0.0058081149
0.005750915
0.0056970526
0.0056472496
0.0056013892
0.0055585552
0.0055192115
0.0054828929
0.0054485025
0.0054161623
0.0053853209
0.0053558275
0.0053279581
0.0053013969
0.0052764949
0.0052532238
0.0052312962
0.0052106155
0.0051911274
0.0051727861
0.0051554626
0.0051392481
0.0051237943
0.005108861
0.0050947111
0.0050815234
0.0050694733
0.0050583751
0.0050478849
0.0050378611
0.0050283642
0.0050196406
0.005011734
0.0050045114
0.0049979154
0.0049919419
0.0049865429
0.004981761
0.0049775913
0.0049741107
0.0049711607
0.0049691232
0.0049671793
0.0049669858
0.044040655
0.04720202
0.050359602
0.05351704
0.056667956
0.05980061
0.062902168
0.065960925
0.068966321
0.071908605
0.07477854
0.077567048
0.080264782
0.08286177
0.085347296
0.087710271
0.089939165
0.092019651
0.093937076
0.095676522
0.097222955
0.09856151
0.09967744
0.10055526
0.10117897
0.10153221
0.10159831
0.10136043
0.10080173
0.099905561
0.098655799
0.097037184
0.095035792
0.09263961
0.089839238
0.086628706
0.08300672
0.078977824
0.074552501
0.069747855
0.064601233
0.059159227
0.053476999
0.047634338
0.041730871
0.035893634
0.030300337
0.025176291
0.020793014
0.017393147
0.015034974
0.013517124
0.01252925
0.011826508
0.011271046
0.010797102
0.010374961
0.009991406
0.0096392246
0.009314849
0.0090163093
0.0087401636
0.0084852078
0.008249513
0.0080312514
0.0078281256
0.0076392775
0.0074638977
0.0072991641
0.0071458889
0.0070027123
0.0068676414
0.0067415803
0.0066238678
0.0065133561
0.006411188
0.0063163208
0.0062270658
0.0061441304
0.0060660815
0.0059916667
0.0059225749
0.0058577712
0.0057971717
0.005740997
0.0056880893
0.0056392194
0.00559422
0.0055521501
0.005513514
0.0054777896
0.0054438846
0.0054119725
0.0053814872
0.0053523138
0.0053247282
0.005298399
0.0052737083
0.005250623
0.0052288394
0.005208316
0.0051889978
0.0051707941
0.0051536037
0.0051375129
0.0051221832
0.0051073652
0.0050933173
0.0050802264
0.0050682746
0.0050572725
0.0050468729
0.0050369349
0.0050275035
0.0050188329
0.0050109714
0.0050037914
0.0049972371
0.0049913018
0.0049859354
0.0049811836
0.0049770382
0.0049735759
0.0049706442
0.0049686162
0.0049666823
0.0049664926
0.049001825
0.052076153
0.055121121
0.058146147
0.061151875
0.064131105
0.067074403
0.069972338
0.072815665
0.075595269
0.078302085
0.080926943
0.083460327
0.085892085
0.088211339
0.090406397
0.09246471
0.094372422
0.096115035
0.097677572
0.099044969
0.10020232
0.1011344
0.10182565
0.10226008
0.1024214
0.10229304
0.10185834
0.1011007
0.10000384
0.09855213
0.096730967
0.094527274
0.091930113
0.088931438
0.085526976
0.081717456
0.077510121
0.072917296
0.067960592
0.062682373
0.05713294
0.051373641
0.045492267
0.039598739
0.033836575
0.028397817
0.023527056
0.019496885
0.016496856
0.014482365
0.013189568
0.012322652
0.011680042
0.011155775
0.010700234
0.010290804
0.0099172191
0.0095733442
0.0092562565
0.0089642455
0.008693746
0.0084438476
0.0082126229
0.0079982328
0.0077984255
0.007612483
0.0074396272
0.0072769716
0.0071256043
0.0069841139
0.0068503943
0.0067256862
0.0066093172
0.0065000059
0.0063990177
0.0063052353
0.0062169158
0.0061348317
0.0060576614
0.0059840001
0.0059155686
0.0058514328
0.0057913797
0.0057357659
0.0056833918
0.0056350275
0.0055905119
0.0055488578
0.0055105942
0.0054751893
0.0054415378
0.0054098517
0.005379549
0.0053505222
0.0053230593
0.005296808
0.0052721747
0.0052491366
0.0052273755
0.0052069045
0.0051876604
0.0051695043
0.0051523652
0.0051363278
0.005121069
0.0051063165
0.0050923151
0.0050792656
0.0050673624
0.0050564177
0.0050460799
0.0050362026
0.0050268087
0.0050181619
0.0050103194
0.0050031604
0.0049966294
0.0049907163
0.0049853686
0.0049806351
0.0049765032
0.0049730504
0.0049701301
0.0049681079
0.0049661773
0.0049659904
0.054093797
0.057025404
0.059927027
0.062803554
0.065655193
0.068475622
0.071256601
0.073989781
0.076666702
0.079278702
0.081816891
0.084272072
0.086634589
0.088894141
0.091039647
0.093059162
0.094939835
0.096667865
0.098228764
0.099607542
0.10078905
0.10175816
0.1024995
0.10299742
0.103236
0.10319901
0.10287005
0.10223265
0.10127055
0.099967933
0.098309739
0.096282136
0.093873026
0.091072708
0.087874669
0.084276546
0.080281386
0.075899425
0.071144405
0.066044957
0.060648493
0.055007542
0.049192246
0.04329899
0.037448811
0.031800692
0.026563255
0.021993457
0.018344874
0.015730157
0.014012295
0.012899448
0.012126896
0.011532316
0.011034353
0.010595231
0.01019762
0.0098335756
0.0094977817
0.0091879213
0.0089025138
0.0086377674
0.0083931233
0.0081666237
0.0079563844
0.0077601871
0.007577448
0.0074074322
0.0072471243
0.0070979497
0.0069584434
0.0068265402
0.0067036932
0.0065890995
0.0064814594
0.0063821227
0.006289814
0.0062028213
0.0061218964
0.0060458635
0.0059732339
0.0059056996
0.0058424478
0.0057831608
0.0057283161
0.0056766768
0.0056290127
0.0055851511
0.0055440686
0.0055063225
0.0054713527
0.0054380509
0.0054066842
0.0053766427
0.0053478328
0.0053205689
0.0052944723
0.0052699707
0.0052470471
0.0052253688
0.0052050028
0.0051858805
0.0051678157
0.0051507687
0.0051348212
0.0051196626
0.005105005
0.0050910801
0.0050781019
0.0050662741
0.0050554072
0.0050451471
0.0050353465
0.0050260076
0.0050174012
0.0050095915
0.0050024648
0.0049959667
0.0049900845
0.0049847629
0.0049800545
0.0049759421
0.0049725039
0.0049695988
0.0049675845
0.0049656609
0.0049654775
0.059279688
0.062042611
0.064779849
0.067492472
0.070179016
0.072832589
0.075444905
0.078007785
0.080512968
0.082951914
0.085315741
0.087595159
0.089780354
0.091860855
0.093825421
0.095661972
0.097357565
0.098898419
0.10027009
0.10145762
0.1024458
0.10321937
0.10376285
0.10406056
0.10409656
0.10385475
0.10331889
0.10247282
0.10130066
0.099787111
0.097917819
0.095679836
0.093062188
0.090056573
0.086658206
0.082866838
0.078688104
0.074135424
0.069225064
0.063992512
0.058490241
0.052774268
0.046924115
0.041045143
0.035270439
0.029774672
0.024782681
0.020555285
0.017306921
0.015059817
0.013602234
0.012639411
0.011944429
0.01139022
0.010915474
0.010491651
0.010105579
0.0097511425
0.0094235952
0.0091211775
0.0088425736
0.0085836995
0.0083444025
0.008122673
0.0079165771
0.0077239686
0.0075443903
0.0073771814
0.0072192156
0.0070722458
0.0069347505
0.0068046274
0.006683607
0.0065707642
0.0064647262
0.0063669413
0.0062760069
0.0061902237
0.0061103405
0.0060353609
0.005963698
0.0058969882
0.0058345565
0.0057759577
0.005721814
0.0056708515
0.0056238162
0.005580541
0.0055399658
0.0055026692
0.0054680723
0.0054350666
0.0054039768
0.0053741587
0.0053455232
0.0053184218
0.0052924473
0.0052680423
0.005245201
0.0052235794
0.0052032951
0.0051842711
0.0051662758
0.0051493026
0.0051334292
0.0051183585
0.0051037862
0.0050899259
0.0050770065
0.0050652424
0.0050544444
0.005044256
0.0050345274
0.005025238
0.0050166653
0.0050088822
0.0050017822
0.0049953127
0.0049894575
0.0049841588
0.0049794726
0.0049753773
0.0049719517
0.0049690602
0.0049670528
0.0049651346
0.0049649545
0.06451555
0.067092452
0.06965424
0.07219285
0.074705421
0.077184431
0.079621291
0.082007642
0.0843351
0.086595013
0.088778369
0.090875711
0.092877047
0.094771741
0.096548418
0.098194911
0.099698248
0.10104469
0.10221987
0.10320887
0.10399649
0.10456742
0.10490611
0.10499686
0.10482377
0.10437085
0.1036221
0.1025617
0.10117422
0.099445
0.097360473
0.09490871
0.09208001
0.088867648
0.085268768
0.081285457
0.076926231
0.07220785
0.067150231
0.061795559
0.056201227
0.050428318
0.044566095
0.038729496
0.033064952
0.027763601
0.023064451
0.019219751
0.016382394
0.014478203
0.01324434
0.012404406
0.011772317
0.011251823
0.010797523
0.010387847
0.010012849
0.0096678394
0.0093484333
0.009053415
0.0087815876
0.0085285041
0.0082944936
0.0080774712
0.0078754459
0.0076863758
0.0075099048
0.0073454952
0.0071898929
0.0070451596
0.0069097291
0.0067814552
0.0066623619
0.0065513621
0.0064470112
0.006350853
0.0062613484
0.0061768345
0.0060980228
0.006024138
0.0059535204
0.0058876781
0.0058261005
0.0057682295
0.0057148312
0.0056645948
0.0056182261
0.0055755699
0.005535533
0.0054987107
0.0054645028
0.0054318062
0.0054010101
0.0053714297
0.0053429783
0.0053160549
0.0052902217
0.0052659295
0.0052431855
0.0052216369
0.005201447
0.0051825302
0.0051646141
0.0051477257
0.0051319365
0.0051169608
0.0051024834
0.0050886972
0.0050758447
0.0050641509
0.0050534273
0.0050433158
0.0050336646
0.0050244308
0.0050158967
0.0050081441
0.0050010738
0.0049946351
0.0049888093
0.0049835358
0.0049788737
0.0049747972
0.0049713858
0.004968509
0.0049665091
0.0049645974
0.0049644209
0.069761939
0.07213833
0.074519439
0.076877948
0.079210094
0.081508107
0.083763261
0.085966991
0.088110695
0.090185514
0.09218223
0.094091189
0.095902213
0.097604508
0.099186587
0.10063623
0.10194045
0.10308559
0.10405733
0.10484084
0.10542097
0.1057824
0.10590959
0.10578683
0.10539834
0.10472829
0.10376094
0.10248088
0.10087325
0.098924066
0.096620707
0.09395239
0.090910855
0.087491146
0.083692557
0.079519775
0.074984534
0.070106824
0.064911537
0.059447859
0.053777624
0.047968459
0.04211996
0.036357767
0.030843209
0.025784403
0.021429205
0.018002508
0.015573441
0.01397769
0.012930426
0.012189455
0.011608257
0.011116299
0.010680371
0.010284013
0.009919811
0.0095841869
0.0092729293
0.0089853711
0.0087203834
0.0084730868
0.0082443755
0.0080320586
0.0078340808
0.0076485469
0.0074751603
0.0073135791
0.0071604115
0.0070179667
0.0068846753
0.0067583163
0.0066412267
0.0065321366
0.0064295104
0.0063349908
0.0062469153
0.0061636647
0.0060858989
0.0060130926
0.005943537
0.0058785589
0.005817827
0.0057606824
0.0057080291
0.005658523
0.0056128089
0.0055707592
0.0055312494
0.0054948828
0.0054610437
0.005428639
0.0053981236
0.0053687705
0.0053404908
0.0053137363
0.0052880397
0.0052638528
0.0052411994
0.0052197219
0.0051996221
0.0051808045
0.0051629627
0.0051461574
0.0051304504
0.0051155665
0.0051011844
0.0050874721
0.0050746844
0.0050630578
0.0050524069
0.0050423721
0.0050327984
0.0050236207
0.0050151243
0.005007401
0.0050003591
0.0049939501
0.004988153
0.0049829041
0.0049782655
0.0049742073
0.0049708101
0.0049679475
0.004965955
0.0049640495
0.0049638767
0.074974074
0.077149135
0.079344983
0.081518601
0.083665234
0.08577694
0.087844935
0.089860482
0.091814757
0.093698678
0.095502814
0.097217314
0.098831824
0.10033541
0.10171649
0.10296281
0.1040614
0.10499865
0.10576036
0.10633175
0.10669776
0.10684314
0.10675238
0.10640988
0.10579997
0.10490707
0.10371578
0.10221117
0.100379
0.098206138
0.095680992
0.092794097
0.089538814
0.085912173
0.081915868
0.077557506
0.072852465
0.067823314
0.062502106
0.056945487
0.051218353
0.045397108
0.03959243
0.033942231
0.028624295
0.023862673
0.01990306
0.016917931
0.014877591
0.013548317
0.012652372
0.011990194
0.011450302
0.010982869
0.01056372
0.010180017
0.009826384
0.0095001053
0.0091969749
0.0089168948
0.0086587562
0.0084171859
0.0081937386
0.0079860813
0.0077920908
0.007610068
0.0074397138
0.0072809856
0.007130335
0.0069902076
0.0068591118
0.006734735
0.0066197239
0.0065126064
0.0064117462
0.0063188857
0.0062322485
0.006150273
0.0060735472
0.006001817
0.0059333662
0.005869269
0.0058093859
0.0057529879
0.0057010988
0.0056523447
0.0056072925
0.0055658553
0.0055268798
0.0054909686
0.0054574951
0.0054253798
0.0053951421
0.0053660169
0.0053379097
0.0053113269
0.0052857742
0.0052616972
0.0052391396
0.0052177417
0.0051977358
0.005179017
0.0051612527
0.005144536
0.0051289161
0.0051141252
0.0050998434
0.0050862109
0.0050734911
0.0050619328
0.0050513564
0.0050414013
0.0050319076
0.0050227894
0.0050143331
0.0050066405
0.0049996279
0.0049932491
0.0049874814
0.0049822582
0.0049776435
0.0049736045
0.0049702223
0.0049673743
0.0049653894
0.0049634906
0.0049633214
0.080111314
0.082090923
0.084097767
0.086082742
0.088039845
0.089960909
0.091837099
0.093659543
0.095419227
0.09710688
0.098712885
0.10022722
0.10163938
0.10293831
0.10411238
0.10514928
0.1060361
0.10675929
0.10730472
0.10765776
0.10780342
0.10772657
0.10741182
0.10684371
0.10600679
0.10488576
0.10346567
0.10173215
0.099671698
0.097272133
0.09452306
0.091416499
0.087947639
0.084115732
0.079925153
0.075386796
0.070520238
0.065349734
0.059917267
0.054287005
0.048525355
0.042720792
0.036995649
0.031502013
0.026435121
0.022030381
0.01851244
0.01597409
0.01428668
0.013178718
0.012402666
0.011802949
0.01129689
0.010850954
0.010447391
0.01007583
0.0097326119
0.009415672
0.0091206614
0.008848082
0.0085967961
0.0083608906
0.0081426787
0.007939643
0.0077495926
0.0075710773
0.0074037143
0.0072478916
0.0070998867
0.0069621054
0.0068332666
0.0067109592
0.0065981006
0.0064930153
0.0063939556
0.0063027632
0.0062175634
0.0061368634
0.0060611699
0.005990499
0.0059231779
0.0058599748
0.0058009348
0.005745301
0.0056941881
0.0056461978
0.0056018048
0.0055609764
0.0055225333
0.0054870668
0.0054539481
0.0054221139
0.0053921423
0.0053632392
0.0053353028
0.0053088891
0.0052834816
0.0052595145
0.0052370534
0.00521574
0.0051958279
0.0051772033
0.005159517
0.0051428918
0.0051273614
0.0051126617
0.0050984828
0.0050849341
0.0050722825
0.0050607912
0.0050502892
0.0050404153
0.0050310026
0.0050219459
0.0050135304
0.0050058687
0.0049988853
0.0049925363
0.004986798
0.0049816006
0.0049770097
0.00497299
0.0049696232
0.0049667897
0.0049648126
0.0049629205
0.0049627551
0.085137175
0.086924546
0.088741343
0.090535421
0.092300057
0.094027039
0.095707547
0.097332628
0.098893145
0.10037968
0.10178249
0.10309142
0.10429584
0.10538463
0.10634609
0.10716794
0.10783728
0.10834065
0.10866404
0.10879292
0.10871247
0.1084077
0.10786339
0.10706431
0.10599529
0.10464144
0.10298831
0.1010222
0.098730488
0.09610208
0.093127943
0.089801783
0.08612085
0.082086888
0.077707247
0.072996468
0.067978546
0.062681089
0.05715564
0.051473099
0.045704301
0.039951036
0.034348106
0.029063882
0.024310261
0.020323191
0.017279227
0.015170427
0.013788066
0.012857413
0.012174785
0.011624754
0.01114681
0.010720128
0.010331262
0.0099714412
0.0096385317
0.0093309356
0.0090440325
0.0087789601
0.0085344987
0.0083041772
0.0080911566
0.0078926904
0.0077065276
0.0075315202
0.0073671035
0.0072142471
0.007069045
0.0069336217
0.0068070876
0.0066869477
0.0065763018
0.006473295
0.006376061
0.0062865384
0.0062027685
0.00612334
0.0060486804
0.0059790502
0.0059128804
0.0058505922
0.0057923917
0.0057375474
0.0056872261
0.0056400115
0.0055962784
0.005556058
0.005518148
0.005483119
0.0054503484
0.0054187908
0.0053890744
0.0053603897
0.0053326271
0.0053063831
0.0052811251
0.0052572718
0.0052349117
0.0052136901
0.0051938737
0.0051753416
0.0051577362
0.0051412075
0.0051257711
0.0051111622
0.0050970896
0.0050836311
0.0050710494
0.0050596244
0.0050491976
0.0050394073
0.0050300773
0.005021085
0.0050127119
0.0050050821
0.0049981283
0.0049918093
0.0049861006
0.0049809298
0.0049763627
0.0049723629
0.004969012
0.0049661931
0.004964224
0.004962339
0.0049621774
0.090013277
0.091611013
0.093237664
0.094839381
0.096409379
0.097939587
0.099421241
0.10084536
0.10220276
0.10348393
0.10467903
0.10577784
0.10676966
0.10764332
0.10838711
0.10898874
0.1094354
0.10971371
0.10980978
0.10970924
0.10939745
0.10885961
0.10808076
0.10704596
0.10574042
0.10414974
0.10226009
0.10005857
0.097533575
0.09467526
0.091476152
0.08793187
0.084041993
0.079811069
0.075249795
0.07037679
0.065220385
0.05981358
0.054217614
0.048508974
0.0427662
0.037105625
0.03167594
0.026663156
0.02229106
0.018776263
0.016216115
0.014497563
0.01336659
0.012573758
0.011963319
0.011453282
0.010999153
0.010590099
0.010215264
0.0098668673
0.0095442037
0.0092459584
0.0089671476
0.0087095751
0.0084718815
0.0082470589
0.0080391775
0.0078452245
0.0076629066
0.0074914237
0.007329924
0.0071801029
0.0070378885
0.0069048336
0.0067806493
0.0066627919
0.0065544039
0.0064535113
0.0063581213
0.0062702632
0.006187909
0.0061097404
0.0060361258
0.0059675136
0.0059025019
0.005841155
0.0057837906
0.005729764
0.005680248
0.0056338156
0.0055907415
0.0055511258
0.0055137461
0.0054791444
0.0054467133
0.0054154267
0.0053859518
0.0053574803
0.0053298951
0.005303821
0.0052787149
0.0052549792
0.0052327244
0.0052116009
0.0051918815
0.0051734401
0.0051559188
0.0051394904
0.0051241524
0.0051096336
0.0050956697
0.0050823072
0.0050697967
0.0050584368
0.0050480854
0.0050383806
0.0050291344
0.005020209
0.0050118796
0.0050042823
0.0049973584
0.004991069
0.0049853901
0.0049802463
0.0049757029
0.0049717234
0.0049683887
0.0049655845
0.0049636238
0.0049617459
0.0049615882
0.094699011
0.096109518
0.097545924
0.098954509
0.1003285
0.10165999
0.10294033
0.10416058
0.10531155
0.10638372
0.10736724
0.10825183
0.10902677
0.10968089
0.11020248
0.11057932
0.11079865
0.11084722
0.11071129
0.11037666
0.10982893
0.10905354
0.10803586
0.10676132
0.10521562
0.10338494
0.10125623
0.098817521
0.096058374
0.092970401
0.089547908
0.085788687
0.081694953
0.07727443
0.072541634
0.067519857
0.062240882
0.056746148
0.051107507
0.045404893
0.03972831
0.034210021
0.029014431
0.024344182
0.020422953
0.017418326
0.015323431
0.013939127
0.013006613
0.012318547
0.011763964
0.011286751
0.010853274
0.010460691
0.010099366
0.0097621483
0.0094497017
0.0091608
0.0088900601
0.0086399641
0.0084089447
0.0081895392
0.007986731
0.0077972257
0.0076187226
0.0074507953
0.0072922089
0.0071454819
0.0070064431
0.0068757772
0.0067539884
0.0066385345
0.0065324247
0.0064336667
0.0063401276
0.0062539225
0.0061729617
0.0060960334
0.0060234854
0.0059558689
0.0058920092
0.0058316363
0.0057751105
0.0057219333
0.0056732363
0.0056275886
0.0055851737
0.005546159
0.0055093055
0.0054751216
0.0054430217
0.0054120011
0.0053827552
0.005354492
0.0053270893
0.005301187
0.0052762365
0.0052526242
0.0052304807
0.0052094619
0.0051898417
0.0051714912
0.0051540587
0.0051377346
0.0051225002
0.0051080721
0.0050942193
0.0050809591
0.0050685214
0.0050572258
0.0050469501
0.0050373329
0.0050281717
0.0050193161
0.005011032
0.0050034681
0.0049965744
0.0049903147
0.0049846657
0.0049795495
0.0049750299
0.004971071
0.004967753
0.0049649636
0.0049630117
0.004961141
0.0049609872
0.099150667
0.10037633
0.10162291
0.10283821
0.10401547
0.10514698
0.10622423
0.10723838
0.1081803
0.10904053
0.10980922
0.11047613
0.11103056
0.11146136
0.11175687
0.11190495
0.11189295
0.11170775
0.1113358
0.11076312
0.10997556
0.10895891
0.10769892
0.10618149
0.10439292
0.10232012
0.099950926
0.097274487
0.094281732
0.090965942
0.08732346
0.083354545
0.079064395
0.074464333
0.069573262
0.064420032
0.059038305
0.053482417
0.047835055
0.042177139
0.036615577
0.031299303
0.026409482
0.022159393
0.018749964
0.016265198
0.014588812
0.01347488
0.012693648
0.012084262
0.011573428
0.011123819
0.010708777
0.010331835
0.0099835535
0.0096573417
0.00935511
0.0090755145
0.0088128251
0.0085701639
0.0083456811
0.0081316292
0.0079338133
0.0077486827
0.0075739867
0.0074096642
0.0072540332
0.0071104347
0.006974732
0.0068465106
0.0067271792
0.0066142432
0.0065104055
0.0064137879
0.0063220953
0.0062375267
0.0061579304
0.006082217
0.0060107657
0.0059441248
0.0058813972
0.0058220372
0.0057663602
0.0057140648
0.0056661992
0.0056213344
0.0055795786
0.0055411597
0.0055048253
0.0054710495
0.0054392706
0.00540851
0.005379482
0.0053514223
0.0053242068
0.0052984791
0.005273688
0.0052502058
0.0052281802
0.0052072722
0.0051877541
0.0051694963
0.0051521577
0.0051359411
0.0051208155
0.0051064805
0.0050927401
0.0050795879
0.005067225
0.0050559931
0.0050457931
0.0050362648
0.0050271898
0.0050184065
0.0050101694
0.0050026399
0.0049957768
0.0049895466
0.0049839275
0.0049788394
0.0049743435
0.0049704057
0.0049671046
0.0049643301
0.0049623875
0.004960524
0.0049603742
0.10332239
0.10436569
0.10542325
0.10644557
0.10742593
0.10835678
0.10922979
0.11003626
0.11076719
0.11141319
0.11196451
0.11241097
0.11274194
0.11294633
0.11301259
0.11292865
0.11268202
0.11225975
0.11164851
0.11083459
0.10980417
0.10854343
0.10703859
0.10527615
0.10324313
0.10092729
0.098317548
0.095404358
0.092180238
0.0886404
0.084783515
0.080612655
0.076136392
0.071370105
0.066337666
0.061073957
0.055616657
0.050033188
0.04441537
0.038849904
0.03346311
0.028420474
0.023918251
0.02016538
0.0173063
0.01531528
0.013990095
0.01308405
0.012415313
0.01186508
0.01138931
0.010963443
0.010565531
0.010203562
0.0098677852
0.0095525133
0.0092605121
0.0089901425
0.0087355095
0.0085002168
0.0082820621
0.0080733386
0.0078804226
0.0076995842
0.0075287166
0.0073680648
0.0072154942
0.0070750235
0.0069427507
0.006817082
0.0067002983
0.0065899684
0.0064883731
0.0063938854
0.0063040205
0.0062210669
0.0061428003
0.006068272
0.0059979524
0.0059322723
0.0058706465
0.0058123433
0.0057575367
0.0057061542
0.0056591308
0.0056150437
0.0055739467
0.0055361171
0.0055002923
0.0054669153
0.0054354459
0.0054049383
0.0053761204
0.0053482601
0.0053212358
0.0052956872
0.0052710606
0.0052477164
0.0052258162
0.0052050253
0.0051856138
0.0051674521
0.0051502135
0.005134107
0.0051190954
0.0051048581
0.0050912315
0.0050781918
0.0050659063
0.005054738
0.0050446136
0.0050351752
0.0050261878
0.0050174794
0.0050092911
0.005001797
0.004994965
0.0049887642
0.0049831752
0.0049781156
0.0049736435
0.0049697274
0.0049664432
0.0049636837
0.0049617509
0.0049598949
0.004959749
0.10716633
0.10802966
0.10889936
0.10972941
0.11051314
0.11124316
0.11191135
0.11250918
0.11302781
0.113458
0.11379011
0.11401408
0.11411939
0.11409504
0.11392961
0.11361118
0.11312742
0.11246561
0.11161269
0.11055525
0.10927988
0.10777325
0.10602214
0.10401379
0.10173604
0.099177713
0.096328984
0.093181841
0.089730655
0.085972868
0.081909831
0.077547821
0.072899253
0.067984136
0.062832008
0.057483889
0.051984226
0.046414347
0.040873466
0.035459394
0.030319321
0.025634404
0.021607168
0.018414471
0.016107237
0.014549583
0.013500296
0.012747994
0.012161619
0.011656744
0.01120996
0.010804719
0.010423717
0.010075959
0.0097519351
0.0094477413
0.0091659833
0.0089047034
0.008658216
0.008430178
0.0082180155
0.0080146782
0.0078265714
0.007649925
0.0074829401
0.0073260418
0.0071767121
0.0070393384
0.0069104918
0.0067875394
0.0066734258
0.0065657484
0.0064663579
0.0063739722
0.0062859019
0.0062045343
0.0061275592
0.0060541863
0.0059850342
0.0059203074
0.0058597475
0.0058025484
0.0057486459
0.0056982034
0.0056520309
0.0056087145
0.0055682748
0.0055310259
0.0054956984
0.0054627113
0.0054315379
0.0054012752
0.0053726628
0.0053449984
0.0053181682
0.0052928047
0.0052683493
0.0052451517
0.005223385
0.0052027175
0.0051834187
0.005165358
0.0051482257
0.0051322316
0.0051173388
0.0051032065
0.0050896947
0.0050767706
0.0050645655
0.0050534614
0.0050434122
0.005034064
0.0050251655
0.0050165344
0.005008397
0.0050009394
0.0049941391
0.0049879676
0.0049824086
0.0049773779
0.0049729298
0.0049690358
0.0049657685
0.0049630243
0.0049611019
0.0049592532
0.0049591114
0.11063222
0.11131811
0.11200138
0.11264022
0.11322798
0.11375747
0.11422078
0.11460961
0.1149153
0.1151288
0.11524062
0.11524083
0.11511906
0.11486446
0.11446575
0.11391121
0.11318872
0.11228583
0.1111898
0.10988761
0.10836634
0.1066132
0.10461573
0.10236197
0.099840798
0.097042277
0.09395807
0.090581966
0.086910496
0.08294369
0.078685985
0.074147325
0.069344521
0.064302961
0.059058793
0.053658034
0.048156695
0.042651901
0.037246488
0.032056133
0.027248475
0.023015569
0.019544812
0.016942298
0.015143765
0.013936771
0.01309279
0.012451786
0.011924731
0.011456455
0.011034191
0.010646793
0.010283774
0.009948974
0.0096358119
0.0093431809
0.0090716055
0.0088191882
0.0085810955
0.0083600934
0.0081534
0.0079556807
0.0077722987
0.0075997008
0.0074366856
0.0072836459
0.0071378165
0.0070034987
0.0068779643
0.0067579257
0.0066466162
0.0065415922
0.0064443862
0.0063540529
0.0062677335
0.0061879087
0.0061121858
0.0060399421
0.0059719916
0.0059082223
0.0058486915
0.0057926442
0.0057396908
0.0056902094
0.0056448938
0.0056023412
0.0055625555
0.0055258765
0.0054910319
0.0054584254
0.0054275331
0.0053975067
0.0053690985
0.0053416275
0.0053149934
0.0052898224
0.0052655469
0.0052425053
0.005220881
0.0052003443
0.0051811659
0.0051632121
0.0051461926
0.0051303133
0.0051155433
0.0051015258
0.0050881303
0.0050753231
0.0050632025
0.0050521635
0.0050421887
0.0050329307
0.0050241224
0.0050155709
0.0050074865
0.0050000667
0.0049932985
0.0049871566
0.0049816276
0.004976626
0.0049722022
0.0049683308
0.0049650803
0.0049623515
0.0049604402
0.0049585989
0.0049584612
0.11366749
0.11417852
0.11467708
0.11512605
0.1155189
0.11584861
0.11610754
0.11628763
0.11638043
0.11637709
0.11626831
0.11604433
0.11569493
0.11520946
0.11457682
0.11378551
0.1128237
0.11167924
0.11033979
0.10879282
0.10702596
0.10502714
0.10278472
0.10028776
0.097526349
0.094492021
0.091178197
0.087580777
0.083698823
0.079535374
0.075098428
0.070402135
0.065468332
0.060328719
0.055027482
0.049613031
0.044161804
0.038785441
0.033586719
0.028708117
0.024332075
0.020646906
0.0177881
0.01575605
0.014384985
0.013441029
0.012745154
0.012184442
0.011698549
0.011262302
0.010861005
0.010489158
0.01014591
0.0098223659
0.0095195855
0.0092391817
0.0089775123
0.0087335731
0.0085043009
0.0082898946
0.0080880461
0.0078964473
0.0077176623
0.0075489031
0.0073899757
0.0072409371
0.0070989421
0.0069676458
0.0068452173
0.0067282864
0.0066198799
0.0065174827
0.006422481
0.0063341231
0.0062495113
0.0061711625
0.0060966545
0.006025521
0.0059588046
0.0058960141
0.0058374791
0.0057826266
0.0057306751
0.0056821706
0.0056377145
0.0055959202
0.0055567823
0.00552066
0.0054862825
0.0054540462
0.0054234195
0.0053936209
0.0053654168
0.0053381377
0.005311702
0.005286732
0.0052626476
0.0052397715
0.0052182996
0.0051979022
0.0051788533
0.0051610132
0.0051441126
0.0051283517
0.0051137074
0.0050998164
0.0050865395
0.0050738486
0.0050618172
0.0050508446
0.0050409434
0.005031775
0.0050230582
0.0050145883
0.0050065593
0.0049991786
0.0049924433
0.0049863308
0.0049808319
0.0049758596
0.0049714605
0.0049676122
0.0049643783
0.0049616653
0.0049597656
0.0049579317
0.0049577981
0.11621673
0.11655572
0.1168716
0.11713246
0.11733187
0.11746308
0.11751873
0.117491
0.11737171
0.1171522
0.11682337
0.11637566
0.11579904
0.11508305
0.11421683
0.11318918
0.11198856
0.11060325
0.10902139
0.10723098
0.10522038
0.10297834
0.10049422
0.097758284
0.094762081
0.091498862
0.087964131
0.084156275
0.080077319
0.075733823
0.071137928
0.066308616
0.061273469
0.056071494
0.050755479
0.045380441
0.040044466
0.034868943
0.029966551
0.025504012
0.021665932
0.018606071
0.016364612
0.014831035
0.013787687
0.013029829
0.012440229
0.011936711
0.011481945
0.011069636
0.010688929
0.010335213
0.010005344
0.0096955466
0.009406049
0.0091361969
0.0088838927
0.0086479011
0.0084277163
0.0082193481
0.0080220093
0.0078371433
0.0076626619
0.0074975445
0.0073428483
0.0071979889
0.0070602145
0.0069319144
0.0068123445
0.0066986756
0.00659318
0.0064933929
0.0064006504
0.0063141604
0.0062312298
0.0061542591
0.0060809318
0.0060109001
0.0059454518
0.0058836835
0.0058261195
0.005772492
0.0057215988
0.0056740842
0.0056304856
0.0055894459
0.005550947
0.0055153654
0.0054814389
0.0054495601
0.0054191837
0.0053896056
0.0053616055
0.0053345182
0.0053082844
0.0052835248
0.0052596445
0.0052369441
0.0052156359
0.0051953883
0.0051764788
0.0051587598
0.0051419841
0.0051263463
0.0051118299
0.0050980775
0.005084923
0.0050723468
0.0050604099
0.0050495051
0.0050396763
0.0050305967
0.0050219725
0.0050135859
0.0050056148
0.0049982749
0.0049915731
0.0049854902
0.0049800213
0.0049750786
0.0049707045
0.0049668797
0.0049636623
0.0049609654
0.0049590778
0.0049572514
0.0049571219
0.11822251
0.1183923
0.11852778
0.11860264
0.11861058
0.11854515
0.11839927
0.11816544
0.11783567
0.11740155
0.11685416
0.11618416
0.11538173
0.11443666
0.11333837
0.11207598
0.11063839
0.10901434
0.10719253
0.10516169
0.10291096
0.10043014
0.097709757
0.094741528
0.091518704
0.088036592
0.084293151
0.080289699
0.076031757
0.071530027
0.066801515
0.061870847
0.056772303
0.051553448
0.046274718
0.041005476
0.035866696
0.030982131
0.026483942
0.022552232
0.019347439
0.016942717
0.015260889
0.014119341
0.013307553
0.012683116
0.01216144
0.011693405
0.01127068
0.010881932
0.010520224
0.010182543
0.0098666964
0.0095703031
0.0092928682
0.0090336392
0.0087909475
0.0085634527
0.0083495597
0.0081471133
0.0079566743
0.0077778037
0.0076072084
0.0074457957
0.0072954274
0.0071548932
0.0070216909
0.0068963868
0.0067794764
0.0066691546
0.0065664664
0.0064693205
0.0063788715
0.0062941152
0.0062128766
0.0061371592
0.0060649766
0.0059960559