/*--------------------------------*- C++ -*----------------------------------*\
| =========                 |                                                 |
| \\      /  F ield         | OpenFOAM: The Open Source CFD Toolbox           |
|  \\    /   O peration     | Version:  2406                                  |
|   \\  /    A nd           | Website:  www.openfoam.com                      |
|    \\/     M anipulation  |                                                 |
\*---------------------------------------------------------------------------*/
FoamFile
{
    version     2.0;
    format      ascii;
    arch        "LSB;label=32;scalar=64";
    class       volScalarField;
    location    "0.039";
    object      Ma;
}
// * * * * * * * * * * * * * * * * * * * * * * * * * * * * * * * * * * * * * //

dimensions      [0 0 0 0 0 0 0];

internalField   nonuniform List<scalar> 
92813
(
0.14211022
0.14279623
0.14352893
0.14424548
0.14487991
0.14545826
0.14600045
0.14651947
0.14702751
0.14753508
0.14805099
0.14858241
0.14913452
0.14971249
0.15031236
0.15093432
0.15157491
0.15222273
0.15286416
0.15349422
0.15410966
0.15470536
0.15528867
0.15586275
0.15642789
0.15698315
0.15752693
0.15805717
0.15857134
0.15906657
0.15953956
0.15998662
0.16040363
0.16078601
0.16112871
0.16142598
0.16167142
0.16186219
0.16198586
0.1620237
0.16198158
0.16185344
0.16161975
0.16127073
0.16079851
0.16019875
0.15947468
0.15864471
0.15775227
0.15687137
0.15608969
0.15546453
0.15499402
0.15463834
0.15435386
0.15410931
0.153887
0.15367826
0.15347873
0.15328696
0.15310245
0.15292355
0.1527505
0.15258328
0.15242104
0.15226307
0.15210929
0.15196039
0.15181532
0.15167427
0.15153717
0.15140291
0.15127261
0.15114608
0.15102215
0.15090209
0.15078557
0.15067154
0.15056081
0.1504534
0.15034838
0.15024622
0.15014683
0.15004972
0.14995586
0.14986431
0.14977533
0.14968938
0.14960532
0.14952381
0.14944483
0.14936747
0.14929259
0.14921978
0.14914878
0.14908031
0.14901381
0.14894937
0.14888733
0.148827
0.14876898
0.14871326
0.1486591
0.14860694
0.14855673
0.14850844
0.14846185
0.1484173
0.14837483
0.14833443
0.1482959
0.14825923
0.14822468
0.14819179
0.14816078
0.14813175
0.1481046
0.14807938
0.14805618
0.14803509
0.14801584
0.14799905
0.14798389
0.14797184
0.14796108
0.1479549
0.14794982
0.13962801
0.14049986
0.14137362
0.14219749
0.14296392
0.14368468
0.14437168
0.14503359
0.14567843
0.14631385
0.14694696
0.14758408
0.1482303
0.14888876
0.14955858
0.15023773
0.15092197
0.15160426
0.15227734
0.15293757
0.15358292
0.154212
0.15482704
0.15542951
0.15601953
0.15659628
0.15715833
0.15770374
0.15823013
0.1587347
0.15921426
0.15966514
0.16008326
0.16046401
0.1608023
0.16109242
0.16132817
0.16150483
0.16160916
0.16162826
0.16156701
0.16140981
0.16114448
0.16076168
0.16025411
0.15961973
0.15886652
0.15802084
0.15713712
0.15629742
0.15558385
0.15503306
0.15462417
0.1543121
0.15405695
0.15383283
0.15362614
0.15343052
0.15324265
0.15306172
0.15288744
0.15271807
0.15255411
0.15239558
0.15224154
0.1520913
0.15194489
0.15180308
0.15166476
0.1515301
0.15139906
0.1512705
0.15114573
0.15102445
0.15090549
0.15079025
0.15067831
0.15056862
0.15046202
0.15035859
0.15025741
0.15015889
0.15006297
0.14996916
0.14987849
0.14979
0.14970391
0.14962072
0.14953929
0.1494603
0.1493837
0.14930859
0.1492359
0.14916517
0.14909614
0.14902955
0.14896484
0.1489021
0.14884166
0.14878285
0.14872629
0.14867198
0.14861911
0.1485682
0.14851919
0.14847203
0.14842652
0.14838298
0.14834149
0.14830201
0.14826435
0.14822848
0.14819469
0.14816251
0.14813216
0.14810374
0.14807716
0.14805244
0.14802972
0.14800904
0.14799017
0.14797372
0.14795882
0.147947
0.14793642
0.14793035
0.14792531
0.13682901
0.13782214
0.1388632
0.13984669
0.14076934
0.14164309
0.14247837
0.1432827
0.14406281
0.14482522
0.1455761
0.146321
0.14706446
0.14780938
0.14855604
0.14930297
0.15004686
0.15078289
0.15150611
0.15221345
0.15290322
0.15357464
0.15422859
0.15486599
0.155487
0.15609106
0.15667695
0.15724294
0.15778681
0.1583059
0.15879711
0.15925685
0.15968106
0.16006516
0.160404
0.16069185
0.16092243
0.1610899
0.16118046
0.16118744
0.16111078
0.16092965
0.16063862
0.16022809
0.15969199
0.15903118
0.15825901
0.15741052
0.15655032
0.15576388
0.15512078
0.15463641
0.15427746
0.15399934
0.15376753
0.15356071
0.15336818
0.15318503
0.15300854
0.15283829
0.15267418
0.15251428
0.15235933
0.15220943
0.15206356
0.15192103
0.15178188
0.15164709
0.15151544
0.15138707
0.151262
0.15113907
0.15101971
0.15090362
0.15078955
0.15067904
0.15057163
0.15046623
0.15036368
0.1502642
0.15016682
0.15007187
0.14997936
0.14988878
0.14980123
0.14971576
0.14963252
0.14955205
0.14947322
0.14939671
0.14932245
0.14924958
0.14917904
0.14911036
0.14904326
0.14897852
0.14891558
0.1488545
0.14879567
0.14873835
0.14868324
0.14863031
0.14857873
0.14852907
0.14848124
0.14843521
0.14839078
0.14834826
0.14830773
0.14826917
0.14823237
0.14819729
0.14816426
0.1481328
0.1481031
0.14807528
0.14804926
0.14802506
0.1480028
0.14798255
0.14796405
0.14794792
0.14793329
0.14792171
0.14791129
0.14790534
0.14790035
0.13423597
0.1353379
0.13651234
0.13763528
0.13869721
0.1397075
0.14067514
0.14160662
0.14250775
0.14338422
0.1442414
0.14508416
0.14591649
0.14674104
0.14755872
0.14836889
0.14916949
0.14995729
0.15072889
0.1514818
0.15221448
0.15292621
0.15361733
0.15428837
0.15493943
0.15557
0.15617902
0.15676491
0.15732558
0.15785849
0.1583606
0.1588284
0.15925784
0.15964433
0.15998266
0.16026701
0.16049092
0.1606478
0.16072452
0.16071835
0.16062262
0.16041667
0.16009903
0.15965998
0.15909555
0.15841032
0.15762431
0.15678235
0.15595813
0.15523522
0.15466548
0.15424442
0.15393097
0.15368371
0.15347365
0.15328346
0.15310486
0.1529342
0.15276916
0.1526097
0.1524559
0.15230558
0.15215978
0.15201866
0.15188106
0.15174635
0.15161459
0.15148694
0.15136211
0.15124014
0.15112117
0.15100398
0.15089015
0.15077937
0.15067031
0.15056466
0.1504619
0.1503609
0.15026252
0.15016707
0.15007362
0.14998235
0.14989335
0.14980609
0.14972177
0.14963942
0.14955911
0.14948145
0.14940529
0.14933134
0.14925951
0.14918894
0.14912063
0.14905406
0.14898896
0.14892614
0.14886502
0.14880567
0.14874848
0.14869271
0.1486391
0.14858761
0.14853736
0.14848899
0.14844238
0.14839752
0.14835421
0.14831273
0.14827319
0.14823558
0.14819967
0.14816542
0.14813317
0.14810244
0.14807342
0.14804623
0.14802079
0.14799712
0.14797534
0.14795552
0.14793741
0.14792162
0.14790727
0.14789593
0.14788569
0.14787985
0.14787491
0.13182974
0.13302894
0.13431089
0.13555085
0.13673394
0.13786512
0.13895097
0.13999659
0.1410068
0.14198643
0.14294016
0.14387223
0.14478619
0.14568456
0.14656861
0.14743835
0.1482927
0.14912969
0.14994708
0.15074304
0.15151632
0.15226623
0.15299279
0.15369617
0.15437627
0.15503258
0.15566409
0.15626929
0.1568462
0.15739234
0.15790475
0.15837992
0.15881381
0.15920179
0.1595386
0.15981827
0.16003411
0.16017882
0.16024142
0.16021994
0.16010162
0.15986995
0.1595244
0.15905601
0.15846375
0.1577571
0.1569641
0.15614007
0.15536507
0.15471434
0.15421862
0.15385683
0.15358454
0.15336535
0.15317568
0.15300157
0.15283678
0.15267868
0.15252521
0.15237671
0.15223341
0.15209284
0.15195636
0.15182417
0.15169502
0.15156829
0.15144404
0.15132365
0.1512058
0.15109036
0.15097759
0.15086626
0.15075807
0.15065272
0.15054878
0.15044809
0.15035008
0.15025359
0.15015945
0.15006812
0.14997867
0.14989118
0.14980574
0.14972187
0.14964084
0.14956167
0.14948434
0.14940953
0.14933612
0.14926476
0.1491954
0.14912718
0.14906113
0.14899672
0.14893365
0.14887278
0.14881353
0.14875593
0.14870042
0.14864623
0.14859415
0.14854411
0.14849522
0.14844816
0.1484028
0.14835912
0.14831695
0.14827654
0.14823801
0.14820136
0.14816636
0.14813296
0.14810151
0.14807152
0.14804319
0.14801664
0.14799179
0.14796866
0.14794737
0.14792799
0.14791028
0.14789482
0.14788075
0.14786966
0.1478596
0.14785388
0.147849
0.12958455
0.13088341
0.13225868
0.1335975
0.1348838
0.136119
0.13730742
0.1384528
0.13955901
0.14063007
0.14166997
0.14268239
0.14367048
0.14463664
0.1455823
0.14650795
0.14741321
0.14829699
0.14915793
0.14999475
0.15080647
0.15159252
0.15235269
0.15308686
0.15379477
0.15447581
0.15512897
0.15575278
0.15634528
0.15690404
0.15742611
0.15790798
0.15834559
0.15873424
0.15906859
0.15934255
0.15954924
0.15968042
0.15972766
0.15968878
0.15954595
0.15928754
0.15891292
0.15841502
0.15779656
0.15707315
0.1562823
0.15548941
0.15477643
0.1542037
0.15378008
0.15347264
0.15323733
0.15304379
0.15287342
0.15271498
0.15256395
0.1524185
0.15227674
0.15213938
0.15200675
0.15187607
0.15174907
0.15162599
0.15150542
0.15138679
0.15127016
0.15115718
0.15104646
0.15093765
0.15083117
0.15072582
0.15062338
0.15052356
0.15042485
0.15032921
0.15023605
0.15014414
0.15005434
0.14996719
0.14988185
0.1497982
0.14971639
0.14963598
0.1495583
0.14948238
0.14940809
0.14933619
0.14926556
0.14919686
0.14913
0.14906418
0.14900045
0.14893823
0.14887723
0.14881835
0.14876101
0.1487052
0.1486514
0.14859884
0.14854831
0.14849975
0.14845224
0.14840653
0.14836244
0.14831997
0.14827896
0.14823964
0.14820215
0.14816648
0.1481324
0.14809987
0.14806922
0.14804001
0.14801238
0.14798648
0.14796223
0.14793965
0.14791886
0.14789993
0.14788262
0.14786751
0.14785374
0.14784289
0.14783301
0.14782742
0.14782259
0.12750684
0.12890757
0.13036507
0.1317862
0.13315794
0.13447984
0.13575451
0.13698463
0.13817318
0.13932343
0.14043869
0.14152208
0.14257637
0.14360373
0.14460567
0.14558295
0.14653565
0.1474633
0.14836512
0.14924026
0.150088
0.15090784
0.15169942
0.15246246
0.15319651
0.15390087
0.15457446
0.15521579
0.15582289
0.15639333
0.15692413
0.15741176
0.15785209
0.15824035
0.15857108
0.15883811
0.1590344
0.15915035
0.15918071
0.15912284
0.15895358
0.1586672
0.15826271
0.15773595
0.15709428
0.15636096
0.15558391
0.15483679
0.15419712
0.15370496
0.15334933
0.15309085
0.1528886
0.15271865
0.15256671
0.15242364
0.15228634
0.15215366
0.15202376
0.1518977
0.15177593
0.1516553
0.15153793
0.15142411
0.15131227
0.15120188
0.15109298
0.15098752
0.15088409
0.15078201
0.15068193
0.15058267
0.15048608
0.1503919
0.15029851
0.15020804
0.15011981
0.15003259
0.14994721
0.14986431
0.14978315
0.14970343
0.14962532
0.14954843
0.14947417
0.14940157
0.14933037
0.14926143
0.14919365
0.14912764
0.14906334
0.14899997
0.14893859
0.14887861
0.14881973
0.14876287
0.14870747
0.14865349
0.14860144
0.14855053
0.14850159
0.14845454
0.14840844
0.1483641
0.14832131
0.14828007
0.14824025
0.14820204
0.1481656
0.14813094
0.1480978
0.14806614
0.14803633
0.14800789
0.14798098
0.14795574
0.14793211
0.14791009
0.14788982
0.14787135
0.14785445
0.14783969
0.14782621
0.14781561
0.14780593
0.14780046
0.14779569
0.12562442
0.12711254
0.12863743
0.13012408
0.13156369
0.13295512
0.13429987
0.13559976
0.13685702
0.13807419
0.1392539
0.14039872
0.14151098
0.14259259
0.14364499
0.14466905
0.14566513
0.14663314
0.14757267
0.14848319
0.14936416
0.15021512
0.15103566
0.15182532
0.15258352
0.15330942
0.15400187
0.15465929
0.15527968
0.15586055
0.15639885
0.15689101
0.15733279
0.15771931
0.158045
0.15830354
0.15848785
0.15858671
0.15859919
0.15852004
0.15832221
0.15800675
0.15757212
0.15701812
0.15635798
0.15562413
0.15487506
0.15418872
0.15363089
0.15321846
0.15292518
0.15271031
0.15253766
0.15238962
0.15225544
0.15212753
0.15200399
0.15188421
0.1517663
0.15165173
0.15154099
0.15143054
0.15132295
0.15121854
0.15111556
0.15101355
0.15091248
0.15081465
0.15071867
0.15062343
0.15052985
0.1504368
0.15034615
0.15025772
0.15016976
0.15008455
0.15000135
0.14991891
0.14983804
0.14975947
0.14968256
0.14960686
0.14953249
0.14945921
0.14938843
0.1493192
0.14925115
0.14918523
0.14912035
0.14905709
0.14899539
0.14893451
0.14887552
0.14881783
0.14876111
0.14870632
0.1486529
0.14860078
0.14855051
0.14850129
0.14845396
0.14840845
0.1483638
0.14832085
0.14827939
0.14823941
0.14820079
0.14816371
0.14812835
0.14809471
0.14806253
0.14803178
0.1480028
0.14797516
0.14794898
0.14792442
0.14790142
0.14787997
0.14786022
0.14784221
0.14782574
0.14781134
0.14779817
0.14778782
0.14777833
0.14777298
0.14776828
0.12394412
0.1255006
0.12707662
0.12861246
0.13010329
0.13154801
0.13294747
0.13430283
0.13561564
0.13688776
0.13812118
0.13931791
0.14047981
0.14160847
0.14270516
0.14377074
0.14480567
0.14581005
0.14678372
0.14772632
0.14863744
0.14951662
0.15036339
0.15117717
0.15195724
0.15270263
0.15341205
0.15408384
0.15471591
0.15530567
0.15584998
0.15634516
0.15678686
0.15717005
0.15748897
0.15773715
0.1579073
0.15798829
0.15798185
0.1578771
0.15764927
0.1573041
0.15683988
0.15626165
0.1555901
0.15486807
0.15416325
0.15355154
0.15308027
0.15274364
0.15250622
0.15232996
0.15218396
0.15205648
0.15193957
0.15182667
0.15171693
0.15161019
0.15150443
0.15140151
0.15130195
0.15120182
0.15110417
0.1510093
0.1509153
0.15082181
0.15072867
0.15063858
0.1505502
0.15046189
0.1503749
0.15028819
0.15020359
0.150121
0.15003859
0.14995874
0.14988065
0.14980308
0.14972682
0.14965264
0.14958006
0.14950846
0.1494379
0.1493683
0.14930106
0.14923527
0.14917043
0.14910757
0.14904564
0.14898518
0.14892612
0.14886778
0.14881124
0.14875587
0.14870135
0.14864867
0.14859727
0.14854705
0.14849859
0.1484511
0.14840543
0.14836147
0.14831829
0.14827677
0.14823667
0.14819796
0.14816057
0.14812465
0.1480904
0.14805778
0.14802658
0.14799675
0.14796864
0.14794181
0.14791637
0.14789251
0.14787014
0.14784928
0.14783006
0.14781253
0.14779648
0.14778245
0.1477696
0.1477595
0.14775021
0.14774499
0.14774036
0.12246539
0.12406837
0.12567894
0.12724844
0.12877523
0.13025845
0.13169853
0.13309613
0.13445218
0.13576791
0.13704472
0.13828405
0.13948731
0.14065572
0.14179032
0.14289183
0.14396072
0.14499714
0.14600102
0.14697209
0.14790998
0.14881423
0.14968429
0.15051945
0.15131886
0.15208139
0.15280564
0.15348979
0.15413164
0.15472847
0.15527702
0.15577344
0.15621325
0.15659125
0.15690152
0.15713734
0.15729075
0.15735303
0.15732568
0.15719108
0.15693269
0.15655752
0.15606535
0.15546787
0.15479495
0.15410025
0.15345687
0.1529307
0.15254631
0.15227921
0.15209097
0.15194886
0.15182709
0.15171914
0.15161911
0.1515211
0.15142524
0.15133168
0.1512382
0.15114711
0.15105887
0.1509692
0.15088162
0.1507964
0.15071151
0.15062665
0.15054155
0.15045931
0.15037867
0.1502974
0.15021708
0.15013685
0.15005839
0.14998174
0.14990498
0.14983058
0.14975771
0.14968509
0.14961355
0.14954381
0.14947562
0.14940821
0.14934152
0.14927567
0.14921204
0.14914976
0.14908818
0.14902843
0.14896951
0.14891189
0.14885553
0.14879978
0.14874572
0.14869272
0.14864044
0.14858991
0.14854057
0.14849229
0.14844567
0.14839996
0.14835596
0.14831358
0.14827191
0.14823184
0.14819312
0.14815573
0.14811959
0.14808485
0.14805171
0.14802015
0.14798995
0.14796107
0.14793383
0.14790783
0.14788315
0.14785998
0.14783828
0.14781801
0.14779933
0.14778229
0.14776668
0.14775301
0.14774049
0.14773065
0.14772156
0.14771647
0.14771191
0.1211857
0.12280883
0.12443665
0.12602573
0.12757507
0.12908383
0.13055207
0.13198
0.13336805
0.13471688
0.13602734
0.13730037
0.1385369
0.13973781
0.14090383
0.14203552
0.14313322
0.14419705
0.14522693
0.1462226
0.14718366
0.1481096
0.14899978
0.14985336
0.15066934
0.15144644
0.15218308
0.15287732
0.15352677
0.15412857
0.15467928
0.1551749
0.15561073
0.15598141
0.15628086
0.15650225
0.1566363
0.15667767
0.15662683
0.1564602
0.15617078
0.15576576
0.15524889
0.15463988
0.15397919
0.15333004
0.15276432
0.15232998
0.15202862
0.15182337
0.15167797
0.15156622
0.15146677
0.15137757
0.1512941
0.15121092
0.15112901
0.15104875
0.15096773
0.15088861
0.15081179
0.15073272
0.15065534
0.15057987
0.15050419
0.15042811
0.15035116
0.15027683
0.15020407
0.15012993
0.1500564
0.14998277
0.14991054
0.14983994
0.14976893
0.14970008
0.14963251
0.14956493
0.14949821
0.14943299
0.14936922
0.14930609
0.14924334
0.14918133
0.14912137
0.14906265
0.14900438
0.1489478
0.14889194
0.14883722
0.14878359
0.14873048
0.14867895
0.14862836
0.14857837
0.14853002
0.14848278
0.14843648
0.14839174
0.14834784
0.14830555
0.14826477
0.14822464
0.14818606
0.14814875
0.14811268
0.14807782
0.14804429
0.14801229
0.14798181
0.14795263
0.1479247
0.14789836
0.1478732
0.14784929
0.14782685
0.14780581
0.14778615
0.14776802
0.14775148
0.14773631
0.14772302
0.14771083
0.14770125
0.14769238
0.14768742
0.14768293
0.12007844
0.1217071
0.12333942
0.12493635
0.12649694
0.12802012
0.12950566
0.13095338
0.1323633
0.1337356
0.13507066
0.13636895
0.13763099
0.13885729
0.14004829
0.14120431
0.14232552
0.14341193
0.14446339
0.14547957
0.14645999
0.14740404
0.14831097
0.1491798
0.15000936
0.15079821
0.15154459
0.15224636
0.15290097
0.15350535
0.15405588
0.15454833
0.15497779
0.15533868
0.15562479
0.15582933
0.15594116
0.1559598
0.15588281
0.15568216
0.15536156
0.15492833
0.15439243
0.15378317
0.15315216
0.15256808
0.15209279
0.15175103
0.15152563
0.15137412
0.15126592
0.15118138
0.15110283
0.15103181
0.15096461
0.15089621
0.15082834
0.1507615
0.1506931
0.15062613
0.15056077
0.15049246
0.1504254
0.15035973
0.15029338
0.15022621
0.15015754
0.15009119
0.15002639
0.14995949
0.14989285
0.14982596
0.14976006
0.14969558
0.14963044
0.14956724
0.14950503
0.14944259
0.1493808
0.14932016
0.14926086
0.14920208
0.14914335
0.14908526
0.14902903
0.14897392
0.14891903
0.14886565
0.14881291
0.14876113
0.14871028
0.14865987
0.1486109
0.14856276
0.14851511
0.14846899
0.14842389
0.1483796
0.14833678
0.14829472
0.14825417
0.14821503
0.14817647
0.14813941
0.14810354
0.14806882
0.14803526
0.14800296
0.14797213
0.14794273
0.14791459
0.14788765
0.14786221
0.14783791
0.1478148
0.14779308
0.14777272
0.14775368
0.14773612
0.14772008
0.14770537
0.14769247
0.14768061
0.14767129
0.14766264
0.14765781
0.1476534
0.11912915
0.12075214
0.12237848
0.12397313
0.12553505
0.1270629
0.12855613
0.13001426
0.13143692
0.13282392
0.13417521
0.13549086
0.13677102
0.13801585
0.13922549
0.1404
0.14153936
0.14264342
0.14371188
0.1447443
0.14574009
0.14669851
0.14761864
0.14849936
0.14933931
0.15013687
0.15089007
0.15159658
0.15225363
0.15285793
0.15340563
0.15389226
0.15431266
0.15466095
0.15493072
0.15511527
0.1552035
0.15519788
0.15508968
0.15485419
0.15450369
0.15404617
0.15350026
0.15290634
0.15232568
0.15182497
0.15144716
0.15119346
0.15103496
0.15092945
0.15085376
0.15079383
0.15073533
0.15068207
0.15063069
0.1505771
0.15052336
0.15047003
0.15041446
0.15035978
0.15030586
0.1502485
0.15019186
0.15013602
0.1500791
0.15002096
0.14996073
0.1499024
0.1498456
0.14978608
0.14972644
0.14966643
0.14960695
0.14954868
0.14948953
0.14943205
0.14937529
0.14931806
0.14926132
0.14920531
0.1491505
0.14909617
0.14904153
0.14898744
0.14893501
0.14888355
0.14883209
0.14878198
0.14873241
0.14868362
0.14863559
0.14858792
0.14854156
0.14849592
0.14845066
0.1484068
0.14836388
0.14832164
0.14828077
0.1482406
0.14820183
0.14816435
0.14812739
0.14809187
0.14805746
0.14802414
0.1479919
0.14796085
0.1479312
0.14790292
0.14787583
0.1478499
0.14782538
0.14780196
0.14777965
0.14775868
0.14773901
0.14772061
0.14770362
0.1476881
0.14767384
0.14766134
0.14764982
0.14764078
0.14763235
0.14762765
0.14762332
0.11832606
0.11993382
0.12154531
0.12312889
0.12468343
0.12620734
0.12769977
0.12915992
0.13058711
0.13198081
0.13334063
0.13466628
0.13595757
0.13721434
0.13843644
0.13962369
0.14077585
0.14189256
0.14297336
0.14401765
0.14502468
0.14599355
0.14692318
0.14781225
0.14865921
0.14946222
0.15021911
0.15092731
0.1515838
0.15218507
0.15272701
0.15320488
0.15361324
0.15394593
0.15419625
0.15435716
0.15442045
0.15438832
0.15424394
0.15397493
0.15359723
0.15312249
0.15257992
0.15202143
0.15151308
0.15110946
0.15082931
0.15065524
0.15055381
0.15048764
0.1504408
0.15040306
0.15036462
0.15032867
0.15029231
0.15025364
0.15021421
0.15017443
0.15013199
0.15008976
0.15004711
0.15000093
0.14995482
0.14990876
0.14986137
0.14981241
0.14976081
0.14971051
0.14966171
0.1496097
0.1495572
0.14950419
0.14945123
0.14939924
0.14934619
0.14929452
0.14924326
0.14919134
0.14913977
0.14908846
0.14903815
0.14898833
0.14893789
0.14888787
0.14883929
0.14879154
0.14874356
0.14869676
0.14865041
0.14860466
0.1485595
0.14851463
0.14847091
0.14842781
0.14838499
0.14834343
0.14830274
0.14826258
0.1482237
0.14818546
0.14814849
0.1481127
0.14807738
0.14804343
0.14801052
0.14797861
0.14794771
0.14791794
0.1478895
0.14786235
0.14783634
0.14781143
0.14778786
0.14776533
0.14774384
0.14772363
0.14770467
0.14768691
0.14767051
0.14765551
0.14764173
0.14762962
0.14761846
0.14760968
0.14760149
0.14759693
0.14759268
0.11765747
0.11924204
0.12083116
0.12239614
0.12393577
0.1254482
0.12693231
0.12838701
0.12981135
0.13120449
0.13256574
0.13389453
0.13519036
0.1364528
0.13768142
0.13887579
0.14003544
0.14115982
0.14224825
0.14329996
0.14431401
0.14528931
0.14622458
0.1471183
0.1479687
0.1487737
0.1495309
0.15023747
0.15089016
0.15148516
0.1520181
0.15248395
0.152877
0.15319087
0.1534186
0.15355216
0.15358776
0.15352628
0.15334433
0.15304435
0.1526444
0.15216374
0.15164307
0.15114352
0.15072711
0.1504268
0.15023844
0.1501337
0.1500793
0.15004744
0.15002656
0.1500085
0.14999143
0.14997188
0.14994917
0.14992592
0.14990098
0.14987478
0.14984601
0.14981637
0.14978445
0.14974985
0.1497144
0.14967799
0.1496402
0.14960056
0.14955787
0.14951561
0.1494747
0.14943037
0.14938513
0.14933924
0.14929294
0.14924728
0.14920047
0.14915466
0.14910896
0.14906241
0.14901613
0.14896959
0.14892379
0.14887856
0.1488324
0.14878654
0.14874185
0.14869786
0.14865343
0.14860998
0.1485669
0.14852425
0.14848199
0.14843997
0.14839895
0.14835842
0.14831808
0.14827887
0.14824044
0.14820241
0.14816555
0.14812927
0.14809414
0.14806007
0.14802643
0.14799408
0.14796269
0.14793222
0.1479027
0.14787422
0.14784702
0.14782102
0.14779611
0.14777224
0.14774962
0.14772801
0.14770736
0.14768792
0.14766968
0.14765258
0.14763677
0.14762231
0.14760901
0.14759731
0.14758651
0.14757801
0.14757005
0.14756562
0.14756146
0.11711156
0.11866643
0.12022698
0.12176709
0.1232854
0.12477985
0.12624904
0.12769166
0.12910649
0.13049246
0.13184865
0.13317421
0.1344684
0.13573054
0.13695997
0.13815601
0.13931796
0.14044506
0.14153642
0.14259105
0.14360782
0.14458542
0.14552236
0.14641687
0.14726696
0.14807029
0.14882419
0.14952558
0.15017091
0.15075609
0.15127648
0.15172674
0.15210089
0.15239231
0.15259401
0.15269637
0.15270254
0.15260932
0.15238987
0.1520635
0.15165055
0.15118084
0.15070566
0.15028894
0.14997739
0.14977806
0.14967221
0.14962647
0.14960887
0.14960842
0.14960991
0.14961026
0.14961603
0.14961097
0.1496013
0.1495943
0.14958393
0.14957115
0.14955693
0.14953977
0.14951771
0.1494955
0.14947084
0.14944366
0.14941555
0.14938546
0.14935204
0.14931779
0.14928457
0.1492481
0.14921025
0.14917159
0.14913209
0.1490928
0.14905237
0.14901246
0.14897237
0.14893128
0.1488904
0.14884872
0.14880742
0.14876682
0.14872507
0.14868344
0.1486427
0.1486025
0.14856169
0.14852163
0.14848187
0.14844235
0.14840305
0.14836392
0.14832564
0.14828774
0.14824993
0.1482131
0.14817697
0.14814111
0.14810631
0.14807204
0.14803877
0.14800645
0.14797453
0.1479438
0.14791395
0.14788497
0.14785684
0.14782968
0.14780374
0.14777891
0.14775512
0.14773231
0.14771067
0.14768998
0.14767019
0.14765154
0.14763403
0.1476176
0.1476024
0.14758849
0.14757567
0.14756439
0.14755396
0.14754574
0.14753802
0.14753373
0.14752967
0.11667652
0.11819661
0.11972373
0.12123386
0.12272549
0.12419638
0.12564489
0.1270695
0.12846883
0.12984162
0.13118674
0.13250315
0.13378992
0.13504614
0.13627091
0.13746336
0.13862256
0.13974751
0.14083712
0.14189018
0.14290532
0.14388102
0.14481552
0.14570684
0.14655269
0.14735048
0.14809724
0.14878961
0.14942374
0.14999525
0.1504992
0.15092998
0.15128133
0.15154623
0.15171781
0.15178767
0.1517637
0.15163333
0.15138087
0.15103655
0.1506258
0.15019008
0.14978684
0.14947227
0.14926878
0.14916167
0.14912857
0.14913044
0.14914145
0.14916696
0.14918982
0.14921054
0.14923485
0.1492452
0.14925165
0.14925982
0.14926354
0.14926397
0.14926503
0.14925935
0.14924704
0.14923841
0.14922427
0.14920566
0.1491873
0.14916714
0.14914361
0.14911721
0.14909128
0.14906289
0.14903259
0.14900127
0.14896874
0.14893584
0.14890194
0.14886796
0.14883349
0.14879796
0.14876257
0.14872583
0.14868907
0.14865312
0.14861589
0.14857857
0.1485418
0.14850545
0.14846831
0.14843169
0.14839529
0.14835897
0.14832266
0.14828649
0.14825098
0.14821574
0.14818052
0.14814611
0.14811231
0.14807866
0.14804596
0.14801373
0.14798237
0.14795184
0.14792165
0.14789259
0.14786431
0.14783683
0.14781013
0.1477843
0.14775964
0.14773601
0.14771336
0.14769164
0.14767099
0.14765125
0.14763232
0.14761448
0.14759772
0.14758197
0.14756739
0.14755403
0.14754172
0.14753086
0.1475208
0.14751287
0.14750539
0.14750125
0.14749727
0.11634095
0.11782277
0.11931275
0.12078879
0.12224925
0.12369173
0.12511444
0.12651574
0.12789412
0.12924821
0.13057674
0.13187852
0.13315244
0.13439742
0.13561235
0.13679616
0.1379477
0.13906575
0.140149
0.14119599
0.14220514
0.14317465
0.14410253
0.1449865
0.14582401
0.14661217
0.14734772
0.14802696
0.14864574
0.1491994
0.14968272
0.15008988
0.15041444
0.1506489
0.15078576
0.15082311
0.15076761
0.15059795
0.15032153
0.14997275
0.14958644
0.14921256
0.14890587
0.14870351
0.14860223
0.14857842
0.14859968
0.14863515
0.14867587
0.14872353
0.14876793
0.14880946
0.14884783
0.14887637
0.1489006
0.14892284
0.1489406
0.14895461
0.14896866
0.1489736
0.14897443
0.14897887
0.14897425
0.14896413
0.14895552
0.14894571
0.14893283
0.14891407
0.1488948
0.14887468
0.14885211
0.14882834
0.14880295
0.14877638
0.14874921
0.14872116
0.14869232
0.14866246
0.14863263
0.14860092
0.14856875
0.14853744
0.14850487
0.14847192
0.14843916
0.1484067
0.1483733
0.14834015
0.14830716
0.14827407
0.1482408
0.14820764
0.14817495
0.14814242
0.14810983
0.14807788
0.14804646
0.14801506
0.14798449
0.14795434
0.14792492
0.1478962
0.1478678
0.14784042
0.14781373
0.1477878
0.14776255
0.14773808
0.14771473
0.14769231
0.14767082
0.1476502
0.14763057
0.14761179
0.14759375
0.14757673
0.14756072
0.14754567
0.14753172
0.14751894
0.14750713
0.1474967
0.14748703
0.14747938
0.14747216
0.14746816
0.14746428
0.11609518
0.11753622
0.11898608
0.12042456
0.12184992
0.12325967
0.12465196
0.12602509
0.12737753
0.12870784
0.13001467
0.13129673
0.13255275
0.13378148
0.13498167
0.13615201
0.13729116
0.13839768
0.13947002
0.14050649
0.14150524
0.14246423
0.14338118
0.14425353
0.14507842
0.14585265
0.14657263
0.14723434
0.14783332
0.1483646
0.14882277
0.14920195
0.14949572
0.14969615
0.14979452
0.14979937
0.1497115
0.14950793
0.14922095
0.14888839
0.14855514
0.14827122
0.14807848
0.14798727
0.14797724
0.14801653
0.14807514
0.14814062
0.14821084
0.14828092
0.1483458
0.14840537
0.14845962
0.14850566
0.14854618
0.1485829
0.14861492
0.1486428
0.14866776
0.14868524
0.14870002
0.14871472
0.14871997
0.14872062
0.14872093
0.14872133
0.14871927
0.14870838
0.14869538
0.14868348
0.14866881
0.14865294
0.14863479
0.1486144
0.14859421
0.1485721
0.14854885
0.1485248
0.14850058
0.14847399
0.14844648
0.14841979
0.14839199
0.14836348
0.14833476
0.14830622
0.14827664
0.148247
0.14821747
0.14818766
0.14815747
0.14812738
0.14809753
0.14806775
0.14803785
0.14800839
0.14797939
0.14795029
0.14792188
0.14789386
0.1478664
0.14783954
0.14781295
0.14778729
0.14776222
0.14773786
0.14771409
0.147691
0.14766898
0.1476478
0.14762749
0.147608
0.14758939
0.14757159
0.14755446
0.14753827
0.14752304
0.1475087
0.14749539
0.14748318
0.14747189
0.14746191
0.14745262
0.14744527
0.1474383
0.14743445
0.14743067
0.11592983
0.11732881
0.11873618
0.12013405
0.12152069
0.12289368
0.12425121
0.12559167
0.12691354
0.12821539
0.12949581
0.13075342
0.13198684
0.13319467
0.13437548
0.13552777
0.13664999
0.13774047
0.13879744
0.13981895
0.14080291
0.14174698
0.14264859
0.14350488
0.14431268
0.14506845
0.14576825
0.14640774
0.14698212
0.14748619
0.1479144
0.14826098
0.1485199
0.14868274
0.1487429
0.14871725
0.14859533
0.14837227
0.14809549
0.14780803
0.14755899
0.14738652
0.14731508
0.14732273
0.14737816
0.14746341
0.14755505
0.1476525
0.14774779
0.14783836
0.14792221
0.14799935
0.14806979
0.14813251
0.14818894
0.14824025
0.14828634
0.1483276
0.14836458
0.14839536
0.14842213
0.14844588
0.1484627
0.14847509
0.14848475
0.14849369
0.14850133
0.14849991
0.14849391
0.14848958
0.14848275
0.14847523
0.14846425
0.14844988
0.14843706
0.14842082
0.148403
0.14838504
0.14836642
0.14834498
0.1483223
0.14830015
0.14827726
0.14825326
0.14822858
0.14820402
0.14817832
0.14815223
0.14812621
0.14809972
0.14807265
0.14804569
0.14801872
0.14799172
0.14796457
0.14793763
0.14791108
0.14788433
0.14785812
0.14783226
0.14780681
0.14778183
0.1477571
0.14773318
0.14770976
0.147687
0.14766474
0.14764305
0.14762238
0.14760247
0.14758336
0.14756501
0.14754745
0.14753064
0.14751444
0.1474991
0.14748465
0.14747104
0.14745838
0.14744677
0.147436
0.14742646
0.14741758
0.14741052
0.14740382
0.14740012
0.14739644
0.11583612
0.1171927
0.11855637
0.11991043
0.12125449
0.12258661
0.12390519
0.12520873
0.12649577
0.12776488
0.1290146
0.13024346
0.13144996
0.13263256
0.13378964
0.13491954
0.13602047
0.13709055
0.13812777
0.13912992
0.14009464
0.14101932
0.14190107
0.14273671
0.14352274
0.14425526
0.14493002
0.1455423
0.14608702
0.14655879
0.14695205
0.14726149
0.14748234
0.14760494
0.14763113
0.14757762
0.14742759
0.14720856
0.14697149
0.1467632
0.14662488
0.1465763
0.14660931
0.14668957
0.14679733
0.14691884
0.14704489
0.1471683
0.14728552
0.14739549
0.14749756
0.14759186
0.14767854
0.14775741
0.14782935
0.14789521
0.14795524
0.14800977
0.14805905
0.14810235
0.14814087
0.14817513
0.1482032
0.14822636
0.14824628
0.1482636
0.14827923
0.14828756
0.14829056
0.14829374
0.14829431
0.14829519
0.14829096
0.14828301
0.14827784
0.14826727
0.14825478
0.14824332
0.14823014
0.14821383
0.14819626
0.14817854
0.14816066
0.14814126
0.14812063
0.14810007
0.14807835
0.14805582
0.14803336
0.14801023
0.14798633
0.14796255
0.14793848
0.14791432
0.14788998
0.14786559
0.14784153
0.14781718
0.1477932
0.14776954
0.14774613
0.14772307
0.14770023
0.14767808
0.14765633
0.14763519
0.14761448
0.14759423
0.14757493
0.1475563
0.14753841
0.14752122
0.14750473
0.14748893
0.14747368
0.1474592
0.14744556
0.14743268
0.14742069
0.14740967
0.14739944
0.14739036
0.14738189
0.14737513
0.1473687
0.14736515
0.14736158
0.11580448
0.11711692
0.11843608
0.11974374
0.12104173
0.12232929