/*--------------------------------*- C++ -*----------------------------------*\
| =========                 |                                                 |
| \\      /  F ield         | OpenFOAM: The Open Source CFD Toolbox           |
|  \\    /   O peration     | Version:  2406                                  |
|   \\  /    A nd           | Website:  www.openfoam.com                      |
|    \\/     M anipulation  |                                                 |
\*---------------------------------------------------------------------------*/
FoamFile
{
    version     2.0;
    format      ascii;
    arch        "LSB;label=32;scalar=64";
    class       volScalarField;
    location    "0.039";
    object      p;
}
// * * * * * * * * * * * * * * * * * * * * * * * * * * * * * * * * * * * * * //

dimensions      [1 -1 -2 0 0 0 0];

internalField   nonuniform List<scalar> 
92813
(
101067.71
101009.43
100984.05
100955.49
100927.03
100902.75
100882.46
100865.85
100852.72
100842.73
100835.47
100830.38
100826.84
100824.51
100823.08
100822.82
100824.09
100827.22
100832.27
100839.2
100847.62
100857.26
100867.9
100879.41
100891.68
100904.57
100918.01
100931.91
100946.19
100960.8
100975.65
100990.68
101005.82
101021
101036.16
101051.19
101066.16
101080.44
101094.12
101107.26
101121.13
101135.17
101147.31
101158.61
101169.17
101178.84
101187.59
101195.4
101202.34
101208.57
101214.27
101219.55
101224.47
101229.16
101233.67
101238.06
101242.33
101246.48
101250.52
101254.44
101258.26
101261.96
101265.55
101269.03
101272.4
101275.66
101278.83
101281.91
101284.9
101287.82
101290.67
101293.46
101296.19
101298.87
101301.48
101304.03
101306.51
101308.92
101311.27
101313.55
101315.75
101317.9
101319.99
101322.03
101324.02
101325.96
101327.85
101329.69
101331.47
101333.21
101334.88
101336.51
101338.08
101339.61
101341.1
101342.56
101343.97
101345.34
101346.67
101347.96
101349.2
101350.4
101351.55
101352.66
101353.72
101354.73
101355.69
101356.61
101357.47
101358.3
101359.08
101359.83
101360.54
101361.2
101361.82
101362.4
101362.93
101363.42
101363.87
101364.28
101364.66
101365
101365.33
101365.6
101365.87
101366.02
101366.18
101200.35
101161.37
101125.9
101087.21
101052.15
101022.72
100998.11
100977.63
100960.81
100947.21
100936.34
100927.71
100920.72
100914.84
100909.85
100905.89
100903.14
100901.84
100902.4
100904.88
100909.08
100914.86
100922.15
100930.67
100940.13
100950.36
100961.24
100972.66
100984.53
100996.77
101009.31
101022.08
101035
101048.01
101061.04
101074.01
101086.91
101099.5
101111.53
101122.4
101134.89
101147.66
101158.45
101168.62
101178.21
101187.1
101195.22
101202.57
101209.19
101215.22
101220.78
101225.89
101230.63
101235.1
101239.39
101243.54
101247.58
101251.5
101255.32
101259.04
101262.65
101266.16
101269.57
101272.88
101276.08
101279.19
101282.2
101285.14
101287.99
101290.78
101293.51
101296.18
101298.8
101301.36
101303.87
101306.32
101308.71
101311.04
101313.3
101315.49
101317.62
101319.69
101321.71
101323.68
101325.61
101327.48
101329.32
101331.1
101332.84
101334.52
101336.15
101337.72
101339.25
101340.74
101342.19
101343.6
101344.98
101346.32
101347.62
101348.87
101350.08
101351.25
101352.38
101353.46
101354.49
101355.48
101356.42
101357.31
101358.16
101358.97
101359.74
101360.47
101361.16
101361.81
101362.41
101362.98
101363.5
101363.98
101364.42
101364.82
101365.19
101365.53
101365.85
101366.11
101366.38
101366.52
101366.69
101268.72
101238.95
101199.98
101157.27
101119.48
101087.53
101060.35
101037.24
101017.75
101001.44
100987.86
100976.58
100967.17
100959.24
100952.62
100947.2
100942.98
100940.16
100939.04
100939.68
100942.1
100946.32
100952.11
100959.17
100967.28
100976.26
100985.97
100996.31
101007.18
101018.47
101030.11
101042.01
101054.1
101066.31
101078.57
101090.77
101102.91
101114.93
101126.02
101135.89
101148.08
101160.05
101170.06
101179.55
101188.47
101196.73
101204.26
101211.06
101217.22
101222.87
101228.06
101232.8
101237.2
101241.37
101245.38
101249.25
101253.03
101256.71
101260.3
101263.79
101267.2
101270.51
101273.73
101276.85
101279.89
101282.83
101285.69
101288.47
101291.19
101293.84
101296.44
101298.98
101301.48
101303.94
101306.34
101308.69
101310.98
101313.22
101315.39
101317.5
101319.55
101321.54
101323.49
101325.39
101327.25
101329.06
101330.83
101332.56
101334.24
101335.86
101337.44
101338.97
101340.45
101341.9
101343.31
101344.68
101346.02
101347.32
101348.58
101349.8
101350.99
101352.13
101353.22
101354.28
101355.29
101356.25
101357.17
101358.04
101358.86
101359.65
101360.4
101361.11
101361.79
101362.42
101363.02
101363.57
101364.08
101364.54
101364.98
101365.37
101365.73
101366.06
101366.38
101366.64
101366.9
101367.04
101367.21
101325.02
101299.05
101260.58
101216.97
101177.56
101143.56
101114.05
101088.44
101066.34
101047.42
101031.29
101017.6
101005.99
100996.17
100987.97
100981.26
100976.01
100972.3
100970.24
100969.88
100971.22
100974.23
100978.73
100984.53
100991.44
100999.31
101007.99
101017.38
101027.37
101037.85
101048.74
101059.95
101071.39
101082.99
101094.66
101106.32
101117.95
101129.61
101139.66
101149.17
101161.34
101172.5
101181.91
101190.86
101199.21
101206.87
101213.81
101220.04
101225.68
101230.84
101235.56
101239.89
101243.92
101247.76
101251.47
101255.07
101258.58
101262.02
101265.37
101268.64
101271.83
101274.94
101277.97
101280.91
101283.76
101286.54
101289.24
101291.87
101294.44
101296.96
101299.42
101301.84
101304.22
101306.56
101308.86
101311.1
101313.3
101315.44
101317.52
101319.54
101321.51
101323.43
101325.3
101327.13
101328.92
101330.66
101332.37
101334.04
101335.66
101337.24
101338.76
101340.24
101341.68
101343.08
101344.44
101345.78
101347.08
101348.34
101349.57
101350.76
101351.91
101353.02
101354.09
101355.11
101356.1
101357.03
101357.93
101358.77
101359.58
101360.35
101361.08
101361.77
101362.43
101363.05
101363.63
101364.17
101364.67
101365.12
101365.54
101365.93
101366.28
101366.61
101366.92
101367.17
101367.43
101367.57
101367.74
101376.51
101352.38
101315.05
101271.66
101231.7
101196.62
101165.69
101138.39
101114.45
101093.59
101075.5
101059.89
101046.47
101035.01
101025.33
101017.33
101010.94
101006.17
101003.07
101001.64
101001.85
101003.65
101006.9
101011.47
101017.19
101023.93
101031.54
101039.93
101048.96
101058.56
101068.61
101079.03
101089.73
101100.62
101111.61
101122.62
101133.63
101144.7
101153.76
101163.12
101174.92
101185.2
101194.02
101202.39
101210.14
101217.19
101223.51
101229.16
101234.28
101238.94
101243.18
101247.08
101250.74
101254.26
101257.67
101260.99
101264.24
101267.42
101270.53
101273.57
101276.55
101279.45
101282.28
101285.04
101287.71
101290.32
101292.86
101295.34
101297.76
101300.13
101302.47
101304.76
101307.02
101309.24
101311.42
101313.56
101315.66
101317.7
101319.69
101321.63
101323.51
101325.35
101327.14
101328.9
101330.62
101332.3
101333.95
101335.56
101337.12
101338.64
101340.11
101341.54
101342.93
101344.28
101345.6
101346.9
101348.16
101349.38
101350.58
101351.73
101352.85
101353.92
101354.96
101355.96
101356.92
101357.83
101358.7
101359.53
101360.31
101361.06
101361.77
101362.45
101363.09
101363.7
101364.26
101364.79
101365.27
101365.71
101366.12
101366.5
101366.85
101367.16
101367.47
101367.71
101367.97
101368.11
101368.27
101422.36
101398.56
101362.02
101319.66
101280.09
101244.81
101213.24
101185
101159.87
101137.67
101118.14
101101.07
101086.22
101073.4
101062.46
101053.29
101045.82
101040.03
101035.9
101033.42
101032.55
101033.23
101035.35
101038.79
101043.41
101049.08
101055.68
101063.09
101071.21
101079.93
101089.14
101098.77
101108.7
101118.86
101129.15
101139.48
101149.84
101160.17
101168.36
101177.57
101188.78
101198.17
101206.39
101214.13
101221.23
101227.63
101233.33
101238.39
101242.97
101247.12
101250.88
101254.38
101257.67
101260.86
101263.97
101267.01
101269.98
101272.91
101275.78
101278.59
101281.35
101284.04
101286.67
101289.24
101291.73
101294.17
101296.54
101298.86
101301.14
101303.37
101305.56
101307.73
101309.86
101311.97
101314.03
101316.07
101318.06
101320.01
101321.9
101323.75
101325.55
101327.31
101329.02
101330.7
101332.35
101333.97
101335.55
101337.1
101338.6
101340.06
101341.49
101342.86
101344.2
101345.51
101346.79
101348.04
101349.26
101350.44
101351.6
101352.72
101353.8
101354.85
101355.86
101356.83
101357.76
101358.65
101359.49
101360.29
101361.05
101361.78
101362.47
101363.13
101363.76
101364.35
101364.9
101365.41
101365.88
101366.31
101366.71
101367.08
101367.42
101367.73
101368.02
101368.27
101368.52
101368.66
101368.82
101463.47
101438.51
101402.31
101361.53
101323.07
101288.22
101256.59
101227.95
101202.17
101179.1
101158.57
101140.42
101124.47
101110.56
101098.57
101088.4
101079.97
101073.24
101068.18
101064.75
101062.9
101062.57
101063.67
101066.08
101069.68
101074.37
101080.01
101086.51
101093.74
101101.61
101110.02
101118.87
101128.05
101137.49
101147.08
101156.73
101166.46
101175.92
101183.29
101192.41
101202.89
101211.41
101218.99
101226.06
101232.49
101238.21
101243.26
101247.73
101251.77
101255.39
101258.69
101261.78
101264.71
101267.58
101270.38
101273.13
101275.83
101278.5
101281.12
101283.7
101286.23
101288.71
101291.14
101293.51
101295.83
101298.09
101300.29
101302.45
101304.57
101306.66
101308.72
101310.75
101312.76
101314.74
101316.69
101318.62
101320.51
101322.35
101324.16
101325.92
101327.63
101329.3
101330.94
101332.54
101334.12
101335.67
101337.18
101338.67
101340.11
101341.52
101342.89
101344.21
101345.5
101346.76
101347.99
101349.2
101350.38
101351.53
101352.64
101353.73
101354.78
101355.79
101356.77
101357.71
101358.62
101359.48
101360.29
101361.07
101361.81
101362.52
101363.19
101363.83
101364.44
101365.01
101365.55
101366.05
101366.51
101366.93
101367.31
101367.67
101368
101368.3
101368.59
101368.83
101369.08
101369.21
101369.38
101500.12
101473.48
101437.56
101398.57
101361.57
101327.53
101296.28
101267.67
101241.63
101218.1
101196.95
101178.06
101161.3
101146.55
101133.72
101122.71
101113.45
101105.9
101100
101095.71
101092.98
101091.74
101091.91
101093.38
101096.05
101099.82
101104.57
101110.19
101116.58
101123.63
101131.24
101139.33
101147.77
101156.49
101165.37
101174.36
101183.48
101191.84
101198.49
101207.64
101217.25
101224.88
101231.79
101238.17
101243.88
101248.9
101253.29
101257.18
101260.65
101263.76
101266.6
101269.29
101271.86
101274.4
101276.89
101279.35
101281.77
101284.18
101286.55
101288.89
101291.2
101293.46
101295.69
101297.87
101299.99
101302.07
101304.1
101306.11
101308.07
101310.01
101311.93
101313.82
101315.71
101317.57
101319.4
101321.22
101323
101324.75
101326.45
101328.12
101329.74
101331.33
101332.89
101334.42
101335.92
101337.4
101338.85
101340.27
101341.65
101343
101344.31
101345.58
101346.82
101348.04
101349.22
101350.38
101351.52
101352.63
101353.71
101354.76
101355.77
101356.75
101357.7
101358.61
101359.49
101360.32
101361.11
101361.87
101362.59
101363.27
101363.92
101364.55
101365.14
101365.69
101366.21
101366.7
101367.14
101367.55
101367.93
101368.27
101368.59
101368.89
101369.17
101369.41
101369.65
101369.78
101369.94
101532.7
101504.46
101468.91
101431.74
101396.3
101363.31
101332.71
101304.44
101278.5
101254.82
101233.36
101214.03
101196.73
101181.38
101167.9
101156.22
101146.28
101138.02
101131.39
101126.34
101122.82
101120.76
101120.09
101120.71
101122.53
101125.44
101129.34
101134.13
101139.71
101145.98
101152.82
101160.15
101167.86
101175.85
101184.03
101192.36
101200.88
101207.79
101214.1
101223.31
101231.8
101238.56
101244.76
101250.41
101255.38
101259.68
101263.42
101266.7
101269.62
101272.21
101274.6
101276.9
101279.11
101281.32
101283.5
101285.66
101287.81
101289.95
101292.06
101294.16
101296.25
101298.29
101300.31
101302.29
101304.23
101306.13
101307.98
101309.82
101311.63
101313.42
101315.2
101316.96
101318.71
101320.45
101322.16
101323.87
101325.54
101327.18
101328.79
101330.37
101331.9
101333.4
101334.88
101336.33
101337.76
101339.16
101340.54
101341.9
101343.22
101344.51
101345.76
101346.98
101348.17
101349.33
101350.47
101351.59
101352.68
101353.75
101354.79
101355.8
101356.78
101357.73
101358.65
101359.53
101360.38
101361.18
101361.95
101362.68
101363.37
101364.04
101364.67
101365.27
101365.84
101366.38
101366.89
101367.36
101367.79
101368.18
101368.55
101368.88
101369.2
101369.48
101369.76
101369.99
101370.23
101370.36
101370.52
101561.24
101532.08
101497.24
101461.8
101427.88
101396.03
101366.27
101338.57
101312.96
101289.41
101267.9
101248.37
101230.76
101215.02
101201.09
101188.9
101178.41
101169.56
101162.31
101156.6
101152.39
101149.61
101148.19
101148.03
101149.07
101151.19
101154.31
101158.32
101163.13
101168.63
101174.72
101181.31
101188.29
101195.56
101203.02
101210.66
101218.39
101224.08
101230.35
101239.13
101246.48
101252.42
101257.88
101262.75
101266.96
101270.54
101273.62
101276.29
101278.65
101280.74
101282.7
101284.61
101286.46
101288.33
101290.21
101292.07
101293.94
101295.81
101297.66
101299.52
101301.38
101303.19
101305.01
101306.79
101308.53
101310.25
101311.93
101313.6
101315.26
101316.89
101318.53
101320.14
101321.76
101323.38
101324.97
101326.56
101328.13
101329.66
101331.17
101332.65
101334.09
101335.51
101336.9
101338.27
101339.63
101340.96
101342.27
101343.56
101344.82
101346.05
101347.25
101348.41
101349.55
101350.66
101351.75
101352.82
101353.87
101354.9
101355.9
101356.87
101357.82
101358.73
101359.61
101360.46
101361.28
101362.06
101362.8
101363.5
101364.17
101364.81
101365.43
101366.01
101366.57
101367.09
101367.58
101368.03
101368.45
101368.83
101369.19
101369.51
101369.82
101370.09
101370.37
101370.59
101370.82
101370.95
101371.11
101585.85
101556.52
101523.07
101489.26
101456.76
101426.1
101397.28
101370.32
101345.23
101322.02
101300.67
101281.16
101263.45
101247.5
101233.28
101220.74
101209.83
101200.52
101192.76
101186.5
101181.69
101178.27
101176.18
101175.34
101175.66
101177.06
101179.44
101182.72
101186.79
101191.56
101196.93
101202.79
101209.05
101215.6
101222.34
101229.28
101236.06
101240.74
101247
101255.04
101261.28
101266.43
101271.1
101275.17
101278.6
101281.46
101283.88
101285.94
101287.75
101289.35
101290.88
101292.42
101293.89
101295.44
101297.02
101298.57
101300.16
101301.76
101303.35
101304.96
101306.59
101308.18
101309.78
101311.36
101312.91
101314.44
101315.94
101317.44
101318.94
101320.42
101321.91
101323.38
101324.87
101326.36
101327.83
101329.31
101330.76
101332.19
101333.6
101334.98
101336.33
101337.66
101338.97
101340.25
101341.53
101342.79
101344.03
101345.25
101346.45
101347.61
101348.75
101349.86
101350.94
101352.01
101353.04
101354.07
101355.08
101356.06
101357.02
101357.96
101358.87
101359.75
101360.6
101361.42
101362.2
101362.95
101363.67
101364.34
101364.99
101365.61
101366.2
101366.76
101367.3
101367.8
101368.28
101368.72
101369.12
101369.49
101369.83
101370.15
101370.44
101370.71
101370.98
101371.2
101371.43
101371.55
101371.71
101606.97
101578.19
101546.32
101514.19
101483.17
101453.77
101426.03
101399.94
101375.53
101352.82
101331.81
101312.49
101294.85
101278.87
101264.51
101251.76
101240.57
101230.91
101222.74
101216.02
101210.71
101206.75
101204.07
101202.61
101202.29
101203.02
101204.73
101207.31
101210.69
101214.75
101219.41
101224.56
101230.1
101235.93
101241.97
101248.25
101253.82
101257.64
101263.99
101271.06
101276.21
101280.55
101284.39
101287.63
101290.27
101292.42
101294.17
101295.61
101296.91
101298.03
101299.15
101300.32
101301.42
101302.64
101303.91
101305.16
101306.46
101307.79
101309.11
101310.48
101311.88
101313.23
101314.62
101316
101317.35
101318.69
101320.01
101321.35
101322.68
101324.01
101325.35
101326.68
101328.03
101329.39
101330.74
101332.1
101333.44
101334.76
101336.07
101337.35
101338.6
101339.84
101341.06
101342.27
101343.47
101344.65
101345.82
101346.98
101348.1
101349.21
101350.29
101351.34
101352.37
101353.38
101354.37
101355.35
101356.31
101357.25
101358.17
101359.07
101359.94
101360.78
101361.6
101362.39
101363.14
101363.86
101364.55
101365.2
101365.82
101366.42
101366.99
101367.53
101368.05
101368.54
101368.99
101369.41
101369.8
101370.16
101370.49
101370.8
101371.08
101371.34
101371.6
101371.82
101372.04
101372.17
101372.32
101625.2
101597.4
101567.24
101536.85
101507.39
101479.34
101452.76
101427.66
101404.06
101381.99
101361.46
101342.49
101325.06
101309.18
101294.83
101281.99
101270.63
101260.74
101252.27
101245.19
101239.46
101235.03
101231.85
101229.84
101228.94
101229.06
101230.14
101232.08
101234.79
101238.17
101242.14
101246.59
101251.42
101256.52
101261.88
101267.5
101271.47
101274.89
101281.34
101287.14
101291.22
101294.72
101297.7
101300.09
101301.95
101303.38
101304.46
101305.32
101306.13
101306.79
101307.5
101308.31
101309.02
101309.92
101310.89
101311.83
101312.84
101313.91
101314.96
101316.07
101317.25
101318.36
101319.53
101320.71
101321.87
101323.02
101324.14
101325.31
101326.48
101327.65
101328.84
101330.03
101331.24
101332.48
101333.69
101334.93
101336.17
101337.37
101338.58
101339.76
101340.91
101342.07
101343.2
101344.32
101345.44
101346.55
101347.64
101348.73
101349.79
101350.83
101351.85
101352.84
101353.82
101354.78
101355.71
101356.65
101357.56
101358.46
101359.34
101360.19
101361.03
101361.84
101362.62
101363.37
101364.1
101364.79
101365.45
101366.07
101366.67
101367.24
101367.79
101368.31
101368.81
101369.28
101369.72
101370.13
101370.5
101370.85
101371.17
101371.46
101371.73
101371.99
101372.24
101372.45
101372.67
101372.79
101372.94
101641.11
101614.61
101586.2
101557.58
101529.72
101503.09
101477.74
101453.71
101431.02
101409.7
101389.77
101371.27
101354.18
101338.52
101324.29
101311.48
101300.06
101290.03
101281.36
101274.01
101267.95
101263.13
101259.51
101257.02
101255.6
101255.17
101255.66
101256.99
101259.07
101261.8
101265.1
101268.86
101272.97
101277.34
101281.95
101286.7
101289.38
101292.77
101298.69
101303.16
101306.27
101308.9
101310.99
101312.53
101313.62
101314.33
101314.76
101315.05
101315.41
101315.61
101315.92
101316.39
101316.68
101317.27
101317.96
101318.59
101319.31
101320.1
101320.87
101321.73
101322.69
101323.56
101324.51
101325.49
101326.44
101327.4
101328.34
101329.34
101330.35
101331.35
101332.39
101333.43
101334.51
101335.61
101336.7
101337.82
101338.94
101340.03
101341.13
101342.21
101343.27
101344.33
101345.37
101346.41
101347.45
101348.48
101349.5
101350.52
101351.51
101352.49
101353.45
101354.37
101355.3
101356.2
101357.08
101357.97
101358.83
101359.69
101360.53
101361.34
101362.14
101362.91
101363.66
101364.38
101365.07
101365.73
101366.36
101366.96
101367.54
101368.08
101368.61
101369.11
101369.59
101370.04
101370.46
101370.85
101371.21
101371.54
101371.85
101372.13
101372.4
101372.64
101372.89
101373.09
101373.3
101373.43
101373.58
101655.34
101630.24
101603.56
101576.71
101550.46
101525.28
101501.23
101478.33
101456.62
101436.13
101416.9
101398.96
101382.32
101366.99
101352.98
101340.29
101328.91
101318.83
101310.04
101302.5
101296.18
101291.05
101287.06
101284.15
101282.26
101281.33
101281.28
101282.04
101283.51
101285.62
101288.25
101291.32
101294.72
101298.35
101302.2
101305.92
101307.59
101310.93
101315.94
101319.13
101321.32
101323.03
101324.2
101324.91
101325.25
101325.26
101325.03
101324.79
101324.75
101324.47
101324.41
101324.54
101324.39
101324.7
101325.12
101325.43
101325.85
101326.37
101326.85
101327.46
101328.2
101328.82
101329.56
101330.34
101331.09
101331.85
101332.59
101333.42
101334.27
101335.11
101336
101336.89
101337.82
101338.8
101339.75
101340.75
101341.75
101342.73
101343.72
101344.7
101345.66
101346.63
101347.58
101348.53
101349.49
101350.44
101351.39
101352.34
101353.26
101354.17
101355.07
101355.93
101356.8
101357.65
101358.48
101359.32
101360.13
101360.94
101361.74
101362.51
101363.27
101364.01
101364.72
101365.41
101366.07
101366.7
101367.3
101367.87
101368.41
101368.94
101369.44
101369.92
101370.38
101370.81
101371.21
101371.59
101371.94
101372.25
101372.55
101372.82
101373.07
101373.31
101373.55
101373.74
101373.95
101374.07
101374.22
101668.25
101644.61
101619.65
101594.53
101569.9
101546.19
101523.46
101501.74
101481.06
101461.47
101443.01
101425.71
101409.59
101394.67
101380.97
101368.49
101357.23
101347.19
101338.34
101330.68
101324.18
101318.8
101314.5
101311.22
101308.92
101307.53
101306.98
101307.19
101308.09
101309.58
101311.57
101313.95
101316.63
101319.54
101322.64
101325.04
101325.92
101329.27
101333.08
101335.03
101336.28
101337.05
101337.31
101337.21
101336.81
101336.14
101335.25
101334.52
101334.13
101333.39
101333
101332.74
101332.18
101332.23
101332.35
101332.33
101332.46
101332.71
101332.89
101333.26
101333.79
101334.15
101334.67
101335.26
101335.8
101336.36
101336.9
101337.55
101338.25
101338.92
101339.66
101340.4
101341.19
101342.03
101342.85
101343.73
101344.62
101345.48
101346.36
101347.24
101348.1
101348.97
101349.83
101350.69
101351.57
101352.44
101353.31
101354.19
101355.04
101355.88
101356.72
101357.52
101358.33
101359.12
101359.9
101360.69
101361.46
101362.22
101362.97
101363.7
101364.42
101365.12
101365.8
101366.45
101367.08
101367.68
101368.25
101368.79
101369.31
101369.81
101370.29
101370.74
101371.18
101371.6
101371.98
101372.34
101372.67
101372.98
101373.26
101373.51
101373.76
101373.99
101374.22
101374.41
101374.62
101374.73
101374.88
101680.16
101658.03
101634.74
101611.34
101588.32
101566.08
101544.68
101524.16
101504.55
101485.91
101468.27
101451.66
101436.12
101421.68
101408.35
101396.15
101385.08
101375.14
101366.31
101358.6
101351.97
101346.39
101341.83
101338.24
101335.57
101333.76
101332.73
101332.43
101332.77
101333.65
101335
101336.7
101338.66
101340.86
101343.17
101343.82
101344.47
101347.75
101350.01
101350.8
101351.1
101350.91
101350.27
101349.38
101348.28
101346.88
101345.39
101344.3
101343.5
101342.46
101341.65
101340.91
101340.19
101339.83
101339.55
101339.28
101339.14
101339.11
101338.99
101339.15
101339.44
101339.52
101339.83
101340.24
101340.59
101340.93
101341.26
101341.75
101342.28
101342.8
101343.38
101343.96
101344.61
101345.32
101346
101346.76
101347.53
101348.27
101349.04
101349.81
101350.57
101351.35
101352.12
101352.89
101353.68
101354.47
101355.26
101356.07
101356.85
101357.63
101358.4
101359.14
101359.89
101360.63
101361.35
101362.08
101362.8
101363.52
101364.23
101364.92
101365.59
101366.26
101366.89
101367.51
101368.11
101368.67
101369.21
101369.73
101370.22
101370.7
101371.15
101371.59
101372
101372.4
101372.77
101373.11
101373.42
101373.71
101373.98
101374.23
101374.46
101374.68
101374.9
101375.09
101375.29
101375.4
101375.55
101691.27
101670.68
101649.08
101627.38
101605.97
101585.2
101565.14
101545.83
101527.3
101509.62
101492.83
101476.96
101462.05
101448.13
101435.23
101423.35
101412.52
101402.74
101393.99
101386.27
101379.57
101373.84
101369.07
101365.2
101362.2
101359.99
101358.52
101357.72
101357.51
101357.8
101358.5
101359.51
101360.74
101362.15
101363.4
101362.74
101363.44
101365.87
101366.64
101366.38
101365.7
101364.58
101363.03
101361.37
101359.54
101357.36
101355.72
101354.36
101352.91
101351.5
101350.28
101349.18
101348.19
101347.45
101346.83
101346.28
101345.85
101345.52
101345.21
101345.14
101345.1
101344.95
101345.08
101345.29
101345.43
101345.55
101345.66
101345.99
101346.38
101346.73
101347.15
101347.57
101348.07
101348.65
101349.2
101349.83
101350.48
101351.1
101351.77
101352.43
101353.08
101353.77
101354.44
101355.12
101355.83
101356.54
101357.25
101357.98
101358.69
101359.4
101360.11
101360.78
101361.47
101362.15
101362.82
101363.51
101364.18
101364.84
101365.51
101366.15
101366.79
101367.41
101368.01
101368.59
101369.15
101369.69
101370.2
101370.69
101371.15
101371.6
101372.03
101372.44
101372.84
101373.21
101373.56
101373.89
101374.19
101374.46
101374.72
101374.95
101375.18
101375.39
101375.6
101375.78
101375.98
101376.09
101376.23
101702.16
101682.96
101663
101642.99
101623.16
101603.83
101585.08
101566.96
101549.51
101532.8
101516.86
101501.74
101487.49
101474.12
101461.68
101450.18
101439.63
101430.04
101421.42
101413.74
101407
101401.17
101396.22
101392.11
101388.79
101386.21
101384.32
101383.03
101382.28
101381.98
101382.02
101382.33
101382.85
101383.42
101383.26
101381.72
101382.43
101383.58
101382.95
101381.68
101380.05
101377.98
101375.49
101373.08
101370.53
101368.16
101366.25
101364.21
101362.31
101360.54
101358.95
101357.5
101356.21
101355.11
101354.17
101353.33
101352.62
101352.01
101351.48
101351.12
101350.82
101350.52
101350.4
101350.35
101350.31
101350.23
101350.13
101350.28
101350.53
101350.72
101350.97
101351.23
101351.59
101352.04
101352.44
101352.95
101353.48
101353.98
101354.54
101355.09
101355.64
101356.22
101356.81
101357.39
101358.02
101358.64
101359.27
101359.93
101360.56
101361.21
101361.85
101362.46
101363.09
101363.71
101364.32
101364.95
101365.57
101366.19
101366.81
101367.41
101368
101368.59
101369.15
101369.69
101370.22
101370.72
101371.2
101371.66
101372.1
101372.52
101372.93
101373.31
101373.69
101374.04
101374.37
101374.68
101374.97
101375.22
101375.47
101375.69
101375.9
101376.11
101376.31
101376.49
101376.68
101376.79
101376.93
101713.19
101695.12
101676.73
101658.4
101640.14
101622.22
101604.74
101587.78
101571.38
101555.61
101540.52
101526.16
101512.56
101499.77
101487.81
101476.7
101466.47
101457.11
101448.63
101441.03
101434.28
101428.37
101423.27
101418.94
101415.33
101412.4
101410.09
101408.31
101407.02
101406.1
101405.49
101405.09
101404.91
101404.58
101402.48
101400.77
101401.32
101400.77
101398.89
101396.62
101394.05
101390.97
101387.56
101384.54
101381.81
101379.14
101376.5
101374.02
101371.72
101369.59
101367.63
101365.85
101364.24
101362.82
101361.55
101360.43
101359.43
101358.56
101357.79
101357.16
101356.61
101356.12
101355.75
101355.47
101355.21
101354.97
101354.71
101354.63
101354.71
101354.75
101354.84
101354.93
101355.15
101355.47
101355.72
101356.11
101356.53
101356.9
101357.35
101357.79
101358.23
101358.72
101359.21
101359.7
101360.24
101360.78
101361.33
101361.91
101362.47
101363.04
101363.61
101364.16
101364.73
101365.29
101365.85
101366.42
101366.99
101367.56
101368.13
101368.69
101369.24
101369.78
101370.31
101370.82
101371.31
101371.78
101372.22
101372.65
101373.06
101373.46
101373.84
101374.2
101374.56
101374.89
101375.2
101375.49
101375.76
101376
101376.23
101376.44
101376.64
101376.84
101377.04
101377.21
101377.39
101377.5
101377.64
101724.26
101707.99
101690.82
101674.05
101657.28
101640.68
101624.39
101608.51
101593.1
101578.23
101563.96
101550.33
101537.39
101525.17
101513.7
101503
101493.09
101483.98
101475.67
101468.16
101461.43
101455.46
101450.22
101445.68
101441.8
101438.51
101435.77
101433.51
101431.65
101430.11
101428.8
101427.69
101426.76
101425.09
101421.55
101420.02
101419.55
101417.38
101414.35
101411.08
101407.51
101403.3
101399.65
101396.39
101393.02
101389.76
101386.68
101383.8
101381.12
101378.63
101376.33
101374.22
101372.29
101370.55
101368.98
101367.56
101366.29
101365.15
101364.14
101363.25
101362.46
101361.76
101361.16
101360.64
101360.18
101359.74
101359.33
101359.07
101358.94
101358.81
101358.76
101358.68
101358.77
101358.95
101359.05
101359.33
101359.63
101359.86
101360.2
101360.54
101360.86
101361.26
101361.65
101362.04
101362.49
101362.95
101363.42
101363.92
101364.41
101364.91
101365.41
101365.89
101366.4
101366.9
101367.4
101367.92
101368.44
101368.95
101369.48
101369.99
101370.5
101371
101371.49
101371.96
101372.41
101372.85
101373.26
101373.66
101374.04
101374.41
101374.77
101375.11
101375.44
101375.75
101376.04
101376.32
101376.57
101376.79
101377.01
101377.21
101377.4
101377.58
101377.77
101377.94
101378.11
101378.22
101378.36
101735.39
101723.2
101707.24
101691.15
101675.24
101659.62
101644.31
101629.36
101614.84
101600.8
101587.29
101574.37
101562.06
101550.39
101539.41
101529.12
101519.55
101510.7
101502.57
101495.16
101488.45
101482.43
101477.06
101472.32
101468.15
101464.5
101461.32
101458.54
101456.09
101453.88
101451.84
101450
101448.29
101444.8
101440.53
101439.06
101437.03
101433.35
101429.16
101424.89
101420.3
101415.83
101411.94
101407.88
101403.97
101400.28
101396.81
101393.55
101390.51
101387.67
101385.03
101382.59
101380.35
101378.3
101376.43
101374.73
101373.19
101371.79
101370.52
101369.39
101368.36
101367.43
101366.61
101365.87
101365.19
101364.57
101364
101363.55
101363.21
101362.93
101362.7
101362.51
101362.46
101362.45
101362.43
101362.59
101362.76
101362.86
101363.09
101363.32
101363.53
101363.83
101364.13
101364.42
101364.78
101365.16
101365.54
101365.97
101366.38
101366.8
101367.24
101367.65
101368.1
101368.54
101368.98
101369.44
101369.91
101370.37
101370.85
101371.32
101371.78
101372.24
101372.69
101373.12
101373.54
101373.94
101374.32
101374.69
101375.04
101375.38
101375.71
101376.03
101376.34
101376.63
101376.9
101377.16
101377.39
101377.6
101377.8
101377.98
101378.17
101378.34
101378.52
101378.68
101378.85
101378.95
101379.09
101747.83
101738.73
101725.5
101709.38
101693.88
101679.01
101664.52
101650.4
101636.67
101623.4
101610.61
101598.35
101586.65
101575.53
101565.01
101555.13
101545.88
101537.28
101529.33
101522.02
101515.34
101509.26
101503.76
101498.79
101494.32
101490.29
101486.65
101483.31
101480.22
101477.28
101474.44
101471.71
101468.96
101464.22
101459.68
101457.25
101453.42
101448.46
101443.15
101438.08
101433.25
101428.41
101423.68
101419.13
101414.81
101410.73
101406.88
101403.26
101399.86
101396.68
101393.72
101390.96
101388.41
101386.06
101383.91
101381.93
101380.11
101378.46
101376.94
101375.56
101374.3
101373.15
101372.1
101371.14
101370.26
101369.44
101368.7
101368.07
101367.54
101367.08
101366.7
101366.37
101366.16
101366.01
101365.89
101365.89
101365.91
101365.9
101366.03
101366.14
101366.23
101366.44
101366.65
101366.84
101367.11
101367.4
101367.69
101368.05
101368.38
101368.73
101369.1
101369.44
101369.82
101370.21
101370.58
101370.99
101371.4
101371.82
101372.25
101372.67
101373.09
101373.51
101373.91
101374.3
101374.69
101375.05
101375.4
101375.73
101376.06
101376.37
101376.67
101376.97
101377.25
101377.52
101377.77
101378.01
101378.22
101378.42
101378.61
101378.78
101378.95
101379.11
101379.29
101379.44
101379.61
101379.7
101379.84
101761.86
101754.71
101741.79
101726.71
101712.38
101698.49
101684.88
101671.57
101658.62
101646.07
101633.97
101622.34
101611.21
101600.6
101590.54
101581.04
101572.11
101563.75
101555.97
101548.75
101542.07
101535.92