/*--------------------------------*- C++ -*----------------------------------*\
| =========                 |                                                 |
| \\      /  F ield         | OpenFOAM: The Open Source CFD Toolbox           |
|  \\    /   O peration     | Version:  2406                                  |
|   \\  /    A nd           | Website:  www.openfoam.com                      |
|    \\/     M anipulation  |                                                 |
\*---------------------------------------------------------------------------*/
FoamFile
{
    version     2.0;
    format      ascii;
    arch        "LSB;label=32;scalar=64";
    class       volScalarField;
    location    "0.002";
    object      T;
}
// * * * * * * * * * * * * * * * * * * * * * * * * * * * * * * * * * * * * * //

dimensions      [0 0 0 1 0 0 0];

internalField   nonuniform List<scalar> 
92813
(
292.61141
292.61333
292.61505
292.61868
292.62405
292.63071
292.63835
292.64677
292.65578
292.66525
292.67503
292.68499
292.69504
292.70508
292.71503
292.7248
292.73433
292.74356
292.75244
292.76096
292.76907
292.77676
292.784
292.7908
292.79714
292.80304
292.80849
292.8135
292.81808
292.82224
292.82597
292.82929
292.83221
292.83475
292.83691
292.83871
292.84016
292.84128
292.84208
292.84258
292.84279
292.84274
292.84243
292.8419
292.84115
292.8402
292.83909
292.83784
292.83647
292.83501
292.8335
292.83196
292.8305
292.82915
292.82801
292.82719
292.82685
292.82719
292.82845
292.83113
292.83585
292.84361
292.85604
292.87569
292.90529
292.94039
292.96666
292.9807
292.98864
292.99447
292.99958
293.00435
293.00886
293.01315
293.01722
293.02107
293.0247
293.02813
293.03134
293.03434
293.03713
293.03971
293.04209
293.04426
293.04623
293.048
293.04957
293.05096
293.05215
293.05317
293.05399
293.05464
293.05511
293.05539
293.05547
293.05535
293.05499
293.05438
293.05347
293.0522
293.05051
293.0484
293.0456
293.04221
293.0381
293.0331
293.02718
293.02025
293.01227
293.00319
292.99297
292.9816
292.96912
292.95556
292.94098
292.92547
292.90919
292.89233
292.87516
292.85798
292.84116
292.82516
292.8104
292.79782
292.78692
292.7814
292.77276
292.66642
292.66388
292.66349
292.66519
292.6683
292.67251
292.67768
292.68366
292.6903
292.69747
292.70503
292.71287
292.72089
292.72899
292.7371
292.74515
292.75307
292.7608
292.76829
292.77549
292.78239
292.78895
292.79517
292.80103
292.80652
292.81163
292.81635
292.82068
292.82462
292.82818
292.83135
292.83416
292.8366
292.83869
292.84044
292.84185
292.84295
292.84374
292.84424
292.84446
292.84441
292.84412
292.8436
292.84286
292.84192
292.84082
292.83956
292.83817
292.83669
292.83514
292.83356
292.83198
292.83049
292.82915
292.82806
292.82734
292.82714
292.8277
292.82931
292.83247
292.83788
292.84664
292.86053
292.88222
292.91369
292.9479
292.97103
292.98298
292.99009
292.9956
293.00055
293.0052
293.00961
293.0138
293.01778
293.02155
293.02511
293.02845
293.03159
293.03452
293.03725
293.03976
293.04208
293.04419
293.0461
293.04781
293.04933
293.05066
293.05181
293.05277
293.05356
293.05416
293.05459
293.05483
293.05487
293.05471
293.05433
293.05368
293.05274
293.05144
293.04971
293.04758
293.04475
293.04133
293.03718
293.03215
293.0262
293.01925
293.01125
293.00216
292.99192
292.98056
292.96807
292.95452
292.93995
292.92445
292.90818
292.89133
292.87418
292.85701
292.8402
292.8242
292.80944
292.79686
292.78592
292.78048
292.77171
292.72459
292.71997
292.71739
292.71666
292.71719
292.71876
292.72129
292.72466
292.72876
292.73345
292.73863
292.7442
292.75005
292.7561
292.76226
292.76847
292.77465
292.78075
292.78671
292.79248
292.79802
292.80334
292.80839
292.81318
292.81767
292.82185
292.82572
292.82926
292.83247
292.83534
292.83789
292.84011
292.84201
292.84359
292.84487
292.84585
292.84654
292.84695
292.84709
292.84698
292.84663
292.84606
292.84527
292.84429
292.84313
292.84181
292.84037
292.83881
292.83718
292.8355
292.83382
292.83216
292.83062
292.82927
292.8282
292.82755
292.82749
292.82828
292.83023
292.83389
292.84003
292.84987
292.86533
292.88916
292.92214
292.95458
292.9746
292.98491
292.9914
292.99666
293.00147
293.00601
293.01032
293.01442
293.01831
293.022
293.02548
293.02875
293.03182
293.03468
293.03734
293.03979
293.04204
293.0441
293.04595
293.04761
293.04908
293.05036
293.05145
293.05237
293.05311
293.05367
293.05406
293.05426
293.05427
293.05407
293.05365
293.05297
293.05199
293.05066
293.04889
293.04672
293.04385
293.04039
293.0362
293.03113
293.02514
293.01816
293.01014
293.00103
292.99078
292.97941
292.96693
292.95338
292.93882
292.92334
292.90709
292.89027
292.87313
292.85599
292.83919
292.82321
292.80846
292.7959
292.78494
292.7796
292.77074
292.78013
292.77375
292.76916
292.76617
292.76436
292.76358
292.76376
292.7648
292.7666
292.76905
292.77206
292.77553
292.77937
292.78348
292.7878
292.79224
292.79674
292.80125
292.80571
292.81007
292.81429
292.81836
292.82224
292.82592
292.82939
292.83262
292.8356
292.83832
292.84078
292.84295
292.84485
292.84646
292.8478
292.84886
292.84965
292.85017
292.85044
292.85045
292.85023
292.84978
292.84911
292.84824
292.84718
292.84594
292.84455
292.84302
292.84137
292.83964
292.83785
292.83605
292.83426
292.83252
292.83093
292.82956
292.82852
292.82795
292.82804
292.82906
292.83139
292.83559
292.84254
292.85357
292.87078
292.89684
292.93081
292.96078
292.97785
292.98677
292.99276
292.9978
293.00246
293.00689
293.01109
293.0151
293.0189
293.0225
293.0259
293.02909
293.03208
293.03487
293.03746
293.03985
293.04204
293.04403
293.04582
293.04743
293.04884
293.05007
293.05112
293.05198
293.05268
293.0532
293.05354
293.0537
293.05367
293.05344
293.05298
293.05227
293.05125
293.04988
293.04808
293.04586
293.04297
293.03945
293.03522
293.03011
293.02409
293.01708
293.00903
292.9999
292.98964
292.97827
292.96579
292.95225
292.9377
292.92224
292.90601
292.88921
292.8721
292.85498
292.8382
292.82224
292.80751
292.79497
292.78398
292.77875
292.76982
292.83225
292.82442
292.81812
292.81319
292.80937
292.80655
292.80466
292.80362
292.80336
292.80378
292.8048
292.80633
292.80828
292.81058
292.81315
292.81592
292.81883
292.82182
292.82483
292.82783
292.83077
292.83363
292.83637
292.83898
292.84144
292.84373
292.84583
292.84773
292.84942
292.85088
292.85212
292.85312
292.85388
292.8544
292.85469
292.85475
292.85458
292.85419
292.85359
292.85279
292.85179
292.85061
292.84927
292.84777
292.84614
292.84439
292.84255
292.84064
292.83869
292.83676
292.83486
292.83304
292.83141
292.83003
292.82903
292.82856
292.82883
292.83013
292.83287
292.83769
292.84555
292.85791
292.87705
292.90534
292.93952
292.96638
292.98077
292.98857
292.99413
292.99897
293.0035
293.0078
293.0119
293.01581
293.01952
293.02303
293.02634
293.02945
293.03237
293.03508
293.0376
293.03992
293.04205
293.04398
293.04571
293.04726
293.04862
293.04979
293.05079
293.05161
293.05225
293.05273
293.05303
293.05315
293.05309
293.05282
293.05232
293.05157
293.05052
293.04911
293.04727
293.04501
293.04209
293.03852
293.03425
293.0291
293.02304
293.016
293.00793
292.99878
292.98851
292.97713
292.96465
292.95112
292.93658
292.92114
292.90493
292.88816
292.87108
292.85398
292.83723
292.82129
292.80658
292.79405
292.78303
292.77793
292.76891
292.88116
292.87211
292.8644
292.85786
292.85233
292.84774
292.84405
292.84118
292.83908
292.83766
292.83686
292.83661
292.83682
292.83742
292.83836
292.83955
292.84094
292.84248
292.84412
292.84581
292.84751
292.84919
292.85082
292.85237
292.85384
292.8552
292.85642
292.8575
292.85842
292.85917
292.85973
292.8601
292.86028
292.86025
292.86003
292.85961
292.85899
292.85819
292.8572
292.85603
292.8547
292.85321
292.85157
292.84981
292.84793
292.84595
292.84391
292.84182
292.83971
292.83764
292.83564
292.83375
292.83207
292.8307
292.82976
292.82941
292.82988
292.83149
292.83471
292.84023
292.84911
292.86299
292.88424
292.91457
292.94798
292.97138
292.98343
292.99031
292.99553
293.00018
293.00457
293.00876
293.01275
293.01655
293.02016
293.02358
293.02681
293.02984
293.03267
293.03532
293.03776
293.04002
293.04207
293.04394
293.04561
293.0471
293.0484
293.04952
293.05047
293.05124
293.05184
293.05227
293.05253
293.05261
293.05251
293.0522
293.05167
293.05089
293.0498
293.04835
293.04647
293.04417
293.04121
293.0376
293.03328
293.02809
293.022
293.01493
293.00683
292.99766
292.98738
292.976
292.96352
292.95
292.93548
292.92005
292.90387
292.88712
292.87007
292.853
292.83628
292.82036
292.80567
292.79315
292.78211
292.77712
292.76796
292.92692
292.91689
292.90799
292.90012
292.89316
292.88708
292.88182
292.87735
292.87362
292.87057
292.86813
292.86625
292.86487
292.86391
292.86332
292.86303
292.863
292.86317
292.86349
292.86393
292.86443
292.86497
292.86552
292.86605
292.86655
292.86699
292.86735
292.86761
292.86776
292.86779
292.86767
292.86741
292.86699
292.86641
292.86566
292.86475
292.86368
292.86245
292.86106
292.85952
292.85784
292.85603
292.85409
292.85205
292.84992
292.84771
292.84546
292.84318
292.84091
292.83871
292.83661
292.83465
292.83294
292.83158
292.83071
292.8305
292.83121
292.83318
292.83694
292.84325
292.8533
292.86886
292.89238
292.92435
292.95593
292.97579
292.98588
292.99203
292.99695
293.00143
293.00568
293.00975
293.01363
293.01732
293.02084
293.02416
293.0273
293.03024
293.033
293.03556
293.03794
293.04012
293.04211
293.04391
293.04552
293.04695
293.0482
293.04926
293.05016
293.05088
293.05143
293.05182
293.05204
293.05208
293.05194
293.0516
293.05103
293.05021
293.04909
293.0476
293.04568
293.04333
293.04035
293.03669
293.03233
293.0271
293.02097
293.01387
293.00575
292.99656
292.98627
292.97488
292.96241
292.94889
292.93438
292.91898
292.90282
292.8861
292.86908
292.85203
292.83534
292.81945
292.80479
292.79228
292.78121
292.77634
292.76695
292.96965
292.95882
292.94895
292.93999
292.93184
292.92449
292.91789
292.91204
292.90688
292.90238
292.89848
292.89514
292.8923
292.88991
292.88791
292.88626
292.88489
292.88377
292.88286
292.88209
292.88145
292.8809
292.88041
292.87995
292.8795
292.87904
292.87854
292.878
292.87739
292.87669
292.8759
292.875
292.87398
292.87284
292.87156
292.87016
292.86862
292.86696
292.86516
292.86324
292.86121
292.85907
292.85683
292.8545
292.85211
292.84967
292.8472
292.84474
292.84231
292.83998
292.83778
292.83575
292.83402
292.83269
292.8319
292.83186
292.83284
292.83523
292.83961
292.84682
292.85818
292.87564
292.9015
292.93441
292.96319
292.97967
292.98817
292.99374
292.9984
293.00272
293.00683
293.01077
293.01454
293.01813
293.02154
293.02477
293.02781
293.03067
293.03334
293.03583
293.03813
293.04024
293.04216
293.0439
293.04545
293.04681
293.048
293.04901
293.04986
293.05053
293.05104
293.05138
293.05156
293.05156
293.05138
293.051
293.0504
293.04954
293.04838
293.04687
293.0449
293.0425
293.03949
293.0358
293.03139
293.02612
293.01995
293.01282
293.00468
292.99547
292.98517
292.97378
292.96131
292.9478
292.9333
292.91791
292.90178
292.88509
292.8681
292.85109
292.83443
292.81857
292.80393
292.79143
292.78033
292.77562
292.7658
293.00947
292.99801
292.98737
292.97751
292.96838
292.95996
292.95223
292.94518
292.93879
292.93301
292.92782
292.92317
292.91902
292.91533
292.91205
292.90913
292.90653
292.90421
292.90212
292.90023
292.89851
292.89691
292.89541
292.89399
292.89263
292.89129
292.88996
292.88863
292.88727
292.88586
292.88439
292.88285
292.88124
292.87953
292.87772
292.87582
292.87382
292.87171
292.8695
292.8672
292.8648
292.86232
292.85977
292.85716
292.85451
292.85183
292.84915
292.84649
292.84391
292.84145
292.83915
292.83706
292.83532
292.83403
292.83336
292.83352
292.83482
292.83769
292.84276
292.851
292.86385
292.88342
292.91154
292.94438
292.96964
292.98312
292.99036
292.99546
292.99989
293.00404
293.00802
293.01184
293.01549
293.01896
293.02227
293.0254
293.02835
293.03112
293.03371
293.03612
293.03834
293.04038
293.04223
293.0439
293.04538
293.04669
293.04782
293.04878
293.04957
293.05019
293.05065
293.05095
293.05109
293.05105
293.05084
293.05042
293.04978
293.04889
293.0477
293.04614
293.04414
293.04169
293.03865
293.03491
293.03046
293.02515
293.01895
293.01179
293.00363
292.9944
292.98409
292.97269
292.96022
292.94672
292.93224
292.91687
292.90076
292.88411
292.86715
292.85017
292.83354
292.81771
292.8031
292.79061
292.77948
292.77494
292.7643
293.04649
293.03456
293.02331
293.01273
293.0028
292.9935
292.98482
292.97676
292.96929
292.96241
292.95608
292.95028
292.94496
292.9401
292.93564
292.93157
292.92783
292.92439
292.92122
292.91827
292.91552
292.91293
292.91048
292.90814
292.90589
292.90371
292.90157
292.89946
292.89736
292.89525
292.89312
292.89095
292.88873
292.88646
292.88412
292.88172
292.87924
292.87669
292.87407
292.87137
292.86861
292.8658
292.86293
292.86003
292.85711
292.85419
292.85129
292.84845
292.84571
292.84312
292.84073
292.8386
292.83686
292.83564
292.8351
292.8355
292.83717
292.84059
292.84647
292.85588
292.87042
292.89228
292.92235
292.9539
292.97528
292.98623
292.99247
292.99718
293.00141
293.00541
293.00925
293.01293
293.01646
293.01983
293.02303
293.02606
293.02892
293.03159
293.0341
293.03642
293.03857
293.04053
293.04231
293.04391
293.04533
293.04657
293.04765
293.04855
293.04929
293.04986
293.05028
293.05053
293.05063
293.05056
293.0503
293.04985
293.04918
293.04825
293.04702
293.04542
293.04338
293.04089
293.03782
293.03404
293.02954
293.0242
293.01796
293.01078
293.00259
292.99334
292.98302
292.97161
292.95915
292.94566
292.93119
292.91584
292.89976
292.88314
292.86622
292.84927
292.83268
292.81688
292.8023
292.78982
292.77868
292.77421
292.76246
293.08084
293.06857
293.05686
293.04573
293.03515
293.02512
293.01565
293.00674
292.99837
292.99054
292.98322
292.9764
292.97004
292.96413
292.95863
292.9535
292.94872
292.94426
292.94007
292.93614
292.93242
292.9289
292.92554
292.92233
292.91923
292.91623
292.91331
292.91045
292.90763
292.90483
292.90204
292.89925
292.89645
292.89361
292.89075
292.88784
292.88489
292.88189
292.87885
292.87576
292.87264
292.86948
292.8663
292.8631
292.85992
292.85675
292.85364
292.85062
292.84772
292.84502
292.84255
292.84038
292.83866
292.83752
292.83716
292.83784
292.83993
292.84398
292.85079
292.86155
292.87801
292.90226
292.93363
292.96265
292.98017
292.98907
292.99454
292.99894
293.00297
293.00681
293.01051
293.01407
293.01748
293.02073
293.02381
293.02674
293.0295
293.03209
293.0345
293.03675
293.03881
293.0407
293.04241
293.04394
293.04529
293.04647
293.04749
293.04834
293.04902
293.04954
293.04991
293.05013
293.05018
293.05007
293.04978
293.04929
293.04859
293.04762
293.04636
293.04472
293.04265
293.04011
293.037
293.03318
293.02864
293.02326
293.01699
293.00978
293.00156
292.9923
292.98196
292.97056
292.95809
292.94461
292.93016
292.91483
292.89878
292.88219
292.8653
292.8484
292.83184
292.81607
292.80153
292.78907
292.77793
292.77342
292.76079
293.11266
293.10017
293.08812
293.07656
293.06548
293.05487
293.04476
293.03513
293.026
293.01736
293.00919
293.00149
292.99422
292.98738
292.98094
292.97487
292.96914
292.96374
292.95863
292.95378
292.94916
292.94476
292.94055
292.9365
292.9326
292.92882
292.92514
292.92156
292.91804
292.91457
292.91115
292.90774
292.90435
292.90097
292.89757
292.89417
292.89075
292.88731
292.88385
292.88037
292.87687
292.87337
292.86987
292.86638
292.86293
292.85953
292.85621
292.853
292.84995
292.84714
292.8446
292.84241
292.84073
292.83971
292.83955
292.84057
292.84316
292.84795
292.85582
292.86812
292.88672
292.91334
292.94495
292.97042
292.98443
292.99173
292.9966
293.00072
293.00457
293.00826
293.01181
293.01524
293.01852
293.02165
293.02463
293.02745
293.03011
293.03261
293.03493
293.03709
293.03907
293.04088
293.04252
293.04398
293.04527
293.04639
293.04734
293.04813
293.04876
293.04924
293.04956
293.04973
293.04975
293.0496
293.04928
293.04875
293.04801
293.04701
293.04571
293.04404
293.04193
293.03934
293.0362
293.03233
293.02775
293.02234
293.01604
293.0088
293.00056
292.99128
292.98093
292.96952
292.95706
292.94358
292.92914
292.91384
292.89782
292.88126
292.86442
292.84755
292.83103
292.8153
292.8008
292.78836
292.77724
292.77258
292.75976
293.14208
293.12946
293.11719
293.10531
293.09384
293.08279
293.07216
293.06196
293.0522
293.04287
293.03398
293.02551
293.01746
293.0098
293.00252
292.99561
292.98903
292.98278
292.97682
292.97112
292.96568
292.96046
292.95544
292.95061
292.94595
292.94142
292.93703
292.93274
292.92855
292.92444
292.92039
292.91639
292.91243
292.9085
292.90459
292.90069
292.8968
292.89292
292.88904
292.88517
292.88131
292.87747
292.87365
292.86987
292.86615
292.86252
292.85899
292.85561
292.85241
292.8495
292.8469
292.84471
292.8431
292.84223
292.84232
292.84373
292.84691
292.85255
292.86166
292.87572
292.89667
292.92533
292.95582
292.97715
292.98819
292.99426
292.99866
293.00253
293.00621
293.00974
293.01315
293.01644
293.0196
293.02261
293.02548
293.02819
293.03075
293.03315
293.03538
293.03745
293.03935
293.04108
293.04264
293.04404
293.04526
293.04631
293.04721
293.04794
293.04852
293.04895
293.04923
293.04935
293.04933
293.04914
293.04878
293.04823
293.04745
293.04641
293.04508
293.04337
293.04122
293.0386
293.03541
293.03151
293.02689
293.02143
293.0151
293.00784
292.99957
292.99027
292.97991
292.96849
292.95604
292.94257
292.92815
292.91287
292.89688
292.88036
292.86355
292.84673
292.83025
292.81456
292.8001
292.78768
292.77661
292.77177
292.75924
293.16922
293.15654
293.14414
293.13206
293.12032
293.10893
293.09789
293.08724
293.07696
293.06708
293.05758
293.04846
293.03973
293.03136
293.02335
293.01569
293.00835
293.00133
292.99459
292.98813
292.98192
292.97595
292.97018
292.96462
292.95923
292.95401
292.94893
292.94397
292.93914
292.9344
292.92975
292.92517
292.92065
292.91619
292.91177
292.90739
292.90304
292.89872
292.89443
292.89017
292.88595
292.88176
292.87763
292.87357
292.86959
292.86572
292.86199
292.85844
292.85512
292.85212
292.84948
292.84731
292.84579
292.8451
292.84551
292.84738
292.85125
292.85788
292.86842
292.88448
292.90789
292.93787
292.96578
292.9829
292.99157
292.99672
293.00073
293.00438
293.00789
293.01127
293.01453
293.01768
293.02071
293.0236
293.02635
293.02895
293.03141
293.03371
293.03585
293.03783
293.03965
293.0413
293.04279
293.04411
293.04526
293.04625
293.04709
293.04777
293.04829
293.04867
293.0489
293.04899
293.04893
293.0487
293.04831
293.04772
293.0469
293.04583
293.04446
293.04271
293.04053
293.03787
293.03464
293.0307
293.02604
293.02055
293.01419
293.00689
292.9986
292.98928
292.97891
292.96749
292.95504
292.94158
292.92717
292.91192
292.89596
292.87948
292.86271
292.84593
292.82949
292.81385
292.79944
292.78705
292.77603
292.77102
292.75896
293.19422
293.18154
293.16909
293.1569
293.14498
293.13335
293.12202
293.11101
293.10033
293.08998
293.07998
293.07033
293.06101
293.05204
293.04339
293.03507
293.02706
293.01935
293.01192
293.00476
292.99785
292.99118
292.98472
292.97847
292.97241
292.96652
292.9608
292.95521
292.94976
292.94442
292.93919
292.93405
292.92899
292.92401
292.9191
292.91424
292.90944
292.90469
292.9
292.89536
292.89077
292.88626
292.88182
292.87747
292.87323
292.86914
292.86521
292.86151
292.85807
292.855
292.85234
292.85022
292.84883
292.84838
292.84915
292.85158
292.85625
292.86405
292.87624
292.89455
292.92033
292.95042
292.97454
292.98783
292.99468
292.99914
293.00283
293.00627
293.00961
293.01283
293.01595
293.01896
293.02185
293.02462
293.02725
293.02974
293.0321
293.0343
293.03634
293.03824
293.03997
293.04154
293.04295
293.0442
293.04528
293.04621
293.04699
293.04761
293.04808
293.04841
293.0486
293.04864
293.04854
293.04828
293.04785
293.04722
293.04638
293.04527
293.04386
293.04208
293.03986
293.03716
293.03389
293.02991
293.02521
293.01969
293.0133
293.00597
292.99766
292.98832
292.97794
292.96651
292.95406
292.94061
292.92622
292.91099
292.89506
292.87862
292.8619
292.84516
292.82878
292.81318
292.79881
292.78646
292.77549
292.77036
292.75886
293.21724
293.20461
293.19218
293.17995
293.16793
293.15614
293.1446
293.13333
293.12233
293.11162
293.10121
293.09111
293.08131
293.07181
293.06262
293.05373
293.04512
293.0368
293.02875
293.02096
293.01342
293.00611
292.99902
292.99214
292.98545
292.97894
292.9726
292.96642
292.96038
292.95447
292.94869
292.94301
292.93743
292.93195
292.92655
292.92124
292.916
292.91083
292.90574
292.90072
292.89578
292.89094
292.8862
292.88157
292.87709
292.87278
292.86867
292.86482
292.86128
292.85816
292.85551
292.85347
292.85225
292.85209
292.85331
292.8564
292.86202
292.87118
292.88527
292.90602
292.93371
292.96234
292.98201
292.99212
292.99761
293.00154
293.00496
293.0082
293.01137
293.01444
293.0174
293.02026
293.02303
293.02567
293.02818
293.03056
293.0328
293.03491
293.03686
293.03866
293.0403
293.04179
293.04313
293.0443
293.04532
293.04618
293.0469
293.04746
293.04788
293.04816
293.0483
293.04831
293.04816
293.04787
293.04741
293.04675
293.04587
293.04473
293.04329
293.04147
293.03922
293.03648
293.03316
293.02914
293.0244
293.01885
293.01243
293.00508
292.99674
292.98738
292.97699
292.96555
292.9531
292.93966
292.92529
292.91008
292.89419
292.87779
292.86112
292.84443
292.82809
292.81254
292.79823
292.78591
292.77501
292.76978
292.75892
293.23842
293.2259
293.21353
293.20131
293.18926
293.17738
293.16571
293.15424
293.14301
293.13203
293.12129
293.11082
293.10062
293.09069
293.08103
293.07164
293.06252
293.05367
293.04507
293.03672
293.0286
293.02071
293.01304
293.00557
292.9983
292.99122
292.98431
292.97757
292.97097
292.96453
292.95821
292.95202
292.94594
292.93998
292.93412
292.92835
292.92268
292.91711
292.91163
292.90625
292.90097
292.89581
292.89078
292.88589
292.88117
292.87665
292.87237
292.86839
292.86478
292.86164
292.85901
292.85709
292.8561
292.8563
292.85806
292.86193
292.86867
292.87942
292.89568
292.91891
292.94755
292.97306
292.9883
292.99593
293.00043
293.00394
293.00712
293.01017
293.01316
293.01607
293.01888
293.0216
293.02423
293.02675
293.02914
293.0314
293.03354
293.03554
293.03739
293.0391
293.04066
293.04206
293.04332
293.04442
293.04537
293.04617
293.04682
293.04733
293.0477
293.04793
293.04803
293.04799
293.04781
293.04748
293.04698
293.04629
293.04538
293.04421
293.04273
293.04088
293.03859
293.03581
293.03245
293.02839
293.02362
293.01804
293.01159
293.00421
292.99584
292.98646
292.97606
292.96462
292.95217
292.93874
292.92438
292.9092
292.89334
292.87699
292.86036
292.84372
292.82744
292.81195
292.79769
292.78541
292.77458
292.76928
292.7591
293.25788
293.24551
293.23324
293.22109
293.20905
293.19715
293.1854
293.17382
293.16242
293.15122
293.14024
293.12948
293.11895
293.10866
293.09861
293.0888
293.07924
293.06992
293.06084
293.05199
293.04336
293.03495
293.02675
293.01875
293.01095
293.00333
292.99589
292.98862
292.98151
292.97455
292.96774
292.96106
292.95451
292.94808
292.94177
292.93558
292.9295
292.92353
292.91767
292.91194
292.90633
292.90086
292.89555
292.8904
292.88546
292.88075
292.87633
292.87223
292.86858
292.86543
292.86287
292.86112
292.86042
292.86106
292.86347
292.86827
292.87634
292.88894
292.9076
292.93303
292.96109
292.98228
292.99362
292.99941
293.00319
293.00637
293.00932
293.01218
293.015
293.01775
293.02041
293.02298
293.02547
293.02785
293.03012
293.03227
293.03429
293.03619
293.03794
293.03956
293.04103
293.04235
293.04353
293.04456
293.04544
293.04617
293.04676
293.04722
293.04754
293.04772
293.04777
293.04769
293.04747
293.04711
293.04658
293.04586
293.04492
293.04372
293.0422
293.04031
293.03798
293.03517
293.03176
293.02767
293.02286
293.01725
293.01077
293.00336
292.99496
292.98557
292.97515
292.96371
292.95126
292.93784
292.92349
292.90834
292.89252
292.87621
292.85964
292.84305
292.82683
292.81139
292.79719
292.78495
292.7742
292.76886
292.75938
293.27575
293.26355
293.25143
293.23939
293.22741
293.21553
293.20375
293.19211
293.1806
293.16926
293.1581
293.14711
293.13633
293.12574
293.11537
293.10521
293.09527
293.08554
293.07604
293.06675
293.05767
293.04879
293.04012
293.03164
293.02335
293.01524
293.00731
292.99956
292.99196
292.98452
292.97724
292.9701
292.96309
292.95623
292.94949
292.94289
292.93641
292.93007
292.92386
292.91778
292.91186
292.9061
292.90051
292.89513
292.88998
292.8851
292.88054
292.87637
292.87269
292.86958
292.86713
292.86561
292.86527
292.86645
292.86964
292.87556
292.8852
292.89991
292.92109
292.94793
292.97355
292.98997
292.9982
293.00269
293.00593
293.00881
293.01156
293.01423
293.01687
293.01946
293.02196
293.02438
293.02673
293.02899
293.03113
293.03316
293.03507
293.03687
293.03852
293.04004
293.04142
293.04266
293.04376
293.04471
293.04552
293.04619
293.04672
293.04712
293.04739
293.04752
293.04753
293.04741
293.04716
293.04676
293.0462
293.04545
293.04448
293.04324
293.04169
293.03976
293.0374
293.03455
293.0311
293.02698
293.02214
293.0165
293.00998
293.00254
292.99412
292.9847
292.97427
292.96282
292.95038
292.93696
292.92264
292.90751
292.89173
292.87547
292.85894
292.84242
292.82625
292.81087
292.79673
292.78455
292.77388
292.76851
292.75974
293.29213
293.28013
293.2682
293.25629
293.24441
293.23259
293.22083
293.20917
293.19762
293.18618
293.17489
293.16374
293.15275
293.14194
293.1313
293.12085
293.1106
293.10053
293.09066
293.08099
293.07151
293.06223
293.05313
293.04421
293.03548
293.02693
293.01855
293.01034
293.0023
292.99442
292.98669
292.97912
292.97169
292.96441
292.95727
292.95027
292.94342
292.93672
292.93016
292.92377
292.91755
292.91151
292.90567
292.90007
292.89473
292.88971
292.88504
292.88081
292.87714
292.8741
292.87183
292.87061
292.87072
292.87256
292.8767
292.88395
292.89542
292.91252
292.93602
292.96282
292.98436
292.99633
293.00228
293.00584
293.00866
293.01129
293.01383
293.01631
293.01877
293.0212
293.02355
293.02582
293.02803
293.03015
293.03217
293.03407
293.03588
293.03756
293.03912
293.04054
293.04183
293.04299
293.04401
293.04488
293.04563
293.04623
293.0467
293.04705
293.04726
293.04735
293.04731
293.04716
293.04686
293.04643
293.04584
293.04506
293.04406
293.04279
293.04121
293.03925
293.03685
293.03396
293.03047
293.02631
293.02144
293.01577
293.00922
293.00175
292.9933
292.98386
292.97342
292.96197
292.94952
292.93611
292.9218
292.90671
292.89097
292.87475
292.85828
292.84182
292.82571
292.8104
292.79633
292.78419
292.77362
292.76824
292.76016
293.30715
293.29534
293.28361
293.27187
293.26013
293.2484
293.23671
293.22507
293.2135
293.20203
293.19065
293.17939
293.16826
293.15727
293.14643
293.13574
293.12522
293.11487
293.1047
293.0947
293.08488
293.07523
293.06575
293.05645
293.04732
293.03837
293.02958
293.02096
293.0125
293.00421
292.99607
292.98809
292.98027
292.9726
292.96508
292.95772
292.95051
292.94347
292.93659
292.9299
292.92339
292.91709
292.91103
292.90523
292.89973
292.89458
292.88983
292.88558
292.88196
292.87906
292.87703
292.87619
292.87687
292.87951
292.88479
292.89362
292.90723
292.92684
292.95194
292.97671
292.99331
293.00168
293.00602
293.00893
293.0114
293.01379
293.01614
293.01843
293.02071
293.02298
293.02516
293.02728
293.02935
293.03134
293.03323
293.03501
293.0367
293.03828
293.03973
293.04106
293.04227
293.04333
293.04427
293.04508
293.04575
293.04629
293.0467
293.04699
293.04715
293.04719
293.04712
293.04692
293.04659
293.04613
293.04551
293.0447
293.04367
293.04237
293.04076
293.03876
293.03633
293.0334
293.02987
293.02568
293.02078
293.01507
293.00849
293.00098
292.99251
292.98305
292.9726
292.96114
292.94869
292.93529
292.921
292.90593
292.89023
292.87407
292.85766
292.84126
292.82522
292.80997
292.79597
292.78389
292.77341
292.76802
292.76063
293.32091
293.30934
293.29778
293.28621
293.27463
293.26303
293.25143
293.23985
293.22832
293.21684
293.20543
293.1941
293.18287
293.17175
293.16075
293.14988
293.13915
293.12857
293.11814
293.10786
293.09774
293.08778
293.07797
293.06833
293.05885
293.04953
293.04037
293.03138
293.02255
293.01387
293.00536
292.99701
292.98882
292.98078
292.97291
292.96521
292.95767
292.95031
292.94313
292.93616
292.92939
292.92286
292.91659
292.91061
292.90498
292.89973
292.89495
292.89073
292.88721
292.88449
292.88278
292.88243
292.88381
292.88744
292.8941
292.9048
292.92079
292.94274
292.96797
292.98879
293.00061
293.00632
293.00955
293.01198
293.01416
293.01633
293.01848
293.02058
293.02268
293.02478
293.02681
293.02877
293.03069
293.03255
293.03432
293.03598
293.03755
293.03902
293.04037
293.0416
293.04272
293.0437
293.04456
293.04528
293.04589
293.04636
293.04671
293.04695
293.04706
293.04706
293.04694
293.0467
293.04634
293.04584
293.04519
293.04436
293.0433
293.04198
293.04033
293.03831
293.03584
293.03287
293.0293
293.02508
293.02015
293.01441
293.00779
293.00025
292.99175
292.98227
292.9718
292.96033
292.94789
292.9345
292.92023
292.90519
292.88953
292.87342
292.85707
292.84073
292.82476
292.80959
292.79566
292.78364
292.77326
292.76787
292.76113
293.33344
293.32214
293.3108
293.2994
293.28799
293.27654
293.26507
293.25358
293.2421
293.23065
293.21925
293.20789
293.19661
293.1854
293.17429
293.16329
293.15239
293.14162
293.13098
293.12047
293.1101
293.09986
293.08977
293.07983
293.07004
293.0604
293.05092
293.04159
293.03241
293.0234
293.01454
293.00585
292.99731
292.98895
292.98075
292.97273
292.96488
292.95723
292.94978
292.94255
292.93555
292.92881
292.92236
292.91624
292.91049
292.90519
292.90041
292.89627
292.89292
292.89046
292.88917
292.88944
292.89168
292.89652
292.90483
292.91771
292.9362
292.95971
292.98295
292.99872
293.00661
293.01049
293.01297
293.01502
293.01694
293.01889
293.02085
293.02276
293.02468
293.02661
293.02849
293.03029
293.03206
293.03379
293.03543
293.03696
293.03842
293.03978
293.04103
293.04216
293.04318
293.04408
293.04486
293.04551
293.04605
293.04646
293.04675
293.04693
293.047
293.04694
293.04679
293.04651
293.04612
293.04559
293.04491
293.04405
293.04296
293.04161
293.03994
293.03788
293.03538
293.03237
293.02877
293.02452
293.01955
293.01377
293.00712
292.99955
292.99102
292.98152
292.97104
292.95956
292.94712
292.93373
292.91948
292.90447
292.88886
292.87281
292.85652
292.84025
292.82436
292.80926
292.79541
292.78345
292.77317
292.76778
292.76167
293.34485
293.33381
293.32273
293.31154
293.30028
293.28899
293.27766
293.2663
293.25491
293.24352
293.23215
293.2208
293.2095
293.19825
293.18706
293.17596
293.16494
293.15402
293.14321
293.13252