/*--------------------------------*- C++ -*----------------------------------*\
| =========                 |                                                 |
| \\      /  F ield         | OpenFOAM: The Open Source CFD Toolbox           |
|  \\    /   O peration     | Version:  2406                                  |
|   \\  /    A nd           | Website:  www.openfoam.com                      |
|    \\/     M anipulation  |                                                 |
\*---------------------------------------------------------------------------*/
FoamFile
{
    version     2.0;
    format      ascii;
    arch        "LSB;label=32;scalar=64";
    class       volScalarField;
    location    "0.008";
    object      k;
}
// * * * * * * * * * * * * * * * * * * * * * * * * * * * * * * * * * * * * * //

dimensions      [0 2 -2 0 0 0 0];

internalField   nonuniform List<scalar> 
23203
(
997.06914
982.94062
966.23322
947.54355
927.25738
905.65163
882.97735
859.46706
835.34433
810.81273
786.04702
761.21616
736.46575
711.90334
687.63044
663.73653
640.29461
617.36522
594.99635
982.94514
967.27418
949.38425
929.96329
909.30042
887.60441
865.07258
841.89519
818.25149
794.30738
770.21008
746.0973
722.09212
698.29381
674.78953
651.65598
628.95773
606.74841
585.0705
965.0216
948.33567
929.88168
910.17986
889.47338
867.94745
845.76952
823.09641
800.07423
776.83835
753.51185
730.2078
707.02839
684.06216
661.38561
639.06507
617.15733
595.71003
574.76151
943.6621
926.44086
907.85293
888.25248
867.82934
846.74328
825.13832
803.14697
780.8912
758.48347
736.02677
713.61551
691.33598
669.26509
647.46994
626.00892
604.93252
584.28364
564.09752
919.78779
902.41175
883.98331
864.74426
844.83491
824.38518
803.51577
782.3385
760.95619
739.46348
717.94731
696.48766
675.15809
654.02507
633.1476
612.57756
592.36033
572.53502
553.13447
894.0097
876.79835
858.76517
840.08188
820.85282
801.18097
781.16512
760.89838
740.46724
719.95167
699.42566
678.95762
658.61079
638.44299
618.50631
598.8472
579.50685
560.52129
541.92138
866.84089
850.04501
832.59456
814.61572
796.18874
777.39528
758.31522
739.02523
719.59759
700.09992
680.5954
661.14297
641.79749
622.60966
603.62577
584.88775
566.43325
548.29577
530.50452
838.72556
822.5334
805.80779
788.64421
771.10654
753.26009
735.16929
716.89694
698.50325
680.04539
661.5775
643.15062
624.81274
606.60868
588.57989
570.76445
553.19703
535.90897
518.92804
810.04421
794.59257
778.69453
762.42438
745.83441
728.97741
711.90564
694.67067
677.32278
659.91047
642.48031
625.07675
607.74206
590.51611
573.43631
556.53741
539.85152
523.40806
507.23352
781.12904
766.51107
751.50811
736.17988
720.57017
704.72228
688.67912
672.48349
656.17766
639.80304
623.39988
607.0071
590.66211
574.40063
558.25651
542.26164
526.44583
510.83679
495.45981
752.2699
738.5395
724.46712
710.10228
695.48239
680.64363
665.62179
650.45282
635.17264
619.81679
604.42025
589.01724
573.64101
558.32363
543.09589
527.98707
513.02491
498.2355
483.643
723.70117
710.88055
697.7487
684.34719
670.70857
656.86364
642.84281
628.67668
614.396
600.0315
585.61373
571.17284
556.73845
542.33947
528.00387
513.75861
499.62948
485.64105
471.81633
695.59854
683.6875
671.48795
659.03459
646.35604
633.47903
620.42981
607.23479
593.92055
580.51385
567.04146
553.53007
540.00612
526.49563
513.02409
499.61628
486.29617
473.08685
460.01019
668.09262
657.07521
645.78673
634.25568
622.50726
610.56497
598.45181
586.19084
573.80529
561.31861
548.75441
536.13636
523.48811
510.83314
498.19464
485.59537
473.05758
460.60291
448.2521
641.28302
631.13153
620.72301
610.08038
599.22571
588.17973
576.96278
565.59518
554.09743
542.49021
530.79444
519.03119
507.22165
495.38703
483.5484
471.72667
459.94244
448.21596
436.56681
615.24554
605.92362
596.35663
586.56244
576.56024
566.36831
556.00466
545.4873
534.83439
524.06428
513.19556
502.24705
491.23776
480.18683
469.11345
458.03676
446.97583
435.94953
424.97632
590.0364
581.50172
572.7326
563.74251
554.54797
545.16504
535.60965
525.89775
516.04544
506.06901
495.98503
485.81032
475.56194
465.25718
454.91347
444.54834
434.17939
423.82417
413.50003
565.69556
557.90173
549.88333
541.65005
533.21604
524.5953
515.80182
506.84966
497.75301
488.52633
479.18435
469.74208
460.21486
450.61827
440.96815
431.28051
421.57156
411.85759
402.15484
542.24758
535.14619
527.82968
520.30457
512.58291
504.6768
496.59836
488.35984
479.97372
471.45274
462.80995
454.05876
445.21289
436.28638
427.29358
418.24911
409.16783
400.06484
390.95527
519.705
513.24705
506.58333
499.71759
492.65999
485.42085
478.01056
470.4397
462.71913
454.86002
446.8739
438.77266
430.56856
422.27421
413.90257
405.46694
396.98093
388.45848
379.91364
498.0741
492.20956
486.14936
479.89438
473.45275
466.83319
460.04451
453.09574
445.99623
438.75569
431.38423
423.89234
416.29091
408.59122
400.80493
392.94407
385.02108
377.04876
369.04015
477.34971
472.03014
466.52482
460.8329
454.96025
448.91384
442.70115
436.32979
429.80774
423.14333
416.34535
409.42298
402.38583
395.24392
388.00768
380.68798
373.29609
365.84376
358.343
457.51781
452.69727
447.70027
442.52491
437.17563
431.6576
425.97671
420.13942
414.15244
408.02288
401.75829
395.36662
388.85626
382.23608
375.51534
368.70378
361.81161
354.84953
347.82856
438.56028
434.19421
429.66125
424.95801
420.08785
415.05483
409.86332
404.51837
399.02561
393.39102
387.62101
381.7224
375.70245
369.56892
363.33
356.99437
350.5712
344.07018
337.50141
420.45222
416.49891
412.38787
408.11494
403.68209
399.09241
394.34943
389.45699
384.41935
379.24146
373.92869
368.48683
362.92214
357.24133
351.45157
345.56056
339.57648
333.50807
327.36449
403.16402
399.58435
395.85596
391.97392
387.9393
383.75404
379.42089
374.94271
370.32286
365.56509
360.6738
355.6539
350.51069
345.24994
339.87789
334.40125
328.8273
323.16386
317.41917
386.66257
383.42003
380.0375
376.50955
372.83639
369.01915
365.0595
360.95956
356.722
352.34974
347.84612
343.21512
338.46124
333.58936
328.60485
323.51354
318.32182
313.03664
307.66538
370.91229
367.97311
364.90229
361.69406
358.34798
354.86444
351.24438
347.48922
343.60071
339.5812
335.43331
331.16006
326.76504
322.25239
317.62667
312.89292
308.05669
303.1241
298.10171
355.87554
353.20872
350.41824
347.49811
344.44736
341.26579
337.95374
334.51194
330.94157
327.24415
323.42173
319.47671
315.41181
311.23033
306.93613
302.5335
298.02722
293.42262
288.72552
341.51351
339.0907
336.55183
333.89079
331.10619
328.19737
325.16414
322.00668
318.72556
315.32175
311.79659
308.15192
304.38993
300.5132
296.52473
292.42813
288.22749
283.92743
279.53303
327.78722
325.5825
323.26898
320.84047
318.29526
315.63232
312.851
309.95103
306.93249
303.79579
300.54177
297.17161
293.68702
290.08996
286.38286
282.56854
278.65047
274.63261
270.5194
314.65757
312.64739
310.53531
308.31511
305.98483
303.54311
300.98896
298.32173
295.54106
292.64695
289.63973
286.5201
283.28912
279.94829
276.49954
272.94517
269.28792
265.53118
261.67874
302.08557
300.24866
298.31638
296.28249
294.14486
291.90187
289.55226
287.09503
284.52949
281.85524
279.07222
276.18069
273.18124
270.0749
266.86304
263.54756
260.13071
256.61523
253.00433
290.03267
288.34987
286.57787
284.71041
282.74524
280.68056
278.51485
276.24687
273.87563
271.40041
268.82078
266.13664
263.3482
260.45602
257.46109
254.36478
251.169
247.87608
244.48863
278.46092
276.91506
275.2858
273.56687
271.75594
269.85106
267.85054
265.75292
263.55697
261.2617
258.86639
256.3706
253.77419
251.07737
248.2807
245.38522
242.3924
239.30432
236.12337
267.33317
265.90892
264.40668
262.82022
261.14713
259.38537
257.53311
255.58872
253.55078
251.41807
249.18962
246.86473
244.44293
241.92412
239.30852
236.59676
233.79001
230.89008
227.89965
256.61322
255.29691
253.90767
252.43929
250.88934
249.25569
247.53642
245.72977
243.83416
241.84821
239.77074
237.6008
235.33771
232.98106
230.53076
227.9871
225.35082
222.6232
246.2659
245.04538
243.75666
242.39353
240.95355
239.43455
237.83453
236.15164
234.38418
232.53063
230.58966
228.56015
226.44121
224.23223
221.93291
219.54334
217.06407
214.49626
236.25714
235.12167
233.92238
232.65306
231.31129
229.89487
228.40176
226.83002
225.17789
223.44373
221.6261
219.72372
217.73556
215.6608
213.49895
211.24986
208.91379
206.49141
226.55398
225.49408
224.37439
223.18873
221.93469
220.61007
219.21279
217.74088
216.19251
214.56599
212.85974
211.0724
209.20278
207.24991
205.21311
203.092
200.8866
198.59724
217.12449
216.13185
215.0831
213.97209
212.79648
211.55406
210.24274
208.86053
207.40557
205.87608
204.27044
202.58719
200.82503
198.98285
197.05982
195.05539
192.96936
190.80185
207.93796
207.00527
206.01983
204.97555
203.87015
202.70143
201.46731
200.16578
198.79495
197.35302
195.83832
194.24931
192.58461
190.84302
189.02358
187.12561
185.14874
183.09293
198.96501
198.08586
197.15704
196.17253
195.13009
194.02756
192.86286
191.63398
190.33904
188.9762
187.54378
186.04018
184.46397
182.81389
181.08887
179.28814
177.4112
175.45786
190.17753
189.34633
188.46829
187.53743
186.55158
185.50861
184.40645
183.24312
182.01672
180.72544
179.36757
177.9415
176.44575
174.87903
173.2402
171.52839
169.74305
167.88385
181.54857
180.76048
179.92813
179.04558
178.11073
177.12148
176.0758
174.97172
173.80738
172.58097
171.29078
169.9352
168.51276
167.02212
165.4621
163.8318
162.13057
160.358
173.05232
172.30319
171.5121
170.67321
169.78446
168.84381
167.84926
166.7989
165.69087
164.52341
163.29483
162.00354
160.64806
159.22704
157.73929
156.18387
154.56008
152.86744
164.66397
163.95022
163.19657
162.39728
161.55037
160.65385
159.70578
158.70427
157.64755
156.53387
155.36158
154.12912
152.83503
151.47796
150.05672
148.57034
147.0181
145.39946
156.35959
155.67819
154.95873
154.19557
153.38684
152.5306
151.62499
150.66817
149.65841
148.59403
147.47343
146.29507
145.05753
143.75947
142.39971
140.97728
139.49144
137.94161
148.1167
147.46507
146.77701
146.04703
145.27336
144.45413
143.58753
142.67182
141.70532
140.6864
139.61353
138.48522
137.30006
136.05677
134.75417
133.39131
131.96741
130.4819
139.91448
139.29041
138.63138
137.93206
137.19077
136.40574
135.57524
134.69758
133.77118
132.79448
131.76599
130.68428
129.548
128.35588
127.10678
125.79975
124.43403
123.00899
131.73367
131.13528
130.50327
129.83247
129.12131
128.3681
127.57122
126.72907
125.84014
124.90294
123.91605
122.8781
121.78778
120.64385
119.44521
118.19092
116.88021
115.51246
123.55659
122.98231
122.37562
121.73155
121.04863
120.3253
119.56002
118.7513
117.89771
116.99784
116.05032
115.05385
114.00714
112.90901
111.75838
110.55431
109.29606
107.98299
115.36708
114.81567
114.23293
113.61415
112.95799
112.26301
111.5278
110.75095
109.93109
109.06691
108.15707
107.20033
106.19544
105.14126
104.03672
102.88092
101.67312
100.41266
107.15132
106.62165
106.06182
105.4673
104.83687
104.1692
103.46299
102.71691
101.92967
101.09999
100.22662
99.308332
98.343943
97.332331
96.272472
95.163474
94.004609
92.795223
98.898422
98.389591
97.851909
97.280976
96.675614
96.0346
95.356698
94.640668
93.885277
93.089307
92.251554
91.370841
90.446027
89.476032
88.459862
87.396652
86.285691
85.126318
90.59968
90.111285
89.595381
89.04769
88.467057
87.852337
87.202372
86.515989
85.792018
85.029296
84.226676
83.383032
82.497271
81.568355
80.595328
79.577356
78.513742
77.403819
82.247979
81.780135
81.286086
80.761717
80.205886
79.617514
78.995514
78.338781
77.646205
76.91669
76.149148
75.342511
74.495743
73.607854
72.677931
71.705174
70.688903
69.628442
73.838849
73.392099
72.920454
72.419977
71.889504
71.328007
70.734467
70.10785
69.447121
68.751257
68.019243
67.25008
66.442794
65.596455
64.710198
63.78326
62.814982
61.804678
65.372685
64.948283
64.5
64.024292
63.520041
62.986289
62.422094
61.826501
61.198557
60.537321
59.841857
59.111241
58.34457
57.540973
56.699642
55.819853
54.900968
53.942293
56.857341
56.456742
56.033125
55.583432
55.106648
54.601921
54.068402
53.50523
52.911544
52.28649
51.629218
50.938884
50.214659
49.455744
48.661385
47.830899
46.963669
46.058987
48.312001
47.936897
47.539618
47.117612
46.669993
46.196031
45.694993
45.166128
44.608688
44.021929
43.405106
42.757467
42.078272
41.366806
40.622386
39.844375
39.032156
38.184862
39.772438
39.425103
39.056509
38.664542
38.248454
37.807649
37.341517
36.849441
36.330821
35.785081
35.211649
34.609944
33.979369
33.319269
32.628963
31.907754
31.154855
30.369253
31.301471
30.985346
30.649158
30.291001
29.910246
29.506401
29.078963
28.627439
28.151404
27.650511
27.124457
26.572888
25.995343
25.391309
24.760181
24.101374
23.414344
22.698486
23.01053
22.73138
22.433994
22.11624
21.777562
21.417539
21.035744
20.63178
20.20535
19.756285
19.284568
18.790305
18.273599
17.734498
17.172098
16.586087
15.976409
15.343058
15.111493
14.877823
14.628477
14.360629
14.073783
13.767627
13.441893
13.096377
12.730981
12.345769
11.94109
11.517819
11.077572
10.620323
10.145216
9.6522304
9.1434879
8.6201332
8.0482683
7.8752916
7.6909816
7.4919826
7.2780239
7.04933
6.8063435
6.549593
6.279695
5.9973423
5.7034131
5.3992185
5.0865962
4.7664392
4.4404031
4.110238
3.7787526
3.4495788
2.846722
2.7514465
2.6561194
2.5565524
2.4511821
2.3402899
2.2250233
2.1064382
1.9854163
1.8627525
1.7391551
1.6154463
1.4924603
1.3720008
1.2587901
1.1547405
1.0603912
0.97542653
0.81055566
0.79862923
0.78477266
0.77021976
0.75534696
0.74035382
0.72543564
0.71074352
0.69635495
0.68227853
0.6684762
0.65536619
0.64325452
0.63239336
0.62291751
0.61474043
0.60767232
0.60149984
0.57587555
0.5755106
0.57508274
0.57457477
0.57406044
0.57353315
0.57298458
0.57241841
0.57184024
0.57125372
0.57066566
0.57008982
0.56953632
0.56900539
0.56848969
0.56797932
0.56746126
0.5669239
0.55003505
0.55062485
0.55083721
0.55085831
0.55087346
0.55090085
0.5509201
0.55091934
0.5508938
0.55084004
0.55075457
0.55063448
0.55047812
0.55028613
0.55006215
0.54981151
0.54953715
0.54923513
0.5342332
0.53496894
0.53533304
0.53549092
0.53561827
0.53573898
0.53583939
0.53591218
0.53595627
0.53597167
0.53595822
0.5359155
0.53584256
0.53573726
0.5355961
0.53541464
0.53518878
0.5349159
0.52082117
0.52149128
0.52183589
0.52199697
0.52212647
0.52224953
0.52235703
0.5224434
0.52250756
0.52254901
0.52256663
0.52255902
0.52252488
0.5224632
0.52237336
0.52225487
0.52210672
0.52192656
0.5089204
0.50952829
0.50984973
0.510012
0.51014841
0.51027979
0.51039697
0.51049475
0.51057246
0.51063022
0.51066772
0.51068434
0.5106792
0.51065121
0.51059896
0.51052085
0.51041519
0.51028033
0.49836715
0.4989238
0.49922643
0.49938694
0.49952536
0.49966026
0.49978294
0.49988847
0.49997619
0.50004613
0.50009787
0.50013073
0.50014389
0.50013646
0.50010749
0.50005591
0.49998059
0.49988056
0.48896177
0.48947164
0.48974993
0.48989788
0.49002653
0.49015331
0.49027022
0.49037283
0.49046069
0.49053397
0.49059238
0.49063537
0.49066222
0.49067207
0.49066395
0.49063667
0.49058897
0.49051997
0.48056427
0.48102854
0.48128324
0.48141975
0.4815394
0.48165822
0.48176889
0.48186739
0.48195327
0.48202665
0.48208726
0.48213458
0.48216797
0.48218671
0.48218993
0.4821766
0.48214539
0.47303992
0.47345413
0.47368231
0.47380527
0.47391392
0.47402258
0.47412467
0.47421658
0.47429794
0.47436889
0.47442919
0.47447839
0.47451593
0.47454115
0.47455326
0.47455134
0.4745342
0.46627197
0.46664118
0.46684408
0.46695367
0.46705147
0.46714997
0.46724313
0.46732771
0.46740343
0.46747038
0.4675284
0.46757709
0.46761595
0.46764442
0.46766179
0.46766726
0.46765981
0.46016192
0.4604912
0.46067099
0.46076811
0.46085559
0.46094425
0.46102857
0.4611057
0.4611754
0.46123778
0.46129269
0.4613398
0.46137867
0.46140879
0.46142955
0.46144024
0.46143993
0.45462954
0.45492346
0.45508259
0.4551685
0.45524653
0.45532603
0.45540201
0.45547196
0.45553568
0.45559329
0.45564467
0.45568954
0.45572752
0.45575815
0.4557809
0.45579513
0.45580004
0.44960586
0.44986839
0.45000934
0.45008546
0.45015507
0.45022632
0.45029471
0.45035802
0.45041611
0.4504691
0.45051691
0.45055928
0.45059589
0.45062635
0.45065018
0.45066681
0.45067553
0.44503198
0.44526652
0.44539161
0.44545925
0.44552148
0.44558539
0.44564697
0.44570428
0.44575722
0.44580591
0.44585029
0.44589015
0.44592521
0.44595512
0.44597948
0.44599777
0.44600937
0.44085754
0.44106713
0.44117846
0.44123885
0.44129467
0.44135213
0.44140771
0.44145969
0.44150801
0.44155281
0.44159402
0.44163149
0.44166497
0.44169416
0.44171871
0.44173817
0.44175198
0.43703906
0.43722645
0.43732589
0.4373801
0.43743037
0.43748223
0.43753256
0.43757987
0.43762412
0.43766545
0.43770382
0.43773909
0.43777108
0.43779951
0.43782408
0.4378444
0.43786
0.43353913
0.43370685
0.43379602
0.43384496
0.43389047
0.43393748
0.43398327
0.43402652
0.43406722
0.4341055
0.43414136
0.43417469
0.43420531
0.43423301
0.43425753
0.43427853
0.4342956
0.43032549
0.43047582
0.43055613
0.4306006
0.43064204
0.43068489
0.43072676
0.43076651
0.43080415
0.4308398
0.43087347
0.43090509
0.43093451
0.43096156
0.43098601
0.43100757
0.43102591
0.42737041
0.42750545
0.42757811
0.4276188
0.42765677
0.42769607
0.4277346
0.42777136
0.42780638
0.42783978
0.42787159
0.42790175
0.42793015
0.42795664
0.42798103
0.42800309
0.42802255
0.4246502
0.42477182
0.4248379
0.4248754
0.42491046
0.42494676
0.42498247
0.42501672
0.42504953
0.42508104
0.42511128
0.42514022
0.42516777
0.42519382
0.4252182
0.42524074
0.42526119
0.42214459
0.42225451
0.42231495
0.42234979
0.42238243
0.42241624
0.42244961
0.42248178
0.42251278
0.42254274
0.42257171
0.42259967
0.42262655
0.42265228
0.42267671
0.42269971
0.4227211
0.41983621
0.41993599
0.41999161
0.42002427
0.42005496
0.42008675
0.42011823
0.42014873
0.42017827
0.42020701
0.42023499
0.4202622
0.42028861
0.42031415
0.42033872
0.42036221
0.42038448
0.41770999
0.41780101
0.41785254
0.41788346
0.41791262
0.41794283
0.41797284
0.41800204
0.41803049
0.41805831
0.41808557
0.41811228
0.4181384
0.4181639
0.41818871
0.41821273
0.41823587
0.41575252
0.415836
0.41588409
0.41591366
0.41594169
0.41597071
0.41599963
0.41602789
0.41605556
0.41608277
0.41610958
0.41613601
0.41616205
0.41618766
0.41621281
0.41623743
0.41626145
0.41395158
0.41402857
0.41407379
0.41410239
0.41412963
0.41415783
0.41418599
0.41421364
0.41424083
0.41426769
0.4142943
0.41432067
0.41434681
0.4143727
0.41439832
0.41442362
0.41444856
0.41229581
0.41236721
0.41241006
0.41243799
0.41246474
0.41249242
0.41252013
0.41254745
0.41257442
0.41260119
0.41262782
0.41265434
0.41268076
0.41270708
0.41273328
0.41275935
0.41278527
0.4107745
0.41084107
0.41088197
0.41090947
0.410936
0.41096342
0.41099092
0.41101814
0.41104512
0.411072
0.41109885
0.41112569
0.41115254
0.41117941
0.41120631
0.41123323
0.41126019
0.40937751
0.40943991
0.40947918
0.40950646
0.40953294
0.4095603
0.40958779
0.40961508
0.40964225
0.4096694
0.40969661
0.40972391
0.40975131
0.40977884
0.40980651
0.40983434
0.40986238
0.40809532
0.40815405
0.40819194
0.40821914
0.40824571
0.40827314
0.40830074
0.40832824
0.4083557
0.40838323
0.40841089
0.40843874
0.40846677
0.40849502
0.4085235
0.40855226
0.40858138
0.40691903
0.40697449
0.40701117
0.40703837
0.40706511
0.40709268
0.40712047
0.40714823
0.40717603
0.40720398
0.40723215
0.40726057
0.40728926
0.40731825
0.40734754
0.4073772
0.40740735
0.40584052
0.40589297
0.40592857
0.40595581
0.40598273
0.40601045
0.40603843
0.40606646
0.40609461
0.40612299
0.40615165
0.40618063
0.40620995
0.40623964
0.40626972
0.40630021
0.40485247
0.40490209
0.40493668
0.40496396
0.40499103
0.40501886
0.405047
0.40507526
0.40510371
0.40513245
0.40516154
0.40519102
0.40522091
0.40525124
0.40528203
0.40531333
0.40394835
0.40399527
0.40402891
0.40405617
0.40408331
0.40411119
0.40413941
0.40416782
0.40419649
0.40422551
0.40425494
0.40428481
0.40431516
0.40434601
0.4043774
0.40440936
0.40312231
0.40316664
0.40319934
0.4032265
0.40325362
0.40328145
0.40330966
0.40333811
0.40336689
0.40339607
0.40342571
0.40345585
0.40348652
0.40351775
0.40354959
0.40358206
0.40236901
0.40241086
0.40244261
0.40246956
0.40249653
0.4025242
0.40255228
0.40258066
0.40260941
0.40263862
0.40266833
0.40269859
0.40272944
0.40276089
0.402793
0.40282581
0.40168348
0.40172295
0.4017537
0.40178033
0.40180703
0.40183442
0.40186223
0.40189041
0.401919
0.40194809
0.40197773
0.40200796
0.40203881
0.40207033
0.40210254
0.4021355
0.40106108
0.40109829
0.40112798
0.40115417
0.40118048
0.40120745
0.40123488
0.40126271
0.40129101
0.40131984
0.40134927
0.40137932
0.40141003
0.40144143
0.40147358
0.40150652
0.40049759
0.40053262
0.40056122
0.40058684
0.40061265
0.4006391
0.40066603
0.40069341
0.40072129
0.40074974
0.40077881
0.40080855
0.40083898
0.40087014
0.40090207
0.40093482
0.39998924
0.40002218
0.40004966
0.40007464
0.40009985
0.40012569
0.40015204
0.40017887
0.40020624
0.40023421
0.40026284
0.40029215
0.40032219
0.40035299
0.40038458
0.40041702
0.39953268
0.39956365
0.39959001
0.3996143
0.39963885
0.39966403
0.39968974
0.39971597
0.39974278
0.39977021
0.39979833
0.39982716
0.39985674
0.3998871
0.39991827
0.3999503
0.39912485
0.39915398
0.39917925
0.39920283
0.39922672
0.39925123
0.3992763
0.39930192
0.39932814
0.39935502
0.3993826
0.39941093
0.39944002
0.3994699
0.39950061
0.39953218
0.39876271
0.39879016
0.39881441
0.39883731
0.39886055
0.39888442
0.39890887
0.39893389
0.39895955
0.39898589
0.39901296
0.39904079
0.3990694
0.3990988
0.39912904
0.39916013
0.39844313
0.39846906
0.39849239
0.39851465
0.39853729
0.39856056
0.39858443
0.39860891
0.39863405
0.39865989
0.39868647
0.39871382
0.39874196
0.3987709
0.39880067
0.39883127
0.3981629
0.39818747
0.39820995
0.39823162
0.39825371
0.39827644
0.39829978
0.39832376
0.39834841
0.39837378
0.3983999
0.3984268
0.39845448
0.39848296
0.39851224
0.39854234
0.39791898
0.39794234
0.39796403
0.39798515
0.39800671
0.39802893
0.39805177
0.39807526
0.39809944
0.39812435
0.39815002
0.39817644
0.39820364
0.39823161
0.39826037
0.39828991
0.39770895
0.39773118
0.39775212
0.39777268
0.39779372
0.39781541
0.39783774
0.39786072
0.3978844
0.3979088
0.39793394
0.39795984
0.39798647
0.39801385
0.39804197
0.39807085
0.39753131
0.39755244
0.39757262
0.39759257
0.39761303
0.39763412
0.39765586
0.39767825
0.39770132
0.3977251
0.3977496
0.39777481
0.39780074
0.39782736
0.39785467
0.39738555
0.39740556
0.39742488
0.39744412
0.39746387
0.39748424
0.39750523
0.39752686
0.39754915
0.39757211
0.39759575
0.39762007
0.39764505
0.39767068
0.39769694
0.39727165
0.39729045
0.39730878
0.39732714
0.397346
0.39736545
0.39738548
0.39740611
0.39742736
0.39744923
0.39747174
0.39749486
0.39751859
0.39754291
0.39756781
0.39718917
0.39720662
0.3972238
0.39724107
0.3972588
0.39727708
0.39729588
0.39731524
0.39733515
0.39735562
0.39737665
0.39739825
0.39742039
0.39744306
0.39746626
0.39713615
0.39715211
0.39716793
0.39718388
0.39720025
0.39721709
0.3972344
0.39725219
0.39727046
0.39728923
0.3973085
0.39732826
0.3973485
0.39736922
0.39739042
0.39710867
0.39712298
0.39713725
0.39715168
0.39716646
0.39718164
0.39719723
0.39721322
0.39722963
0.39724647
0.39726374
0.39728144
0.39729957
0.39731813
0.39733713
0.39710154
0.3971141
0.39712669
0.39713943
0.39715247
0.39716585
0.39717956
0.39719362
0.39720804
0.39722282
0.39723798
0.39725351
0.39726943
0.39728573
0.39730243
0.39711002
0.39712078
0.39713161
0.39714259
0.39715382
0.39716533
0.39717713
0.39718922
0.39720162
0.39721433
0.39722737
0.39724073
0.39725444
0.39726849
0.39728289
0.39713161
0.39714061
0.39714969
0.39715893
0.39716837
0.39717805
0.39718796
0.39719813
0.39720855
0.39721925
0.39723022
0.39724146
0.397253
0.39726482
0.39727695
0.39716478
0.39717201
0.39717935
0.39718684
0.39719451
0.39720237
0.39721043
0.3972187
0.39722719
0.39723589
0.39724482
0.39725397
0.39726335
0.39727295
0.39728279
0.39720965
0.39721512
0.39722071
0.39722641
0.39723227
0.3972383
0.39724448
0.39725083
0.39725736
0.39726405
0.39727091
0.39727793
0.39728513
0.39729249
0.39730003
0.3972626
0.39726634
0.39727021
0.39727418
0.39727827
0.39728247
0.39728679
0.39729121
0.39729573
0.39730035
0.39730506
0.39730986
0.39731475
0.39731974
0.39734132
0.39734354
0.39734582
0.39734819
0.39735064
0.39735316
0.39735576
0.3973584
0.39736109
0.39736382
0.39736659
0.3973694
0.39737225
0.39737514
381.57916
412.1474
445.49945
479.70426
513.20361
544.72012
573.23786
598.03925
618.70959
635.08886
647.22194
655.29947
659.59551
660.43331
658.16113
653.13511
645.70704
636.20941
624.95589
399.50528
435.92295
472.77793
508.64876
542.27716
572.66788
599.1401
621.31492
639.063
652.44198
661.64711
666.95596
668.6909
667.20019
662.84245
655.97498
646.94128
636.06125
425.06744
465.65391
504.50742
540.60439
573.04696
601.23406
624.86215
643.86544
658.35233
668.54897
674.74899
677.28118
676.49772
672.75862
666.42159
657.83311
647.3188
635.18017
457.05636
499.57904
538.49932
573.24833
603.35217
628.58374
648.94153
664.58608
675.78332
682.85863
686.16395
686.06228
682.91995
677.09737
668.94294
658.78657
646.93366
492.79794
535.13136
572.52952
604.82687
631.90439
653.81823
670.77759
683.09002
691.11663
695.24015
695.84575
693.31296
688.01115
680.29435
670.49745
658.93179
645.88302
529.70137
570.33189
605.1848
634.40527
658.13653
676.63242
690.24035
699.35817
704.4019
705.78546
703.91012
699.16046
691.90197
682.47816
671.20827
658.38478
565.87473
603.89696
635.65974
661.53557
681.85174
696.99457
707.39902
713.51673
715.79426
714.66103
710.52395
703.76573
694.7437
683.7884
671.20245
657.26022
600.17087
635.14008
663.60377
686.09959
703.08269
715.02774
722.42513
725.75861
725.49137
722.05922
715.86848
707.2958
696.68786
684.36109
670.60147
632.03565
663.80472
688.96493
708.17687
721.98663
730.92951
735.53218
736.29817
733.69938
728.17271
720.12016
709.90982
697.87643
684.3219
669.51575
661.30529
689.89747
711.85981
727.94833
738.77676
744.92414
746.94234
745.34766
740.61611
733.18253
723.44234
711.75355
698.43845
683.78473
688.03784
713.56351
732.48515
745.6357
753.68172
757.23588
756.86893
753.10565
746.42337
737.25318
725.98245
712.95768
698.48887
682.84986
712.39922
735.00779
751.06541
761.46753
766.92383
768.07528
765.50831
759.75239
751.28438
740.53164
727.87192
713.63831
698.12975
681.60669
734.59602
754.45154
767.82546
775.66178
778.70824
777.63315
773.03726
765.449
755.34438
743.14862
729.22712
713.89823
697.4523
754.84245
772.1126
782.97672
788.41679
789.21832
786.07893
779.61261
770.33875
758.73443
745.2209
730.14926
713.82875
696.53564
773.35691
788.20024
796.70589
799.90627
798.61778
793.56604
785.37073
774.54906
761.57374
746.85049
730.72731
713.50597
695.44455
790.37186
802.89484
809.16667
810.27852
807.05901
800.23893
790.43739
778.18817
763.95092
748.12128
731.04026
712.99893
805.98229
816.33744
820.53243
819.68802
814.66733
806.20276
794.91995
781.3531
765.95479
749.11232
731.15664
712.36755
820.35135
828.67331
830.92572
828.25722
821.55608
811.56514
798.91306
784.13036
767.66379
749.89212
731.13604
711.6642
833.62635
840.03204
840.46343
836.09192
827.82615
816.41892
802.49986
786.59518
769.14528
750.52024
731.0309
710.9351
845.92841
850.52615
849.24913
843.28703
833.56534
820.84425
805.75299
788.81306
770.45791
751.04895
730.88815
857.36059
860.2524
857.37281
849.92566
838.84995
824.91079
808.73571
790.84094
771.65259
751.52356
730.74633
868.01116
869.29408
864.91225
856.07986
843.74622
828.67903
811.50291
792.72809
772.77309
751.98227
730.6388
877.95567
877.72272
871.93444
861.81183
848.31145
832.20141
814.10215
794.51726
773.85743
752.45863
730.59534
887.25822
885.5993
878.49672
867.17506
852.59508
835.5233
816.57467
796.24557
774.93878
752.98214
730.64202
895.9723
892.97514
884.64777
872.21528
856.63965
838.68383
818.95612
797.9452
776.04595
753.57839
730.80131
904.14161
899.89266
890.42861
876.97171
860.48193
841.71691
821.27735
799.64392
777.20382
754.26955
731.09275
911.80035
906.38626
895.87378
881.47865
864.15484
844.65273
823.56561
801.366
778.43378
755.07447
731.5333
918.96673
912.48017
901.01105
885.76611
867.68993
847.5243
825.8553
803.14648
779.77037
756.02594
732.15322
925.84109
918.3481
905.99172
889.96457
871.2005
850.42913
828.23123
805.0605
781.28109
757.18461
733.00559
932.76272
924.28879
911.07587
894.29844
874.87424
853.5187
830.81084
807.1959
783.02834
758.59252
734.11748
939.73555
930.30748
916.26431
898.76614
878.71308
856.81767
833.62018
809.57233
785.02109
760.24665
735.47512
710.88457
946.45598
936.17222
921.36265
903.19048
882.54756
860.13926
836.49665
812.05525
787.15685
762.07534
737.03099
712.19772
952.13258
941.27807
925.92585
907.25226
886.15055
863.31669
839.30749
814.54032
789.35331
764.01556
738.74237
713.70475
956.73091
945.47898
929.78468
910.80441
889.4186
866.31671
842.04627
817.03531
791.62293
766.07793
740.61399
715.40109
961.00885
949.3149
933.29957
914.07228
892.47838
869.18918
844.73963
819.5555
793.97578
768.2699
742.65198
717.29179
692.3219
965.17115
953.00674
936.66322
917.20597
895.43932
872.00885
847.43271
822.12725
796.42705
770.60021
744.86096
719.37986
694.29153
969.2356
956.61701
939.95703
920.2865
898.37174
874.8315
850.1652
824.77671
798.99315
773.07897
747.24713
721.66841
696.47886
973.16638
960.14019
943.19867
923.3444
901.3101
877.68963
852.96408
827.52415
801.68818
775.71552
749.81682
724.16242
698.88891
674.10197
976.92503
963.55172
946.37886
926.38281
904.26537
880.59774
855.84405
830.38237
804.52214
778.51703
752.57463
726.86425
701.52305
676.6602
980.48176
966.82623
949.47992
929.39236
907.23515
883.55827
858.81016
833.35721
807.50046
781.48799
755.52416
729.7768
704.3831
679.45424
983.81615
969.9429
952.48362
932.35924
910.21047
886.56645
861.86077
836.44896
810.62433
784.62985
758.66685
732.9018
707.47181
682.48889
658.04103
986.91492
972.88587
955.37386
935.26911
913.17986
889.61386
864.99019
839.65406
813.89166
787.94137
762.00187
736.23854
710.78847
685.76443
661.25797
989.77015
975.64346
958.13715
938.10865
916.13152
892.69076
868.19073
842.96669
817.29816
791.41939
765.52689
739.78531
714.33207
689.28096
664.72522
640.73659
992.37883
978.20709
960.76209
940.86574
919.05427
895.78743
871.4542
846.38012
820.83837
795.05961
769.23853
743.53941
718.10041
693.03657
668.44269
644.39551
994.72845
980.56729
963.23874
943.52957
921.93807
898.89528
874.77328
849.88807
824.50692
798.85746
773.13304
747.49787
722.09117
697.02974
672.41026
648.31221
624.79623
996.80716
982.71538
965.56109
946.09352
924.77642
902.00898