/*--------------------------------*- C++ -*----------------------------------*\
| =========                 |                                                 |
| \\      /  F ield         | OpenFOAM: The Open Source CFD Toolbox           |
|  \\    /   O peration     | Version:  2406                                  |
|   \\  /    A nd           | Website:  www.openfoam.com                      |
|    \\/     M anipulation  |                                                 |
\*---------------------------------------------------------------------------*/
FoamFile
{
    version     2.0;
    format      ascii;
    arch        "LSB;label=32;scalar=64";
    class       volScalarField;
    location    "0.019";
    object      T;
}
// * * * * * * * * * * * * * * * * * * * * * * * * * * * * * * * * * * * * * //

dimensions      [0 0 0 1 0 0 0];

internalField   nonuniform List<scalar> 
23203
(
292.62265
292.63466
292.64663
292.65807
292.66917
292.68006
292.69054
292.70072
292.71059
292.72009
292.72937
292.73834
292.74696
292.75536
292.76346
292.77134
292.77899
292.78639
292.79358
292.80056
292.80738
292.81403
292.82051
292.82682
292.83297
292.83901
292.84491
292.85067
292.85629
292.86179
292.86717
292.87243
292.87757
292.88261
292.88756
292.8924
292.89716
292.90183
292.9064
292.91087
292.91524
292.91954
292.92374
292.92787
292.9319
292.93586
292.93974
292.94354
292.94725
292.95088
292.95443
292.9579
292.9613
292.96463
292.96788
292.97107
292.97417
292.97721
292.98018
292.98307
292.9859
292.98866
292.99135
292.99398
292.99654
292.99902
293.00143
293.00377
293.00604
293.00826
293.01042
293.01252
293.01457
293.01655
293.01847
293.02034
293.02214
293.02388
293.02556
293.02719
293.02876
293.03027
293.03173
293.03313
293.03449
293.03579
293.03704
293.03823
293.03937
293.04046
293.04151
293.0425
293.04344
293.04433
293.04517
293.04595
293.04668
293.04735
293.04798
293.04855
293.04906
293.04953
293.04994
293.0503
293.05059
293.05083
293.05098
293.05108
292.65364
292.66367
292.67377
292.68338
292.69288
292.7023
292.71136
292.72024
292.72889
292.73728
292.74557
292.75358
292.7613
292.76888
292.7762
292.78338
292.79035
292.79711
292.80372
292.81014
292.81646
292.82263
292.82865
292.83453
292.84028
292.84595
292.8515
292.85691
292.86222
292.86741
292.8725
292.87749
292.88238
292.88718
292.89189
292.89652
292.90107
292.90554
292.90992
292.91422
292.91843
292.92256
292.92661
292.93059
292.93449
292.93832
292.94208
292.94576
292.94936
292.95288
292.95633
292.95971
292.96302
292.96626
292.96943
292.97254
292.97557
292.97854
292.98144
292.98427
292.98704
292.98974
292.99238
292.99495
292.99746
292.9999
293.00227
293.00456
293.00679
293.00897
293.0111
293.01317
293.01518
293.01714
293.01903
293.02087
293.02264
293.02436
293.02602
293.02763
293.02918
293.03067
293.03211
293.0335
293.03484
293.03612
293.03736
293.03854
293.03967
293.04075
293.04178
293.04276
293.04369
293.04457
293.0454
293.04618
293.0469
293.04757
293.04819
293.04875
293.04926
293.04972
293.05013
293.05049
293.05078
293.05101
293.05117
293.05126
292.68367
292.69173
292.70002
292.70785
292.71576
292.72377
292.73149
292.73912
292.74658
292.75389
292.76121
292.76829
292.77515
292.78193
292.7885
292.79498
292.80131
292.80746
292.81349
292.81938
292.8252
292.83091
292.8365
292.84196
292.84733
292.85263
292.85784
292.86293
292.86792
292.87282
292.87763
292.88236
292.88701
292.89157
292.89607
292.90049
292.90484
292.90912
292.91332
292.91744
292.92149
292.92547
292.92938
292.93322
292.93699
292.9407
292.94433
292.9479
292.95139
292.95481
292.95817
292.96146
292.96468
292.96784
292.97093
292.97396
292.97693
292.97983
292.98266
292.98544
292.98814
292.99079
292.99338
292.99591
292.99837
293.00076
293.00308
293.00534
293.00753
293.00968
293.01177
293.01381
293.01579
293.01772
293.01958
293.02139
293.02315
293.02484
293.02648
293.02806
293.02959
293.03107
293.03249
293.03387
293.03519
293.03646
293.03768
293.03885
293.03996
293.04103
293.04205
293.04303
293.04395
293.04482
293.04564
293.04641
293.04712
293.04779
293.0484
293.04896
293.04946
293.04992
293.05033
293.05068
293.05097
293.0512
293.05135
293.05145
292.71425
292.72049
292.727
292.73308
292.73947
292.74606
292.75242
292.7588
292.76505
292.77128
292.77762
292.78374
292.78971
292.79567
292.80146
292.80723
292.81288
292.81839
292.82384
292.82917
292.83447
292.83969
292.84482
292.84985
292.85481
292.85973
292.86457
292.86931
292.87397
292.87857
292.88309
292.88754
292.89193
292.89625
292.90051
292.9047
292.90885
292.91292
292.91694
292.92088
292.92475
292.92857
292.93232
292.93602
292.93965
292.94322
292.94673
292.95018
292.95356
292.95687
292.96012
292.96331
292.96644
292.96951
292.97252
292.97548
292.97836
292.98119
292.98396
292.98667
292.98932
292.99191
292.99444
292.99691
292.99932
293.00166
293.00394
293.00615
293.00831
293.01042
293.01247
293.01448
293.01643
293.01832
293.02016
293.02194
293.02367
293.02534
293.02696
293.02852
293.03003
293.03149
293.03289
293.03425
293.03555
293.03681
293.03801
293.03917
293.04027
293.04133
293.04234
293.0433
293.04421
293.04508
293.04589
293.04665
293.04736
293.04801
293.04862
293.04917
293.04967
293.05012
293.05052
293.05087
293.05116
293.05139
293.05154
293.05164
292.74457
292.74908
292.75377
292.75812
292.76307
292.76826
292.77328
292.77842
292.78348
292.78865
292.79404
292.7992
292.80428
292.80943
292.81444
292.81951
292.82448
292.82936
292.83422
292.83899
292.84378
292.84852
292.85319
292.85778
292.86233
292.86687
292.87135
292.87574
292.88008
292.88436
292.88859
292.89277
292.89689
292.90096
292.90499
292.90896
292.91289
292.91677
292.92059
292.92435
292.92805
292.9317
292.9353
292.93885
292.94234
292.94578
292.94916
292.95249
292.95575
292.95896
292.9621
292.9652
292.96823
292.97121
292.97414
292.97701
292.97983
292.98258
292.98528
292.98792
292.99051
292.99304
292.99552
292.99794
293.00029
293.00259
293.00482
293.00699
293.0091
293.01117
293.01319
293.01517
293.01708
293.01895
293.02075
293.02251
293.02421
293.02585
293.02745
293.02899
293.03048
293.03191
293.0333
293.03464
293.03592
293.03716
293.03835
293.03949
293.04059
293.04163
293.04263
293.04358
293.04448
293.04534
293.04614
293.04689
293.04759
293.04824
293.04884
293.04939
293.04988
293.05033
293.05073
293.05107
293.05136
293.05159
293.05174
293.05183
292.7747
292.77756
292.78033
292.78314
292.78682
292.79054
292.79424
292.79821
292.80211
292.80625
292.8107
292.81488
292.81909
292.82342
292.82765
292.83201
292.83632
292.84056
292.84483
292.84902
292.85329
292.85755
292.86176
292.8659
292.87003
292.87419
292.8783
292.88234
292.88634
292.8903
292.89423
292.89813
292.90199
292.90581
292.90959
292.91334
292.91705
292.92072
292.92434
292.92791
292.93144
292.93492
292.93836
292.94176
292.9451
292.9484
292.95166
292.95486
292.95801
292.9611
292.96414
292.96713
292.97007
292.97296
292.97581
292.9786
292.98133
292.98401
292.98664
292.98921
292.99174
292.99421
292.99663
292.99899
293.00129
293.00354
293.00572
293.00784
293.00992
293.01195
293.01393
293.01587
293.01775
293.01958
293.02136
293.02308
293.02476
293.02638
293.02795
293.02947
293.03093
293.03235
293.03372
293.03503
293.03631
293.03753
293.0387
293.03983
293.04091
293.04194
293.04293
293.04387
293.04476
293.0456
293.0464
293.04714
293.04783
293.04848
293.04907
293.04961
293.0501
293.05054
293.05094
293.05128
293.05156
293.05179
293.05194
293.05203
292.8046
292.80548
292.80636
292.80814
292.81056
292.81259
292.81509
292.81799
292.82076
292.82389
292.8274
292.83061
292.83396
292.83749
292.84094
292.84461
292.84825
292.85185
292.85553
292.85916
292.8629
292.86668
292.87042
292.87412
292.87783
292.88161
292.88534
292.88902
292.89268
292.89633
292.89996
292.90357
292.90716
292.91072
292.91427
292.91778
292.92127
292.92473
292.92816
292.93154
292.93488
292.9382
292.94147
292.94472
292.94792
292.95108
292.9542
292.95728
292.96031
292.96328
292.96621
292.96911
292.97195
292.97475
292.9775
292.98021
292.98286
292.98547
292.98803
292.99053
292.99299
292.9954
292.99776
293.00006
293.00231
293.0045
293.00664
293.00872
293.01075
293.01274
293.01469
293.01659
293.01844
293.02023
293.02198
293.02368
293.02532
293.02691
293.02846
293.02995
293.0314
293.03279
293.03414
293.03544
293.03669
293.0379
293.03906
293.04017
293.04124
293.04226
293.04323
293.04416
293.04504
293.04587
293.04666
293.04739
293.04808
293.04872
293.0493
293.04984
293.05032
293.05076
293.05115
293.05149
293.05177
293.05199
293.05214
293.05224
292.83362
292.83243
292.83222
292.83319
292.8339
292.83432
292.8359
292.83772
292.8394
292.84161
292.84414
292.84638
292.84893
292.85166
292.85434
292.85733
292.8603
292.86327
292.86637
292.86943
292.87265
292.87595
292.87922
292.88246
292.88575
292.88914
292.8925
292.89581
292.89914
292.90247
292.90579
292.90911
292.91243
292.91573
292.91903
292.92231
292.92558
292.92882
292.93205
292.93524
292.9384
292.94154
292.94465
292.94774
292.95079
292.95381
292.9568
292.95975
292.96265
292.96552
292.96834
292.97112
292.97387
292.97657
292.97924
292.98186
292.98443
292.98696
292.98944
292.99188
292.99427
292.99661
292.99891
293.00116
293.00336
293.00549
293.00758
293.00961
293.0116
293.01355
293.01546
293.01732
293.01914
293.0209
293.02261
293.02428
293.0259
293.02746
293.02898
293.03045
293.03188
293.03325
293.03458
293.03586
293.03709
293.03828
293.03943
293.04052
293.04157
293.04258
293.04354
293.04446
293.04533
293.04615
293.04693
293.04765
293.04833
293.04896
293.04954
293.05007
293.05055
293.05098
293.05137
293.0517
293.05198
293.0522
293.05235
293.05244
292.86172
292.85972
292.85838
292.85736
292.85631
292.85622
292.85673
292.85717
292.85794
292.85935
292.8608
292.86212
292.86393
292.86588
292.86782
292.87014
292.87242
292.87477
292.87729
292.8798
292.8825
292.88531
292.88812
292.8909
292.89378
292.89678
292.89975
292.9027
292.90569
292.90869
292.91171
292.91474
292.91778
292.92083
292.92388
292.92692
292.92996
292.93299
292.93601
292.93901
292.94198
292.94495
292.94789
292.95082
292.95372
292.9566
292.95945
292.96227
292.96505
292.96779
292.9705
292.97318
292.97583
292.97844
292.98101
292.98354
292.98604
292.98849
292.99089
292.99326
292.99558
292.99786
293.0001
293.00228
293.00442
293.00651
293.00854
293.01052
293.01247
293.01438
293.01625
293.01807
293.01985
293.02158
293.02326
293.0249
293.02648
293.02803
293.02952
293.03097
293.03236
293.03372
293.03502
293.03628
293.0375
293.03867
293.0398
293.04088
293.04192
293.04291
293.04386
293.04476
293.04562
293.04644
293.0472
293.04792
293.04859
293.04921
293.04978
293.05031
293.05078
293.05121
293.05159
293.05192
293.05219
293.05241
293.05256
293.05265
292.88954
292.88607
292.8832
292.88092
292.87921
292.87812
292.87708
292.87629
292.87654
292.87699
292.87732
292.8778
292.87897
292.88008
292.8814
292.88303
292.88459
292.88634
292.88829
292.89027
292.89244
292.89475
292.89711
292.89944
292.90189
292.90451
292.9071
292.90968
292.91233
292.91501
292.91771
292.92046
292.92322
292.926
292.9288
292.93161
292.93442
292.93723
292.94005
292.94285
292.94563
292.94842
292.9512
292.95396
292.95671
292.95944
292.96215
292.96484
292.96749
292.97012
292.97271
292.97529
292.97783
292.98034
292.98282
292.98527
292.98767
292.99004
292.99237
292.99466
292.99692
292.99913
293.0013
293.00343
293.00551
293.00754
293.00952
293.01146
293.01336
293.01523
293.01706
293.01884
293.02058
293.02228
293.02393
293.02553
293.02709
293.0286
293.03007
293.03149
293.03286
293.03419
293.03548
293.03672
293.03792
293.03907
293.04018
293.04125
293.04227
293.04325
293.04418
293.04508
293.04592
293.04673
293.04748
293.04819
293.04885
293.04947
293.05003
293.05055
293.05102
293.05144
293.05181
293.05214
293.05241
293.05263
293.05278
293.05287
292.91631
292.91173
292.90778
292.90436
292.90146
292.89905
292.89717
292.89584
292.89492
292.89434
292.8937
292.89361
292.89392
292.89418
292.89502
292.89594
292.89677
292.89797
292.89935
292.90082
292.90247
292.90427
292.90618
292.90806
292.9101
292.91233
292.91454
292.91675
292.91905
292.92141
292.92381
292.92626
292.92874
292.93126
292.9338
292.93637
292.93895
292.94154
292.94415
292.94675
292.94934
292.95195
292.95456
292.95716
292.95975
292.96233
292.96491
292.96746
292.96999
292.97249
292.97497
292.97743
292.97987
292.98228
292.98467
292.98702
292.98934
292.99163
292.99388
292.9961
292.99828
293.00043
293.00254
293.0046
293.00662
293.0086
293.01053
293.01242
293.01427
293.0161
293.01788
293.01963
293.02133
293.02299
293.02461
293.02618
293.0277
293.02919
293.03063
293.03202
293.03337
293.03468
293.03594
293.03716
293.03834
293.03948
293.04057
293.04162
293.04263
293.04359
293.04452
293.0454
293.04623
293.04702
293.04777
293.04847
293.04912
293.04973
293.05029
293.0508
293.05126
293.05168
293.05204
293.05237
293.05264
293.05285
293.053
293.05309
292.94231
292.9366
292.93152
292.92707
292.92323
292.91996
292.91714
292.91475
292.91289
292.91144
292.91025
292.9094
292.90863
292.9084
292.90861
292.90874
292.90896
292.90967
292.91042
292.9114
292.91256
292.91383
292.91531
292.91676
292.91838
292.92022
292.92205
292.92389
292.92586
292.92789
292.92998
292.93213
292.93434
292.93659
292.93888
292.9412
292.94355
292.94591
292.94832
292.95072
292.95312
292.95555
292.95798
292.96042
292.96285
292.96528
292.96772
292.97013
292.97253
292.9749
292.97726
292.97962
292.98195
292.98426
292.98656
292.98882
292.99105
292.99325
292.99543
292.99757
292.99967
293.00175
293.0038
293.0058
293.00776
293.00968
293.01155
293.01339
293.0152
293.01698
293.01873
293.02043
293.0221
293.02372
293.0253
293.02684
293.02833
293.02979
293.0312
293.03257
293.0339
293.03518
293.03642
293.03762
293.03878
293.0399
293.04097
293.04201
293.043
293.04395
293.04486
293.04572
293.04655
293.04733
293.04806
293.04875
293.0494
293.05
293.05055
293.05105
293.0515
293.05192
293.05228
293.0526
293.05286
293.05308
293.05322
293.05331
292.9673
292.96063
292.95464
292.94927
292.94448
292.94025
292.93658
292.93345
292.93075
292.92843
292.92643
292.92479
292.92355
292.92267
292.92203
292.92145
292.92129
292.92138
292.92147
292.92197
292.92268
292.92347
292.92448
292.92553
292.92675
292.92818
292.92963
292.9311
292.93273
292.93445
292.93622
292.93808
292.94
292.94199
292.94403
292.9461
292.94822
292.95036
292.95255
292.95475
292.95695
292.9592
292.96146
292.96373
292.96601
292.96828
292.97057
292.97285
292.97511
292.97736
292.97961
292.98185
292.98408
292.98628
292.98848
292.99065
292.99279
292.99491
292.997
292.99906
293.0011
293.0031
293.00508
293.00702
293.00892
293.01078
293.0126
293.01439
293.01615
293.01789
293.01959
293.02125
293.02288
293.02446
293.02601
293.02751
293.02898
293.0304
293.03179
293.03313
293.03443
293.03569
293.03691
293.03808
293.03922
293.04032
293.04138
293.0424
293.04337
293.04431
293.0452
293.04606
293.04687
293.04764
293.04836
293.04904
293.04968
293.05027
293.05081
293.05131
293.05176
293.05216
293.05252
293.05284
293.0531
293.05331
293.05345
293.05354
292.99131
292.9838
292.97694
292.97073
292.96513
292.96012
292.95566
292.95169
292.9482
292.94516
292.94252
292.94022
292.93823
292.93661
292.93534
292.93432
292.93359
292.93297
292.93255
292.93256
292.93278
292.93319
292.93369
292.93433
292.93517
292.93619
292.93728
292.93837
292.93966
292.94108
292.94254
292.94409
292.94574
292.94746
292.94924
292.95107
292.95295
292.95487
292.95685
292.95884
292.96085
292.96291
292.965
292.9671
292.96921
292.97134
292.97348
292.97562
292.97775
292.97987
292.98199
292.98412
292.98624
292.98835
292.99044
292.99251
292.99456
292.9966
292.99861
293.00059
293.00255
293.00449
293.00639
293.00827
293.0101
293.0119
293.01367
293.01541
293.01712
293.01881
293.02047
293.02209
293.02368
293.02522
293.02673
293.0282
293.02964
293.03103
293.03238
293.0337
293.03497
293.03621
293.0374
293.03856
293.03968
293.04076
293.0418
293.0428
293.04376
293.04468
293.04556
293.0464
293.04719
293.04795
293.04867
293.04934
293.04997
293.05055
293.05108
293.05157
293.05201
293.05241
293.05277
293.05308
293.05334
293.05355
293.05369
293.05378
293.01428
293.00603
292.99844
292.9915
292.98517
292.97942
292.97423
292.96957
292.96539
292.96164
292.95828
292.95532
292.95275
292.95054
292.94863
292.947
292.94565
292.94458
292.94382
292.94317
292.94289
292.94294
292.94292
292.94313
292.94362
292.94423
292.94496
292.94569
292.94666
292.94777
292.94892
292.95017
292.95154
292.95299
292.95452
292.95611
292.95775
292.95944
292.96121
292.963
292.9648
292.96668
292.96859
292.97052
292.97247
292.97444
292.97644
292.97844
292.98043
292.98242
292.98442
292.98644
292.98845
292.99045
292.99244
292.99442
292.99637
292.99832
293.00024
293.00215
293.00403
293.00589
293.00773
293.00954
293.01131
293.01305
293.01476
293.01645
293.01812
293.01976
293.02137
293.02295
293.02449
293.026
293.02747
293.02891
293.03031
293.03167
293.033
293.03428
293.03553
293.03674
293.03791
293.03905
293.04014
293.0412
293.04222
293.04321
293.04415
293.04505
293.04592
293.04674
293.04753
293.04828
293.04898
293.04964
293.05026
293.05083
293.05136
293.05184
293.05228
293.05267
293.05302
293.05333
293.05358
293.05379
293.05393
293.05402
293.03618
293.02732
293.0191
293.01151
293.00454
292.99815
292.99231
292.98699
292.98215
292.97777
292.97381
292.97025
292.96706
292.96423
292.96175
292.95961
292.95775
292.95615
292.95481
292.95381
292.95309
292.95261
292.9522
292.95198
292.95205
292.95231
292.95267
292.95306
292.95371
292.95452
292.95535
292.9563
292.95739
292.95858
292.95985
292.9612
292.96261
292.96407
292.96563
292.9672
292.96881
292.97051
292.97224
292.974
292.97578
292.9776
292.97945
292.9813
292.98315
292.98502
292.9869
292.9888
292.99069
292.99258
292.99448
292.99635
292.99822
293.00008
293.00191
293.00374
293.00554
293.00733
293.0091
293.01084
293.01254
293.01422
293.01588
293.01751
293.01913
293.02072
293.02229
293.02383
293.02533
293.0268
293.02823
293.02963
293.031
293.03233
293.03362
293.03488
293.0361
293.03728
293.03843
293.03954
293.04062
293.04166
293.04266
293.04362
293.04455
293.04544
293.04629
293.0471
293.04787
293.04861
293.0493
293.04995
293.05056
293.05112
293.05164
293.05212
293.05255
293.05293
293.05328
293.05358
293.05383
293.05404
293.05417
293.05426
293.05702
293.04764
293.03889
293.03077
293.02323
293.01627
293.00985
293.00395
292.99853
292.99356
292.98901
292.98487
292.98113
292.97777
292.97475
292.97206
292.96968
292.96762
292.96587
292.96438
292.96317
292.96224
292.96151
292.96088
292.96051
292.96045
292.9604
292.96045
292.96081
292.96129
292.96182
292.96248
292.9633
292.96423
292.96524
292.96635
292.96752
292.96875
292.9701
292.97147
292.97288
292.97439
292.97594
292.97753
292.97915
292.9808
292.9825
292.98421
292.98593
292.98766
292.98941
292.9912
292.99298
292.99476
292.99655
292.99833
293.0001
293.00186
293.00362
293.00536
293.00708
293.0088
293.01049
293.01216
293.0138
293.01542
293.01702
293.0186
293.02016
293.02171
293.02323
293.02472
293.02618
293.02761
293.02901
293.03037
293.0317
293.033
293.03426
293.03549
293.03668
293.03784
293.03896
293.04005
293.0411
293.04212
293.04311
293.04405
293.04496
293.04583
293.04667
293.04746
293.04822
293.04894
293.04962
293.05027
293.05086
293.05142
293.05193
293.0524
293.05282
293.0532
293.05354
293.05384
293.05409
293.05429
293.05443
293.05451
293.07678
293.06699
293.05781
293.04923
293.04122
293.03376
293.02683
293.0204
293.01444
293.00894
293.00387
292.99921
292.99494
292.99105
292.98753
292.98436
292.98152
292.97899
292.97678
292.97487
292.97326
292.97189
292.97071
292.96976
292.96907
292.96858
292.96815
292.9679
292.96793
292.96808
292.96832
292.9687
292.96926
292.96992
292.97068
292.97154
292.97248
292.97349
292.97462
292.97578
292.977
292.97832
292.97969
292.98111
292.98256
292.98405
292.9856
292.98717
292.98874
292.99035
292.99197
292.99364
292.99531
292.99698
292.99866
293.00034
293.00201
293.00369
293.00535
293.00701
293.00865
293.01029
293.01191
293.01351
293.01509
293.01664
293.01818
293.01971
293.02122
293.02272
293.02419
293.02563
293.02705
293.02844
293.0298
293.03112
293.03242
293.03368
293.03492
293.03611
293.03728
293.03841
293.0395
293.04057
293.0416
293.0426
293.04356
293.04449
293.04538
293.04623
293.04705
293.04784
293.04858
293.04929
293.04996
293.05059
293.05118
293.05172
293.05223
293.05268
293.0531
293.05348
293.05381
293.0541
293.05435
293.05455
293.05468
293.05477
293.09548
293.08538
293.07585
293.06689
293.05848
293.05059
293.04321
293.03631
293.02988
293.0239
293.01834
293.0132
293.00845
293.00409
293.00011
292.99648
292.99319
292.99024
292.98762
292.98529
292.98325
292.98148
292.97996
292.97864
292.97753
292.97666
292.97597
292.97538
292.97504
292.97492
292.97484
292.97496
292.97526
292.97566
292.97617
292.97679
292.97749
292.97828
292.97919
292.98014
292.98117
292.9823
292.98348
292.98473
292.98602
292.98735
292.98875
292.99017
292.9916
292.99307
292.99458
292.99612
292.99767
292.99923
293.00081
293.00238
293.00396
293.00554
293.00711
293.00869
293.01025
293.01181
293.01336
293.01488
293.01639
293.01789
293.01937
293.02084
293.0223
293.02374
293.02517
293.02657
293.02794
293.02929
293.0306
293.03189
293.03315
293.03438
293.03558
293.03675
293.03788
293.03899
293.04006
293.0411
293.04211
293.04308
293.04403
293.04493
293.04581
293.04665
293.04745
293.04822
293.04895
293.04964
293.0503
293.05092
293.0515
293.05203
293.05253
293.05298
293.05339
293.05376
293.05408
293.05437
293.05461
293.05481
293.05494
293.05503
293.11315
293.10281
293.09301
293.08374
293.07498
293.06673
293.05896
293.05166
293.04481
293.0384
293.03241
293.02683
293.02165
293.01685
293.01244
293.0084
293.0047
293.00135
292.99832
292.9956
292.99318
292.99102
292.98911
292.98744
292.98601
292.98477
292.98371
292.98284
292.98223
292.98178
292.98142
292.98124
292.98126
292.98142
292.98169
292.98207
292.98254
292.98311
292.98381
292.98455
292.98538
292.98632
292.98733
292.98841
292.98952
292.9907
292.99194
292.99321
292.99451
292.99584
292.99722
292.99864
293.00008
293.00153
293.00299
293.00446
293.00594
293.00743
293.00891
293.0104
293.01188
293.01336
293.01483
293.01628
293.01773
293.01916
293.02058
293.02199
293.0234
293.02479
293.02617
293.02752
293.02885
293.03015
293.03143
293.03268
293.0339
293.0351
293.03626
293.0374
293.03851
293.03958
293.04062
293.04164
293.04263
293.04358
293.0445
293.04539
293.04624
293.04707
293.04785
293.04861
293.04932
293.05
293.05065
293.05125
293.05182
293.05235
293.05283
293.05328
293.05368
293.05404
293.05436
293.05465
293.05489
293.05508
293.05521
293.0553
293.12978
293.11928
293.10927
293.09976
293.09073
293.08217
293.07407
293.06641
293.0592
293.05241
293.04603
293.04007
293.0345
293.02932
293.02452
293.02009
293.01602
293.01229
293.00889
293.0058
293.003
293.00048
292.99822
292.99621
292.99441
292.99284
292.99148
292.99032
292.98936
292.98861
292.98804
292.98758
292.9873
292.98721
292.98723
292.98739
292.98763
292.98798
292.98846
292.989
292.98964
292.99039
292.99122
292.99212
292.99307
292.99408
292.99518
292.9963
292.99745
292.99865
292.9999
293.0012
293.00252
293.00385
293.00521
293.00657
293.00795
293.00935
293.01074
293.01214
293.01354
293.01494
293.01633
293.01771
293.01909
293.02045
293.02181
293.02317
293.02452
293.02586
293.02719
293.02849
293.02978
293.03104
293.03227
293.03348
293.03467
293.03583
293.03696
293.03807
293.03914
293.04019
293.0412
293.04219
293.04316
293.04409
293.04499
293.04586
293.04669
293.04749
293.04827
293.049
293.04971
293.05037
293.051
293.0516
293.05216
293.05267
293.05315
293.05358
293.05398
293.05433
293.05465
293.05493
293.05516
293.05535
293.05548
293.05557
293.14539
293.13478
293.12463
293.11493
293.10569
293.09688
293.08851
293.08056
293.07303
293.06592
293.05921
293.05291
293.04699
293.04147
293.03633
293.03155
293.02713
293.02305
293.0193
293.01586
293.01271
293.00985
293.00724
293.00489
293.00278
293.00089
292.99921
292.99775
292.99652
292.99548
292.9946
292.99391
292.99343
292.99304
292.99281
292.99273
292.99274
292.99289
292.99313
292.99348
292.99395
292.99451
292.99514
292.99588
292.99666
292.99751
292.99845
292.99942
293.00044
293.0015
293.00262
293.0038
293.005
293.00622
293.00746
293.00872
293.01
293.0113
293.0126
293.01391
293.01523
293.01655
293.01786
293.01917
293.02047
293.02177
293.02307
293.02437
293.02567
293.02695
293.02823
293.02948
293.03072
293.03194
293.03313
293.0343
293.03545
293.03658
293.03767
293.03874
293.03979
293.0408
293.04179
293.04276
293.0437
293.04461
293.04548
293.04633
293.04715
293.04793
293.04869
293.04941
293.0501
293.05075
293.05137
293.05195
293.0525
293.053
293.05347
293.0539
293.05428
293.05463
293.05494
293.05522
293.05545
293.05563
293.05576
293.05584
293.15998
293.14932
293.13908
293.12926
293.11985
293.11085
293.10226
293.09408
293.08629
293.07891
293.07192
293.06533
293.05912
293.05329
293.04784
293.04275
293.03801
293.03361
293.02954
293.02576
293.02229
293.01909
293.01616
293.01349
293.01106
293.00887
293.00691
293.00517
293.00364
293.00233
293.00122
293.00027
292.99949
292.99889
292.99845
292.99809
292.9979
292.99783
292.99783
292.99799
292.99829
292.99866
292.99911
292.99968
293.00029
293.00098
293.00176
293.00259
293.00346
293.00439
293.00538
293.00643
293.00751
293.00862
293.00975
293.0109
293.01208
293.01328
293.01449
293.01571
293.01695
293.01818
293.01942
293.02065
293.02188
293.02312
293.02435
293.0256
293.02683
293.02807
293.02929
293.0305
293.03169
293.03286
293.03401
293.03514
293.03625
293.03734
293.0384
293.03944
293.04045
293.04144
293.0424
293.04334
293.04425
293.04513
293.04599
293.04682
293.04761
293.04838
293.04912
293.04982
293.0505
293.05113
293.05174
293.05231
293.05284
293.05334
293.0538
293.05422
293.0546
293.05494
293.05524
293.05551
293.05574
293.05592
293.05605
293.05613
293.17356
293.1629
293.15263
293.14273
293.13322
293.12408
293.11533
293.10697
293.09898
293.09138
293.08416
293.07732
293.07086
293.06478
293.05905
293.05368
293.04865
293.04395
293.03957
293.03549
293.03171
293.0282
293.02497
293.02199
293.01927
293.0168
293.01455
293.01253
293.01075
293.00917
293.00779
293.0066
293.0056
293.00474
293.00404
293.00349
293.00309
293.00278
293.00256
293.00254
293.00266
293.00283
293.00312
293.00351
293.00396
293.00448
293.00511
293.00579
293.00653
293.00732
293.00818
293.0091
293.01006
293.01105
293.01207
293.01311
293.01419
293.0153
293.01641
293.01755
293.01869
293.01984
293.021
293.02215
293.02332
293.02449
293.02566
293.02685
293.02803
293.0292
293.03037
293.03153
293.03267
293.0338
293.0349
293.03599
293.03707
293.03812
293.03914
293.04014
293.04112
293.04208
293.04302
293.04393
293.04481
293.04567
293.04651
293.04731
293.04809
293.04884
293.04956
293.05025
293.0509
293.05153
293.05212
293.05268
293.0532
293.05369
293.05413
293.05454
293.05491
293.05525
293.05555
293.05581
293.05603
293.05621
293.05634
293.05642
293.18615
293.17554
293.16528
293.15536
293.1458
293.13658
293.12772
293.11923
293.11109
293.10332
293.09592
293.08889
293.08222
293.0759
293.06994
293.06432
293.05902
293.05405
293.04939
293.04503
293.04095
293.03716
293.03364
293.03039
293.02739
293.02464
293.02214
293.01986
293.01781
293.01599
293.01437
293.01294
293.01168
293.01059
293.00967
293.00889
293.00826
293.00776
293.00736
293.00713
293.00704
293.00704
293.00716
293.00736
293.00765
293.00803
293.0085
293.00903
293.00962
293.01028
293.01101
293.01181
293.01264
293.01352
293.01442
293.01536
293.01633
293.01734
293.01837
293.01941
293.02047
293.02153
293.02261
293.02369
293.02478
293.02588
293.027
293.02812
293.02924
293.03036
293.03147
293.03258
293.03367
293.03475
293.03582
293.03687
293.0379
293.03891
293.0399
293.04087
293.04181
293.04274
293.04365
293.04453
293.04539
293.04623
293.04704
293.04782
293.04858
293.04931
293.05001
293.05068
293.05132
293.05193
293.05251
293.05305
293.05356
293.05404
293.05448
293.05488
293.05524
293.05557
293.05586
293.05612
293.05634
293.05651
293.05663
293.05671
293.19778
293.18728
293.17707
293.16718
293.15761
293.14836
293.13945
293.13087
293.12264
293.11475
293.10721
293.10002
293.09317
293.08666
293.08049
293.07464
293.06911
293.06389
293.05897
293.05435
293.05001
293.04595
293.04217
293.03866
293.03541
293.03241
293.02965
293.02713
293.02484
293.02278
293.02091
293.01924
293.01776
293.01644
293.01529
293.0143
293.01346
293.01274
293.01217
293.01176
293.01145
293.01128
293.01122
293.01123
293.01137
293.01161
293.01192
293.0123
293.01276
293.01328
293.01388
293.01454
293.01526
293.01601
293.0168
293.01764
293.01851
293.01942
293.02035
293.0213
293.02227
293.02325
293.02425
293.02525
293.02627
293.02731
293.02835
293.02941
293.03047
293.03154
293.0326
293.03365
293.0347
293.03573
293.03675
293.03776
293.03875
293.03972
293.04067
293.0416
293.04252
293.04341
293.04429
293.04514
293.04598
293.04679
293.04758
293.04834
293.04907
293.04978
293.05047
293.05112
293.05175
293.05234
293.0529
293.05344
293.05393
293.0544
293.05482
293.05522
293.05557
293.05589
293.05618
293.05643
293.05665
293.05682
293.05694
293.05702
293.20851
293.19814
293.18803
293.17821
293.16868
293.15944
293.15052
293.14191
293.13362
293.12565
293.11801
293.1107
293.10371
293.09704
293.09069
293.08464
293.0789
293.07345
293.0683
293.06344
293.05887
293.05457
293.05055
293.0468
293.04331
293.04008
293.03709
293.03434
293.03182
293.02952
293.02742
293.02552
293.02381
293.02227
293.02091
293.0197
293.01865
293.01775
293.01699
293.01637
293.0159
293.01556
293.01531
293.01514
293.01512
293.01521
293.01536
293.01559
293.01592
293.01631
293.01678
293.01731
293.01791
293.01854
293.01922
293.01994
293.02071
293.02152
293.02236
293.02322
293.0241
293.025
293.02591
293.02684
293.02779
293.02875
293.02974
293.03073
293.03173
293.03274
293.03374
293.03474
293.03574
293.03672
293.0377
293.03866
293.03961
293.04054
293.04146
293.04236
293.04324
293.0441
293.04495
293.04577
293.04658
293.04737
293.04813
293.04887
293.04958
293.05027
293.05093
293.05157
293.05218
293.05276
293.05331
293.05383
293.05431
293.05476
293.05518
293.05556
293.05591
293.05622
293.0565
293.05675
293.05696
293.05713
293.05725
293.05732
293.21838
293.20817
293.19819
293.18848
293.17903
293.16985
293.16095
293.15235
293.14404
293.13603
293.12833
293.12093
293.11382
293.10702
293.10051
293.09429
293.08837
293.08273
293.07737
293.0723
293.06751
293.06301
293.05877
293.0548
293.0511
293.04764
293.04444