/*--------------------------------*- C++ -*----------------------------------*\
| =========                 |                                                 |
| \\      /  F ield         | OpenFOAM: The Open Source CFD Toolbox           |
|  \\    /   O peration     | Version:  2406                                  |
|   \\  /    A nd           | Website:  www.openfoam.com                      |
|    \\/     M anipulation  |                                                 |
\*---------------------------------------------------------------------------*/
FoamFile
{
    version     2.0;
    format      ascii;
    arch        "LSB;label=32;scalar=64";
    class       volScalarField;
    location    "0.03";
    object      omega;
}
// * * * * * * * * * * * * * * * * * * * * * * * * * * * * * * * * * * * * * //

dimensions      [0 0 -1 0 0 0 0];

internalField   nonuniform List<scalar> 
9028
(
21588.415
18408.653
15384.627
12674.467
10316.607
8303.4656
6611.299
5209.3597
4063.6177
3139.3675
2403.2034
1823.9379
1373.2479
1026.3992
762.1276
562.65757
413.41454
302.62105
220.88211
160.80432
116.69499
84.282453
60.452656
42.993441
30.33651
21.334303
15.099704
10.914156
8.1610662
6.4547427
5.5815911
17988.053
15471.803
13135.73
11006.962
9104.5817
7436.2443
5999.3235
4782.9111
3769.9394
2939.4032
2268.5115
1734.1137
1313.9092
987.53056
736.87043
546.36363
402.96833
295.95728
216.64688
158.12272
115.00735
83.232789
59.813811
42.617562
30.125056
21.220998
15.040988
10.882799
8.1444984
6.4458171
5.5761796
14791.202
12901.511
11116.339
9457.4303
7941.2776
6580.104
5380.5584
4343.0363
3461.9498
2726.7913
2123.6572
1636.6226
1249.0577
944.84914
709.0661
528.42301
391.48815
288.65933
212.02901
155.21256
113.18502
82.106693
59.135569
42.225765
29.911793
21.113311
14.990904
10.860547
8.1364387
6.4447398
5.5784688
11985.64
10616.343
9284.8087
8018.0391
6833.078
5744.3675
4762.8596
3895.1302
3142.9169
2503.303
1969.4809
1531.7534
1178.6661
898.16466
678.44705
508.54774
378.70211
280.49275
206.84047
151.93152
111.12437
80.829753
58.36398
41.778127
29.666665
20.988466
14.932126
10.834097
8.1264931
6.4429334
5.580552
9573.4853
8607.7678
7639.875
6696.2545
5792.0093
4941.2477
4156.1725
3446.1987
2817.2514
2271.4501
1807.2692
1420.0726
1102.9108
847.46887
644.933
486.63901
364.51947
271.38384
201.02555
148.23945
108.7975
79.383102
57.486613
41.266692
29.384747
20.843555
14.863007
10.802564
8.114191
6.4401388
5.5822592
7541.2508
6874.5865
6188.7294
5503.9078
4831.6435
4183.6946
3571.2868
3004.2804
2490.3865
2034.5938
1638.9257
1302.5541
1022.2206
792.89708
608.52223
462.63837
348.86792
261.26619
194.53039
144.09579
106.17528
77.746554
56.489873
40.682564
29.060421
20.675171
14.781583
10.764873
8.0989409
6.4360172
5.5833585
5861.2277
5410.1337
4935.757
4451.3738
3964.7071
3484.3331
3019.2155
2578.0567
2168.5822
1796.892
1466.9997
1180.6354
937.33101
734.7719
569.3183
436.54536
331.70347
250.08566
187.30532
139.46036
103.22752
75.898491
55.358819
40.015744
28.687232
20.47932
14.685498
10.719702
8.0799995
6.4301288
5.5835377
4497.9161
4198.5424
3877.916
3543.7
3200.4981
2853.8892
2510.2245
2176.2492
1858.5802
1563.1405
1294.6459
1056.2382
849.32221
673.64205
527.56021
408.43659
313.02349
237.80799
179.30914
134.29579
99.924223
73.816478
54.077436
39.255219
28.257882
20.251375
14.57195
10.665442
8.0564364
6.4219048
5.5823813
3411.2253
3216.2538
3004.2839
2779.1338
2543.1863
2299.686
2052.6609
1806.7774
1567.0517
1338.4548
1125.4767
931.72417
759.62625
610.30815
483.65059
378.48622
292.88194
224.42864
170.515
128.57071
96.237233
71.478009
52.628904
38.388997
27.764179
19.985986
14.437617
10.600131
8.0270886
6.4106137
5.579342
2560.5489
2435.7247
2298.3999
2150.0809
1991.7355
1824.9801
1652.083
1475.9337
1299.9418
1127.8226
963.29983
809.77022
669.98614
545.8222
438.17308
346.98545
271.4039
209.98382
160.91721
122.26385
92.142479
68.86167
50.996143
37.404327
27.19708
19.677059
14.2786
10.521396
7.9905111
6.3953198
5.5737064
1907.3557
1828.4006
1740.799
1644.8353
1540.7108
1429.0207
1310.8461
1187.7636
1061.8479
935.59481
811.76484
693.15862
582.35361
481.45146
391.88984
314.35394
248.79757
194.56141
150.53923
115.36911
87.623006
65.948801
49.162646
36.288049
26.546797
19.31773
14.090355
10.426382
7.9449172
6.374833
5.5645517
1415.5638
1365.7253
1310.2224
1248.7265
1181.1013
1107.4196
1028.0531
943.7226
855.5388
765.00541
673.96882
584.50142
498.72457
418.59684
345.70995
281.13663
225.36205
178.30949
139.44181
107.90134
82.672708
62.725705
47.11368
35.027193
25.803035
18.900425
13.867667
10.31169
7.8881147
6.3476506
5.5506976
1052.1744
1020.3124
984.84976
945.2547
901.28648
852.81688
799.86282
742.66028
681.70936
617.81467
552.09437
485.94153
420.92958
358.6673
300.62666
247.97987
201.48438
161.44059
127.72969
99.9023
77.300628
59.186431
44.837919
33.60984
24.955403
18.417001
13.604653
10.173324
7.8174364
6.3118925
5.5306492
787.88593
766.78446
743.44611
717.30605
688.14258
655.77596
620.09776
581.11981
539.01312
494.15534
447.16247
398.89369
350.41658
302.92619
257.62468
215.58367
177.62214
144.22984
115.55466
91.445943
71.535434
55.336017
42.329532
32.026349
23.994043
17.859022
13.294834
10.006661
7.7296749
6.2652313
5.5025334
597.52587
582.69207
566.50238
548.4064
528.23606
505.83652
481.08855
453.93145
424.39613
392.63839
358.97289
323.89488
288.07836
252.34076
217.57178
184.63593
154.27025
127.00288
103.11364
82.641169
65.429495
51.19394
39.590664
30.270925
22.910535
17.218205
12.931309
9.806477
7.6210326
6.2048227
5.4640364
460.35707
449.15619
437.13121
423.78095
408.99443
392.66547
374.70538
355.05413
333.70433
310.72079
286.264
260.61291
234.17475
207.47451
181.11912
155.73862
131.91458
110.1133
90.641035
73.630687
59.061453
46.797262
36.634111
28.343538
21.699096
16.487093
12.507064
9.5670392
7.4871141
6.127247
5.4123471
360.05505
351.03642
341.49937
331.00951
319.50361
306.92291
293.21715
278.35455
262.33205
245.19
227.02535
208.00461
188.37324
168.45545
148.63907
129.34477
110.98351
93.911492
78.393898
64.586044
52.535859
42.202846
33.485833
26.25202
20.358069
15.659967
12.01546
9.2823163
7.3229729
6.0284736
5.343935
284.52798
276.95456
269.02123
260.38245
251.00977
240.88109
229.98186
218.30924
205.8779
192.72905
178.93651
164.61353
149.9155
135.04038
120.22394
105.72609
91.809214
78.712939
66.631277
55.697419
45.979593
37.487614
30.186804
24.01409
18.891578
14.734006
11.450934
8.9463347
7.1232504
5.9038766
5.2535273
225.43988
218.95165
212.1845
204.89012
197.06405
188.7093
179.83752
170.46951
160.63731
150.38566
139.77748
128.89596
117.84517
106.74815
95.743523
84.980361
74.60965
64.773115
55.592221
47.159636
39.535034
32.746026
26.793469
21.658875
17.311167
13.71061
10.809903
8.5537167
6.882446
5.7483868
5.1371133
177.393
171.82291
166.02279
159.83911
153.28362
146.37514
139.13973
131.61105
123.82975
115.84257
107.70298
99.471369
91.216142
83.012293
74.93845
67.073771
59.495304
52.275311
45.47795
39.156192
33.349796
28.085002
23.375982
19.227417
15.637071
12.596744
10.091842
8.1004113
6.5953524
5.5567119
4.9899526
137.23277
132.51704
127.61613
122.455
117.05496
111.44279
105.6501
99.712665
93.669647
87.56271
81.433507
75.32395
69.27526
63.32916
57.525746
51.903086
46.495084
41.331906
36.440505
31.844509
27.564028
23.615893
20.014249
16.771417
13.898707
11.406009
9.3003967
7.5845889
6.2576763
5.3237319
4.8068296
103.50101
99.631367
95.630757
91.470731
87.175636
82.773085
78.293015
73.766708
69.225787
64.701269
60.222724
55.816503
51.506024
47.310865
43.248282
39.332849
35.576641
31.988609
28.575571
25.343273
22.297308
19.44403
16.791448
14.350123
12.133796
10.159108
8.4443171
7.0076001
5.8668282
5.0450854
4.5827213
75.885602
72.850857
69.738886
66.53775
63.269702
59.958526
56.628651
53.304261
50.008463
46.762537
43.585387
40.493241
37.498966
34.611744
31.837936
29.180894
26.642051
24.221075
21.915518
19.72179
17.636489
15.657553
13.785565
12.025104
10.385879
8.8832476
7.5379005
6.3748126
5.4228039
4.7179344
4.3133796
54.277449
52.016342
49.712305
47.357565
44.969872
42.56776
40.16987
37.794307
35.458035
33.176343
30.962416
28.827037
26.778415
24.822116
22.960488
21.19366
19.518976
17.931827
16.426006
14.993741
13.626754
12.317467
11.060358
9.8535163
8.7001949
7.6101697
6.6005682
5.6960467
4.9289744
4.3418794
3.9963879
37.823396
36.228923
34.602784
32.943881
31.26531
29.580816
27.904337
26.249551
24.629437
23.055855
21.539172
20.087944
18.708658
17.405556
16.180494
15.03257
13.958725
12.953414
12.009316
11.117614
10.268368
9.4515153
8.6579922
7.8811429
7.1183511
6.3728286
5.6552747
4.9852722
4.3925773
3.9198357
3.6320739
25.045686
24.010322
22.949311
21.866054
20.769386
19.668722
18.573762
17.494194
16.43938
15.418045
14.43798
13.505769
12.626544
11.803789
11.039189
10.332525
9.6814664
9.0819383
8.5277684
8.0113555
7.523746
7.0552134
6.5960064
6.1374079
5.673162
5.2012423
4.7258231
4.2593176
3.8245742
3.4586246
3.2244467
15.07251
14.493305
13.904856
13.302054
12.689704
12.07302
11.457486
10.848711
10.252271
9.6735509
9.1175798
8.5888664
8.0912346
7.6276573
7.2000899
6.8093118
6.4547816
6.134443
5.8447668
5.5806633
5.3356448
5.1020455
4.8714236
4.6352947
4.3862402
4.119378
3.8341047
3.5359676
3.2388273
2.9692117
2.7820177
8.718481
8.4026143
8.0910319
7.7705972
7.4438811
7.113754
6.7833202
6.4558456
6.1346748
5.8231404
5.5244661
5.2416657
4.9774364
4.7340447
4.5132024
4.3159302
4.1424091
3.9918217
3.8622834
3.7506748
3.652643
3.5626174
3.473992
3.3795914
3.2725159
3.1472312
3.0007919
2.8339206
2.6518635
2.4672971
2.3181232
5.0089156
4.8399312
4.6755403
4.5059774
4.3326195
4.1570339
3.9809615
3.806286
3.6349836
3.4690733
3.3105623
3.1613912
3.0233772
2.8981549
2.7871053
2.6912632
2.6111987
2.5468834
2.4975518
2.4615414
2.4362035
2.4178438
2.4016912
2.3822224
2.3541609
2.3129129
2.2554082
2.1804344
2.0877414
1.9765281
1.8422935
2.7617038
2.6855297
2.6108809
2.5340849
2.4558175
2.3768428
2.2979905
2.2201352
2.1441781
2.0710218
2.0015394
1.9365504
1.8767862
1.8230107
1.77607
1.7366712
1.7053003
1.6821405
1.6669895
1.6592048
1.6574518
1.6602176
1.6652493
1.6699569
1.6711329
1.6657506
1.6516163
1.6275651
1.5923373
1.5400081
1.4529494
1.4715168
1.4508251
1.4304566
1.4098128
1.389132
1.3686709
1.3486937
1.3294593
1.3112096
1.2941679
1.2785425
1.2645415
1.252425
1.2423191
1.2343651
1.228664
1.2251858
1.2238337
1.2244775
1.226884
1.2306524
1.2351461
1.2397887
1.244344
1.2478504
1.2491226
1.2473394
1.2423921
1.2348498
1.216031
1.182097
93432.154
73536.798
57621.412
45075.489
35066.152
27115.214
20768.354
15714.566
11740.38
8660.2168
6311.3347
4547.4759
3240.9295
2285.9786
1597.2034
1107.5603
763.98348
525.73318
361.95743
249.68296
172.34757
118.5858
80.973671
54.745822
36.728016
24.645401
16.792868
11.980056
8.781497
6.8310135
5.8449577
74877.374
58612.107
46766.245
37333.731
29636.037
23258.032
18009.67
13756.017
10367.222
7713.1868
5668.9167
4118.2877
2958.5754
2103.3526
1481.2428
1035.1804
719.51072
498.74784
345.69713
239.89826
166.46113
115.06947
78.914341
53.579421
36.095603
24.319272
16.63373
11.902784
8.7461611
6.8173307
5.8417013
66089.272
52990.708
42533.048
33872.738
26718.558
20865.326
16126.023
12327.346
9317.357
6962.621
5144.9365
3760.0227
2718.5766
1945.9076
1380.0563
971.37954
679.97334
474.57645
331.02888
231.01128
161.08412
111.84797
77.030984
52.521533
35.531847
24.037272
16.502928
11.828094
8.7113812
6.8033126
5.8376648
58943.91
47586.116
38234.536
30465.189
24053.67
18808.845
14558.68
11151.71
8452.416
6339.4145
4704.9975
3455.6808
2512.456
1809.1885
1291.2352
914.78473
644.5413
452.69768
317.62562
222.8223
156.09542
108.8432
75.266915
51.527027
34.999927
23.769929
16.377361
11.75596
8.6772135
6.7889811
5.8328516
53613.061
43262.08
34719.171
27649.07
21834.111
17086.009
13242.273
10163.295
7723.6908
5811.9574
4330.1986
3194.5267
2334.2253
1689.9058
1213.0351
864.49711
612.76624
432.89643
305.38851
215.28757
151.47607
106.04701
73.618749
50.594618
34.499457
23.517192
16.257188
11.686477
8.6437049
6.7743545
5.8272656
49087.803
39570.51
31725.56
25256.575
19948.903
15621.662
12123.611
9322.9836
7102.9943
5361.0697
4008.3754
2969.1499
2179.3971
1585.5164
1144.0564
819.77351
584.26823
414.98657
294.23026
208.36755
147.20846
103.45166
72.083178
49.723013
34.030023
23.278994
16.142552
11.619727
8.610896
6.7594484
5.8209114
45292.905
36455.441
29189.773
23223.593
18343.153
14373.453
11169.373
8604.9662
6571.2836
4973.6643
3730.9236
2774.0069
2044.5119
1494.0027
1083.1584
779.99437
558.72408
398.80674
284.07365
202.02637
143.27615
101.04966
70.656876
48.910849
33.59116
23.055238
16.033575
11.555778
8.5788218
6.7442773
5.813795
42124.183
33820.362
27034.573
21491.987
16973.782
13307.948
10353.311
7989.7171
6114.6149
4640.1031
3491.3635
2604.7728
1926.8805
1413.7356
1029.4003
744.63892
535.85734
384.21651
274.85015
196.23149
139.66382
98.833845
69.3366
48.156772
33.182386
22.845821
15.930366
11.494684
8.5475136
6.7288552
5.8059236
39419.228
31570.832
25196.585
20014.018
15804.118
12397.085
9654.7664
7462.1472
5722.3105
4352.9945
3284.5182
2457.933
1824.3185
1343.3751
981.99888
713.26691
515.43078
371.09354
266.49901
190.95345
136.35731
96.797452
68.11922
47.459442
32.803213
22.650629
15.833021
11.43649
8.5169985
6.7131952
5.7973055
37097.239
29644.79
23624.914
18751.085
14805.081
11618.813
9057.4414
7010.5275
5386.043
4106.243
3106.0012
2330.6229
1735.0237
1281.8121
940.29827
685.50494
497.24055
359.33122
258.96648
186.16571
133.34359
94.934143
67.00175
46.817559
32.453157
22.469549
15.741623
11.381232
8.4873004
6.6973103
5.7879507
35091.132
27990.557
22280.301
17673.571
13954.036
10956.12
8548.9371
6625.8123
5098.8735
3894.7625
2952.2463
2220.5752
1657.5138
1228.1266
903.74812
661.03601
481.11161
348.83686
252.2051
181.84443
130.61075
93.238024
65.981373
46.229881
32.131746
22.302464
15.656241
11.328936
8.4584405
6.6812136
5.7778702
33361.951
26576.615
21137.171
16761.159
13235.161
10396.804
8119.3711
6300.226
4854.8436
3714.2056
2820.4784
2125.9035
1590.5653
1181.5533
871.88614
639.59126
466.89398
339.53011
246.17317
177.96834
128.14801
91.703669
65.05546
45.69523
31.838524
22.149261
15.576938
11.279621
8.4304372
6.6649176
5.7670764
31910.698
25395.259
20184.229
16000.938
12635.383
9929.6943
7759.3027
6025.9025
4648.4816
3560.9013
2708.31
2045.0393
1533.1677
1141.4566
844.32512
620.94365
454.45982
331.34173
240.83432
174.51861
125.94565
90.326128
64.22158
45.212502
31.57306
22.009828
15.503763
11.233301
8.4033063
6.6484351
5.7555831
30737.581
24431.908
19402.327
15373.588
12138.106
9540.4456
7458.493
5795.9596
4475.1746
3432.0335
2613.8033
1976.7064
1484.4915
1107.3106
820.74283
604.90283
443.70108
324.21266
236.15712
171.47874
123.99503
89.100934
63.477507
44.780675
31.334947
21.884057
15.436756
11.189982
8.3770615
6.6317787
5.7434047
29689.302
23590.507
18731.066
14842.034
11720.793
9215.3341
7208.3154
5605.5647
4331.8016
3325.3595
2535.4248
1919.8764
1443.8624
1078.6857
800.87429
591.31127
434.52762
318.09315
232.11481
168.83449
122.2886
88.024106
62.82123
44.398809
31.123804
21.771843
15.375947
11.149662
8.3517147
6.6149613
5.7305561
28617.822
22785.279
18121.094
14378.389
11367.726
8946.6047
7004.0632
5451.1653
4215.8906
3239.1367
2471.9705
1873.7331
1410.7418
1055.237
784.50573
580.0411
426.8658
312.94218
228.68505
166.57378
120.81982
87.092151
62.250952
44.066048
30.939276
21.673083
15.321355
11.112338
8.3272753
6.5979956
5.7170534
27721.136
22110.904
17613.782
13997.217
11081.614
8731.8879
6842.8713
5330.3351
4125.5966
3172.04
2422.5163
1837.6475
1384.7127
1036.6962
771.47006
570.99181
420.65731
308.72699
225.84977
164.68666
119.58319
86.30206
61.765089
43.781622
30.781034
21.587675
15.27299
11.077996
8.3037503
6.5808939
5.7029137
26937.503
21545.163
17201.472
13695.439
10860.228
8569.1181
6722.7738
5241.403
4059.5956
3123.0958
2386.3845
1811.1596
1365.4691
1022.8654
761.64352
564.08851
415.85834
305.42271
223.59502
163.16528
118.57424
85.651303
61.362268
43.54484
30.648771
21.515517
15.230851
11.046622
8.2811442
6.5636681
5.6881547
26247.235
21071.365
16873.419
13466.833
10700.024
8456.1008
6642.1923
5183.2113
4017.0462
3091.6967
2363.138
1793.9647
1352.8071
1013.6132
754.94348
559.28077
412.43909
303.01213
221.91087
162.0038
117.78949
85.137822
61.041324
43.355092
30.542205
21.456506
15.194927
11.018191
8.2594588
6.5463297
5.6727951
25639.748
20678.938
16621.313
13305.793
10597.608
8390.9577
6600.0687
5155.0917
3997.4921
3077.522
2352.5561
1785.9175
1346.6291
1008.8734
751.32652
556.5419
410.38341
301.48559
220.79142
161.19845
117.22648
84.760024
60.80129
43.211839
30.461067
21.410532
15.165194
10.992676
8.2386931
6.5288896
5.6568541
25102.562
20358.615
16438.536
13208.04
10550.362
8372.3699
6595.8859
5156.6565
4000.4548
3080.1913
2354.4039
1786.9057
1346.9018
1008.6408
750.78969
555.86916
409.68866
300.84091
220.23472
160.74749
116.8837
84.516774
60.64139
43.114612
30.405105
21.377482
15.141618
10.970041
8.218843
6.5113578
5.6403515
24622.918
20101.285
16319.643
13170.709
10556.315
8396.1961
6625.1104
5184.4097
4024.9106
3100.04
2369.2944
1797.2979
1353.7821
1012.9793
753.37051
557.28374
410.36388
301.07384
220.24234
160.65122
116.76067
84.407379
60.561032
43.062997
30.374075
21.357232
15.124148
10.950244
8.1999011
6.4937438
5.6233076
24175.582
19892.514
16257.36
13188.557
10609.881
8461.7912
6690.1646
5243.6751
4074.0666
3138.2899
2397.4578
1817.2847
1367.4502
1022.0204
759.1478
560.83176
412.44075
302.21775
220.82109
160.91199
116.85611
84.431041
60.559781
43.056633
30.367734
21.349646
15.112721
10.933238
8.1818567
6.4760559
5.6057428
23712.948
19703.783
16236.363
13251.428
10708.296
8567.3721
6787.4304
5325.8926
4140.0659
3189.1245
2435.3571
1844.6276
1386.5542
1034.9762
767.67805
566.27268
415.79067
304.19966
221.94127
161.51596
117.16715
84.585634
60.636012
43.094645
30.385627
21.354524
15.10726
10.918966
8.1646958
6.4583145
5.5876678
86753.029
69702.54
55878.207
44340.96
34926.543
27306.263
21118.819
16121.802
12128.439
8990.5082
6572.0789
4742.9337
3381.3886
2383.1847
1662.0415
1149.6139
790.60507
542.29047
372.16152
255.95769
176.19691
120.9194
82.352412
55.531168
37.156567
24.86925
16.904643
12.073067
8.8375516
6.8658531
5.8672134
78842.181
64370.027
52467.38
42438.857
33964.733
26794.149
20847.343
15998.61
12093.823
9005.0937
6609.0638
4783.7781
3417.4726
2411.615
1683.2089
1164.5653
800.81602
549.11353
376.65601
258.88304
178.07403
122.1011
83.080568
55.971658
37.420694
25.028616
17.003585
12.155098
8.8942686
6.9075565
5.9020607
70873.398
58957.824
48963.851
40252.504
32646.056
26048.221
20461.29
15825.36
12041.511
9014.4841
6643.7466
4824.1386
3454.1424
2441.2337
1705.9897
1181.1297
812.44374
557.06463
381.97228
262.36406
180.31319
123.52293
83.977802
56.538057
37.780607
25.260356
17.156512
12.243345
8.9550981
6.9522352
5.9393288
64949.28
54873.767
46174.198
38418.009
31488.907
25368.635
20095.433
15653.867
11984.859
9019.0619
6675.3981
4863.393
3491.1703
2472.0948
1729.7977
1198.5891
824.77903
565.53783
387.65494
266.0927
182.71433
125.04858
84.940744
57.145898
38.166769
25.508873
17.320063
12.338283
9.0203417
7.0000986
5.9791766
59985.785
51414.37
43741.667
36760.556
30411.453
24716.415
19733.701
15478.721
11923.107
9019.762
6705.1279
4902.2446
3528.7242
2503.8962
1754.6289
1216.9633
837.84942
574.55952
393.7254
270.08486
185.28832
126.68524
85.974039
57.798151
38.581069
25.775365
17.494972
12.440422
9.0903199
7.0513681
6.0217691
55870.421
48529.18
41676.431
35312.65
29441.989
24111.06
19387.586
15305.766
11858.902
9017.3946
6733.1434
4940.6396
3566.7143
2536.5825
1780.4662
1236.2627
851.67733
584.15377
400.20424
274.35589
188.04614
128.44029
87.082501
58.497906
39.025486
26.061087
17.68201
12.5503
9.1653741
7.1062776
6.0672781
52440.822
46143.163
39967.087
34093.619
28604.511
23571.97
19069.695
15141.965
11795.674
9014.2055
6759.7885
4978.5781
3605.0528
2570.0834
1807.2784
1256.4879
866.27944
594.34192
407.11106
278.92098
190.9989
130.3213
88.27111
59.248389
39.502092
26.367361
17.881994
12.668493
9.2458678
7.1650746
6.1158825
49531.03
44161.897
38577.781
33104.228
27913.71
23115.231
18792.132
14994.693
11737.192
9010.477
6785.6525
5016.1191
3643.6564
2604.3138
1835.0193
1277.6278
881.66545
605.14176
414.46393
283.79513
194.15796
132.33594
89.544992
60.052946
40.013054
26.695571
18.095785
12.795608
9.3321873
7.2280199
6.1677669
47018.31
42490.677
37453.374
32325.685
27371.543
22750.456
18564.472
14870.691
11687.382
9009.1819
6811.2671
5053.3523
3682.4399
2639.1696
1863.6235
1299.6573
897.83614
616.5663
422.27872
288.99246
197.5343
134.4919
90.909375
60.915036
40.560628
27.047168
18.324289
12.932288
9.4247425
7.2953879
6.2231206
44835.192
41053.933
36532.781
31723.691
26965.973
22478.071
18391.449
14774.589
11649.301
9011.153
6837.2887
5090.3576
3721.2969
2674.522
1893.0003
1322.5326
914.78084
628.62216
430.56815
294.52571
201.13799
136.79694
92.369534
61.838198
41.14715
27.423661
18.568464
13.079214
9.5239675
7.3674664
6.282136
42960.803
39807.704
35762.174
31255.086
26671.783
22287.489
18270.769
14707.372
11624.538
9017.86
6864.1149
5127.1248
3760.067
2710.2038
1923.0281
1346.1873
932.47443
641.30773
439.34065
300.40564
204.97858
139.25863
93.930707
62.826027
41.775021
27.826618
18.82931
13.237099
9.6303202
7.4445557
6.3450063
41391.986
38730.149
35098.118
30872.974
26452.872
22156.762
18191.416
14664.514
11611.611
9028.8785
6891.6145
5163.4428
3798.4929
2745.9884
1953.5443
1370.5276
950.87408
654.61095
448.59909
306.64026
209.06441
141.88371
95.598004
63.882127
42.446695
28.257656
19.107875
13.406692
9.744283
7.5269684
6.411923
40112.918
37803.179
34503.707
30529.883
26266.215
22055.22
18134.822
14636.083
11605.671
9042.3731
6918.9207
5198.7656
3836.1597
2781.5669
1984.3359
1395.4266
969.91576
668.507
458.33926
313.23401
213.40218
144.67823
97.376448
65.010063
43.16465
28.718435
19.405254
13.588774
9.8663614
7.6150277
6.4830721
39074.113
36991.635
33937.776
30175.775
26062.703
21944.512
18076.585
14607.992
11598.84
9053.886
6944.0536
5232.0561
3872.4305
2816.5187
2015.1273
1420.7167
989.51061
682.95589
468.54836
320.18679
217.99639
147.64747
99.270651
66.213299
43.931371
29.210647
19.722578
13.784157
9.9970833
7.7090663
6.5586272
38183.303
36230.42
33345.944
29756.863
25789.91
21779.55
17984.026
14562.009
11582.368
9055.8242
6963.7075
5261.6402
3906.3766
2850.2825
2045.571
1446.1847
1009.5401
697.90009
479.20347
327.49305
222.84881
150.79544
101.28454
67.495213
44.749315
29.736005
20.06102
13.993682
10.136997
7.8094237
6.6387454
37328.888
35435.819
32664.726
29220.092
25400.145
21518.047
17822.087
14471.455
11541.979
9046.3959
6972.7965
5285.1874
3936.7258
2882.1242
2075.2287
1471.5687
1029.8551
713.26267
490.27008
335.14081
227.95796
154.12467
103.42148
68.858958
45.620882
30.296228
20.421784
14.218214
10.28667
7.9164441
6.7235579
36407.791
34527.491
31834.694
28520.557
24856.597
21128.108
17563.545
14314.106
11457.044
9013.7909
6968.6635
5299.7127
3961.8481
2911.1164
2103.5596
1496.5499
1050.2728
728.9458
501.70096
343.11091
233.3186
157.63586
105.68415
70.307273
46.548423
30.893032
20.806102
14.458636
10.446683
8.0304729
6.8131605
35323.025
33429.854
30801.993
27621.354
24132.385
20587.636
17189.143
14073.904
11316.614
8942.7478
6946.5973
5301.0435
3979.6844
2936.1237
2129.9132
1520.7489
1070.5736
744.82965
513.43534
351.37639
238.92137
161.32776
108.07431
71.84258
47.534184
31.528113
21.215225
14.715893
10.617632
8.1518532
6.9071687
33896.622
32009.723
29479.171
26470.385
23197.173
19876.915
16683.562
13737.861
11109.92
8828.3057
6894.3157
5290.0035
3987.8283
2955.8148
2153.5289
1543.7285
1090.5025
760.77037
525.39856
359.90227
244.75262
165.19701
110.59285
73.466979
48.580216
32.203154
21.650423
14.990859
10.800117
8.2809286
7.0106051
31887.998
30091.051
27749.694
24997.227
22010.952
18972.921
16031.812
13294.503
10827.482
8662.7917
6808.8749
5257.2691
3984.9268
2968.8594
2173.5592
1564.991
1109.7714
776.60397
537.50285
368.64578
250.79451
169.23823
113.23971
75.182201
49.688434
32.919813
22.112969
15.284454
10.994741
8.4179894
7.1196916
29221.331
27616.913
25569.996
23169.774
20551.323
17860.499
15223.159
12735.324
10461.983
8439.9596
6685.552
5199.2675
3969.372
2973.1748
2189.0343
1583.9893
1128.0611
792.1476
549.64898
377.55727
257.02549
173.44421
116.01407
76.989662
50.860665
33.67968
22.604144
15.597599
11.202102
8.5632907
7.2338159
26110.393
24754.259
23055.298
21059.064
18857.456
16558.895
14265.426
12061.909
10011.78
8156.7296
6521.0495
5114.5643
3934.8583
2969.076
2199.2334
1600.1666
1145.0334
807.20442
561.72825
386.58175
263.42123
177.80648
118.91456
78.890548
52.098645
34.484311
23.125234
15.931204
11.422793
8.7170441
7.3527049
22931.477
21816.069
20447.004
18837.824
17043.922
15138.716
13198.955
11295.287
9486.3937
7816.2172
6315.3201
5001.8952
3882.6893
2954.2633
2202.7623
1612.9153
1160.3456
821.57212
573.62656
395.66145
269.956
182.31594
121.93957
80.88596
53.404071
35.335263
23.677516
16.286194
11.657399
8.8794065
7.4759055
20008.404
19091.019
17990.49
16703.21
15259.389
13704.727
12092.602
10477.456
8909.3031
7430.1404
6073.2303
4862.5112
3812.1511
2926.4432
2200.1254
1621.9332
1173.6922
835.05587
585.233
404.73946
276.60452
186.96382
125.08767
82.977075
54.778645
36.234085
24.262245
16.663574
11.90646
9.0504696
7.6027229
17510.959
16744.329
15844.235
14800.989
13630.202
12359.086
11023.058
9661.6871
8314.5779
7018.3633
5805.1315
4701.0523
3725.0273
2887.5873
2190.5832
1626.7538
1184.7817
847.47813
596.4463
413.76392
283.34389
191.74251
128.35801
85.165267
56.224112
37.182311
24.880654
17.064193
12.170464
9.2302497
7.7321377
15464.563
14812.022
14058.194
13192.887
12224.248
11168.76
10049.99
8896.2251
7737.7332
6604.6262
5525.3185
4525.1351
3624.7348
2838.4452
2172.9763
1626.83
1193.4367
858.70894
607.18337
422.69027
290.15507
196.6462
131.75039
87.452102
57.742209
38.181417
25.533927
17.488755
12.449861
9.4186613
7.8626922
13811.993
13248.817
12604.622
11870.467
11050.8
10156.181
9202.9295
8211.7963
7206.1755
6210.4684
5248.8294
4344.0728
3516.3663
2781.5948
2149.73
1623.8687
1199.7969
868.69368
617.38843
431.48504
297.02325
201.67046
135.2649
89.839024
59.334469
39.232707
26.223118
17.937929
12.744983
9.6154938
7.992324
12472.33
11982.17
11424.029
10790.511
10083.931
9311.2914
8484.4238
7619.2649
6734.5929
5850.6585
4988.0541
4166.8291
3405.5546
2720.0469
2121.8058
1616.649
1203.799
877.41308
627.0301
440.12434
303.93566
206.81032
138.90053
92.326508
61.001738
40.337053
26.949021
18.412266
13.056063
9.8205875
8.1168519
11366.065
10937.638
10450.493
9898.3495
9281.9029
8605.7434
7878.6004
7113.0841
6324.8101
5531.2009
4750.339
4000.0748
3297.2811
2656.9475
2090.9345
1606.5893
1205.7407
884.91896
636.09463
448.58497
310.87493
212.05555
142.65222
94.912363
62.743266
41.494428
27.711939
18.912053
13.383211
10.033871
8.2590965
10429.023
10054.246
9627.9354
9144.4138
8603.2526
8007.1394
7362.3582
6678.8789
5969.8577
5250.645
4537.6197
3847.1624
3194.8698
2594.8335
2058.7193
1594.596
1205.8525
891.27073
644.56344
456.82646
317.80527
217.38228
146.50576
97.588836
64.555164
42.703124
28.511296
19.437137
13.726327
10.254535
8.3926351
9611.4271
9284.0436
8911.2267
8487.6466
8011.892
7485.0514
6911.4081
6298.6547
5657.7562
5002.2519
4347.1872
3707.9751
3099.437
2535.0493
2026.1973
1581.2691
1204.7508
896.54174
652.37226
464.76434
324.65567
222.74075
150.43015
100.33818
66.42802
43.958543
29.345055
19.986638
14.084945
10.481713
8.5075645
8876.2978
8591.1204
8266.0235
7895.7849
7478.2965
7013.4109
6503.588
5954.4429
5374.8334
4776.4961
4173.1839
3579.5238
3009.8901
2477.4824
1993.5698
1566.7378
1202.1086
900.58408
659.34294
472.22885
331.29288
228.03836
154.36695
103.1265
68.343548
45.251472
30.208862
20.558543
14.458051
10.714995
8.6392389
8196.3182
7948.6352
7666.227
7343.8857
6979.0409
6570.5418
6119.3779
5629.2685
5106.9925
4562.3576
4007.6383
3456.5691
2923.1443
2420.4978
1959.9933
1550.4621
1197.4988
902.92227
665.09178
478.91347
337.48807
233.11843
158.21709
105.89589
70.270213
46.565785
31.094895
21.149147
14.843811
10.95269
8.7366489
7556.6579
7341.1909
7095.8903
6815.6655
6497.7355
6140.3236
5743.2351
5308.5124
4840.9799
4348.4073
3841.2987
3332.1566
2834.3655
2360.9536
1923.4771
1531.1212
1189.9917
902.64154
668.97078
484.32443
342.88084
237.73558
161.82588
108.55547
72.158083
47.875645
31.990422
21.752341
15.239314
11.194124
8.8415498
6956.1576
6766.9926
6552.3986
6307.5653
6029.7673
5716.946
5368.1811
4984.2819
4568.3337
4126.1205
3666.1708
3199.3562
2738.0094
2294.7307
1881.1419
1506.814
1178.4757
899.5778
669.96513
487.72072
346.94212
241.53487
164.96873
110.97248
73.933532
49.142483
32.87615
22.35877
15.640156
11.43816
8.9536909
6384.9766
6218.0667
6029.7206
5815.2229
5572.0522
5298.1186
4992.1373
4654.0997
4285.8197
3891.3983
3477.466
3053.0846
2629.1682
2217.4783
1829.3905
1474.6966
1160.6697
891.52308
667.74953
488.10586
348.92754
244.03086
167.33907
112.96519
75.494882
50.312286
33.724615
22.954925
16.039945
11.682179
9.0703869
5786.6144
5643.0849
5482.4057
5299.1795
5091.0526
4855.9343
4592.293
4299.547
3978.5251
3631.9383
3264.7565
2884.2996
2499.9434
2122.3693
1762.452
1430.0185
1132.7669
875.56853
660.22323
485.31663
348.29387
244.59278
168.53945
114.29987
76.710704
51.314105
34.499015
23.522335
16.429783
11.922281
9.1890845
5071.085
4955.8522
4828.7628
4682.9465
4516.1598
4326.2609
4111.44
3870.5355
3603.4345
3311.5241
2998.1138
2668.707
2330.9651
1994.2413
1668.671
1363.9707
1088.2346
847.0534
643.16512
476.41244
344.18171
243.03097
168.24012
114.69849
77.423274
52.060999
35.15308
24.037166
16.797808
12.15302
9.3043069
4203.9642
4119.4527
4028.9031
3924.0707
3802.9382
3663.4394
3503.616
3321.8478
3117.171
2889.668
2640.8995
2374.2854
2095.3125
1811.4014
1531.3251
1264.2033
1018.2844
799.86279
612.64863
457.68408
333.75511
237.85754
166.05561
114.01992
77.460561
52.454929
35.632734
24.470539
17.129724
12.3674
9.4115922
3270.6702
3212.9283
3153.9282
3085.1262
3004.9388
2911.6483
2803.4849
2678.7628
2536.089
2374.6492
2194.5609
1997.2561
1785.8215
1565.1512
1341.7661
1123.2055
917.04613
729.79879
566.03806
428.02115
315.8132
227.72173
160.88114
111.7859
76.754477
52.405913