/*--------------------------------*- C++ -*----------------------------------*\
| =========                 |                                                 |
| \\      /  F ield         | OpenFOAM: The Open Source CFD Toolbox           |
|  \\    /   O peration     | Version:  2406                                  |
|   \\  /    A nd           | Website:  www.openfoam.com                      |
|    \\/     M anipulation  |                                                 |
\*---------------------------------------------------------------------------*/
FoamFile
{
    version     2.0;
    format      ascii;
    arch        "LSB;label=32;scalar=64";
    class       volScalarField;
    location    "0.028";
    object      alphat;
}
// * * * * * * * * * * * * * * * * * * * * * * * * * * * * * * * * * * * * * //

dimensions      [1 -1 -1 0 0 0 0];

internalField   nonuniform List<scalar> 
8260
(
0.040171413
0.045560137
0.051895101
0.059051458
0.066866908
0.075168773
0.083738086
0.092278795
0.1003896
0.1074962
0.11278876
0.11514652
0.11304732
0.10458365
0.087673979
0.061261013
0.032337734
0.015076466
0.0097358989
0.0080064075
0.007022663
0.006357629
0.0059209934
0.0056010885
0.0053777158
0.0052304083
0.005131763
0.0050545339
0.0050014775
0.0049640793
0.00494384
0.047551683
0.053101852
0.059194082
0.065898134
0.073173264
0.080889446
0.08883948
0.096727241
0.10414355
0.11050619
0.11497621
0.11641087
0.11326972
0.10365741
0.085548488
0.058419673
0.029599838
0.014191628
0.0094658607
0.0079026356
0.006966197
0.0063234529
0.0059011387
0.0055883571
0.0053701558
0.0052259754
0.0051291804
0.0050527913
0.0050003969
0.0049633245
0.0049433254
0.056007639
0.061349376
0.067136629
0.073408498
0.080142652
0.087235321
0.094497463
0.10164156
0.108254
0.11373869
0.117244
0.1176021
0.11325586
0.10233053
0.082892455
0.054958698
0.026882907
0.013272857
0.0092814376
0.007850075
0.0069364105
0.0063057702
0.0058909965
0.0055816679
0.0053661186
0.0052235541
0.005127756
0.0050516651
0.0049995953
0.0049626538
0.0049427613
0.065649987
0.070559512
0.075901515
0.081655642
0.08778432
0.09418444
0.10067304
0.10696657
0.11264786
0.11710992
0.11948708
0.11859044
0.11284971
0.100422
0.079515648
0.05078479
0.024060607
0.012470845
0.0091144331
0.0077682604
0.0068858924
0.0062749475
0.0058730382
0.0055694792
0.0053586602
0.0052190023
0.005125018
0.0050497577
0.0049983516
0.0049617465
0.0049421198
0.076475925
0.080786405
0.085557983
0.090678225
0.096096026
0.10170011
0.10730328
0.11261825
0.11722059
0.1204923
0.12155305
0.11919622
0.11184476
0.097703772
0.075193862
0.045807938
0.021202799
0.011696302
0.0089336845
0.0076936031
0.0068421546
0.0062488862
0.0058582141
0.0055593696
0.0053525574
0.0052153054
0.0051227765
0.0050480905
0.0049971869
0.0049608232
0.0049413898
0.088279117
0.091920313
0.096006725
0.1003748
0.1049614
0.10964492
0.1142288
0.11841606
0.12177038
0.12366034
0.12319128
0.11914197
0.10993976
0.093861767
0.069644271
0.039980315
0.018642879
0.010982242
0.0087575878
0.0076015834
0.0067856268
0.0062141541
0.0058379596
0.0055453158
0.0053439726
0.0052100311
0.0051195542
0.0050458293
0.0049956574
0.0049596841
0.0049405583
0.10069227
0.10362283
0.10693558
0.11044825
0.11408635
0.11771792
0.12113527
0.12402861
0.12594664
0.12624231
0.12400701
0.11800936
0.10670085
0.088466563
0.06252422
0.033380582
0.016220899
0.010336981
0.008572955
0.0075079511
0.0067310786
0.006181243
0.0058189922
0.0055320287
0.0053359641
0.0052050965
0.0051164939
0.0050436088
0.004994085
0.0049584609
0.0049396121
0.11311294
0.11530235
0.11777275
0.12034159
0.12292283
0.12537324
0.12747263
0.12889658
0.12917717
0.12765094
0.12339667
0.11518008
0.10151334
0.080944302
0.053471785
0.026360116
0.014003477
0.0098370538
0.0083864744
0.0073991916
0.0066663312
0.0061414956
0.0057952978
0.005515362
0.0053258679
0.0051987565
0.0051125408
0.0050408433
0.0049921493
0.0049570043
0.0049385367
0.12458752
0.12600886
0.12757921
0.12912871
0.13055676
0.1317061
0.13234181
0.13212294
0.13056402
0.12698614
0.12045942
0.10975779
0.09352465
0.070568075
0.042291151
0.020624117
0.012163298
0.0094302336
0.0081859366
0.0072854507
0.0066008277
0.0061027471
0.0057718161
0.0054988344
0.0053160548
0.0051924543
0.005108521
0.0050379839
0.0049900769
0.0049554
0.0049373158
0.13361819
0.13426352
0.1348869
0.13535577
0.13555168
0.13529895
0.13434425
0.13232751
0.12874571
0.12290887
0.11388806
0.10047941
0.081593874
0.056558663
0.029571523
0.016057478
0.010732378
0.0090554134
0.0079761927
0.0071590688
0.0065242183
0.0060579519
0.0057432804
0.0054789989
0.0053043646
0.0051847375
0.0051035465
0.0050345414
0.0049875949
0.0049535154
0.0049359292
0.13794993
0.1378309
0.13749542
0.13685114
0.13576233
0.13403648
0.13139914
0.12746931
0.12173037
0.11349478
0.10186045
0.085649064
0.064374796
0.038535009
0.020253502
0.012741791
0.0098715132
0.0087051704
0.0077509778
0.0070280822
0.0064447572
0.0060135528
0.0057137435
0.0054588122
0.0052928498
0.0051768562
0.0050983125
0.0050308632
0.0049848739
0.0049514103
0.0049343503
0.13429551
0.13339196
0.13212091
0.13038509
0.12802734
0.12483027
0.12049506
0.11462393
0.10670476
0.096094625
0.082007811
0.063169124
0.040851402
0.023469318
0.014448704
0.01060563
0.0093942384
0.0083190595
0.0075278799
0.006882027
0.0063519017
0.0059642991
0.0056779722
0.0054349548
0.0052793871
0.0051675019
0.0050920183
0.0050264914
0.004981656
0.0049489578
0.0049322361
0.11800325
0.11644963
0.11435445
0.11160718
0.10804679
0.10344246
0.097475987
0.089759134
0.079858132
0.067325401
0.052008641
0.036951872
0.023783261
0.015177573
0.011167038
0.0097436791
0.0087727218
0.0079609528
0.0072670961
0.0067290947
0.0062623366
0.0059101458
0.0056406153
0.0054108607
0.0052659047
0.0051579561
0.0050853393
0.0050217711
0.0049781031
0.0049462077
0.0049296039
0.083451526
0.081251058
0.078538282
0.075376934
0.071616864
0.067066891
0.061529626
0.054909146
0.047176095
0.038405846
0.029066709
0.02056492
0.01443768
0.011181988
0.0097541099
0.0090666456
0.0083329508
0.0075407985
0.0070221231
0.0065530511
0.0061563651
0.0058551402
0.0055948178
0.005383549
0.0052501587
0.0051469859
0.0050774674
0.0050163396
0.0049739893
0.0049430285
0.0049266849
0.047196714
0.045789672
0.0440515
0.041980496
0.039430511
0.036325198
0.032838828
0.029002363
0.024808062
0.020355603
0.015995218
0.012479068
0.010398881
0.0094650567
0.009157566
0.0084331118
0.0077200951
0.0071987902
0.0067559155
0.0063827758
0.006046788
0.005788092
0.0055518612
0.005356614
0.0052340327
0.0051359206
0.0050691477
0.0050106402
0.004969484
0.0049394637
0.004923528
0.023344714
0.022840053
0.022094378
0.021147371
0.019966572
0.018552458
0.016968553
0.015268937
0.013506919
0.011782717
0.010261713
0.0092327083
0.0087229255
0.0088190085
0.0081959587
0.0076789272
0.0072605745
0.0067930296
0.0065073671
0.0061782361
0.0059249074
0.0057170223
0.0054992616
0.0053276123
0.0052155764
0.0051236299
0.0050592476
0.0050042961
0.0049643204
0.0049353944
0.0049202525
0.012329531
0.012207634
0.011957086
0.011606672
0.011170136
0.010670346
0.010139919
0.0095794534
0.0089790244
0.0084805728
0.0082549706
0.0081259417
0.0081776767
0.0076266629
0.0075169579
0.007287308
0.00686487
0.0065751508
0.0062777665
0.0060141078
0.0057858902
0.0056261721
0.0054521546
0.0052989927
0.0051960673
0.0051104642
0.00504977
0.0049974157
0.0049585506
0.0049309211
0.0049164992
0.0082893574
0.0082585306
0.0081802021
0.0080700552
0.0079352561
0.0077799492
0.0076557999
0.0075458058
0.0074857298
0.0074739506
0.0075383119
0.0074430844
0.0070247608
0.0068991264
0.0067102223
0.0065537589
0.0064616744
0.0061768969
0.0060043979
0.0058002449
0.0056509714
0.0055385997
0.00538715
0.0052642603
0.0051750155
0.0050962123
0.0050379167
0.0049893725
0.0049522343
0.0049259412
0.0049122176
0.0069666543
0.0069227147
0.0068872358
0.0068606869
0.0068537014
0.0068700912
0.0068945291
0.0068645715
0.0068325522
0.0068025148
0.0066857814
0.0065803298
0.006585517
0.0063880123
0.0062760417
0.0062764374
0.0061066817
0.0060031376
0.0058185889
0.0056581648
0.0055139731
0.0054417845
0.0053275038
0.0052256967
0.0051530331
0.0050802155
0.0050260725
0.0049810707
0.0049451815
0.0049205154
0.0049074458
0.0063965683
0.0063934749
0.0063903432
0.0063930528
0.0064092834
0.0064260618
0.0064006866
0.0063834078
0.0063345502
0.0062307269
0.0061644202
0.0061241544
0.0060000225
0.0060348272
0.0060175577
0.0058785917
0.0058097267
0.0057822904
0.0056846796
0.0054851593
0.0054135143
0.0053698945
0.0052555742
0.0051802053
0.0051263134
0.0050649686
0.0050117686
0.0049709862
0.0049373914
0.0049145325
0.0049025622
0.005970488
0.0059659066
0.0059566984
0.0059342188
0.0058986167
0.0058481671
0.0058503907
0.005839587
0.0058246586
0.005808947
0.0058099701
0.0057951521
0.0057993269
0.0057047819
0.0057200187
0.0056568254
0.0055407653
0.0054547676
0.0054361452
0.0053889226
0.0053268054
0.0052618279
0.0052066692
0.0051464566
0.0050951488
0.0050461449
0.0049979842
0.0049607507
0.0049286107
0.0049081433
0.00489691
0.0055625296
0.0055630596
0.0055606035
0.0055547747
0.0055505878
0.0055613145
0.0055729387
0.005561845
0.0055516727
0.005529984
0.0055099393
0.0054973521
0.0054840438
0.0054748545
0.0054316826
0.005375545
0.0053961549
0.0053208162
0.0052940595
0.0052580657
0.0052219563
0.005183002
0.0051489728
0.0051107106
0.0050624352
0.0050263036
0.0049811393
0.0049472927
0.0049196693
0.0049011941
0.0048916057
0.0053455271
0.0053452229
0.0053427009
0.0053369282
0.0053281496
0.0053131723
0.0052931284
0.0052901786
0.0052876142
0.0052856536
0.0052826679
0.0052751308
0.0052722837
0.0052841342
0.005277886
0.0052409054
0.0052099607
0.0051986302
0.0051541945
0.0051476682
0.0051573567
0.005106182
0.0050898239
0.0050738043
0.0050335347
0.0050020093
0.004962269
0.0049340491
0.0049104367
0.0048939251
0.004885195
0.0051425855
0.0051439319
0.0051435509
0.0051420929
0.0051406021
0.0051397036
0.0051422555
0.0051463394
0.0051521195
0.0051561317
0.0051599
0.005161051
0.0051524444
0.0051269297
0.0051192621
0.0051320887
0.0051004482
0.0050683226
0.005080779
0.0050873269
0.0050773939
0.0050624152
0.0050359297
0.0050205936
0.004999172
0.0049705309
0.0049403711
0.004919468
0.004900444
0.0048867525
0.0048797788
0.0050401171
0.0050420068
0.0050422912
0.005041387
0.005039664
0.005037545
0.0050350313
0.0050319587
0.0050294073
0.0050296286
0.0050316487
0.0050332347
0.0050382316
0.0050438765
0.0050385876
0.0050181272
0.0050327891
0.0050203083
0.0050366306
0.0050486331
0.0050331422
0.0050224362
0.0049967115
0.0049687297
0.0049515118
0.0049404224
0.0049204383
0.004906164
0.0048913276
0.004879657
0.0048733423
0.0049497515
0.0049506882
0.0049509033
0.0049508136
0.0049508968
0.0049513161
0.0049521045
0.0049530231
0.0049541969
0.0049568185
0.0049593501
0.0049604449
0.0049583385
0.0049549353
0.004952073
0.0049527533
0.0049511164
0.0049696938
0.0049677426
0.0049507816
0.0049516772
0.0049485246
0.0049440729
0.0049304414
0.0049206829
0.0049128066
0.0049044727
0.0048921747
0.0048823579
0.0048732368
0.0048678494
0.0049126863
0.0049136558
0.0049139682
0.0049138612
0.0049135506
0.0049130356
0.0049123508
0.004912056
0.0049121191
0.0049120637
0.0049118876
0.0049128895
0.0049148177
0.004916476
0.0049181267
0.0049193126
0.0049171814
0.0049201256
0.0049194432
0.0049145543
0.0049143482
0.0049114443
0.0049117829
0.0049110073
0.0049037943
0.0048976944
0.0048942414
0.00488356
0.0048744877
0.0048677495
0.0048637973
0.0048862788
0.0048866025
0.0048866619
0.0048866444
0.0048867047
0.004886907
0.0048872793
0.0048879105
0.0048888989
0.004890471
0.0048929534
0.004896073
0.0048996014
0.0049028054
0.0049043724
0.0049046343
0.0049010739
0.0049003006
0.0048982029
0.0048994084
0.0049007098
0.0048982638
0.0048970532
0.0048963081
0.0048942408
0.0048891008
0.0048819181
0.0048758555
0.0048695464
0.0048644917
0.0048619055
0.0048728998
0.0048730813
0.0048731563
0.0048732337
0.0048733971
0.0048736647
0.0048740388
0.0048745446
0.004875284
0.0048764127
0.0048780574
0.0048797165
0.0048807885
0.0048815889
0.0048821275
0.0048823801
0.0048838017
0.0048847624
0.0048862546
0.0048883896
0.0048922537
0.0048905472
0.0048885031
0.0048827299
0.004883255
0.0048790414
0.004874956
0.0048706574
0.0048663885
0.0048621167
0.004858029
0.0048659751
0.0048660764
0.0048661505
0.0048662589
0.0048664326
0.0048666637
0.0048669368
0.0048671875
0.00486736
0.0048676879
0.0048682298
0.0048691435
0.0048704388
0.0048710788
0.0048710071
0.0048708848
0.0048709327
0.004870995
0.0048712655
0.0048717815
0.0048733976
0.0048726036
0.0048736179
0.0048736843
0.0048735117
0.0048722298
0.0048706136
0.004868008
0.0048623721
0.0048583987
0.0048584774
0.004859278
0.0048593409
0.0048594534
0.0048596433
0.0048599339
0.0048603469
0.0048609032
0.0048616177
0.0048624781
0.0048633766
0.004864069
0.0048650157
0.0048663635
0.0048668321
0.0048668013
0.0048666668
0.0048665206
0.0048663424
0.0048662258
0.0048661919
0.0048667716
0.0048666295
0.0048662003
0.0048693712
0.0048684057
0.0048681473
0.0048672316
0.0048642423
0.0048623302
0.0048614079
0.0048597748
0.00086647879
0.0018742906
0.0037660437
0.0066063587
0.010372463
0.015157667
0.021062692
0.028141795
0.036494072
0.045570031
0.055528656
0.065915769
0.075937974
0.084347843
0.089266356
0.088020382
0.077307319
0.056191421
0.03173054
0.01547605
0.0091901516
0.0072695864
0.0064471842
0.0059269301
0.0055724754
0.0053458252
0.0051974345
0.0051013126
0.0050323144
0.0049870106
0.0049628535
0.002120113
0.0042842155
0.0071476893
0.010578108
0.014768988
0.019849485
0.025889484
0.033223055
0.041342003
0.050354659
0.060112504
0.070097325
0.079462185
0.086895314
0.090457294
0.087444928
0.074684175
0.052108625
0.027947204
0.013754383
0.0086959921
0.0071132307
0.0063769916
0.0058870703
0.005550222
0.0053338411
0.005191108
0.0050978058
0.0050302854
0.0049858376
0.004962296
0.0039407679
0.0062930328
0.0091951306
0.012830896
0.017344698
0.022833595
0.029408511
0.036953326
0.045299
0.054446158
0.064121651
0.07377802
0.08253002
0.089014861
0.091247257
0.086516979
0.071846427
0.048207909
0.025045899
0.012605255
0.0083450175
0.0070427489
0.0063433339
0.0058676572
0.0055392881
0.0053272551
0.0051874649
0.0050955625
0.00502881
0.0049848609
0.004961616
0.0057357881
0.0083168158
0.01158005
0.015615534
0.020469698
0.026268817
0.033111482
0.040707834
0.049169696
0.0583392
0.067866567
0.077157482
0.085274392
0.090799853
0.09170765
0.085296892
0.068841736
0.044494182
0.022513093
0.011550452
0.0081368782
0.0069526837
0.0062914914
0.0058365349
0.0055216202
0.0053174564
0.0051821934
0.0050925135
0.005026988
0.0049837537
0.0049608696
0.0074921066
0.010433841
0.014046466
0.018385007
0.023545287
0.029657495
0.036586152
0.044363287
0.052931802
0.062077411
0.071411928
0.080299555
0.08775211
0.092300831
0.091885324
0.083828438
0.065716616
0.040940038
0.020271744
0.010838463
0.0079324796
0.0068882117
0.0062568861
0.0058160105
0.0055101945
0.0053107576
0.0051784711
0.00509019
0.005025481
0.0049827533
0.0049601102
0.0093503047
0.012594882
0.01648533
0.02110041
0.02660461
0.032930372
0.040040938
0.047972913
0.056601398
0.065678545
0.074781274
0.083231836
0.08999354
0.093550796
0.091815862
0.082145087
0.062518235
0.037551177
0.018315102
0.010150172
0.0077904292
0.0068206924
0.0062151462
0.0057904298
0.0054956196
0.0053025251
0.0051739543
0.0050874569
0.0050238002
0.0049816844
0.0049593541
0.011151864
0.014685467
0.018877496
0.02382943
0.029601274
0.036126259
0.043445252
0.051507547
0.060164141
0.069141093
0.077981901
0.085968524
0.092019095
0.094576113
0.091530578
0.080288493
0.059291882
0.034381114
0.016647841
0.0096774869
0.0076600726
0.0067644192
0.0061825999
0.0057707437
0.0054845998
0.005296145
0.0051703626
0.0050851512
0.005022308
0.0049806784
0.0049586021
0.012894961
0.016747745
0.021255599
0.026554789
0.032540566
0.039289086
0.046786745
0.054951356
0.063610267
0.072461956
0.081017234
0.088519902
0.09384632
0.095401891
0.091061019
0.078301313
0.056080072
0.031468874
0.015294738
0.0092757926
0.0075594011
0.0067097144
0.0061480791
0.005749284
0.0054722981
0.0052891421
0.005166439
0.0050826588
0.0050207407
0.0049796392
0.0049578406
0.014634387
0.018787946
0.023617674
0.029184876
0.035416554
0.042383802
0.050043392
0.058291079
0.066931907
0.07563831
0.083890291
0.090895833
0.095492958
0.09605517
0.090448191
0.076223268
0.052948613
0.028845206
0.014155583
0.0089871668
0.0074681493
0.006661331
0.0061190034
0.0057314129
0.00546213
0.0052833014
0.0051631004
0.0050804295
0.0050192943
0.0049786381
0.0049570637
0.016318562
0.020777367
0.025932069
0.03173458
0.038223199
0.045399508
0.053204792
0.061517799
0.070123049
0.07866848
0.086605064
0.093107226
0.096978055
0.096562598
0.089731378
0.074103793
0.049919109
0.026523642
0.013271914
0.0087585335
0.007392094
0.0066158348
0.0060902619
0.0057133841
0.0054516255
0.0052773077
0.0051596794
0.0050781348
0.0050178278
0.0049776233
0.0049562768
0.017986026
0.022741612
0.028177442
0.034226419
0.040960841
0.048327639
0.056261415
0.064623534
0.07317885
0.081552102
0.089166988
0.09516659
0.098322531
0.096953365
0.088942868
0.07198464
0.047036788
0.024510351
0.012522559
0.0085786276
0.007323595
0.0065748977
0.0060651923
0.0056978077
0.0054425152
0.0052720884
0.0051566603
0.0050760146
0.0050164468
0.0049766339
0.0049554817
0.01960859
0.024662891
0.030347484
0.03665433
0.043616106
0.051156214
0.059203922
0.067601175
0.076095614
0.084290177
0.091583118
0.097087971
0.099547289
0.097259496
0.088116824
0.069909418
0.044343203
0.022801891
0.011954998
0.0084356626
0.0072645034
0.0065372314
0.0060414435
0.005682854
0.0054335504
0.0052669467
0.0051536904
0.0050738952
0.0050150763
0.0049756421
0.0049546806
0.021205765
0.026532628
0.032460535
0.039009314
0.046167992
0.053874976
0.062023362
0.070444767
0.078870989
0.086885153
0.093862052
0.09888673
0.10067382
0.097505849
0.087286818
0.067916736
0.041868578
0.021379083
0.011507648
0.0083226957
0.007211816
0.0065034532
0.0060204925
0.0056697679
0.0054256051
0.0052623567
0.0051510219
0.0050719046
0.0050137727
0.0049746688
0.0049538749
0.022772882
0.028345774
0.034512549
0.041282519
0.048612049
0.056478074
0.064711503
0.07314864
0.081504515
0.089342151
0.096013833
0.10057995
0.10172495
0.097721361
0.086489193
0.066035839
0.039635816
0.02022262
0.011188478
0.0082328303
0.0071661236
0.0064730574
0.0060012546
0.0056576478
0.005418058
0.0052579526
0.0051484682
0.0050699526
0.005012496
0.0049736993
0.0049530648
0.02431756
0.030108482
0.036497054
0.043469242
0.050975231
0.058932989
0.067263863
0.075710713
0.083995557
0.091666755
0.098046248
0.1021813
0.10272639
0.097942411
0.085767528
0.064286704
0.037657632
0.019312919
0.010964052
0.0081627991
0.007126279
0.0064462768
0.0059843723
0.0056470592
0.0054113454
0.0052539736
0.0051461564
0.0050681078
0.0050112765
0.0049727463
0.0049522497
0.025817337
0.031814287
0.038403453
0.045555685
0.053214732
0.061290399
0.069647954
0.078117244
0.086336546
0.093849756
0.099967979
0.10370602
0.10370089
0.098200486
0.085161993
0.062706068
0.035943219
0.018641007
0.01079695
0.0081055518
0.0070924857
0.0064228982
0.0059693479
0.0056375447
0.0054051615
0.0052502324
0.0051439863
0.0050663249
0.0050100933
0.0049718032
0.0049514278
0.027225774
0.033422603
0.040197811
0.047513933
0.055307554
0.063482995
0.071889404
0.08032894
0.088495611
0.095892509
0.10177788
0.1051673
0.1046688
0.098524558
0.08470837
0.061358474
0.034540898
0.018069539
0.010626294
0.0080571962
0.0070642794
0.0064029959
0.00595645
0.0056293377
0.0053997157
0.005246849
0.0051420183
0.005064641
0.0050089608
0.0049708749
0.004950599
0.028508983
0.034873217
0.041810412
0.049274817
0.057198702
0.065475379
0.073949585
0.082403915
0.090508867
0.097764726
0.10347021
0.1065755
0.10564902
0.098940547
0.084437402
0.060293388
0.033425089
0.017594925
0.010482524
0.0080196504
0.0070416623
0.0063864569
0.0059454497
0.0056221992
0.0053948558
0.0052437325
0.005140198
0.0050630348
0.0050078678
0.0049699586
0.0049497649
0.029857279
0.036297436
0.043323231
0.050884775
0.058901247
0.067258322
0.075792533
0.084275451
0.092362077
0.099539344
0.10507957
0.10791307
0.10665568
0.099470799
0.084375266
0.059548203
0.032575516
0.017196683
0.010351378
0.0079914702
0.0070244196
0.006373288
0.0059364617
0.0056162177
0.0053906758
0.0052409456
0.0051385539
0.0050615275
0.0050068215
0.0049690571
0.0049489269
0.031201172
0.037690296
0.044760528
0.052370596
0.060439575
0.068849226
0.077427838
0.085939339
0.094024989
0.10115715
0.10659063
0.10925087
0.10770565
0.10010114
0.084541811
0.059150381
0.031980475
0.016860202
0.010235275
0.0079731261
0.0070125633
0.0063634468
0.0059294094
0.0056112884
0.0053871053
0.0052384519
0.0051370593
0.0050601104
0.0050058159
0.0049681689
0.0049480857
0.032515304
0.039016784
0.046094567
0.053715892
0.061802731
0.070240791
0.078850823
0.087391188
0.095492364
0.10261484
0.10799521
0.11054635
0.10880808
0.10092264
0.084946865
0.05911996
0.031640355
0.016564227
0.010127979
0.0079641254
0.0070061839
0.0063569873
0.0059243881
0.0056074697
0.0053841902
0.0052362875
0.0051357276
0.005058794
0.005004853
0.0049672945
0.0049472403
0.033788436
0.040261804
0.047307188
0.054903516
0.062974208
0.071423929
0.080083722
0.088680226
0.096833513
0.10397059
0.10932242
0.11181241
0.10996201
0.10189403
0.085627969
0.059480418
0.031573847
0.016280577
0.010026351
0.0079644306
0.0070055141
0.0063539476
0.0059213925
0.0056047239
0.0053818882
0.0052344305
0.0051345397
0.0050575696
0.0050039254
0.0049664311
0.0049463903
0.035031098
0.041407088
0.048363495
0.055896708
0.063963248
0.072441112
0.081141187
0.089775434
0.09795163
0.10512732
0.11051758
0.11302789
0.11116514
0.10302166
0.08657241
0.06025124
0.031782514
0.015969079
0.0099319685
0.0079702538
0.0070083706
0.0063542366
0.0059203503
0.0056030114
0.0053801686
0.0052328688
0.0051334836
0.0050564327
0.0050030278
0.0049655774
0.0049455381
0.036239183
0.042415971
0.049183536
0.056565102
0.064541245
0.072981595
0.081687108
0.090371978
0.098635095
0.10591045
0.11140668
0.11401382
0.11221962
0.10409394
0.087554298
0.061146531
0.032251367
0.015544171
0.0098398284
0.0079879726
0.0070154561
0.0063560005
0.0059209084
0.0056021362
0.0053789096
0.00523154
0.0051325263
0.0050553706
0.0050021545
0.004964734
0.0049446848
0.0008862137
0.0018128092
0.0035950389
0.006283556
0.0098643693
0.014366313
0.019943221
0.026705849
0.034788905
0.043677019
0.053519666
0.063897208
0.074052487
0.082802355
0.088323178
0.087981251
0.078408853
0.058118565
0.033411122
0.016008931
0.0093321559
0.0073164315
0.0064717289
0.0059414887
0.0055809081
0.0053511536
0.0052003598
0.0051030723
0.0050334736
0.004987772
0.004963135
0.00093947641
0.0018598675
0.0036129754
0.006227207
0.0097127801
0.01414201
0.019634714
0.026290581
0.034234907
0.043034749
0.05272686
0.062980764
0.073107273
0.08193264
0.087667091
0.087714739
0.078746691
0.059006691
0.03430158
0.01637554
0.0094214976
0.0073452097
0.0064881451
0.0059514977
0.0055869787
0.0053545005
0.005202244
0.005104249
0.0050342696
0.004988345
0.0049634354
0.0010040949
0.0019116501
0.0036402637
0.0062067169
0.0096257152
0.013968371
0.019348614
0.025871387
0.033639957
0.042311876
0.051880001
0.062039649
0.072131191
0.081025003
0.08697016
0.087412403
0.079063577
0.059913714
0.035253449
0.016789603
0.0095200318
0.0073752742
0.0065045389
0.005961258
0.0055927336
0.0053587358
0.0052045377
0.005105602
0.0050351797
0.0049889265
0.0049638588
0.0010780641
0.0019660506
0.0036661792
0.0061842862
0.0095362306
0.013791624
0.019059482
0.025444594
0.03304222
0.041579158
0.051017367
0.061074117
0.071124044
0.080078392
0.086229985
0.08707065
0.079354361
0.060839744
0.036265818
0.017251136
0.0096296165
0.0074089902
0.0065238022
0.0059730305
0.0056001712
0.0053620933
0.0052065329
0.0051068781
0.0050360568
0.0049895797
0.0049643252
0.0011691129
0.0020312122
0.0036964679
0.0061647275
0.0094483485
0.013615133
0.018769543
0.025011922
0.032442278
0.040839093
0.050140738
0.060087266
0.070086558
0.079092607
0.085445123
0.086686846
0.079615417
0.061784796
0.03733715
0.01776076
0.0097528314
0.0074425439
0.0065407802
0.0059830579
0.0056061407
0.0053671863
0.0052092654
0.0051084687
0.0050371195
0.0049902646
0.0049647306
0.0012790026
0.0021033225
0.0037279273
0.0061439072
0.0093597619
0.013438772
0.018480923
0.024585883
0.031844716
0.040096038
0.049254277
0.059082619
0.069021232
0.07806905
0.084615447
0.086259388
0.079838721
0.062741135
0.03845757
0.018329131
0.0098916701
0.0074827065
0.0065633801
0.0059968247
0.005614969
0.0053719663
0.0052119519
0.0051100654
0.0050382004
0.0049909955
0.0049650916
0.0014137181
0.0021955345
0.0037713427
0.0061349719
0.0092837939
0.013275119
0.018204534
0.024170351
0.031256321
0.039356653
0.048362451
0.0580633
0.067929574
0.077008723
0.083740253
0.085784639
0.080016503
0.063689039
0.039632316
0.01895293
0.010049735
0.0075234015
0.0065846787
0.0060096522
0.0056232639
0.0053770554
0.0052148399
0.0051117735
0.0050393569
0.0049917707
0.0049656003
0.0015783072
0.0023083446
0.003830569
0.0061363395
0.0092158969
0.013118677
0.017934992
0.023761876
0.03068517
0.0386174
0.047464061
0.057029073
0.066809417
0.075912207
0.082818731
0.085258125
0.080152578
0.064630355
0.040894852
0.019642504
0.010226934
0.0075669529
0.0066066844
0.0060232405
0.0056321908
0.0053824688
0.005217923
0.005113575
0.0050405785
0.0049925925
0.0049662316
0.0017732786
0.0024418896
0.0039071729
0.0061542817
0.0091649034
0.012979525
0.017682772
0.02336909
0.03011255
0.037886299
0.046568439
0.05598902
0.065681341
0.074785195
0.081853531
0.084680117
0.08024047
0.065558402
0.04222102
0.020404021
0.010426273
0.0076138384
0.006629805
0.006037266
0.0056415638
0.0053882003
0.0052212392
0.0051155095
0.0050418898
0.0049934645
0.0049669465
0.002003273
0.0026110489
0.0040132671
0.0061977277
0.0091384168
0.012864866
0.017454753
0.022998835
0.029562544
0.037170355
0.045681839
0.054948877
0.064541501
0.073631333
0.080846399
0.084048831
0.080274402
0.066472819
0.043605832
0.02124413
0.010650793
0.0076639538
0.0066533117
0.0060522533
0.0056517295
0.0053942863
0.0052247749
0.0051175411
0.0050432651
0.0049943876
0.0049677089
0.0022701401
0.0028256623
0.0041602193
0.0062787406
0.0091470366
0.012784065
0.01725964
0.022660577
0.029054266
0.036487842
0.044813141
0.05391492
0.06338861
0.07245448
0.079799734
0.083363512
0.080249774
0.067357658
0.045048802
0.022171617
0.0109044
0.0077184463
0.0066780118
0.0060674948
0.0056621523
0.0054006899
0.0052285803
0.0051197369
0.005044751
0.0049953658
0.0049685147
0.0025709218
0.0030816781
0.00435276
0.0064053486
0.009200521
0.012747009
0.017106856
0.022363587
0.028586726
0.035827582
0.043967619
0.052894277
0.062235448
0.071259908
0.078716716
0.082624298
0.080161887
0.068195061
0.046505319
0.023186104
0.011190649
0.0077764679
0.0067028573
0.0060839185
0.0056736196
0.005407491
0.0052326263
0.005122031
0.0050462876
0.0049963957
0.0049693241
0.0029054105
0.0033897949
0.0046092568
0.0065925848
0.0093121771
0.012766247
0.017009209
0.022116787
0.028166086
0.035193815
0.043151246
0.051894513
0.061089121
0.070053092
0.077601246
0.081832175
0.080007131
0.068976777
0.047960933
0.02429441
0.011514724
0.0078406053
0.00672853
0.006100321
0.0056849101
0.0054145605
0.0052369702
0.005124524
0.0050479605
0.0049974948
0.0049701734
0.0032661122
0.0037517941
0.0049285601
0.0068556391
0.0094979316
0.012856286
0.016979681
0.021932692
0.027803362
0.034629517
0.042385925
0.050926162
0.059957314
0.068835811
0.076457743
0.080988936
0.07978287
0.069693339
0.049427303
0.025498631
0.011881246
0.0079089335
0.0067548301
0.0061178696
0.0056975646
0.0054221312
0.0052415765
0.0051271239
0.0050496571
0.0049986415
0.0049710853
0.0036707977
0.0041837408
0.0053391072
0.0072089569
0.0097755951
0.013034423
0.017032371
0.021825068
0.027508501
0.034128874
0.041671851
0.049997723
0.058849127
0.067629077
0.07529292
0.080097387
0.079487342
0.070335455
0.050889959
0.026803145
0.012296721
0.0079851641
0.0067807235
0.006135381
0.0057095186
0.0054298254
0.0052464993
0.0051299477
0.0050515209
0.0049998766
0.0049720545
0.0041407871
0.0047171324
0.0058767202
0.0077013418
0.010171987
0.013318549
0.01718082
0.021806129
0.027291495
0.033696334
0.04099498
0.049112542
0.057772755
0.066441523
0.074113972
0.079161349
0.079119882
0.070894034
0.052345093
0.028189337
0.012764997
0.0080698833
0.0068079259
0.0061529602
0.0057228263
0.0054382456
0.0052517031
0.0051329121
0.0050533722
0.0050011391
0.0049730679
0.0047251436
0.0053693235
0.0065356992
0.0083039282
0.01069011
0.013716595
0.017432697
0.021883285
0.027160148
0.033342211
0.040403974
0.048282916
0.056734484
0.065260289
0.072925536
0.078185305
0.07868159
0.0713627
0.053784187
0.029701136
0.013298031
0.0081591406
0.0068351002
0.0061718072
0.0057356506
0.0054465275
0.005257251
0.0051360807
0.0050554193
0.0050025212
0.0049741189
0.005473939
0.0061645518
0.0073231022
0.0090280542
0.011321111
0.014223456
0.017786571
0.022056638
0.027117175
0.03306958
0.039887502
0.047524291
0.055742258
0.06410355
0.071734122
0.077174324
0.078175243
0.071742407
0.05520495
0.031306696
0.013892268
0.0082746107
0.0068587029
0.0061872503
0.0057482888
0.0054558098
0.0052630455
0.0051394664
0.0050574269
0.0050038886
0.0049752052
0.0064248428
0.0071267087
0.0082589276
0.0098946337
0.012082551
0.014836651
0.018234969
0.022318559
0.027158575
0.032875679
0.039441844
0.046815932
0.054797629
0.062976037
0.070545298
0.0761331
0.077601929
0.072034616
0.056576754
0.032936048
0.014568346
0.0083931425
0.0068915048
0.0062078056
0.0057628714
0.0054648135
0.0052692889
0.0051429452
0.0050596392
0.0050054178
0.0049763246
0.0075816913
0.0082548012
0.0093232608
0.010858814
0.012910706
0.015528123
0.01875922
0.02265293
0.027272479
0.032750499
0.039058601
0.046157362
0.053897884
0.061879439
0.069363307
0.075065449
0.076961934
0.072224807
0.057868524
0.034642627
0.015307822
0.0085384462
0.0069082657
0.0062196535
0.0057733312
0.0054746163
0.005275556
0.005146764
0.005061833
0.0050068672
0.0049774738
0.0089120926
0.0095213447
0.010490642
0.011898533
0.01380418
0.01626851
0.019327985
0.023032464
0.027437368
0.032677014
0.038728052
0.045562343
0.053042293
0.060810996
0.06817706
0.073971893
0.076256799
0.072311455
0.059068355
0.036410005
0.016152769
0.0087164099
0.0069393381
0.0062393532
0.0057895914
0.0054848548