/*--------------------------------*- C++ -*----------------------------------*\
| =========                 |                                                 |
| \\      /  F ield         | OpenFOAM: The Open Source CFD Toolbox           |
|  \\    /   O peration     | Version:  2406                                  |
|   \\  /    A nd           | Website:  www.openfoam.com                      |
|    \\/     M anipulation  |                                                 |
\*---------------------------------------------------------------------------*/
FoamFile
{
    version     2.0;
    format      ascii;
    arch        "LSB;label=32;scalar=64";
    class       volVectorField;
    location    "0.028";
    object      U;
}
// * * * * * * * * * * * * * * * * * * * * * * * * * * * * * * * * * * * * * //

dimensions      [0 1 -1 0 0 0 0];

internalField   nonuniform List<vector> 
8260
(
(40.333995 29.156797 0)
(41.719102 27.860624 -2.4636395e-20)
(43.040115 26.564201 2.1285987e-20)
(44.318888 25.264315 -3.6407489e-20)
(45.552639 23.921719 1.5437023e-20)
(46.72303 22.554422 -2.6050822e-20)
(47.819764 21.198711 -1.0892443e-20)
(48.833657 19.887323 -1.4738112e-23)
(49.798051 18.645115 4.9342789e-21)
(50.753163 17.473362 0)
(51.644599 16.387405 4.5922976e-20)
(52.492962 15.379471 0)
(53.29059 14.429645 0)
(54.001182 13.502154 -7.0365772e-20)
(54.463495 12.536767 1.8563998e-23)
(54.508096 11.444793 0)
(53.884678 9.9151316 0)
(52.980661 8.2475945 6.7885973e-19)
(52.527463 7.0813384 5.7067464e-21)
(52.270999 6.1487397 -6.9662483e-19)
(52.051068 5.3318524 -1.2704257e-18)
(51.859007 4.6006311 -1.1436382e-18)
(51.662756 3.9440803 -2.0709658e-18)
(51.495551 3.3483252 1.8505747e-18)
(51.364127 2.8164474 1.64306e-18)
(51.245439 2.3350082 0)
(51.142184 1.877144 2.5818682e-18)
(51.054856 1.4507694 2.2781679e-18)
(50.982254 1.0374911 4.0212647e-18)
(50.938614 0.62393111 0)
(50.907795 0.21210333 6.2412182e-18)
(39.330665 28.381355 2.4134499e-20)
(40.775621 27.208455 -1.7513136e-23)
(42.148573 26.095612 -1.8766965e-20)
(43.484422 24.947806 4.9378566e-20)
(44.784295 23.741462 0)
(46.032318 22.493692 2.4581256e-20)
(47.214976 21.234674 4.2150048e-20)
(48.325431 19.995172 2.6999117e-20)
(49.378689 18.800823 -3.0845182e-20)
(50.394405 17.658692 1.327649e-20)
(51.349536 16.57999 -5.2043638e-20)
(52.249361 15.565566 0)
(53.083681 14.599103 0)
(53.811935 13.649576 1.4479559e-19)
(54.274702 12.630789 -1.510786e-19)
(54.287164 11.498586 1.872684e-19)
(53.644523 9.8809539 2.6655433e-24)
(52.792009 8.219217 -2.1341251e-20)
(52.408499 7.0777649 2.2245415e-20)
(52.185268 6.1482005 -6.6738828e-19)
(51.984662 5.3324668 -9.5502752e-21)
(51.806472 4.6009158 1.1071701e-18)
(51.620957 3.9444139 1.9876173e-18)
(51.462539 3.3489368 -3.468826e-21)
(51.338046 2.8171745 6.2012687e-21)
(51.224124 2.335938 -2.7383824e-21)
(51.124474 1.877593 -2.4825832e-18)
(51.040002 1.4511841 -2.1948583e-18)
(50.969394 1.0375175 -3.8817999e-18)
(50.927248 0.62358424 3.427213e-18)
(50.897371 0.21176691 -6.0482663e-18)
(38.284653 27.330327 -2.0255126e-20)
(39.70956 26.384213 1.8179533e-20)
(41.127488 25.476752 0)
(42.527641 24.503693 -3.0043272e-20)
(43.900391 23.453523 2.6827313e-20)
(45.230633 22.343652 0)
(46.503878 21.199741 -4.1490209e-20)
(47.710839 20.049671 -9.0521826e-21)
(48.85644 18.919167 3.9441319e-20)
(49.94964 17.818883 0)
(50.97723 16.759029 4.8751336e-20)
(51.937116 15.745859 0)
(52.816499 14.766654 0)
(53.569315 13.795058 -7.4000894e-20)
(54.04077 12.726099 -5.1937716e-21)
(54.030633 11.54534 -2.0677875e-19)
(53.376705 9.8305133 2.7897259e-19)
(52.595981 8.2098642 -1.3584309e-18)
(52.279799 7.0993418 0)
(52.088573 6.1705875 6.3114484e-19)
(51.909047 5.3533892 0)
(51.746618 4.618335 -8.0798512e-21)
(51.57349 3.9586349 1.4453491e-20)
(51.424802 3.3604621 -1.288139e-20)
(51.308125 2.8261956 -1.459001e-18)
(51.199713 2.3431671 0)
(51.104239 1.8827337 0)
(51.023059 1.4550126 1.9824002e-21)
(50.954745 1.0399774 -1.7510098e-21)
(50.914322 0.62506212 -3.1662103e-18)
(50.88551 0.21229738 -4.2019838e-23)
(37.410272 26.139605 6.7438731e-20)
(38.788879 25.414888 -4.655251e-20)
(40.202171 24.710773 2.9237139e-20)
(41.625578 23.925178 2.7113909e-20)
(43.040659 23.047265 -7.450971e-20)
(44.429447 22.091808 -2.2479514e-20)
(45.774844 21.080573 2.0163744e-20)
(47.063448 20.03763 -1.7954693e-20)
(48.291986 18.986916 1.5948265e-20)
(49.462071 17.942128 0)
(50.56097 16.914181 5.0878899e-20)
(51.581681 15.911516 0)
(52.507525 14.924917 -8.6900752e-20)
(53.284345 13.932113 0)
(53.761959 12.815069 -1.81556e-19)
(53.7242 11.574409 6.8571593e-21)
(53.065661 9.7604528 4.3655094e-23)
(52.376552 8.2052429 6.5795059e-19)
(52.132262 7.1188278 -6.4394447e-19)
(51.977 6.1888501 0)
(51.821782 5.369821 -1.0648464e-18)
(51.677373 4.6314063 -7.4631793e-21)
(51.518568 3.9689983 6.6552612e-21)
(51.381294 3.3687973 -1.5153123e-18)
(51.273725 2.8327431 0)
(51.171667 2.3485171 0)
(51.081023 1.8864492 0)
(51.003638 1.4577844 -1.8587715e-18)
(50.93801 1.041643 0)
(50.899569 0.62588438 2.8977925e-18)
(50.872014 0.21249256 5.1131657e-18)
(36.720794 24.852055 -1.3917549e-20)
(38.032355 24.326578 0)
(39.404427 23.811926 -2.5375275e-20)
(40.813294 23.212825 2.4206664e-20)
(42.237706 22.51441 2.2733954e-20)
(43.656929 21.725227 4.2114676e-20)
(45.050982 20.861582 1.9311987e-20)
(46.402419 19.942509 -1.7575927e-20)
(47.700506 18.98844 -1.5910942e-20)
(48.93919 18.014453 8.6455566e-20)
(50.10421 17.032381 -1.3096457e-20)
(51.183296 16.050948 0)
(52.154373 15.063928 1.7281855e-19)
(52.952671 14.051576 -4.5708455e-24)
(53.430417 12.886989 2.0882687e-19)
(53.35896 11.569045 1.4811269e-20)
(52.70693 9.6714799 -3.189833e-19)
(52.138798 8.2014965 6.1914185e-19)
(51.966773 7.1371332 6.3692679e-19)
(51.850426 6.2075447 2.3418133e-24)
(51.722731 5.3879236 9.625781e-19)
(51.598573 4.6467555 8.7408896e-19)
(51.45617 3.9816925 6.0755824e-21)
(51.331813 3.3792812 1.3752949e-18)
(51.234568 2.8411315 1.2231757e-18)
(51.139752 2.3553788 0)
(51.054629 1.8913498 -3.7340679e-21)
(50.981544 1.4614257 1.6918762e-18)
(50.918991 1.0439215 -2.9814537e-18)
(50.88279 0.62713589 -2.6320241e-18)
(50.856666 0.21288 5.6675437e-22)
(36.231037 23.491424 2.2914707e-20)
(37.45746 23.143697 -2.2054246e-20)
(38.760536 22.800543 -2.1842858e-20)
(40.122171 22.37738 4.2675821e-20)
(41.522589 21.856042 -4.1044805e-20)
(42.940627 21.237473 0)
(44.354805 20.530891 0)
(45.74461 19.749029 0)
(47.093173 18.907324 3.1380338e-20)
(48.386976 18.019709 3.5096289e-23)
(49.608605 17.097753 -5.357846e-20)
(50.739883 16.14921 1.1321101e-19)
(51.751821 15.169987 -2.0593281e-19)
(52.566537 14.139742 -1.0987074e-19)
(53.034677 12.926335 2.6362073e-20)
(52.925631 11.509609 -1.5739412e-20)
(52.2998 9.5626014 1.8649323e-20)
(51.881366 8.1968351 -6.1880373e-19)
(51.780497 7.1522701 -1.7248008e-20)
(51.706526 6.2243284 -4.9732431e-19)
(51.610225 5.4047536 -8.7654925e-19)
(51.508619 4.661277 -1.5870723e-18)
(51.384937 3.9937498 -1.4202311e-18)
(51.27536 3.3892897 -8.2301686e-25)
(51.189892 2.8492059 8.6692788e-21)
(51.103351 2.3620388 1.9543712e-18)
(51.024567 1.8961378 0)
(50.956357 1.464951 1.5270396e-18)
(50.897351 1.0460964 2.6877129e-18)
(50.863683 0.62825955 0)
(50.839213 0.2131898 0)
(35.956053 22.080613 8.6767673e-21)
(37.083921 21.894107 -3.6906164e-20)
(38.296796 21.702971 3.7413379e-20)
(39.583073 21.4385 -1.8665641e-20)
(40.92744 21.082827 -1.8383423e-20)
(42.311125 20.630264 0)
(43.713229 20.082531 0)
(45.11182 19.445283 0)
(46.485788 18.7277 -3.0583914e-20)
(47.815374 17.940021 -5.7472019e-20)
(49.078622 17.091485 0)
(50.250858 16.187395 -1.0335291e-19)
(51.294583 15.224572 1.262934e-19)
(52.116462 14.176097 -3.5461147e-23)
(52.560351 12.910761 1.6806868e-19)
(52.412381 11.369532 3.2760361e-20)
(51.853228 9.4416777 -3.6052924e-20)
(51.603273 8.1872062 5.8967383e-19)
(51.571704 7.1619331 0)
(51.543219 6.2384203 4.5117949e-19)
(51.482881 5.4203271 8.0509012e-19)
(51.406366 4.6756631 1.4316092e-18)
(51.303929 4.0061366 -9.9815829e-21)
(51.211211 3.3998576 8.7790282e-21)
(51.139055 2.8579036 3.3294169e-23)
(51.061923 2.3692878 -1.7556879e-18)
(50.990399 1.9014819 0)
(50.927695 1.4688495 2.5152886e-23)
(50.872771 1.0485405 0)
(50.84194 0.62954675 0)
(50.819385 0.21356604 1.879856e-18)
(35.907367 20.687379 -2.3985416e-23)
(36.924196 20.623722 -2.3217845e-20)
(38.029687 20.554803 7.9943755e-21)
(39.217772 20.424052 1.6292969e-20)
(40.478247 20.213597 1.6366209e-20)
(41.796321 19.912765 0)
(43.153528 19.516494 0)
(44.528486 19.023224 0)
(45.898089 18.435021 0)
(47.238155 17.756312 -2.8336332e-20)
(48.521823 16.991624 2.7191655e-20)
(49.71743 16.141843 0)
(50.777145 15.20292 -2.6168226e-20)
(51.591636 14.129238 2.6985458e-20)
(51.990418 12.809327 -4.7087618e-19)
(51.804415 11.1244 3.3157651e-20)
(51.380301 9.3138908 -3.4042152e-20)
(51.302218 8.1681497 -5.0679491e-19)
(51.338068 7.1628853 0)
(51.358333 6.247775 0)
(51.338648 5.4328602 0)
(51.290376 4.6884552 2.0121294e-20)
(51.211783 4.0175739 1.1285477e-18)
(51.138397 3.4099089 5.1560033e-25)
(51.081258 2.8663334 -1.7853716e-18)
(51.014751 2.3764205 1.5643214e-18)
(50.951501 1.906888 1.3915717e-18)
(50.895045 1.4727195 -2.4466534e-18)
(50.844848 1.0509753 0)
(50.817175 0.63078368 0)
(50.796896 0.2139055 -1.6802316e-18)
(36.071459 19.332405 -6.1471087e-21)
(36.972482 19.357804 2.6087317e-20)
(37.960109 19.38267 -3.4326299e-20)
(39.03438 19.357862 -1.423985e-20)
(40.189831 19.267084 1.459283e-20)
(41.415925 19.096555 -2.9496589e-20)
(42.697878 18.835896 2.947337e-20)
(44.016731 18.477151 0)
(45.349647 18.015289 0)
(46.670123 17.447658 0)
(47.94696 16.771985 0)
(49.140997 15.982533 1.0723145e-19)
(50.19164 15.071474 -1.3500978e-19)
(50.980582 13.947751 2.7907424e-20)
(51.303033 12.584937 2.4195737e-19)
(51.104014 10.762078 0)
(50.90234 9.1873154 0)
(50.975998 8.1348348 4.5863373e-19)
(51.078237 7.1508747 2.5619432e-20)
(51.150289 6.2497187 -2.2801857e-20)
(51.174842 5.4407887 0)
(51.159145 4.698868 -5.5606431e-19)
(51.107132 4.0277649 8.9307073e-25)
(51.055915 3.4194289 -8.9773799e-19)
(51.015657 2.8745621 -3.3635319e-23)
(50.961065 2.3835503 -1.4107898e-18)
(50.907148 1.912527 -1.2353186e-18)
(50.857812 1.4766586 1.0900422e-18)
(50.813123 1.0535053 -1.8783987e-21)
(50.788948 0.6320607 8.2858782e-22)
(50.771385 0.21425212 7.3090713e-22)
(36.420999 18.034285 0)
(37.210746 18.113217 -4.4382071e-20)
(38.078676 18.203863 4.7669359e-20)
(39.030674 18.25768 0)
(40.066011 18.257912 -7.8643491e-20)
(41.178962 18.190748 2.2366871e-23)
(42.359372 18.042264 5.4897198e-20)
(43.591955 17.799638 2.7626549e-20)
(44.855792 17.451616 0)
(46.12385 16.988125 -2.3587076e-23)
(47.361473 16.398757 -6.6197123e-24)
(48.521178 15.66931 -1.6363925e-19)
(49.526266 14.782515 5.5668213e-20)
(50.251929 13.596337 5.8049131e-20)
(50.475386 12.136578 6.151054e-20)
(50.364717 10.319693 2.4702632e-19)
(50.430977 9.0531761 -5.7037527e-20)
(50.621526 8.0805972 9.0612149e-23)
(50.7922 7.121276 0)
(50.918184 6.2402001 -3.4515821e-19)
(50.988729 5.4415124 -5.5800564e-19)
(51.010598 4.704945 0)
(50.988203 4.0353488 0)
(50.962345 3.4274513 7.8607431e-19)
(50.94108 2.8818034 7.1605663e-19)
(50.899917 2.3901054 1.2445001e-18)
(50.856452 1.91802 -8.5783834e-21)
(50.815215 1.4803322 3.7840411e-21)
(50.777005 1.05593 1.7126489e-18)
(50.756731 0.63323644 0)
(50.742426 0.21452893 1.3301503e-18)
(36.916933 16.786881 -3.0247697e-20)
(37.595536 16.903621 3.4048434e-20)
(38.346853 17.033348 -4.2521921e-20)
(39.177106 17.13221 -4.5488909e-20)
(40.086523 17.191134 1.2033346e-20)
(41.074182 17.194077 5.0260916e-20)
(42.134675 17.126291 0)
(43.256764 16.972198 -2.6573097e-20)
(44.422194 16.715345 0)
(45.604439 16.338161 -4.1938141e-23)
(46.76583 15.821327 0)
(47.849047 15.139732 -5.6087347e-20)
(48.757374 14.254258 5.7847449e-20)
(49.358209 12.963618 5.9671876e-20)
(49.524059 11.41855 -2.4046418e-19)
(49.671085 9.9315738 -5.1024078e-19)
(49.945331 8.9538012 5.131218e-20)
(50.248379 7.9488606 -4.1458542e-19)
(50.481672 7.0689125 -2.864572e-19)
(50.659054 6.2362486 -3.6317836e-20)
(50.780953 5.4129876 4.8038391e-19)
(50.842423 4.7036825 4.8109236e-19)
(50.852964 4.0390322 2.5058297e-20)
(50.855916 3.433324 6.8665991e-19)
(50.855976 2.8875754 0)
(50.830233 2.3958377 -2.2079835e-18)
(50.798529 1.9232177 -7.6090092e-21)
(50.766365 1.4836 6.7124229e-21)
(50.735776 1.0582091 3.9512823e-23)
(50.719948 0.63430557 1.3059438e-21)
(50.709395 0.21472159 -1.1807142e-18)
(37.564599 15.541469 0)
(38.123015 15.66255 0)
(38.750678 15.800613 0)
(39.450756 15.92244 0)
(40.226673 16.012036 0)
(41.079589 16.05499 -1.0930612e-19)
(42.006579 16.036818 1.0186722e-19)
(42.998606 15.940375 0)
(44.038598 15.744865 -1.0894544e-19)
(45.099281 15.425381 1.1164843e-19)
(46.137865 14.952816 5.7217039e-20)
(47.082352 14.284159 0)
(47.829599 13.337553 1.8060382e-19)
(48.283801 12.009742 -6.0052752e-20)
(48.637835 10.564419 1.6929707e-19)
(49.034997 9.6645584 5.1309337e-20)
(49.484086 8.6649779 -1.8484946e-19)
(49.842841 7.8430689 -3.694577e-19)
(50.143653 6.9914751 6.1862412e-19)
(50.378537 6.1730645 5.154252e-19)
(50.546776 5.420926 0)
(50.653662 4.68506 -2.5077902e-20)
(50.699447 4.0302323 2.2192092e-20)
(50.734746 3.4356654 -6.2796427e-19)
(50.758565 2.8907496 0)
(50.75081 2.4000371 1.9550979e-18)
(50.732515 1.9275 0)
(50.71039 1.4860407 -5.9440298e-21)
(50.688625 1.0600908 -2.6792911e-18)
(50.677983 0.63510362 0)
(50.671531 0.21473762 0)
(38.22329 14.195468 0)
(38.673471 14.300003 0)
(39.188645 14.41909 0)
(39.766245 14.533565 8.7717195e-20)
(40.412118 14.621021 -1.7741947e-19)
(41.129471 14.668172 2.1489279e-19)
(41.916296 14.661637 -1.3383473e-19)
(42.762491 14.583254 2.8074324e-20)
(43.648605 14.408266 1.4586332e-19)
(44.544945 14.1053 -7.3494496e-23)
(45.41374 13.629298 -6.1466467e-20)
(46.186344 12.923879 -2.4662694e-19)
(46.777294 11.937373 1.2043027e-19)
(47.283994 10.855345 0)
(47.893253 10.023437 0)
(48.502565 9.1959749 9.2576335e-20)
(48.988456 8.4523716 3.2906407e-19)
(49.426737 7.6497947 7.2944576e-19)
(49.782937 6.870144 -3.2287596e-19)
(50.072522 6.1112986 -5.7068309e-20)
(50.29556 5.3546771 5.0476245e-20)
(50.440932 4.6834643 -3.7887748e-19)
(50.527242 4.0103633 1.9675412e-20)
(50.597441 3.4330977 0)
(50.64755 2.8916441 0)
(50.660455 2.4008281 -8.6422228e-19)
(50.65751 1.9301589 0)
(50.646728 1.4873566 0)
(50.63477 1.06138 1.1870774e-18)
(50.630198 0.63550526 -1.0471851e-18)
(50.627911 0.21452922 -9.236735e-19)
(38.83785 12.419528 -2.3385635e-23)
(39.207175 12.478186 -1.7586876e-19)
(39.62344 12.566844 9.0189389e-20)
(40.097075 12.645694 0)
(40.629369 12.713327 9.8744914e-24)
(41.216397 12.757474 1.3438046e-19)
(41.855252 12.751217 -4.5483132e-23)
(42.538019 12.674442 -3.2293569e-20)
(43.247096 12.502988 -3.2773078e-20)
(43.954865 12.212847 -6.5419978e-20)
(44.63382 11.765765 -6.4032948e-20)
(45.273222 11.176671 0)
(45.923334 10.513482 0)
(46.640632 9.9358283 0)
(47.347854 9.3653497 0)
(47.959908 8.7893535 -1.6475098e-19)
(48.52039 8.0847846 -1.460403e-19)
(49.001278 7.4166876 -2.5868307e-19)
(49.407042 6.701273 0)
(49.746431 5.9960259 -2.0219869e-19)
(50.020283 5.3095397 0)
(50.212292 4.6266134 3.1537815e-19)
(50.335842 3.9938972 0)
(50.443996 3.4231881 0)
(50.52242 2.8903058 0)
(50.558469 2.3955367 0)
(50.57257 1.930063 0)
(50.575162 1.4871159 -9.2903718e-21)
(50.573504 1.0616737 8.1945137e-21)
(50.575931 0.63520599 1.8522952e-18)
(50.5776 0.21402212 8.1450461e-19)
(39.328637 10.363449 2.6334173e-23)
(39.55678 10.427827 0)
(39.844462 10.512159 1.9072927e-21)
(40.202928 10.58638 1.1503292e-19)
(40.650165 10.602842 -2.4747293e-19)
(41.141962 10.613491 -3.5654723e-20)
(41.664864 10.568623 -2.1478556e-19)
(42.227091 10.47399 5.6282278e-19)
(42.825697 10.326367 -2.7362811e-19)
(43.437642 10.170519 -6.5848958e-20)
(44.073631 9.9465661 -2.3053649e-23)
(44.746703 9.7060138 5.7498118e-20)
(45.479819 9.4416487 0)
(46.189023 9.1216211 0)
(46.854985 8.7185813 0)
(47.497185 8.2213511 2.9225038e-19)
(48.069651 7.687045 0)
(48.591891 7.1075754 -2.2907278e-19)
(49.027892 6.4857057 0)
(49.404219 5.8438653 0)
(49.72894 5.1965333 0)
(49.963248 4.5801675 -2.4377895e-19)
(50.130639 3.9504257 -3.0732627e-20)
(50.276928 3.4028149 -4.609181e-19)
(50.384054 2.8729483 2.3913915e-20)
(50.443828 2.3974676 0)
(50.477245 1.92256 0)
(50.49532 1.4851019 5.2487315e-19)
(50.504187 1.0604776 9.330084e-19)
(50.514565 0.63388103 -3.1595347e-21)
(50.519745 0.21321963 -2.8147926e-21)
(40.247568 8.0779525 0)
(40.409875 8.1790261 -1.0626752e-20)
(40.581401 8.3171209 1.0833834e-20)
(40.770784 8.4605701 -1.0870964e-20)
(40.988604 8.661518 -2.0832469e-20)
(41.288472 8.794102 2.018374e-20)
(41.654553 8.924295 -3.8661657e-20)
(42.089321 9.0192741 -3.6281007e-20)
(42.614908 8.8936043 0)
(43.169304 8.8164888 -2.4195328e-19)
(43.794904 8.658524 4.999285e-19)
(44.465605 8.5998355 -5.1415059e-20)
(45.154316 8.4608426 -9.2418995e-20)
(45.812235 8.2511771 1.646958e-19)
(46.467344 7.9721899 -2.9220459e-19)
(47.090959 7.6298258 8.4958362e-24)
(47.671448 7.1880054 -1.1456348e-19)
(48.204008 6.7367393 4.0505158e-19)
(48.662573 6.2030648 0)
(49.058645 5.6452137 0)
(49.41849 5.0728342 6.9701803e-20)
(49.699999 4.4762454 -7.0965974e-24)
(49.912189 3.8981174 -2.7133713e-20)
(50.099184 3.3691887 -2.3974879e-20)
(50.232189 2.8555238 -3.3772184e-19)
(50.317096 2.3752326 0)
(50.370694 1.9168834 0)
(50.405972 1.4842334 -4.560798e-19)
(50.426549 1.0563742 -1.6346582e-18)
(50.445629 0.63007918 -7.2657109e-19)
(50.453639 0.21213178 0)
(41.01814 6.483457 0)
(41.190031 6.557861 1.1887098e-20)
(41.381817 6.6600696 -4.0862261e-19)
(41.595482 6.7656662 4.373235e-23)
(41.815802 6.8875021 3.808365e-19)
(42.051778 7.0091943 -2.0937815e-20)
(42.310581 7.1096191 3.8883118e-20)
(42.556333 7.2208286 3.5569514e-20)
(42.80512 7.5539955 0)
(43.192299 7.6954072 5.5745221e-20)
(43.719667 7.6452928 -4.8583506e-20)
(44.263216 7.5651469 1.7638592e-19)
(44.858451 7.4217037 -3.2010459e-19)
(45.4872 7.310546 1.4477561e-19)
(46.143951 7.2139307 0)
(46.772324 6.9737985 1.1446322e-19)
(47.328367 6.6599662 2.3037694e-23)
(47.848448 6.2983836 -1.7885875e-19)
(48.315446 5.8702121 2.3699924e-19)
(48.728345 5.3918698 6.9720981e-20)
(49.105939 4.8807111 -3.0766551e-19)
(49.419727 4.3588657 -2.1713055e-19)
(49.68095 3.8115799 0)
(49.910456 3.3182999 3.3781563e-19)
(50.068315 2.81819 2.606867e-19)
(50.176222 2.3589033 3.2845713e-20)
(50.251679 1.9021993 0)
(50.306318 1.4717191 0)
(50.340719 1.050652 -5.6708964e-21)
(50.36856 0.62732993 4.9687402e-21)
(50.378725 0.21077089 0)
(41.638464 5.5800279 -8.8639165e-19)
(41.743811 5.6584739 8.4007605e-19)
(41.866853 5.7481596 7.8481813e-19)
(42.012766 5.8418654 -7.2431662e-19)
(42.187379 5.9401009 -6.8214528e-19)
(42.399238 6.0442156 6.4585284e-19)
(42.663274 6.151888 -6.0553424e-19)
(42.990121 6.2494736 5.1507352e-19)
(43.310279 6.3678143 -4.588655e-19)
(43.620153 6.3893484 -5.1401321e-20)
(43.852522 6.7105831 4.0181076e-19)
(44.230104 6.8092557 3.5720557e-19)
(44.732593 6.6333015 -4.1416879e-19)
(45.285029 6.4774626 0)
(45.859456 6.3957534 2.2685556e-19)
(46.481851 6.2795303 -4.0411705e-19)
(47.043647 6.0753569 8.945872e-20)
(47.536133 5.8086536 0)
(47.997391 5.4622871 -2.0914797e-19)
(48.425141 5.0923859 1.2882188e-23)
(48.805904 4.6629825 4.3430088e-19)
(49.136413 4.1765868 2.39409e-19)
(49.433103 3.7000043 4.2232014e-20)
(49.704703 3.2458347 -3.7249892e-19)
(49.891077 2.7743136 2.9564798e-19)
(50.022094 2.3213382 2.0278614e-19)
(50.119344 1.8774003 1.2774111e-20)
(50.19534 1.4591495 3.7175701e-19)
(50.246281 1.0414528 6.4579546e-19)
(50.282989 0.62128368 5.5214002e-19)
(50.294797 0.2089638 0)
(42.38469 4.6224249 -6.5204713e-21)
(42.48446 4.6909252 -2.4016471e-20)
(42.598497 4.7697885 -7.2228738e-19)
(42.727556 4.8525067 1.3416347e-18)
(42.871535 4.9400178 -1.2332666e-18)
(43.02879 5.0315657 5.7960433e-19)
(43.195779 5.1240638 0)
(43.373201 5.2144552 0)
(43.584295 5.2927365 -2.568318e-20)
(43.857601 5.3891991 4.5898877e-20)
(44.209048 5.3962955 2.8622442e-19)
(44.519253 5.3999975 -6.1786808e-19)
(44.794786 5.8100624 3.1033687e-19)
(45.235675 5.7590283 0)
(45.696629 5.6757492 0)
(46.189535 5.4919847 0)
(46.741804 5.4188488 -1.5691139e-19)
(47.260057 5.2710263 2.0910134e-19)
(47.715343 5.010119 0)
(48.155387 4.7328545 -1.0856713e-19)
(48.533414 4.3815582 9.5790187e-20)
(48.858527 3.9733526 -3.3787125e-19)
(49.178583 3.5503183 1.4898663e-19)
(49.479691 3.145038 -9.8578817e-20)
(49.69841 2.7009915 -2.0274276e-19)
(49.855552 2.2761659 -2.0433507e-19)
(49.975377 1.8469272 3.3790195e-19)
(50.073053 1.4337182 -2.9797448e-19)
(50.142091 1.0270905 0)
(50.188525 0.61425802 -4.9454147e-19)
(50.20188 0.20674577 0)
(42.972532 3.9358281 7.616323e-19)
(43.037523 3.9943413 2.9621873e-24)
(43.112745 4.0604633 1.0120883e-20)
(43.20055 4.1296814 0)
(43.304201 4.2038196 -1.7167615e-20)
(43.428229 4.284032 4.9980807e-19)
(43.579031 4.3712251 -4.5196506e-19)
(43.760974 4.466379 0)
(43.968355 4.571249 2.276431e-20)
(44.18749 4.6749387 3.454608e-19)
(44.414127 4.7960814 3.6141875e-20)
(44.713693 4.9041737 -5.1413163e-19)
(45.052871 4.8416176 5.6586423e-20)
(45.308926 5.0744784 1.9640568e-19)
(45.64683 5.1595514 0)
(46.040529 4.9273668 0)
(46.492091 4.7737505 -6.8254313e-20)
(46.983479 4.6550469 1.0059661e-23)
(47.469043 4.50842 1.0849787e-19)
(47.912902 4.3351463 -2.0612466e-23)
(48.278847 4.0706359 -2.5334314e-19)
(48.601012 3.7172322 7.4473286e-20)
(48.939786 3.3708825 6.5689271e-20)
(49.248323 3.0133938 2.8959104e-19)
(49.490992 2.6103571 -5.9177159e-24)
(49.679349 2.205517 -2.2523568e-20)
(49.822547 1.7960489 -6.3550832e-19)
(49.940253 1.4027453 -1.751486e-20)
(50.027097 1.0064113 0)
(50.084613 0.60398246 0)
(50.100202 0.20445406 0)
(43.625302 3.1908217 1.3598521e-18)
(43.685493 3.239941 1.2526179e-18)
(43.75446 3.2953125 -1.1685539e-18)
(43.833089 3.3532356 1.0706552e-18)
(43.922256 3.4153824 -9.6480415e-19)
(44.022685 3.4825525 8.7638832e-19)
(44.133678 3.5537288 -8.0351527e-19)
(44.254873 3.6267541 0)
(44.392005 3.69894 0)
(44.557691 3.7700106 5.5728568e-19)
(44.76028 3.8317095 -4.7964612e-19)
(44.971438 3.8759457 0)
(45.193879 3.9960957 -5.0295862e-20)
(45.505438 3.974736 0)
(45.768552 3.9619495 0)
(46.039111 4.3150024 -6.7292368e-20)
(46.39827 4.1987662 2.9579886e-19)
(46.786152 4.0533008 -4.2621537e-19)
(47.236433 3.9388824 -9.5274336e-20)
(47.685844 3.894581 2.5327776e-19)
(48.040161 3.6868018 -2.5938099e-23)
(48.369728 3.4400907 -6.567483e-20)
(48.736755 3.1640329 0)
(49.033216 2.8432908 0)
(49.279989 2.480346 0)
(49.496249 2.1144146 0)
(49.661719 1.7366527 3.1512015e-19)
(49.797347 1.3550966 -1.5441396e-20)
(49.901067 0.97793702 -1.3617773e-20)
(49.970197 0.59117375 -6.0056057e-21)
(49.990079 0.20087328 3.4432806e-19)
(44.148797 2.6623411 1.2133078e-18)
(44.187424 2.7041473 -1.1142827e-18)
(44.232058 2.750622 8.0936025e-21)
(44.283945 2.7993433 9.613713e-19)
(44.344799 2.8522653 -8.7084655e-19)
(44.416701 2.9104296 7.8927155e-19)
(44.502293 2.9741485 -1.4226204e-18)
(44.604901 3.0438234 -1.9902732e-20)
(44.725805 3.1198111 5.5257085e-19)
(44.862208 3.2009199 0)
(45.01242 3.2859897 -4.8003223e-19)
(45.192351 3.3783425 2.5092137e-20)
(45.403463 3.4189823 3.7732027e-19)
(45.594348 3.5394596 -3.1420522e-19)
(45.877104 3.557445 2.4310005e-19)
(46.172362 3.4101063 7.6216145e-25)
(46.399013 3.7245281 2.1202995e-19)
(46.699743 3.585727 -2.3106467e-19)
(47.070872 3.4191535 3.3116066e-19)
(47.463517 3.3914074 -7.4207385e-20)
(47.82125 3.255939 6.5644064e-20)
(48.173489 3.1149363 1.636096e-23)
(48.558012 2.9212656 1.0211364e-19)
(48.840763 2.6453638 0)
(49.075075 2.3262165 -1.5878783e-19)
(49.304969 1.9921624 1.400178e-19)
(49.491782 1.651207 3.086531e-20)
(49.644942 1.2980529 -2.7221993e-20)
(49.763758 0.94079779 1.2003572e-20)
(49.844774 0.57291982 3.2294577e-19)
(49.871656 0.19681869 -2.9416701e-19)
(44.72273 2.0828472 2.1800384e-18)
(44.758401 2.1171848 -1.982718e-18)
(44.799343 2.1550503 -1.4379995e-20)
(44.846181 2.1946301 -6.6115745e-21)
(44.899596 2.2375593 -6.0281032e-21)
(44.960274 2.2846078 1.4088561e-18)
(45.028527 2.3358218 -4.9292298e-23)
(45.104259 2.3906318 -1.1199153e-18)
(45.188074 2.4481181 2.9918552e-24)
(45.282948 2.5074812 0)
(45.392267 2.5680315 -2.492623e-20)
(45.512513 2.6258223 -4.4219366e-20)
(45.650167 2.7085474 -1.9582849e-20)
(45.835112 2.744165 2.7716016e-19)
(46.011136 2.8140179 -2.4501929e-19)
(46.219929 3.0199084 2.7055794e-20)
(46.492361 2.7789846 0)
(46.700896 3.1432413 -4.1240573e-20)
(47.000941 2.9952446 -7.1986698e-20)
(47.304913 2.8978411 -6.4714069e-20)
(47.642667 2.7660941 0)
(48.005018 2.7684919 -1.0207119e-19)
(48.359703 2.6242221 0)
(48.638784 2.4072894 0)
(48.872723 2.1476979 1.3996031e-19)
(49.1047 1.8459384 -2.4684349e-19)
(49.31078 1.5447733 1.0884206e-19)
(49.484083 1.2253794 0)
(49.616553 0.89116222 -1.7988964e-19)
(49.708678 0.54908932 -2.8931832e-19)
(49.74499 0.19003802 0)
(45.165048 1.7079976 -1.9423658e-18)
(45.184858 1.7369099 3.4423658e-21)
(45.207803 1.7684689 1.2763884e-20)
(45.234652 1.8016566 1.5000232e-18)
(45.266807 1.8380339 -1.3608855e-18)
(45.306744 1.8775731 -2.1473723e-24)
(45.354586 1.9212034 0)
(45.411472 1.9689214 1.5978332e-24)
(45.479235 2.0208781 8.8900069e-19)
(45.559642 2.0772457 -7.7910114e-19)
(45.654171 2.137906 2.1971418e-20)
(45.765216 2.2051945 1.9484351e-20)
(45.89254 2.2664204 0)
(46.031563 2.3400554 0)
(46.212322 2.3985614 4.8610765e-19)
(46.389709 2.3626493 2.3815282e-20)
(46.569328 2.5243691 -3.3600093e-19)
(46.834656 2.2867888 3.7079703e-19)
(47.008345 2.5835195 -2.2393251e-19)
(47.234967 2.4960253 -5.6317708e-20)
(47.541617 2.3717627 0)
(47.867719 2.4273888 -8.9982816e-20)
(48.13142 2.2722118 7.9288933e-20)
(48.401378 2.1098004 -8.111081e-24)
(48.666492 1.9257722 -6.1699275e-20)
(48.908209 1.6708958 1.087946e-19)
(49.125729 1.4115805 -9.5936986e-20)
(49.315922 1.1295484 -1.6922508e-19)
(49.46248 0.83214823 1.8641314e-20)
(49.563335 0.51637273 -2.4682418e-20)
(49.610319 0.18127544 7.2568769e-21)
(45.676777 1.2678869 -1.7190818e-18)
(45.697327 1.290832 -6.0785082e-21)
(45.720778 1.3158894 1.4396293e-18)
(45.747226 1.3423136 0)
(45.776337 1.3712773 -1.2071392e-18)
(45.807015 1.4041323 -8.5062721e-21)
(45.841203 1.4401774 2.1848417e-23)
(45.880774 1.4794861 1.765141e-18)
(45.927533 1.5220965 -2.1138599e-23)
(45.983299 1.5679194 -7.0934194e-19)
(46.050077 1.6167561 0)
(46.129677 1.6661935 0)
(46.220965 1.7209829 0)
(46.324007 1.7767881 0)
(46.426484 1.8396611 -2.3814938e-20)
(46.566097 1.9270359 3.3651932e-19)
(46.721838 1.9499207 -2.592973e-19)
(46.883782 2.0993859 -2.9493796e-19)
(47.062775 2.076775 2.0100007e-19)
(47.227702 2.1809432 2.2767116e-25)
(47.493147 2.0694579 0)
(47.766392 2.0142383 1.5865551e-19)
(47.992601 1.9266072 -1.3981362e-19)
(48.227202 1.7817577 6.16246e-20)
(48.478691 1.6481357 0)
(48.731663 1.4622933 -1.4387353e-19)
(48.955179 1.2571548 4.2291905e-20)
(49.146442 1.0153643 1.8645776e-19)
(49.303169 0.75575576 9.8664228e-20)
(49.411278 0.47595147 0)
(49.468064 0.16787612 -2.0471646e-19)
(46.013611 0.97340991 0)
(46.022606 0.99017969 2.6974379e-21)
(46.033103 1.0082134 0)
(46.045541 1.0271819 0)
(46.060615 1.0480655 -4.1652187e-21)
(46.079292 1.0713591 -1.9280846e-18)
(46.102508 1.0973147 1.7339177e-18)
(46.131175 1.1260684 6.0645266e-21)
(46.166201 1.1577235 1.0825779e-20)
(46.208702 1.1922747 -1.2234764e-18)
(46.260372 1.2294893 2.1901889e-18)
(46.32379 1.2692655 -9.7089333e-19)
(46.401149 1.3079991 0)
(46.489131 1.3468218 0)
(46.588271 1.3817375 0)
(46.687257 1.40243 0)
(46.798567 1.4515848 -1.637317e-20)
(46.940645 1.3954861 2.6004254e-19)
(47.095418 1.4516588 -2.5510203e-20)
(47.299638 1.3274783 -1.5663101e-19)
(47.493741 1.5682736 1.586274e-19)
(47.709369 1.4612309 -2.7905888e-19)
(47.925193 1.4742536 2.4669525e-19)
(48.138152 1.4262327 -1.0876817e-19)
(48.35734 1.3517496 1.4384343e-19)
(48.585744 1.2255864 8.4552745e-20)
(48.803776 1.0795005 0)
(48.984317 0.88721788 3.287641e-20)
(49.141224 0.66825521 -2.1974877e-24)
(49.25438 0.42555324 -1.2788449e-19)
(49.318307 0.1516469 1.8046082e-19)
(46.376955 0.68261924 -2.7020628e-18)
(46.388495 0.69586837 2.438388e-18)
(46.401652 0.7100448 0)
(46.416541 0.72513352 0)
(46.433234 0.74192901 7.3507604e-21)
(46.451739 0.76081823 0)
(46.472047 0.7819234 0)
(46.494212 0.80530211 -1.3748029e-18)
(46.518369 0.83094935 1.2220277e-18)
(46.544434 0.85878221 -1.2571309e-24)
(46.571707 0.88859078 7.5442557e-21)
(46.599238 0.91966174 0)
(46.627874 0.95167431 0)
(46.664332 0.98344387 0)
(46.719404 1.0175501 0)
(46.799786 1.0577526 0)
(46.903059 1.0821859 -1.4435732e-20)
(47.022913 1.1626102 -1.2737697e-20)
(47.185774 1.1712415 -3.1464503e-19)
(47.340398 1.269893 6.3162498e-19)
(47.481345 1.2273949 -3.1096663e-19)
(47.631568 1.1581819 -3.0398241e-20)
(47.840002 1.1504657 -1.0789429e-19)
(48.058883 1.1366625 9.5557413e-20)
(48.267975 1.1122206 -4.2273396e-20)
(48.456327 1.0145402 -7.4549514e-20)
(48.653959 0.89724505 5.7021111e-24)
(48.828343 0.74772892 5.7977225e-20)
(48.979197 0.568411 2.5567777e-20)
(49.093902 0.36713341 1.1274238e-19)
(49.162754 0.13089633 7.9559081e-20)
(46.631708 0.56799005 -2.3850341e-18)
(46.637074 0.57798797 2.148972e-18)
(46.643485 0.58857437 -1.9422353e-21)
(46.651099 0.59982241 1.8231617e-18)
(46.660142 0.61228229 -1.6615952e-18)
(46.670916 0.62623473 -1.501756e-18)
(46.683801 0.64183489 1.177718e-23)
(46.699265 0.65927128 2.4131079e-18)
(46.717878 0.67880841 -1.0766184e-18)
(46.740439 0.70078516 -3.7432702e-21)
(46.768117 0.72566132 -7.9416557e-25)
(46.802367 0.75425386 5.8930761e-21)
(46.84453 0.7877562 0)
(46.894808 0.82791595 9.2358553e-21)
(46.95262 0.87207477 -5.2238274e-19)
(47.01851 0.91371099 4.541694e-19)
(47.094169 0.96376968 0)
(47.176563 0.98932855 -3.7058858e-19)
(47.261924 1.0221818 2.972674e-19)
(47.361294 0.99701377 1.7479915e-20)
(47.460169 1.0681936 1.5254508e-20)
(47.59444 1.050461 2.6900779e-20)
(47.749063 0.96647519 0)
(47.933067 0.88446485 1.6740157e-19)
(48.138394 0.8874014 -1.8617731e-19)
(48.324161 0.80836771 -3.2862062e-20)
(48.500659 0.71096685 -5.7963799e-20)
(48.671497 0.60005624 0)
(48.818079 0.45903332 3.8883032e-24)
(48.933286 0.2973417 -7.9533186e-20)
(49.005306 0.10614029 5.9964174e-24)
(46.910088 0.34446052 -4.2181642e-18)
(46.913976 0.35142039 9.3763405e-22)