/*--------------------------------*- C++ -*----------------------------------*\
| =========                 |                                                 |
| \\      /  F ield         | OpenFOAM: The Open Source CFD Toolbox           |
|  \\    /   O peration     | Version:  2406                                  |
|   \\  /    A nd           | Website:  www.openfoam.com                      |
|    \\/     M anipulation  |                                                 |
\*---------------------------------------------------------------------------*/
FoamFile
{
    version     2.0;
    format      ascii;
    arch        "LSB;label=32;scalar=64";
    class       volScalarField;
    location    "0.004";
    object      pMean;
}
// * * * * * * * * * * * * * * * * * * * * * * * * * * * * * * * * * * * * * //

dimensions      [1 -1 -2 0 0 0 0];

internalField   nonuniform List<scalar> 
23203
(
101044.4
100962.71
100922.9
100878.54
100833.38
100792.52
100756.84
100726.12
100700.12
100678.49
100660.89
100646.93
100636.19
100628.19
100622.51
100618.89
100617.24
100617.53
100619.72
101200.57
101144.77
101092.74
101036.29
100983.58
100936.97
100896.05
100860.37
100829.66
100803.57
100781.7
100763.62
100748.82
100736.77
100726.98
100719.13
100713.08
100708.85
100706.47
101277.83
101232.43
101176.44
101115.56
101060
101011.17
100968.07
100930.17
100897.19
100868.76
100844.45
100823.82
100806.42
100791.8
100779.58
100769.48
100761.34
100755.11
100750.76
101341.71
101300.1
101244.56
101183.67
101127.46
101077.41
101032.71
100992.87
100957.64
100926.75
100899.84
100876.56
100856.54
100839.45
100824.95
100812.81
100802.85
100794.95
100789.04
101400.47
101359.49
101305.18
101245.84
101190.29
101140.06
101094.62
101053.62
101016.88
100984.19
100955.31
100929.96
100907.84
100888.68
100872.21
100858.21
100846.5
100836.96
100829.47
101452.44
101410.81
101357.4
101300.21
101246.1
101196.47
101151.01
101109.53
101071.94
101038.11
101007.85
100980.97
100957.22
100936.4
100918.28
100902.68
100889.42
100878.37
100869.43
101497.76
101455.11
101402.75
101347.84
101295.5
101246.91
101201.94
101160.52
101122.61
101088.13
101056.98
101029.01
101004.05
100981.93
100962.47
100945.52
100930.92
100918.56
100908.32
101536.65
101493.38
101442.47
101389.84
101339.37
101292.1
101248
101207.04
101169.22
101134.54
101102.91
101074.26
101048.45
101025.37
101004.87
100986.83
100971.12
100957.63
100946.25
101569.35
101526.18
101477.08
101426.76
101378.25
101332.51
101289.54
101249.36
101212
101177.47
101145.73
101116.75
101090.44
101066.7
101045.45
101026.57
101009.96
100995.52
100983.17
101596.37
101553.94
101506.95
101459.01
101412.58
101368.53
101326.93
101287.79
101251.16
101217.08
101185.54
101156.53
101130
101105.9
101084.14
101064.66
101047.36
101032.17
101019.01
101618.35
101577.12
101532.49
101487.03
101442.77
101400.57
101360.5
101322.61
101286.94
101253.56
101222.48
101193.7
101167.22
101142.98
101120.96
101101.09
101083.3
101067.54
101053.73
101636
101596.33
101554.18
101511.27
101469.27
101429.02
101390.63
101354.14
101319.62
101287.13
101256.72
101228.39
101202.17
101178.02
101155.94
101135.87
101117.78
101101.61
101087.32
101650.04
101612.17
101572.55
101532.21
101492.52
101454.29
101417.66
101382.69
101349.46
101318.02
101288.44
101260.75
101234.96
101211.09
101189.13
101169.04
101150.82
101134.4
101119.76
101661.26
101625.4
101588.25
101550.41
101512.99
101476.8
101441.98
101408.6
101376.73
101346.46
101317.84
101290.93
101265.74
101242.3
101220.61
101200.66
101182.44
101165.92
101151.07
101670.4
101636.72
101601.88
101566.35
101531.12
101496.92
101463.91
101432.15
101401.72
101372.69
101345.14
101319.1
101294.63
101271.75
101250.47
101230.79
101212.71
101196.21
101181.27
101677.9
101646.49
101613.8
101580.41
101547.25
101514.99
101483.77
101453.63
101424.67
101396.94
101370.52
101345.46
101321.8
101299.58
101278.82
101259.52
101241.7
101225.33
101210.41
101684.05
101654.91
101624.22
101592.85
101561.67
101531.3
101501.83
101473.31
101445.83
101419.43
101394.19
101370.17
101347.4
101325.93
101305.77
101286.95
101269.47
101253.33
101238.53
101689.1
101662.12
101633.31
101603.85
101574.6
101546.06
101518.32
101491.42
101465.42
101440.37
101416.35
101393.41
101371.59
101350.92
101331.44
101313.18
101296.13
101280.3
101265.69
101693.14
101668.32
101641.19
101613.56
101586.2
101559.5
101533.48
101508.18
101483.66
101459.97
101437.19
101415.35
101394.51
101374.71
101355.96
101338.31
101321.75
101306.3
101291.96
101695.77
101674.29
101648.53
101622.36
101596.77
101571.85
101547.53
101523.81
101500.76
101478.43
101456.89
101436.18
101416.35
101397.43
101379.46
101362.46
101346.44
101331.42
101317.4
101696.62
101679.01
101655.94
101631.07
101606.8
101583.45
101560.73
101538.55
101516.94
101495.95
101475.64
101456.05
101437.24
101419.22
101402.05
101385.73
101370.3
101355.74
101342.08
101697.83
101681.5
101661.65
101639.71
101616.79
101594.62
101573.32
101552.61
101532.39
101512.71
101493.61
101475.14
101457.34
101440.23
101423.86
101408.25
101393.41
101379.35
101366.09
101699.56
101684.92
101666.18
101646.75
101626.53
101605.74
101585.58
101566.17
101547.3
101528.89
101510.98
101493.6
101476.79
101460.59
101445.02
101430.11
101415.88
101402.33
101389.48
101701.46
101688.88
101671.5
101652.97
101635.05
101616.76
101597.82
101579.51
101561.85
101544.66
101527.89
101511.57
101495.73
101480.4
101465.63
101451.42
101437.79
101424.76
101412.32
101703.76
101693.04
101677.45
101660.21
101643.14
101626.69
101610
101592.91
101576.27
101560.17
101544.49
101529.18
101514.27
101499.8
101485.78
101472.25
101459.22
101446.69
101434.66
101706.78
101697.77
101683.78
101668
101652.02
101636.65
101621.8
101606.48
101590.82
101575.64
101560.92
101546.56
101532.53
101518.86
101505.57
101492.68
101480.22
101468.17
101456.55
101710.91
101703.42
101690.9
101676.55
101661.94
101647.46
101633.36
101619.57
101605.45
101591.16
101577.29
101563.79
101550.58
101537.65
101525.04
101512.76
101500.83
101489.24
101478.01
101716.19
101710.08
101698.94
101685.79
101672.3
101658.91
101645.64
101632.71
101619.92
101606.81
101593.67
101580.93
101568.46
101556.22
101544.23
101532.51
101521.07
101509.91
101499.04
101722.63
101717.81
101707.92
101695.79
101683.27
101670.88
101658.57
101646.32
101634.37
101622.38
101610.14
101598.05
101586.21
101574.58
101563.15
101551.93
101540.94
101530.17
101519.63
101730.29
101726.59
101717.71
101706.41
101694.81
101683.43
101672.04
101660.51
101649.02
101637.78
101626.46
101615.01
101603.76
101592.68
101581.75
101570.97
101560.37
101549.92
101539.65
101739.01
101736.18
101728.16
101717.71
101706.96
101696.32
101685.61
101674.78
101663.96
101653.26
101642.59
101631.82
101621.04
101610.4
101599.87
101589.46
101579.16
101568.98
101558.93
101748.54
101746.24
101739.03
101729.39
101719.37
101709.35
101699.13
101688.92
101678.76
101668.47
101658.27
101648.06
101637.74
101627.47
101617.29
101607.19
101597.17
101587.23
101577.36
101758.54
101756.85
101750.32
101741.31
101731.81
101722.22
101712.55
101702.85
101693
101683.09
101673.28
101663.5
101653.7
101643.83
101633.95
101624.11
101614.33
101604.59
101594.91
101768.55
101767.51
101761.63
101753.09
101743.93
101734.75
101725.71
101716.56
101706.94
101697.26
101687.69
101678.2
101668.76
101659.27
101649.72
101640.15
101630.58
101621.03
101611.51
101778.51
101777.97
101772.56
101764.18
101755.26
101746.63
101737.96
101728.88
101719.91
101710.92
101701.63
101692.26
101682.95
101673.75
101664.54
101655.24
101645.87
101636.47
101627.09
101788.26
101787.84
101782.53
101774.46
101766.14
101757.85
101749.19
101740.57
101732.01
101723.26
101714.5
101705.53
101696.39
101687.25
101678.21
101669.17
101660.04
101650.81
101641.57
101796.54
101796.38
101791.7
101784.25
101776.08
101767.68
101759.47
101751.38
101742.99
101734.59
101726.13
101717.57
101708.89
101699.89
101690.84
101681.89
101672.97
101663.97
101804.5
101804.62
101800.07
101792.42
101784.21
101776.42
101768.77
101760.73
101752.71
101744.61
101736.4
101728.25
101719.98
101711.42
101702.51
101693.59
101684.76
101675.95
101811.62
101811.05
101806.24
101798.96
101791.64
101784.35
101776.7
101769.12
101761.45
101753.57
101745.66
101737.57
101729.35
101721.07
101712.69
101704.03
101695.29
101686.62
101816.81
101816.13
101811.89
101805.31
101797.98
101790.52
101783.31
101776.02
101768.51
101761.08
101753.46
101745.61
101737.64
101729.66
101721.52
101713.12
101704.53
101695.9
101822.22
101820.95
101816.09
101809.04
101801.93
101795.25
101788.44
101781.45
101774.48
101767.25
101759.75
101752.1
101744.33
101736.51
101728.71
101720.74
101712.43
101703.91
101824.54
101822.77
101818.24
101812.28
101805.91
101799.16
101792.44
101785.77
101778.82
101771.65
101764.36
101756.96
101749.44
101741.79
101734.07
101726.39
101718.58
101710.4
101825.99
101824.14
101820
101813.73
101806.94
101800.62
101794.42
101787.91
101781.21
101774.35
101767.35
101760.22
101752.95
101745.57
101738.1
101730.49
101722.79
101714.96
101825.88
101822.39
101817.83
101812.63
101807.08
101801.23
101795.05
101788.62
101782.04
101775.35
101768.56
101761.64
101754.6
101747.41
101740.07
101732.62
101725.21
101717.85
101824.05
101820.11
101815.43
101810.51
101805.39
101799.59
101793.44
101787.24
101780.96
101774.55
101768.04
101761.43
101754.68
101747.79
101740.76
101733.62
101726.38
101719.07
101820.63
101816.4
101811.36
101805.87
101800.5
101795.38
101790.19
101784.8
101779.11
101773.01
101766.59
101760.05
101753.43
101746.72
101739.91
101732.97
101725.9
101718.69
101815.81
101811.49
101806.68
101801.61
101796.4
101791.05
101785.51
101779.82
101774.07
101768.37
101762.64
101756.7
101750.57
101744.28
101737.85
101731.27
101724.56
101717.75
101809.7
101805.43
101800.82
101796.04
101791.16
101786.15
101781.02
101775.75
101770.35
101764.84
101759.2
101753.4
101747.44
101741.33
101735.09
101728.72
101722.25
101715.65
101802.99
101798.92
101794.52
101789.99
101785.35
101780.59
101775.7
101770.69
101765.56
101760.31
101754.93
101749.42
101743.78
101738.01
101732.11
101726.1
101719.96
101713.7
101796.23
101792.37
101788.21
101783.92
101779.53
101775.03
101770.4
101765.66
101760.79
101755.8
101750.68
101745.44
101740.08
101734.59
101728.98
101723.25
101717.41
101711.46
101789.46
101785.81
101781.86
101777.8
101773.64
101769.37
101764.99
101760.48
101755.86
101751.13
101746.27
101741.3
101736.21
101731
101725.67
101720.23
101714.68
101709.02
101782.78
101779.31
101775.57
101771.72
101767.78
101763.74
101759.58
101755.31
101750.93
101746.43
101741.82
101737.1
101732.26
101727.31
101722.25
101717.07
101711.79
101706.4
101776.15
101772.86
101769.31
101765.66
101761.93
101758.09
101754.15
101750.1
101745.94
101741.67
101737.29
101732.81
101728.21
101723.51
101718.7
101713.78
101708.76
101703.63
101769.61
101766.48
101763.11
101759.65
101756.11
101752.47
101748.72
101744.88
101740.93
101736.88
101732.72
101728.46
101724.1
101719.63
101715.05
101710.38
101705.6
101700.71
101763.14
101760.17
101756.96
101753.68
101750.31
101746.86
101743.3
101739.65
101735.9
101732.05
101728.11
101724.06
101719.91
101715.66
101711.32
101706.87
101702.32
101697.67
101756.74
101753.92
101750.87
101747.75
101744.56
101741.27
101737.9
101734.43
101730.87
101727.21
101723.46
101719.62
101715.67
101711.63
101707.5
101703.27
101698.94
101694.52
101750.42
101747.74
101744.84
101741.87
101738.84
101735.72
101732.51
101729.22
101725.83
101722.36
101718.79
101715.14
101711.39
101707.55
101703.61
101699.59
101695.47
101691.26
101744.18
101741.62
101738.87
101736.04
101733.16
101730.19
101727.15
101724.01
101720.8
101717.49
101714.11
101710.63
101707.06
101703.41
101699.67
101695.84
101691.92
101687.91
101738.01
101735.57
101732.95
101730.27
101727.52
101724.7
101721.81
101718.83
101715.77
101712.63
101709.4
101706.1
101702.71
101699.23
101695.67
101692.03
101688.3
101684.48
101731.91
101729.59
101727.09
101724.54
101721.93
101719.25
101716.49
101713.66
101710.75
101707.76
101704.7
101701.55
101698.33
101695.02
101691.63
101688.16
101684.61
101680.97
101725.88
101723.67
101721.29
101718.86
101716.38
101713.83
101711.2
101708.51
101705.74
101702.9
101699.98
101696.99
101693.92
101690.77
101687.55
101684.25
101680.87
101677.4
101719.91
101717.81
101715.54
101713.23
101710.87
101708.44
101705.95
101703.38
101700.75
101698.04
101695.27
101692.42
101689.5
101686.51
101683.44
101680.29
101677.07
101673.77
101714.01
101712.01
101709.85
101707.65
101705.4
101703.09
101700.72
101698.28
101695.77
101693.2
101690.56
101687.85
101685.07
101682.22
101679.29
101676.3
101673.23
101670.09
101708.18
101706.27
101704.22
101702.12
101699.98
101697.78
101695.52
101693.2
101690.81
101688.36
101685.85
101683.27
101680.63
101677.91
101675.13
101672.28
101669.36
101666.37
101702.41
101700.59
101698.63
101696.64
101694.6
101692.51
101690.36
101688.15
101685.88
101683.54
101681.15
101678.7
101676.18
101673.59
101670.94
101668.23
101665.45
101662.6
101696.7
101694.97
101693.1
101691.2
101689.26
101687.27
101685.22
101683.12
101680.96
101678.74
101676.46
101674.13
101671.73
101669.27
101666.74
101664.16
101661.51
101658.8
101691.05
101689.4
101687.63
101685.82
101683.97
101682.07
101680.13
101678.12
101676.07
101673.95
101671.79
101669.56
101667.28
101664.94
101662.53
101660.07
101657.55
101654.96
101685.46
101683.89
101682.2
101680.48
101678.72
101676.92
101675.06
101673.15
101671.2
101669.19
101667.12
101665
101662.83
101660.6
101658.31
101655.97
101653.57
101651.1
101679.94
101678.44
101676.83
101675.19
101673.51
101671.8
101670.03
101668.22
101666.35
101664.44
101662.48
101660.46
101658.39
101656.27
101654.09
101651.86
101649.57
101647.22
101674.46
101673.04
101671.5
101669.94
101668.35
101666.72
101665.04
101663.31
101661.54
101659.72
101657.85
101655.93
101653.96
101651.94
101649.86
101647.74
101645.56
101643.32
101669.05
101667.69
101666.23
101664.75
101663.23
101661.68
101660.08
101658.44
101656.75
101655.02
101653.24
101651.41
101649.54
101647.61
101645.64
101643.61
101641.54
101639.41
101663.7
101662.41
101661.02
101659.6
101658.16
101656.68
101655.16
101653.6
101651.99
101650.34
101648.65
101646.91
101645.13
101643.3
101641.42
101639.49
101637.51
101635.49
101658.4
101657.17
101655.85
101654.5
101653.13
101651.73
101650.28
101648.79
101647.26
101645.69
101644.08
101642.43
101640.73
101638.99
101637.2
101635.37
101633.49
101631.56
101653.16
101651.99
101650.73
101649.46
101648.15
101646.81
101645.44
101644.02
101642.57
101641.08
101639.54
101637.97
101636.36
101634.7
101633
101631.25
101629.46
101627.62
101647.98
101646.87
101645.67
101644.46
101643.22
101641.94
101640.63
101639.29
101637.91
101636.49
101635.03
101633.53
101632
101630.42
101628.8
101627.14
101625.44
101623.69
101642.86
101641.8
101640.66
101639.51
101638.33
101637.12
101635.87
101634.6
101633.28
101631.93
101630.55
101629.12
101627.66
101626.16
101624.62
101623.04
101621.42
101637.8
101636.79
101635.71
101634.61
101633.49
101632.34
101631.16
101629.94
101628.69
101627.41
101626.09
101624.74
101623.35
101621.92
101620.46
101618.95
101617.41
101632.8
101631.84
101630.81
101629.76
101628.7
101627.61
101626.48
101625.33
101624.14
101622.92
101621.67
101620.38
101619.06
101617.7
101616.31
101614.88
101613.41
101627.85
101626.94
101625.96
101624.97
101623.96
101622.92
101621.85
101620.76
101619.63
101618.47
101617.28
101616.06
101614.8
101613.51
101612.19
101610.83
101609.43
101622.97
101622.1
101621.17
101620.23
101619.27
101618.28
101617.27
101616.23
101615.16
101614.05
101612.92
101611.76
101610.57
101609.34
101608.08
101606.79
101605.46
101618.14
101617.32
101616.44
101615.55
101614.63
101613.7
101612.73
101611.74
101610.72
101609.68
101608.6
101607.5
101606.37
101605.2
101604.01
101602.78
101601.52
101613.38
101612.6
101611.76
101610.91
101610.05
101609.16
101608.24
101607.3
101606.34
101605.34
101604.32
101603.28
101602.2
101601.09
101599.95
101598.79
101597.59
101608.68
101607.94
101607.15
101606.34
101605.52
101604.67
101603.81
101602.91
101601.99
101601.05
101600.08
101599.09
101598.06
101597.01
101595.93
101594.82
101593.69
101604.04
101603.34
101602.59
101601.82
101601.04
101600.24
101599.42
101598.57
101597.7
101596.8
101595.88
101594.94
101593.97
101592.97
101591.94
101590.89
101589.81
101599.47
101598.8
101598.09
101597.36
101596.62
101595.86
101595.08
101594.27
101593.45
101592.6
101591.72
101590.83
101589.9
101588.96
101587.98
101586.98
101585.96
101594.96
101594.33
101593.65
101592.96
101592.26
101591.53
101590.79
101590.03
101589.25
101588.44
101587.61
101586.76
101585.88
101584.98
101584.06
101583.11
101582.13
101590.51
101589.91
101589.27
101588.61
101587.95
101587.26
101586.56
101585.84
101585.09
101584.33
101583.54
101582.73
101581.9
101581.05
101580.17
101579.27
101578.34
101586.13
101585.56
101584.95
101584.33
101583.7
101583.05
101582.38
101581.7
101580.99
101580.27
101579.52
101578.75
101577.96
101577.15
101576.32
101575.47
101574.59
101581.81
101581.27
101580.69
101580.11
101579.51
101578.89
101578.26
101577.61
101576.94
101576.25
101575.55
101574.82
101574.07
101573.3
101572.51
101571.7
101570.87
101577.56
101577.05
101576.5
101575.94
101575.38
101574.79
101574.19
101573.58
101572.94
101572.29
101571.62
101570.93
101570.22
101569.49
101568.74
101567.97
101567.18
101573.38
101572.89
101572.37
101571.84
101571.31
101570.75
101570.19
101569.6
101569
101568.38
101567.75
101567.09
101566.42
101565.73
101565.02
101564.29
101563.54
101569.26
101568.8
101568.31
101567.81
101567.3
101566.77
101566.24
101565.68
101565.11
101564.53
101563.92
101563.3
101562.67
101562.01
101561.34
101560.64
101559.93
101565.21
101564.77
101564.31
101563.83
101563.35
101562.85
101562.34
101561.82
101561.28
101560.72
101560.15
101559.57
101558.96
101558.34
101557.7
101557.04
101556.37
101561.23
101560.82
101560.37
101559.92
101559.47
101559
101558.51
101558.02
101557.51
101556.98
101556.44
101555.88
101555.31
101554.72
101554.11
101553.49
101552.85
101557.32
101556.93
101556.51
101556.08
101555.65
101555.2
101554.75
101554.28
101553.79
101553.29
101552.78
101552.25
101551.71
101551.15
101550.57
101549.98
101549.38
101553.47
101553.1
101552.71
101552.3
101551.9
101551.47
101551.04
101550.59
101550.13
101549.66
101549.18
101548.68
101548.16
101547.63
101547.09
101546.53
101545.95
101549.7
101549.35
101548.98
101548.6
101548.21
101547.81
101547.4
101546.98
101546.54
101546.09
101545.63
101545.16
101544.67
101544.17
101543.65
101543.12
101542.57
101546
101545.67
101545.32
101544.96
101544.59
101544.21
101543.82
101543.42
101543.01
101542.58
101542.14
101541.69
101541.23
101540.75
101540.26
101539.76
101539.24
101542.37
101542.06
101541.72
101541.38
101541.03
101540.67
101540.3
101539.92
101539.53
101539.13
101538.72
101538.3
101537.86
101537.41
101536.95
101536.47
101538.83
101538.53
101538.21
101537.89
101537.56
101537.22
101536.87
101536.51
101536.14
101535.76
101535.37
101534.96
101534.54
101534.11
101533.67
101533.21
101535.34
101535.05
101534.75
101534.44
101534.13
101533.81
101533.47
101533.13
101532.78
101532.41
101532.04
101531.66
101531.26
101530.86
101530.45
101530.02
101531.93
101531.66
101531.38
101531.09
101530.79
101530.49
101530.18
101529.86
101529.53
101529.19
101528.84
101528.48
101528.11
101527.72
101527.32
101526.92
101528.62
101528.36
101528.09
101527.82
101527.54
101527.25
101526.95
101526.64
101526.32
101526
101525.66
101525.32
101524.97
101524.6
101524.23
101523.84
101525.36
101525.12
101524.86
101524.6
101524.33
101524.06
101523.78
101523.49
101523.19
101522.88
101522.57
101522.24
101521.91
101521.57
101521.21
101520.85
101522.19
101521.96
101521.72
101521.47
101521.22
101520.96
101520.69
101520.42
101520.13
101519.84
101519.54
101519.23
101518.91
101518.58
101518.24
101517.89
101519.09
101518.87
101518.64
101518.41
101518.17
101517.92
101517.67
101517.41
101517.14
101516.87
101516.58
101516.29
101515.99
101515.68
101515.37
101515.04
101516.1
101515.89
101515.67
101515.45
101515.22
101514.99
101514.75
101514.5
101514.25
101513.98
101513.71
101513.43
101513.15
101512.85
101512.55
101512.23
101513.17
101512.97
101512.76
101512.55
101512.34
101512.11
101511.88
101511.65
101511.41
101511.16
101510.9
101510.63
101510.36
101510.08
101509.79
101509.5
101510.32
101510.13
101509.94
101509.74
101509.53
101509.32
101509.1
101508.88
101508.65
101508.41
101508.17
101507.92
101507.66
101507.4
101507.12
101506.84
101507.56
101507.39
101507.2
101507.01
101506.82
101506.62
101506.41
101506.2
101505.98
101505.76
101505.53
101505.29
101505.04
101504.79
101504.53
101504.26
101504.9
101504.73
101504.55
101504.37
101504.18
101503.99
101503.8
101503.59
101503.38
101503.17
101502.95
101502.72
101502.48
101502.24
101501.99
101501.73
101502.28
101502.12
101501.95
101501.78
101501.6
101501.42
101501.24
101501.04
101500.85
101500.64
101500.43
101500.22
101499.99
101499.77
101499.53
101499.29
101499.81
101499.65
101499.49
101499.33
101499.16
101498.99
101498.81
101498.63
101498.44
101498.24
101498.04
101497.83
101497.62
101497.4
101497.17
101496.94
101497.37
101497.23
101497.07
101496.92
101496.76
101496.59
101496.42
101496.25
101496.07
101495.88
101495.69
101495.49
101495.29
101495.08
101494.87
101494.64
101495.06
101494.92
101494.78
101494.63
101494.47
101494.32
101494.15
101493.98
101493.81
101493.63
101493.45
101493.26
101493.07
101492.86
101492.66
101492.84
101492.7
101492.56
101492.42
101492.27
101492.12
101491.96
101491.8
101491.63
101491.46
101491.28
101491.1
101490.91
101490.72
101490.52
101490.69
101490.56
101490.42
101490.28
101490.14
101489.99
101489.84
101489.69
101489.53
101489.36
101489.2
101489.02
101488.84
101488.66
101488.47
101488.65
101488.53
101488.4
101488.26
101488.13
101487.99
101487.84
101487.69
101487.54
101487.38
101487.22
101487.05
101486.87
101486.69
101486.51
101486.69
101486.56
101486.44
101486.31
101486.18
101486.04
101485.9
101485.75
101485.6
101485.45
101485.29
101485.12
101484.95
101484.78
101484.6
101484.82
101484.7
101484.58
101484.46
101484.33
101484.21
101484.07
101483.93
101483.79
101483.65
101483.49
101483.34
101483.18
101483.01
101482.84
101483.08
101482.97
101482.85
101482.73
101482.61
101482.48
101482.34
101482.21
101482.07
101481.92
101481.77
101481.62
101481.46
101481.3
101481.13
101481.41
101481.3
101481.18
101481.07
101480.94
101480.82
101480.69
101480.56
101480.42
101480.28
101480.14
101479.99
101479.84
101479.68
101479.52
101479.87
101479.76
101479.65
101479.54
101479.42
101479.3
101479.18
101479.05
101478.92
101478.78
101478.64
101478.49
101478.34
101478.19
101478.03
101478.42
101478.31
101478.2
101478.09
101477.98
101477.86
101477.73
101477.61
101477.48
101477.34
101477.2
101477.06
101476.91
101476.76
101476.6
101477.09
101476.98
101476.88
101476.76
101476.65
101476.53
101476.41
101476.28
101476.15
101476.02
101475.88
101475.74
101475.59
101475.44
101475.29
101475.86
101475.76
101475.66
101475.55
101475.43
101475.32
101475.2
101475.07
101474.94
101474.81
101474.67
101474.53
101474.39
101474.24
101474.42
101474.32
101474.21
101474.1
101473.99
101473.87
101473.75
101473.63
101473.5
101473.37
101473.24
101473.1
101472.95
101472.81
99542.347
99547.486
99559.713
99573.78
99587.408
99600.767
99614.537
99629.293
99645.44
99663.23
99682.814
99704.24
99727.477
99752.446
99779.036
99807.123
99836.581
99867.279
99899.036
99566.384
99576.876
99588.449
99598.866
99608.678
99619.317
99631.601
99645.935
99662.43
99681.048
99701.69
99724.238
99748.562
99774.529
99802.002
99830.849
99860.944
99892.132
99566.953
99570.505
99577.281
99585.959
99596.18
99608.307
99622.499
99638.795
99657.162
99677.535
99699.829
99723.937
99749.737
99777.093
99805.867
99835.925
99867.127
99899.284
99559.865
99561.266
99567.152
99576.112
99586.961
99599.793
99614.827
99632.121
99651.628
99673.247
99696.849
99722.287
99749.401
99778.028
99808.013
99839.209
99871.446
99548.493
99548.923
99554.34
99563.578
99575.19
99589.125
99605.526
99624.352
99645.471
99668.721
99693.93
99720.92
99749.512
99779.53
99810.813
99843.202
99876.495
99532.339
99532.656
99538.42
99548.591
99561.558
99577.105
99595.263
99615.91
99638.858
99663.905
99690.85
99719.493
99749.639
99781.106
99813.726
99847.317
99511.591
99512.626
99519.535
99531.301
99546.145
99563.719
99583.963
99606.699
99631.689
99658.702
99687.512
99717.903
99749.671
99782.63
99816.606
99851.392
99486.546
99489.096
99497.915
99511.917
99529.152
99549.165
99571.829
99596.916
99624.155
99653.29
99684.08
99716.299
99749.741
99784.222
99819.558
99457.442
99462.322
99473.821
99490.693
99510.824
99533.675
99559.074
99586.756
99616.428
99647.82
99680.685
99714.796
99749.951
99785.969
99822.655
99424.594
99432.656
99447.602
99467.955
99491.455
99517.514
99545.931
99576.42
99608.68
99642.438
99677.452
99713.498
99750.385
99787.937
99388.444
99400.558
99419.686
99444.083
99471.382
99500.974
99532.651
99566.123
99601.09
99637.295
99674.504
99712.505
99751.12
99790.188
99349.58
99366.595
99390.579
99419.515
99450.977
99484.373
99519.502
99556.084
99593.841
99632.544
99671.97
99711.917
99752.236
99792.798
99308.743
99331.438
99360.855
99394.728
99430.64
99468.046
99506.76
99546.528
99587.116
99628.343
99669.979
99711.83
99753.81
99266.817
99295.85
99331.129
99370.222
99410.789
99452.343
99494.708
99537.671
99581.096
99624.862
99668.664
99712.331
99755.922
99224.823
99260.666
99302.02
99346.494
99391.851
99437.638
99483.63
99529.727
99575.965
99622.255
99668.132
99713.535
99758.722
99183.858
99226.756
99274.145
99324.069
99374.265
99424.287
99473.803
99522.97
99571.958
99620.489
99668.369
99715.606
99144.608
99194.685
99248.383
99303.651
99358.42
99412.337
99465.39
99517.676
99569.221
99619.894
99669.655
99718.541
99108.158
99165.317
99225.134
99285.589
99344.698
99402.396
99458.805
99513.942
99567.841
99620.551
99672.071
99722.436
99075.105
99139.332
99205.066
99270.32
99333.556
99394.784
99454.201
99511.919
99568.032
99622.609
99675.708
99727.394
99046.71
99117.492
99188.59
99258.225
99325.224
99389.659
99451.796
99511.836
99569.925
99626.159
99680.643
99023.508
99100.277
99176.2
99249.707
99319.985
99387.24
99451.79
99513.868
99573.657
99631.308
99686.967
99006.091
99088.195
99168.264
99245.059
99318.135
99387.787
99454.362
99518.139
99579.34
99638.159
99694.775
98994.95
99081.672
99165.119
99244.572
99319.904
99391.478
99459.669
99524.785
99587.087
99646.797
99704.124
98990.464
99081.025
99167.062
99248.493
99325.5
99398.49
99467.851
99533.917
99596.977
99657.286
99715.07
98992.957
99086.537
99174.339
99257.021
99335.08
99408.944
99479.001
99545.609
99609.081
99669.689
99727.679
99002.682
99098.46
99187.151
99270.312
99348.78
99422.981
99493.278
99560.04
99623.599
99684.244
99742.249
99019.761
99116.995
99205.693
99288.598
99366.941
99441.088
99511.311
99577.971
99641.379
99701.844
99759.618
99044.485
99142.384
99230.423
99312.559
99390.272
99463.8
99533.334
99599.368
99662.219
99722.013
99778.901
99076.371
99173.656
99260.271
99341.024
99417.419
99489.661
99557.801
99622.222
99683.325
99741.533
99797.035
99111.785
99207.763
99292.179
99370.686
99445.083
99515.453
99581.551
99644.035
99703.139
99759.017
99812.543
99150.403
99244.674
99325.803
99400.862
99471.736
99538.866
99603.141
99664.501
99722.731
99778.57
99832.26
99884.003
99201.196
99291.837
99367.983
99439.068
99507.026
99571.85
99633.961
99693.323
99750.477
99805.369
99857.874
99908.211
99267.258
99353.032
99423.853
99489.722
99553.47
99614.868
99673.592
99729.874
99784.016
99836.086
99886.136
99934.301
99340.26
99420.771
99485.746
99546.123
99604.832
99661.625
99716.278
99768.917
99819.71
99868.761
99916.149
99961.969
99416.593
99492.053
99550.98
99605.663
99659.182
99711.245
99761.625
99810.403
99857.693
99903.576
99948.117
99991.386
100033.44
99497.803
99567.89
99620.358
99668.988
99717.04
99764.125
99809.963
99854.608
99898.14
99940.612
99982.069
100022.56
100062.11
99584.553
99648.758
99694.245
99736.372
99778.578
99820.346
99861.327
99901.543
99941.041
99979.845
100017.98
100055.45
100092.29
99676.899
99734.718
99772.704
99807.869
99843.829
99879.921
99915.717
99951.2
99986.385
100021.26
100055.83
100090.07
100123.98
100157.59
99774.724
99825.706
99855.713
99883.483
99912.805
99942.863
99973.144
100003.59
100034.18
100064.86
100095.61
100126.39
100157.2
100188.01
99877.814
99921.585
99943.194
99963.175
99985.494
100009.18
100033.62
100058.72
100084.42
100110.64
100137.31
100164.42
100191.93
100219.73
99985.885
100022.15
100035.02
100046.87
100061.86
100078.85
100097.14
100116.6
100137.11
100158.57
100180.95
100204.19
100228.14
100252.77
100278.06
100098.61
100127.17
100131.03
100134.47
100141.86
100151.86
100163.71
100177.22
100192.26
100208.73
100226.56
100245.63
100265.86
100287.18
100309.46
100215.6
100236.34
100231.06
100225.89
100225.44
100228.21
100233.34
100240.61
100249.95
100261.18
100274.09
100288.8
100305.13
100322.85
100341.86
100362.09
100336.39
100349.24
100334.89
100320.98
100312.53
100307.87
100306.05
100306.88
100310.24
100315.87
100323.65
100333.67
100345.7
100359.62
100375.27
100392.58
100460.23
100464.95
100441.93
100419.32
100402.83
100390.69
100381.81
100375.86
100372.96
100372.84
100375.13
100379.88
100387.38
100397.32
100409.43
100423.69
100439.65
100586.66
100582.28
100550.94
100519.85
100495.44
100475.9
100460.06
100447.45
100438.01
100431.74
100428.29
100427.59
100430.19
100435.91
100444.36
100455.38
100468.7
100719.89
100703.31
100662.75
100623.21
100591.09
100564.53
100541.97
100522.86
100507.1
100494.73
100485.52
100479.53
100477.18
100478.44
100483.04
100490.71
100501
100513.35
100867.38
100837.43
100790.88
100743.29
100702.62
100668.22
100638.48
100612.7
100590.61
100572.22
100557.54
100546.68
100539.78
100536.72
100537.18
100540.7
100546.82
100555.19
101010.93
100981.43
100947.51
100901.86
100854.99
100812.07
100773.43
100739
100708.86
100683.06
100661.66
100644.72
100632.28
100624
100619.2
100617.18
100617.39
100619.61
100623.82
99594.262
99605.343
99611.445
99619.832
99629.542
99640.544
99653.173
99667.489
99683.463
99700.993
99720.115
99740.84
99763.143
99786.971
99812.252
99838.901
99866.828
99895.935
99926.078
99593.521
99606.48
99615.32
99624.3
99634.417
99645.87
99658.876
99673.635
99689.964
99707.797
99727.115
99747.926
99770.22
99793.957
99819.076
99845.504
99873.158