/*--------------------------------*- C++ -*----------------------------------*\
| =========                 |                                                 |
| \\      /  F ield         | OpenFOAM: The Open Source CFD Toolbox           |
|  \\    /   O peration     | Version:  2406                                  |
|   \\  /    A nd           | Website:  www.openfoam.com                      |
|    \\/     M anipulation  |                                                 |
\*---------------------------------------------------------------------------*/
FoamFile
{
    version     2.0;
    format      ascii;
    arch        "LSB;label=32;scalar=64";
    class       volScalarField;
    location    "0.004";
    object      rho;
}
// * * * * * * * * * * * * * * * * * * * * * * * * * * * * * * * * * * * * * //

dimensions      [1 -3 0 0 0 0 0];

internalField   nonuniform List<scalar> 
23203
(
1.1965111
1.1956995
1.1953675
1.1949947
1.1946211
1.1943005
1.1940332
1.1938172
1.1936515
1.1935315
1.1934491
1.1933944
1.1933621
1.1933472
1.1933568
1.1933984
1.1934761
1.1935893
1.193736
1.1981347
1.1976325
1.1971853
1.1966935
1.1962474
1.1958741
1.1955649
1.195312
1.1951103
1.1949533
1.1948333
1.1947406
1.194665
1.1946039
1.1945609
1.1945409
1.1945497
1.1945927
1.1946694
1.1988416
1.1984686
1.1979813
1.1974448
1.196973
1.1965789
1.196249
1.1959744
1.1957493
1.1955673
1.195422
1.1953065
1.1952139
1.1951412
1.1950881
1.1950571
1.1950525
1.195078
1.1951344
1.1993999
1.1990899
1.1986195
1.1980801
1.1975957
1.1971835
1.1968317
1.1965327
1.1962818
1.1960739
1.195904
1.1957667
1.1956576
1.1955737
1.1955139
1.195479
1.1954707
1.1954905
1.1955387
1.1999031
1.1996342
1.1991901
1.1986628
1.1981797
1.1977619
1.1973999
1.1970873
1.1968204
1.1965955
1.1964085
1.1962554
1.1961326
1.1960377
1.1959692
1.195927
1.1959114
1.1959228
1.195961
1.2003345
1.2000861
1.1996682
1.1991629
1.1986929
1.1982806
1.1979186
1.1976018
1.1973276
1.1970933
1.1968959
1.1967322
1.1965996
1.1964959
1.1964195
1.1963699
1.1963466
1.1963494
1.1963778
1.200709
1.200461
1.2000599
1.1995847
1.1991378
1.1987397
1.1983854
1.1980717
1.1977968
1.1975591
1.1973565
1.1971868
1.1970478
1.1969377
1.1968553
1.1967994
1.1967694
1.1967645
1.1967841
1.2010329
1.2007758
1.200389
1.1999464
1.1995273
1.1991487
1.1988077
1.1985024
1.1982323
1.1979963
1.1977931
1.1976212
1.197479
1.1973651
1.1972783
1.1972175
1.1971818
1.1971703
1.1971822
1.2013141
1.2010438
1.2006711
1.2002613
1.1998717
1.1995154
1.1991913
1.1988986
1.1986373
1.198407
1.198207
1.1980363
1.1978938
1.1977784
1.197689
1.1976248
1.1975846
1.1975676
1.1975727
1.2015548
1.2012753
1.2009178
1.2005399
1.2001797
1.1998472
1.1995421
1.1992647
1.1990151
1.1987936
1.1985997
1.1984329
1.1982925
1.1981777
1.1980876
1.1980213
1.1979779
1.1979564
1.1979559
1.2017586
1.2014794
1.20114
1.2007919
1.2004597
1.200151
1.199866
1.1996054
1.1993695
1.1991588
1.1989733
1.1988126
1.1986763
1.1985638
1.1984745
1.1984075
1.1983621
1.1983373
1.198332
1.2019297
1.2016595
1.2013449
1.2010247
1.2007184
1.2004327
1.2001682
1.1999251
1.1997042
1.1995059
1.1993302
1.1991772
1.1990466
1.1989379
1.1988507
1.1987842
1.1987378
1.1987106
1.1987015
1.2020746
1.2018215
1.2015331
1.2012403
1.2009595
1.2006968
1.2004529
1.200228
1.2000228
1.1998378
1.1996731
1.1995289
1.199405
1.1993013
1.1992172
1.1991522
1.1991057
1.1990768
1.1990646
1.2022017
1.20197
1.2017085
1.2014431
1.2011876
1.2009479
1.2007246
1.200518
1.2003288
1.2001575
1.2000044
1.1998697
1.1997534
1.1996554
1.1995752
1.1995124
1.1994665
1.1994366
1.199422
1.2023197
1.2021118
1.2018772
1.2016386
1.2014078
1.2011905
1.2009874
1.2007988
1.2006255
1.2004681
1.2003268
1.2002019
1.2000936
1.2000017
1.1999259
1.1998659
1.199821
1.1997906
1.1997738
1.2024345
1.2022544
1.2020461
1.2018328
1.2016255
1.2014294
1.2012454
1.2010741
1.2009162
1.2007722
1.2006426
1.2005276
1.2004273
1.2003417
1.2002705
1.2002135
1.2001699
1.2001392
1.2001206
1.2025576
1.2024069
1.2022234
1.2020325
1.2018459
1.2016689
1.2015025
1.2013472
1.2012036
1.2010724
1.200954
1.2008485
1.2007561
1.2006767
1.2006101
1.200556
1.2005139
1.200483
1.2004625
1.2026909
1.2025703
1.2024152
1.2022432
1.2020731
1.2019123
1.2017614
1.2016206
1.2014902
1.2013708
1.2012628
1.2011663
1.2010813
1.2010078
1.2009456
1.2008943
1.2008534
1.2008221
1.2007997
1.2028227
1.202756
1.2026277
1.2024678
1.2023094
1.2021617
1.2020241
1.201896
1.2017775
1.2016689
1.2015704
1.2014822
1.201404
1.2013359
1.2012776
1.2012287
1.2011886
1.2011566
1.2011319
1.2029647
1.2029644
1.2028575
1.2027035
1.2025531
1.2024163
1.2022905
1.202174
1.2020663
1.2019675
1.2018778
1.2017969
1.2017249
1.2016615
1.2016064
1.2015592
1.2015195
1.2014862
1.2014587
1.2031245
1.2031458
1.2030673
1.2029313
1.2027953
1.2026721
1.202559
1.202454
1.2023567
1.2022672
1.2021853
1.2021109
1.2020441
1.2019844
1.2019317
1.2018856
1.2018454
1.2018102
1.2017792
1.2032815
1.2033334
1.2032798
1.2031619
1.2030413
1.202932
1.2028314
1.2027373
1.2026496
1.2025682
1.202493
1.2024241
1.2023613
1.2023043
1.202253
1.2022068
1.2021652
1.2021271
1.2020917
1.2034655
1.203533
1.2034987
1.2033986
1.2032935
1.2031976
1.2031086
1.2030245
1.202945
1.2028704
1.2028007
1.2027357
1.2026755
1.2026199
1.2025685
1.2025211
1.202477
1.2024349
1.2023941
1.2036607
1.2037351
1.2037232
1.2036431
1.2035537
1.2034704
1.2033916
1.2033157
1.2032428
1.2031732
1.203107
1.2030442
1.2029849
1.2029289
1.202876
1.2028258
1.2027777
1.2027303
1.2026827
1.2038634
1.2039786
1.2039805
1.2039092
1.2038287
1.2037534
1.2036811
1.2036104
1.2035414
1.2034743
1.2034094
1.2033467
1.2032863
1.203228
1.2031716
1.2031168
1.2030629
1.2030086
1.2029528
1.2041258
1.2042663
1.204266
1.2041939
1.2041158
1.2040436
1.203974
1.2039051
1.2038369
1.2037697
1.2037035
1.2036385
1.2035746
1.2035117
1.2034498
1.2033882
1.2033264
1.2032631
1.2031972
1.2044333
1.2045445
1.2045446
1.204477
1.2044019
1.2043311
1.2042617
1.204192
1.2041221
1.2040522
1.2039822
1.2039123
1.2038425
1.2037727
1.2037027
1.203632
1.2035599
1.2034853
1.2034075
1.2047234
1.2048269
1.2048243
1.2047559
1.2046796
1.2046067
1.2045344
1.2044611
1.2043868
1.2043115
1.2042352
1.204158
1.2040799
1.2040011
1.203921
1.2038389
1.203754
1.2036656
1.2035735
1.2050166
1.2051016
1.2050887
1.2050152
1.2049341
1.2048558
1.2047776
1.2046982
1.2046173
1.2045344
1.2044497
1.2043632
1.2042751
1.2041856
1.2040936
1.2039973
1.203896
1.2037892
1.2036775
1.2052878
1.2053363
1.2053077
1.2052297
1.2051438
1.2050588
1.2049735
1.2048873
1.2047987
1.2047062
1.2046099
1.2045101
1.2044077
1.2043036
1.2041962
1.2040826
1.2039617
1.203835
1.2037054
1.2054605
1.2054793
1.2054403
1.2053629
1.2052734
1.2051809
1.2050871
1.2049938
1.2048983
1.2047953
1.2046851
1.204568
1.2044465
1.2043248
1.2042033
1.204082
1.203961
1.2038403
1.2037198
1.2056616
1.2055984
1.2055127
1.2054046
1.2052888
1.2051809
1.205075
1.2049678
1.2048607
1.2047582
1.2046601
1.2045571
1.2044469
1.2043326
1.2042167
1.2041001
1.2039855
1.203874
1.2037652
1.2055793
1.2055437
1.2054968
1.2054184
1.2053088
1.2052022
1.2051037
1.2050031
1.2048836
1.2047578
1.2046425
1.2045406
1.2044465
1.2043459
1.2042399
1.2041336
1.2040284
1.2039242
1.2038207
1.2055766
1.2054757
1.205363
1.2052689
1.2052064
1.2051409
1.2050716
1.2050014
1.2049149
1.2048013
1.2046797
1.2045666
1.2044645
1.2043653
1.2042672
1.2041683
1.2040684
1.2039683
1.2038689
1.2055189
1.2054445
1.2053676
1.2052941
1.20522
1.2051329
1.2050316
1.2049219
1.2048272
1.2047695
1.2047013
1.2045992
1.2044878
1.204385
1.2042904
1.2041971
1.2041023
1.2040068
1.2039116
1.2054654
1.2053929
1.2053164
1.2052395
1.2051617
1.2050821
1.2049997
1.2049165
1.2048397
1.2047559
1.2046694
1.2046038
1.204521
1.204416
1.2043157
1.2042229
1.2041314
1.2040393
1.2039474
1.2054138
1.2053493
1.20528
1.2052083
1.2051347
1.205059
1.2049815
1.2049031
1.2048234
1.204741
1.2046628
1.2045793
1.204497
1.2044194
1.2043313
1.2042417
1.2041526
1.2040641
1.2053522
1.2052913
1.2052257
1.205158
1.2050892
1.2050192
1.2049481
1.2048758
1.2048027
1.2047292
1.2046571
1.2045878
1.2045104
1.2044159
1.2043245
1.204242
1.2041618
1.2040803
1.2052967
1.2052407
1.2051796
1.2051161
1.2050513
1.2049851
1.2049175
1.2048483
1.2047776
1.2047048
1.2046289
1.2045514
1.2044892
1.2044328
1.2043478
1.2042566
1.2041721
1.2040919
1.2052373
1.2051847
1.2051274
1.2050678
1.205007
1.204945
1.2048816
1.2048169
1.2047506
1.2046828
1.2046128
1.2045398
1.2044632
1.2044001
1.2043577
1.2042904
1.2041921
1.2041012
1.2051807
1.2051318
1.205078
1.2050221
1.2049649
1.2049065
1.2048467
1.2047857
1.2047233
1.2046597
1.2045948
1.2045288
1.2044621
1.2043945
1.2043226
1.2042653
1.2042061
1.2041216
1.2051238
1.2050779
1.2050273
1.2049747
1.204921
1.2048661
1.2048099
1.2047525
1.2046938
1.2046339
1.2045728
1.2045106
1.2044471
1.2043825
1.204319
1.2042531
1.2041822
1.2041216
1.2050681
1.205025
1.2049775
1.204928
1.2048774
1.2048257
1.2047728
1.2047187
1.2046633
1.2046068
1.2045491
1.2044903
1.2044305
1.2043697
1.2043081
1.2042464
1.2041926
1.2041289
1.2050127
1.2049721
1.2049272
1.2048806
1.204833
1.2047844
1.2047345
1.2046835
1.2046313
1.204578
1.2045235
1.2044679
1.204411
1.2043526
1.2042917
1.2042303
1.204185
1.2041405
1.2049577
1.2049194
1.2048771
1.2048332
1.2047883
1.2047424
1.2046954
1.2046472
1.2045979
1.2045476
1.204496
1.2044434
1.2043896
1.2043345
1.2042779
1.2042194
1.2041587
1.2041089
1.2049029
1.2048667
1.2048267
1.2047853
1.2047429
1.2046996
1.2046553
1.2046099
1.2045634
1.2045159
1.2044673
1.2044178
1.2043674
1.204316
1.2042637
1.2042104
1.2041561
1.2041007
1.2048484
1.2048141
1.2047763
1.2047372
1.2046972
1.2046564
1.2046145
1.2045716
1.2045277
1.2044828
1.204437
1.2043902
1.2043425
1.2042939
1.2042443
1.2041938
1.204142
1.2040888
1.204794
1.2047616
1.2047258
1.2046889
1.2046512
1.2046126
1.204573
1.2045324
1.2044909
1.2044485
1.2044051
1.2043608
1.2043157
1.2042696
1.2042226
1.2041747
1.2041259
1.204076
1.2047398
1.2047092
1.2046754
1.2046405
1.2046049
1.2045684
1.204531
1.2044927
1.2044534
1.2044133
1.2043723
1.2043304
1.2042876
1.204244
1.2041995
1.2041542
1.204108
1.204061
1.2046859
1.2046569
1.2046249
1.204592
1.2045583
1.2045239
1.2044886
1.2044523
1.2044153
1.2043773
1.2043385
1.2042988
1.2042583
1.204217
1.2041749
1.2041319
1.2040882
1.2040437
1.2046321
1.2046047
1.2045745
1.2045433
1.2045116
1.2044791
1.2044457
1.2044115
1.2043764
1.2043405
1.2043038
1.2042663
1.2042279
1.2041888
1.2041488
1.204108
1.2040665
1.2040241
1.2045786
1.2045527
1.2045241
1.2044947
1.2044647
1.2044339
1.2044024
1.2043701
1.2043369
1.204303
1.2042683
1.2042327
1.2041964
1.2041594
1.2041215
1.2040829
1.2040436
1.2040035
1.2045254
1.2045009
1.2044738
1.204446
1.2044177
1.2043886
1.2043588
1.2043282
1.2042969
1.2042648
1.2042319
1.2041983
1.204164
1.2041289
1.204093
1.2040564
1.2040191
1.2039811
1.2044726
1.2044494
1.2044237
1.2043974
1.2043706
1.2043432
1.204315
1.2042861
1.2042564
1.2042261
1.204195
1.2041632
1.2041306
1.2040974
1.2040634
1.2040286
1.2039932
1.2039571
1.2044202
1.2043982
1.2043739
1.204349
1.2043237
1.2042977
1.2042711
1.2042437
1.2042157
1.204187
1.2041576
1.2041274
1.2040966
1.2040651
1.2040329
1.204
1.2039664
1.2039321
1.2043681
1.2043473
1.2043243
1.2043008
1.2042768
1.2042523
1.2042271
1.2042012
1.2041747
1.2041475
1.2041197
1.2040912
1.204062
1.2040322
1.2040016
1.2039704
1.2039386
1.2039061
1.2043165
1.2042967
1.2042749
1.2042527
1.20423
1.2042068
1.204183
1.2041586
1.2041335
1.2041078
1.2040815
1.2040545
1.2040269
1.2039986
1.2039697
1.2039402
1.20391
1.2038791
1.2042652
1.2042465
1.2042259
1.2042048
1.2041834
1.2041615
1.204139
1.2041158
1.2040922
1.2040679
1.204043
1.2040175
1.2039914
1.2039646
1.2039372
1.2039092
1.2038806
1.2038514
1.2042144
1.2041967
1.2041772
1.2041572
1.204137
1.2041162
1.2040949
1.2040731
1.2040507
1.2040277
1.2040042
1.2039801
1.2039554
1.2039301
1.2039042
1.2038777
1.2038506
1.2038229
1.204164
1.2041473
1.2041288
1.2041099
1.2040908
1.2040712
1.204051
1.2040304
1.2040092
1.2039875
1.2039653
1.2039425
1.2039191
1.2038952
1.2038707
1.2038456
1.20382
1.2037937
1.2041141
1.2040982
1.2040807
1.2040629
1.2040449
1.2040263
1.2040073
1.2039878
1.2039678
1.2039472
1.2039262
1.2039047
1.2038826
1.20386
1.2038368
1.2038131
1.2037888
1.203764
1.2040646
1.2040497
1.2040331
1.2040163
1.2039992
1.2039817
1.2039637
1.2039453
1.2039264
1.203907
1.2038871
1.2038667
1.2038459
1.2038245
1.2038026
1.2037801
1.2037571
1.2037337
1.2040157
1.2040015
1.2039859
1.20397
1.2039539
1.2039374
1.2039204
1.203903
1.2038851
1.2038668
1.203848
1.2038288
1.203809
1.2037888
1.2037681
1.2037469
1.2037252
1.2037029
1.2039673
1.2039539
1.2039391
1.2039241
1.2039089
1.2038933
1.2038773
1.2038609
1.203844
1.2038267
1.203809
1.2037908
1.2037722
1.2037531
1.2037335
1.2037134
1.2036929
1.2036719
1.2039194
1.2039068
1.2038929
1.2038787
1.2038643
1.2038496
1.2038345
1.203819
1.2038031
1.2037868
1.2037701
1.2037529
1.2037353
1.2037173
1.2036988
1.2036799
1.2036605
1.2036406
1.2038721
1.2038603
1.2038471
1.2038337
1.2038202
1.2038063
1.203792
1.2037774
1.2037624
1.203747
1.2037313
1.2037151
1.2036985
1.2036815
1.2036641
1.2036462
1.2036279
1.2036092
1.2038255
1.2038143
1.2038018
1.2037892
1.2037765
1.2037634
1.20375
1.2037362
1.203722
1.2037075
1.2036927
1.2036774
1.2036618
1.2036457
1.2036293
1.2036124
1.2035952
1.2035775
1.2037795
1.2037689
1.2037572
1.2037453
1.2037333
1.2037209
1.2037083
1.2036953
1.203682
1.2036683
1.2036543
1.2036399
1.2036252
1.20361
1.2035946
1.2035787
1.2035624
1.2035458
1.2037341
1.2037242
1.2037131
1.2037019
1.2036906
1.203679
1.2036671
1.2036548
1.2036423
1.2036294
1.2036162
1.2036027
1.2035888
1.2035745
1.2035599
1.203545
1.2035296
1.2035139
1.2036894
1.2036801
1.2036697
1.2036591
1.2036485
1.2036376
1.2036264
1.2036149
1.2036031
1.2035909
1.2035785
1.2035658
1.2035527
1.2035393
1.2035255
1.2035114
1.203497
1.2034822
1.2036454
1.2036367
1.2036269
1.203617
1.203607
1.2035967
1.2035862
1.2035754
1.2035643
1.2035529
1.2035412
1.2035293
1.203517
1.2035043
1.2034914
1.2034781
1.2034645
1.2034506
1.2036022
1.203594
1.2035847
1.2035755
1.2035661
1.2035565
1.2035466
1.2035365
1.2035261
1.2035154
1.2035044
1.2034932
1.2034816
1.2034698
1.2034576
1.2034451
1.2034323
1.2034192
1.2035597
1.203552
1.2035434
1.2035347
1.2035259
1.2035169
1.2035076
1.2034981
1.2034884
1.2034784
1.2034681
1.2034575
1.2034467
1.2034356
1.2034242
1.2034125
1.2034005
1.2033881
1.2035181
1.2035108
1.2035027
1.2034946
1.2034864
1.2034779
1.2034693
1.2034604
1.2034512
1.2034419
1.2034323
1.2034224
1.2034122
1.2034018
1.2033911
1.2033802
1.2033689
1.2033574
1.2034772
1.2034704
1.2034629
1.2034553
1.2034476
1.2034397
1.2034316
1.2034233
1.2034147
1.203406
1.203397
1.2033878
1.2033783
1.2033685
1.2033585
1.2033483
1.2033377
1.2033269
1.2034372
1.2034309
1.2034238
1.2034167
1.2034095
1.2034022
1.2033946
1.2033868
1.2033789
1.2033707
1.2033623
1.2033537
1.2033448
1.2033357
1.2033264
1.2033168
1.2033069
1.2033981
1.2033922
1.2033856
1.2033789
1.2033722
1.2033654
1.2033583
1.2033511
1.2033437
1.203336
1.2033282
1.2033202
1.2033119
1.2033034
1.2032947
1.2032857
1.2032765
1.2033598
1.2033543
1.2033482
1.203342
1.2033358
1.2033294
1.2033228
1.2033161
1.2033091
1.203302
1.2032947
1.2032872
1.2032795
1.2032716
1.2032635
1.2032551
1.2032465
1.2033224
1.2033173
1.2033116
1.2033059
1.2033001
1.2032941
1.203288
1.2032817
1.2032753
1.2032687
1.2032619
1.2032549
1.2032477
1.2032403
1.2032328
1.203225
1.203217
1.203286
1.2032812
1.2032759
1.2032706
1.2032652
1.2032597
1.203254
1.2032482
1.2032422
1.203236
1.2032297
1.2032232
1.2032165
1.2032097
1.2032026
1.2031954
1.2031879
1.2032504
1.203246
1.203241
1.2032361
1.2032311
1.203226
1.2032207
1.2032153
1.2032097
1.203204
1.2031982
1.2031921
1.2031859
1.2031796
1.203173
1.2031663
1.2031594
1.2032157
1.2032116
1.203207
1.2032025
1.2031978
1.2031931
1.2031882
1.2031832
1.2031781
1.2031728
1.2031673
1.2031617
1.203156
1.2031501
1.203144
1.2031377
1.2031313
1.2031818
1.2031781
1.2031739
1.2031696
1.2031654
1.203161
1.2031565
1.2031518
1.2031471
1.2031422
1.2031372
1.203132
1.2031267
1.2031212
1.2031156
1.2031098
1.2031038
1.2031489
1.2031454
1.2031415
1.2031376
1.2031337
1.2031296
1.2031255
1.2031212
1.2031168
1.2031123
1.2031077
1.2031029
1.203098
1.2030929
1.2030877
1.2030824
1.2030769
1.2031167
1.2031136
1.20311
1.2031064
1.2031028
1.203099
1.2030952
1.2030913
1.2030873
1.2030831
1.2030789
1.2030745
1.2030699
1.2030653
1.2030605
1.2030556
1.2030505
1.2030854
1.2030825
1.2030792
1.2030759
1.2030726
1.2030692
1.2030657
1.2030621
1.2030584
1.2030546
1.2030507
1.2030467
1.2030425
1.2030382
1.2030338
1.2030293
1.2030247
1.2030549
1.2030523
1.2030493
1.2030462
1.2030432
1.2030401
1.2030369
1.2030336
1.2030302
1.2030268
1.2030232
1.2030195
1.2030157
1.2030117
1.2030077
1.2030036
1.2029993
1.2030252
1.2030228
1.20302
1.2030173
1.2030145
1.2030117
1.2030088
1.2030058
1.2030027
1.2029995
1.2029962
1.2029929
1.2029894
1.2029858
1.2029821
1.2029783
1.2029744
1.2029963
1.2029941
1.2029916
1.2029891
1.2029866
1.202984
1.2029813
1.2029786
1.2029758
1.2029729
1.2029699
1.2029668
1.2029636
1.2029604
1.202957
1.2029535
1.2029499
1.2029681
1.2029661
1.2029638
1.2029615
1.2029592
1.2029569
1.2029545
1.202952
1.2029494
1.2029468
1.2029441
1.2029413
1.2029384
1.2029354
1.2029323
1.2029291
1.2029258
1.2029406
1.2029388
1.2029367
1.2029347
1.2029326
1.2029305
1.2029283
1.202926
1.2029237
1.2029213
1.2029188
1.2029163
1.2029136
1.2029109
1.2029081
1.2029052
1.2029022
1.2029138
1.2029122
1.2029103
1.2029085
1.2029066
1.2029046
1.2029027
1.2029006
1.2028985
1.2028963
1.2028941
1.2028917
1.2028893
1.2028869
1.2028843
1.2028817
1.2028789
1.2028877
1.2028863
1.2028846
1.2028829
1.2028812
1.2028794
1.2028776
1.2028758
1.2028739
1.2028719
1.2028698
1.2028677
1.2028655
1.2028633
1.202861
1.2028586
1.2028561
1.2028623
1.202861
1.2028594
1.2028579
1.2028564
1.2028548
1.2028532
1.2028515
1.2028498
1.202848
1.2028461
1.2028442
1.2028422
1.2028402
1.2028381
1.2028359
1.2028336
1.2028375
1.2028363
1.2028349
1.2028336
1.2028322
1.2028308
1.2028293
1.2028278
1.2028262
1.2028246
1.2028229
1.2028212
1.2028194
1.2028175
1.2028156
1.2028136
1.2028115
1.2028133
1.2028123
1.202811
1.2028098
1.2028086
1.2028073
1.202806
1.2028046
1.2028032
1.2028017
1.2028002
1.2027986
1.202797
1.2027953
1.2027935
1.2027917
1.2027898
1.2027897
1.2027888
1.2027877
1.2027866
1.2027855
1.2027843
1.2027831
1.2027819
1.2027806
1.2027793
1.2027779
1.2027765
1.202775
1.2027735
1.2027719
1.2027702
1.2027685
1.2027667
1.2027659
1.2027649
1.2027639
1.2027629
1.2027619
1.2027608
1.2027597
1.2027586
1.2027574
1.2027562
1.2027549
1.2027535
1.2027522
1.2027507
1.2027492
1.2027477
1.2027444
1.2027436
1.2027427
1.2027419
1.202741
1.20274
1.2027391
1.2027381
1.2027371
1.202736
1.2027349
1.2027338
1.2027326
1.2027313
1.20273
1.2027287
1.2027228
1.2027221
1.2027213
1.2027205
1.2027197
1.2027189
1.202718
1.2027172
1.2027162
1.2027153
1.2027143
1.2027133
1.2027122
1.2027111
1.2027099
1.2027087
1.202702
1.2027014
1.2027007
1.2027
1.2026993
1.2026986
1.2026978
1.202697
1.2026962
1.2026954
1.2026945
1.2026936
1.2026926
1.2026916
1.2026906
1.2026895
1.2026824
1.2026819
1.2026812
1.2026806
1.2026799
1.2026793
1.2026786
1.2026779
1.2026772
1.2026764
1.2026756
1.2026748
1.2026739
1.202673
1.2026721
1.2026711
1.202664
1.2026635
1.2026629
1.2026624
1.2026618
1.2026612
1.2026606
1.2026599
1.2026593
1.2026586
1.2026579
1.2026571
1.2026563
1.2026555
1.2026547
1.2026538
1.202647
1.2026466
1.2026461
1.2026456
1.202645
1.2026445
1.2026439
1.2026434
1.2026428
1.2026421
1.2026415
1.2026408
1.2026401
1.2026393
1.2026386
1.2026378
1.2026317
1.2026313
1.2026308
1.2026304
1.2026299
1.2026294
1.2026289
1.2026284
1.2026278
1.2026272
1.2026266
1.202626
1.2026254
1.2026247
1.202624
1.2026232
1.2026181
1.2026177
1.2026173
1.2026169
1.2026165
1.202616
1.2026156
1.2026151
1.2026146
1.202614
1.2026135
1.2026129
1.2026123
1.2026117
1.202611
1.2026103
1.2026062
1.2026059
1.2026055
1.2026051
1.2026048
1.2026043
1.2026039
1.2026035
1.202603
1.2026025
1.202602
1.2026015
1.2026009
1.2026004
1.2025998
1.2025991
1.2025961
1.2025958
1.2025955
1.2025951
1.2025948
1.2025944
1.202594
1.2025936
1.2025932
1.2025927
1.2025923
1.2025918
1.2025913
1.2025908
1.2025902
1.2025897
1.2025878
1.2025876
1.2025872
1.2025869
1.2025866
1.2025862
1.2025859
1.2025855
1.2025851
1.2025847
1.2025843
1.2025839
1.2025834
1.202583
1.2025825
1.202582
1.2025814
1.2025811
1.2025808
1.2025805
1.2025802
1.2025799
1.2025796
1.2025792
1.2025789
1.2025785
1.2025781
1.2025777
1.2025773
1.2025768
1.2025764
1.2025759
1.2025766
1.2025764
1.2025761
1.2025758
1.2025755
1.2025752
1.2025749
1.2025746
1.2025742
1.2025738
1.2025734
1.202573
1.2025726
1.2025722
1.2025717
1.2025713
1.2025732
1.202573
1.2025727
1.2025725
1.2025722
1.2025719
1.2025716
1.2025712
1.2025708
1.2025705
1.2025701
1.2025697
1.2025693
1.2025689
1.2025684
1.202568
1.2025721
1.2025719
1.2025717
1.2025714
1.2025712
1.2025709
1.2025706
1.2025703
1.20257
1.2025697
1.2025693
1.202569
1.2025686
1.2025683
1.2025679
1.2025675
1.2025741
1.2025739
1.2025737
1.2025735
1.2025732
1.202573
1.2025727
1.2025724
1.2025721
1.2025718
1.2025715
1.2025712
1.2025709
1.2025706
1.2025702
1.2025698
1.202578
1.2025778
1.2025776
1.2025774
1.2025771
1.2025769
1.2025766
1.2025764
1.2025761
1.2025758
1.2025755
1.2025752
1.2025749
1.2025746
1.2025743
1.2025852
1.202585
1.2025848
1.2025847
1.2025844
1.2025842
1.202584
1.2025837
1.2025834
1.2025832
1.2025829
1.2025826
1.2025823
1.202582
1.2025817
1.202596
1.2025959
1.2025958
1.2025956
1.2025954
1.2025952
1.2025949
1.2025947
1.2025944
1.2025941
1.2025938
1.2025935
1.2025932
1.2025929
1.2025926
1.2026117
1.2026115
1.2026114
1.2026113
1.2026111
1.2026109
1.2026106
1.2026104
1.2026102
1.2026099
1.2026097
1.2026094
1.2026092
1.2026089
1.2026086
1.2026337
1.2026336
1.2026335
1.2026334
1.2026332
1.202633
1.2026328
1.2026326
1.2026324
1.2026321
1.2026319
1.2026317
1.2026315
1.2026312
1.202631
1.202664
1.2026638
1.2026637
1.2026635
1.2026633
1.2026631
1.2026629
1.2026626
1.2026623
1.2026621
1.2026618
1.2026615
1.2026613
1.202661
1.2026607
1.2027037
1.2027035
1.2027033
1.202703
1.2027027
1.2027024
1.202702
1.2027017
1.2027013
1.202701
1.2027006
1.2027002
1.2026999
1.2026995
1.2026992
1.2027535
1.2027532
1.202753
1.2027527
1.2027523
1.202752
1.2027517
1.2027514
1.202751
1.2027507
1.2027505
1.2027502
1.2027499
1.2027497
1.2027494
1.2028179
1.2028177
1.2028174
1.2028171
1.2028168
1.2028164
1.202816
1.2028156
1.2028152
1.2028147
1.2028143
1.2028138
1.2028133
1.2028128
1.2028123
1.2028908
1.2028904
1.20289
1.2028895
1.202889
1.2028885
1.2028879
1.2028874
1.2028868
1.2028863
1.2028858
1.2028853
1.2028847
1.2028842
1.2028837
1.2029739
1.2029734
1.2029729
1.2029724
1.2029718
1.2029712
1.2029707
1.2029701
1.2029696
1.202969
1.2029684
1.202968
1.2029675
1.202967
1.2029665
1.2030721
1.2030716
1.2030711
1.2030706
1.20307
1.2030693
1.2030686
1.2030679
1.2030671
1.2030663
1.2030654
1.2030644
1.2030634
1.2030624
1.2031724
1.2031718
1.2031712
1.2031705
1.2031698
1.203169
1.2031683
1.2031675
1.2031666
1.2031658
1.2031649
1.203164
1.203163
1.2031621
1.1789636
1.1794705
1.1800838
1.1806793
1.1811905
1.1816169
1.1819902
1.1823372
1.1826701
1.1829975
1.1833265
1.1836617
1.1840062
1.1843614
1.1847276
1.1851046
1.1854919
1.1858888
1.1862943
1.1798742
1.1805339
1.1811137
1.181562
1.1819109
1.1822126
1.1824965
1.1827816
1.1830753
1.1833815
1.1837019
1.1840358
1.1843824
1.184741
1.1851109
1.185491
1.1858808
1.1862791
1.1803723
1.1808522
1.1812663
1.1816208
1.1819318
1.1822304
1.1825285
1.1828321
1.1831443
1.1834672
1.1838017
1.1841478
1.1845051
1.1848735
1.1852521
1.1856403
1.1860373
1.1864419
1.1806921
1.1810769
1.1814233
1.1817386
1.1820314
1.1823192
1.1826113
1.1829127
1.1832259
1.183552
1.1838913
1.1842432
1.1846071
1.1849823
1.1853677
1.1857624
1.1861654
1.1809067
1.1812126
1.1815065
1.1817952
1.1820777
1.1823633
1.1826586
1.1829667
1.1832885
1.183624
1.1839729
1.1843344
1.1847076
1.1850915
1.1854851
1.1858875
1.1862971
1.1810267
1.1812799
1.1815432
1.1818196
1.1821004
1.18239
1.1826928
1.1830103
1.1833424
1.1836887
1.1840483
1.1844204
1.1848037
1.1851971
1.1855996
1.1860099
1.1810639
1.1812889
1.1815386
1.1818124
1.182098
1.1823965
1.1827104
1.1830401
1.1833849
1.1837438
1.1841158
1.1844995
1.1848938
1.1852974
1.1857092
1.1861277
1.1810335
1.1812481
1.181497
1.1817771
1.1820736
1.1823856
1.182714
1.1830587
1.1834183
1.1837915
1.1841771
1.1845735
1.1849795
1.1853938
1.1858152
1.1809484
1.1811655
1.1814234
1.1817171
1.1820299
1.1823593
1.1827055
1.1830676
1.183444
1.1838331
1.1842334
1.1846434
1.1850618
1.1854873
1.1859185
1.1808159
1.181046
1.1813213
1.181635
1.1819691
1.1823198
1.1826868
1.1830686
1.1834636
1.1838699
1.184286
1.1847103
1.1851416
1.1855785
1.1806416
1.1808937
1.1811941
1.1815339
1.1818938
1.1822693
1.1826597
1.1830635
1.1834786
1.1839033
1.184336
1.1847752
1.1852196
1.1856681
1.1804302
1.180713
1.1810455
1.181417
1.1818068
1.1822103
1.1826267
1.1830541
1.1834906
1.1839346
1.1843845
1.184839
1.1852968
1.185757
1.180187
1.1805085
1.1808798
1.1812879
1.1817114
1.1821456
1.1825899
1.1830424
1.1835014
1.1839653
1.1844328
1.1849027
1.185374
1.1799178
1.1802858
1.1807019
1.1811508
1.181611
1.1820782
1.1825518
1.1830305
1.1835126
1.1839968
1.184482
1.1849673
1.1854518
1.1796303
1.1800516
1.1805174
1.1810103
1.1815095
1.1820112
1.1825152
1.1830205
1.183526
1.1840304
1.1845332
1.1850337
1.1855313
1.1793334
1.1798133
1.1803324
1.1808715
1.1814109
1.1819479
1.1824827
1.1830147
1.1835433
1.1840678
1.1845878
1.185103
1.1790369
1.1795792
1.1801533
1.1807393
1.1813194
1.1818916
1.1824568
1.1830152
1.1835664
1.1841102
1.1846467
1.1851759
1.1787511
1.1793572
1.1799865
1.180619
1.1812391
1.1818456
1.1824403
1.183024
1.1835968
1.1841591
1.1847112
1.1852535
1.1784856
1.1791553
1.179838
1.1805154
1.1811739
1.1818131
1.1824357
1.1830432
1.1836363
1.1842157
1.1847822
1.1853367
1.1782499
1.1789823
1.1797135
1.1804331
1.181128
1.1817972
1.1824452
1.1830747
1.1836864
1.1842813
1.1848608
1.1780594
1.1788486
1.1796179
1.1803775
1.1811062
1.1818006
1.1824707
1.1831202
1.1837486
1.184357
1.1849479
1.1779042
1.1787442
1.1795605
1.1803553
1.1811119
1.181825
1.1825138
1.1831819
1.183825
1.184444
1.1850445
1.1778041
1.1786901
1.1795435
1.1803608
1.1811369
1.181874
1.1825803
1.1832628
1.1839165
1.1845432
1.1851517
1.1777615
1.1786861
1.1795666
1.1804029
1.1811961
1.1819499
1.1826695
1.1833593
1.1840203
1.1846573
1.1852712
1.17778
1.1787353
1.1796347
1.1804845
1.1812894
1.1820534
1.182781
1.1834765
1.1841429
1.1847838
1.1854004
1.1778626
1.1788405
1.1797508
1.1806074
1.1814178
1.1821862
1.1829167
1.183614
1.1842823
1.184925
1.1855432
1.1780112
1.1790039
1.179917
1.1807734
1.1815832
1.1823499
1.1830775
1.1837714
1.1844379
1.1850809
1.1856994
1.178225
1.1792268
1.1801354
1.1809855
1.1817892
1.1825488
1.1832678
1.1839532
1.1846144
1.1852573
1.185877
1.1785025
1.1795101
1.180409
1.1812497
1.1820442
1.1827935
1.1835046
1.184183
1.1848354
1.1854712
1.1860842
1.178865
1.1798563
1.1807367
1.1815633
1.1823401
1.1830686
1.1837662
1.1844377
1.1850857
1.1857057
1.1862823
1.179321
1.1802764
1.1811124
1.1819019
1.1826409
1.1833225
1.1839894
1.1846395
1.1852679
1.1858846
1.1864501
1.1869803
1.1796736
1.1806329
1.1814426
1.1822183
1.182919
1.183556
1.1841929
1.1848172
1.1854126
1.185969
1.1865388
1.1871282
1.1800983
1.1810081
1.1817425
1.1824034
1.1830934
1.1838146
1.1844748
1.1850928
1.1856817
1.1862444
1.186803
1.187356
1.1808168
1.1816524
1.1823295
1.1829594
1.1835977
1.1842364
1.1848494
1.1854351
1.185999
1.1865438
1.1870768
1.1875999
1.1815789
1.1823586
1.1829721
1.1835466
1.1841214
1.1846931
1.1852535
1.1857992
1.1863306
1.1868484
1.1873556
1.1878542
1.188342
1.1823396
1.1830695
1.1836208
1.1841367
1.1846546
1.1851718
1.1856832
1.1861869
1.1866822
1.1871691
1.1876486
1.1881214
1.1885859
1.1831391
1.1838143
1.1842986
1.1847521
1.1852128
1.1856764
1.1861385
1.1865982
1.1870548
1.1875076
1.1879563
1.1883999
1.1888403
1.1839857
1.1846011
1.1850129
1.1853991
1.1857993
1.1862072
1.1866183
1.1870319
1.1874473
1.187863
1.1882772
1.1886888
1.1891097
1.1895336
1.1848809
1.1854312
1.1857652
1.1860793
1.186415
1.1867643
1.1871219
1.1874871
1.1878587
1.1882334
1.1886093
1.1889941
1.1893938
1.1897912
1.1858239
1.1863048
1.1865559
1.1867934
1.1870606
1.187348
1.1876491
1.1879629
1.1882871
1.1886151
1.1889563
1.1893212
1.1896899
1.1900554
1.1868127
1.1872207
1.1873849
1.1875416
1.1877365
1.1879585
1.1881991
1.1884562
1.1887281
1.1890159
1.1893296
1.1896598
1.1899905
1.1903293
1.1906744
1.1878448
1.1881777
1.1882519
1.1883241
1.1884425
1.1885952
1.1887703
1.1889611
1.1891931
1.1894481
1.1897145
1.1900006
1.1903012
1.1906131
1.1909341
1.1889174
1.1891742
1.1891568
1.1891413
1.1891774
1.1892557
1.1893614
1.1894999
1.1896842
1.1898825
1.190106
1.190354
1.1906223
1.1909063
1.1912022
1.1915067
1.1900264
1.1902066
1.1900985
1.1899945
1.1899372
1.189942
1.1899934
1.1900673
1.1901793
1.1903265
1.1905061
1.190716
1.1909516
1.1912072
1.1914783
1.1917601
1.1911646
1.191266
1.1910676
1.1908763
1.1907454
1.1906707
1.1906372
1.1906426
1.1906889
1.1907781
1.1909089
1.1910786
1.1912815
1.1915102
1.1917582
1.1920188
1.1922873
1.1923294
1.1923397
1.192056
1.1917802
1.1915725
1.1914171
1.1913036
1.1912327
1.1912076
1.1912315
1.1913069
1.1914328
1.1916029
1.1918066
1.1920351
1.1922785
1.1925293
1.1935616
1.1934461
1.193077
1.1927152
1.1924294
1.1921992
1.192011
1.1918656
1.1917678
1.1917234
1.1917387
1.1918162
1.1919484
1.1921231
1.1923302
1.1925566
1.1927906
1.1930285
1.1949683
1.1947315
1.1943102
1.1938565
1.1934797
1.1931699
1.1929108
1.1927018
1.1925451
1.192445
1.1924077
1.1924342
1.1925092
1.1926266
1.192781
1.1929608
1.1931549
1.1933618
1.1963636
1.1961543
1.1959055
1.1955008
1.1950609
1.1946698
1.1943267
1.1940407
1.1938192
1.1936622
1.1935695
1.1935374
1.1935422
1.1935687
1.1936199
1.1936949
1.1937913
1.1939148
1.1940621
1.1796718
1.1802624
1.180753
1.1812203
1.1816384
1.1820141
1.182355
1.1826763
1.1830067
1.1833355
1.183666
1.1840018
1.1843448
1.1846962
1.1850565
1.1854257
1.1858036
1.1861898
1.1865835
1.1796854
1.1802637
1.180767
1.1812212
1.1816312
1.1820071
1.18235
1.1826789
1.1830046
1.1833357
1.1836695
1.1840066
1.1843495
1.1847
1.1850587
1.1854261