/*--------------------------------*- C++ -*----------------------------------*\
| =========                 |                                                 |
| \\      /  F ield         | OpenFOAM: The Open Source CFD Toolbox           |
|  \\    /   O peration     | Version:  2406                                  |
|   \\  /    A nd           | Website:  www.openfoam.com                      |
|    \\/     M anipulation  |                                                 |
\*---------------------------------------------------------------------------*/
FoamFile
{
    version     2.0;
    format      ascii;
    arch        "LSB;label=32;scalar=64";
    class       volScalarField;
    location    "0.014";
    object      T;
}
// * * * * * * * * * * * * * * * * * * * * * * * * * * * * * * * * * * * * * //

dimensions      [0 0 0 1 0 0 0];

internalField   nonuniform List<scalar> 
35803
(
292.46163
292.46897
292.47718
292.48947
292.50469
292.52168
292.53939
292.5567
292.5725
292.5854
292.59404
292.59696
292.59323
292.58165
292.56248
292.53565
292.50645
292.49549
292.55947
292.64195
292.68286
292.7096
292.73262
292.75262
292.78399
292.80232
292.83014
292.84263
292.86019
292.87612
293.0414
292.52993
292.52774
292.53021
292.53699
292.54659
292.55792
292.57012
292.58226
292.59325
292.60211
292.60734
292.60758
292.60166
292.58839
292.56781
292.54012
292.51109
292.50239
292.5703
292.64929
292.68732
292.71296
292.73542
292.7549
292.78681
292.80426
292.83148
292.84369
292.86112
292.87703
293.04166
292.60503
292.59741
292.59341
292.59339
292.59617
292.60084
292.6067
292.61285
292.61857
292.62276
292.62418
292.62117
292.61258
292.59718
292.5748
292.54589
292.51659
292.51092
292.58288
292.65724
292.69217
292.71666
292.73851
292.75736
292.78949
292.80626
292.83301
292.84471
292.86206
292.87782
293.04194
292.67692
292.66704
292.65876
292.65324
292.64988
292.6482
292.64779
292.64803
292.64827
292.64741
292.64434
292.63756
292.62583
292.6079
292.58335
292.55287
292.52342
292.52163
292.59746
292.66611
292.69771
292.72097
292.74211
292.76031
292.79247
292.80802
292.83479
292.8457
292.86304
292.87861
293.04237
292.74749
292.73574
292.72444
292.7147
292.70626
292.69897
292.69272
292.68719
292.68182
292.67566
292.66772
292.65673
292.6414
292.62051
292.59346
292.56127
292.5319
292.53528
292.61431
292.67596
292.70403
292.72593
292.74624
292.76386
292.79582
292.80967
292.83675
292.8467
292.86401
292.8794
293.04302
292.82001
292.80599
292.79189
292.7785
292.76567
292.75339
292.74171
292.73053
292.71946
292.7078
292.69468
292.67903
292.65964
292.63535
292.60543
292.5714
292.54239
292.5528
292.63358
292.68683
292.71125
292.73166
292.75095
292.768
292.79928
292.81173
292.83879
292.84777
292.86488
292.88015
293.04387
292.89447
292.87845
292.86184
292.8452
292.82845
292.81163
292.79487
292.77822
292.76146
292.74413
292.72556
292.70485
292.68095
292.65281
292.61962
292.5837
292.55565
292.57541
292.65522
292.6988
292.71945
292.73826
292.75631
292.77261
292.80241
292.81458
292.84107
292.84912
292.86567
292.88089
293.04501
292.96913
292.95189
292.93344
292.91412
292.89397
292.87312
292.85173
292.82992
292.80764
292.78464
292.76045
292.73441
292.70564
292.67325
292.63645
292.59872
292.57282
292.60395
292.67878
292.71198
292.7288
292.74584
292.76243
292.77736
292.80524
292.81812
292.84388
292.85102
292.86664
292.88167
293.04648
293.04185
293.02386
293.00421
292.98304
292.96038
292.93631
292.91102
292.88467
292.85732
292.82891
292.7992
292.76775
292.73391
292.69699
292.65639
292.61708
292.59583
292.63915
292.70352
292.72652
292.73947
292.75454
292.76939
292.78312
292.80858
292.82225
292.84714
292.8534
292.86801
292.88259
293.04826
293.11026
293.09214
293.07197
293.04979
293.02553
292.99923
292.971
292.94098
292.90934
292.87613
292.84131
292.80467
292.76581
292.7243
292.67994
292.63989
292.62788
292.6811
292.72882
292.74259
292.75167
292.76446
292.77732
292.78987
292.81295
292.82694
292.85085
292.85606
292.87002
292.88372
293.05033
293.17293
293.15507
293.13499
293.11251
293.08745
293.0598
293.02961
292.99699
292.96209
292.92503
292.88588
292.84464
292.80116
292.75534
292.70781
292.66954
292.67371
292.72786
292.75456
292.76042
292.76566
292.77571
292.78638
292.79763
292.81797
292.8321
292.85514
292.8597
292.8726
292.88518
293.05255
293.22847
293.21067
293.19071
293.1684
293.14334
293.11533
293.08434
293.05039
293.01354
292.9739
292.93161
292.88677
292.83952
292.79028
292.74168
292.71188
292.7357
292.77355
292.78112
292.7804
292.78166
292.78846
292.79677
292.80652
292.8237
292.83779
292.85989
292.86396
292.87565
292.88713
293.05448
293.27445
293.25741
293.23798
293.216
293.19134
293.1638
293.1331
293.09909
293.06169
293.02092
292.97691
292.92985
292.88029
292.83001
292.78717
292.77802
292.80446
292.81511
292.80897
292.80264
292.79978
292.80315
292.80871
292.81654
292.83038
292.84416
292.86495
292.86835
292.87926
292.88975
293.05582
293.30871
293.29311
293.27538
293.25513
293.23187
293.20541
293.17559
293.14223
293.10525
293.06463
293.02053
292.97351
292.92529
292.88117
292.85719
292.86521
292.8658
292.85234
292.83835
292.8273
292.82033
292.81998
292.82235
292.82779
292.83813
292.85135
292.86995
292.87321
292.88367
292.8933
293.05661
293.32938
293.31503
293.29864
293.28016
293.25924
293.23527
293.20785
293.17697
293.14272
293.1052
293.06489
293.02348
292.98536
292.9594
292.95063
292.93858
292.91214
292.88814
292.86899
292.85379
292.84327
292.83891
292.83757
292.8403
292.84748
292.85944
292.87551
292.87879
292.88898
292.89816
293.05689
293.34025
293.32717
293.3119
293.29441
293.275
293.25414
293.23162
293.20695
293.17997
293.15089
293.1208
293.09185
293.06683
293.04518
293.02004
292.98677
292.95336
292.92425
292.90114
292.88184
292.8677
292.85945
292.85465
292.85383
292.85858
292.8685
292.88129
292.8849
292.89512
292.90472
293.05655
293.35878
293.35095
293.34214
293.33186
293.31887
293.30198
293.28098
293.25625
293.23003
293.20453
293.1785
293.15099
293.1221
293.08964
293.05543
293.02368
292.99114
292.96069
292.93461
292.91119
292.89264
292.88153
292.87315
292.86834
292.87115
292.87843
292.88755
292.89167
292.90217
292.91286
293.05495
293.33212
293.32569
293.31861
293.31103
293.3032
293.29564
293.28857
293.28131
293.26952
293.24861
293.21905
293.18312
293.14871
293.11461
293.07982
293.04784
293.01908
292.99081
292.9657
292.94118
292.91881
292.90433
292.89296
292.88371
292.88428
292.88928
292.89502
292.89898
292.9096
292.92144
293.05793
293.32062
293.31496
293.30825
293.30016
293.29043
293.27869
293.26472
293.24906
293.23371
293.22016
293.20994
293.1994
293.17224
293.13602
293.10107
293.06777
293.03523
293.00925
292.98788
292.96803
292.94568
292.92764
292.91316
292.89975
292.89801
292.90025
292.9036
292.90693
292.91724
292.92859
293.05509
293.27879
293.2751
293.27094
293.26625
293.26097
293.25505
293.24831
293.24038
293.23073
293.21851
293.20181
293.18311
293.17139
293.15504
293.12213
293.08766
293.05622
293.02586
293.00216
292.98643
292.97024
292.95183
292.93348
292.91687
292.91256
292.9114
292.91348
292.91548
292.92525
292.9335
293.05779
293.25318
293.25008
293.24642
293.24207
293.23688
293.23067
293.22325
293.21454
293.20449
293.19322
293.1812
293.16797
293.15105
293.13768
293.13051
293.10897
293.07885
293.0489
293.02162
293.00107
292.98867
292.97417
292.95419
292.93578
292.92967
292.92375
292.92328
292.92552
292.93584
292.93781
293.0549
293.20938
293.20734
293.20501
293.20236
293.19935
293.19595
293.19211
293.18773
293.18262
293.17639
293.16835
293.15781
293.14506
293.12896
293.11291
293.10653
293.0975
293.07111
293.04509
293.02307
293.00353
292.99121
292.97444
292.95631
292.94979
292.94016
292.93642
292.93866
292.94825
292.94444
293.04989
293.19145
293.18982
293.18788
293.18555
293.18271
293.17925
293.17504
293.16998
293.16401
293.15722
293.14989
293.1425
293.13522
293.12705
293.11435
293.09552
293.08385
293.08123
293.06385
293.04369
293.02205
293.00336
292.99231
292.97805
292.97053
292.96005
292.9532
292.95443
292.96029
292.95684
293.0431
293.15487
293.15379
293.15256
293.15117
293.14961
293.14788
293.14597
293.14382
293.14135
293.13833
293.1344
293.12896
293.12176
293.11366
293.1064
293.09861
293.08387
293.07381
293.06992
293.05126
293.03407
293.01775
293.00732
292.99838
292.988
292.97838
292.9704
292.96898
292.96801
292.96609
293.05045
293.1346
293.13376
293.13276
293.13153
293.13003
293.12817
293.12585
293.12296
293.11941
293.11519
293.11047
293.10561
293.10066
293.09531
293.08928
293.08399
293.07968
293.0675
293.05934
293.06443
293.05272
293.03587
293.02265
293.01295
292.99977
292.99179
292.98447
292.9827
292.97792
292.97989
293.04477
293.10699
293.10659
293.10612
293.10557
293.10494
293.10423
293.10349
293.10274
293.10201
293.10128
293.1004
293.09907
293.09697
293.09381
293.08955
293.08338
293.07776
293.07523
293.0665
293.05984
293.06181
293.04881
293.0353
293.02304
293.01043
293.00545
292.99754
292.9977
292.99384
292.997
293.05556
293.0956
293.09537
293.09508
293.09472
293.09428
293.09374
293.09308
293.09227
293.09128
293.09007
293.08862
293.087
293.08549
293.08422
293.0831
293.08159
293.07786
293.07307
293.06983
293.06278
293.06069
293.06149
293.04622
293.03361
293.02407
293.02069
293.01116
293.01122
293.00808
293.00996
293.05805
293.07627
293.0762
293.07611
293.076
293.07588
293.07574
293.07561
293.0755
293.07541
293.07538
293.07542
293.07549
293.07545
293.07509
293.07424
293.07302
293.07183
293.0695
293.06589
293.06407
293.06234
293.06616
293.06359
293.05159
293.04114
293.0354
293.0234
293.02197
293.02156
293.02018
293.05292
293.07182
293.07188
293.07194
293.072
293.07205
293.07208
293.07209
293.07208
293.07203
293.07189
293.07159
293.07109
293.07034
293.06933
293.06808
293.06656
293.06504
293.06378
293.06262
293.06197
293.06196
293.06764
293.06615
293.05827
293.05104
293.04235
293.03134
293.02938
293.02596
293.02279
293.04938
293.05509
293.05508
293.05505
293.05502
293.05497
293.05491
293.05482
293.05469
293.05451
293.05426
293.05394
293.0536
293.05331
293.05313
293.05306
293.05293
293.0527
293.05241
293.05246
293.05272
293.05315
293.04864
293.05506
293.05463
293.04956
293.0431
293.03458
293.02935
293.02012
293.01524
293.03708
293.03017
293.03041
293.03067
293.03096
293.03127
293.03157
293.03187
293.03213
293.03237
293.03257
293.03275
293.03292
293.0331
293.03327
293.03339
293.03329
293.03242
293.03085
293.02911
293.02567
293.02315
293.01838
293.02475
293.0317
293.04399
293.04454
293.03957
293.02987
293.02589
293.0184
293.01807
293.07111
293.14623
293.24953
293.30372
293.26448
293.17059
293.05836
292.95462
292.86686
292.79302
292.72989
292.67504
292.62679
292.58363
292.54344
292.5048
292.46343
292.42054
292.37394
292.37479
292.45321
292.55302
292.61151
292.65743
292.70837
292.75049
292.78649
292.80105
292.80188
292.84254
293.06404
293.1148
293.19785
293.26483
293.25557
293.19746
293.10733
293.00855
292.91796
292.83951
292.77191
292.71314
292.66159
292.61599
292.57494
292.53638
292.49897
292.45841
292.41652
292.37257
292.37666
292.46014
292.5583
292.61477
292.65993
292.71056
292.75231
292.78766
292.80176
292.80249
292.8435
293.06238
293.17198
293.25369
293.27851
293.24242
293.16411
293.06677
292.97239
292.88902
292.81662
292.7536
292.69832
292.64962
292.60639
292.56722
292.53014
292.49381
292.45394
292.41283
292.37147
292.37892
292.46716
292.56339
292.61787
292.6623
292.71262
292.75402
292.78879
292.80248
292.80316
292.84459
293.06107
293.24182
293.29178
293.27645
293.21302
293.1217
293.02631
292.93942
292.863
292.79584
292.73675
292.6846
292.63853
292.59749
292.56009
292.52437
292.48903
292.44983
292.40942
292.37061
292.38161
292.47431
292.56838
292.62094
292.66468
292.71467
292.7557
292.78993
292.80321
292.80388
292.84567
293.05982
293.3033
293.30196
293.25383
293.1713
293.07772
292.98887
292.90949
292.83897
292.77629
292.72071
292.67147
292.62791
292.58899
292.55328
292.51887
292.48448
292.44597
292.40625
292.37002
292.38481
292.4816
292.57324
292.62397
292.66706
292.71669
292.75733
292.7911
292.80395
292.80466
292.84676
293.0586
293.32633
293.28664
293.21388
293.12495
293.03606
292.9549
292.88205
292.81648
292.7577
292.70533
292.65888
292.61774
292.58086
292.54679
292.51365
292.48016
292.44236
292.40336
292.36964
292.38852
292.48895
292.57797
292.62695
292.66942
292.71869
292.75891
292.79229
292.8047
292.80549
292.84786
293.05745
293.31739
293.2497
293.16705
293.08001
292.99832
292.92413
292.85662
292.79523
292.73994
292.69057
292.64682
292.60803
292.57313
292.54063
292.50872
292.47609
292.43903
292.40073
292.36942
292.39275
292.49631
292.58255
292.62989
292.67177
292.72064
292.76044
292.79351
292.80545
292.80637
292.84896
293.05636
293.28487
293.20314
293.11966
293.03891
292.96434
292.89582
292.83269
292.77497
292.72289
292.67641
292.63528
292.59878
292.56579
292.53482
292.50408
292.47228
292.43597
292.39831
292.36934
292.39751
292.50362
292.58698
292.63279
292.6741
292.72255
292.76192
292.79476
292.80622
292.80729
292.85006
293.05536
293.23763
293.15435
293.0759
293.00201
292.93327
292.86926
292.80986
292.75549
292.70647
292.66281
292.62423
292.58997
292.55885
292.52934
292.49973
292.46872
292.43315
292.39618
292.36953
292.40279
292.51083
292.59127
292.63565
292.67642
292.72442
292.76335
292.79604
292.80699
292.80824
292.85117
293.05444
293.18636
293.10841
293.03641
292.96834
292.90418
292.84392
292.78789
292.73668
292.69062
292.64974
292.61368
292.5816
292.55228
292.52419
292.49567
292.46541
292.43057
292.39435
292.37003
292.40842
292.51789
292.59542
292.63849
292.67873
292.72624
292.76473
292.79735
292.80778
292.80923
292.85229
293.05358
293.13797
293.06685
293.0004
292.93685
292.87641
292.81944
292.76658
292.71844
292.67531
292.63718
292.6036
292.57366
292.5461
292.51937
292.4919
292.46234
292.42824
292.39277
292.37086
292.41435
292.52482
292.59943
292.64129
292.68101
292.72801
292.76607
292.79866
292.80858
292.81029
292.85341
293.05277
293.0942
293.0288
292.96666
292.9067
292.84946
292.79558
292.74581
292.70071
292.66051
292.62512
292.594
292.56615
292.54029
292.51488
292.48841
292.45952
292.42616
292.39142
292.37204
292.42059
292.53161
292.60333
292.64406
292.68328
292.72973
292.76736
292.79997
292.80938
292.81142
292.85454
293.05198
293.05406
292.99298
292.93421
292.8773
292.82303
292.77218
292.72551
292.68346
292.64622
292.61356
292.58486
292.55906
292.53486
292.51072
292.48521
292.45693
292.42437
292.39032
292.37356
292.42716
292.53824
292.60711
292.6468
292.68553
292.73141
292.76862
292.80126
292.81017
292.81264
292.85567
293.05121
293.01602
292.95822
292.9023
292.84822
292.79689
292.74914
292.70562
292.66669
292.63242
292.6025
292.57619
292.5524
292.5298
292.50688
292.48229
292.4546
292.42282
292.38947
292.3754
292.43401
292.5447
292.61078
292.64952
292.68777
292.73305
292.76986
292.80252
292.81093
292.81391
292.8568
293.05042
292.97867
292.92365
292.8704
292.81918
292.7709
292.72638
292.68612
292.65037
292.61911
292.59192
292.56798
292.54615
292.5251
292.50337
292.47965
292.45251
292.42152
292.38891
292.37755
292.44112
292.55097
292.61436
292.65222
292.68998
292.73466
292.77107
292.80373
292.81164
292.81527
292.85791
293.04963
292.941
292.88865
292.83818
292.79
292.74499
292.70386
292.66699
292.63452
292.6063
292.58184
292.56024
292.54032
292.52078
292.50018
292.47729
292.45066
292.42048
292.38868
292.38001
292.44844
292.55705
292.61784
292.65489
292.69217
292.73625
292.77228
292.80488
292.8123
292.81672
292.85898
293.04885
292.90231
292.85282
292.80542
292.76057
292.71911
292.68158
292.64824
292.61913
292.594
292.57225
292.55295
292.53491
292.51683
292.49731
292.4752
292.44908
292.41965
292.38878
292.38275
292.45595
292.56293
292.62123
292.65754
292.69434
292.73782
292.77349
292.80596
292.81292
292.81826
292.86
293.0481
292.86214
292.81591
292.77199
292.73086
292.69325
292.65955
292.6299
292.60423
292.5822
292.56317
292.54613
292.52991
292.51324
292.49477
292.47339
292.44781
292.41901
292.38916
292.38577
292.46359
292.5686
292.62456
292.66017
292.69649
292.7394
292.77471
292.80697
292.8135
292.81987
292.86096
293.04745
292.82019
292.77779
292.73786
292.70088
292.66744
292.63779
292.61198
292.58983
292.57093
292.55458
292.53978
292.52533
292.51002
292.49255
292.47187
292.44684
292.4186
292.38978
292.38906
292.47133
292.57407
292.62781
292.66277
292.69862
292.74099
292.77594
292.80789
292.81403
292.82159
292.86188
293.04695
292.77634
292.73843
292.70306
292.67069
292.64174
292.61637
292.59453
292.57596
292.5602
292.54651
292.53389
292.52117
292.50717
292.49065
292.47064
292.44615
292.41838
292.3906
292.39262
292.47911
292.57934
292.63101
292.66536
292.70073
292.74261
292.7772
292.80874
292.81453
292.82334
292.86274
293.04631
292.73067
292.69796
292.66774
292.6404
292.61625
292.59535
292.57759
292.56265
292.55002
292.53896
292.52847
292.51743
292.50469
292.48906
292.46968
292.44573
292.4183
292.39159
292.39649
292.4869
292.58441
292.63415
292.66793
292.70283
292.74428
292.77849
292.80952
292.815
292.82508
292.86357
293.04614
292.68347
292.65664
292.6321
292.61017
292.59107
292.57481
292.56121
292.54991
292.5404
292.53194
292.52353
292.51411
292.50257
292.48778
292.46905
292.44558
292.41848
292.39274
292.40075
292.49465
292.58929
292.63724
292.67048
292.7049
292.746
292.7798
292.81024
292.81547
292.82681
292.86433
293.04547
292.63526
292.61483
292.59644
292.58022
292.56635
292.55482
292.54544
292.5378
292.53137
292.52545
292.51906
292.5112
292.50081
292.48684
292.46874
292.44565
292.41892
292.39405
292.40539
292.50229
292.59399
292.64029
292.67301
292.70696
292.74778
292.78115
292.81092
292.81596
292.8285
292.86505
293.04501
292.58668
292.57307
292.5611
292.55076
292.54223
292.5355
292.53035
292.52633
292.52295
292.51951
292.51508
292.50871
292.49938
292.48627
292.46869
292.44595
292.41958
292.39555
292.41039
292.5098
292.59851
292.64331
292.67553
292.70901
292.74963
292.78251
292.81159
292.81649
292.83008
292.86569
293.04468
292.53858
292.53196
292.52637
292.522
292.51887
292.51695
292.51599
292.51555
292.51514
292.51412
292.51158
292.50662
292.49836
292.48605
292.46889
292.4465
292.42044
292.3973
292.41571
292.51715
292.60288
292.64629
292.67805
292.71105
292.75154
292.7839
292.81225
292.81708
292.83161
292.86628
293.04461
292.49149
292.49181
292.49268
292.49423
292.49647
292.49929
292.50242
292.50548
292.50797
292.5093
292.50855
292.50494
292.49777
292.48614
292.46938
292.44728
292.42149
292.39931
292.42134
292.5243
292.60709
292.64924
292.68055
292.71308
292.75349
292.78529
292.81294
292.81775
292.83309
292.86678
293.04444
292.44613
292.45322
292.4604
292.46772
292.47517
292.4826
292.48973
292.49616
292.50146
292.50503
292.50597
292.50379
292.4976
292.48651
292.47014
292.44831
292.42276
292.40155
292.42722
292.53125
292.61116
292.65216
292.68304
292.71509
292.75547
292.78667
292.81367
292.81851
292.83452
292.8672
293.04411
292.40316
292.41669
292.42989
292.44272
292.45514
292.46699
292.47796
292.48764
292.4956
292.50129
292.50396
292.50313
292.49772
292.48718
292.47118
292.44959
292.42422
292.40402
292.43331
292.53799
292.6151
292.65505
292.68553
292.7171
292.75747
292.78802
292.81443
292.81938
292.83589
292.86756
293.04363
292.36314
292.38267
292.40149
292.41947
292.43655
292.45256
292.46716
292.4799
292.49039
292.49815
292.50259
292.50287
292.49819
292.48818
292.4725
292.45111
292.42591
292.40669
292.43957
292.5445
292.61891
292.65792
292.68801
292.71909
292.75944
292.78932
292.81523
292.82039
292.83721
292.86786
293.04316
292.32658
292.35157
292.3755
292.39818
292.41954
292.43937
292.4573
292.47291
292.48595
292.49589
292.50183
292.50296
292.49904
292.48949
292.4741
292.45289
292.42784
292.40951
292.44592
292.5508
292.62261
292.66075
292.69047
292.72106
292.76137
292.79055
292.81606
292.8215
292.83847
292.86812
293.04299
292.29401
292.32375
292.35212
292.37895
292.40413
292.4274
292.44841
292.46695
292.48272
292.49434
292.50141
292.50351
292.50026
292.49112
292.47598
292.45493
292.43
292.4125
292.45233
292.55688
292.6262
292.66355
292.69293
292.72301
292.76324
292.7917
292.81689
292.82268
292.83968
292.86836
293.04291
292.26598
292.29954
292.33156
292.36185
292.39039
292.41693
292.4411
292.46262
292.48026
292.49312
292.50146
292.50449
292.50184
292.49307
292.47813
292.45723
292.43238
292.41567
292.45877
292.56274
292.6297
292.66632
292.69538
292.72493
292.76503
292.79275
292.81772
292.8239
292.84085
292.86858
293.04299
292.24361
292.27987
292.31453
292.3476
292.37904
292.4086
292.4358
292.45933
292.47814
292.49247
292.50202
292.5059
292.50377
292.49533
292.48056
292.45979
292.43499
292.41902
292.46519
292.56841
292.63314
292.66905
292.6978
292.72682
292.76672
292.79368
292.81851
292.82511
292.84197
292.86879
293.04337
292.22719
292.26495
292.30143
292.33672
292.37057
292.40262
292.43166
292.45642
292.47671
292.49251
292.5031
292.50773
292.50608
292.4979
292.48326
292.46258
292.4378
292.42256
292.47157
292.5739
292.6365
292.67175
292.7002
292.72866
292.76831
292.7945
292.81924
292.82627
292.84306
292.869
293.04337
292.21549
292.25386
292.29147
292.32834
292.36413
292.39778
292.42807
292.45438
292.47619
292.49318
292.50468
292.50999
292.50877
292.50078
292.48623
292.4656
292.44082
292.42629
292.47788
292.57922
292.6398
292.67441
292.70257
292.73046
292.76979
292.79519
292.81991
292.82736
292.84412
292.8692
293.04375
292.20426
292.2426
292.2814
292.32012
292.35787
292.39339
292.42553
292.45339
292.47649
292.49447
292.50677
292.51267
292.51182
292.50398
292.48947
292.46882
292.44406
292.43019
292.48411
292.58437
292.64304
292.67703
292.70488
292.7322
292.77116
292.79576
292.82052
292.82838
292.84517
292.86943
293.04408
292.19269
292.23184
292.27231
292.31314
292.35301
292.39047
292.42424
292.45343
292.47758
292.49639
292.50937
292.51578
292.51523
292.50749
292.49297
292.47226
292.4475
292.43426
292.49023
292.58937
292.64622
292.67961
292.70714
292.73388
292.77241
292.79622
292.82109
292.82934
292.84621
292.86967
293.04444
292.18426
292.22404
292.26611
292.30884
292.35049
292.38941
292.42435
292.45452
292.47946
292.49893
292.51248
292.51933
292.51902
292.51132
292.49675
292.47592
292.45115
292.43849
292.49624
292.59421
292.64935
292.68214
292.70934
292.73551
292.77353
292.79659
292.82163
292.83025
292.84725
292.86993
293.04468
292.17879
292.2201
292.26383
292.30802
292.35075
292.39044
292.42598
292.45672
292.48216
292.50213
292.51612
292.52331
292.52317
292.51546
292.5008
292.47979
292.455
292.44286
292.50212
292.5989
292.65243
292.68462
292.71147
292.73708
292.77453
292.79689
292.82218
292.83115
292.8483
292.87018
293.04477
292.17871
292.22179
292.2667
292.31139
292.35417
292.39372
292.42919
292.46003
292.48568
292.50598
292.52028
292.52772
292.52769
292.51992
292.50512
292.48387
292.45902
292.44735
292.50786
292.60344
292.65545
292.68706
292.71355
292.73861
292.77541
292.79715
292.82275
292.83205
292.84935
292.87044
293.04469
292.18791
292.23142
292.27588
292.31947
292.3609
292.39926
292.43396
292.46445
292.49002
292.51048
292.52496
292.53255
292.53257
292.52469
292.5097
292.48817
292.46322
292.45196
292.51347
292.60783
292.65843
292.68947
292.71556
292.74009
292.77617
292.79738
292.82333
292.83297
292.85042
292.87069
293.04447
292.20916
292.25023
292.29167
292.3321
292.37068
292.40685
292.44017
292.46992
292.49518
292.51564
292.53016
292.53782
292.53781
292.52977
292.51456
292.49267
292.46757
292.45667
292.51894
292.61208
292.66136
292.69183
292.71753
292.74154
292.77687
292.79762
292.82394
292.83392
292.8515
292.87095
293.04419
292.24177
292.27702
292.31282
292.34823
292.38276
292.41605
292.44759
292.47633
292.50115
292.52145
292.53588
292.5435
292.5434
292.53516
292.51968
292.49738
292.47206
292.46145
292.52426
292.61618
292.66423
292.69417
292.71946
292.74297
292.77751
292.79791
292.82456
292.83492
292.85261
292.87124
293.0439
292.28071
292.30785
292.33646
292.36597
292.39606
292.42631
292.45597
292.4836
292.50796
292.52792
292.54213
292.5496
292.54934
292.54086
292.52506
292.5023
292.47667
292.46629
292.52944
292.62014
292.66705
292.69647
292.72136
292.74437
292.77815
292.79825
292.8252
292.83596
292.85374
292.8716
293.04362
292.31818
292.33724
292.35907
292.38328
292.4095
292.43717
292.46511
292.49175
292.51558
292.53507
292.5489
292.55611
292.55562
292.54684
292.5307
292.50743
292.48141
292.47118
292.53448
292.62397
292.66982
292.69875
292.72325
292.74575
292.7788
292.79867
292.82588
292.83706
292.85489
292.87204
293.04337
292.34729
292.36077
292.37809
292.39888
292.42261
292.4484
292.475
292.50081
292.52404
292.5429
292.55619
292.56301
292.56222
292.55311
292.53657
292.51277
292.48627
292.4761
292.5394
292.62767
292.67253
292.701
292.72513
292.74713
292.77946
292.79916
292.82663
292.83821
292.85604
292.87262
293.04314
292.36584
292.37755
292.39338
292.41297
292.43557
292.46024
292.48587
292.51082
292.53321
292.55135
292.56396
292.57025
292.56908
292.55961
292.54264
292.51826
292.49123
292.48104
292.54422
292.63126
292.67518
292.70321
292.727
292.74849
292.78017
292.79972
292.82747
292.83937
292.85717
292.87343
293.04295
292.37882
292.3914
292.40757
292.42719
292.4494
292.4733
292.49784
292.52165
292.54287
292.5602
292.57208
292.57776
292.57614
292.56628
292.54886
292.52389
292.49628
292.48596
292.54896
292.63468
292.67771
292.70533
292.72884
292.74982
292.78098
292.80038
292.82835
292.84052
292.85824
292.87435
293.04277
292.39926
292.41267
292.4278
292.44614
292.46699
292.4893
292.51201
292.53392
292.55357
292.56961
292.58075
292.58569
292.58355
292.57325
292.55531
292.5297
292.50139
292.49062
292.55334
292.63774
292.68002
292.7073
292.7306
292.75112
292.78212
292.80119
292.82922
292.84163
292.85925
292.87524
293.04257
293.0431
293.10503
293.20119
293.27957
293.26728
293.18415
293.07306
292.96782
292.87788
292.80213
292.73755
292.68152
292.6322
292.58808
292.54712
292.50784
292.46622
292.42284
292.37542
292.37392
292.4488
292.54966
292.60924
292.65569
292.70683
292.74912
292.7856
292.80053
292.80149
292.84164
293.06356
293.03508
293.08806
293.16885
293.24821
293.25048
293.17714
293.07349
292.97139
292.88238
292.8068
292.74213
292.68584
292.63608
292.59141
292.54989
292.51004
292.4681
292.42411
292.37671
292.37281
292.4455
292.54727
292.60758
292.65443
292.70565
292.74799
292.78486
292.8
292.80108
292.84103
293.06451
293.02968
293.07849
293.15301
293.23233
293.24326
293.17757
293.0779
292.97717
292.88822
292.81229
292.74723
292.6905
292.64022
292.59495
292.55285
292.51239
292.47008
292.42551
292.37793
292.37163
292.44195
292.54458
292.60575
292.65305
292.70437
292.74675
292.78407
292.79944
292.80067
292.84041
293.06536
293.02447
293.0696
293.1397
293.22037
293.23898
293.17918
293.08232
292.98257
292.89363
292.8174
292.752
292.69491
292.6442
292.59839
292.55576
292.51474
292.47208
292.427
292.37921
292.37064
292.43848
292.5418
292.60384
292.65161
292.70304
292.74546
292.78326
292.79888
292.80027
292.83978
293.06636
293.01966
293.06128
293.12696
293.20796
293.23438
293.18009
293.08613
292.98749
292.89869
292.82225
292.75657
292.69919
292.64809
292.60181
292.55868
292.51713
292.47412
292.42857
292.38057
292.36981
292.43511
292.53902
292.60194
292.65018
292.7017
292.74415
292.78244
292.7983
292.79989
292.83917
293.06755
293.01545
293.05395
293.11532
293.19468
293.22833
293.1802
293.08951
292.99215
292.90358
292.827
292.76107
292.70341
292.65196
292.60524
292.56164
292.51958
292.47622
292.43021
292.38202
292.3691
292.43181
292.53622
292.60004
292.64875
292.70036
292.74283
292.78162
292.79773
292.79953
292.83856
293.06876
293.01185
293.04758
293.10493
293.18167
293.2212
293.17977
293.09263
292.99667
292.90839
292.83168
292.76553
292.70761
292.65584
292.6087
292.56465
292.52209
292.47838
292.43192
292.38355
292.36853
292.42858
292.5334
292.59815
292.64733
292.69903
292.74152
292.78079
292.79716
292.79919
292.83794
293.06989
293.00884
293.0421
293.09573
293.16939
293.21355
293.1789
293.09554
293.00107
292.91314
292.83633
292.76996
292.71179
292.65971
292.61219
292.56771
292.52467
292.4806
292.43371
292.38515
292.36809
292.42541
292.53056
292.59627
292.6459
292.6977
292.74021
292.77996
292.79658
292.79884
292.83733
293.07087
293.00642
293.03744
293.08763
293.15796
293.20558
293.17758
293.09821
293.00534
292.91781
292.84094
292.77436
292.71596
292.6636
292.61572
292.57082
292.52732
292.48288
292.43559
292.38684
292.36779
292.42232
292.5277
292.59438
292.64447
292.69638
292.73892
292.77911
292.79599
292.79849
292.8367
293.07137
293.00457
293.03358
293.08057
293.14745
293.19739
293.17577
293.10065
293.0095
292.92244
292.84552
292.77875
292.72012
292.6675
292.61927
292.57398
292.53004
292.48523
292.43754
292.38861
292.36762
292.41931
292.52482
292.5925
292.64302
292.69506
292.73765
292.77825
292.79539
292.79813
292.83604
293.07179
293.0033
293.03049
293.07451
293.13786
293.18898
293.17346
293.10288
293.01356
292.92702
292.85009
292.78314
292.72429
292.67141
292.62287
292.57719
292.53282
292.48765
292.43957
292.39046
292.36759
292.41639
292.52194
292.59062
292.64157
292.69376
292.7364
292.77738
292.79478
292.79776
292.83535
293.07181
293.0026
293.02813
293.0694
293.12923
293.18083
293.17085
293.10491
293.01754
292.93159
292.85467
292.78754
292.72848
292.67536
292.6265
292.58046
292.53567
292.49013
292.44169
292.39239
292.36769
292.41357
292.51905
292.58873
292.6401
292.69246
292.73519
292.7765
292.79415
292.79738
292.83462
293.07142
293.00243
293.02646
293.06519
293.1216
293.17312
293.16809
293.10676
293.02144
292.93615
292.85927
292.79197
292.73269
292.67933
292.63018
292.58378
292.53859
292.49268
292.44388
292.39441
292.36792
292.41084
292.51615
292.58685
292.63862
292.69117
292.73401
292.77561
292.7935
292.79697
292.83384
293.07084
293.00278
293.02545
293.06182
293.11498
293.16596
293.16539
293.10845
293.0253
292.94072
292.86391
292.79644
292.73695
292.68335
292.63391
292.58716
292.54157
292.4953
292.44614
292.39647
292.3683
292.40823
292.51326
292.58497
292.63714
292.68989
292.73286
292.77472
292.79284
292.79655
292.83303
293.07011
293.00364
293.02507
293.05928
293.1094
293.15943
293.1628
293.11001
293.02911
292.94531
292.86859
292.80096
292.74125
292.68741
292.63769
292.59061
292.54463
292.49799
292.44846
292.39857
292.36879
292.40573
292.51036
292.58308
292.63564
292.68862
292.73175
292.77383
292.79215
292.7961
292.83217