/*--------------------------------*- C++ -*----------------------------------*\
| =========                 |                                                 |
| \\      /  F ield         | OpenFOAM: The Open Source CFD Toolbox           |
|  \\    /   O peration     | Version:  2406                                  |
|   \\  /    A nd           | Website:  www.openfoam.com                      |
|    \\/     M anipulation  |                                                 |
\*---------------------------------------------------------------------------*/
FoamFile
{
    version     2.0;
    format      ascii;
    arch        "LSB;label=32;scalar=64";
    class       volScalarField;
    location    "0.03";
    object      nut;
}
// * * * * * * * * * * * * * * * * * * * * * * * * * * * * * * * * * * * * * //

dimensions      [0 2 -1 0 0 0 0];

internalField   nonuniform List<scalar> 
2065
(
0.00035997783
0.00035087646
0.00034105488
0.00034231961
0.00033873562
0.00032943803
0.00029732484
0.00026038709
0.00022858492
0.00020335333
0.00019848487
0.00019378334
0.00020687992
0.00028879597
0.00055567951
0.0009615012
0.00076745523
0.00062663387
0.00061041026
0.00054259057
0.00045627546
0.00043383457
0.00045451959
0.00050501559
0.00071080062
0.00093961538
0.0010234728
0.00089952995
0.00081437187
0.00065873382
0.00078237632
0.00083018309
0.00077054241
0.0007411177
0.00073089208
0.00072796259
0.0007284134
0.00071303363
0.00070896816
0.00070795458
0.00071987676
0.00074992065
0.00075762223
0.00076757273
0.00078259013
0.00080367617
0.00083689918
0.00087506174
0.00090911681
0.00094739161
0.00098859928
0.0010535269
0.0011031105
0.0011645796
0.0011969439
0.0012566702
0.0012817124
0.0013424944
0.0004691771
0.00038192181
0.00035101895
0.00034264666
0.00035384727
0.00034822872
0.00032016098
0.00028257676
0.00024372986
0.00021223811
0.00020647612
0.00019978177
0.00023269216
0.00037098035
0.00085390343
0.00090661815
0.00068659237
0.00064358269
0.00062734989
0.00053574299
0.00044519236
0.00042153461
0.00044698855
0.00052138858
0.00076779988
0.00095626565
0.0010170481
0.00089085985
0.00079908742
0.00067515162
0.00080436649
0.00083580289
0.00076349748
0.00073727129
0.00072828361
0.00072865196
0.00073057163
0.00071701528
0.00070528459
0.00070173154
0.00071213315
0.00073939724
0.00074733003
0.00075167569
0.00076336089
0.00078482172
0.00081796508
0.00085321517
0.00088557991
0.00092252653
0.00096690034
0.0010349918
0.0010862536
0.0011474866
0.0011854665
0.0012479418
0.0012803822
0.0013455178
0.00058156005
0.00057047761
0.00054389607
0.00042790162
0.0003536555
0.00034905015
0.0003588382
0.0003363049
0.00029646041
0.00025132867
0.0002256952
0.00021083464
0.00020614469
0.00025971179
0.00045683819
0.00099330592
0.0008476738
0.00066983526
0.00066709396
0.00063823592
0.00052824588
0.00043177172
0.00040957664
0.00044053864
0.00053258061
0.00078580955
0.00097378172
0.0010058489
0.00088240098
0.00077949236
0.00069834248
0.00082201377
0.00083782949
0.00075892541
0.00073478066
0.00072956813
0.0007309366
0.00073274681
0.00071891915
0.00070106048
0.00069737539
0.00070733746
0.00072945499
0.00073683753
0.00073372011
0.00074244004
0.00076534789
0.00079672447
0.00082551093
0.00085586345
0.00089107378
0.00093595238
0.0010051173
0.0010566287
0.0011163028
0.0011607536
0.0012254184
0.0012608813
0.0013303439
0.00092206822
0.00086119542
0.00071576546
0.00062280977
0.00058534693
0.00042857931
0.00035943722
0.00035949246
0.00035357128
0.00031084407
0.00026764789
0.00023368457
0.00021591564
0.00022344958
0.00031171427
0.00062735292
0.00098369788
0.00077199346
0.00068597255
0.00071843538
0.00067643084
0.00053264732
0.00042277452
0.00040244921
0.00043575854
0.00054933122
0.00080802353
0.00098160678
0.00099189065
0.00087560602
0.00075777484
0.00072509431
0.00083706777
0.00083662534
0.00075589763
0.00073365501
0.00072968437
0.00073474782
0.0007353329
0.00071897882
0.00069673483
0.00069230165
0.00070308997
0.00071987363
0.00072590638
0.0007153469
0.00072198034
0.00074668521
0.00077426293
0.00079297418
0.00082098645
0.00085434343
0.00089692308
0.00096465719
0.0010152975
0.0010724643
0.0011222942
0.0011890174
0.0012256137
0.0012980718
0.0013805124
0.0013158959
0.0011248069
0.00081889632
0.00064478929
0.00054771224
0.00040386532
0.00038077716
0.00037068132
0.00033275654
0.000280058
0.00024268128
0.00022033161
0.00025080947
0.00037670308
0.00086598097
0.00092979015
0.00073299832
0.00074738947
0.00078578717
0.00071114307
0.00053480252
0.0004163136
0.00039358935
0.00043216934
0.0005641745
0.00082157642
0.00098747066
0.00097505044
0.00087023852
0.00073795345
0.00075289113
0.00084916395
0.00083239655
0.0007534351
0.0007342939
0.00073226088
0.00073942679
0.00073763323
0.00071793835
0.00069291936
0.00068813619
0.0006975796
0.00071312627
0.00071464013
0.00069821483
0.00070601574
0.00073010783
0.00074750257
0.00075771685
0.00078175418
0.00081344012
0.00085145555
0.0009148231
0.00096361469
0.0010173029
0.0010704545
0.0011385224
0.0011759139
0.0012494747
0.0015118816
0.0015865664
0.0015612205
0.0014583202
0.0011838373
0.00078876944
0.0006515518
0.00042722521
0.00039069401
0.00038164171
0.00034812345
0.00028918064
0.00025001616
0.00022662284
0.00027590349
0.00044951285
0.00098243389
0.00089284343
0.00073974186
0.00082925395
0.00085131976
0.0007612746
0.00054358995
0.00040845638
0.00038495515
0.00042890583
0.00058109263
0.00082432158
0.00098681216
0.00095567252
0.00086558181
0.00072619254
0.00077642498
0.0008571733
0.00082941304
0.000751151
0.0007342459
0.00073773274
0.00074735375
0.00074171638
0.00071540093
0.00068993136
0.00068517132
0.00069226542
0.00070493316
0.0007056718
0.00068428054
0.00069383983
0.00071301592
0.00071785092
0.00072194318
0.00073945591
0.00076946516
0.0008014995
0.00085736216
0.00090320207
0.00095260861
0.0010059939
0.0010745104
0.0011127722
0.0011854308
0.0014000123
0.0012978671
0.0013000497
0.0014568502
0.0014720139
0.0013508424
0.00099485404
0.00074208301
0.00047713849
0.0004020219
0.00039285092
0.00036000313
0.0003049169
0.00025499976
0.0002416452
0.0003092275
0.00053481807
0.00099902816
0.00083387807
0.00078351794
0.00089521565
0.00091033305
0.00080362822
0.00055483452
0.00040254497
0.00037584267
0.00042529594
0.00059250546
0.00082167535
0.00097474312
0.0009370865
0.0008597081
0.00071790336
0.00078829188
0.00086198402
0.00082756933
0.00075048372
0.00073416473
0.00074191963
0.00075467445
0.00074601012
0.00071246116
0.00068749313
0.00068331946
0.00068803409
0.00069946111
0.0006932539
0.00067309093
0.00068224544
0.00069160251
0.00068930718
0.00068776891
0.00069698354
0.00072365525
0.0007494939
0.00079458052
0.00083620308
0.00088069499
0.00093050898
0.00099848418
0.0010371732
0.0011071353
0.00090431269
0.00081016923
0.00080995678
0.0010255033
0.0012119497
0.0012938073
0.0011228247
0.00080606246
0.00058133483
0.00040781788
0.00039852025
0.00036957533
0.00032029266
0.00026156882
0.00026063479
0.00035366434
0.00073975708
0.00097653859
0.00081727494
0.00086260976
0.00095708741
0.00096981887
0.00085674051
0.00056807306
0.00039717104
0.00036698655
0.00042137732
0.00060074279
0.00081801632
0.00095864273
0.000921489
0.00085364673
0.00071110545
0.00079252403
0.00086375013
0.00082582282
0.00074875351
0.0007342113
0.0007430984
0.00075666964
0.00074624332
0.00071071369
0.00068629159
0.00068131447
0.00068579327
0.00070024313
0.00067569956
0.00066354403
0.00066818525
0.00066958532
0.00066209263
0.00065600751
0.00065861349
0.00067821903
0.00069773641
0.00073041047
0.00076581103
0.00080466825
0.00084720034
0.00091318307
0.00095102628
0.00101652
0.00067355328
0.00064185309
0.00064617587
0.00080394367
0.00094487844
0.0011201662
0.0011455799
0.00084539739
0.00065361116
0.00042545077
0.00040389217
0.00038178662
0.00033249069
0.00026560818
0.00028390704
0.00039519399
0.00084423072
0.00095860568
0.00082511258
0.00092632869
0.0010138593
0.0010250015
0.00090524582
0.00058669534
0.00039393631
0.00035667656
0.00041685236
0.00060698171
0.00081173087
0.0009423761
0.00090749268
0.00084630481
0.00070344918
0.0007942589
0.0008629891
0.00082452147
0.00074706495
0.00073492251
0.00074169646
0.00075907027
0.00074533093
0.00070948349
0.00068721352
0.00068114007
0.00068627471
0.00069468266
0.00066492616
0.00065426481
0.00065330473
0.00064904199
0.00063781159
0.00062881386
0.00062632387
0.00063855407
0.00064976903
0.00067066642
0.0006956276
0.00072994341
0.00076281725
0.00082355057
0.00085829548
0.00091782652
0.0006812068
0.00059537323
0.00059354561
0.0006085274
0.00071523906
0.00078994035
0.00094929832
0.0011082692
0.0008722371
0.00070493386
0.00044672307
0.00041203662
0.000390174
0.00033749188
0.00027091622
0.0003065431
0.00043439646
0.00088913844
0.00091377114
0.00085149931
0.00097998324
0.0010692127
0.0010793498
0.0009587424
0.00060808056
0.0003917538
0.00034457021
0.00041040653
0.00060802528
0.00080484782
0.00092752902
0.00089552229
0.00083507877
0.00069476986
0.00079537036
0.0008609786
0.00082310592
0.00074562641
0.00073600876
0.00074485775
0.00076193634
0.00074544849
0.00070890585
0.00069031856
0.00068575795
0.00069161121
0.0006812424
0.00065699686
0.00064636399
0.00064040353
0.00063237938
0.00061915209
0.00060918424
0.00060313533
0.00060832218
0.0006118375
0.0006230482
0.0006357786
0.00066353554
0.00068812165
0.00073772442
0.0007672813
0.00082081707
0.00064986407
0.00057222589
0.00057465335
0.00062176226
0.00068879825
0.00073960358
0.00083503698
0.0010417781
0.00087795063
0.00072967688
0.00046690179
0.00041892198
0.00039877998
0.00034106449
0.0002809079
0.00032282179
0.00046733455
0.00090964248
0.00089047342
0.0008943392
0.0010296852
0.0011246368
0.0011379137
0.0010098344
0.00063060144
0.00039035943
0.00033045294
0.00040120242
0.0006062092
0.00079680314
0.00091180369
0.00088584745
0.00082274348
0.00068848762
0.00079654422
0.0008588372
0.0008215281
0.00074350706
0.00073612908
0.00074679499
0.00076055108
0.00074372703
0.00070730901
0.00069458849
0.00069391568
0.00068760011
0.00067111025
0.0006531912
0.00064318453
0.00063350985
0.00062266344
0.00060908587
0.00059974782
0.0005921086
0.00059214863
0.00058986107
0.00059432291
0.00059891199
0.0006171695
0.00063578344
0.00067105245
0.00069384115
0.00074464338
0.000642273
0.00058062736
0.00057402561
0.00065455549
0.00069980487
0.00073321054
0.00079235992
0.00097977721
0.00085930771
0.00073891967
0.0004845507
0.00042347467
0.00040018088
0.00033906042
0.00029240919
0.00034070397
0.00049754125
0.00091718258
0.00089074738
0.00092672223
0.0010771264
0.0011815509
0.0011965766
0.001060108
0.00065348344
0.00038928598
0.00031459927
0.00038889701
0.00060098758
0.00078525498
0.00089471904
0.00087925687
0.00081046473
0.00068699007
0.00079689935
0.00085614094
0.00081944467
0.00074154012
0.00073968516
0.00074382949
0.00075498525
0.00073909459
0.00070508823
0.00069875108
0.00069952551
0.00068363817
0.00066674978
0.00065423838
0.00064513524
0.00063314232
0.00062157668
0.00060922561
0.00060149642
0.00059372748
0.00059140376
0.00058641672
0.00058832761
0.00059022592
0.00060405732
0.00061414308
0.00064174918
0.00065931272
0.00071343044
0.00072181334
0.00065153982
0.00062564787
0.00067153868
0.00072160379
0.00076064998
0.00080557752
0.00092485848
0.00082962631
0.00073010076
0.00049325284
0.000427408
0.00041121127
0.00034624436
0.00030912081
0.0003601712
0.00052578335
0.00090739675
0.00089623191
0.00095956998
0.0011339755
0.0012406837
0.0012548756
0.0011080329
0.00067729327
0.00038911308
0.00029911524
0.00037560194
0.00059030382
0.00076860717
0.00087561472
0.00086951556
0.00079650744
0.00068698313
0.0007963758
0.00085218475
0.00081756888
0.00073857227
0.00074042305
0.00074119876
0.00074429886
0.00074181638
0.0007054624
0.00070079018
0.00070452217
0.00068326204
0.00066621708
0.0006591754
0.00065216193
0.00063942961
0.00062835562
0.00061812701
0.00061278657
0.00060639716
0.0006047208
0.00060002692
0.00060316877
0.0006069573
0.00062126677
0.00062939401
0.00065492181
0.00067350179
0.00073535778
0.00085341339
0.00073123096
0.00068602588
0.00067306728
0.00072537748
0.00076875817
0.00083511838
0.00086770628
0.00079094115
0.00071161735
0.00049475109
0.0004312412
0.00041131882
0.00034823805
0.00032606521
0.00038026751
0.00053940302
0.00089838679
0.00089640854
0.0010010181
0.001195289
0.0013068348
0.0013128763
0.0011540455
0.00070186779
0.00038989436
0.00028432496
0.00035866976
0.00057244384
0.00074713532
0.00085461151
0.00085704122
0.00078035653
0.00069015088
0.00079509484
0.00084661242
0.00081558665
0.00073618128
0.00073922242
0.00074243643
0.0007426447
0.0007351238
0.00070478004
0.00070282718
0.00070727017
0.0006862431
0.00066851157
0.00066672228
0.0006619062
0.0006501098
0.00064089459
0.00063324264
0.00063028117
0.00062626128
0.0006275682
0.00062559283
0.0006327079
0.00064062582
0.00065891969
0.00067196271
0.00070213338
0.00072263258
0.00079653823
0.0010763704
0.00088198481
0.00076761773
0.00071766827
0.00070452279
0.00071871186
0.0007510817
0.00076474497
0.00075098165
0.00068021262
0.00048967964
0.00044205883
0.00042612074
0.00035980049
0.00033929306
0.00039812823
0.00054572026
0.0008836732
0.00089375774
0.0010357518
0.0012464095
0.0013632906
0.0013627609
0.0012011775
0.00072543488
0.00039190123
0.00026785542
0.00033651423
0.00055107842
0.00072095991
0.00082740401
0.00084148265
0.00076379797
0.00069105687
0.00079392021
0.00084061344
0.00081322448
0.00073329593
0.00073721758
0.00074206346
0.00074521949
0.00073035286
0.00070406269
0.00070193116
0.00070799116
0.00069053982
0.00067208771
0.00067422036
0.00067201567
0.00066248976
0.0006558529
0.0006507588
0.00065042324
0.00064931544
0.0006549763
0.00065730802
0.00066973289
0.00068248179
0.00070680754
0.00072823912
0.000765295
0.00078938362
0.00087462615
0.0011832469
0.0010047534
0.00084811776
0.00076257242
0.00070873134
0.0006861202
0.00068464461
0.00071066702
0.00061007368
0.00048122276
0.00045409283
0.00042758581
0.00036839528
0.00035863462
0.00041796039
0.00054452027
0.00085505138
0.00088442561
0.0010742732
0.0012875468
0.0014090929
0.001411107
0.0012463796
0.00074697022
0.0003939981
0.00025309096
0.00031170285
0.00052832584
0.0006917871
0.00079420318
0.00081716805
0.00074707347
0.00069655889
0.00079451972
0.00083478936
0.00081279383
0.00073035303
0.00073446107
0.0007411997
0.00074740727
0.00072553288
0.00070285627
0.00069893913
0.00070708569
0.00069635469
0.00067558568
0.00068032102
0.00068108315
0.00067445645
0.00067075923
0.00066816607
0.0006705156
0.00067255592
0.00068315036
0.00069067786
0.00070876145
0.00072670898
0.00075790413
0.00078782446
0.00083034143
0.00086075162
0.00095522381
0.0013492045
0.0013232403
0.0012270135
0.001040786
0.00085236904
0.00074001028
0.00065198749
0.00061957228
0.00056813172
0.00048524973
0.00047604022
0.00044768798
0.00038263682
0.00037121994
0.0004317124
0.0005368142
0.00082483796
0.00088561592
0.0010885931
0.0013146919
0.0014522125
0.0014573984
0.0012890818
0.00076665053
0.00039699637
0.00023933625
0.00028751512
0.00050730591
0.00066003912
0.00076213465
0.00078699818
0.0007246338
0.00070427819
0.00079316286
0.00082755661
0.00081339868
0.00072646896
0.00073159279
0.00073882041
0.00074781119
0.00072322895
0.00070016618
0.00069316036
0.00070429078
0.00070394666
0.00067924134
0.00068455913
0.00068841608
0.00068484563
0.00068421042
0.00068408436
0.00068899804
0.00069423009
0.00070979998
0.00072291407
0.00074648117
0.00077016546
0.0008079533
0.00084335987
0.00089150339
0.00093143738
0.0010314213
0.0012449036
0.0012687254
0.0013162514
0.0013615833
0.0013128984
0.0010885755
0.00080760384
0.00065905273
0.00057485033
0.00053432809
0.00051061218
0.00046241192
0.00040631978
0.00040334559
0.00045005195
0.00053481526
0.00077190201
0.00089334937
0.0010964051
0.0013397877
0.0014961919
0.0015030802
0.0013314328
0.0007849265
0.000400084
0.00022661709
0.00026317804
0.00047982412
0.00062340563
0.00072502206
0.00075244839
0.00070204208
0.00071224104
0.00079004406
0.0008205452
0.00081140649
0.00071847853
0.00072871678
0.00073667982
0.00074698671
0.0007233842
0.00069665153
0.00068464791
0.00069813668
0.00071151526
0.00068203514
0.00068654423
0.00069383586
0.00069323791
0.00069560705
0.0006980045
0.00070522823
0.00071360564
0.00073383719
0.00075260748
0.00078143098
0.00081028606
0.00085391668
0.00089345674
0.00094785718
0.00099838991
0.0010986997
0.0010956359
0.0011604054
0.0012484459
0.0013426502
0.0014346146
0.0013914379
0.00099425627
0.00074007496
0.00062032467
0.00055776621
0.00049462189
0.00042177035
0.00041773386
0.00047130923
0.00054170711
0.0007126564
0.00089837661
0.0011037986
0.001356498
0.0015364001
0.0015481741
0.0013721571
0.00080205401
0.00040387834
0.00021561853
0.00023958376
0.00044752077
0.00059453164
0.00068791083
0.00072191478
0.00068089296
0.00071598326
0.00078654354
0.0008120217
0.00080520139
0.00070779629
0.00072375105
0.00073449905
0.00074565049
0.00072567054
0.00069239752
0.00067605258
0.0006906144
0.00071723345
0.00068348017
0.00068605809
0.00069756765
0.00069971099
0.00070490013
0.00070996472
0.00071916197
0.00073062595
0.00075504596
0.00077949671
0.00081184022
0.0008455108
0.00089560259
0.000937008
0.0010004264
0.0010568437
0.0011568103
0.00068861835
0.00066885056
0.0006831085
0.0007207695
0.00068416819
0.0006833756
0.00070013113
0.00070473784
0.00071244043
0.00072028057
0.00073105261
0.00074559879
0.00077408456
0.00080200887
0.00083809348
0.00087659455
0.00093115603
0.00097428424
0.0010471169
0.0011062123
0.0012057673
0.00010641017
9.682802e-05
0.00033056135
0.00029204116
0.00022376604
0.00017315871
0.00014082866
0.00011919178
0.0001074114
9.6595475e-05
0.00033722144
0.00031999365
0.00028115243
0.0002123077
0.00016733455
0.0001384599
0.00011901035
0.00010824772
9.6366895e-05
0.00033511377
0.00030693277
0.00026772231
0.00020127133
0.00016137005
0.00013614383
0.00011921219
0.00010993134
9.5953457e-05
0.00033461835
0.00029297303
0.0002540731
0.00018842832
0.00015666869
0.00013506387
0.00011986169
0.00011136501
9.5897214e-05
0.00032153341
0.00027432901
0.00023578739
0.00017650511
0.00015234486
0.00013536621
0.0001220054
0.0001128886
9.4878073e-05
0.0002964457
0.00024832882
0.0002138266
0.00017022949
0.00015141692
0.00013610381
0.00012310245
0.0001137556
9.2643404e-05
0.00027088966
0.00022727242
0.00019917716
0.00016671138
0.0001519028
0.00013903843
0.00012615066
0.00011367165
9.1324547e-05
0.00023746951
0.00020573012
0.00018689043
0.00016466355
0.00015410443
0.00014230585
0.00012847343
0.00011457225
8.5805437e-05
0.0002092124
0.00018711875
0.00017502395
0.0001655148
0.0001615954
0.00014215837
0.00012958274
0.00010879564
7.8429159e-05
0.00018842444
0.00017724861
0.00017207721
0.00016416596
0.00016063682
0.00014377437
0.00013628644
9.9248416e-05
6.9005407e-05
0.00018536309
0.00017907201
0.00017212475
0.0001644866
0.00015880212
0.00013872544
0.00012757771
8.1516481e-05
5.6474762e-05
0.00018315794
0.00017998734
0.00016826275
0.00016309646
0.00014206864
0.00013097942
0.00010857915
6.3212438e-05
4.1625669e-05
0.0001918635
0.00018310887
0.00016683701
0.00015561884
0.00013148396
0.00010986318
7.9182836e-05
4.8549997e-05
3.3066984e-05
0.00023740077
0.00023705206
0.00020064275
0.00016809512
0.00013178577
0.000105805
7.1088046e-05
4.3144542e-05
2.8676828e-05
0.00040961853
0.00042066523
0.00034883805
0.000294396
0.000220304
0.00015577805
0.00010170829
6.3531963e-05
3.9532279e-05
0.00093092365
0.00091695449
0.00083014502
0.00070916127
0.00053264247
0.00036639949
0.00026417914
0.00016934818
0.00011081327
0.00083686188
0.00085710424
0.00089937714
0.00094232529
0.00099559065
0.00096655491
0.00077108837
0.00048558661
0.00034270773
0.00064552777
0.00065674943
0.0006966062
0.0007601081
0.0008553348
0.00095335775
0.001044273
0.0011107111
0.00095980255
0.00057824363
0.00056829803
0.00056718493
0.00057120699
0.00061621142
0.0007392852
0.00090028917
0.0010476645
0.0011673399
0.00052319346
0.00051478882
0.0005102782
0.00051749171
0.00053807318
0.00058621651
0.00069129849
0.00087127449
0.0011009083
0.00045619927
0.00046327452
0.00047636519
0.00049036828
0.0005269415
0.00057097882
0.00064084999
0.00077662612
0.0010100875
0.00043862528
0.00045655275
0.00047367024
0.00050629768
0.00053461106
0.00058941557
0.00066631037
0.00073525605
0.00087817238
0.00045905503
0.00047301944
0.00049166876
0.00051802016
0.00055091217
0.00060070996
0.00065443703
0.00069848272
0.00077230357
0.00050975437
0.00052190784
0.0005348516
0.00056051467
0.00058456043
0.00062464424
0.00067344638
0.00071921418
0.00078215889
0.00070739151
0.00070088702
0.00068592871
0.00067418524
0.00067052515
0.0006726048
0.00069793497
0.00075164357
0.00082966942
0.00094118049
0.00095003342
0.00094054894
0.00090098436
0.00082315486
0.00076259748
0.00077271901
0.00083954794
0.00096961278
0.0010304863
0.0010286166
0.0010253178
0.0010090605
0.00098787209
0.00097245988
0.0009833921
0.0010383605
0.0010746033
0.00090343892
0.00089760231
0.0008971017
0.00088244643
0.00086691189
0.00084903534
0.00082731237
0.00080954923
0.00078708944
0.00081642598
0.00080282529
0.00079301598
0.00076465618
0.00073686276
0.00067786746
0.00060881567
0.00051101083
0.00040978693
0.00065550124
0.00064370715
0.00062632098
0.00059932409
0.00057246483
0.00053623462
0.00049074361
0.00043573795
0.0003653086
0.00075800899
0.00074585753
0.00072612285
0.0007063267
0.00068882449
0.00067083473
0.00065884944
0.00064387574
0.0006077806
0.00082047632
0.00080735499
0.00079373433
0.00077999855
0.00076438361
0.00075507686
0.00075515126
0.00077068013
0.00080785635
0.00077293554
0.00077437861
0.0007781697
0.00078150255
0.00079612579
0.00083097571
0.00087147237
0.00093308566
0.0009985485
0.00074484479
0.00074950935
0.00076292146
0.00077753857
0.00080089733
0.00083472575
0.00087712197
0.00093480143
0.0010002469
0.00073273852
0.00073463966
0.00073935286
0.00074913793
0.00076403643
0.00078717202
0.0008199046
0.0008751035
0.00093638415
0.00072846899
0.00072787738
0.00072806585
0.00072863996
0.00073005088
0.000732752
0.00074644528
0.00075628194
0.00073728219
0.00072415331
0.00071954609
0.00071351082
0.0007041929
0.00068917875
0.00066727802
0.0006299145
0.00055830516
0.00049846551
0.00070705503
0.00070042122
0.00069653828
0.0006873086
0.00066781817
0.00063570254
0.00057082804
0.00051302538
0.00045490889
0.00071038944
0.00071162062
0.00071531708
0.00071987081
0.00072359345
0.00072296717
0.00071145596
0.00067997852
0.00062363138
0.00071347878
0.00072020349
0.00073019423
0.00074315422
0.00075794968
0.00077346646
0.00078899251
0.00078899863
0.00075736666
0.00072837706
0.00073949084
0.00075347747
0.00076719485
0.0007768559
0.00078160601
0.00078460746
0.00078431518
0.00075650922
0.00075965127
0.0007685484
0.00077747284
0.00078045903
0.00077504725
0.00075939936
0.00073975208
0.00069727279
0.00064641876
0.00076690036
0.00077466615
0.00078175337
0.00078190341
0.00077067679
0.00074105208
0.00067978402
0.00061310598
0.00054237086
0.00077970757
0.00079030417
0.00079929954
0.00079980224
0.00078483051
0.00075493646
0.00070550859
0.00063636823
0.00055519637
0.00079722169
0.00080970854
0.00082036177
0.0008239773
0.00081541391
0.00079097023
0.00074544696
0.00068060001
0.00059944475
0.00081785674
0.00082924702
0.00083764176
0.00083690105
0.00082434121
0.00078930516
0.00073238488
0.00065994497
0.00057967081
0.00085037979
0.0008605679
0.00086704984
0.00086345777
0.00084008586
0.00079450376
0.00072845549
0.00064751396
0.00056010564
0.00088894203
0.00089838981
0.00090224303
0.00089290137
0.00086501394
0.00081438393
0.00074236769
0.00065508376
0.00056201883
0.00092308311
0.00093160001
0.00093337513
0.00092155569
0.00088918268
0.00083257158
0.00075403575
0.00066086409
0.00056328289
0.00096196165
0.00097001741
0.00096843464
0.00095219296
0.00091455126
0.00085223281
0.00076800791
0.00066975377
0.0005679931
0.00099878873
0.0010033415
0.00099961919
0.00097931619
0.00093756594
0.00087173546
0.00078364604
0.00068104188
0.00057529655
0.0010592884
0.0010580169
0.0010462144
0.0010190621
0.00097127172
0.00089838403
0.00080208405
0.00069190985
0.00058040581
0.0011061782
0.0011022713
0.0010878132
0.0010568468
0.00099925698
0.00091454529
0.00080939101
0.00069374382
0.00057879967
0.0011666874
0.0011608064
0.0011429954
0.0011029418
0.0010367698
0.00094463464
0.00083209023
0.00070942247
0.00058883863
0.0011947156
0.0011862847
0.0011638816
0.0011221728
0.0010560354
0.00096348632
0.00084903018
0.00072321605
0.00059923847
0.0012510005
0.0012393813
0.0012139635
0.0011676684
0.0010942624
0.00099270436
0.00086931044
0.00073601364
0.00060669268
0.0012725631
0.0012583984
0.0012295528
0.0011785445
0.0010995012
0.00099307241
0.00086615198
0.00073083238
0.00060074525
0.0013234463
0.0013004549
0.0012602101
0.001196335
0.001106059
0.00099024301
0.0008562065
0.00071646865
0.00058479733
9.1904513e-05
7.6771465e-05
4.463258e-05
2.1992056e-05
2.7272431e-05
4.446499e-05
9.1605509e-05
7.4993016e-05
4.3118869e-05
2.239906e-05
2.8347209e-05
4.2582326e-05
9.0856577e-05
7.2317745e-05
4.1772394e-05
2.2853861e-05
2.9033506e-05
4.0298773e-05
9.0220658e-05
6.8878464e-05
3.9968186e-05
2.3474528e-05
2.9730795e-05
3.7857755e-05
8.7976527e-05
6.5566611e-05
3.7789528e-05
2.416765e-05
3.0124848e-05
3.5258803e-05
8.4935556e-05
6.0546657e-05
3.5283856e-05
2.4862623e-05
3.1105885e-05
3.2386003e-05
8.0095876e-05
5.4152936e-05
3.3260009e-05
2.506534e-05
3.0095471e-05
2.6931238e-05
7.6090361e-05
4.8682873e-05
3.1145591e-05
2.3341213e-05
2.8457336e-05
2.1890076e-05
6.6622446e-05
4.2592279e-05
2.8937782e-05
2.4266861e-05
2.663245e-05
1.7982855e-05
5.7562376e-05
3.6705018e-05
2.6427003e-05
2.3453885e-05
2.4054515e-05
1.7471004e-05
4.6974835e-05
3.2023694e-05
2.2899315e-05
2.1817378e-05
2.2974202e-05
1.8961483e-05
3.6477084e-05
2.6683861e-05
1.9771045e-05
2.0978283e-05
2.2524587e-05
2.3709809e-05
2.8684467e-05
2.2089838e-05
1.8096532e-05
2.0475991e-05
2.1970734e-05
3.0174242e-05
2.5532832e-05
2.0238863e-05
1.7305176e-05
1.8274489e-05
2.4488021e-05
3.6589063e-05
2.1359293e-05
1.6954496e-05
1.4295359e-05
1.6563606e-05
2.7865356e-05
4.2306665e-05
2.7954273e-05
1.9646699e-05
1.5706981e-05
1.7265596e-05
3.1258481e-05
4.5698595e-05
7.5898706e-05
4.7979363e-05
3.0839943e-05
2.3241795e-05
3.5334432e-05
4.7804995e-05
0.00024281229
0.00015394761
9.2069776e-05
4.5249914e-05
3.871363e-05
4.9777115e-05
0.00072987669
0.0004708149
0.00029616336
0.00013435261
5.1421515e-05
5.0614071e-05
0.0011838102
0.0011042898
0.0008289375
0.00040051036
0.00010153848
4.9431131e-05
0.0012669537
0.0013013992
0.0012155931
0.00083933897
0.0002476911
4.8317914e-05
0.0012401577
0.0013773337
0.0013401131
0.0010203426
0.00037899579
5.1566246e-05
0.001147191
0.0013324102
0.0013968686
0.0011718255
0.0005693765
6.186063e-05
0.00090665202
0.0012177957
0.0014107759
0.0012600874
0.00068642581
7.5021355e-05
0.00089350932
0.001138076
0.0013978216
0.0012415155
0.00067149471
7.9584123e-05
0.00096807705
0.0012099203
0.0013656253
0.0011655538
0.00060151208
8.051451e-05
0.0011226542
0.0012404305
0.0012460984
0.00095861259
0.00044486593
7.5896914e-05
0.0010855496
0.0010417904
0.00085501356
0.0005311245
0.00021443194
5.8192006e-05
0.00072132127
0.00058424195
0.0003895034
0.00023448098
9.1582458e-05
2.526246e-05
0.000320249
0.00024901657
0.00017221826
0.00010901741
4.7287066e-05
1.1956126e-05
0.00029293316
0.00021944846
0.00015612169
0.00010029211
4.7335025e-05
1.7342341e-05
0.00054371175
0.00045353336
0.00033063484
0.00019929939
9.5259301e-05
3.7282392e-05
0.00086136676
0.00085499031
0.00072841601
0.00048937869
0.00022085507
4.4504607e-05
0.0010659104
0.0010903188
0.0009692789
0.00068807736
0.00030838428
4.2457011e-05
0.001071793
0.0010967678
0.00098950422
0.00071238918
0.00032177839
2.9149154e-05
0.00098080897
0.00097525535
0.00085113975
0.00059398458
0.00024649741
2.385315e-05
0.00070179706
0.00063321272
0.00050793385
0.00032558087
0.00012154234
1.6077488e-05
0.00043391331
0.00035721702
0.00026232437
0.0001543064
5.0747343e-05
6.3383137e-06
0.00038899095
0.00031182913
0.00022313359
0.00012821435
4.2542282e-05
4.8400427e-06
0.00054715369
0.00044708701
0.00032499458
0.00019034879
6.6686797e-05
5.6572453e-06
0.0006934094
0.00058962637
0.00044237284
0.00026298153
8.8769117e-05
5.261077e-06
0.00069744303
0.00059929066
0.00045889276
0.00027513612
8.9630799e-05
3.36827e-06
0.00058021638
0.00048569049
0.0003564807
0.00020708222
5.9201104e-05
1.6629056e-06
0.00046414202
0.00037145789
0.00026347332
0.00014577451
3.747264e-05
1.025445e-06
0.00046753286
0.00036774464
0.00025655921
0.00013734991
3.3960179e-05
9.8349794e-07
0.00050650638
0.00039711365
0.0002736345
0.00014350228
3.4349454e-05
9.7511945e-07
0.00049147529
0.00038714491
0.00026764832
0.00013979506
3.2074245e-05
8.6644912e-07
0.00046737755
0.00036171051
0.00024475484
0.00012391921
2.660935e-05
7.5232371e-07
0.00046446262
0.0003548444
0.00023592832
0.00011640634
2.4091152e-05
7.1170179e-07
0.00046217919
0.00034972019
0.00022953793
0.00011115614
2.2352545e-05
6.8786023e-07
0.00046327966
0.00034756783
0.00022554572
0.00010763448
2.1210848e-05
6.5815559e-07
0.00046684765
0.00034743817
0.00022282468
0.00010443552
1.9968419e-05
6.2096385e-07
0.00046745296
0.00034445389
0.00021817655
0.00010050038
1.8761123e-05
5.9372438e-07
0.00046349018
0.00033898203
0.0002131725
9.8245047e-05
1.846216e-05
5.9838944e-07
0.0004688055
0.00034011525
0.00021198748
9.6997787e-05
1.8551356e-05
6.3579556e-07
0.00047564425
0.00034315313
0.00021236329
9.6745959e-05
1.8706674e-05
6.7777647e-07
0.00047895838
0.00034288352
0.00021059537
9.5524349e-05
1.8618599e-05
7.1696169e-07
0.00047277495
0.00033698524
0.00020656519
9.3797095e-05
1.8558363e-05
7.5778011e-07
0.00045718693
0.00032352416
0.00019733225
9.0809259e-05
1.9509625e-05
9.3130223e-07
)
;

boundaryField
{
    Side1
    {
        type            empty;
    }
    Inlet
    {
        type            calculated;
        value           nonuniform List<scalar> 0();
    }
    Side2
    {
        type            empty;
    }
    Outlet
    {
        type            zeroGradient;
    }
    Botwall
    {
        type            nutkWallFunction;
        blending        stepwise;
        value           nonuniform List<scalar> 
59
(
0
0
0
0
0
0
0
0
0
0
0
0
0
0
0
0
0
0
0
0
0
0
1.2223174e-06
3.2200352e-06
3.9241477e-06
3.9940119e-06
3.2447354e-06
4.9763827e-07
0
0
0
0
0
0
0
0
0
0
0
0
0
0
0
0
0
0
0
0
0