/*--------------------------------*- C++ -*----------------------------------*\
| =========                 |                                                 |
| \\      /  F ield         | OpenFOAM: The Open Source CFD Toolbox           |
|  \\    /   O peration     | Version:  2406                                  |
|   \\  /    A nd           | Website:  www.openfoam.com                      |
|    \\/     M anipulation  |                                                 |
\*---------------------------------------------------------------------------*/
FoamFile
{
    version     2.0;
    format      ascii;
    arch        "LSB;label=32;scalar=64";
    class       volScalarField;
    location    "0.01";
    object      rho;
}
// * * * * * * * * * * * * * * * * * * * * * * * * * * * * * * * * * * * * * //

dimensions      [1 -3 0 0 0 0 0];

internalField   nonuniform List<scalar> 
23204
(
1.2012953
1.2012996
1.2013028
1.2013051
1.2013056
1.2011424
1.2011596
1.2011758
1.201191
1.2012052
1.2012185
1.2012307
1.201242
1.2012523
1.2012617
1.2012701
1.2012776
1.201284
1.2012894
1.2012938
1.2012971
1.2012993
1.2012998
1.2003304
1.2004088
1.2004972
1.2005722
1.2006595
1.2007523
1.2008578
1.2009239
1.2009219
1.200918
1.2009335
1.2009592
1.2009851
1.2010099
1.2010336
1.2010562
1.2010777
1.2010981
1.2011175
1.2011358
1.2011531
1.2011694
1.2011847
1.2011989
1.2012122
1.2012245
1.2012359
1.2012462
1.2012557
1.2012641
1.2012716
1.2012781
1.2012836
1.201288
1.2012912
1.2012935
1.201294
1.1953608
1.1955482
1.1957371
1.1959274
1.1961189
1.1963112
1.1965041
1.1966971
1.1968897
1.1970813
1.1972714
1.1974593
1.1976445
1.1978261
1.1980038
1.1981768
1.1983447
1.1985072
1.1986637
1.1988142
1.1989585
1.1990965
1.1992281
1.1993535
1.1994728
1.199586
1.1996935
1.1997955
1.1998924
1.1999846
1.2000727
1.2001571
1.200239
1.2003184
1.2003941
1.2004826
1.2005583
1.2006441
1.2007368
1.2008418
1.2009161
1.2009179
1.2009131
1.2009267
1.2009522
1.2009781
1.2010029
1.2010267
1.2010494
1.201071
1.2010914
1.2011109
1.2011292
1.2011466
1.2011629
1.2011782
1.2011925
1.2012059
1.2012182
1.2012297
1.2012401
1.2012496
1.201258
1.2012656
1.2012721
1.2012776
1.201282
1.2012853
1.2012876
1.2012881
1.1901353
1.1902646
1.1903943
1.1905247
1.190656
1.1907882
1.1909217
1.1910564
1.1911926
1.1913303
1.1914695
1.1916105
1.1917531
1.1918976
1.1920438
1.1921918
1.1923417
1.1924935
1.1926472
1.1928027
1.1929601
1.1931194
1.1932806
1.1934437
1.1936087
1.1937756
1.1939443
1.194115
1.1942876
1.1944621
1.1946385
1.1948168
1.1949971
1.1951793
1.1953633
1.1955491
1.1957365
1.1959254
1.1961156
1.1963067
1.1964985
1.1966906
1.1968824
1.1970734
1.197263
1.1974505
1.1976354
1.197817
1.1979945
1.1981676
1.1983356
1.1984981
1.1986548
1.1988055
1.1989498
1.1990878
1.1992195
1.1993448
1.199464
1.1995771
1.1996844
1.1997861
1.1998827
1.1999746
1.2000623
1.2001462
1.2002275
1.2003065
1.2003812
1.2004677
1.2005435
1.2006286
1.2007214
1.2008252
1.200907
1.2009139
1.2009083
1.2009199
1.2009452
1.200971
1.200996
1.2010198
1.2010425
1.2010641
1.2010847
1.2011042
1.2011226
1.20114
1.2011564
1.2011718
1.2011861
1.2011995
1.2012119
1.2012234
1.2012339
1.2012434
1.2012519
1.2012595
1.201266
1.2012716
1.2012761
1.2012794
1.2012817
1.2012822
1.1902161
1.1903434
1.1904711
1.1905994
1.1907284
1.1908585
1.1909896
1.191122
1.1912558
1.191391
1.1915278
1.1916663
1.1918064
1.1919483
1.192092
1.1922375
1.1923848
1.1925341
1.1926852
1.1928383
1.1929933
1.1931502
1.193309
1.1934697
1.1936324
1.193797
1.1939636
1.1941321
1.1943026
1.194475
1.1946495
1.1948259
1.1950043
1.1951848
1.1953672
1.1955514
1.1957373
1.1959248
1.1961136
1.1963036
1.1964944
1.1966855
1.1968765
1.1970668
1.1972559
1.197443
1.1976276
1.197809
1.1979864
1.1981595
1.1983275
1.19849
1.1986468
1.1987974
1.1989418
1.1990798
1.1992113
1.1993366
1.1994556
1.1995684
1.1996755
1.1997769
1.1998732
1.1999647
1.2000519
1.2001354
1.2002161
1.2002946
1.2003692
1.2004539
1.2005289
1.2006124
1.2007057
1.2008083
1.2008967
1.2009099
1.2009036
1.2009132
1.2009382
1.200964
1.200989
1.2010129
1.2010356
1.2010573
1.2010779
1.2010974
1.2011159
1.2011334
1.2011498
1.2011652
1.2011797
1.2011931
1.2012056
1.2012171
1.2012276
1.2012372
1.2012457
1.2012534
1.2012599
1.2012655
1.20127
1.2012733
1.2012757
1.2012762
1.190297
1.1904224
1.190548
1.1906742
1.1908012
1.190929
1.191058
1.1911881
1.1913195
1.1914524
1.1915868
1.1917228
1.1918605
1.1919999
1.1921411
1.1922841
1.192429
1.1925758
1.1927245
1.1928751
1.1930277
1.1931822
1.1933386
1.1934971
1.1936575
1.1938198
1.1939842
1.1941506
1.194319
1.1944894
1.1946618
1.1948363
1.1950129
1.1951916
1.1953723
1.1955548
1.1957392
1.1959252
1.1961128
1.1963015
1.1964912
1.1966813
1.1968715
1.1970611
1.1972496
1.1974363
1.1976206
1.1978017
1.197979
1.1981519
1.1983199
1.1984824
1.1986391
1.1987897
1.198934
1.1990719
1.1992034
1.1993284
1.1994472
1.1995599
1.1996666
1.1997678
1.1998637
1.1999547
1.2000415
1.2001245
1.2002046
1.2002826
1.2003574
1.2004407
1.2005157
1.2005961
1.2006895
1.2007911
1.2008849
1.2009055
1.200899
1.2009066
1.2009312
1.2009569
1.200982
1.2010059
1.2010287
1.2010504
1.2010711
1.2010906
1.2011092
1.2011267
1.2011432
1.2011587
1.2011731
1.2011866
1.2011991
1.2012107
1.2012213
1.2012309
1.2012395
1.2012472
1.2012538
1.2012594
1.2012639
1.2012673
1.2012696
1.2012701
1.1903779
1.1905012
1.1906249
1.1907491
1.190874
1.1909998
1.1911265
1.1912544
1.1913836
1.1915142
1.1916463
1.1917799
1.1919152
1.1920522
1.1921909
1.1923315
1.192474
1.1926184
1.1927646
1.1929129
1.193063
1.1932152
1.1933693
1.1935255
1.1936836
1.1938438
1.194006
1.1941702
1.1943365
1.1945049
1.1946753
1.1948479
1.1950226
1.1951995
1.1953784
1.1955592
1.195742
1.1959266
1.1961128
1.1963003
1.1964888
1.196678
1.1968672
1.1970561
1.197244
1.1974302
1.197614
1.1977949
1.197972
1.1981447
1.1983126
1.198475
1.1986316
1.1987822
1.1989264
1.1990641
1.1991954
1.1993203
1.1994388
1.1995512
1.1996576
1.1997584
1.1998539
1.1999446
1.2000309
1.2001134
1.2001929
1.2002705
1.2003455
1.2004273
1.2005046
1.2005806
1.2006728
1.2007737
1.2008717
1.2009003
1.2008943
1.2009001
1.2009242
1.2009498
1.2009749
1.2009989
1.2010217
1.2010435
1.2010642
1.2010838
1.2011024
1.20112
1.2011365
1.201152
1.2011666
1.2011801
1.2011927
1.2012043
1.2012149
1.2012246
1.2012332
1.2012409
1.2012476
1.2012532
1.2012578
1.2012611
1.2012635
1.201264
1.1903368
1.1904585
1.19058
1.1907018
1.190824
1.1909469
1.1910706
1.1911953
1.191321
1.191448
1.1915763
1.1917061
1.1918374
1.1919704
1.192105
1.1922414
1.1923796
1.1925197
1.1926617
1.1928056
1.1929515
1.1930993
1.1932491
1.193401
1.1935549
1.1937108
1.1938687
1.1940288
1.1941909
1.1943551
1.1945214
1.1946899
1.1948605
1.1950334
1.1952084
1.1953855
1.1955646
1.1957458
1.1959289
1.1961137
1.1962999
1.1964872
1.1966753
1.1968637
1.1970517
1.1972389
1.1974246
1.197608
1.1977884
1.1979653
1.1981378
1.1983055
1.1984679
1.1986244
1.1987747
1.1989188
1.1990564
1.1991875
1.1993121
1.1994304
1.1995425
1.1996486
1.199749
1.1998442
1.1999344
1.2000203
1.2001023
1.2001813
1.2002584
1.2003334
1.2004126
1.2004927
1.2005665
1.2006565
1.2007562
1.2008572
1.200894
1.2008896
1.2008938
1.2009172
1.2009427
1.2009678
1.2009918
1.2010147
1.2010365
1.2010573
1.2010769
1.2010956
1.2011132
1.2011298
1.2011454
1.2011599
1.2011735
1.2011861
1.2011978
1.2012084
1.2012182
1.2012269
1.2012346
1.2012413
1.201247
1.2012515
1.2012549
1.2012573
1.2012578
1.1904191
1.190539
1.1906587
1.1907786
1.1908989
1.1910198
1.1911415
1.1912641
1.1913877
1.1915126
1.1916387
1.1917663
1.1918954
1.192026
1.1921584
1.1922925
1.1924284
1.1925661
1.1927058
1.1928473
1.1929909
1.1931364
1.193284
1.1934336
1.1935852
1.1937389
1.1938947
1.1940525
1.1942125
1.1943747
1.194539
1.1947055
1.1948742
1.1950451
1.1952182
1.1953935
1.195571
1.1957506
1.1959321
1.1961154
1.1963003
1.1964864
1.1966734
1.1968607
1.1970479
1.1972344
1.1974194
1.1976023
1.1977824
1.197959
1.1981313
1.1982988
1.1984609
1.1986173
1.1987675
1.1989114
1.1990488
1.1991797
1.1993041
1.1994221
1.1995338
1.1996396
1.1997397
1.1998344
1.1999243
1.2000097
1.2000913
1.2001698
1.2002463
1.200321
1.2003966
1.2004791
1.2005532
1.2006402
1.2007387
1.2008418
1.2008867
1.2008847
1.2008876
1.2009102
1.2009356
1.2009607
1.2009848
1.2010077
1.2010295
1.2010503
1.20107
1.2010887
1.2011064
1.201123
1.2011386
1.2011533
1.2011669
1.2011796
1.2011912
1.2012019
1.2012117
1.2012204
1.2012282
1.2012349
1.2012406
1.2012453
1.2012487
1.201251
1.2012516
1.190501
1.1906192
1.1907372
1.1908553
1.1909737
1.1910927
1.1912124
1.191333
1.1914546
1.1915774
1.1917014
1.1918268
1.1919537
1.1920821
1.1922122
1.1923441
1.1924777
1.1926131
1.1927505
1.1928898
1.1930311
1.1931743
1.1933196
1.193467
1.1936164
1.1937679
1.1939215
1.1940773
1.1942351
1.1943952
1.1945575
1.194722
1.1948887
1.1950578
1.195229
1.1954025
1.1955783
1.1957562
1.1959361
1.1961179
1.1963014
1.1964863
1.1966721
1.1968584
1.1970447
1.1972304
1.1974148
1.1975971
1.1977768
1.197953
1.198125
1.1982923
1.1984542
1.1986104
1.1987605
1.1989042
1.1990414
1.199172
1.1992961
1.1994138
1.1995253
1.1996307
1.1997304
1.1998248
1.1999142
1.1999992
1.2000803
1.2001583
1.2002342
1.2003085
1.2003814
1.2004639
1.2005384
1.200624
1.2007213
1.2008258
1.2008788
1.2008799
1.2008817
1.2009031
1.2009285
1.2009536
1.2009777
1.2010006
1.2010225
1.2010433
1.2010631
1.2010818
1.2010995
1.2011162
1.2011319
1.2011465
1.2011602
1.2011729
1.2011846
1.2011954
1.2012052
1.201214
1.2012218
1.2012285
1.2012343
1.2012389
1.2012423
1.2012447
1.2012453
1.1905826
1.1906992
1.1908154
1.1909317
1.1910484
1.1911655
1.1912833
1.191402
1.1915216
1.1916423
1.1917642
1.1918875
1.1920123
1.1921386
1.1922665
1.1923961
1.1925275
1.1926608
1.1927959
1.192933
1.193072
1.193213
1.1933561
1.1935012
1.1936485
1.1937978
1.1939493
1.1941029
1.1942587
1.1944167
1.194577
1.1947395
1.1949043
1.1950714
1.1952408
1.1954125
1.1955864
1.1957627
1.195941
1.1961213
1.1963034
1.1964869
1.1966715
1.1968568
1.1970421
1.197227
1.1974106
1.1975924
1.1977716
1.1979473
1.1981191
1.1982861
1.1984478
1.1986038
1.1987537
1.1988972
1.1990341
1.1991645
1.1992884
1.1994058
1.1995169
1.199622
1.1997213
1.1998152
1.1999042
1.1999888
1.2000695
1.2001469
1.2002222
1.200296
1.2003678
1.2004479
1.2005221
1.200608
1.200704
1.2008095
1.2008705
1.2008751
1.200876
1.2008961
1.2009214
1.2009465
1.2009706
1.2009936
1.2010155
1.2010363
1.2010561
1.2010749
1.2010926
1.2011093
1.201125
1.2011397
1.2011535
1.2011662
1.201178
1.2011888
1.2011986
1.2012074
1.2012153
1.2012221
1.2012278
1.2012325
1.2012359
1.2012383
1.2012389
1.1906637
1.1907787
1.1908933
1.1910079
1.1911228
1.1912382
1.1913541
1.1914709
1.1915885
1.1917073
1.1918272
1.1919485
1.1920712
1.1921954
1.1923212
1.1924487
1.1925779
1.192709
1.1928419
1.1929768
1.1931136
1.1932524
1.1933933
1.1935363
1.1936814
1.1938286
1.1939779
1.1941294
1.1942832
1.1944391
1.1945973
1.1947579
1.1949207
1.1950859
1.1952534
1.1954233
1.1955955
1.19577
1.1959467
1.1961255
1.1963061
1.1964883
1.1966716
1.1968558
1.1970401
1.1972241
1.197407
1.1975881
1.1977667
1.1979421
1.1981135
1.1982802
1.1984417
1.1985974
1.1987471
1.1988903
1.1990271
1.1991572
1.1992808
1.1993978
1.1995086
1.1996133
1.1997123
1.1998058
1.1998943
1.1999784
1.2000587
1.2001356
1.2002103
1.2002836
1.2003551
1.2004334
1.2005067
1.2005914
1.2006866
1.200793
1.200862
1.2008703
1.2008705
1.2008891
1.2009142
1.2009394
1.2009634
1.2009864
1.2010084
1.2010292
1.2010491
1.2010679
1.2010856
1.2011024
1.2011181
1.2011329
1.2011467
1.2011595
1.2011713
1.2011821
1.201192
1.2012009
1.2012087
1.2012156
1.2012214
1.201226
1.2012295
1.2012319
1.2012325
1.1907442
1.1908577
1.1909707
1.1910837
1.1911969
1.1913106
1.1914248
1.1915397
1.1916555
1.1917724
1.1918904
1.1920097
1.1921303
1.1922525
1.1923762
1.1925016
1.1926287
1.1927577
1.1928885
1.1930212
1.1931559
1.1932926
1.1934313
1.1935721
1.1937151
1.1938602
1.1940074
1.1941568
1.1943085
1.1944624
1.1946187
1.1947772
1.1949381
1.1951013
1.195267
1.1954351
1.1956055
1.1957783
1.1959533
1.1961305
1.1963096
1.1964904
1.1966725
1.1968554
1.1970387
1.1972217
1.1974038
1.1975843
1.1977623
1.1979372
1.1981082
1.1982746
1.1984358
1.1985913
1.1987407
1.1988838
1.1990202
1.1991501
1.1992733
1.1993901
1.1995005
1.1996048
1.1997034
1.1997965
1.1998846
1.1999682
1.200048
1.2001244
1.2001985
1.2002713
1.2003427
1.2004199
1.2004937
1.2005751
1.200669
1.2007762
1.200853
1.2008655
1.2008652
1.2008821
1.2009071
1.2009322
1.2009563
1.2009793
1.2010013
1.2010221
1.201042
1.2010608
1.2010786
1.2010954
1.2011112
1.201126
1.2011398
1.2011527
1.2011645
1.2011754
1.2011853
1.2011942
1.2012021
1.201209
1.2012148
1.2012195
1.201223
1.2012254
1.201226
1.1908241
1.1909361
1.1910476
1.1911591
1.1912707
1.1913827
1.1914952
1.1916084
1.1917224
1.1918374
1.1919535
1.1920709
1.1921896
1.1923098
1.1924316
1.1925549
1.19268
1.1928069
1.1929356
1.1930662
1.1931988
1.1933334
1.19347
1.1936087
1.1937496
1.1938926
1.1940377
1.1941851
1.1943347
1.1944866
1.1946409
1.1947974
1.1949563
1.1951177
1.1952815
1.1954477
1.1956163
1.1957874
1.1959608
1.1961363
1.1963139
1.1964933
1.196674
1.1968557
1.1970379
1.19722
1.1974012
1.1975809
1.1977584
1.1979327
1.1981033
1.1982693
1.1984302
1.1985855
1.1987346
1.1988774
1.1990136
1.1991432
1.1992661
1.1993825
1.1994925
1.1995965
1.1996946
1.1997873
1.1998749
1.1999581
1.2000373
1.2001133
1.2001869
1.2002591
1.2003304
1.2004065
1.2004817
1.2005595
1.2006517
1.2007589
1.2008431
1.2008607
1.2008602
1.2008752
1.2008999
1.200925
1.2009491
1.2009721
1.2009941
1.201015
1.2010349
1.2010537
1.2010716
1.2010884
1.2011042
1.2011191
1.2011329
1.2011458
1.2011577
1.2011686
1.2011786
1.2011875
1.2011955
1.2012024
1.2012082
1.2012129
1.2012164
1.2012188
1.2012194
1.1909032
1.1910139
1.191124
1.191234
1.191344
1.1914544
1.1915653
1.1916768
1.1917891
1.1919024
1.1920167
1.1921323
1.1922491
1.1923674
1.1924872
1.1926086
1.1927316
1.1928565
1.1929832
1.1931117
1.1932423
1.1933748
1.1935094
1.193646
1.1937848
1.1939257
1.1940688
1.1942142
1.1943618
1.1945117
1.1946639
1.1948185
1.1949755
1.1951349
1.1952968
1.1954612
1.1956281
1.1957973
1.195969
1.196143
1.196319
1.1964969
1.1966763
1.1968567
1.1970378
1.1972188
1.1973991
1.1975781
1.1977548
1.1979286
1.1980987
1.1982644
1.1984249
1.1985799
1.1987288
1.1988713
1.1990072
1.1991364
1.199259
1.1993751
1.1994847
1.1995883
1.199686
1.1997782
1.1998654
1.1999481
1.2000268
1.2001023
1.2001753
1.2002469
1.200318
1.2003923
1.2004699
1.2005445
1.2006343
1.2007413
1.200832
1.2008558
1.2008553
1.2008683
1.2008928
1.2009178
1.2009419
1.2009649
1.2009869
1.2010078
1.2010277
1.2010466
1.2010645
1.2010814
1.2010972
1.2011121
1.201126
1.2011389
1.2011508
1.2011618
1.2011718
1.2011807
1.2011887
1.2011957
1.2012015
1.2012063
1.2012097
1.2012122
1.2012128
1.1909816
1.1910909
1.1911996
1.1913082
1.1914169
1.1915258
1.1916351
1.191745
1.1918557
1.1919673
1.1920799
1.1921936
1.1923087
1.1924251
1.192543
1.1926625
1.1927836
1.1929065
1.1930312
1.1931578
1.1932863
1.1934168
1.1935494
1.193684
1.1938207
1.1939596
1.1941007
1.1942441
1.1943897
1.1945376
1.1946878
1.1948405
1.1949955
1.1951531
1.1953131
1.1954756
1.1956406
1.1958082
1.1959781
1.1961504
1.1963249
1.1965012
1.1966792
1.1968584
1.1970382
1.1972182
1.1973976
1.1975757
1.1977518
1.197925
1.1980946
1.1982598
1.19842
1.1985746
1.1987232
1.1988654
1.199001
1.1991299
1.1992522
1.1993678
1.1994771
1.1995802
1.1996775
1.1997692
1.199856
1.1999382
1.2000164
1.2000913
1.2001637
1.2002348
1.2003054
1.2003769
1.2004559
1.2005295
1.2006172
1.2007233
1.2008193
1.2008507
1.2008506
1.2008615
1.2008857
1.2009106
1.2009347
1.2009577
1.2009797
1.2010006
1.2010206
1.2010395
1.2010574
1.2010743
1.2010901
1.201105
1.201119
1.2011319
1.2011439
1.2011549
1.2011649
1.2011739
1.2011819
1.2011889
1.2011948
1.2011995
1.201203
1.2012055
1.2012061
1.191059
1.1911671
1.1912746
1.1913819
1.1914892
1.1915966
1.1917045
1.1918129
1.191922
1.192032
1.1921429
1.192255
1.1923683
1.1924829
1.192599
1.1927167
1.192836
1.1929569
1.1930797
1.1932044
1.1933309
1.1934594
1.19359
1.1937226
1.1938574
1.1939943
1.1941334
1.1942748
1.1944184
1.1945643
1.1947126
1.1948633
1.1950164
1.1951721
1.1953302
1.1954909
1.1956541
1.1958198
1.1959881
1.1961587
1.1963315
1.1965064
1.1966829
1.1968607
1.1970394
1.1972182
1.1973966
1.1975739
1.1977492
1.1979217
1.1980908
1.1982555
1.1984153
1.1985696
1.1987178
1.1988597
1.198995
1.1991236
1.1992455
1.1993608
1.1994696
1.1995723
1.1996691
1.1997604
1.1998467
1.1999284
1.2000061
1.2000804
1.2001523
1.2002226
1.2002926
1.2003622
1.2004393
1.2005131
1.2006003
1.2007049
1.200805
1.2008449
1.2008458
1.2008548
1.2008786
1.2009034
1.2009274
1.2009505
1.2009725
1.2009934
1.2010133
1.2010323
1.2010502
1.2010671
1.201083
1.201098
1.2011119
1.2011249
1.2011369
1.2011479
1.201158
1.201167
1.2011751
1.2011821
1.201188
1.2011928
1.2011963
1.2011987
1.2011993
1.1911355
1.1912425
1.1913488
1.1914548
1.1915608
1.191667
1.1917734
1.1918804
1.191988
1.1920964
1.1922058
1.1923163
1.1924279
1.1925409
1.1926552
1.1927711
1.1928886
1.1930077
1.1931286
1.1932514
1.193376
1.1935026
1.1936312
1.1937619
1.1938947
1.1940297
1.1941668
1.1943062
1.1944479
1.1945918
1.1947382
1.194887
1.1950382
1.1951919
1.1953482
1.195507
1.1956684
1.1958323
1.1959988
1.1961678
1.196339
1.1965123
1.1966873
1.1968638
1.1970411
1.1972188
1.1973962
1.1975725
1.197747
1.1979189
1.1980874
1.1982516
1.198411
1.1985649
1.1987128
1.1988543
1.1989893
1.1991175
1.199239
1.1993539
1.1994623
1.1995645
1.1996609
1.1997517
1.1998375
1.1999187
1.1999958
1.2000697
1.2001409
1.2002106
1.2002799
1.2003485
1.2004235
1.2004964
1.200583
1.2006861
1.2007893
1.2008378
1.2008409
1.2008482
1.2008715
1.2008961
1.2009202
1.2009432
1.2009652
1.2009861
1.2010061
1.201025
1.201043
1.2010599
1.2010759
1.2010908
1.2011048
1.2011178
1.2011299
1.2011409
1.201151
1.2011601
1.2011682
1.2011752
1.2011811
1.2011859
1.2011894
1.2011919
1.2011925
1.1912111
1.1913169
1.1914221
1.191527
1.1916318
1.1917367
1.1918419
1.1919475
1.1920537
1.1921607
1.1922685
1.1923775
1.1924875
1.1925988
1.1927115
1.1928257
1.1929414
1.1930588
1.1931779
1.1932988
1.1934216
1.1935463
1.193673
1.1938018
1.1939327
1.1940657
1.1942009
1.1943384
1.1944781
1.1946202
1.1947646
1.1949114
1.1950608
1.1952126
1.195367
1.1955239
1.1956835
1.1958457
1.1960104
1.1961777
1.1963472
1.1965189
1.1966925
1.1968675
1.1970436
1.1972201
1.1973964
1.1975717
1.1977454
1.1979166
1.1980844
1.1982481
1.198407
1.1985605
1.198708
1.1988492
1.1989838
1.1991116
1.1992327
1.1993472
1.1994552
1.1995569
1.1996528
1.1997431
1.1998284
1.199909
1.1999857
1.200059
1.2001296
1.2001986
1.2002672
1.2003354
1.2004091
1.2004808
1.2005658
1.2006668
1.2007725
1.2008294
1.2008358
1.2008418
1.2008644
1.2008889
1.2009129
1.2009359
1.2009579
1.2009788
1.2009988
1.2010177
1.2010357
1.2010527
1.2010686
1.2010836
1.2010976
1.2011107
1.2011228
1.2011339
1.201144
1.2011531
1.2011612
1.2011682
1.2011742
1.201179
1.2011825
1.201185
1.2011856
1.1912855
1.1913904
1.1914946
1.1915984
1.1917021
1.1918058
1.1919097
1.1920141
1.192119
1.1922246
1.192331
1.1924385
1.192547
1.1926568
1.1927679
1.1928804
1.1929944
1.1931101
1.1932274
1.1933466
1.1934676
1.1935905
1.1937153
1.1938423
1.1939713
1.1941024
1.1942357
1.1943713
1.1945091
1.1946492
1.1947918
1.1949367
1.1950842
1.1952341
1.1953866
1.1955418
1.1956995
1.1958599
1.1960229
1.1961884
1.1963563
1.1965264
1.1966984
1.196872
1.1970467
1.197222
1.1973971
1.1975715
1.1977443
1.1979147
1.1980819
1.198245
1.1984034
1.1985565
1.1987036
1.1988443
1.1989785
1.199106
1.1992267
1.1993407
1.1994482
1.1995495
1.1996449
1.1997347
1.1998194
1.1998995
1.1999756
1.2000483
1.2001184
1.2001868
1.2002547
1.2003225
1.2003955
1.2004677
1.200549
1.200647
1.200755
1.2008197
1.2008306
1.2008356
1.2008573
1.2008816
1.2009056
1.2009286
1.2009506
1.2009715
1.2009915
1.2010104
1.2010284
1.2010454
1.2010614
1.2010764
1.2010904
1.2011035
1.2011156
1.2011267
1.2011369
1.201146
1.2011542
1.2011612
1.2011672
1.201172
1.2011755
1.201178
1.2011786
1.191359
1.1914629
1.1915661
1.191669
1.1917716
1.1918742
1.191977
1.1920802
1.1921839
1.1922882
1.1923933
1.1924993
1.1926064
1.1927147
1.1928243
1.1929352
1.1930476
1.1931616
1.1932773
1.1933947
1.193514
1.1936351
1.1937582
1.1938833
1.1940104
1.1941397
1.1942712
1.1944049
1.1945408
1.1946791
1.1948197
1.1949628
1.1951084
1.1952565
1.1954071
1.1955604
1.1957163
1.1958749
1.1960361
1.1961999
1.1963661
1.1965346
1.1967051
1.1968772
1.1970505
1.1972245
1.1973985
1.1975718
1.1977437
1.1979133
1.1980798
1.1982423
1.1984002
1.1985527
1.1986994
1.1988398
1.1989735
1.1991006
1.1992208
1.1993344
1.1994414
1.1995422
1.1996371
1.1997264
1.1998106
1.1998901
1.1999657
1.2000378
1.2001073
1.200175
1.2002422
1.2003098
1.2003819
1.2004561
1.2005328
1.2006277
1.2007371
1.2008093
1.2008253
1.2008296
1.2008503
1.2008744
1.2008983
1.2009213
1.2009432
1.2009642
1.2009841
1.201003
1.201021
1.201038
1.201054
1.2010691
1.2010832
1.2010963
1.2011084
1.2011196
1.2011297
1.2011389
1.2011471
1.2011541
1.2011601
1.201165
1.2011685
1.201171
1.2011716
1.1914313
1.1915344
1.1916368
1.1917387
1.1918403
1.191942
1.1920437
1.1921458
1.1922483
1.1923514
1.1924552
1.1925599
1.1926657
1.1927725
1.1928806
1.1929901
1.193101
1.1932134
1.1933275
1.1934432
1.1935608
1.1936802
1.1938015
1.1939248
1.1940502
1.1941777
1.1943073
1.1944392
1.1945733
1.1947097
1.1948485
1.1949897
1.1951334
1.1952796
1.1954284
1.1955799
1.195734
1.1958908
1.1960502
1.1962122
1.1963768
1.1965436
1.1967125
1.1968831
1.197055
1.1972277
1.1974005
1.1975727
1.1977436
1.1979124
1.1980781
1.19824
1.1983973
1.1985493
1.1986955
1.1988354
1.1989688
1.1990954
1.1992152
1.1993283
1.1994348
1.1995351
1.1996294
1.1997182
1.1998018
1.1998808
1.1999558
1.2000274
1.2000962
1.2001633
1.2002298
1.200297
1.2003673
1.2004439
1.2005168
1.2006086
1.200719
1.2007983
1.2008198
1.2008238
1.2008432
1.2008671
1.200891
1.2009139
1.2009358
1.2009568
1.2009767
1.2009956
1.2010136
1.2010306
1.2010467
1.2010617
1.2010758
1.201089
1.2011011
1.2011123
1.2011225
1.2011317
1.2011399
1.201147
1.201153
1.2011579
1.2011614
1.2011639
1.2011645
1.1915026
1.1916049
1.1917064
1.1918075
1.1919083
1.192009
1.1921097
1.1922107
1.1923122
1.1924141
1.1925168
1.1926203
1.1927248
1.1928303
1.192937
1.193045
1.1931544
1.1932653
1.1933778
1.193492
1.1936079
1.1937257
1.1938453
1.1939669
1.1940905
1.1942163
1.1943441
1.1944741
1.1946064
1.194741
1.194878
1.1950174
1.1951592
1.1953036
1.1954506
1.1956002
1.1957525
1.1959075
1.1960651
1.1962254
1.1963882
1.1965534
1.1967207
1.1968898
1.1970602
1.1972316
1.1974031
1.1975742
1.1977441
1.197912
1.1980769
1.1982381
1.1983948
1.1985463
1.198692
1.1988314
1.1989643
1.1990904
1.1992098
1.1993223
1.1994284
1.1995281
1.1996219
1.1997101
1.1997932
1.1998716
1.199946
1.200017
1.2000852
1.2001516
1.2002174
1.2002839
1.2003518
1.2004282
1.2005001
1.2005901
1.2007006
1.2007869
1.2008142
1.2008182
1.2008362
1.2008599
1.2008837
1.2009066
1.2009284
1.2009493
1.2009693
1.2009882
1.2010062
1.2010232
1.2010393
1.2010543
1.2010685
1.2010816
1.2010938
1.201105
1.2011153
1.2011245
1.2011327
1.2011398
1.2011458
1.2011507
1.2011542
1.2011567
1.2011573
1.1915727
1.1916744
1.1917751
1.1918754
1.1919754
1.1920752
1.1921751
1.1922751
1.1923756
1.1924765
1.192578
1.1926804
1.1927836
1.1928879
1.1929933
1.1930999
1.193208
1.1933174
1.1934284
1.1935411
1.1936554
1.1937716
1.1938896
1.1940095
1.1941314
1.1942554
1.1943815
1.1945098
1.1946403
1.1947731
1.1949082
1.1950458
1.1951858
1.1953284
1.1954735
1.1956213
1.1957718
1.195925
1.1960809
1.1962394
1.1964005
1.196564
1.1967296
1.1968972
1.1970662
1.1972361
1.1974064
1.1975764
1.1977452
1.1979121
1.1980762
1.1982366
1.1983927
1.1985436
1.1986888
1.1988277
1.1989601
1.1990857
1.1992045
1.1993166
1.1994221
1.1995213
1.1996145
1.1997022
1.1997847
1.1998625
1.1999363
1.2000067
1.2000743
1.20014
1.200205
1.2002706
1.2003368
1.2004108
1.2004828
1.2005719
1.2006819
1.2007748
1.2008084
1.2008129
1.2008292
1.2008526
1.2008763
1.2008992
1.200921
1.2009419
1.2009618
1.2009807
1.2009987
1.2010157
1.2010318
1.2010469
1.201061
1.2010742
1.2010864
1.2010977
1.2011079
1.2011172
1.2011254
1.2011325
1.2011386
1.2011434
1.201147
1.2011495
1.2011501
1.1916419
1.1917428
1.1918429
1.1919425
1.1920417
1.1921407
1.1922398
1.1923389
1.1924384
1.1925383
1.1926389
1.1927401
1.1928422
1.1929453
1.1930495
1.1931549
1.1932615
1.1933696
1.1934792
1.1935904
1.1937032
1.1938178
1.1939342
1.1940525
1.1941728
1.1942951
1.1944195
1.1945461
1.1946748
1.1948059
1.1949392
1.195075
1.1952132
1.195354
1.1954973
1.1956433
1.195792
1.1959434
1.1960974
1.1962542
1.1964136
1.1965754
1.1967394
1.1969054
1.1970728
1.1972414
1.1974104
1.1975791
1.1977468
1.1979127
1.1980759
1.1982356
1.198391
1.1985413
1.1986859
1.1988243
1.1989561
1.1990813
1.1991996
1.1993111
1.1994161
1.1995147
1.1996073
1.1996944
1.1997763
1.1998535
1.1999267
1.1999965
1.2000634
1.2001285
1.2001927
1.2002575
1.2003227
1.2003945
1.2004665
1.2005538
1.2006626
1.2007617
1.2008023
1.2008078
1.2008222
1.2008454
1.200869
1.2008918
1.2009136
1.2009344
1.2009543
1.2009732
1.2009912
1.2010082
1.2010243
1.2010394
1.2010535
1.2010667
1.201079
1.2010902
1.2011005
1.2011098
1.2011181
1.2011252
1.2011312
1.2011361
1.2011397
1.2011422
1.2011428
1.19171
1.1918103
1.1919097
1.1920086
1.1921072
1.1922055
1.1923037
1.1924021
1.1925007
1.1925997
1.1926993
1.1927996
1.1929006
1.1930026
1.1931056
1.1932097
1.1933152
1.1934219
1.1935302
1.1936399
1.1937513
1.1938644
1.1939793
1.194096
1.1942147
1.1943354
1.1944581
1.194583
1.19471
1.1948393
1.194971
1.195105
1.1952414
1.1953804
1.1955219
1.1956661
1.195813
1.1959626
1.1961149
1.1962699
1.1964275
1.1965876
1.1967499
1.1969143
1.1970803
1.1972474
1.197415
1.1975825
1.1977491
1.1979139
1.1980762
1.1982351
1.1983897
1.1985393
1.1986833
1.1988212
1.1989525
1.1990771
1.1991948
1.1993058
1.1994102
1.1995082
1.1996002
1.1996867
1.199768
1.1998447
1.1999172
1.1999863
1.2000526
1.200117
1.2001805
1.2002444
1.2003091
1.2003797
1.200452
1.200536
1.2006427
1.2007471
1.2007957
1.2008028
1.2008153
1.2008381
1.2008616
1.2008843
1.2009061
1.2009269
1.2009468
1.2009657
1.2009836
1.2010007
1.2010167
1.2010318
1.201046
1.2010592
1.2010715
1.2010828
1.2010931
1.2011024
1.2011106
1.2011178
1.2011239
1.2011287
1.2011323
1.2011348
1.2011354
1.191777
1.1918768
1.1919756
1.1920739
1.1921718
1.1922695
1.192367
1.1924646
1.1925625
1.1926607
1.1927593
1.1928586
1.1929587
1.1930596
1.1931615
1.1932646
1.1933688
1.1934743
1.1935812
1.1936897
1.1937997
1.1939113
1.1940248
1.19414
1.1942571
1.1943762
1.1944973
1.1946205
1.1947459
1.1948735
1.1950034
1.1951357
1.1952704
1.1954076
1.1955473
1.1956897
1.1958348
1.1959826
1.1961331
1.1962864
1.1964422
1.1966006
1.1967613
1.196924
1.1970885
1.1972541
1.1974203
1.1975865
1.1977519
1.1979157
1.198077
1.198235
1.1983889
1.1985378
1.1986811
1.1988184
1.1989491
1.1990731
1.1991903
1.1993007
1.1994045
1.1995019
1.1995933
1.1996791
1.1997598
1.1998359
1.1999078
1.1999763
1.2000419
1.2001056
1.2001683
1.2002315
1.2002957
1.2003656
1.2004382
1.2005185
1.2006226
1.2007309
1.2007883
1.2007977
1.2008085
1.2008309
1.2008543
1.2008769
1.2008986
1.2009194
1.2009392
1.2009581
1.200976
1.2009931
1.2010091
1.2010242
1.2010384
1.2010516
1.2010639
1.2010752
1.2010856
1.2010949
1.2011032
1.2011104
1.2011164
1.2011213
1.2011249
1.2011274
1.201128
1.1918432
1.1919423
1.1920406
1.1921384
1.1922357
1.1923327
1.1924296
1.1925265
1.1926237
1.1927211
1.1928189
1.1929174
1.1930165
1.1931165
1.1932174
1.1933193
1.1934224
1.1935267
1.1936324
1.1937396
1.1938483
1.1939586
1.1940706
1.1941844
1.1943
1.1944176
1.1945371
1.1946587
1.1947825
1.1949084
1.1950366
1.1951672
1.1953001
1.1954356
1.1955736
1.1957142
1.1958575
1.1960035
1.1961523
1.1963037
1.1964578
1.1966145
1.1967735
1.1969346
1.1970974
1.1972615
1.1974263
1.1975912
1.1977554
1.197918
1.1980783
1.1982354
1.1983885
1.1985366
1.1986793
1.1988159
1.198946
1.1990694
1.199186
1.1992958
1.199399
1.1994958
1.1995866
1.1996717
1.1997518
1.1998272
1.1998985
1.1999663
1.2000313
1.2000943
1.2001562
1.2002186
1.2002824
1.2003512
1.2004256
1.2005009
1.2006019
1.2007132
1.2007793
1.2007924
1.2008018
1.2008237
1.2008469
1.2008694
1.2008911
1.2009118
1.2009316
1.2009505
1.2009684
1.2009854
1.2010015
1.2010166
1.2010308
1.201044
1.2010563
1.2010677
1.201078
1.2010873
1.2010956
1.2011028
1.2011089
1.2011138
1.2011174
1.2011199
1.2011205
1.1919084
1.192007
1.1921048
1.192202
1.1922988
1.1923952
1.1924915
1.1925878
1.1926843
1.192781
1.1928781
1.1929757
1.193074
1.1931731
1.193273
1.1933739
1.193476
1.1935792
1.1936838
1.1937897
1.1938971
1.1940061
1.1941168
1.1942292
1.1943434
1.1944594
1.1945774
1.1946975
1.1948196
1.194944
1.1950705
1.1951994
1.1953307
1.1954644
1.1956006
1.1957395
1.1958811
1.1960253
1.1961723
1.196322
1.1964743
1.1966292
1.1967865
1.196946
1.1971072
1.1972697
1.1974331
1.1975966
1.1977595
1.197921
1.1980802
1.1982364
1.1983885
1.1985359
1.1986779
1.1988138
1.1989433
1.199066
1.199182
1.1992911
1.1993937
1.1994898
1.1995799
1.1996645
1.1997438
1.1998186
1.1998892
1.1999564
1.2000207
1.200083
1.2001442
1.2002057
1.2002689
1.2003355
1.2004111
1.2004829
1.200581
1.2006942
1.2007686
1.2007868
1.2007952
1.2008166
1.2008395
1.200862
1.2008836
1.2009042
1.200924
1.2009428
1.2009607
1.2009777
1.2009938
1.2010089
1.2010231
1.2010363
1.2010487
1.20106
1.2010704
1.2010797
1.201088
1.2010952
1.2011013
1.2011062
1.2011098
1.2011123
1.2011129
1.1919728
1.1920709
1.1921681
1.1922648
1.1923611
1.192457
1.1925528
1.1926485
1.1927444
1.1928404
1.1929368
1.1930337
1.1931312
1.1932294
1.1933285
1.1934285
1.1935295
1.1936317
1.1937352
1.19384
1.1939462
1.194054
1.1941633
1.1942744
1.1943872
1.1945018
1.1946183
1.1947369
1.1948575
1.1949802
1.1951052
1.1952324
1.195362
1.195494
1.1956285
1.1957657
1.1959055
1.196048
1.1961932
1.1963411
1.1964917
1.1966448
1.1968004
1.1969582
1.1971177
1.1972787
1.1974406
1.1976027
1.1977642
1.1979245
1.1980827
1.1982378
1.198389
1.1985356
1.1986768
1.198812
1.1989408
1.1990629
1.1991782
1.1992867
1.1993885
1.199484
1.1995735
1.1996573
1.199736
1.1998101
1.19988
1.1999465
1.2000101
1.2000717
1.2001322
1.2001929
1.2002551
1.2003194
1.2003927
1.2004648
1.2005607
1.2006739
1.2007564
1.200781
1.2007887
1.2008094
1.2008322
1.2008545
1.200876
1.2008966