/*--------------------------------*- C++ -*----------------------------------*\
| =========                 |                                                 |
| \\      /  F ield         | OpenFOAM: The Open Source CFD Toolbox           |
|  \\    /   O peration     | Version:  2406                                  |
|   \\  /    A nd           | Website:  www.openfoam.com                      |
|    \\/     M anipulation  |                                                 |
\*---------------------------------------------------------------------------*/
FoamFile
{
    version     2.0;
    format      ascii;
    arch        "LSB;label=32;scalar=64";
    class       volScalarField;
    location    "0.004";
    object      Ma;
}
// * * * * * * * * * * * * * * * * * * * * * * * * * * * * * * * * * * * * * //

dimensions      [0 0 0 0 0 0 0];

internalField   nonuniform List<scalar> 
8951
(
0.085666504
0.086085878
0.086520084
0.086958497
0.08739104
0.0878154
0.088221183
0.088602146
0.088955311
0.089259855
0.089524528
0.089734854
0.089882212
0.089975704
0.08999437
0.089947002
0.089831607
0.089644081
0.089378004
0.089034569
0.088614866
0.088120698
0.087554801
0.086921232
0.086226064
0.085476305
0.084680878
0.083850631
0.082997803
0.082136666
0.081281383
0.080448847
0.079650834
0.078900385
0.078212167
0.077592384
0.077047397
0.07658013
0.076194211
0.075889785
0.075668786
0.075528728
0.075462307
0.075434482
0.075453056
0.075613157
0.075879795
0.076162968
0.076483216
0.076839834
0.07723003
0.077648912
0.078090442
0.078548216
0.079015885
0.079487402
0.079957427
0.080421506
0.0808765
0.081320062
0.081752064
0.08216459
0.082529402
0.082854136
0.083182242
0.083503301
0.083805117
0.08410346
0.084395311
0.084680357
0.084972917
0.085285702
0.085607082
0.085951986
0.086323026
0.08670932
0.087122324
0.087560926
0.088023684
0.088511803
0.089027289
0.089572137
0.090147315
0.090754007
0.091392878
0.092064778
0.092771159
0.093513446
0.094292467
0.095108509
0.095961367
0.096850224
0.097773904
0.098731158
0.099720548
0.10074043
0.10178911
0.10286484
0.1039659
0.10509052
0.10623685
0.10740298
0.10858689
0.10978635
0.11099896
0.11222209
0.11345284
0.11468809
0.11592445
0.11715829
0.11838591
0.11960358
0.12080769
0.12199463
0.12316088
0.124303
0.1254177
0.12650187
0.12755284
0.12856839
0.12954701
0.13048793
0.13139123
0.13225783
0.13308946
0.13388869
0.13465871
0.1354034
0.13612708
0.1368344
0.13753031
0.13821966
0.13890728
0.13959774
0.14029513
0.14100287
0.14172321
0.14245799
0.14320728
0.14396915
0.14474041
0.14551475
0.14628212
0.14702748
0.14773807
0.1484
0.14900055
0.14952928
0.14996992
0.15029767
0.15049465
0.1505729
0.15059136
0.15058102
0.15054942
0.15052711
0.15052857
0.15055677
0.15061828
0.15067936
0.15074996
0.15082334
0.15089781
0.1509703
0.15104483
0.15111162
0.15117595
0.15123325
0.1512779
0.15133726
0.15137515
0.15142262
0.15147031
0.15150956
0.15154388
0.15155832
0.15156545
0.082158945
0.082601028
0.083062742
0.083536641
0.084013292
0.084484954
0.084947789
0.085392581
0.085814951
0.086208324
0.086557963
0.086869615
0.087127003
0.08732993
0.087476816
0.087552887
0.087562755
0.087507232
0.087380702
0.087178519
0.086900407
0.086546723
0.086119142
0.085620242
0.085054233
0.084427313
0.083746507
0.083021027
0.082262022
0.081481574
0.080693766
0.079912387
0.079154041
0.078428814
0.077749482
0.077130225
0.076575593
0.076091581
0.075680668
0.075346798
0.07508998
0.074912431
0.074811459
0.074771121
0.074764175
0.074814711
0.075020413
0.075299993
0.075590289
0.075917549
0.076278154
0.076669208
0.07708595
0.077522811
0.077974108
0.078434422
0.078898836
0.079363312
0.079824841
0.080281757
0.080733002
0.081178702
0.081611007
0.082007134
0.082378745
0.082760159
0.083138247
0.083505107
0.083872098
0.084233553
0.084589489
0.084952093
0.085329069
0.085709854
0.086109572
0.0865286
0.086957409
0.087407988
0.087878656
0.088369114
0.088880975
0.089416554
0.089978076
0.090566849
0.091184317
0.091831497
0.092509571
0.093220199
0.093964934
0.094744736
0.095560028
0.096410734
0.097296175
0.098215319
0.09916704
0.10015
0.10116265
0.10220341
0.10327061
0.1043626
0.10547766
0.10661402
0.1077698
0.10894303
0.11013153
0.11133294
0.11254467
0.11376386
0.11498743
0.11621204
0.11743412
0.11865002
0.11985607
0.1210487
0.12222435
0.12337955
0.1245109
0.12561512
0.12668918
0.1277304
0.12873662
0.12970635
0.13063883
0.13153415
0.13239322
0.13321776
0.1340103
0.13477398
0.13551261
0.13623044
0.13693203
0.13762221
0.13830577
0.1389874
0.13967158
0.14036228
0.14106282
0.1417754
0.14250175
0.14324188
0.14399385
0.14475437
0.14551717
0.14627233
0.1470052
0.14770349
0.14835418
0.14894539
0.14946777
0.14990648
0.15023746
0.15044256
0.15053336
0.15056256
0.15055796
0.15053499
0.15051797
0.15052344
0.1505581
0.15061941
0.15068001
0.15075035
0.1508236
0.15089806
0.15097045
0.15104488
0.15111163
0.15117599
0.15123325
0.1512781
0.15133739
0.15137549
0.15142234
0.15147004
0.15150899
0.15154321
0.15155767
0.15156509
0.078978298
0.079465419
0.079969673
0.080484015
0.081000266
0.081512144
0.082015017
0.082501144
0.082966681
0.083403634
0.083801711
0.084162923
0.084472816
0.084733025
0.0849364
0.08507416
0.085150507
0.085156553
0.08509621
0.084961423
0.084753178
0.084470016
0.084113413
0.083685805
0.083191721
0.082637341
0.082029635
0.081378121
0.080694142
0.079989367
0.079277653
0.078572392
0.077889831
0.077238195
0.076630373
0.076080074
0.075590226
0.075166713
0.074811586
0.074529341
0.074319941
0.074185399
0.074121049
0.074103026
0.074116585
0.074213977
0.074459838
0.074747916
0.075046975
0.075382172
0.075747559
0.076140352
0.076555973
0.076989365
0.077435603
0.077890211
0.078349416
0.078810485
0.07927184
0.079733224
0.080194761
0.080656916
0.081112472
0.08154364
0.081963807
0.082399088
0.082835169
0.083266408
0.08369987
0.084128417
0.0845519
0.084979738
0.085416971
0.085852876
0.086302827
0.086765782
0.087233821
0.087718842
0.088218934
0.08873481
0.089268418
0.089822349
0.090399041
0.091000103
0.09162724
0.092281773
0.092965177
0.093679295
0.094425789
0.095205745
0.096019711
0.09686773
0.097749256
0.098663396
0.099609138
0.10058524
0.10159026
0.10262271
0.103681
0.10476356
0.10586872
0.10699476
0.10813988
0.10930213
0.11047938
0.11166932
0.11286939
0.11407678
0.11528846
0.11650112
0.11771126
0.11891527
0.12010956
0.12129059
0.12245485
0.12359889
0.12471937
0.12581305
0.12687692
0.12790835
0.12890519
0.12986598
0.13078998
0.13167728
0.13252879
0.1333462
0.13413199
0.13488928
0.13562179
0.1363337
0.13702949
0.1377139
0.13839159
0.13906718
0.13974502
0.14042899
0.14112232
0.14182712
0.14254505
0.14327606
0.14401819
0.14476807
0.14551948
0.14626263
0.1469833
0.14766966
0.14830949
0.14889174
0.14940799
0.14984474
0.15017869
0.15039149
0.15049433
0.15053445
0.15053532
0.15052018
0.15050877
0.15051847
0.15056013
0.15062035
0.15068061
0.15075076
0.15082391
0.15089837
0.15097067
0.15104498
0.15111168
0.15117607
0.15123325
0.15127839
0.15133749
0.15137583
0.15142208
0.1514698
0.15150842
0.15154254
0.15155701
0.15156474
0.075739152
0.076270961
0.076817794
0.077373135
0.07793005
0.078483216
0.079027887
0.079557647
0.080068575
0.080552583
0.08100219
0.08141643
0.081783335
0.082103476
0.082368214
0.082571509
0.08271692
0.082794031
0.082799562
0.082738335
0.082602572
0.082393728
0.082111873
0.081759163
0.081340735
0.080862515
0.080331351
0.079757144
0.079151304
0.078524826
0.077891371
0.077263958
0.07665836
0.076080842
0.075544836
0.075063546
0.074638279
0.074275008
0.07397544
0.073744824
0.073583202
0.073491009
0.073457817
0.073463861
0.073508322
0.073657921
0.073933377
0.074229189
0.074539324
0.074883502
0.075254666
0.075650258
0.076065941
0.076497225
0.076939965
0.077390648
0.077846646
0.07830653
0.078770115
0.079238472
0.079712809
0.08019401
0.080675829
0.081144725
0.081614147
0.082103083
0.082596765
0.083090386
0.083587281
0.0840796
0.084566313
0.085054841
0.085547413
0.086034111
0.086530066
0.087033162
0.08753724
0.088053742
0.088580779
0.089119931
0.089673415
0.090244073
0.090834525
0.091446659
0.092082419
0.092743394
0.09343132
0.094148193
0.094895777
0.095675271
0.096487343
0.097332148
0.098209267
0.099117938
0.10005726
0.10102608
0.10202307
0.10304682
0.10409584
0.1051686
0.10626352
0.10737893
0.10851306
0.10966403
0.11082975
0.11200794
0.1131961
0.11439146
0.11559103
0.11679156
0.11798958
0.11918155
0.12036394
0.12153325
0.12268599
0.1238188
0.12492833
0.1260114
0.12706502
0.1280866
0.12907402
0.13002583
0.13094132
0.13182056
0.13266446
0.13347469
0.1342537
0.13500454
0.13573088
0.13643683
0.13712676
0.13780533
0.1384771
0.13914659
0.13981805
0.14049526
0.14118134
0.14187836
0.14258789
0.14330982
0.14404217
0.14478152
0.14552168
0.14625302
0.14696177
0.14763655
0.14826588
0.14883949
0.14934982
0.14978458
0.15012126
0.15034142
0.15045569
0.1505065
0.15051368
0.15050475
0.15049942
0.15051377
0.15056267
0.15062104
0.15068116
0.15075119
0.15082427
0.15089874
0.15097093
0.15104513
0.15111177
0.15117621
0.15123325
0.1512788
0.15133755
0.15137617
0.15142182
0.15146958
0.15150787
0.15154187
0.15155637
0.15156441
0.071897278
0.072454461
0.073030535
0.073619771
0.074216479
0.074814854
0.075410352
0.075998467
0.076573833
0.077132388
0.077666567
0.078170492
0.078641147
0.079068663
0.079451956
0.079782338
0.080055464
0.080272003
0.080422332
0.08050408
0.080514607
0.080456857
0.080324791
0.080121146
0.079846684
0.079507475
0.079108808
0.078657302
0.078163463
0.077638565
0.077092649
0.076539309
0.075991215
0.075463489
0.074960451
0.074496555
0.074084381
0.073723584
0.073420395
0.073176409
0.072997784
0.072884144
0.072831626
0.072826321
0.072860672
0.072950811
0.073148553
0.073444376
0.073750256
0.074073522
0.074427769
0.074805855
0.075205463
0.075622563
0.076053273
0.076494243
0.076942926
0.077397833
0.077858802
0.07832698
0.078804664
0.079294047
0.079796491
0.080306865
0.080815008
0.081333316
0.081874735
0.082424349
0.082977293
0.083533875
0.084085917
0.084631127
0.085175702
0.085718589
0.086251822
0.08678969
0.087329375
0.087866424
0.088411625
0.088963274
0.089523684
0.090095282
0.090681131
0.091284013
0.091906067
0.09254945
0.093215994
0.093907657
0.094626572
0.095374595
0.096153029
0.09696265
0.097803725
0.098675954
0.099578701
0.10051117
0.1014723
0.10246087
0.10347554
0.10451492
0.10557754
0.10666187
0.10776632
0.10888916
0.11002855
0.11118246
0.11234865
0.11352466
0.11470776
0.11589502
0.11708321
0.11826895
0.11944873
0.12061909
0.12177655
0.12291769
0.12403915
0.12513766
0.12621005
0.12725338
0.12826507
0.12924302
0.13018582
0.13109275
0.1319639
0.13280016
0.13360318
0.13437535
0.1351197
0.13583982
0.13653974
0.13722376
0.13789643
0.13856223
0.13922558
0.13989062
0.14056102
0.14123985
0.14192909
0.14263024
0.14334313
0.14406576
0.14479468
0.14552375
0.14624349
0.14694059
0.14760411
0.1482233
0.14878857
0.14929318
0.14972593
0.1500651
0.1502923
0.15041741
0.15047848
0.15049288
0.15048903
0.15048984
0.15051066
0.15056433
0.15062145
0.15068165
0.15075162
0.15082466
0.15089914
0.15097123
0.1510453
0.15111188
0.15117638
0.15123326
0.15127929
0.15133757
0.1513765
0.15142158
0.15146939
0.15150734
0.15154122
0.15155573
0.15156409
0.06853605
0.069138883
0.069758363
0.070389682
0.071027932
0.071668344
0.072307068
0.072940031
0.073562691
0.074170947
0.074757963
0.075318688
0.075848806
0.076339968
0.076789536
0.077189329
0.077535502
0.077826087
0.078052902
0.078213402
0.078303595
0.078321533
0.078271652
0.078148706
0.077955693
0.077699029
0.077383149
0.077013924
0.076603209
0.07616169
0.075698206
0.075226502
0.074758901
0.074309649
0.073881307
0.073489813
0.073146886
0.072850469
0.072607268
0.07241924
0.072293083
0.072226308
0.072208964
0.072234321
0.072310545
0.072448196
0.072685598
0.072998522
0.073317468
0.073655508
0.074020949
0.074407201
0.074812151
0.075232143
0.075663932
0.076104971
0.076553666
0.077009635
0.07747393
0.077948931
0.07843805
0.078944356
0.079469708
0.080010067
0.080557809
0.081123608
0.081715377
0.082318154
0.082926523
0.083538496
0.084145478
0.084745105
0.085340084
0.085928648
0.086504275
0.087080148
0.08765309
0.088220185
0.088791475
0.089365545
0.089945307
0.090533354
0.091132943
0.091746994
0.092377872
0.093027922
0.093699192
0.094393838
0.095114104
0.095861931
0.096638721
0.097445352
0.098282193
0.09914906
0.10004544
0.10097063
0.10192366
0.10290342
0.10390865
0.10493803
0.10599016
0.10706359
0.10815677
0.10926802
0.11039555
0.11153737
0.1126913
0.11385492
0.11502555
0.11620029
0.11737597
0.11854926
0.11971671
0.1208749
0.1220204
0.12314982
0.12425987
0.12534728
0.12640894
0.12744191
0.12844366
0.12941212
0.13034586
0.13124421
0.13210724
0.13293582
0.13373158
0.13449689
0.1352347
0.13594855
0.13664238
0.13732044
0.13798716
0.13864695
0.1393041
0.13996268
0.14062626
0.14129782
0.14197928
0.14267208
0.14337597
0.14408897
0.14480757
0.1455257
0.14623406
0.14691976
0.14757234
0.1481817
0.14873892
0.14923799
0.1496687
0.15001014
0.15024408
0.15037953
0.15045049
0.1504725
0.1504735
0.15048031
0.15050898
0.1505649
0.1506216
0.15068209
0.15075206
0.15082508
0.15089959
0.15097157
0.15104552
0.15111203
0.15117659
0.15123328
0.15127987
0.15133756
0.15137681
0.15142134
0.15146922
0.15150683
0.15154057
0.15155511
0.15156378
0.065160981
0.065808044
0.066470086
0.067143032
0.067822811
0.068505606
0.06918823
0.069867147
0.070538481
0.071198214
0.071840244
0.07245989
0.073052066
0.073609421
0.074128057
0.07460033
0.07502223
0.075389824
0.075696083
0.075937646
0.076109614
0.076210517
0.076240778
0.07620266
0.076094234
0.075922803
0.075692948
0.075407795
0.075082694
0.074726569
0.074346983
0.073958104
0.073571865
0.07320139
0.072847908
0.072529137
0.072255595
0.072023438
0.071840266
0.07170898
0.071634877
0.071611023
0.071628695
0.07169584
0.071819175
0.072000419
0.072272038
0.072601949
0.072936675
0.073290799
0.07366858
0.074064273
0.074475934
0.074900345
0.075334918
0.075777896
0.076228616
0.076687751
0.077157489
0.077641319
0.078143643
0.07866829
0.079217577
0.079788429
0.080375035
0.080986012
0.081625127
0.082277404
0.082936664
0.083599163
0.084257314
0.084905603
0.085545904
0.086175723
0.086789746
0.08739993
0.088003005
0.088597378
0.089192311
0.089786742
0.090384058
0.090986984
0.091598936
0.092222959
0.092861615
0.093517415
0.094192602
0.094889496
0.095610443
0.09635746
0.097132038
0.097935151
0.098767266
0.099628312
0.10051789
0.10143539
0.10237994
0.10335051
0.10434594
0.10536497
0.10640629
0.10746849
0.10855008
0.10964945
0.11076484
0.11189432
0.11303575
0.11418675
0.11534469
0.11650672
0.11766972
0.11883039
0.11998537
0.12113126
0.12226469
0.12338231
0.12448086
0.1255571
0.12660796
0.12763053
0.1286223
0.12958122
0.13050589
0.13139562
0.13225049
0.13307136
0.13385984
0.13461823
0.13534946
0.136057
0.13674471
0.13741675
0.13807748
0.1387312
0.13938212
0.14003421
0.14069095
0.14135523
0.14202893
0.14271339
0.14340835
0.14411179
0.14482018
0.14552753
0.1462247
0.14689927
0.14754121
0.14814104
0.14869049
0.14918418
0.14961282
0.14995633
0.15019672
0.15034206
0.15042253
0.15045213
0.15045818
0.15047124
0.15050828
0.15056462
0.15062157
0.15068248
0.15075249
0.15082552
0.15090007
0.15097195
0.15104577
0.1511122
0.15117683
0.15123333
0.1512805
0.15133756
0.15137713
0.15142112
0.15146906
0.15150633
0.15153994
0.15155449
0.15156348
0.061789193
0.062479313
0.063182977
0.063896941
0.064617999
0.065343244
0.066070144
0.066795745
0.067516742
0.068229301
0.068927969
0.069608197
0.070264473
0.070890036
0.071480023
0.072027167
0.072526921
0.072974059
0.073362024
0.073686596
0.073942981
0.074128939
0.074244822
0.074291061
0.074269637
0.074185702
0.074043294
0.073845297
0.07360808
0.073338871
0.073044309
0.072739151
0.072434855
0.072143215
0.071864852
0.071619192
0.071415147
0.071246954
0.07112413
0.07105008
0.071024457
0.071042117
0.071103829
0.071219492
0.071386966
0.071609545
0.071912459
0.072260391
0.07261308
0.072984368
0.073375605
0.073781978
0.074201688
0.07463202
0.075071048
0.075517782
0.075972444
0.076436704
0.076913779
0.077408123
0.077925009
0.078468885
0.079042441
0.079643443
0.080267195
0.080920244
0.081602974
0.082300345
0.083005664
0.083714836
0.084418498
0.085110253
0.08579107
0.086457936
0.087106537
0.087747568
0.088377851
0.088996892
0.089613182
0.09022604
0.090839213
0.091455532
0.092078546
0.092711402
0.093356837
0.094017511
0.094695832
0.095394264
0.096115241
0.09686085
0.097632663
0.098431746
0.099258657
0.10011343
0.10099578
0.10190519
0.10284087
0.10380189
0.10478717
0.10579552
0.1068257
0.10787637
0.10894608
0.11003328
0.11113627
0.11225315
0.11338184
0.11452
0.11566506
0.11681419
0.11796432
0.11911223
0.1202546
0.12138808
0.12250933
0.12361506
0.12470202
0.12576703
0.12680704
0.12781916
0.12880091
0.12975026
0.13066582
0.1315469
0.13239359
0.13320673
0.13398788
0.13473933
0.13546394
0.13616512
0.13684667
0.13751265
0.13816734
0.13881496
0.13945961
0.14010518
0.14075506
0.14141205
0.14207801
0.14275417
0.14344025
0.1441342
0.14483251
0.14552924
0.14621543
0.14687912
0.14751071
0.1481013
0.14864323
0.14913167
0.14955823
0.14990362
0.15015016
0.15030496
0.1503946
0.15043174
0.15044332
0.15046329
0.150507
0.15056379
0.15062138
0.15068282
0.15075293
0.150826
0.15090059
0.15097236
0.15104606
0.1511124
0.1511771
0.15123339
0.15128117
0.15133757
0.15137746
0.15142092
0.15146893
0.15150586
0.15153933
0.15155389
0.15156319
0.057723886
0.058440174
0.059171965
0.059916114
0.06067023
0.061432001
0.062199395
0.062970537
0.063743076
0.064514217
0.065280389
0.066036686
0.066778577
0.067500337
0.0681955
0.068858473
0.069482154
0.070061309
0.070589814
0.071061219
0.071470555
0.071813155
0.07208633
0.072289767
0.072424032
0.072491853
0.072494093
0.072441357
0.072333706
0.072185521
0.072003986
0.071795368
0.071574603
0.071352542
0.071139634
0.070936981
0.070764811
0.070630031
0.070525293
0.070463052
0.070443893
0.070465204
0.070531786
0.070643816
0.070805902
0.071016074
0.07127888
0.071611441
0.071978805
0.072351155
0.072740492
0.073146209
0.073564392
0.073993386
0.074431043
0.074876085
0.075328244
0.075788585
0.076259689
0.076745689
0.077251915
0.077784376
0.07834789
0.078945386
0.079575187
0.080233454
0.080924849
0.081646829
0.082384841
0.083131987
0.083882435
0.084626395
0.085356692
0.086073487
0.086773425
0.087452989
0.088121634
0.088776396
0.089417654
0.090053165
0.090682631
0.091310064
0.091938373
0.092571214
0.093211819
0.093863081
0.094527784
0.095208485
0.095907769
0.096628146
0.097371764
0.098140276
0.098934829
0.099756073
0.10060414
0.10147885
0.10237978
0.10330623
0.10425734
0.10523212
0.10622947
0.1072482
0.10828703
0.10934458
0.11041934
0.11150966
0.1126137
0.11372942
0.11485454
0.1159865
0.11712255
0.11825967
0.11939467
0.12052429
0.12164524
0.12275422
0.12384796
0.12492327
0.12597699
0.12700609
0.12800772
0.12897942
0.12991917
0.13082558
0.131698
0.13253648
0.13334185
0.13411565
0.13486012
0.13557808
0.13627286
0.1369482
0.13760809
0.1382567
0.13889817
0.13953653
0.14017556
0.14081856
0.14146828
0.1421265
0.14279441
0.14347166
0.14415622
0.14484455
0.14553082
0.14620624
0.1468593
0.14748082
0.14806244
0.14859708
0.14908043
0.14950487
0.14985195
0.15010436
0.15026825
0.15036673
0.15041135
0.15042908
0.15045619
0.15050479
0.15056259
0.15062106
0.15068312
0.15075337
0.15082649
0.15090115
0.15097281
0.15104638
0.15111263
0.15117741
0.15123346
0.15128188
0.15133761
0.15137784
0.15142075
0.1514688
0.15150542
0.15153873
0.15155331
0.15156291
0.054377247
0.055135494
0.055907197
0.056690373
0.057483417
0.058284918
0.059093682
0.059908499
0.060727626
0.061548756
0.062368636
0.063182812
0.063986743
0.064774606
0.065540036
0.066276872
0.066977989
0.067637435
0.068248425
0.068804389
0.069299776
0.069729903
0.070091725
0.070384404
0.070608339
0.070765855
0.070860156
0.070895444
0.070878836
0.070821249
0.070726856
0.070605287
0.070469439
0.070329538
0.070195242
0.070069521
0.069970735
0.069903776
0.069861715
0.069859042
0.06989375
0.069969291
0.070088573
0.070249536
0.070457166
0.070709848
0.071011809
0.071373082
0.071761293
0.072154554
0.072562629
0.072983696
0.073414641
0.073854099
0.074300436
0.07475297
0.075212106
0.075679699
0.076159147
0.076655365
0.077174326
0.077722384
0.078304955
0.078925177
0.07958191
0.080271783
0.080997384
0.08175438
0.082528567
0.083312419
0.084099117
0.08487836
0.085642558
0.086391078
0.087120358
0.087827494
0.088520752
0.089197444
0.089858624
0.090511363
0.091155728
0.091795914
0.092434885
0.093076383
0.093723707
0.094379883
0.095047808
0.095730161
0.096429632
0.097148796
0.097889862
0.098654551
0.09944409
0.10025921
0.10110016
0.10196683
0.10285889
0.10377574
0.10471661
0.10568057
0.1066666
0.10767358
0.10870028
0.10974539
0.11080745
0.11188486
0.11297583
0.11407836
0.11519022
0.1163089
0.1174317
0.11855564
0.11967759
0.12079435
0.12190265
0.12299926
0.12408093
0.12514451
0.12618688
0.12720503
0.12819614
0.12915774
0.13008786
0.13098512
0.13184884
0.13267909
0.13347667
0.13424309
0.13498056
0.13569182
0.13638018
0.13704927
0.13770302
0.13834552
0.13898082
0.13961286
0.14024532
0.14088144
0.14152389
0.1421744
0.1428341
0.14350258
0.14417784
0.14485632
0.1455323
0.14619715
0.1468398
0.14745152
0.14802444
0.148552
0.14903039
0.14945269
0.1498013
0.15005928
0.1502319
0.15033892
0.150391
0.15041539
0.15044947
0.15050193
0.1505611
0.15062063
0.15068337
0.1507538
0.15082701
0.15090173
0.15097329
0.15104673
0.15111288
0.15117774
0.15123356
0.1512826
0.15133766
0.15137828
0.15142062
0.1514687
0.151505
0.15153817
0.15155274
0.15156265
0.051100439
0.051898322
0.052707976
0.053528349
0.054358657
0.055198373
0.056047121
0.056904369
0.057768996
0.058639185
0.059512043
0.060383505
0.061249026
0.062102749
0.062938289
0.063749023
0.064527661
0.065267567
0.06596143
0.066602427
0.067184546
0.067702944
0.068154284
0.0685373
0.068852075
0.069101751
0.069285741
0.06941188
0.069487585
0.069518855
0.069512083
0.069479726
0.069428646
0.069370381
0.069314713
0.069267635
0.069239798
0.069237716
0.069260131
0.069317261
0.069411387
0.069542824
0.069713454
0.06992316
0.070176408
0.070471369
0.070811291
0.071200771
0.07161103
0.072026141
0.072453582
0.072890827
0.073335435
0.073786218
0.074242093
0.074703041
0.075170117
0.075645901
0.076134506
0.076641506
0.07717343
0.077737154
0.078338227
0.07897989
0.079661298
0.080379322
0.081134992
0.081922524
0.082728126
0.083543891
0.084361975
0.085171757
0.085965518
0.086741809
0.087496958
0.088228502
0.08894359
0.089639836
0.090318795
0.0909869
0.09164456
0.092296075
0.092944454
0.093593499
0.094246561
0.09490678
0.095577148
0.096260451
0.096959467
0.097676827
0.098414794
0.099175155
0.099959211
0.10076778
0.10160118
0.10245943
0.10334227
0.10424918
0.10517946
0.10613229
0.10710669
0.10810163
0.10911593
0.11014833
0.11119744
0.1122617
0.11333937
0.11442851
0.11552691
0.11663213
0.11774151
0.11885212
0.11996089
0.12106466
0.12216022
0.12324435
0.12431388
0.12536568
0.12639664
0.12740378
0.12838433
0.12933582
0.13025628
0.13114435
0.13199936
0.13282136
0.13361112
0.13437014
0.13510057
0.13580512
0.13648701
0.13714983
0.13779741
0.13843377
0.13906286
0.13968855
0.14031444
0.14094368
0.14157887
0.1422217
0.14287322
0.14353301
0.14419905
0.14486781
0.14553366
0.14618814
0.14682063
0.14742281
0.14798727
0.14850796
0.14898151
0.14940165
0.14975161
0.15001492
0.15019589
0.15031119
0.15037074
0.15040215
0.15044278
0.15049867
0.1505594
0.1506201
0.15068358
0.15075424
0.15082755
0.15090235
0.15097381
0.15104712
0.15111316
0.15117811
0.15123368
0.15128335
0.15133774
0.15137879
0.15142054
0.15146861
0.15150461
0.15153762
0.1515522
0.15156241
0.04791842
0.048753666
0.049598985
0.050454286
0.051319631
0.052195376
0.053081964
0.053979575
0.054887739
0.055805149
0.056729311
0.057656512
0.058582237
0.05950063
0.06040521
0.061288968
0.062144356
0.06296411
0.063740468
0.064466284
0.065135146
0.065741958
0.066283081
0.066756869
0.067163126
0.067504444
0.067779429
0.06799732
0.068165015
0.068284719
0.068366777
0.068422871
0.06845641
0.068479454
0.06850235
0.068533721
0.068575012
0.068637248
0.068727408
0.068847104
0.069000248
0.069186677
0.06940897
0.069667664
0.069966387
0.070303031
0.070679702
0.071097181
0.071530521
0.071967858
0.072414674
0.072868222
0.073326713
0.073789268
0.074255426
0.074725628
0.075201546
0.075686404
0.076184924
0.076703213
0.077248245
0.077827095
0.078445437
0.079106613
0.079809979
0.080552542
0.081334042
0.082147683
0.082980165
0.083823229
0.084668091
0.085503998
0.086323297
0.087123711
0.087901507
0.088654519
0.089388863
0.090102453
0.090797188
0.091478921
0.092148367
0.09280987
0.09346647
0.094122007
0.094779873
0.095443302
0.096115366
0.096798942
0.097496882
0.098211866
0.098946205
0.099701749
0.10047987
0.10128145
0.10210692
0.10295637
0.10382963
0.10472626
0.10564565
0.10658704
0.10754953
0.10853214
0.10953377
0.11055321
0.11158913
0.11264002
0.11370418
0.11477971
0.11586447
0.11695606
0.11805186
0.11914899
0.12024445
0.12133512
0.12241783
0.12348942
0.12454673
0.12558667
0.12660617
0.12760228
0.12857222
0.12951357
0.13042436
0.13130323
0.1321495
0.13296322
0.13374516
0.13449675
0.13522013
0.13591793
0.13659333
0.13724983
0.13789122
0.13852141
0.13914428
0.1397636
0.14038291
0.14100527
0.14163321
0.14226838
0.14291179
0.14356295
0.14421987
0.14487903
0.14553491
0.14617922
0.14680179
0.14739467
0.1479509
0.14846492
0.14893374
0.1493517
0.14970287
0.14997122
0.1501602
0.15028354
0.15035059
0.15038923
0.150436
0.15049514
0.15055753
0.15061947
0.15068375
0.15075468
0.15082811
0.15090299
0.15097436
0.15104754
0.15111346
0.1511785
0.15123383
0.15128411
0.15133784
0.15137936
0.15142051
0.15146854
0.15150425
0.15153711
0.15155168
0.15156218
0.044858338
0.045728305
0.046606543
0.047493911
0.048391345
0.049300105
0.050221484
0.05115643
0.05210516
0.053066923
0.054039665
0.055020015
0.056003528
0.056984374
0.057955943
0.058910892
0.059841361
0.060739522
0.061597202
0.062406886
0.063161786
0.063856492
0.064487029
0.065051349
0.065548874
0.065981139
0.066348198
0.06665831
0.06691626
0.067124752
0.067296474
0.067439414
0.067556729
0.067661011
0.067762269
0.067870065
0.067981201
0.068111054
0.068268268
0.068450245
0.068662086
0.068903653
0.069177906
0.069485457
0.069829085
0.070206489
0.070618728
0.071063799
0.071520507
0.071980035
0.072446215
0.072916279
0.073389
0.073863779
0.074340612
0.074820526
0.075305774
0.075800124
0.076308809
0.076838356
0.077396044
0.077989064
0.078623128
0.079301615
0.080024032
0.080787491
0.081590695
0.082426205
0.083281256
0.084147236
0.085014596
0.085872573
0.086713701
0.087534883
0.088332349
0.08910411
0.089855333
0.090584207
0.091292852
0.091986589
0.092666402
0.093336627
0.094000325
0.094661354
0.095323133
0.095988974
0.096662017
0.097345214
0.098041478
0.098753533
0.099483735
0.10023399
0.10100573
0.10179992
0.10261708
0.10345737
0.10432071
0.10520675
0.10611494
0.10704459
0.10799489
0.10896491
0.10995361
0.11095986
0.11198236
0.11301965
0.11407009
0.11513183
0.11620276
0.11728056
0.11836262
0.11944615
0.12052818
0.12160564
0.12267541
0.12373436
0.12477938
0.12580742
0.12681541
0.12780044
0.12875976
0.12969094
0.13059203
0.13146167
0.1322992
0.13310464
0.13387872
0.13462288
0.13533917
0.1360302
0.13669908
0.13734925
0.13798441
0.13860841
0.13922503
0.13983798
0.1404507
0.14106618
0.1416869
0.14231446
0.14294979
0.1435924
0.14424029
0.14488998
0.14553606
0.14617041
0.14678326
0.14736708
0.14791532
0.14842284
0.14888705
0.14930281
0.14965504
0.14992818
0.15012483
0.15025597
0.15033057
0.15037652
0.15042908
0.15049137
0.1505555
0.15061877
0.15068389
0.15075512
0.15082869
0.15090366
0.15097494
0.15104799
0.1511138
0.15117893
0.15123401
0.15128488
0.15133796
0.15137999
0.15142054
0.15146849
0.15150391
0.15153662
0.15155119
0.15156196
0.041949034
0.042850551
0.043758323
0.04467412
0.045599805
0.04653759
0.04748968
0.048457856
0.049443077
0.050445203
0.051462668
0.052492455
0.053530243
0.054570246
0.055605721
0.05662903
0.057631983
0.05860624
0.059543237
0.060435064
0.061274555
0.062055931
0.062774846
0.063428791
0.064016738
0.064539462
0.064998333
0.065399527
0.065747124
0.066044873
0.066305109
0.06653339
0.066734146
0.066919291
0.067098464
0.067281403
0.067463784
0.067662319
0.067885407
0.068129325
0.068399622
0.068696351
0.069022332
0.069378105
0.0697657
0.070182694
0.0706291
0.071101328
0.07158159
0.072063091
0.072548296
0.07303472
0.073521583
0.074008621
0.074496272
0.074986068
0.075480799
0.075984705
0.076503438
0.077043839
0.07761338
0.078219297
0.078867287
0.079560712
0.080299218
0.081080011
0.081901002
0.082754394
0.083627977
0.084512773
0.085398714
0.086275074
0.087134622
0.087973501
0.088787896
0.089575894
0.0903418
0.091084044
0.091804858
0.092509081
0.093197926
0.093875678
0.094545411
0.095210981
0.095875825
0.096543316
0.097216649
0.097898839
0.098592849
0.099301442
0.10002701
0.10077152
0.10153646
0.10232287
0.10313134
0.10396213
0.10481523
0.10569036
0.10658706
0.1075047
0.10844254
0.1093997
0.11037525
0.11136807
0.11237694
0.11340043
0.11443696
0.11548472
0.11654166
0.1176055
0.11867369
0.11974349
0.12081197
0.12187612
0.12293286
0.1239791
0.12501177
0.12602783
0.12702428
0.1279982
0.12894686
0.12986785
0.13075923
0.13161964
0.13244841
0.13324554
0.13401176
0.13474846
0.13545765
0.1361419
0.13680424
0.13744805
0.13807696
0.13869474
0.13930511
0.13991167
0.14051779
0.14112641
0.14173993
0.1423599
0.14298723
0.14362137
0.14426033
0.14490068
0.14553713
0.14616169
0.14676506
0.14734005
0.1478805
0.14838171
0.1488414
0.14925494
0.1496081
0.14988577
0.15008975
0.1502285
0.15031068
0.15036394
0.15042202
0.15048741
0.15055334
0.15061799
0.15068401
0.15075557
0.1508293
0.15090437
0.15097556
0.15104847
0.15111416
0.15117938
0.15123421
0.15128567
0.15133811
0.15138066
0.15142063
0.15146847
0.1515036
0.15153616
0.15155072
0.15156176
0.038294155
0.039220653
0.040149766
0.04108282
0.042022455
0.042971535
0.04393329
0.044910903
0.045907059
0.04692353
0.047960854
0.049018007
0.050092361
0.051179771
0.052274523
0.053369757
0.054457576
0.05552946
0.056576604
0.057590057
0.058561495
0.05948336
0.060349458
0.061155026
0.061897059
0.062574074
0.063186367
0.063735808
0.064226794
0.064663202
0.065049599
0.06539679
0.065709356
0.065992965
0.066258298
0.066514795
0.066772066
0.067026167
0.067293374
0.06758141
0.067886807