/*--------------------------------*- C++ -*----------------------------------*\
| =========                 |                                                 |
| \\      /  F ield         | OpenFOAM: The Open Source CFD Toolbox           |
|  \\    /   O peration     | Version:  2406                                  |
|   \\  /    A nd           | Website:  www.openfoam.com                      |
|    \\/     M anipulation  |                                                 |
\*---------------------------------------------------------------------------*/
FoamFile
{
    version     2.0;
    format      ascii;
    arch        "LSB;label=32;scalar=64";
    class       volScalarField;
    location    "0.004";
    object      omega;
}
// * * * * * * * * * * * * * * * * * * * * * * * * * * * * * * * * * * * * * //

dimensions      [0 0 -1 0 0 0 0];

internalField   nonuniform List<scalar> 
8951
(
22484.753
22149.046
21816.243
21485.273
21155.459
20826.151
20496.76
20167.467
19838.074
19508.628
19180.333
18854.318
18532.314
18216.444
17908.126
17609.22
17319.971
17040.368
16769.639
16506.464
16248.609
15993.041
15736.156
15473.926
15202.232
14917.267
14615.93
14296.267
13957.988
13603.052
13235.2
12859.787
12483.796
12113.977
11756.355
11415.904
11096.052
10798.681
10524.483
10273.343
10044.692
9837.7363
9651.3165
9484.3611
9335.7771
9201.587
9078.5608
8965.9505
8864.2665
8773.1807
8691.8337
8619.1732
8554.0974
8495.5246
8442.323
8393.2193
8346.6992
8300.8424
8253.134
8200.2328
8137.797
8060.4433
7962.3732
7838.1538
7683.0202
7496.0024
7282.652
7052.5744
6815.9683
6583.4189
6365.4026
6168.0418
5992.848
5838.7849
5703.3661
5584.0841
5478.2143
5383.4745
5298.0043
5220.2166
5148.769
5082.5904
5020.8261
4962.7495
4907.7936
4855.6279
4806.1117
4759.1699
4714.7464
4672.8497
4633.5764
4597.1578
4563.6492
4533.1168
4505.4809
4480.339
4457.3813
4436.3034
4416.6935
4398.1811
4380.4514
4363.2411
4346.2932
4329.3139
4312.2236
4294.9792
4277.2999
4258.9652
4239.8143
4219.6638
4198.5041
4176.3901
4153.2375
4128.7465
4102.5222
4074.1953
4043.4524
4010.019
3973.6349
3934.0357
3890.9452
3844.0767
3793.1409
3737.8539
3677.9578
3613.2232
3543.4661
3468.5562
3388.4074
3303.0028
3212.3705
3116.593
3015.8199
2910.1674
2799.643
2684.25
2564.0877
2439.399
2310.2294
2176.1715
2035.8598
1886.8082
1726.3291
1553.2213
1368.9402
1177.9901
987.78884
807.37426
645.49245
508.95948
401.3185
322.04343
267.35534
231.81453
209.73724
196.31493
188.02778
182.71116
179.04539
176.34107
174.329
172.82583
171.65184
170.6908
169.9182
169.33329
168.90041
168.59506
168.40248
168.2753
168.2167
168.20985
168.26829
168.39964
168.78154
169.09546
169.82025
22623.615
22287.175
21954.358
21625.234
21298.61
20973.592
20649.337
20325.183
20000.963
19676.248
19351.191
19026.877
18704.311
18385.304
18071.955
17765.483
17467.941
17179.357
16899.515
16627.648
16362.194
16100.873
15840.657
15577.992
15308.97
15029.71
14736.764
14427.482
14100.478
13756.131
13397.014
13027.23
12652.282
12279.066
11913.873
11562.166
11228.311
10915.186
10624.317
10356.191
10110.615
9887.0091
9684.5477
9502.065
9338.5129
9192.2972
9059.843
8938.3501
8827.3637
8727.2544
8637.5142
8557.2333
8485.3658
8420.8347
8362.5726
8309.444
8260.1517
8213.1284
8166.3657
8117.2311
8062.265
7997.054
7916.3034
7814.568
7687.0113
7529.9746
7343.8862
7134.9589
6912.3129
6685.2967
6464.0309
6257.9646
6071.7264
5906.3112
5760.5574
5632.0918
5518.5546
5417.3919
5326.4699
5244.0325
5168.5805
5098.8554
5033.8572
4972.79
4914.9912
4859.9533
4807.3787
4757.1368
4709.1661
4663.438
4619.9859
4578.9324
4540.4956
4504.7596
4471.8119
4441.576
4413.7238
4387.9951
4364.1013
4341.6741
4320.3761
4299.9155
4280.0436
4260.514
4241.0614
4221.6026
4202.0706
4182.2083
4161.8056
4140.6928
4118.7045
4095.8198
4072.0614
4047.3215
4021.3062
3993.6398
3963.9656
3931.9746
3897.3914
3859.9543
3819.3987
3775.4506
3727.8283
3676.2498
3620.4408
3560.1538
3495.1716
3425.3225
3350.4881
3270.5961
3185.6417
3095.666
3000.7644
2901.0916
2796.7709
2687.8327
2574.3107
2456.3295
2334.1278
2207.7366
2076.7377
1939.8433
1794.8185
1639.3582
1472.6008
1296.1427
1114.3307
934.07587
763.66259
611.0349
482.35614
380.81779
305.91779
254.15782
220.46869
199.50067
186.71884
178.80095
173.69555
170.15232
167.51717
165.52876
164.01472
162.80838
161.80431
160.97837
160.32988
159.82228
159.43667
159.15211
158.93432
158.78308
158.6717
158.64047
158.67548
158.88154
159.09574
159.60854
22383.421
22051.832
21724.951
21402.294
21082.593
20764.753
20447.713
20130.651
19813.158
19494.717
19175.561
18856.607
18538.875
18224.278
17914.7
17611.325
17315.875
17028.666
16749.152
16476.44
16209.034
15944.499
15679.86
15411.662
15136.146
14849.738
14549.389
14232.927
13899.552
13550.278
13188.191
12817.633
12444.157
12074.487
11714.402
11368.815
11041.55
10735.033
10450.507
10188.308
9948.1925
9729.5769
9531.5863
9353.0007
9192.7911
9049.0479
8918.572
8798.8906
8689.7705
8591.3958
8503.1154
8423.9879
8352.9753
8289.0211
8231.0679
8177.9756
8128.4266
8080.8092
8033.0461
7982.4201
7925.4046
7857.5925
7773.886
7669.2666
7539.538
7382.1111
7198.5483
6995.3349
6780.9484
6564.014
6354.1938
6159.7021
5983.9554
5827.6408
5689.5322
5567.3992
5459.0384
5362.0681
5274.5023
5194.6904
5121.223
5052.9243
4988.8619
4928.2975
4870.6265
4815.3935
4762.3288
4711.3124
4662.2956
4615.2728
4570.2983
4527.5132
4487.1264
4449.2481
4413.9797
4381.2571
4350.8187
4322.4435
4295.8651
4270.755
4246.8066
4223.7499
4201.3506
4179.3738
4157.5794
4135.8788
4114.1891
4092.2715
4069.9245
4046.9748
4023.269
3998.7735
3973.4823
3947.2695
3919.8476
3890.8569
3859.9518
3826.8263
3791.2046
3752.8234
3711.4184
3666.7178
3618.4449
3566.3246
3510.0921
3449.5097
3384.3717
3314.5181
3239.8417
3160.283
3075.8482
2986.5906
2892.6168
2794.0862
2691.1301
2583.8004
2472.158
2356.3472
2236.6013
2112.9404
1984.9477
1851.4234
1710.3716
1559.8257
1399.2038
1230.1902
1056.9493
885.90514
724.65212
580.42049
458.80984
362.72813
291.7262
242.5745
210.53716
190.56573
178.36461
170.78594
165.87853
162.45405
159.89025
157.933
156.42011
155.19604
154.16532
153.30356
152.61079
152.04898
151.60491
151.2512
150.96748
150.74553
150.55869
150.44488
150.41781
150.50247
150.63559
150.97462
22104.383
21779.732
21461.376
21147.703
20837.245
20528.7
20220.812
19912.629
19603.532
19292.98
18981.228
18669.046
18357.547
18048.595
17743.833
17444.577
17152.124
16866.774
16588.149
16315.119
16046.011
15778.568
15509.762
15236.288
14954.578
14661.439
14354.262
14031.372
13692.561
13339.438
12975.506
12605.235
12234.156
11868.764
11514.278
11175.102
10854.585
10554.77
10276.675
10020.515
9786.0119
9572.5677
9379.2222
9204.7147
9047.9869
8907.0749
8778.946
8661.4393
8554.4992
8458.0948
8371.4628
8293.64
8223.5957
8160.2898
8102.6717
8049.5972
7999.7324
7951.4322
7902.572
7850.3862
7791.3363
7721.1018
7634.865
7528.0815
7397.2196
7240.6753
7060.8564
6864.2258
6658.5639
6451.9284
6253.428
6069.9391
5904.0057
5756.1117
5625.0106
5508.6307
5404.9256
5311.6837
5227.0633
5149.5178
5077.7275
5010.596
4947.2562
4887.0242
4829.3488
4773.8201
4720.1938
4668.3608
4618.2847
4569.9789
4523.5159
4479.05
4436.7847
4396.8516
4359.3621
4324.2694
4291.3693
4260.4739
4231.342
4203.6813
4177.2138
4151.6905
4126.8908
4102.5926
4078.5772
4054.752
4031.0213
4007.1613
3982.9785
3958.2988
3932.9767
3906.9657
3880.2346
3852.6421
3823.9065
3793.682
3761.6319
3727.4535
3690.8703
3651.6181
3609.4328
3564.0453
3515.1836
3462.5798
3405.978
3345.1504
3279.9025
3210.0856
3135.6037
3056.4095
2972.5199
2883.9997
2790.9655
2693.5817
2591.9874
2486.2546
2376.4684
2262.7893
2145.4443
2024.4451
1899.3835
1769.1493
1631.9688
1486.1773
1331.4309
1169.472
1004.2782
841.81892
689.05903
552.58531
437.49302
346.43998
279.03069
232.28355
201.76737
182.71527
171.05251
163.79068
159.07085
155.76138
153.26975
151.34873
149.84565
148.61448
147.5692
146.68454
145.96186
145.3611
144.87481
144.46938
144.13746
143.86187
143.62002
143.44231
143.35452
143.37083
143.43494
143.63345
22103.621
21784.432
21470.903
21163.736
20861.389
20562.315
20265.034
19968.138
19670.545
19371.474
19070.387
18767.51
18463.525
18159.616
17857.487
17558.634
17264.4
16975.844
16693.084
16415.703
16142.822
15872.5
15602.401
15329.771
15051.381
14763.893
14464.582
14151.303
13822.882
13479.694
13123.882
12759.256
12390.325
12022.549
11662.128
11313.716
10981.259
10667.695
10374.751
10103.26
9853.3414
9624.6837
9416.6303
9228.1595
9057.9743
8905.042
8767.3454
8641.9178
8526.9699
8422.526
8328.3357
8243.5531
8167.1996
8098.2513
8035.6807
7978.4425
7925.3893
7875.1764
7826.1378
7776.1253
7722.3636
7661.3588
7588.9491
7500.6563
7392.4381
7261.4225
7106.8601
6931.7198
6742.2361
6545.5098
6349.1679
6161.6033
5988.4059
5831.5469
5691.3628
5566.6221
5455.4189
5355.8599
5265.899
5183.8321
5108.2139
5037.8116
4971.6051
4908.7885
4848.7296
4790.9255
4735.0065
4680.7515
4628.062
4576.9133
4527.3347
4479.4138
4433.3143
4389.2367
4347.3298
4307.7131
4270.3591
4235.1128
4201.8158
4170.2529
4140.1652
4111.3012
4083.432
4056.3505
4029.8476
4003.7235
3977.8824
3952.2172
3926.519
3900.6005
3874.2883
3847.442
3820.0023
3791.9157
3763.0282
3733.0629
3701.6857
3668.5679
3633.4094
3595.9334
3555.8752
3512.9709
3466.954
3417.5578
3364.5211
3307.5969
3246.5671
3181.2482
3111.5026
3037.2451
2958.4403
2875.1154
2787.3459
2695.2578
2599.0203
2498.7803
2394.6285
2286.6712
2175.0823
2060.0821
1941.6765
1819.4713
1692.4465
1559.0339
1417.8372
1268.7144
1113.4414
955.80809
801.35967
656.48631
527.19404
418.126
331.71856
267.62925
223.10523
193.99497
175.79347
164.63128
157.66583
153.12327
149.92419
147.50406
145.62223
144.13494
142.90426
141.85321
140.95515
140.2132
139.58482
139.06853
138.62448
138.25752
137.94107
137.65963
137.43244
137.29518
137.25972
137.27594
137.36295
21733.016
21426.607
21126.444
20832.623
20543.674
20257.926
19973.724
19689.534
19404.149
19116.668
18826.553
18533.98
18239.582
17944.545
17650.394
17358.522
17070.217
16786.309
16506.861
16231.391
15958.931
15687.825
15415.582
15139.467
14856.637
14563.92
14259.139
13940.636
13607.712
13261.305
12904.017
12539.858
12173.304
11809.71
11454.929
11113.062
10787.667
10481.324
10195.499
9930.8678
9687.476
9464.9572
9262.5602
9079.2415
8913.7378
8765.0018
8630.877
8508.5132
8396.5157
8294.8761
8203.1442
8120.4165
8045.7036
7977.9882
7916.2532
7859.4572
7806.452
7755.8879
7706.0913
7654.9143
7599.6107
7536.7835
7462.488
7372.624
7263.6603
7133.3496
6981.6407
6811.8173
6629.7584
6441.9645
6255.6876
6078.4615
5914.7668
5766.2087
5633.0133
5513.9907
5407.4005
5311.4955
5224.388
5144.5035
5070.4938
5001.2093
4935.7017
4873.2226
4813.1879
4755.1385
4698.7406
4643.794
4590.2105
4537.9763
4487.1335
4437.7827
4390.0937
4344.2655
4300.4606
4258.8048
4219.2913
4181.8068
4146.2198
4112.341
4079.9421
4048.7966
4018.6945
3989.4422
3960.8434
3932.7158
3904.9589
3877.4583
3850.0183
3822.4566
3794.6015
3766.3154
3737.5266
3708.1619
3678.0566
3646.938
3614.4817
3580.366
3544.293
3505.986
3465.1796
3421.6109
3375.016
3325.133
3271.7077
3214.5018
3153.3069
3087.9501
3018.3047
2944.2962
2865.9005
2783.1548
2696.1448
2605.0049
2509.9091
2411.0121
2308.4219
2202.2635
2092.7214
1980.0094
1864.1298
1744.7072
1620.8105
1491.0612
1354.3012
1210.5587
1061.623
911.09754
764.1324
626.59292
503.96026
400.47142
318.36603
257.35288
214.89017
187.08386
169.672
158.97648
152.28865
147.91315
144.81939
142.4691
140.62791
139.16045
137.93563
136.88523
135.98072
135.22742
134.57987
134.04281
133.57
133.17797
132.83014
132.52091
132.2548
132.08223
131.99847
131.98285
131.98716
21325.723
21032.82
20747.593
20469.008
20195.299
19924.609
19655.129
19385.212
19113.538
18839.114
18561.391
18280.488
17996.993
17712.036
17426.972
17143.102
16861.592
16583.08
16307.596
16034.656
15763.212
15491.6
15217.673
14938.69
14651.954
14354.702
14045.29
13722.573
13386.286
13037.894
12680.371
12317.834
11954.679
11596.126
11247.638
10912.805
10594.862
10296.084
10017.702
9760.2677
9523.7553
9307.6915
9111.2817
8933.481
8773.0989
8628.9465
8498.717
8379.7976
8271.127
8172.579
8083.5389
8003.065
7930.1611
7863.8169
7803.0243
7746.7462
7693.8355
7642.9439
7592.4034
7540.0892
7483.3192
7418.8377
7342.9599
7251.9847
7142.8815
7013.9696
6865.736
6701.5861
6526.9843
6347.9361
6171.2898
6003.6565
5848.639
5707.5967
5580.6747
5466.7436
5364.2222
5271.5008
5186.8414
5108.7901
5036.0902
4967.6712
4902.6517
4840.3372
4780.1879
4721.7845
4664.8247
4609.1275
4554.615
4501.2826
4449.1837
4398.4287
4349.1914
4301.6705
4256.0383
4212.4269
4170.8493
4131.2281
4093.4562
4057.3699
4022.7688
3989.45
3957.2214
3925.9025
3895.3104
3865.2769
3835.6975
3806.4543
3777.3622
3748.2433
3718.928
3689.2797
3659.2153
3628.6439
3597.3917
3565.1894
3531.7211
3496.6708
3459.743
3420.6608
3379.1586
3334.9742
3287.8469
3237.5196
3183.7449
3126.2931
3064.9653
2999.599
2930.0782
2856.3387
2778.3676
2696.2115
2609.9657
2519.7726
2425.8109
2328.2429
2227.1922
2122.8004
2015.2606
1904.7802
1791.3599
1674.6469
1553.797
1427.606
1295.1264
1156.5294
1013.6015
869.76277
729.7954
599.08536
482.63893
384.32753
306.21534
248.05983
207.51369
180.92053
164.24415
153.98504
147.55719
143.33888
140.34515
138.06243
136.26228
134.81725
133.60208
132.55694
131.65107
130.89232
130.23191
129.68111
129.18694
128.77748
128.40535
128.07732
127.78036
127.58295
127.45894
127.42002
127.35772
20881.992
20604.377
20335.973
20074.353
19817.482
19563.36
19310.052
19055.809
18799.208
18539.185
18275.165
18007.199
17735.823
17462.067
17187.131
16912.205
16638.303
16365.919
16095.055
15825.215
15555.342
15283.828
15008.608
14727.337
14437.478
14136.5
13823.36
13497.62
13159.201
12810.11
12453.605
12093.832
11735.083
11382.417
11040.87
10713.594
10403.556
10112.755
9842.2097
9592.3752
9363.1063
9153.8712
8963.8529
8792.0089
8637.1832
8497.9398
8371.9208
8256.8261
8151.8192
8056.6156
7970.4764
7892.4354
7821.4942
7756.6505
7696.9052
7641.2259
7588.4695
7537.295
7486.0518
7432.6586
7374.5266
7308.5761
7231.4092
7139.7287
7030.9795
6903.9749
6759.5949
6601.2303
6433.9212
6263.2664
6095.6535
5936.7843
5789.608
5655.3036
5533.9587
5424.5159
5325.5437
5235.5602
5152.9669
5076.4212
5004.7524
4936.9641
4872.2368
4809.926
4749.5328
4690.6737
4633.0747
4576.572
4521.0975
4466.6553
4413.3074
4361.1721
4310.4254
4261.266
4213.8734
4168.3851
4124.8333
4083.1708
4043.3136
4005.1221
3968.422
3933.0319
3898.7771
3865.4903
3833.0012
3801.1528
3769.8392
3738.9401
3708.2795
3677.6837
3646.9849
3616.0466
3584.7746
3553.0626
3520.7289
3487.5071
3453.0882
3417.1615
3379.4332
3339.6266
3297.4759
3252.7202
3205.1016
3154.3679
3100.2786
3042.6124
2981.1798
2915.8284
2846.4527
2772.9988
2695.4642
2613.905
2528.4252
2439.1747
2346.3369
2250.0814
2150.5462
2047.8873
1942.3045
1833.9992
1722.9729
1608.8975
1491.0133
1368.2753
1239.9225
1106.2451
969.01366
831.46931
698.05227
573.71038
463.01977
369.52217
295.12468
239.6303
200.87086
175.4096
159.42045
149.57008
143.38605
139.31559
136.4166
134.19875
132.43931
131.01828
129.81536
128.77877
127.87523
127.1154
126.44687
125.88764
125.37775
124.95667
124.56568
124.22553
123.90411
123.68964
123.53233
123.47515
123.3607
20669.82
20402.116
20143.718
19893.949
19650.717
19412.001
19175.71
18939.807
18702.447
18462.115
18217.682
17968.533
17714.643
17456.475
17194.933
16931.065
16665.933
16400.394
16134.832
15869.225
15603.067
15335.334
15064.5
14788.66
14505.709
14213.511
13909.839
13594.125
13266.49
12927.228
12578.758
12224.517
11868.638
11515.29
11169.351
10835.4
10516.25
10214.633
9932.2737
9670.0134
9428.1895
9206.5806
9004.6033
8821.4127
8655.9908
8507.0692
8373.0125
8251.5122
8140.5871
8039.5203
7947.8662
7864.7976
7789.3355
7720.4835
7657.2494
7598.6438
7543.6401
7491.1019
7439.7008
7387.8138
7333.4197
7274.0462
7206.8121
7128.6198
7036.5684
6928.5411
6803.7697
6663.4057
6510.739
6350.405
6187.6565
6028.366
5877.402
5737.2405
5608.9177
5492.4817
5386.9535
5291.0387
5203.3733
5122.4883
5047.1426
4976.2454
4908.8694
4844.2525
4781.796
4721.0387
4661.6293
4603.319
4545.9599
4489.4931
4433.9299
4379.3397
4325.8464
4273.6273
4222.8805
4173.7906
4126.5
4081.0586
4037.4454
3995.5972
3955.3976
3916.6959
3879.3313
3843.1455
3807.9844
3773.6883
3740.111
3707.1465
3674.6731
3642.5226
3610.5247
3578.5141
3546.3531
3513.937
3481.1461
3447.7915
3413.6095
3378.2968
3341.547
3303.0681
3262.5836
3219.8278
3174.541
3126.4683
3075.3626
3020.9899
2963.1374
2901.6246
2836.3094
2767.0962
2693.9414
2616.8525
2535.8945
2451.18
2362.8659
2271.1398
2176.1786
2078.1334
1977.1726
1873.5011
1767.3152
1658.6186
1547.1102
1432.1109
1312.7212
1188.3445
1059.3693
927.54022
795.92454
668.64486
550.24845
444.9214
355.90756
284.97286
231.96231
194.87261
170.4704
155.12525
145.65859
139.70323
135.77183
132.96238
130.80651
129.08692
127.69069
126.50175
125.47601
124.57746
123.81976
123.14666
122.58303
122.06173
121.63342
121.22784
120.88042
120.53981
120.31388
120.12918
120.05672
119.9027
20139.246
19892.829
19654.775
19424.653
19200.822
18981.266
18763.802
18546.29
18326.798
18103.726
17875.882
17642.595
17403.754
17159.726
16911.273
16659.29
16404.697
16148.201
15890.107
15630.368
15368.48
15103.48
14833.96
14558.199
14274.374
13980.672
13675.328
13358.372
13030.069
12691.317
12344.799
11994.057
11643.19
11296.231
10957.852
10632.176
10321.768
10029.129
9755.6874
9502.1856
9268.8309
9055.3322
8861.0455
8685.1443
8526.5171
8383.7641
8255.133
8138.4268
8031.9491
7935.0237
7847.063
7767.1824
7694.3991
7627.7242
7566.1784
7508.7826
7454.5175
7402.2558
7350.6864
7298.222
7242.9142
7182.4227
7114.0772
7035.0824
6942.9154
6835.8562
6713.4815
6577.1193
6429.9107
6276.1261
6120.6977
5968.952
5825.0414
5691.0937
5568.0291
5455.8691
5353.7144
5260.3954
5174.6557
5095.145
5020.7149
4950.3487
4883.1827
4818.5076
4755.767
4694.534
4634.4865
4575.398
4517.1353
4459.648
4402.9539
4347.1278
4292.2979
4238.6412
4186.3553
4135.6279
4086.606
4039.3552
3993.8769
3950.1273
3908.0116
3867.4011
3828.154
3790.1281
3753.1805
3717.1625
3681.9382
3647.4017
3613.431
3579.8644
3546.5351
3513.2798
3479.959
3446.4584
3412.6462
3378.3275
3343.2404
3307.0864
3269.5631
3230.3799
3189.2604
3145.9393
3100.1583
3051.6656
3000.2189
2945.591
2887.5773
2826.0062
2760.7456
2691.7099
2618.8652
2542.2288
2461.8743
2377.9224
2290.5364
2199.9084
2106.222
2009.6401
1910.3418
1808.5362
1704.4146
1597.9848
1488.9735
1376.7789
1260.6338
1140.0857
1015.6043
888.8995
762.87128
641.34723
528.50827
428.18647
343.35607
275.65558
224.9684
189.44283
166.03413
151.29416
142.18825
136.44758
132.64705
129.92209
127.82519
126.14427
124.7731
123.59921
122.58586
121.69418
120.94096
120.26598
119.70092
119.17158
118.73928
118.32253
117.97129
117.61592
117.38241
117.17532
117.09045
116.90571
19585.682
19359.613
19141.844
18931.886
18728.117
18528.407
18330.462
18132.046
17931.142
17726.073
17515.583
17298.93
17075.907
16846.763
16612.106
16372.677
16129.246
15882.388
15632.346
15379.051
15122.02
14860.372
14592.844
14317.932
14034.095
13739.88
13434.05
13117.085
12789.483
12452.595
12109.325
11763.335
11418.587
11078.99
10749.001
10432.319
10131.282
9848.1521
9584.1451
9339.924
9115.4848
8910.5333
8724.3886
8556.1401
8404.5725
8268.1816
8145.1604
8033.4603
7931.6177
7838.9493
7754.7549
7678.1172
7608.058
7543.601
7483.783
7427.6356
7374.149
7322.2073
7270.5203
7217.5427
7161.4075
7099.9147
7030.6092
6950.9911
6858.89
6752.9379
6632.9914
6500.4833
6358.3898
6210.6585
6061.8999
5916.8999
5779.2201
5650.7232
5532.2342
5423.7568
5324.4704
5233.3167
5149.1376
5070.6913
4996.9133
4926.8552
4859.7121
4794.823
4731.6703
4669.8584
4609.0913
4549.1631
4489.9534
4431.4198
4373.5856
4316.5301
4260.3838
4205.323
4151.5439
4099.236
4048.5501
3999.566
3952.304
3906.7384
3862.7943
3820.3632
3779.3214
3739.5416
3700.8908
3663.2321
3626.4387
3590.4051
3555.0098
3520.0969
3485.5028
3451.066
3416.6447
3382.1157
3347.3365
3312.1069
3276.1661
3239.22
3200.9693
3161.1247
3119.4101
3075.5606
3029.3195
2980.438
2928.6788
2873.8213
2815.669
2754.0592
2688.8694
2620.0239
2547.4982
2471.3192
2391.5688
2308.3752
2221.9077
2132.3629
2039.9306
1944.7844
1847.1128
1747.1276
1645.0163
1540.7916
1434.2089
1324.7394
1211.7359
1094.8727
974.6849
852.84182
732.08241
615.96066
508.32232
412.67775
331.7568
267.08256
218.5731
184.51608
162.04179
147.87187
139.10565
133.56685
129.88952
127.24424
125.20328
123.55963
122.21336
121.05514
120.05517
119.17164
118.42456
117.7497
117.18545
116.65068
116.21676
115.79165
115.43893
115.07258
114.83414
114.60884
114.514
114.30515
19013.965
18807.419
18609.81
18420.262
18236.879
18057.353
17879.276
17700.326
17518.414
17331.794
17139.141
16939.633
16732.95
16519.21
16298.858
16072.482
15840.702
15603.974
15362.492
15116.174
14864.577
14606.918
14342.103
14068.868
13785.966
13492.329
13187.302
12871.608
12545.999
12212.36
11873.665
11533.62
11196.074
10864.801
10544.019
10237.039
9946.0112
9672.9698
9418.9207
9184.4073
8969.358
8773.3752
8595.7108
8435.3631
8291.0193
8161.1018
8043.7995
7937.2292
7840.107
7751.7197
7671.2861
7597.8766
7530.5253
7468.274
7410.1769
7355.2795
7302.5825
7250.9836
7199.2161
7145.7808
7088.8973
7026.5082
6956.3717
6876.2686
6784.3521
6679.5613
6561.9764
6433.0859
6295.7022
6153.4869
6010.7194
5871.6793
5739.4513
5615.6896
5501.1394
5395.7938
5298.9068
5209.5195
5126.5635
5048.8951
4975.5259
4905.5705
4838.2777
4773.031
4709.3482
4646.8621
4585.3005
4524.4756
4464.2791
4404.6759
4345.6938
4287.4153
4229.9723
4173.5393
4118.3109
4064.4767
4012.1912
3961.5459
3912.5779
3865.2777
3819.5887
3775.4213
3732.6692
3691.2166
3650.9423
3611.7205
3573.4321
3535.9728
3499.222
3463.0291
3427.2334
3391.6747
3356.209
3320.7048
3285.0098
3248.9192
3212.1732
3174.4811
3135.5461
3095.0802
3052.8078
3008.4643
2961.7947
2912.5533
2860.5079
2805.4443
2747.1739
2685.543
2620.4384
2551.7938
2479.5944
2403.8761
2324.7287
2242.2877
2156.7281
2068.2505
1977.0509
1883.3123
1787.2311
1689.0215
1588.8672
1486.7871
1382.5656
1275.7424
1165.7791
1052.4606
936.37464
819.14495
703.35653
592.30961
489.54313
398.27489
321.01287
259.17519
212.71093
180.03577
158.44245
144.81067
136.3648
131.01613
127.45485
124.88465
122.89664
121.28872
119.9669
118.82462
117.83857
116.96405
116.22426
115.55105
114.98918
114.45106
114.01721
113.58604
113.23343
112.85924
112.61768
112.37763
112.2748
112.04701
18429.893
18242.068
18064.508
17895.352
17732.305
17572.896
17414.631
17255.129
17092.244
16924.166
16749.501
16567.336
16377.23
16179.157
15973.395
15760.378
15540.581
15314.359
15081.859
14842.999
14597.389
14344.362
14083.01
13812.326
13531.373
13239.478
12936.505
12623.346
12301.144
11972.08
11639.25
11306.344
10977.051
10655.03
10344.25
10047.687
9767.2704
9504.8426
9261.2618
9036.903
8831.6235
8644.9142
8475.948
8323.6296
8186.5642
8063.1346
7951.5675
7850.1465
7757.7219
7673.5454
7596.7864
7526.5188
7461.7965
7401.6839
7345.2544
7291.57
7239.643
7188.386
7136.558
7082.7085
7025.145
6961.9522
6891.0927
6810.6097
6718.948
6615.3115
6499.9572
6374.3964
6241.287
6104.0352
5966.5831
5832.754
5705.2521
5585.5627
5474.3635
5371.6422
5276.723
5188.7351
5106.6913
5029.5372
4956.3532
4886.3115
4818.7106
4752.9743
4688.6528
4625.405
4562.98
4501.2065
4439.9872
4379.2934
4319.1568
4259.6621
4200.9415
4143.1671
4086.5312
4031.2227
3977.3988
3925.1612
3874.5613
3825.6042
3778.2504
3732.4278
3688.0449
3644.9974
3603.1761
3562.4651
3522.7525
3483.9356
3445.8953
3408.4853
3371.5478
3334.9241
3298.4672
3262.0381
3225.4761
3188.5718
3151.0662
3112.6714
3073.0928
3032.0434
2989.2481
2944.4428
2897.3743
2847.8001
2795.4927
2740.2446
2681.875
2620.2387
2555.2319
2486.7978
2414.9304
2339.6747
2261.1281
2179.4328
2094.7694
2007.3424
1917.3534
1824.9938
1730.4669
1633.9881
1535.7385
1435.7439
1333.8172
1229.5624
1122.5394
1012.6294
900.4614
787.61035
676.51434
570.23833
472.04038
384.87192
311.03927
251.86471
207.32483
175.95272
155.19189
142.06911
133.9259
128.75657
125.30463
122.80516
120.8672
119.2934
117.99539
116.86904
115.89715
115.03217
114.30043
113.62998
113.07163
112.53179
112.09919
111.66385
111.31237
110.93295
110.68949
110.43754
110.32831
110.08567
17839.635
17670.516
17512.921
17363.775
17220.553
17080.719
16941.745
16801.222
16656.968
16507.119
16350.212
16185.234
16011.617
15829.182
15638.043
15438.477
15230.824
15015.345
14792.149
14561.16
14322.055
14074.295
13817.171
13549.941
13271.988
12983.024
12683.35
12374.042
12056.598
11733.426
11407.705
11083.061
10763.033
10451.152
10151.133
9865.6479
9596.4168
9345.1016
9112.4155
8898.5647
8703.316
8526.056
8365.8711
8221.5795
8091.7282
7974.6945
7868.7748
7772.4118
7684.5551
7604.4288
7531.1809
7463.9012
7401.6695
7343.5769
7288.7185
7236.173
7184.9661
7134.0266
7082.1402
7027.9067
6969.7209
6905.8047
6834.3133
6753.5307
6662.1608
6559.6329
6446.3427
6323.8024
6194.527
6061.692
5928.9066
5799.592
5676.149
5559.9245
5451.539
5350.9784
5257.6322
5170.7077
5089.2917
5012.4105
4939.2068
4868.9062
4800.852
4734.5051
4669.4456
4605.3561
4542.005
4479.2357
4416.961
4355.158
4293.8616
4233.158
4173.1785
4114.0925
4056.0893
3999.3564
3944.0527
3890.2887
3838.1275
3787.588
3738.6461
3691.2459
3645.3079
3600.7405
3557.4454
3515.3161
3474.2471
3434.1378
3394.8708
3356.3038
3318.2818
3280.6469
3243.2496
3205.9436
3168.5608
3130.8879
3092.6659
3053.6093
3013.4255
2971.8285
2928.5431
2883.3065
2835.8667
2785.9849
2733.4383
2678.0257
2619.5741
2557.9469
2493.0493
2424.8336
2353.3028
2278.5104
2200.5612
2119.604
2035.8243
1949.4305
1860.6295
1769.6201
1676.6112
1581.8194
1485.4232
1387.4559
1287.7587
1185.9955
1081.8143
975.18044
866.75444
758.06005
651.39564
549.6082
455.69842
372.37513
301.76105
245.09074
202.36482
172.22396
152.25151
139.61107
131.75428
126.75433
123.40549
120.97265
119.08192
117.54059
116.26561
115.15504
114.19728
113.34212
112.61888
111.95203
111.39796
110.85771
110.42714
109.98918
109.63948
109.25694
109.01243
108.7509
108.63655
108.38232
17409.526
17249.774
17101.317
16963.255
16833.183
16708.717
16587.371
16466.643
16344.128
16217.628
16085.241
15945.433
15797.091
15639.515
15472.371
15295.608
15109.351
14913.809
14709.158
14495.471
14272.684
14040.55
13798.667
13546.529
13283.66
13009.764
12724.915
12429.767
12125.606
11814.229
11498.212
11180.773
10865.446
10555.635
10254.722
9966.1577
9692.3394
9434.8001
9195.0096
8973.5263
8770.4057
8585.3081
8417.5262
8266.0586
8129.6547
8006.8311
7895.9901
7795.5222
7704.018
7620.5012
7544.1834
7474.2129
7409.7058
7349.7733
7293.5358
7240.1122
7188.5986
7138.0352
7087.3677
7035.4097
6980.8109
6922.0512
6857.4827
6785.439
6704.4216
6613.3609
6511.8759
6400.4698
6280.6415
6154.7735
6025.8315
5897.1072
5771.6713
5651.6821
5538.3718
5432.3127
5333.4926
5241.3608
5155.1941
5074.147
4997.3188
4923.909
4853.1919
4784.5522
4717.4848
4651.5969
4586.5929
4522.2587
4458.4511
4395.0919
4332.1636
4269.7038
4207.7989
4146.5792
4086.2107
4026.8789
3968.7693
3912.0421
3856.8144
3803.1599
3751.1094
3700.6534
3651.7492
3604.3287
3558.3135
3513.615
3470.1353
3427.775
3386.4356
3346.0021
3306.3357
3267.2837
3228.6892
3190.3998
3152.263
3114.1037
3075.7048
3036.8076
2997.1283
2956.3757
2914.2647
2870.5207
2824.8813
2777.0966
2726.9309
2674.1663
2618.6079
2560.0904
2498.4853
2433.7069
2365.7164
2294.5257
2220.1964
2142.8405
2062.6129
1979.7038
1894.3253
1806.6893
1717.0011
1625.4742
1532.3257
1437.7326
1341.7359
1244.2038
1144.8562
1043.4203
939.93426
835.08179
730.33406
627.85691
530.29537
440.41432
360.70136
293.11195
238.79999
197.78694
168.8118
149.58748
137.4049
129.81963
124.97984
121.72829
119.3582
117.51198
116.0015
114.74868
113.65357
112.70976
111.86453
111.15002
110.48737
109.93808
109.39844
108.97042
108.53107
108.18354
107.79957
107.55461
107.28539
107.16696
106.90372
16812.722
16674.03
16544.802
16424.744
16312.103
16204.708
16100.181
15996.09
15890.071
15779.933
15663.747
15539.919
15407.237
15264.868
15112.323
14949.389
14776.043
14592.368
14398.455
14194.346
13979.993
13755.224
13519.778
13273.351
13015.729
12746.922
12467.328
12177.896
11880.126
11576.052
11268.372
10960.298
10655.261
10356.531
10067.32
9790.8124
9529.1477
9283.6913
9055.7049
8845.5885
8653.2623
8478.2809
8319.8452
8176.8806
8048.0894
7931.9873
7827.0288
7731.7135
7644.7682
7565.2789
7492.4569
7425.4701
7363.4689
7305.5999
7251.0149
7198.8576
7148.2423
7098.2244
7047.767
6995.7121
6940.7584
6881.467
6816.3115
6743.7882
6662.5921
6571.849
6471.3353
6361.636
6244.227
6121.3674
5995.8293
5870.6136
5748.4855
5631.4072
5520.5166
5416.3463
5318.8886
5227.6478
5141.963
5061.0506
4984.0764
4910.2916
4839.0153
4769.6703
4701.7828
4634.9848
4569.0006
4503.6321
4438.7482
4374.2791
4310.212
4246.5864
4183.4888
4121.0475
4059.4246
3998.8018
3939.3616
3881.2648
3824.6338
3769.551
3716.0581
3664.1589
3613.8205
3564.988
3517.5943
3471.5599
3426.795
3383.2058
3340.6966
3299.1543
3258.4435
3218.4138
3178.909
3139.774
3100.8504
3061.9568
3022.8729
2983.3397
2943.0747
2901.7882
2859.1955
2815.0225
2769.0077
2720.9029
2670.4758
2617.5132
2561.8264
2503.2577
2441.6868
2377.0366
2309.2774
2238.4293
2164.5619
2087.7943
2008.287
1926.2349
1841.8536
1755.3593
1666.963
1576.8823
1485.3345
1392.4949
1298.4129
1202.9829
1105.9761
1007.1909
906.72812
805.28794
704.2882
605.7692
512.18895
426.09616
349.7766
285.0331
232.94532
193.5524
165.68302
147.16993
135.42274
128.09525
123.4071
120.24742
117.93643
116.13213
114.65088
113.41932
112.33929
111.40911
110.57377
109.86804
109.21002
108.6658
108.12757
107.70242
107.26268
106.91754
106.53343
106.28845
106.01307
105.89141
105.62124
16245.925
16124.327
16011.569
15907.182
15809.672
15717.054
15627.092
15537.464
15445.877
15350.177
15248.426
15138.984
15020.542
14892.142
14753.143
14603.175
14442.07
14269.785
14086.33
13891.712
13685.898
13468.793
13240.269
13000.218
12748.673
12485.923
12212.652
11930.056
11639.833
11344.201
11045.927
10748.19
10454.307
10167.401
9890.5022
9626.5229
9377.3614
9144.2252
8928.1574
8729.4045
8547.7672
8382.6986
8233.3163
8098.4943
7976.9124
7867.1149
7767.6316
7677.0776
7594.3038
7518.4582
7448.7633
7384.4188
7324.6164
7268.5411
7215.3775
7164.2943
7114.4245
7064.8387
7014.5183
6962.3332
6907.0295
6847.2451
6781.565
6708.6318
6627.31
6536.8916
6437.2815
6329.1251
6213.8683
6093.6537
5971.0742
5848.8718
5729.546
5614.8974
5505.9871