/*--------------------------------*- C++ -*----------------------------------*\
| =========                 |                                                 |
| \\      /  F ield         | OpenFOAM: The Open Source CFD Toolbox           |
|  \\    /   O peration     | Version:  2406                                  |
|   \\  /    A nd           | Website:  www.openfoam.com                      |
|    \\/     M anipulation  |                                                 |
\*---------------------------------------------------------------------------*/
FoamFile
{
    version     2.0;
    format      ascii;
    arch        "LSB;label=32;scalar=64";
    class       volVectorField;
    location    "0.004";
    object      U;
}
// * * * * * * * * * * * * * * * * * * * * * * * * * * * * * * * * * * * * * //

dimensions      [0 1 -1 0 0 0 0];

internalField   nonuniform List<vector> 
8951
(
(29.427033 -0.58368801 -1.6728115e-20)
(29.57213 -0.55405983 -1.9193748e-25)
(29.7229 -0.48621721 1.6590408e-20)
(29.87541 -0.38138415 -5.2904668e-19)
(30.025798 -0.24028489 5.273429e-19)
(30.172783 -0.063726012 5.670808e-25)
(30.312195 0.14267562 -3.2769149e-20)
(30.441297 0.37880981 -3.2680759e-20)
(30.5586 0.63641436 -3.2594916e-20)
(30.656555 0.91014971 0)
(30.737653 1.2029008 -5.1878927e-19)
(30.797337 1.495441 5.1735126e-19)
(30.831829 1.8012087 5.4822648e-19)
(30.84562 2.0948908 3.22108e-20)
(30.830477 2.3933014 5.7627064e-23)
(30.791632 2.6689056 3.1391134e-20)
(30.727511 2.9372441 -5.0888536e-19)
(30.638756 3.1796363 -3.1777988e-20)
(30.523721 3.3960074 3.168024e-20)
(30.383624 3.5838869 4.737041e-19)
(30.219701 3.740435 -4.7202379e-19)
(30.033345 3.863523 5.0170011e-19)
(29.826117 3.9519347 -4.9954834e-19)
(29.599912 4.0048111 0)
(29.357133 4.0220906 -3.0895076e-20)
(29.100257 4.0047293 0)
(28.832337 3.953531 0)
(28.556798 3.8705934 0)
(28.277483 3.7577161 5.3496503e-19)
(27.998776 3.6172146 3.6099155e-23)
(27.724971 3.4511685 -4.6010438e-19)
(27.461144 3.262454 4.5097005e-19)
(27.210281 3.0565962 -3.8592739e-19)
(26.976411 2.8340357 0)
(26.763734 2.598895 -5.2535276e-20)
(26.573897 2.3520812 0)
(26.408382 2.0973895 4.995986e-20)
(26.267735 1.8368812 0)
(26.152798 1.5730797 0)
(26.063318 1.3084834 9.3024387e-20)
(25.999801 1.0449384 0)
(25.961237 0.78728467 -3.0127646e-25)
(25.945303 0.53273166 8.7667223e-20)
(25.93996 0.28814313 -2.836143e-20)
(25.94799 0.1054636 1.5460251e-25)
(26.003372 -0.089118251 -4.1587491e-20)
(26.093563 -0.31270775 4.1458342e-20)
(26.187907 -0.51521462 4.1074784e-20)
(26.294132 -0.69161865 -4.0779838e-20)
(26.412573 -0.84129123 -3.245831e-19)
(26.54278 -0.96326609 6.472273e-19)
(26.683513 -1.0561885 -3.2332506e-19)
(26.833061 -1.1185102 -4.0463819e-20)
(26.98949 -1.1486195 4.0591391e-20)
(27.150761 -1.1450782 0)
(27.314792 -1.1068348 0)
(27.479582 -1.0334981 -4.1395032e-20)
(27.643261 -0.92576402 0)
(27.804253 -0.78584514 4.2185778e-20)
(27.961147 -0.61802055 0)
(28.113271 -0.42951812 -8.6055161e-20)
(28.257403 -0.2315503 0)
(28.383634 -0.030902993 8.7348804e-20)
(28.494512 0.1761955 8.7609119e-20)
(28.605057 0.37978157 6.3497209e-25)
(28.712265 0.55685462 2.6040571e-19)
(28.812391 0.71062492 -8.5585148e-20)
(28.911473 0.83492325 1.3840296e-23)
(29.009065 0.92362821 -7.3689761e-19)
(29.105288 0.979615 2.3873293e-19)
(29.20516 1.0052842 -3.0735934e-19)
(29.313225 0.9972166 -1.4723954e-19)
(29.425275 0.9592998 2.1163376e-19)
(29.545977 0.90107663 2.7065624e-19)
(29.676277 0.81608518 -2.5858817e-19)
(29.811937 0.71261501 2.4692121e-19)
(29.956597 0.59630774 -2.3575046e-19)
(30.109702 0.467849 -2.251642e-19)
(30.270553 0.33188591 2.6899558e-19)
(30.439452 0.19215401 -5.1469536e-20)
(30.617049 0.052225141 -7.8644782e-26)
(30.804053 -0.085417479 0)
(31.000864 -0.21847932 4.5430884e-20)
(31.207989 -0.34502957 8.7428741e-20)
(31.425775 -0.4635033 -1.6852735e-19)
(31.654644 -0.57259698 1.626872e-19)
(31.895223 -0.67150834 3.93286e-20)
(32.148108 -0.76005905 1.5236643e-19)
(32.413672 -0.83853205 -2.2170421e-19)
(32.692071 -0.90748618 3.5894019e-20)
(32.983274 -0.96768948 -5.6286532e-24)
(33.287019 -1.0200017 2.0421049e-19)
(33.60291 -1.065199 0)
(33.930516 -1.1040287 0)
(34.269335 -1.1371972 0)
(34.618791 -1.1653017 0)
(34.978285 -1.1888573 -1.9226644e-25)
(35.347212 -1.2082711 -1.9823006e-25)
(35.724966 -1.2238621 0)
(36.110925 -1.2358701 5.7749167e-20)
(36.504452 -1.2444651 0)
(36.904882 -1.2497497 0)
(37.311509 -1.2517753 0)
(37.723569 -1.2505578 1.0837125e-19)
(38.140226 -1.246092 -1.0676117e-19)
(38.560575 -1.2383481 5.2608441e-20)
(38.983612 -1.2272843 0)
(39.408257 -1.2128742 -5.1135154e-20)
(39.83334 -1.1951078 1.5128429e-19)
(40.257608 -1.1739863 -4.9744115e-20)
(40.679772 -1.1495464 0)
(41.098553 -1.1218783 -1.4530237e-19)
(41.512691 -1.0911179 9.5618711e-20)
(41.920943 -1.0574614 4.7208407e-20)
(42.322089 -1.0211548 -1.3988571e-19)
(42.714936 -0.98252016 9.2136809e-20)
(43.098339 -0.94194482 0)
(43.471228 -0.8998823 4.5013584e-20)
(43.832665 -0.85684622 -1.780722e-19)
(44.181888 -0.81339994 2.6425926e-19)
(44.518369 -0.77015667 -1.7435861e-19)
(44.841843 -0.72775051 -8.6313568e-20)
(45.152337 -0.68682763 0)
(45.450175 -0.64802549 8.4700778e-20)
(45.73596 -0.61194187 -8.3950477e-20)
(46.010583 -0.57911234 -8.323561e-20)
(46.275156 -0.54999652 -8.2554182e-20)
(46.531018 -0.52492443 0)
(46.779669 -0.50413583 8.1288941e-20)
(47.022713 -0.48770002 -8.0704682e-20)
(47.261855 -0.47556796 2.0770868e-25)
(47.498776 -0.46756155 4.5887509e-25)
(47.735131 -0.46333299 -7.9163448e-20)
(47.972498 -0.46243761 7.8729561e-20)
(48.212284 -0.46429529 -7.8341994e-20)
(48.455663 -0.46826533 -7.8003918e-20)
(48.703412 -0.47346015 3.8861869e-20)
(48.956166 -0.47893942 1.1627075e-19)
(49.213943 -0.48386722 -3.8687516e-20)
(49.476078 -0.48714605 7.7310174e-20)
(49.741464 -0.48764463 1.160174e-19)
(50.007924 -0.4839285 -1.5492436e-19)
(50.27199 -0.47455104 0)
(50.528484 -0.45686625 0)
(50.773016 -0.42635571 -7.7778572e-20)
(51.000804 -0.37940453 0)
(51.20744 -0.3133078 0)
(51.389248 -0.22877143 1.1998598e-19)
(51.540527 -0.13420217 -8.2333907e-20)
(51.65266 -0.043547094 3.8179147e-25)
(51.719487 0.03150113 3.517063e-20)
(51.74526 0.080323015 -8.307086e-20)
(51.750495 0.091666162 1.5675288e-19)
(51.746134 0.074969555 0)
(51.734809 0.050164315 0)
(51.727084 0.029641775 0)
(51.727717 0.013847777 2.2898471e-19)
(51.737675 -0.0001481996 2.2952471e-19)
(51.759069 -0.012102035 -5.7386499e-20)
(51.780272 -0.018775961 2.8329541e-19)
(51.804701 -0.020044237 0)
(51.830055 -0.018244412 -2.75579e-20)
(51.85575 -0.015738803 2.717832e-20)
(51.880733 -0.014283015 2.1437979e-19)
(51.906376 -0.012686161 -2.1135821e-19)
(51.92935 -0.010446126 -2.6042374e-20)
(51.951481 -0.0076540856 2.5670313e-20)
(51.971205 -0.0069670844 -2.0238676e-19)
(51.986648 -0.0029370644 0)
(52.007114 -0.0046417701 0)
(52.020302 -0.0054081553 2.0595711e-19)
(52.036823 -0.0063234401 1.9095779e-19)
(52.05346 -0.0040071822 -1.8813699e-19)
(52.067251 -0.0034108127 1.7952238e-19)
(52.079376 -0.0025655128 -5.7055484e-21)
(52.084736 0.00029953904 -3.5961998e-19)
(52.087582 -0.00013484579 0)
(28.221021 -0.63038055 -1.9407249e-25)
(28.373377 -0.62864872 -4.9737996e-19)
(28.533272 -0.58781931 5.1092253e-19)
(28.697961 -0.50834683 5.2457152e-19)
(28.863859 -0.39139583 -5.0751988e-19)
(29.027844 -0.23786765 0)
(29.188035 -0.049506617 -3.0583918e-20)
(29.340627 0.16847507 -1.5251525e-20)
(29.483504 0.41475685 -4.715672e-19)
(29.613921 0.68155739 5.1581969e-19)
(29.726389 0.9652103 0)
(29.822496 1.26438 0)
(29.896943 1.5647866 0)
(29.949092 1.8747233 0)
(29.979591 2.1739109 4.7879993e-19)
(29.982841 2.4721414 -4.7730065e-19)
(29.96147 2.7573949 -2.9244922e-20)
(29.91743 3.0167359 2.9123769e-20)
(29.848098 3.2620828 2.9521971e-20)
(29.754118 3.4766162 1.0311629e-24)
(29.635842 3.6617586 4.6979975e-19)
(29.494252 3.8149887 -4.388115e-19)
(29.330714 3.9341905 -4.6632087e-19)
(29.146731 4.0182199 4.6422445e-19)
(28.944239 4.0662979 0)
(28.725655 4.0784559 -2.869332e-20)
(28.49342 4.0557803 0)
(28.250673 3.9989432 -4.2334313e-19)
(28.000888 3.9101753 4.4650903e-19)
(27.747834 3.7911179 -4.6810867e-19)
(27.495791 3.6440473 4.6066115e-19)
(27.248871 3.4710923 0)
(27.011958 3.2755477 -4.1689833e-19)
(26.787412 3.0629469 -1.9745185e-23)
(26.579218 2.8330969 3.9784149e-19)
(26.391294 2.5908885 -3.6383429e-19)
(26.224709 2.3371919 -1.0835471e-23)
(26.080779 2.0762021 3.6902918e-19)
(25.959925 1.8097356 0)
(25.863098 1.5404933 3.0769916e-19)
(25.790014 1.2710161 -3.8683395e-19)
(25.741285 1.0034802 -4.2089786e-20)
(25.715882 0.7424589 -4.1282692e-20)
(25.70851 0.48630047 -2.4979278e-19)
(25.709808 0.2494449 1.5479227e-19)
(25.72854 0.061657085 3.4867966e-19)
(25.799166 -0.14578378 -3.0930576e-19)
(25.893246 -0.37014634 1.8838452e-26)
(25.989596 -0.5695496 -3.8115595e-20)
(26.097884 -0.74303971 3.7871961e-20)
(26.217442 -0.88976733 3.3941559e-19)
(26.347788 -1.0085075 7.3126921e-24)
(26.48773 -1.0977777 -3.0114261e-19)
(26.635715 -1.1559806 -3.7731151e-20)
(26.790046 -1.1815185 2.6528314e-19)
(26.948989 -1.1730178 -3.0508003e-19)
(27.110827 -1.1295414 0)
(27.273978 -1.0508758 -3.8803328e-20)
(27.437038 -0.93795968 -3.1368987e-19)
(27.598906 -0.79331506 3.5680944e-19)
(27.758595 -0.62160652 3.2072893e-19)
(27.91552 -0.43029622 -3.241015e-19)
(28.066503 -0.22975828 -3.2705284e-19)
(28.203517 -0.026190334 3.2914022e-19)
(28.330509 0.18173545 -8.249368e-20)
(28.459426 0.38259088 -4.1135769e-20)
(28.586324 0.55720731 3.261827e-19)
(28.708953 0.70786547 -4.0143802e-19)
(28.831834 0.82812856 3.1432124e-19)
(28.953566 0.91302452 7.660087e-20)
(29.074373 0.96515863 -2.9713355e-19)
(29.198542 0.98634521 7.1360941e-20)
(29.328839 0.97427609 6.8439736e-20)
(29.461412 0.93290556 6.561273e-20)
(29.601022 0.87106748 6.2721238e-20)
(29.747809 0.78311632 0)
(29.898013 0.67753504 0)
(30.055485 0.55911583 -5.4483824e-20)
(30.21947 0.42908408 -5.2007946e-20)
(30.389676 0.29201626 -4.9686246e-20)
(30.566558 0.15150653 0)
(30.750881 0.011001754 -4.5510924e-20)
(30.94344 -0.12709342 0)
(31.144757 -0.26038256 0)
(31.355431 -0.38708829 -4.0349407e-20)
(31.575933 -0.50565407 -1.5556454e-19)
(31.8068 -0.61482778 1.5018747e-19)
(32.048728 -0.71386763 -1.8155771e-19)
(32.302357 -0.80262301 1.0551738e-19)
(32.568101 -0.88137711 3.4125529e-20)
(32.846165 -0.95067965 2.1700691e-26)
(33.13656 -1.0112813 -3.2270605e-20)
(33.43907 -1.0640162 -1.2580473e-19)
(33.753349 -1.1096439 2.4555341e-19)
(34.079007 -1.1489003 -1.1998266e-19)
(34.415575 -1.1824749 0)
(34.762515 -1.2109514 0)
(35.119262 -1.234835 -5.6397998e-20)
(35.485239 -1.2545249 -8.5036324e-26)
(35.859862 -1.2703334 1.0878521e-19)
(36.242533 -1.2824942 5.160344e-24)
(36.632634 -1.2911719 -1.0522155e-19)
(37.029515 -1.2964635 -1.0358227e-19)
(37.432488 -1.2984152 1.0200727e-19)
(37.840802 -1.2970377 5.0251953e-20)
(38.253639 -1.2923212 1.4858844e-19)
(38.670106 -1.2842304 -9.7660028e-20)
(39.089211 -1.2727178 -9.6315603e-20)
(39.509891 -1.2577546 -4.7508273e-20)
(39.93099 -1.2393243 9.3739965e-20)
(40.351273 -1.2174257 -4.6255755e-20)
(40.769473 -1.1920973 -9.1318515e-20)
(41.184328 -1.1634337 4.5078241e-20)
(41.594592 -1.1315756 8.904314e-20)
(41.999038 -1.0967254 -1.3194436e-19)
(42.396459 -1.0591375 1.7385096e-19)
(42.785676 -1.0191457 -8.5923921e-20)
(43.165554 -0.97715099 8.496485e-20)
(43.535037 -0.9336235 -1.2606264e-19)
(43.893195 -0.88909596 -8.3160686e-20)
(44.239277 -0.8441527 -8.2318908e-20)
(44.572762 -0.79942954 -8.5996097e-25)
(44.893391 -0.75558315 1.6150081e-19)
(45.201194 -0.71328249 0)
(45.496489 -0.67318589 -3.0405914e-25)
(45.779877 -0.63591077 7.8679107e-20)
(46.052233 -0.60200917 0)
(46.314653 -0.57195332 7.7467819e-20)
(46.568455 -0.54608279 -1.538183e-19)
(46.815109 -0.52464082 7.6381145e-20)
(47.056193 -0.5076974 1.517696e-19)
(47.293377 -0.49519899 1.9517055e-25)
(47.528306 -0.48695672 7.4990104e-20)
(47.7626 -0.48261042 -7.4597159e-20)
(47.9978 -0.48169712 0)
(48.235276 -0.48361394 3.6968351e-20)
(48.476169 -0.48768776 -7.3676204e-20)
(48.721234 -0.49300646 -7.3472146e-20)
(48.971073 -0.49860149 -3.6668019e-20)
(49.225685 -0.50359499 3.6638724e-20)
(49.484399 -0.50684656 3.6650909e-20)
(49.746078 -0.50716463 -7.3398334e-20)
(50.008559 -0.5030293 7.3539374e-20)
(50.268418 -0.49289359 -3.6845653e-20)
(50.520619 -0.47405365 3.692345e-20)
(50.760935 -0.44201054 1.1106478e-19)
(50.984878 -0.39319112 3.7195551e-20)
(51.18833 -0.32498884 0)
(51.367986 -0.23817762 -7.6449287e-20)
(51.518633 -0.14110172 -7.8853353e-20)
(51.631909 -0.047706565 -4.1354842e-20)
(51.701558 0.029876778 -8.1915784e-20)
(51.731674 0.08017915 1.6381137e-20)
(51.74062 0.092075994 -1.0181975e-19)
(51.738234 0.075571964 5.3819277e-20)
(51.729879 0.050749677 0)
(51.723953 0.02984474 0)
(51.725964 0.013247443 0)
(51.738137 -0.0013229241 2.2698156e-19)
(51.759465 -0.013465987 0)
(51.780497 -0.020045322 0)
(51.804836 -0.021292087 2.213761e-19)
(51.830146 -0.019370659 0)
(51.855838 -0.016734521 2.4250796e-19)
(51.880788 -0.015195847 -2.6579519e-20)
(51.906396 -0.013488687 -2.6214568e-20)
(51.929357 -0.011134286 -2.0677549e-19)
(51.951497 -0.008237239 -1.61983e-25)
(51.971207 -0.0073785012 4.2722923e-19)
(51.986722 -0.0033693057 -1.9827351e-19)
(52.007164 -0.0050358255 0)
(52.020424 -0.0056982699 0)
(52.036732 -0.0067083087 1.7809362e-19)
(52.053371 -0.0043360422 1.9894212e-19)
(52.067058 -0.0036607977 -3.6324774e-19)
(52.079149 -0.0026754565 -5.6829207e-21)
(52.084513 0.00027127314 0)
(52.087457 -0.00015482455 0)
(27.127279 -0.68758264 1.5638941e-20)
(27.29528 -0.67743238 -4.9830305e-19)
(27.470063 -0.62752137 4.9645026e-19)
(27.648964 -0.53843574 -5.1020677e-19)
(27.82877 -0.41132393 3.0823232e-20)
(28.006793 -0.24744207 -1.5365023e-20)
(28.18081 -0.049292802 -1.531981e-20)
(28.347482 0.17869905 -3.3505623e-25)
(28.504845 0.43398845 -1.5229957e-20)
(28.64964 0.70950048 0)
(28.777889 1.0019458 1.5138147e-20)
(28.889983 1.3075631 0)
(28.981136 1.6158934 0)
(29.051587 1.930548 0)
(29.099923 2.2353116 -5.0788626e-19)
(29.122885 2.5361672 9.2276699e-19)
(29.122708 2.8254547 -4.6662315e-19)
(29.098382 3.0868909 -4.5751603e-19)
(29.051093 3.3279187 4.6290906e-19)
(28.978863 3.5456847 -2.9295478e-20)
(28.883857 3.7296606 0)
(28.766033 3.8810895 -2.9075487e-20)
(28.626689 3.9980042 0)
(28.46729 4.0792426 -4.6067885e-19)
(28.28988 4.1240379 8.8717779e-19)
(28.096854 4.1324587 -4.2623511e-19)
(27.890592 4.1057112 4.2270037e-19)
(27.674342 4.0442639 -4.7416409e-19)
(27.451575 3.9505385 2.7555688e-20)
(27.225904 3.8260035 -2.7160663e-20)
(27.001481 3.6729494 4.0063274e-19)
(26.782222 3.493621 -4.1922175e-19)
(26.572787 3.291727 -2.5653659e-20)
(26.374857 3.0727795 0)
(26.192503 2.8359704 0)
(26.029344 2.5871457 2.3888914e-20)
(25.885896 2.3270237 -3.7288741e-19)
(25.763404 2.0601551 3.6384186e-19)
(25.662172 1.7880616 0)
(25.583339 1.5136448 -3.0379049e-19)
(25.526615 1.2395622 3.1848007e-19)
(25.492554 0.96837451 3.5367543e-19)
(25.479519 0.70385068 -2.2493559e-19)
(25.479448 0.44680434 -3.1760139e-19)
(25.487345 0.21741446 -2.7911036e-20)
(25.521939 0.019412067 6.1785888e-19)
(25.60592 -0.19740789 -5.7627962e-19)
(25.702422 -0.42104296 2.6655726e-19)
(25.801388 -0.61795155 -3.7760418e-20)
(25.912083 -0.78936071 0)
(26.033046 -0.93387254 -3.7366782e-20)
(26.163838 -1.0500847 0)
(26.303334 -1.1364338 2.9838995e-19)
(26.450155 -1.1913022 -5.6074459e-19)
(26.602855 -1.2131226 3.0034053e-19)
(26.760011 -1.2005929 3.0219635e-19)
(26.920278 -1.15289 -3.045315e-19)
(27.0825 -1.0699664 -2.8985748e-25)
(27.245736 -0.9529765 -3.8798538e-20)
(27.409347 -0.80470177 2.744426e-19)
(27.572737 -0.63008198 -2.7726115e-19)
(27.735439 -0.43661437 -3.1987699e-19)
(27.894506 -0.23403423 3.2229768e-19)
(28.04363 -0.0285067 -3.64307e-19)
(28.187373 0.17949284 3.2399345e-19)
(28.334906 0.37783042 2.8216302e-19)
(28.481866 0.55034739 -6.7780488e-19)
(28.626797 0.69822963 3.9190098e-19)
(28.772735 0.8150986 3.8317255e-20)
(28.917734 0.89684839 -3.3591645e-19)
(29.061956 0.94569303 2.8847781e-19)
(29.208724 0.96348854 -6.934968e-20)
(29.359869 0.94796415 6.6726001e-20)
(29.511446 0.90411867 2.5547221e-19)
(29.668352 0.83945625 -5.4938741e-19)
(29.830198 0.74929575 2.3318503e-19)
(29.993795 0.64218045 0)
(30.162987 0.52218789 5.3149809e-20)
(30.336937 0.39102654 -1.5763168e-26)
(30.515712 0.25316532 4.8559786e-20)
(30.699893 0.11208496 1.8594761e-19)
(30.890351 -0.028865791 4.4562218e-20)
(31.087955 -0.16728659 -2.1386263e-19)
(31.293336 -0.30085403 1.6448417e-19)
(31.507186 -0.4277708 -3.1675489e-19)
(31.73008 -0.5465182 1.5273992e-19)
(31.962658 -0.65589254 -3.6885493e-20)
(32.205676 -0.7551972 0)
(32.459811 -0.84429591 1.3832338e-19)
(32.72552 -0.92346442 -2.0135452e-19)
(33.003049 -0.99323857 -3.2616949e-20)
(33.292448 -1.0543488 3.1746322e-20)
(33.593549 -1.1076044 0)
(33.906051 -1.1537494 0)
(34.229605 -1.1935082 0)
(34.563774 -1.2275546 0)
(34.908056 -1.2564605 1.131359e-19)
(35.26192 -1.2807227 -2.2186381e-19)
(35.624814 -1.3007332 -2.7223928e-20)
(35.996181 -1.3167991 -5.0909605e-24)
(36.375443 -1.3291488 2.1024858e-19)
(36.762001 -1.337942 -1.5509781e-19)
(37.155223 -1.3432713 0)
(37.554435 -1.3451784 -1.0019567e-19)
(37.958905 -1.3436693 9.8686904e-20)
(38.367828 -1.33873 0)
(38.780322 -1.330319 4.7923759e-20)
(39.195413 -1.3183853 0)
(39.612054 -1.3028955 -4.6597807e-20)
(40.029101 -1.2838273 1.8384603e-19)
(40.445339 -1.261177 -9.0687584e-20)
(40.859521 -1.234984 0)
(41.270402 -1.2053464 4.4164847e-20)
(41.676751 -1.1724087 0)
(42.077355 -1.1363794 0)
(42.47102 -1.0975212 8.5075738e-20)
(42.85658 -1.0561791 2.0013136e-24)
(43.232911 -1.012768 -8.3095131e-20)
(43.598967 -0.96777468 0)
(43.953831 -0.9217508 0)
(44.296757 -0.87530153 0)
(44.627233 -0.82908517 -3.9801278e-20)
(44.945006 -0.78378089 3.9412997e-20)
(45.250105 -0.7400804 3.9043778e-20)
(45.542847 -0.69866321 -7.738348e-20)
(45.823823 -0.66016689 4.1148223e-25)
(46.093897 -0.62516055 -7.6079866e-20)
(46.354147 -0.59412993 -7.5476743e-20)
(46.605869 -0.56742494 0)
(46.850508 -0.54529329 0)
(47.08961 -0.52780651 -1.477066e-19)
(47.324813 -0.51490715 7.337532e-20)
(47.557729 -0.50639632 0)
(47.789943 -0.5019018 7.2524263e-20)
(48.02296 -0.50094242 0)
(48.258112 -0.50289252 -7.1834579e-20)
(48.49651 -0.50704739 0)
(48.738887 -0.51247076 1.4267854e-19)
(48.985816 -0.51816507 -3.5592942e-20)
(49.237276 -0.52320851 3.5554084e-20)
(49.492589 -0.52641604 0)
(49.750597 -0.52654738 -3.5590512e-20)
(50.00915 -0.52200049 -3.5647487e-20)
(50.264874 -0.5111176 0)
(50.512883 -0.49115526 0)
(50.749109 -0.45764027 -1.6737081e-25)
(50.96934 -0.40704086 7.2072759e-20)
(51.169735 -0.33684156 -3.6380451e-20)
(51.347319 -0.24786929 3.7052847e-20)
(51.497325 -0.14837905 7.6492324e-20)
(51.611655 -0.052297651 8.0339198e-20)
(51.683984 0.027829476 -1.3861177e-26)
(51.718262 0.079719296 0)
(51.730979 0.092273889 0)
(51.730475 0.076088729 0)
(51.724815 0.0514455 1.6619257e-19)
(51.7208 0.029962915 -5.6303411e-20)
(51.724266 0.012750591 2.236825e-19)
(51.73884 -0.0024380779 -2.2477739e-19)
(51.759791 -0.014727607 0)
(51.780708 -0.021267455 0)
(51.804981 -0.022506748 -2.1944819e-19)
(51.830256 -0.020488771 0)
(51.855947 -0.017736811 -6.2847236e-27)
(51.880863 -0.016121183 -2.1091463e-19)
(51.906432 -0.014304781 -2.0805875e-19)
(51.929377 -0.011833388 2.0518133e-19)
(51.951529 -0.0088261588 0)
(51.971211 -0.00779198 -1.7462924e-19)
(51.986826 -0.0037922347 1.7225298e-19)
(52.007203 -0.0054198349 0)
(52.020546 -0.0059737561 2.0333099e-19)
(52.036646 -0.0070886069 -1.8863561e-19)
(52.053292 -0.0046646045 3.6594349e-25)
(52.066869 -0.0039164524 1.7183187e-19)
(52.078921 -0.002802149 -5.6466245e-21)
(52.084291 0.00020848319 1.8361945e-19)
(52.087339 -0.0002244439 -1.7398367e-19)
(26.012933 -0.74995638 -5.0117539e-19)
(26.196524 -0.73141127 1.560073e-20)
(26.386282 -0.67251361 -1.5544151e-20)
(26.579667 -0.57393709 4.9571813e-19)
(26.773826 -0.43690951 -5.2497243e-19)
(26.966325 -0.2630347 5.2331157e-19)
(27.154837 -0.055251026 1.536011e-20)
(27.336429 0.18244776 -4.7408011e-19)
(27.509077 0.44660522 -4.7254452e-19)
(27.669463 0.73079706 5.0129516e-19)
(27.814568 1.0315862 -4.8442792e-19)
(27.943821 1.3439031 -1.5123507e-20)
(28.053223 1.6597405 9.7664926e-19)
(28.142859 1.9792114 -9.5784543e-19)
(28.210666 2.2896476 4.6205102e-19)
(28.254518 2.5945343 4.4530658e-20)
(28.276992 2.8818772 -1.4780751e-20)
(28.275195 3.1498577 -2.943195e-20)
(28.248859 3.3952803 -2.8830164e-20)
(28.201797 3.6055688 0)
(28.13051 3.7921447 0)
(28.037768 3.9420504 0)
(27.923935 4.0569526 4.597114e-19)
(27.79039 4.1356581 -9.1383947e-19)
(27.639383 4.1774305 4.8212896e-19)
(27.47321 4.1823123 0)
(27.294162 4.1516383 -3.9024373e-19)
(27.105633 4.0856063 4.4099885e-19)
(26.911029 3.986941 3.8087313e-19)
(26.713715 3.8569011 -4.0184218e-19)
(26.517721 3.6978381 -3.9489063e-19)
(26.32676 3.5121681 4.1300216e-19)
(26.145226 3.3040435 2.526616e-20)
(25.974096 3.0788849 3.951461e-19)
(25.817681 2.8352324 -3.8585769e-19)
(25.679265 2.5801111 0)
(25.558835 2.313908 -3.446346e-19)
(25.457637 2.0415218 3.588973e-19)
(25.375899 1.764109 0)
(25.315007 1.4848556 2.1430394e-20)
(25.274712 1.2066443 3.357015e-19)
(25.255057 0.93198148 2.0572425e-20)
(25.252491 0.66344348 1.9628877e-24)
(25.260205 0.41123415 -1.7809893e-19)
(25.278398 0.18002309 3.0930423e-19)
(25.330622 -0.02600925 -3.072535e-19)
(25.424287 -0.24899241 0)
(25.522964 -0.47105473 -3.3931294e-19)
(25.625353 -0.66568523 2.9909515e-19)
(25.738824 -0.83509512 2.6006938e-19)
(25.861548 -0.97737959 -2.9597109e-19)
(25.993166 -1.0910461 0)
(26.132638 -1.1744808 2.9538739e-19)
(26.278774 -1.2260674 -2.9600938e-19)
(26.430389 -1.2442848 0)
(26.586374 -1.2279154 -2.989935e-19)
(26.74576 -1.1762601 3.7639725e-20)
(26.907812 -1.0894425 6.4565969e-19)
(27.072044 -0.96882894 3.8355589e-20)
(27.238256 -0.81743862 -6.1946503e-19)
(27.406211 -0.64042505 2.7356488e-19)
(27.57559 -0.44526518 0)
(27.743791 -0.24123494 0)
(27.905973 -0.034518911 -2.7840242e-19)
(28.066741 0.17290255 -1.564974e-23)
(28.23285 0.36861053 3.1564147e-19)
(28.399769 0.53883728 7.7917686e-20)
(28.566337 0.68384882 -3.0592687e-19)
(28.734296 0.79745238 2.9888736e-19)
(28.90142 0.87612923 -3.628532e-20)
(29.067556 0.92216156 0)
(29.235351 0.93658529 3.3816352e-20)
(29.405618 0.91830409 -6.4925272e-20)
(29.574687 0.87233827 -3.4191938e-19)
(29.747408 0.80525136 5.3507683e-19)
(29.922986 0.71333349 -2.2727757e-19)
(30.098861 0.60500705 0)
(30.278739 0.48378321 -1.5567915e-19)
(30.461788 0.35178687 1.9850206e-19)
(30.648389 0.21336494 4.7498493e-20)
(30.839223 0.071903807 1.8204623e-19)
(31.035254 -0.069334978 -1.7464374e-19)
(31.237418 -0.20796168 4.1943912e-20)
(31.446446 -0.34169881 -1.614121e-19)
(31.663112 -0.46875205 1.1663749e-19)
(31.888087 -0.58763051 0)
(32.122098 -0.69717451 3.625785e-20)
(32.365954 -0.79672464 -1.4037622e-19)
(32.620366 -0.88615353 1.3606612e-19)
(32.885828 -0.96572698 3.3021588e-20)
(33.162625 -1.0359652 -1.6050468e-19)
(33.450847 -1.0975775 1.2498868e-19)
(33.750368 -1.1513483 0)
(34.060933 -1.1980062 -2.9727065e-20)
(34.382231 -1.2382634 -2.9049419e-20)
(34.713855 -1.2727777 0)
(35.055341 -1.3021098 0)
(35.406187 -1.3267476 0)
(35.765872 -1.3470759 -2.6779524e-20)
(36.133859 -1.3633965 1.0520107e-19)
(36.509593 -1.3759324 -1.0338435e-19)
(36.892495 -1.3848388 5.0834603e-20)
(37.281949 -1.3902034 0)
(37.677299 -1.3920639 -9.8472475e-20)
(38.077826 -1.3904218 -9.6973279e-20)
(38.482742 -1.3852582 9.5520802e-20)
(38.891178 -1.3765264 -4.7064122e-20)
(39.302177 -1.3641719 0)
(39.714706 -1.3481559 9.1473052e-20)
(40.127636 -1.3284505 -4.5096294e-20)
(40.53977 -1.3050497 3.7599663e-24)
(40.949881 -1.2779937 -1.3164281e-19)
(41.356742 -1.247383 -8.6598866e-20)
(41.759137 -1.213366 4.2733174e-20)
(42.155863 -1.176157 1.2656834e-19)
(42.545743 -1.1360272 -1.2498587e-19)
(42.927619 -1.0933329 -4.1154059e-20)
(43.300382 -1.0485031 0)
(43.662994 -1.0020413 0)
(44.014548 -0.95451821 0)
(44.354306 -0.90655973 0)
(44.681762 -0.85884651 1.1669275e-19)
(44.996667 -0.81208002 -3.8502742e-20)
(45.299051 -0.76697453 -3.8127347e-20)
(45.589228 -0.72423061 0)
(45.867779 -0.68450587 3.7429403e-20)
(46.135555 -0.64838654 0)
(46.39362 -0.61637191 -1.2593971e-25)
(46.643244 -0.5888223 7.3010042e-20)
(46.885847 -0.56598999 0)
(47.122948 -0.54794814 -1.7115675e-26)
(47.356151 -0.53463537 3.5721038e-20)
(47.587034 -0.52584288 0)
(47.81715 -0.5211863 -3.5282708e-20)
(48.047967 -0.52016603 -3.509262e-20)
(48.280783 -0.52213361 3.4924516e-20)
(48.516679 -0.52635316 2.1781383e-25)
(48.756368 -0.53186439 -3.4661913e-20)
(49.000391 -0.53764029 6.9153753e-20)
(49.248712 -0.5427159 0)
(49.500648 -0.54586161 3.4519122e-20)
(49.75502 -0.5457888 3.4542705e-20)
(50.009696 -0.54081358 1.0376151e-19)
(50.261358 -0.52917488 -3.4639572e-20)
(50.505271 -0.50809468 -6.939431e-20)
(50.737526 -0.47313028 -1.391245e-19)
(50.954171 -0.42079422 -6.988875e-20)
(51.151625 -0.34866105 0)
(51.327208 -0.2576099 0)
(51.476566 -0.15579689 3.7137292e-20)
(51.591865 -0.057115974 -1.1717066e-19)
(51.666753 0.025487871 -1.6300259e-20)
(51.704981 0.078973065 4.000953e-21)
(51.721389 0.092542231 9.8707688e-20)
(51.723058 0.076239778 1.0457864e-19)
(51.719537 0.052023816 -1.0913214e-19)
(51.717597 0.029945612 0)
(51.722658 0.0123003 -2.2250831e-19)
(51.739718 -0.0036569565 1.6776277e-19)
(51.760032 -0.015901377 1.6710907e-19)
(51.780898 -0.022425586 2.7534565e-20)
(51.805129 -0.02367142 4.065205e-25)
(51.830379 -0.021572222 2.7215436e-25)
(51.856073 -0.018716317 -2.3853234e-19)
(51.880953 -0.0170317 0)
(51.906482 -0.015112168 2.322562e-19)
(51.929408 -0.012527787 9.9940234e-26)
(51.951577 -0.0094101923 -2.5114973e-20)
(51.971215 -0.0081976417 0)
(51.986968 -0.0042106773 -1.9546181e-19)
(52.007229 -0.005787313 0)
(52.020666 -0.0062300997 -3.9203832e-19)
(52.036562 -0.0074499758 1.171214e-20)
(52.053221 -0.0049813338 0)
(52.066684 -0.0041636309 0)
(52.078695 -0.0029262597 2.8063051e-21)
(52.08407 0.00014058283 -1.7701507e-19)
(52.087226 -0.00030544694 1.7031254e-19)
(24.690976 -0.80420942 -4.8827832e-19)
(24.88232 -0.81796777 4.863456e-19)
(25.081439 -0.79096898 -1.5629107e-20)
(25.28621 -0.72308512 -4.9834279e-19)
(25.494306 -0.61508779 4.966101e-19)
(25.703187 -0.46833436 5.1039933e-19)
(25.910611 -0.28475042 -1.539863e-20)
(26.114261 -0.067489627 1.8896886e-23)
(26.311516 0.17955346 -4.8979168e-19)
(26.500266 0.45234629 -1.5249895e-20)
(26.677346 0.74498118 4.4876421e-25)
(26.840292 1.0536704 -4.8422564e-19)
(26.987869 1.3727151 4.8218023e-19)
(27.116772 1.6954989 -1.5003656e-20)
(27.22669 2.0198097 1.4937269e-20)
(27.315425 2.3358281 1.4868035e-20)
(27.381713 2.6439516 4.5876986e-19)
(27.427069 2.93429 -4.7122166e-19)
(27.44918 3.2026661 0)
(27.447896 3.4483279 -4.6659825e-19)
(27.423808 3.6641232 8.9939298e-19)
(27.379474 3.8436242 -4.2556546e-19)
(27.312265 3.9952705 4.5860136e-19)
(27.225177 4.1083642 5.9071593e-23)
(27.118697 4.1846808 -4.2474859e-19)
(26.995377 4.2235893 0)
(26.857282 4.2251079 0)
(26.706579 4.1906488 -2.7565413e-20)
(26.546891 4.1201014 0)
(26.38146 4.0166332 2.6855562e-20)
(26.213322 3.8812129 -4.2285257e-19)
(26.046416 3.7162925 3.8926914e-19)
(25.884256 3.5245125 2.5437632e-20)
(25.730904 3.3104873 0)
(25.586655 3.0794325 3.8933992e-19)
(25.456233 2.8292077 1.3814192e-23)
(25.342517 2.5682732 -3.7130897e-19)
(25.244985 2.2964552 -4.5321899e-20)
(25.164945 2.0189962 0)
(25.102631 1.7366532 0)
(25.059725 1.4530559 -2.1170701e-20)
(25.035858 1.1712372 4.1473037e-20)
(25.02965 0.89309193 -3.2539043e-19)
(25.036269 0.62466371 3.1604007e-19)
(25.053304 0.37415977 0)
(25.086868 0.13880779 -1.9286054e-20)
(25.155263 -0.074598642 3.0504705e-19)
(25.25541 -0.301171 -6.031111e-19)
(25.357077 -0.52113292 3.7302262e-20)
(25.463602 -0.71359688 3.1445206e-19)
(25.580234 -0.88096636 3.6759511e-20)
(25.705126 -1.0209407 3.6601461e-20)
(25.838004 -1.1319918 2.5564946e-19)
(25.977932 -1.2124762 -2.9212774e-19)
(26.123924 -1.2607979 -3.2928615e-19)
(26.275058 -1.2754961 6.2437349e-19)
(26.43054 -1.2554496 -2.9546431e-19)
(26.589772 -1.2000933 2.6037867e-19)
(26.752431 -1.1097267 1.3954611e-23)
(26.918468 -0.98592263 -3.0269347e-19)
(27.088087 -0.8319157 -3.8180809e-20)
(27.261381 -0.65302547 0)
(27.438202 -0.45667991 -2.7147459e-19)
(27.616345 -0.25178723 5.8452378e-19)
(27.792135 -0.044584751 -3.1219408e-19)
(27.969834 0.16166581 0)
(28.154149 0.35460101 3.086899e-19)
(28.34048 0.52239391 -3.4235682e-19)
(28.527656 0.664496 0)
(28.716355 0.77491504 -2.9081241e-19)
(28.904205 0.85097027 3.1757874e-19)
(29.090622 0.89420157 0)
(29.277821 0.90575203 -8.416768e-26)
(29.465455 0.88519246 2.8442461e-19)
(29.650528 0.83746647 -2.422035e-19)
(29.837632 0.76837371 -5.7947358e-20)
(30.025698 0.67511696 -2.2169926e-19)
(30.212779 0.56587515 2.1202355e-19)
(30.402372 0.44372963 -5.4631075e-27)
(30.593708 0.31116722 1.941489e-19)
(30.787433 0.1724004 -4.6498143e-19)
(30.98431 0.030737627 1.7836398e-19)
(31.185383 -0.11063764 -4.2813735e-20)
(31.391649 -0.24934871 -1.6464441e-19)
(31.603927 -0.38314782 1.5850296e-19)
(31.823067 -0.51025528 8.5862334e-27)
(32.049822 -0.62920373 0)
(32.284998 -0.73887281 -1.0698905e-19)
(32.529448 -0.83863368 1.3811973e-19)
(32.783913 -0.92836379 0)
(33.048921 -1.0083172 -3.2510093e-20)
(33.324795 -1.0789974 6.3218162e-20)
(33.611663 -1.1410915 0)
(33.909438 -1.1953597 -2.9998007e-20)
(34.217909 -1.2425149 1.4639447e-19)
(34.536799 -1.283256 -1.1443809e-19)
(34.865737 -1.318225 0)
(35.20429 -1.3479715 1.0964172e-19)
(35.551989 -1.3729741 -2.149509e-19)
(35.908338 -1.3936106 7.9083094e-20)
(36.272824 -1.4101769 1.2942615e-19)
(36.644915 -1.4228908 -1.0173329e-19)
(37.024049 -1.4319026 2.5006081e-20)
(37.40963 -1.4372957 9.8396296e-20)
(37.801016 -1.4391031 -1.2104008e-19)
(38.197506 -1.4373219 2.3833757e-20)
(38.598324 -1.4319281 0)
(39.002619 -1.4228707 4.6248485e-20)
(39.409451 -1.4100903 1.3672419e-19)
(39.817797 -1.3935429 4.4923675e-20)
(40.226546 -1.3731954 -4.4281654e-20)
(40.63452 -1.3490396 8.7331281e-20)
(41.040511 -1.3211159 -4.3060858e-20)
(41.443307 -1.2895275 4.2477967e-20)
(41.841708 -1.2544262 4.1911651e-20)
(42.234523 -1.2160322 -4.1363415e-20)
(42.620588 -1.1746256 0)