/*--------------------------------*- C++ -*----------------------------------*\
| =========                 |                                                 |
| \\      /  F ield         | OpenFOAM: The Open Source CFD Toolbox           |
|  \\    /   O peration     | Version:  2406                                  |
|   \\  /    A nd           | Website:  www.openfoam.com                      |
|    \\/     M anipulation  |                                                 |
\*---------------------------------------------------------------------------*/
FoamFile
{
    version     2.0;
    format      ascii;
    arch        "LSB;label=32;scalar=64";
    class       volScalarField;
    location    "0.001";
    object      p;
}
// * * * * * * * * * * * * * * * * * * * * * * * * * * * * * * * * * * * * * //

dimensions      [1 -1 -2 0 0 0 0];

internalField   nonuniform List<scalar> 
35803
(
101423.73
101330.69
101270.72
101195.62
101118.87
101051.02
100996.65
100958.93
100938.86
100934.53
100945.46
100977.92
101027.82
101096.23
101172.6
101256.61
101367.63
101425.21
101456.37
101492.08
101519.88
101545.32
101565.46
101581.07
101590.75
101598.06
101603.88
101605.45
101615.41
101608.88
101586.55
101581.61
101505.4
101425.5
101335.49
101248.37
101170.83
101106.42
101058.61
101029.08
101015.54
101015.75
101037.83
101078.82
101138.15
101207.88
101281.08
101379.09
101431.97
101464.11
101498.05
101524.37
101548.66
101567.96
101582.96
101592.16
101599.21
101604.74
101606.51
101616.37
101609.82
101592.22
101680.78
101616.28
101532.92
101438.37
101347.18
101264.68
101193.84
101138.85
101102.62
101080.59
101069.97
101083.24
101117.05
101169.65
101236.24
101306.74
101393.14
101441.37
101474.06
101505.27
101529.79
101552.67
101570.94
101585.2
101593.84
101600.57
101605.67
101607.61
101617.49
101610.95
101598.05
101776.22
101714.26
101631.44
101535.23
101440.99
101354.27
101277.77
101215.24
101169.66
101139.09
101122.12
101128
101154.98
101201.26
101264.78
101332.69
101411.19
101452.93
101485.73
101513.55
101536.04
101557.29
101574.38
101587.79
101595.77
101602.12
101606.73
101608.79
101618.76
101612.35
101603.88
101866.17
101806.68
101726.67
101631.41
101536.03
101446.52
101365.57
101296.51
101242.41
101203.8
101180.78
101179.26
101199.06
101238.57
101297.93
101360.73
101432.51
101466.78
101499.15
101523.08
101543.26
101562.62
101578.37
101590.77
101598.01
101603.9
101607.99
101610.07
101620.19
101614.06
101609.66
101942.42
101886.23
101811.18
101720.13
101626.81
101537.27
101454.25
101380.92
101320.53
101275.02
101245.73
101236.89
101249.37
101281.9
101336.32
101392.79
101456.28
101483.78
101514.4
101534.03
101551.57
101568.77
101582.98
101594.21
101600.59
101605.94
101609.47
101611.46
101621.82
101616.01
101615.33
102004.52
101949.58
101880.02
101796.46
101708.91
101622.63
101540.48
101465.62
101401.44
101350.74
101315.83
101300.26
101305.64
101331.29
101380.25
101429.88
101482.52
101504.83
101531.55
101546.62
101561.14
101575.86
101588.3
101598.18
101603.58
101608.28
101611.24
101612.98
101623.75
101618.17
101620.88
102051.57
101998.46
101935.21
101860.82
101781.33
101700.97
101622.49
101548.89
101483.57
101429.8
101390.58
101369.3
101368.15
101387.28
101430.42
101472.29
101511.48
101530.41
101550.76
101561.04
101572.14
101584.04
101594.46
101602.75
101607.03
101610.98
101613.36
101614.7
101626.05
101620.66
101626.31
102084.43
102036.67
101981.09
101915.7
101844.88
101772.02
101699.4
101629.6
101565.78
101511.29
101469.52
101443.95
101437.23
101450.54
101487.62
101520.02
101544.03
101560.43
101572.39
101577.5
101584.72
101593.48
101601.59
101608.03
101611.04
101614.14
101615.94
101616.75
101628.71
101623.51
101631.62
102109.76
102066.16
102017.53
101961.14
101899.79
101835.84
101770.93
101707.17
101647.29
101594.49
101552.24
101524.11
101513.2
101521.73
101552.33
101572.64
101582.64
101594.14
101596.84
101596.22
101599.04
101604.36
101609.85
101614.15
101615.73
101617.85
101619.11
101619.29
101631.7
101626.69
101636.83
102128.12
102090.43
102047.29
101998.66
101947.21
101893.56
101838.03
101782.14
101728.27
101679.33
101638.67
101609.92
101596.58
101601.59
101624.07
101629.5
101628.88
101630.48
101624.28
101617.43
101615.27
101616.83
101619.41
101621.25
101621.23
101622.23
101622.96
101622.54
101634.97
101630.25
101641.95
102132
102117.14
102085.36
102042.22
101997.29
101952.14
101905.31
101857.51
101810.57
101766.93
101729.59
101702.19
101688.5
101690.89
101700.97
101692.06
101680.79
101668.72
101654.44
101641.24
101633.6
101630.97
101630.39
101629.49
101627.67
101627.38
101627.56
101626.6
101638.51
101634.25
101647.01
102148.88
102135.1
102113.55
102087.34
102054.41
102016.67
101977.08
101936.81
101897.05
101859.65
101827.28
101803.36
101791.12
101789.72
101781.09
101759.91
101734.5
101708.84
101686.85
101667.58
101654.28
101646.81
101642.89
101638.99
101635.13
101633.33
101632.82
101631.49
101642.4
101638.78
101652.05
102186.75
102177.17
102157.01
102131.36
102105.96
102079.28
102050.74
102020.65
101990.18
101961.29
101936.47
101917.72
101904.5
101889.72
101861.68
101824.78
101786.26
101751.06
101721.13
101696.2
101677.37
101664.44
101656.89
101649.8
101643.59
101640.11
101638.67
101637.2
101646.91
101643.86
101657.12
102235.53
102233.52
102223.36
102203.38
102180.61
102161
102142.21
102121.51
102099.18
102076.66
102055.07
102033.78
102009.16
101974.9
101930.13
101882.3
101835.89
101793.54
101757.09
101726.63
101702.51
101684.17
101672.31
101661.86
101652.97
101647.72
101645.21
101643.75
101652.34
101649.46
101662.19
102337.91
102344.06
102344.03
102332.69
102311.59
102285.9
102259.27
102233.82
102208.55
102182.08
102152.25
102117.46
102076.99
102032
101983.19
101932.13
101881.86
101835.14
101793.71
101758.19
101729.12
101706.04
101689.14
101675.05
101663.21
101656.22
101652.7
101651.22
101658.78
101655.44
101667.17
102363.67
102357.31
102348.35
102340.63
102335.54
102329.93
102322.57
102306.56
102279.5
102247.46
102212.11
102170.91
102123.06
102072.82
102022.8
101972.49
101921.9
101873.56
101829.25
101789.98
101756.97
101729.17
101707.41
101689.25
101674.36
101665.77
101661.4
101659.68
101666.12
101661.59
101671.71
102368.09
102361.52
102353
102342.24
102329.23
102313.56
102295.39
102278.92
102264.25
102247.11
102227.08
102198.49
102157.35
102108.03
102054.96
102003.67
101954.36
101906.6
101861.87
101820.99
101784.59
101752.78
101726.77
101704.36
101686.54
101676.51
101671.32
101669.06
101674.14
101667.87
101675.25
102348.96
102343.16
102336.05
102327.59
102317.6
102305.8
102291.93
102276.42
102259.32
102238.49
102211.87
102184.78
102161.52
102129.77
102083.46
102030.92
101980.33
101934.06
101890.82
101849.26
101810.72
101776.25
101746.38
101719.92
101699.86
101688.51
101682.33
101679.36
101682.92
101674.35
101674.67
102310.9
102305.89
102299.84
102292.81
102284.66
102275.22
102264.28
102251.61
102236.85
102219.68
102199.84
102176.26
102147.02
102118.07
102089.79
102049.3
102003.36
101958.22
101915.92
101874.39
101834.62
101798.08
101765.06
101735.56
101714.08
101701.46
101694.46
101690.78
101692.7
101681
101675.15
102268.13
102264.04
102259.1
102253.36
102246.69
102238.92
102229.84
102219.22
102206.78
102192.21
102175.14
102155.33
102132.98
102105.8
102074.68
102048.73
102018.72
101978.39
101936.21
101895.59
101855.53
101817.6
101782.09
101750.62
101728.13
101715.03
101707.66
101703.42
101703.08
101688.7
101674.81
102222.61
102219.35
102215.43
102210.89
102205.63
102199.51
102192.37
102184.04
102174.31
102162.98
102149.8
102134.52
102116.88
102097.25
102076.73
102049.43
102016.03
101984.21
101947.94
101910.23
101871.88
101833.47
101796.18
101764.03
101741.6
101728.71
101721.33
101716.48
101712.93
101695.92
101679.71
102184.37
102181.8
102178.72
102175.16
102171.02
102166.19
102160.55
102153.95
102146.23
102137.18
102126.59
102114.23
102099.92
102083.3
102064.17
102044.31
102020.26
101987.83
101953.04
101917.48
101881.03
101843.36
101806.45
101775.41
101753.99
101741.8
101734.58
101728.86
101722.4
101699.34
101688.25
102148.2
102146.09
102143.56
102140.63
102137.23
102133.26
102128.61
102123.15
102116.76
102109.26
102100.47
102090.18
102078.14
102064.05
102047.62
102028.34
102008.74
101987.29
101956.01
101920.69
101884.46
101848.55
101814.48
101785.68
101765.24
101753.97
101747.35
101740.82
101734.02
101708.4
101688.7
102107.95
102106.24
102104.19
102101.83
102099.09
102095.87
102092.09
102087.63
102082.38
102076.19
102068.9
102060.34
102050.31
102038.58
102024.9
102008.98
101989.77
101968.7
101947.17
101920.42
101889.15
101856.93
101824.97
101797.64
101777.25
101766.25
101760.8
101754.43
101747.88
101728.55
101700.88
102071.5
102069.95
102068.1
102065.96
102063.45
102060.49
102057.01
102052.92
102048.13
102042.55
102036.09
102028.67
102020.21
102010.65
101999.75
101987.06
101971.95
101953.73
101932.53
101911.31
101890.12
101865.47
101837.93
101812.8
101792.72
101780.5
101774.84
101767.88
101759.7
101744.13
101699.82
102035.97
102034.47
102032.66
102030.54
102028.04
102025.12
102021.72
102017.75
102013.13
102007.73
102001.51
101994.56
101987.23
101979.73
101971.82
101962.91
101952.25
101939.04
101923.04
101904.52
101883.16
101862.04
101846.2
101829.71
101813.2
101800.5
101791.82
101777.54
101760.97
101739.72
101703.86
101996.71
101995.36
101993.98
101992.57
101991.1
101989.53
101987.81
101985.83
101983.49
101980.61
101977.11
101973.04
101968.55
101963.54
101957.63
101950.31
101941.02
101929.75
101916.83
101902.38
101887.2
101873.24
101859.33
101846.31
101837.18
101827.56
101812.63
101786.76
101755.21
101726.91
101706.28
102003.19
102002.54
102001.84
102001.06
102000.18
101999.17
101997.99
101996.58
101994.87
101992.79
101990.29
101987.31
101983.77
101978.81
101972.81
101966.81
101959.68
101950.96
101940.3
101927.04
101911.71
101897.01
101884.33
101871.71
101860.23
101848.21
101828.25
101797.44
101765.01
101727.93
101723.16
102065.91
102064.76
102063.41
102061.83
102060.02
102057.95
102055.62
102052.99
102050.05
102046.76
102043.1
102039.02
102034.46
102030.34
102025.67
102018.78
102011.29
102002.6
101992.12
101979.91
101966.28
101951.69
101936.49
101920.01
101903.69
101888.31
101869.9
101834.69
101809.66
101787.16
101801.76
102085.82
102083.89
102082.04
102080.28
102078.57
102076.88
102075.15
102073.33
102071.29
102068.91
102066.02
102062.41
102057.93
102052.58
102048.23
102045.19
102041.49
102036.99
102031.94
102026.45
102020.25
102012.49
102002.15
101988.64
101970.27
101954.9
101957.84
101981.75
102006.1
102046.3
102028.77
99955.634
99951.882
99968.407
99985.602
100002.63
100025.86
100058.49
100102.31
100159.72
100231.64
100317.41
100416.2
100524.9
100643.18
100765.07
100891.9
101018.91
101135.95
101244.94
101300.8
101368.9
101424.76
101471.6
101506.94
101533.29
101552.08
101562.49
101567.94
101569.67
101562.77
101536.22
99980.942
99986.159
99993.577
100003.38
100016
100037.6
100070.8
100116.67
100176.57
100250.86
100338.52
100438.66
100547.92
100665.95
100786.08
100910.29
101030.14
101147.47
101246.46
101301.36
101371.59
101427.24
101473.57
101508.45
101534.41
101552.9
101563.09
101568.4
101570.05
101563.27
101534.86
99976.899
99976.093
99981.625
99992.638
100008.76
100033.72
100069.92
100118.76
100181.53
100258.33
100347.97
100449.51
100559.48
100677.71
100797.16
100921
101037.64
101157.15
101249.85
101304.19
101375.01
101429.98
101475.67
101510.03
101535.57
101553.74
101563.7
101568.86
101570.47
101563.77
101533.24
99968.913
99966.88
99971.801
99982.963
100000.37
100027.15
100065.56
100116.92
100182.35
100261.47
100353.09
100456.12
100567.04
100685.84
100805.18
100929.4
101045.4
101165.87
101253.25
101308.07
101378.52
101432.71
101477.76
101511.6
101536.72
101554.58
101564.32
101569.32
101570.93
101564.29
101531.69
99956.363
99953.794
99958.773
99970.944
99990.287
100019.49
100060.64
100114.92
100183.24
100264.84
100358.58
100463.21
100575.17
100694.57
100813.8
100938.28
101054.44
101173.63
101256.37
101312.27
101382.01
101435.43
101479.84
101513.18
101537.89
101555.44
101564.95
101569.84
101571.42
101564.83
101530.02
99939.775
99937.656
99943.527
99957.32
99979.061
100011.15
100055.47
100113.08
100184.47
100268.71
100364.64
100470.84
100583.79
100703.68
100822.73
100947.44
101063.66
101180.19
101259.74
101316.56
101385.48
101438.14
101481.91
101514.75
101539.05
101556.3
101565.58
101570.46
101571.95
101565.38
101528.33
99919.643
99918.52
99925.857
99941.85
99966.516
100001.99
100049.89
100111.12
100185.7
100272.69
100370.82
100478.55
100592.42
100712.75
100831.6
100956.57
101072.68
101186.28
101263.54
101320.78
101388.94
101440.84
101483.98
101516.32
101540.22
101557.16
101566.23
101571.21
101572.53
101565.95
101526.67
99895.918
99896.31
99905.765
99924.613
99952.773
99992.113
100043.97
100109.03
100186.92
100276.73
100377.05
100486.27
100601.03
100721.74
100840.38
100965.56
101081.48
101192.52
101267.32
101324.9
101392.38
101443.52
101486.04
101517.89
101541.39
101558.04
101566.89
101572
101573.15
101566.52
101525.07
99868.545
99871.043
99883.351
99905.756
99938.003
99981.671
100037.86
100106.9
100188.22
100280.91
100383.39
100494.06
100609.66
100730.7
100849.1
100974.27
101089.86
101199.15
101270.67
101329
101395.81
101446.19
101488.1
101519.47
101542.56
101558.91
101567.56
101572.8
101573.81
101567.1
101523.57
99837.434
99842.784
99858.765
99885.461
99922.395
99970.837
100031.67
100104.83
100189.7
100285.26
100389.87
100501.93
100618.34
100739.65
100857.76
100982.87
101098.13
101206.09
101273.55
101333.15
101399.21
101448.86
101490.14
101521.03
101543.73
101559.8
101568.24
101573.59
101574.52
101567.69
101522.31
99802.634
99811.704
99832.232
99863.967
99906.168
99959.805
100025.51
100102.92
100191.41
100289.84
100396.51
100509.91
100627.06
100748.57
100866.34
100991.51
101106.68
101213.06
101276.27
101337.38
101402.58
101451.51
101492.18
101522.6
101544.91
101560.69
101568.92
101574.37
101575.26
101568.29
101521.12
99764.3
99778.073
99804.059
99841.568
99889.571
99948.779
100019.52
100101.31
100193.43
100294.66
100403.34
100518
100635.82
100757.46
100874.85
101000.33
101115.15
101219.48
101279.16
101341.68
101405.92
101454.15
101494.21
101524.17
101546.09
101561.59
101569.62
101575.16
101576.05
101568.91
101520.12
99722.759
99742.297
99774.647
99818.616
99872.889
99937.96
100013.87
100100.09
100195.81
100299.78
100410.37
100526.21
100644.64
100766.32
100883.32
101008.9
101123.21
101225.05
101282.45
101346.03
101409.24
101456.79
101496.24
101525.73
101547.27
101562.5
101570.32
101575.96
101576.88
101569.57
101519.4
99678.584
99704.946
99744.497
99795.513
99856.433
99927.554
100008.72
100099.37
100198.62
100305.23
100417.63
100534.55
100653.52
100775.17
100891.86
101017.08
101130.84
101229.83
101286.32
101350.41
101412.53
101459.41
101498.25
101527.3
101548.45
101563.41
101571.03
101576.76
101577.75
101570.35
101518.92
99632.602
99666.752
99714.197
99772.7
99840.525
99917.783
100004.24
100099.24
100201.92
100311.04
100425.13
100543.04
100662.45
100784.01
100900.69
101025.04
101137.98
101234.78
101290.73
101354.8
101415.79
101462.03
101500.26
101528.86
101549.64
101564.32
101571.75
101577.56
101578.67
101571.22
101518.48
99585.859
99628.566
99684.389
99750.642
99825.487
99908.885
100000.58
100099.81
100205.76
100317.24
100432.9
100551.68
100671.45
100792.86
100909.86
101032.96
101144.92
101240.56
101295.24
101359.21
101419.02
101464.63
101502.27
101530.42
101550.83
101565.24
101572.48
101578.36
101579.62
101572.05
101518.07
99539.537
99591.309
99655.733
99729.812
99811.637
99901.101
99997.892
100101.16
100210.2
100323.88
100440.94
100560.49
100680.53
100801.74
100919.1
101040.68
101151.97
101246.55
101299.59
101363.62
101422.23
101467.22
101504.26
101531.98
101552.02
101566.17
101573.21
101579.15
101580.61
101572.91
101517.76
99494.929
99555.931
99628.851
99710.662
99799.297
99894.666
99996.341
100103.39
100215.3
100330.98
100449.29
100569.46
100689.67
100810.65
100928.39
101048.3
101158.97
101252.02
101303.87
101368.02
101425.42
101469.81
101506.25
101533.53
101553.21
101567.1
101573.95
101579.91
101581.65
101573.88
101517.55
99453.448
99523.362
99604.282
99693.622
99788.791
99889.81
99996.082
100106.58
100221.1
100338.57
100457.96
100578.62
100698.87
100819.61
100937.72
101056.24
101165.8
101256.99
101308.22
101372.42
101428.58
101472.38
101508.23
101535.09
101554.4
101568.04
101574.69
101580.65
101582.71
101574.81
101517.43
99416.156
99494.327
99582.665
99679.196
99780.437
99886.744
99997.258
100110.8
100227.67
100346.68
100466.96
100587.96
100708.15
100828.69
100947.04
101064.57
101172.5
101261.8
101312.68
101376.8
101431.72
101474.94
101510.2
101536.64
101555.6
101568.98
101575.44
101581.36
101583.81
101575.71
101517.39
99381.808
99469.162
99565.445
99667.988
99774.555
99885.61
99999.912
100116.19
100235.05
100355.34
100476.3
100597.49
100717.51
100838.08
100956.33
101072.83
101179.14
101266.57
101317.26
101381.16
101434.84
101477.49
101512.17
101538.19
101556.79
101569.93
101576.19
101582.04
101584.92
101576.65
101517.45
99353.811
99449.141
99552.14
99660.106
99771.558
99886.427
100003.89
100122.89
100243.34
100364.59
100486
100607.21
100727.03
100847.86
100964.92
101080.62
101185.76
101271.36
101321.91
101385.49
101437.95
101480.03
101514.12
101539.74
101557.99
101570.88
101576.96
101582.71
101586.06
101577.62
101517.6
99332.477
99434.717
99543.256
99655.865
99771.453
99889.639
100009.59
100130.62
100252.51
100374.52
100496.11
100617.23
100736.9
100857.24
100972.69
101088.36
101192.42
101276.17
101326.61
101389.79
101441.04
101482.55
101516.08
101541.28
101559.19
101571.84
101577.73
101583.33
101587.21
101578.61
101517.85
99318.211
99426.344
99539.285
99655.581
99774.446
99895.283
100017.18
100139.6
100262.43
100385.2
100506.77
100627.73
100747.35
100866.02
100979.82
101095.9
101199.14
101281.03
101331.38
101394.05
101444.11
101485.07
101518.02
101542.83
101560.38
101572.79
101578.51
101583.9
101588.36
101579.63
101518.23
99311.494
99424.445
99540.578
99659.489
99780.71
99903.444
100026.63
100149.95
100273.41
100396.82
100518.28
100638.87
100756.69
100874.19
100987.48
101103.23
101205.61
101285.96
101336.2
101398.27
101447.17
101487.57
101519.95
101544.36
101561.58
101573.76
101579.3
101584.44
101589.51
101580.66
101518.75
99312.804
99429.404
99547.392
99667.724
99790.347
99914.236
100038.11
100162.07
100286.25
100409.84
100530.55
100648.82
100765.33
100883.23
100995.19
101110.12
101211.97
101290.98
101341.07
101402.46
101450.22
101490.05
101521.88
101545.9
101562.78
101574.72
101580.1
101584.96
101590.66
101581.72
101519.42
99322.693
99441.675
99560.01
99680.435
99803.541
99928.04
100052.35
100177.26
100302.02
100423.21
100540.33
100657.92
100775.15
100892.36
101002.81
101116.89
101218.24
101296.1
101346
101406.6
101453.26
101492.52
101523.8
101547.43
101563.98
101575.69
101580.9
101585.48
101591.81
101582.81
101520.12
99341.898
99462.01
99578.996
99698.244
99821.143
99945.956
100070.89
100196.18
100317.01
100432.5
100549.78
100668.81
100785.19
100901.43
101010.4
101123.57
101224.42
101301.32
101350.98
101410.71
101456.28
101494.98
101525.71
101548.96
101565.18
101576.66
101581.71
101586.01
101592.95
101583.92
101520.78
99370.372
99490.603
99604.926
99722.76
99845.144
99968.626
100091.42
100212.64
100326.83
100442.71
100562.35
100680.12
100795.25
100910.53
101017.97
101130.15
101230.6
101306.64
101356
101414.76
101459.28
101497.42
101527.62
101550.48
101566.38
101577.63
101582.53
101586.53
101594.08
101585.03
101521.92
99403.192
99522.851
99635.052
99751.464
99872.134
99991.123
100108.34
100223.56
100338.3
100457.4
100575.59
100691.57
100805.42
100919.67
101025.52
101136.67
101236.87
101312.03
101361.06
101418.76
101462.27
101499.84
101529.51
101552
101567.57
101578.61
101583.36
101587.05
101595.21
101586.15
101524.04
99440.462
99556.633
99665.891
99778.975
99895.32
100009.5
100122.5
100237.37
100355.66
100473.07
100589.11
100703.27
100815.73
100928.85
101033.03
101143.18
101243.16
101317.44
101366.13
101422.72
101465.25
101502.25
101531.4
101553.51
101568.77
101579.58
101584.22
101587.57
101596.32
101587.27
101526.57
99484.791
99595.632
99696.577
99804.678
99914.892
100028.3
100145.09
100259.55
100374.53
100489.24
100603.11
100715.29
100826.17
100938.08
101040.52
101149.64
101249.33
101322.88
101371.2
101426.62
101468.22
101504.65
101533.28
101555.02
101569.96
101580.56
101585.1
101588.16
101597.43
101588.39
101529.15
99521.67
99632.74
99739.068
99844.552
99951.321
100061.46
100173.21
100283.67
100394.29
100506.18
100617.68
100727.61
100836.76
100947.35
101048
101156.04
101255.36
101328.35
101376.25
101430.48
101471.17
101507.02
101535.15
101556.52
101571.15
101581.55
101586.02
101588.84
101598.54
101589.51
101531.71
99598.014
99701.879
99796.681
99894.312
99995.002
100098.52
100203.75
100309.03
100415.21
100524.03
100632.79
100740.25
100847.49
100956.66
101055.48
101162.36
101261.25
101333.83
101381.29
101434.29
101474.1
101509.39
101537
101558.02
101572.34
101582.53
101586.97
101589.61
101599.63
101590.63
101534.26
99676.408
99774.516
99859.708
99948.769
100041.87
100137.95
100236.5
100336.03
100437.41
100542.82
100648.44
100753.2
100858.36
100966.01
101062.97
101168.6
101266.98
101339.34
101386.31
101438.06
101477.02
101511.73
101538.85
101559.51
101573.52
101583.51
101587.97
101590.45
101600.72
101591.76
101536.81
99759.213
99851.779
99927.998
100007.82
100092.28
100180.29
100271.65
100364.77
100460.91
100562.62
100664.62
100766.48
100869.37
100975.42
101070.48
101174.73
101272.53
101344.86
101391.3
101441.79
101479.93
101514.06
101540.69
101560.99
101574.7
101584.5
101588.99
101591.33
101601.79
101592.89
101539.36
99851.324
99936.467
100002.23
100071.62
100146.45
100225.68
100309.18
100395.15
100485.73
100583.47
100681.34
100780.08
100880.53
100984.86
101078.04
101180.74
101277.86
101350.39
101396.25
101445.48
101482.82
101516.36
101542.52
101562.47
101575.87
101585.48
101590.06
101592.26
101602.85
101594.02
101541.91
99953.295
100028.56
100082.05
100139.8
100204.13
100273.98
100349.01
100427.11
100511.95
100605.4
100698.6
100794.01
100891.84
100994.34
101085.65
101186.64
101282.94
101355.93
101401.16
101449.14
101485.7
101518.66
101544.33
101563.93
101577.05
101586.46
101591.15
101593.22
101603.9
101595.16
101544.48
100062.52
100126.28
100166.28
100211.66
100264.99
100325.06
100391.1
100460.67
100539.85
100628.2
100716.44
100808.26
100903.28
101003.87
101093.33
101192.4
101287.69
101361.48
101406.02
101452.76
101488.55
101520.93
101546.13
101565.39
101578.21
101587.44
101592.25
101594.19
101604.93
101596.3
101547.06
100174.61
100226.95
100253.45
100286.49
100328.77
100378.84
100435.38
100496.08
100569.42
100651.59
100735.03
100822.86
100914.87
101013.42
101101.09
101198.04
101292.16
101367.04
101410.81
101456.35
101491.4
101523.18
101547.92
101566.84
101579.37
101588.41
101593.36
101595.19
101605.94
101597.44
101549.68
100285.69
100328.38
100342.55
100363.96
100395.44
100435.4
100481.85
100533.45
100600.61
100675.75
100754.36
100837.84
100926.6
101023
101108.93
101203.59
101296.71
101372.62
101415.53
101459.9
101494.22
101525.41
101549.7
101568.28
101580.52
101589.39
101594.47
101596.19
101606.94
101598.6
101552.34
100394.94
100430.35
100433.86
100444.49
100465.34
100494.84
100530.55
100573.17
100633.41
100700.68
100774.37
100853.23
100938.47
101032.57
101116.85
101209.14
101301.77
101378.21
101420.16
101463.42
101497.02
101527.63
101551.46
101569.72
101581.67
101590.36
101595.58
101597.2
101607.93
101599.75
101555.04
100505.72
100535.21
100529.14
100529.24
100539.12
100557.25
100581.84
100616.09
100667.25
100726.38
100795.03
100869.01
100950.49
101042.13
101124.81
101214.83
101307.3
101383.79
101424.69
101466.91
101499.81
101529.82
101553.21
101571.14
101582.81
101591.32
101596.67
101598.22
101608.9
101600.92
101557.81
100624.17
100646.87
100630.9
100619.61
100617.23
100622.72
100636.89
100661.85
100701.43
100753.01
100816.32
100885.2
100962.65
101051.62
101132.75
101220.68
101313.05
101389.33
101429.13
101470.38
101502.59
101532
101554.94
101572.55
101583.95
101592.29
101597.74
101599.23
101609.86
101602.08
101560.67
100755.74
100768.4
100740.76
100716.17
100699.3
100692.63
100696.03
100709.03
100736.4
100780.3
100838.27
100901.88
100975.02
101061.07
101140.64
101226.69
101319.2
101394.87
101433.49
101473.82
101505.36
101534.16
101556.66
101573.95
101585.07
101593.24
101598.79
101600.24
101610.81
101603.25
101563.77
100902.24
100899.9
100858.19
100818.07
100787.14
100767.47
100757.17
100757.81
100773.22
100808.62
100861.2
100919.41
100987.96
101070.66
101148.52
101232.79
101326.1
101400.36
101437.72
101477.21
101508.08
101536.28
101558.35
101575.33
101586.19
101594.19
101599.83
101601.26
101611.74
101604.4
101567.54
101063.02
101040.18
100983.7
100927.33
100881.46
100847.12
100823.59
100811.58
100814.56
100840.38
100886.67
100939.06
101002.52
101081.22
101156.81
101239.27
101333.86
101405.52
101441.64
101480.45
101510.71
101538.32
101560
101576.69
101587.28
101595.13
101600.88
101602.29
101612.66
101605.54
101571.68
101237.54
101191.88
101123.9
101052.14
100989.81
100939.48
100901.58
100876.66
100867.21
100881.5
100917.76
100962.97
101020.47
101094.18
101166.57
101246.68
101342.59
101409.8
101445
101483.47
101513.24
101540.3
101561.6
101578.02
101588.37
101596.06
101601.93
101603.33
101613.57
101606.68
101576.21
101398.05
101343.84
101278.49
101196.49
101116.61
101047.81
100993.12
100954.82
100935.24
100936.14
100955.5
100991.19
101041.78
101109.69
101178.66
101254.59
101352.79
101413.47
101448.38
101486.71
101515.94
101542.41
101563.29
101579.4
101589.48
101597.01
101602.95
101604.4
101614.5
101607.8
101581.16
100016.26
100016.56
100017.29
100025.17
100038.53
100059.81
100092.7
100136.4
100192.99
100263.07
100346.29
100442.09
100547.58
100662.13
100780.25
100901.4
101023.05
101126.03
101233.95
101293.56
101364.68
101422.04
101469.58
101505.41
101532.16
101551.26
101561.9
101567.5
101569.31
101562.32
101537.14
100015.79
100023.73
100023.7
100030.37
100043.98
100067.72
100100.84
100144.72
100200.88
100269.87
100351.6
100445.71
100549.59
100662.61
100779.8
100900.01
101021.9
101122.14
101233.63
101293.82
101363.63
101420.77
101468.44
101504.44
101531.38
101550.65
101561.43
101567.15
101569
101561.89
101538.12
100003.33
100014.48
100021.62
100032.15
100050.18
100077.05
100110.94
100155.44
100211.42
100279.47
100359.65
100451.88
100553.86
100665
100780.86
100899.83
101021.3
101120.81
101233.21
101293.74
101362.81
101419.75
101467.48
101503.58
101530.68
101550.08
101560.98
101566.81
101568.71
101561.5
101539.22
99993.669
100007.6
100020.73
100036.8
100059.04
100087.99
100123.65
100168.98
100224.85
100291.97
100370.56
100460.75
100560.59
100669.54
100783.69
100900.96
101021.52
101119.78
101231.88
101292.87
101361.65
101418.6
101466.45
101502.67
101529.94
101549.49
101560.52
101566.46
101568.46
101561.12
101540.4
99986.533
100003.98
100021.5
100042.06
100067.5
100099.05
100136.83
100183.14
100239.03
100305.34
100382.45
100470.65
100568.35
100675.06
100787.39
100902.75
101022.18
101118.64
101230.26
101291.8
101360.37
101417.36
101465.35
101501.72
101529.17
101548.88
101560.06
101566.11
101568.24
101560.71
101541.66
99979.963
100001.37
100022.83
100047.11
100075.3
100109.9
100149.82
100197.18
100253.17
100318.78
100394.51
100480.84
100576.47
100680.97
100791.44
100904.87
101023.07
101117.88
101228.68
101290.82
101359.12
101416.13
101464.24
101500.76
101528.39
101548.27
101559.59
101565.77
101568.05
101560.27
101542.98
99973.903
99999.506
100024.91
100051.86
100083.02
100120.95
100162.88
100211.23
100267.35
100332.29
100406.7
100491.21
100584.8
100687.12
100795.72
100907.22
101024.16
101117.46
101227.23
101289.96
101357.94
101414.93
101463.16
101499.8
101527.61
101547.66
101559.13
101565.43
101567.91
101559.83
101544.35
99969.17
99998.861
100026.98
100057.17
100093.7
100132.92
100176.34
100225.53
100281.72
100346
100419.12
100501.82
100593.4
100693.55
100800.25
100909.81
101025.46
101117.23
101225.89
101289.19
101356.81
101413.76
101462.09
101498.86
101526.85
101547.06
101558.67
101565.1
101567.8
101559.37
101545.76
99966.965
100000.76
100030.71
100064.22
100105.02
100145.66
100190.39
100240.26
100296.42
100359.98
100431.8
100512.72
100602.29
100700.26
100805.03
100912.65
101026.96
101117.15
101224.65
101288.49
101355.74
101412.62
101461.04
101497.92
101526.08
101546.46
101558.22
101564.76
101567.73
101558.92
101547.2
99967.703
100004.11
100036.87
100075.88
100117.05
100159.27
100205.16
100255.5
100311.5
100374.29
100444.78
100523.91
100611.47
100707.25
100810.06
100915.74
101028.69
101117.46
101223.49
101287.86
101354.72
101411.51
101460
101497
101525.32
101545.86
101557.78
101564.44
101567.71
101558.52
101548.65
99973.004
100010.63
100045.94
100089.26
100130.65
100174.11
100220.79
100271.35
100327.04
100388.95
100458.07
100535.4
100620.94
100714.54
100815.35
100919.09
101030.63
101118.39
101222.45
101287.32
101353.75
101410.42
101458.97
101496.07
101524.57
101545.27
101557.34
101564.11
101567.72
101558.17
101550.11
99981.243
100021.62
100061.69
100103.97
100146.01
100190.34
100237.39
100287.89
100343.07
100404
100471.68
100547.2
100630.69
100722.11
100820.9
100922.68
101032.77
101119.6
101221.67
101286.83
101352.84
101409.36
101457.96
101495.16
101523.81
101544.68
101556.91
101563.79
101567.79
101557.91
101551.57
99994.063
100036.85
100080.1
100121.05
100163.42
100208.05
100255.04
100305.17
100359.64
100419.45
100485.64
100559.3
100640.74
100729.96
100826.68
100926.51
101035.06
101120.68
101221.32
101286.32
101351.99
101408.33
101456.97
101494.25
101523.07
101544.1
101556.48
101563.48
101567.89
101557.79
101553.02
100013.19
100059.85
100100.47
100140.63
100182.92
100227.27
100273.78
100323.25
100376.79
100435.34
100499.95
100571.71
100651.08
100738.08
100832.71
100930.57
101037.43
101121.72
101221.4
101285.71
101351.2
101407.34
101455.99
101493.36
101522.32
101543.51
101556.06
101563.17
101568.04
101557.83
101554.47
100040.76
100085.2
100123.54
100162.88
100204.46
100248
100293.64
100342.15
100394.52
100451.67
100514.6
100584.43
100661.7
100746.47
100838.98
100934.86
101039.88
101122.98
101221.83
101285.03
101350.47
101406.38
101455.03
101492.47
101521.59
101542.94
101555.65
101562.86
101568.22
101558.04