/*--------------------------------*- C++ -*----------------------------------*\
| =========                 |                                                 |
| \\      /  F ield         | OpenFOAM: The Open Source CFD Toolbox           |
|  \\    /   O peration     | Version:  2406                                  |
|   \\  /    A nd           | Website:  www.openfoam.com                      |
|    \\/     M anipulation  |                                                 |
\*---------------------------------------------------------------------------*/
FoamFile
{
    version     2.0;
    format      ascii;
    arch        "LSB;label=32;scalar=64";
    class       volScalarField;
    location    "0.018";
    object      rho;
}
// * * * * * * * * * * * * * * * * * * * * * * * * * * * * * * * * * * * * * //

dimensions      [1 -3 0 0 0 0 0];

internalField   nonuniform List<scalar> 
8260
(
1.1994996
1.1985439
1.1979842
1.1972855
1.196628
1.1961302
1.1958261
1.1957191
1.1958051
1.1960644
1.1965031
1.1970973
1.1978192
1.1986181
1.1994477
1.2002773
1.2006752
1.2007526
1.2008598
1.2010246
1.2011882
1.2013285
1.2014513
1.2015551
1.2016412
1.2017145
1.2017785
1.201829
1.2018708
1.2018951
1.2019124
1.2011094
1.2002955
1.1994906
1.1986116
1.1978309
1.1972204
1.1967991
1.1965799
1.1965501
1.196701
1.197038
1.1975434
1.1981829
1.1989196
1.1996558
1.200401
1.2007278
1.2008041
1.2009108
1.2010682
1.2012234
1.2013565
1.2014736
1.201573
1.2016557
1.2017264
1.2017883
1.2018372
1.2018779
1.2019014
1.2019182
1.2020854
1.2013624
1.2005019
1.1995696
1.198741
1.1980712
1.1975772
1.1972818
1.1971763
1.1972325
1.1974911
1.1979262
1.1985044
1.1992016
1.199873
1.2005599
1.2007984
1.2008731
1.2009742
1.2011202
1.201265
1.2013893
1.2014997
1.2015939
1.2016727
1.2017401
1.2017996
1.2018466
1.2018859
1.2019085
1.2019247
1.2028287
1.2021694
1.2013353
1.2004071
1.199561
1.1988542
1.1983058
1.1979393
1.1977588
1.1977485
1.1979379
1.1983083
1.1988318
1.1994928
1.2001086
1.2007315
1.2008862
1.2009526
1.2010469
1.2011793
1.201312
1.2014266
1.2015293
1.2016176
1.2016919
1.2017557
1.2018124
1.2018573
1.2018951
1.2019166
1.2019321
1.2034319
1.202835
1.2020599
1.2011728
1.2003403
1.1996227
1.1990421
1.1986219
1.1983769
1.1983075
1.1984307
1.1987368
1.1992049
1.1998212
1.2003765
1.2009095
1.2009934
1.2010442
1.2011305
1.2012465
1.2013655
1.201469
1.201563
1.2016447
1.2017139
1.2017735
1.201827
1.2018695
1.2019055
1.2019259
1.2019406
1.203885
1.203344
1.2026469
1.2018342
1.2010497
1.2003527
1.1997677
1.1993194
1.1990292
1.1989087
1.1989722
1.199217
1.1996311
1.2001937
1.2006793
1.2010916
1.2011215
1.2011501
1.2012258
1.201323
1.2014263
1.2015173
1.2016014
1.2016755
1.2017389
1.2017937
1.2018435
1.2018833
1.2019173
1.2019364
1.2019502
1.2041905
1.2037034
1.2030885
1.2023755
1.2016699
1.2010235
1.2004623
1.2000126
1.1996996
1.1995423
1.1995569
1.1997473
1.2001123
1.2006115
1.2010132
1.2012802
1.2012682
1.2012737
1.2013341
1.2014097
1.2014952
1.201572
1.2016451
1.2017105
1.2017673
1.2018169
1.2018624
1.2018991
1.2019308
1.2019483
1.2019611
1.20437
1.2039418
1.2034227
1.202819
1.2022078
1.2016334
1.2011201
1.2006936
1.2003803
1.2002037
1.2001828
1.2003291
1.2006524
1.2010719
1.2013689
1.2014849
1.2014305
1.2014175
1.2014566
1.2015082
1.2015731
1.201634
1.2016947
1.2017502
1.2017996
1.2018431
1.2018838
1.201917
1.201946
1.2019619
1.2019735
1.2044837
1.2041012
1.2036737
1.2031834
1.2026783
1.2021919
1.2017457
1.2013633
1.2010704
1.200892
1.2008501
1.2009641
1.2012514
1.2015639
1.201737
1.2017117
1.2016113
1.2015829
1.2015943
1.2016197
1.2016609
1.2017041
1.2017511
1.2017952
1.2018363
1.201873
1.2019082
1.2019374
1.2019633
1.2019775
1.2019876
1.2045506
1.2042464
1.2038937
1.2035085
1.2031147
1.2027254
1.2023578
1.2020333
1.201776
1.2016106
1.2015611
1.2016525
1.2018955
1.2020858
1.202106
1.2019502
1.2018178
1.201769
1.2017476
1.201745
1.2017595
1.2017837
1.2018151
1.2018463
1.201878
1.2019069
1.2019362
1.2019608
1.201983
1.2019952
1.2020036
1.2045822
1.2044784
1.2042653
1.2039593
1.2036261
1.2033013
1.2029978
1.2027289
1.2025125
1.2023701
1.2023264
1.2024016
1.2025751
1.2026147
1.2024412
1.2022001
1.2020562
1.2019732
1.2019162
1.201884
1.2018704
1.2018739
1.2018874
1.2019046
1.2019256
1.2019456
1.201968
1.2019876
1.2020057
1.2020154
1.2020219
1.2048665
1.2047545
1.2045697
1.2043535
1.2041224
1.2038914
1.2036699
1.2034688
1.2033031
1.2031942
1.2031666
1.2032113
1.203233
1.2030625
1.2027362
1.2024819
1.2023177
1.2021899
1.2020986
1.2020354
1.2019952
1.201975
1.2019687
1.2019711
1.2019798
1.2019899
1.2020044
1.2020183
1.2020317
1.2020388
1.2020429
1.2052013
1.2052259
1.2051792
1.2050201
1.2048339
1.2046548
1.2044889
1.2043376
1.204206
1.2041044
1.2040318
1.2039403
1.2037202
1.203363
1.203037
1.2027908
1.2025851
1.2024199
1.2022926
1.2021995
1.2021309
1.2020862
1.2020606
1.2020459
1.2020414
1.2020405
1.2020457
1.2020533
1.2020618
1.2020656
1.2020673
1.2060747
1.2060174
1.2058711
1.2056805
1.2055028
1.2053674
1.2052609
1.2051498
1.2050137
1.2048446
1.2046242
1.2043336
1.2039834
1.203643
1.2033487
1.2030881
1.2028582
1.2026584
1.2024964
1.2023717
1.2022771
1.2022084
1.2021614
1.2021291
1.2021103
1.2020976
1.2020925
1.2020931
1.2020962
1.2020963
1.2020955
1.2063914
1.2064543
1.2064887
1.2064946
1.2064116
1.2062173
1.205989
1.2057548
1.2054929
1.2051984
1.2048793
1.2045463
1.2042275
1.2039215
1.2036305
1.2033636
1.2031186
1.2028995
1.2027088
1.2025537
1.2024315
1.2023383
1.2022707
1.2022208
1.2021861
1.2021615
1.2021453
1.2021377
1.2021352
1.2021314
1.2021281
1.2063968
1.206323
1.2062078
1.2060637
1.2059565
1.2059025
1.2058584
1.2058093
1.2056769
1.2054289
1.2051198
1.2047942
1.2044793
1.2041705
1.2038782
1.2036064
1.2033569
1.2031297
1.2029244
1.2027437
1.2025938
1.2024761
1.2023869
1.202319
1.2022689
1.2022318
1.2022045
1.2021875
1.2021789
1.202171
1.2021654
1.2063963
1.2063393
1.206264
1.2061723
1.2060725
1.2059571
1.2057981
1.2055881
1.2054092
1.205314
1.2051945
1.2049797
1.2046912
1.204384
1.2041009
1.2038281
1.2035701
1.2033387
1.2031294
1.2029373
1.2027643
1.2026208
1.2025092
1.2024245
1.2023586
1.2023082
1.2022701
1.2022428
1.2022273
1.202215
1.2022077
1.2061129
1.2060624
1.2060009
1.2059323
1.2058557
1.2057692
1.2056735
1.2055673
1.2054404
1.2052712
1.2050988
1.204987
1.2048273
1.2045644
1.2042828
1.2040222
1.2037666
1.2035266
1.2033124
1.2031186
1.2029358
1.2027735
1.2026394
1.2025361
1.2024548
1.2023909
1.2023419
1.2023041
1.2022803
1.2022635
1.202255
1.2059274
1.2058894
1.2058419
1.2057874
1.2057243
1.2056501
1.2055624
1.2054607
1.2053484
1.2052328
1.2051008
1.2049136
1.2047465
1.2046304
1.2044226
1.2041721
1.2039287
1.2036979
1.2034745
1.2032749
1.2030947
1.2029257
1.2027769
1.2026548
1.2025576
1.2024794
1.202419
1.2023711
1.2023384
1.2023164
1.2023075
1.2056499
1.2056175
1.2055779
1.2055334
1.2054833
1.2054267
1.2053632
1.2052918
1.2052097
1.2051123
1.2050012
1.2048927
1.2047665
1.2046355
1.2044885
1.2042663
1.2040556
1.2038355
1.2036201
1.2034108
1.2032308
1.2030661
1.2029133
1.2027779
1.202666
1.2025736
1.2025008
1.2024438
1.202402
1.2023743
1.2023649
1.2054498
1.2054262
1.2053968
1.2053635
1.2053254
1.2052811
1.2052293
1.2051686
1.2050979
1.2050172
1.2049238
1.20481
1.2046794
1.204539
1.2044115
1.2043153
1.2041734
1.2039714
1.203753
1.2035422
1.2033528
1.2031868
1.2030374
1.2028997
1.2027769
1.2026725
1.2025881
1.2025218
1.2024716
1.202438
1.2024275
1.2051875
1.2051673
1.2051427
1.2051151
1.2050841
1.2050489
1.2050089
1.2049636
1.2049121
1.2048528
1.2047851
1.2047098
1.2046227
1.2045139
1.2044143
1.2043048
1.2041767
1.2040659
1.2038832
1.2036686
1.2034761
1.2032989
1.2031444
1.2030134
1.2028895
1.2027761
1.2026808
1.2026054
1.2025476
1.2025084
1.2024954
1.2050002
1.2049863
1.2049691
1.2049498
1.2049277
1.204902
1.204872
1.2048368
1.2047954
1.2047469
1.2046901
1.2046232
1.2045479
1.2044678
1.2043661
1.2042603
1.2041514
1.2040269
1.2039344
1.2037771
1.2035973
1.2034165
1.2032517
1.2031199
1.2030007
1.202883
1.2027793
1.202695
1.2026297
1.2025857
1.2025689
1.204763
1.2047508
1.2047361
1.2047197
1.2047014
1.2046806
1.2046568
1.2046296
1.2045987
1.2045636
1.2045238
1.2044796
1.2044293
1.2043694
1.2043038
1.2042182
1.2041243
1.204018
1.2038876
1.2038084
1.2036772
1.2035224
1.203372
1.2032306
1.2031061
1.2029888
1.2028819
1.2027897
1.2027178
1.2026696
1.2026482
1.2045948
1.2045865
1.2045764
1.2045648
1.2045515
1.2045359
1.2045179
1.2044971
1.2044729
1.2044447
1.2044116
1.2043719
1.2043247
1.2042709
1.2042103
1.2041468
1.2040659
1.2039817
1.2039117
1.2038198
1.2036986
1.2035702
1.2034678
1.2033366
1.2032058
1.203089
1.2029829
1.2028885
1.2028112
1.2027592
1.2027335
1.2044064
1.2043994
1.204391
1.2043817
1.2043712
1.2043592
1.2043455
1.2043298
1.2043119
1.2042916
1.2042688
1.2042437
1.2042161
1.2041838
1.2041432
1.204091
1.2040344
1.203964
1.2038744
1.2037921
1.2037105
1.2036256
1.2035188
1.2034176
1.2032995
1.2031835
1.2030798
1.2029885
1.202909
1.202854
1.2028247
1.2042853
1.2042805
1.2042748
1.2042684
1.2042612
1.2042528
1.2042432
1.2042321
1.2042191
1.2042037
1.2041853
1.2041623
1.2041335
1.2040995
1.2040623
1.2040233
1.2039791
1.2039341
1.2038806
1.2038206
1.2037767
1.2036909
1.2035701
1.203467
1.2033725
1.2032757
1.2031761
1.2030878
1.2030108
1.2029534
1.2029215
1.2041534
1.2041496
1.2041451
1.2041402
1.2041345
1.204128
1.2041205
1.2041117
1.2041014
1.2040893
1.2040753
1.2040593
1.2040416
1.2040223
1.2040005
1.2039733
1.2039407
1.2039036
1.2038671
1.2038187
1.2037672
1.2037333
1.203655
1.2035452
1.2034476
1.2033625
1.2032737
1.2031885
1.2031149
1.2030569
1.2030232
1.2040783
1.2040757
1.2040727
1.2040694
1.2040656
1.2040611
1.2040559
1.2040499
1.2040429
1.2040348
1.2040255
1.2040143
1.2040008
1.2039838
1.2039629
1.2039397
1.2039142
1.2038832
1.2038462
1.2038074
1.203751
1.2036894
1.2036679
1.2036177
1.2035261
1.2034436
1.203366
1.2032884
1.203219
1.2031632
1.2031294
1.2040101
1.2040078
1.2040049
1.2040017
1.2039978
1.2039933
1.2039881
1.203982
1.2039749
1.2039667
1.2039575
1.2039469
1.2039353
1.2039225
1.2039079
1.2038911
1.2038715
1.2038497
1.2038235
1.2037904
1.2037585
1.203724
1.2036691
1.2036242
1.2035844
1.2035216
1.2034534
1.2033878
1.2033245
1.2032722
1.2032411
1.2039357
1.2039315
1.2039273
1.2039232
1.2039192
1.2039152
1.203911
1.2039067
1.203902
1.203897
1.2038917
1.2038858
1.2038787
1.2038706
1.2038613
1.2038506
1.2038385
1.203825
1.2038101
1.2037946
1.2037743
1.2037494
1.2037185
1.2036774
1.203631
1.2035798
1.2035239
1.2034641
1.2034069
1.2033599
1.2033314
1.1876253
1.1879709
1.1883791
1.1887496
1.1890514
1.1893515
1.1897336
1.1902218
1.1907892
1.191474
1.1922648
1.1931443
1.194099
1.1951073
1.1961437
1.1972624
1.1982586
1.1992671
1.1997586
1.2000362
1.2002857
1.2005543
1.2008073
1.2010224
1.2011994
1.2013471
1.2014679
1.2015612
1.2016337
1.20168
1.201711
1.1884602
1.1887429
1.1888927
1.1890423
1.1892316
1.1895074
1.1899057
1.190434
1.1910607
1.1917859
1.192598
1.1934845
1.1944338
1.1954209
1.1964286
1.1975045
1.1984727
1.1993789
1.1997696
1.2000617
1.2003159
1.2005864
1.2008349
1.2010449
1.2012175
1.2013619
1.2014802
1.2015717
1.2016429
1.2016883
1.2017189
1.1882713
1.188378
1.1884706
1.1886656
1.1889627
1.1893509
1.1898519
1.1904683
1.1911595
1.191935
1.1927844
1.193695
1.1946561
1.1956404
1.1966424
1.1976881
1.1986638
1.1994775
1.1998054
1.2000979
1.2003531
1.2006221
1.2008647
1.2010689
1.2012368
1.2013775
1.2014931
1.2015826
1.2016524
1.2016969
1.2017267
1.1878391
1.1879779
1.1881434
1.1884128
1.1887797
1.1892429
1.1898125
1.1904847
1.1912295
1.1920494
1.1929318
1.1938643
1.1948373
1.1958232
1.1968348
1.1978486
1.198828
1.1995687
1.1998558
1.2001348
1.2003908
1.2006574
1.2008939
1.2010925
1.2012559
1.2013931
1.201506
1.2015936
1.201662
1.2017055
1.2017348
1.1872196
1.1874316
1.1876881
1.1880597
1.1885331
1.1890997
1.1897586
1.1904997
1.1913039
1.1921684
1.1930819
1.1940341
1.1950169
1.196004
1.1970271
1.1980187
1.1989787
1.1996506
1.1999058
1.2001723
1.2004298
1.200693
1.2009233
1.2011164
1.2012752
1.2014089
1.2015191
1.2016047
1.2016717
1.2017142
1.2017429
1.1864655
1.1867851
1.1871755
1.1876849
1.1882856
1.1889632
1.189713
1.1905254
1.1913876
1.1922945
1.1932366
1.1942064
1.1951969
1.1961841
1.1972181
1.1981952
1.1991044
1.1997179
1.1999526
1.2002106
1.2004697
1.2007284
1.2009525
1.2011401
1.2012945
1.2014247
1.2015323
1.2016159
1.2016815
1.201723
1.2017511
1.1855672
1.1860664
1.1866395
1.1873098
1.1880469
1.1888377
1.1896781
1.1905615
1.1914786
1.1924244
1.1933925
1.1943777
1.1953736
1.1963597
1.1973999
1.1983632
1.1992219
1.1997777
1.199997
1.2002502
1.2005103
1.2007637
1.2009816
1.2011639
1.2013139
1.2014406
1.2015456
1.2016272
1.2016914
1.2017319
1.2017594
1.1846789
1.1853829
1.1861425
1.1869689
1.1878372
1.1887355
1.1896618
1.1906115
1.1915783
1.1925586
1.1935491
1.194547
1.1955457
1.1965312
1.1975712
1.1985181
1.1993484
1.1998329
1.2000403
1.2002911
1.2005512
1.2007988
1.2010105
1.2011876
1.2013333
1.2014565
1.2015589
1.2016386
1.2017014
1.2017408
1.2017677
1.1838987
1.1847902
1.1857109
1.1866795
1.1876703
1.1886666
1.1896701
1.1906788
1.1916886
1.192698
1.1937069
1.1947142
1.195714
1.1967068
1.1977355
1.198659
1.1994718
1.1998873
1.2000838
1.2003335
1.2005924
1.2008337
1.2010393
1.2012112
1.2013526
1.2014725
1.2015723
1.20165
1.2017114
1.2017498
1.2017761
1.1832457
1.1843118
1.1853651
1.1864627
1.1875635
1.1886405
1.1897082
1.1907661
1.1918107
1.1928431
1.1938659
1.1948794
1.1958806
1.1968878
1.1978948
1.1987943
1.1995806
1.1999422
1.2001283
1.2003771
1.2006335
1.2008683
1.2010679
1.2012347
1.201372
1.2014886
1.2015858
1.2016616
1.2017215
1.2017589
1.2017845
1.1827538
1.1839511
1.1851457
1.1863496
1.1875301
1.1886643
1.1897816
1.1908762
1.1919459
1.192994
1.1940261
1.195044
1.1960521
1.1970705
1.1980424
1.1989233
1.1996753
1.1999979
1.2001742
1.2004216
1.2006745
1.2009026
1.2010963
1.2012581
1.2013913
1.2015046
1.2015993
1.2016731
1.2017317
1.201768
1.2017929
1.1825054
1.1837997
1.1850774
1.1863347
1.1875573
1.1887448
1.1898991
1.1910134
1.1920962
1.1931525
1.1941899
1.1952119
1.1962313
1.1972313
1.1981671
1.1990458
1.1997615
1.2000531
1.2002211
1.2004669
1.2007151
1.2009365
1.2011244
1.2012813
1.2014105
1.2015206
1.2016128
1.2016847
1.2017419
1.2017771
1.2018014
1.1825368
1.1838686
1.1851679
1.18644
1.1876795
1.1888828
1.1900531
1.1911838
1.1922695
1.193326
1.1943645
1.1953873
1.1963885
1.1973525
1.198295
1.1991647
1.1998429
1.2001074
1.2002693
1.2005125
1.2007554
1.20097
1.2011522
1.2013044
1.2014297
1.2015365
1.2016263
1.2016963
1.2017521
1.2017863
1.20181
1.1828391
1.184162
1.1854287
1.1866727
1.1878956
1.1890894
1.1902584
1.1913918
1.1924774
1.1935251
1.1945496
1.1955489
1.1965152
1.1974645
1.1984182
1.1992692
1.1999224
1.2001612
1.2003185
1.2005582
1.2007952
1.2010032
1.2011798
1.2013273
1.2014487
1.2015524
1.2016397
1.2017079
1.2017624
1.2017955
1.2018186
1.1832395
1.1845779
1.1858189
1.1870237
1.1882103
1.1893768
1.1905256
1.1916274
1.1926888
1.1937057
1.1946804
1.1956609
1.1966449
1.19759
1.19853
1.1993713
1.2000013
1.2002155
1.2003687
1.2006038
1.2008346
1.2010359
1.201207
1.2013499
1.2014677
1.2015683
1.2016531
1.2017195
1.2017726
1.2018048
1.2018272
1.183654
1.1849737
1.1862157
1.1874101
1.1885666
1.1896906
1.1907932
1.1918224
1.1928144
1.1938174
1.1948261
1.1958106
1.1967849
1.1977115
1.1986355
1.1994757
1.2000784
1.2002708
1.2004193
1.2006491
1.2008733
1.201068
1.2012338
1.2013722
1.2014864
1.2015839
1.2016665
1.201731
1.2017828
1.2018141
1.2018359
1.184714
1.1857522
1.1867756
1.1878301
1.1888977
1.1899465
1.1909506
1.1919699
1.1930157
1.1940108
1.1949967
1.1959661
1.196923
1.1978268
1.1987371
1.1995771
1.2001526
1.2003269
1.2004696
1.2006937
1.2009114
1.2010996
1.2012601
1.2013943
1.2015049
1.2015995
1.2016797
1.2017425
1.2017931
1.2018234
1.2018446
1.1864695
1.1872327
1.1879446
1.188722
1.1895718
1.1904605
1.1913549
1.1923015
1.1932835
1.1942288
1.1951749
1.1961195
1.1970569
1.1979376
1.1988347
1.1996744
1.2002233
1.2003833
1.2005196
1.2007377
1.2009488
1.2011307
1.2012861
1.201416
1.2015232
1.2016148
1.2016929
1.201754
1.2018033
1.2018327
1.2018533
1.1880885
1.1886917
1.1891961
1.1897548
1.1903989
1.1911085
1.1918573
1.1926874
1.1935826
1.1944593
1.1953569
1.1962711
1.197187
1.1980448
1.198928
1.1997681
1.2002911
1.2004397
1.2005695
1.200781
1.2009855
1.2011611
1.2013115
1.2014374
1.2015412
1.20163
1.2017059
1.2017653
1.2018134
1.201842
1.201862
1.1898474
1.1902368
1.1905093
1.190847
1.1912859
1.1918081
1.1923991
1.1931038
1.1939018
1.1947026
1.1955427
1.1964205
1.197312
1.1981485
1.1990168
1.1998563
1.2003565
1.2004959
1.2006191
1.2008233
1.2010212
1.2011907
1.2013363
1.2014582
1.2015589
1.2016449
1.2017187
1.2017765
1.2018235
1.2018512
1.2018708
1.191792
1.1919266
1.1919348
1.1920238
1.1922347
1.1925526
1.1929873
1.1935556
1.1942374
1.1949584
1.1957327
1.1965666
1.197431
1.1982484
1.1991005
1.1999366
1.2004193
1.2005502
1.2006674
1.2008642
1.2010556
1.2012193
1.2013603
1.2014785
1.2015761
1.2016596
1.2017313
1.2017876
1.2018335
1.2018605
1.2018796
1.193921
1.1937616
1.1934879
1.1933051
1.1932575
1.1933784
1.1936592
1.1940586
1.1946014
1.1952381
1.1959384
1.1967188
1.19755
1.1983483
1.1991806
1.2000085
1.2004771
1.2005989
1.2007133
1.2009033
1.2010885
1.2012467
1.2013834
1.2014982
1.201593
1.201674
1.2017438
1.2017987
1.2018435
1.2018698
1.2018884
1.1963228
1.1958785
1.1953468
1.1948696
1.1945554
1.1944373
1.1944869
1.1946982
1.1950735
1.195593
1.1961998
1.1969088
1.197692
1.1984626
1.1992655
1.2000747
1.200526
1.2006399
1.2007574
1.2009414
1.2011206
1.2012737
1.2014062
1.2015176
1.2016098
1.2016883
1.2017562
1.2018097
1.2018535
1.2018791
1.2018972
1.1987683
1.1982247
1.1976376
1.1969489
1.1963236
1.1958731
1.1956246
1.1955844
1.1957461
1.1960768
1.1965528
1.1971637
1.1978774
1.198609
1.1993714
1.2001541
1.2005769
1.2006848
1.2008059
1.2009824
1.2011547
1.2013019
1.2014298
1.2015376
1.2016267
1.2017027
1.2017686
1.2018205
1.2018633
1.2018883
1.201906
1.1880846
1.188445
1.1888297
1.1892014
1.1895356
1.1898532
1.1902145
1.1906579
1.1911682
1.1917924
1.1925221
1.1933436
1.1942427
1.1951996
1.1961807
1.1972318
1.1981767
1.1991228
1.1996969
1.1999874
1.2002472
1.2005206
1.2007794
1.2009998
1.2011812
1.2013325
1.2014558
1.2015511
1.201625
1.2016722
1.2017048
1.1882847
1.1886901
1.1890685
1.1894081
1.1897188
1.190032
1.1903816
1.1907737
1.1912525
1.1918439
1.1925418
1.1933357
1.1942126
1.1951547
1.1961296
1.1971725
1.1981485
1.1990657
1.1996843
1.1999711
1.2002273
1.2005007
1.200762
1.2009852
1.2011693
1.2013226
1.2014476
1.2015441
1.2016189
1.2016668
1.2017
1.1883187
1.1887036
1.1891018
1.189475
1.1898105
1.1901381
1.1904921
1.1908813
1.1913512
1.1919212
1.1925932
1.1933612
1.1942143
1.1951374
1.1961015
1.1971282
1.1981192
1.1990354
1.1996706
1.1999617
1.2002138
1.2004854
1.2007478
1.2009727
1.2011586
1.2013136
1.2014398
1.2015373
1.2016127
1.2016612
1.201692
1.1883455
1.1887142
1.1891402
1.1895423
1.1899071
1.1902554
1.190619
1.1910161
1.1914803
1.1920307
1.1926765
1.1934164
1.1942423
1.1951415
1.1960888
1.1970903
1.1980826
1.1990019
1.1996487
1.199949
1.200199
1.2004691
1.2007327
1.2009595
1.2011473
1.201304
1.2014314
1.20153
1.2016061
1.2016552
1.2016823
1.1884015
1.1887692
1.1892142
1.1896313
1.1900137
1.1903786
1.1907522
1.1911555
1.1916142
1.1921477
1.1927693
1.1934816
1.1942799
1.1951537
1.1960812
1.1970538
1.1980406
1.1989636
1.1996216
1.1999337
1.2001821
1.2004509
1.200716
1.2009448
1.2011349
1.2012934
1.2014223
1.201522
1.201599
1.2016488
1.2016743
1.1884752
1.1888338
1.1892881
1.1897188
1.1901159
1.1904955
1.1908795
1.1912883
1.1917431
1.1922629
1.1928632
1.1935499
1.1943213
1.1951692
1.1960758
1.1970189
1.1979995
1.1989238
1.1995917
1.1999171
1.2001643
1.2004313
1.200698
1.200929
1.2011215
1.201282
1.2014125
1.2015134
1.2015913
1.2016419
1.2016685
1.1885506
1.1888964
1.1893526
1.1897964
1.1902097
1.1906048
1.1910004
1.1914151
1.1918679
1.1923768
1.1929583
1.1936211
1.1943664
1.1951886
1.196073
1.19699
1.1979637
1.1988828
1.1995638
1.1998995
1.2001465
1.2004111
1.2006791
1.2009124
1.2011073
1.20127
1.2014021
1.2015044
1.2015832
1.2016346
1.2016635
1.1886348
1.1889679
1.1894206
1.1898743
1.1903025
1.1907122
1.191119
1.1915397
1.1919914
1.1924913
1.1930561
1.1936964
1.1944163
1.1952126
1.196074
1.1969704
1.197927
1.1988368
1.1995398
1.1998823
1.2001291
1.2003906
1.2006597
1.2008951
1.2010926
1.2012574
1.2013911
1.2014948
1.2015746
1.2016269
1.2016544
1.1887351
1.1890584
1.1895036
1.1899622
1.1904012
1.1908228
1.1912391
1.191665
1.1921158
1.1926076
1.1931571
1.1937763
1.1944715
1.1952419
1.1960795
1.1969568
1.1978879
1.1987881
1.1995154
1.1998666
1.2001122
1.2003699
1.2006397
1.2008773
1.2010772
1.2012442
1.2013796
1.2014847
1.2015655
1.2016186
1.2016434
1.1888606
1.1891748
1.189609
1.190067
1.1905121
1.1909416
1.1913646
1.1917937
1.1922428
1.192727
1.193262
1.1938611
1.1945323
1.195277
1.1960899
1.1969477
1.1978573
1.1987398
1.1994839
1.199852
1.2000959
1.2003491
1.2006193
1.2008588
1.2010611
1.2012303
1.2013675
1.201474
1.2015559
1.2016099
1.2016336
1.1890155
1.1893211
1.1897416
1.1901941
1.1906401
1.1910731
1.1914991
1.1919289
1.1923748
1.1928507
1.1933718
1.1939514
1.194599
1.1953181
1.1961058
1.1969427
1.1978322
1.1986961
1.1994475
1.1998387
1.2000806
1.2003282
1.2005984
1.2008396
1.2010444
1.2012158
1.2013547
1.2014627
1.2015457
1.2016006
1.2016245
1.1892086
1.1895031
1.1899059
1.1903474
1.1907892
1.191221
1.1916459
1.1920731
1.1925136
1.1929803
1.1934871
1.1940477
1.1946723
1.1953659
1.1961277
1.1969426
1.1978114
1.1986619
1.1994112
1.1998271
1.2000664
1.2003076
1.2005771
1.2008199
1.2010271
1.2012007
1.2013413
1.2014508
1.2015349
1.2015908
1.2016156
1.1894446
1.1897236
1.1901044
1.1905297
1.190962
1.1913878
1.1918076
1.1922286
1.1926611
1.1931169
1.193609
1.1941506
1.1947524
1.1954206
1.1961562
1.1969479
1.1977946
1.1986257
1.1993743
1.1998183
1.2000539
1.2002875
1.2005557
1.2007998
1.2010092
1.2011849
1.2013273
1.2014382
1.2015235
1.2015804
1.2016062
1.1897173
1.1899787
1.1903351
1.1907401
1.1911583
1.1915738
1.1919847
1.1923965
1.1928185
1.1932617
1.1937382
1.1942607
1.1948399
1.1954828
1.1961918
1.196959
1.1977822
1.1985889
1.1993346
1.1998093
1.2000431
1.2002683
1.2005344
1.2007793
1.2009908
1.2011685
1.2013126
1.201425
1.2015115
1.2015694
1.2015961
1.1900284
1.1902688
1.190596
1.1909759
1.1913758
1.1917774
1.1921762
1.1925763
1.1929858
1.193415
1.1938752
1.1943785
1.1949352
1.1955529
1.1962349
1.1969763
1.1977724
1.1985546
1.1992976
1.1997996
1.2000341
1.2002502
1.2005134
1.2007585
1.200972
1.2011516
1.2012972
1.2014112
1.2014988
1.2015578
1.2015851
1.1903584
1.1905782
1.1908754
1.1912275
1.1916067
1.1919927
1.1923783
1.1927655
1.1931617
1.1935762
1.19402
1.1945041
1.1950386
1.1956313
1.1962861
1.197
1.1977644
1.1985234
1.1992647
1.1997911
1.2000272
1.2002339
1.2004928
1.2007377
1.2009528
1.2011341
1.2012813
1.2013968
1.2014855
1.2015455
1.2015733
1.1906926
1.1908907
1.1911589
1.191483
1.191841
1.1922117
1.1925847
1.1929601
1.1933437
1.1937443
1.194172
1.1946375
1.1951504
1.1957184
1.1963459
1.1970307
1.1977583
1.1984938
1.1992374
1.1997853
1.2000222
1.2002195
1.2004732
1.2007171
1.2009334
1.2011162
1.2012647
1.2013816
1.2014716
1.2015326
1.2015608
1.1910123
1.1911918
1.1914348
1.1917328
1.1920704
1.192427
1.1927895
1.1931552
1.1935285
1.1939171
1.1943303
1.1947787
1.1952708
1.1958147
1.1964148
1.1970695
1.1977597
1.1984782
1.1992229
1.1997824
1.2000201
1.200208
1.2004547
1.2006966
1.200914
1.2010979
1.2012476
1.2013659
1.201457
1.2015191
1.2015478
1.1913124
1.1914757
1.1916955
1.1919691
1.1922875
1.192632
1.192987
1.1933467
1.1937132
1.1940928
1.1944943
1.1949271
1.1953999
1.1959206
1.196494
1.1971192
1.1977812
1.1984823
1.1992142
1.1997758
1.2000202
1.2001992
1.2004376
1.2006771
1.2008946
1.2010792
1.20123
1.2013495
1.2014417
1.2015048
1.2015341
1.1915961
1.1917403
1.1919351
1.1921857
1.1924886
1.1928243
1.1931755
1.1935331
1.1938966
1.1942709
1.1946635
1.1950831
1.1955383
1.1960368
1.196584
1.1971806
1.1978168
1.1984905
1.1991904
1.1997667
1.200026
1.2001952
1.200423
1.2006585
1.2008755
1.2010605
1.2012119
1.2013326
1.2014258
1.2014899
1.2015196
1.1918571
1.1919955
1.1921802
1.1924057
1.1926846
1.1930107
1.1933594
1.1937172
1.1940807
1.1944525
1.1948388
1.1952474
1.1956866
1.1961641
1.1966855
1.1972534
1.197862
1.1985059
1.1991737
1.1997581
1.2000379
1.2001941
1.2004096
1.200641
1.2008572
1.2010417
1.2011935
1.201315
1.2014092
1.2014743
1.2015045
1.192096
1.1922245
1.1924063
1.1926333
1.1929039
1.1932186
1.1935592
1.1939131
1.1942747
1.1946437
1.1950242
1.1954226
1.1958465
1.1963033
1.1967993
1.197338
1.197917
1.1985311
1.1991709
1.1997452
1.2000492
1.2001983
1.2004011
1.2006274
1.2008394
1.2010228
1.2011748
1.201297
1.201392
1.201458
1.2014887
1.1923746
1.1924931
1.192659
1.1928812
1.1931524
1.1934541
1.1937833
1.1941302
1.194487
1.1948511
1.1952243
1.1956117
1.1960198
1.1964557
1.196926
1.197435
1.1979829
1.1985658
1.1991751
1.1997418
1.2000684
1.2002092
1.2003931
1.2006125
1.2008232
1.2010047
1.2011561
1.2012786
1.2013743
1.2014411
1.2014723
1.1927352
1.1928495
1.1930057
1.1932044
1.1934487
1.193733
1.1940481
1.1943828
1.1947289
1.1950829
1.1954451
1.1958186
1.196209
1.1966228
1.1970664
1.1975448
1.19806
1.1986092
1.1991807
1.1997271
1.2000881
1.2002227
1.200394
1.2006059
1.2008083
1.2009865
1.2011373
1.2012599
1.201356
1.2014235
1.2014552
1.1931694
1.1932781
1.1934242
1.1936001
1.1938161
1.1940781
1.1943708
1.1946838
1.1950105
1.1953468
1.1956917
1.1960467
1.196416
1.1968053
1.1972205
1.1976673
1.1981485
1.1986623
1.1991966
1.1997331
1.2001104
1.200244
1.200402
1.2005989
1.2007937
1.2009695
1.201119
1.2012411
1.2013373
1.2014054
1.2014376
1.1936612
1.1937583
1.1938886
1.1940537
1.1942555
1.1944878
1.1947484
1.1950316
1.1953314
1.1956432
1.1959647
1.1962963
1.1966408
1.1970028
1.197388
1.1978019
1.1982483
1.1987274
1.1992308
1.1997494
1.200139
1.2002651
1.2004061
1.2005966
1.2007845
1.2009538
1.2011011
1.2012221
1.2013182
1.2013867
1.2014193
1.1941999
1.1942883
1.1944032
1.1945467
1.1947225
1.1949257
1.1951559
1.195409
1.1956799
1.1959641
1.1962589
1.1965637
1.1968806
1.1972133
1.1975669
1.1979471
1.1983584
1.1988024
1.1992746
1.199767
1.2001635
1.2002902
1.2004204
1.2005999
1.2007729
1.2009377
1.2010835
1.2012033
1.2012989
1.2013675
1.2014005
1.1947451
1.1948192
1.1949224
1.1950488
1.1951979
1.1953734
1.1955746
1.1957982
1.1960403
1.1962966
1.1965639
1.1968411
1.1971295
1.1974321
1.1977537
1.1981
1.1984761
1.1988848
1.1993242
1.1997875
1.2001882
1.200326
1.2004395
1.2005981
1.2007658
1.2009263
1.2010673
1.2011847
1.2012794
1.2013479
1.2013812
1.195289
1.1953543
1.1954396
1.1955426
1.1956669
1.1958157
1.1959887
1.1961838
1.1963977
1.1966267
1.1968676
1.1971182
1.1973789
1.1976524
1.1979431
1.1982565
1.1985983
1.1989727
1.1993796
1.1998151
1.2002133
1.2003638
1.2004541
1.2006086
1.2007689
1.2009147
1.2010508
1.2011664
1.2012599
1.2013279
1.2013615
1.1958274
1.1958723
1.1959374
1.1960186
1.1961183
1.1962395
1.1963837
1.1965503
1.1967368
1.1969398
1.1971558
1.1973823
1.1976185
1.1978658
1.1981282
1.1984114
1.1987214
1.1990633
1.1994386
1.1998457
1.200236
1.2004022
1.2004827
1.2006222
1.200764
1.200903
1.2010365
1.2011488
1.2012407
1.2013077
1.2013413
1.1963464
1.1963781
1.1964259
1.1964865
1.1965614
1.1966537
1.1967662
1.1969003
1.1970557
1.1972302
1.1974207
1.1976241
1.1978383
1.1980632
1.1983017
1.1985588
1.1988408
1.1991535
1.1994999
1.1998796
1.2002579
1.2004502
1.200514
1.2006275
1.2007678
1.2009026
1.2010238
1.2011314
1.2012217
1.2012874
1.2013209
1.1968042
1.1968376
1.1968753
1.1969213
1.1969772
1.1970458
1.1971301
1.1972326
1.1973554
1.1974987
1.1976613
1.1978404
1.1980333
1.1982386
1.1984575
1.1986934
1.1989522
1.19924
1.1995611
1.1999162
1.2002856
1.2004957
1.2005432
1.2006467
1.2007787
1.2008955
1.2010097
1.2011158
1.2012032
1.2012675
1.2013
1.1970969
1.1971179
1.1971611
1.1972155
1.1972797
1.1973545
1.1974318
1.197513
1.197611
1.1977291
1.1978674
1.1980246
1.1981983
1.198387
1.1985903
1.1988104
1.1990517
1.1993199
1.1996199
1.1999538
1.2003116
1.2005386
1.2005833
1.2006723
1.2007787
1.2008945
1.201003
1.2011007
1.2011856
1.2012476
1.201279
1.1973932
1.1974046
1.1974226
1.1974462
1.1974754
1.1975139
1.1975743
1.1976598
1.1977629
1.1978834
1.1980156
1.198159
1.1983202
1.198499
1.1986939
1.1989052
1.1991359
1.1993906
1.1996743
1.1999902
1.2003341
1.2005786
1.2006237
1.2006894
1.2007901
1.2009004
1.2009947
1.2010864
1.2011684
1.2012288
1.201258
1.197545
1.1975649
1.1975889
1.1976166
1.1976484
1.1976853
1.1977306
1.197789
1.1978642
1.1979598
1.198082
1.1982281
1.198391
1.1985708
1.1987663
1.198977
1.1992042
1.1994514
1.1997233
1.2000244
1.2003536
1.200618
1.200664
1.2007174
1.2008105
1.2009011
1.2009888
1.2010754
1.2011535
1.2012106
1.2012375
1.1975305
1.1975559
1.1975849
1.1976188
1.197659
1.1977069
1.1977642
1.1978329
1.1979158
1.1980155
1.1981353
1.198277
1.1984402
1.1986234
1.1988221
1.1990347
1.1992613
1.1995043
1.1997678
1.2000566
1.2003718
1.2006501
1.2007061
1.2007474
1.2008213
1.2009019
1.2009926
1.201071
1.2011399
1.2011937
1.2012179
1.1975284
1.1975543
1.1975832
1.1976169
1.1976576
1.1977072
1.1977678
1.197842
1.1979325
1.1980411
1.198169
1.1983148
1.1984811
1.1986695
1.1988725
1.1990871
1.1993133
1.1995529
1.1998094
1.2000873
1.2003895
1.200677
1.2007501
1.2007783
1.2008413
1.2009169
1.2009914
1.2010631
1.201129
1.2011794
1.2012003
1.1976027
1.197625
1.1976504
1.1976803
1.1977176
1.1977646
1.1978236
1.1978968
1.1979858
1.198089
1.1982092
1.19836
1.198538
1.1987286
1.1989312
1.1991445
1.1993678
1.1996023
1.1998508
1.2001176
1.2004071
1.2006979
1.2007964
1.2008137
1.2008649
1.2009267
1.2009967
1.2010638
1.2011203
1.2011665
1.2011864
1.1977944
1.1978101
1.1978287
1.1978512
1.1978797
1.1979165
1.1979635
1.1980219
1.1980954
1.1981942
1.1983213
1.1984678
1.1986295
1.1988077
1.1990019
1.1992089
1.1994259
1.199653
1.1998923
1.2001478
1.2004255
1.2007196
1.2008432
1.2008522
1.200891
1.2009433
1.2010058
1.2010636
1.2011154
1.2011572
1.2011765
1.1980763
1.1980875
1.1981018
1.1981192
1.1981409
1.1981683
1.1982033
1.1982501
1.1983127
1.1983917
1.198488
1.1986042
1.198742
1.1989015
1.1990804
1.1992751
1.1994825
1.1997008
1.1999309
1.2001763
1.2004434
1.2007344
1.2008884
1.2008936
1.2009212