/*--------------------------------*- C++ -*----------------------------------*\
| =========                 |                                                 |
| \\      /  F ield         | OpenFOAM: The Open Source CFD Toolbox           |
|  \\    /   O peration     | Version:  2406                                  |
|   \\  /    A nd           | Website:  www.openfoam.com                      |
|    \\/     M anipulation  |                                                 |
\*---------------------------------------------------------------------------*/
FoamFile
{
    version     2.0;
    format      ascii;
    arch        "LSB;label=32;scalar=64";
    class       volScalarField;
    location    "0.01";
    object      T;
}
// * * * * * * * * * * * * * * * * * * * * * * * * * * * * * * * * * * * * * //

dimensions      [0 0 0 1 0 0 0];

internalField   nonuniform List<scalar> 
2065
(
292.83648
292.80563
292.77876
292.756
292.73735
292.72332
292.7147
292.71243
292.71812
292.73162
292.75367
292.78426
292.82075
292.86124
292.90351
292.94587
292.987
293.02642
293.06543
293.10317
293.14035
293.17614
293.20913
293.23708
293.25791
293.2707
293.27566
293.2751
293.27489
293.28017
293.29464
293.31489
293.335
293.35581
293.37205
293.38006
293.38775
293.39967
293.41787
293.43893
293.45186
293.4536
293.44914
293.43403
293.40554
293.35056
293.27921
293.18644
293.1007
293.00602
292.95341
292.91466
292.90988
292.92181
293.00553
293.07489
293.21006
293.24109
293.02775
292.98553
292.9478
292.91533
292.88749
292.86374
292.84475
292.83266
292.82818
292.833
292.84738
292.87045
292.89939
292.93247
292.96744
293.00256
293.03678
293.07014
293.10394
293.13693
293.1699
293.20126
293.22949
293.25227
293.26796
293.27612
293.27768
293.27532
293.2749
293.28056
293.29496
293.31328
293.33035
293.3475
293.36099
293.36828
293.37674
293.38913
293.40593
293.42409
293.43503
293.43686
293.43333
293.41893
293.3913
293.33824
293.26954
293.17983
293.09631
293.00382
292.95117
292.91181
292.90592
292.91692
292.99884
293.06779
293.20196
293.23597
293.25405
293.20577
293.15875
293.11384
293.07192
293.03332
292.99858
292.969
292.94659
292.93235
292.92875
292.93483
292.95051
292.97268
292.99775
293.02557
293.0536
293.0815
293.10966
293.13897
293.16788
293.1969
293.2239
293.2471
293.2647
293.27533
293.27916
293.27795
293.27445
293.27414
293.28048
293.29457
293.31061
293.32452
293.33801
293.34895
293.35582
293.36522
293.37812
293.39357
293.40913
293.41848
293.42067
293.41823
293.40472
293.37812
293.32706
293.26095
293.17419
293.09273
293.00228
292.94943
292.90933
292.90224
292.91232
292.99237
293.0609
293.19389
293.231
293.38066
293.34783
293.3111
293.27089
293.22886
293.18633
293.14425
293.10426
293.06834
293.03888
293.01776
293.00749
293.0075
293.01723
293.03361
293.05297
293.07492
293.09729
293.12057
293.14504
293.17084
293.1966
293.22166
293.24433
293.2623
293.27463
293.28034
293.28034
293.27694
293.27293
293.27305
293.28009
293.29356
293.30714
293.31774
293.32765
293.33624
293.34297
293.35342
293.36687
293.38111
293.39437
293.40246
293.4052
293.40395
293.39145
293.36602
293.31699
293.25341
293.16946
293.0899
293.00137
292.94816
292.90719
292.89882
292.90798
292.98611
293.05422
293.18587
293.22618
293.40592
293.38251
293.35511
293.32379
293.28915
293.25201
293.21342
293.17473
293.13792
293.10587
293.08135
293.06693
293.06304
293.0686
293.08096
293.09668
293.11505
293.13438
293.15526
293.1775
293.20069
293.22388
293.24497
293.26299
293.27567
293.28258
293.28357
293.2803
293.27516
293.27119
293.27196
293.27959
293.29213
293.30315
293.31039
293.31685
293.32326
293.33002
293.3416
293.35559
293.36881
293.3801
293.38719
293.39058
293.39055
293.37916
293.35498
293.30797
293.24685
293.16557
293.08779
293.00103
292.94734
292.90539
292.89565
292.90391
292.98006
293.04771
293.17791
293.22149
293.42971
293.41395
293.39509
293.37286
293.3472
293.31826
293.28652
293.25262
293.21763
293.18318
293.15186
293.12688
293.11087
293.10492
293.1082
293.1183
293.13251
293.14951
293.16808
293.18818
293.20913
293.23025
293.25068
293.2677
293.28064
293.28778
293.28924
293.2858
293.27965
293.27329
293.26965
293.27118
293.2792
293.29053
293.29896
293.30289
293.30605
293.31043
293.3173
293.32999
293.3445
293.35689
293.36652
293.37282
293.37689
293.37806
293.36783
293.34495
293.29997
293.2412
293.16247
293.08634
293.00121
292.94694
292.90392
292.89272
292.90008
292.9742
293.04137
293.17004
293.21692
293.44165
293.43022
293.41642
293.39994
293.38063
293.35845
293.33352
293.30605
293.27634
293.24518
293.21407
293.18529
293.16182
293.14623
293.13981
293.14225
293.15186
293.16611
293.1833
293.20227
293.2221
293.24201
293.26108
293.27812
293.2906
293.298
293.29937
293.29545
293.28787
293.27921
293.27195
293.26869
293.27101
293.27913
293.28905
293.29487
293.29566
293.29571
293.29819
293.3051
293.31879
293.33376
293.34552
293.35376
293.35942
293.36414
293.36648
293.35743
293.33589
293.29289
293.2364
293.1601
293.0855
293.00188
292.94695
292.90278
292.89003
292.89649
292.96852
293.03517
293.16229
293.21246
293.44107
293.43056
293.41795
293.40304
293.38574
293.36605
293.34405
293.3199
293.29394
293.26678
293.23966
293.21446
293.19369
293.17979
293.17411
293.17688
293.18721
293.20235
293.22039
293.23987
293.25925
293.27768
293.29406
293.30691
293.31423
293.31571
293.31118
293.30204
293.29059
293.27969
293.27171
293.26873
293.27166
293.27956
293.28793
293.2912
293.28908
293.28621
293.28687
293.29369
293.30817
293.32353
293.33479
293.3419
293.34702
293.35233
293.35577
293.34791
293.32774
293.28669
293.23238
293.15838
293.08522
293.00299
292.94733
292.90195
292.88756
292.89313
292.96302
293.02912
293.15467
293.2081
293.44229
293.43252
293.42091
293.40735
293.39183
293.37439
293.35515
293.33427
293.31207
293.28907
293.26628
293.24528
293.22786
293.21635
293.21208
293.21565
293.22742
293.24382
293.26291
293.28242
293.30067
293.31671
293.32945
293.33729
293.33888
293.33419
293.32381
293.30971
293.29466
293.28166
293.27294
293.27003
293.27326
293.2806
293.28732
293.28815
293.28335
293.2778
293.27669
293.28322
293.29822
293.31386
293.32475
293.33093
293.33561
293.34143
293.34589
293.33922
293.32041
293.28128
293.22906
293.15727
293.08546
293.00449
292.94806
292.90143
292.88532
292.89
292.95769
293.02321
293.14718
293.20385
293.45326
293.44576
293.43677
293.4262
293.41405
293.40036
293.38522
293.36878
293.35124
293.33292
293.31424
293.29591
293.27939
293.26592
293.25748
293.2555
293.26061
293.2729
293.29068
293.31098
293.32977
293.34597
293.35863
293.36675
293.36892
293.3644
293.35354
293.33757
293.31886
293.30046
293.28541
293.27582
293.27267
293.27581
293.28229
293.28721
293.2859
293.27859
293.27061
293.26775
293.27375
293.28897
293.30478
293.31538
293.32082
293.32512
293.33138
293.33677
293.33128
293.31384
293.27657
293.22639
293.15669
293.08616
293.00636
292.94913
292.90121
292.88329
292.8871
292.95253
293.01743
293.13984
293.19971
293.45818
293.45131
293.44321
293.43384
293.42322
293.41147
293.39872
293.38514
293.37095
293.35651
293.34219
293.32844
293.31655
293.30748
293.30271
293.30356
293.31056
293.3238
293.34184
293.36311
293.38038
293.39364
293.40202
293.40478
293.40088
293.39019
293.37348
293.3524
293.32952
293.30802
293.29094
293.28025
293.27654
293.27915
293.28452
293.28767
293.28438
293.27483
293.26462
293.26004
293.26527
293.28042
293.29629
293.30666
293.31153
293.3155
293.32212
293.32836
293.32402
293.30795
293.27251
293.22427
293.15659
293.08727
293.00854
292.9505
292.90126
292.88148
292.88442
292.94754
293.01177
293.13264
293.19568
293.46463
293.45855
293.45144
293.44334
293.43432
293.42452
293.41412
293.40332
293.39238
293.3816
293.37138
293.36218
293.35509
293.35052
293.34977
293.35389
293.36318
293.37758
293.39588
293.41664
293.43166
293.44129
293.44477
293.44184
293.43193
293.41545
293.39345
293.36789
293.34133
293.317
293.2979
293.28589
293.28131
293.28301
293.2871
293.28855
293.28347
293.27199
293.25975
293.25345
293.2577
293.27251
293.28834
293.29855
293.30297
293.30666
293.31356
293.32058
293.31737
293.30266
293.26901
293.22266
293.15691
293.08875
293.011
292.95215
292.90159
292.87989
292.88193
292.94272
293.00624
293.12559
293.19177
293.47186
293.46666
293.46062
293.45379
293.4463
293.43831
293.43005
293.42177
293.41376
293.40637
293.39998
293.39505
293.39234
293.39218
293.39564
293.4033
293.41516
293.43093
293.44942
293.4687
293.48058
293.48622
293.48473
293.47634
293.46095
293.43934
293.41278
293.3834
293.35368
293.32682
293.30575
293.29225
293.28652
293.28708
293.28979
293.28965
293.28302
293.26989
293.25584
293.24786
293.25094
293.26518
293.28088
293.29098
293.29507
293.29852
293.30564
293.31336
293.31127
293.2979
293.266
293.22147
293.15758
293.09054
293.01372
292.95406
292.90218
292.87851
292.87964
292.93807
293.00083
293.11868
293.18798
293.47922
293.47497
293.46999
293.46436
293.45821
293.45175
293.44525
293.43903
293.43343
293.42886
293.42578
293.42446
293.42556
293.42964
293.43721
293.44839
293.46303
293.48042
293.4992
293.51569
293.5245
293.52627
293.5203
293.50707
293.48699
293.46106
293.43074
293.39825
293.36588
293.33682
293.31388
293.29881
293.29175
293.29101
293.29234
293.2908
293.28281
293.26835
293.25272
293.2431
293.24489
293.25837
293.27384
293.28388
293.28774
293.29101
293.29828
293.30663
293.30563
293.2936
293.26341
293.22065
293.15856
293.0926
293.01664
292.9562
292.90301
292.87734
292.87753
292.9336
292.99554
293.1119
293.18428
293.48674
293.48337
293.47932
293.47466
293.46955
293.46422
293.459
293.45423
293.45037
293.44782
293.44712
293.44873
293.45316
293.46087
293.47211
293.48668
293.50418
293.5232
293.54167
293.55542
293.5615
293.55997
293.55024
293.53304
293.50917
293.47985
293.44662
293.41173
293.37727
293.34637
293.32172
293.30507
293.2966
293.29449
293.2945
293.29178
293.28266
293.26717
293.2502
293.23903
293.23943
293.25199
293.26716
293.27718
293.28091
293.28403
293.29141
293.30034
293.30039
293.28968
293.26118
293.22014
293.1598
293.09489
293.01974
292.95854
292.90407
292.87638
292.87558
292.92929
292.99038
293.10526
293.18066
293.49208
293.48874
293.48478
293.48036
293.47571
293.47119
293.46721
293.46425
293.46285
293.46363
293.46722
293.47415
293.48488
293.49906
293.51632
293.53659
293.55656
293.57417
293.58611
293.59002
293.58592
293.57333
293.55318
293.5266
293.49491
293.45968
293.42317
293.3872
293.35489
293.32877
293.31061
293.30073
293.29727
293.29608
293.29239
293.28243
293.26617
293.2481
293.23548
293.23447
293.24597
293.26078
293.27081
293.27451
293.27752
293.28497
293.29443
293.29551
293.2861
293.25925
293.21989
293.16123
293.09736
293.02299
292.96106
292.90535
292.87562
292.87377
292.92516
292.98534
293.09876
293.1771
293.50156
293.49867
293.49512
293.491
293.48657
293.48219
293.4783
293.47547
293.47437
293.47569
293.48012
293.48845
293.5011
293.51734
293.53669
293.55787
293.57821
293.59522
293.60597
293.60828
293.60254
293.58817
293.5663
293.53828
293.5054
293.46921
293.43194
293.39513
293.36191
293.33464
293.31513
293.30391
293.29916
293.29691
293.29245
293.28195
293.2652
293.24628
293.23231
293.2299
293.24025
293.25463
293.26471
293.26845
293.2714
293.2789
293.28883
293.29092
293.28278
293.25757
293.21984
293.16281
293.09998
293.02636
292.96375
292.90681
292.87508
292.8721
292.92119
292.98042
293.09239
293.17355
293.51264
293.50991
293.50641
293.50221
293.4975
293.49266
293.48815
293.48462
293.48288
293.48383
293.48826
293.49692
293.51
293.5267
293.54617
293.56699
293.5868
293.60294
293.61316
293.61427
293.60805
293.5933
293.57122
293.54327
293.51056
293.47458
293.43749
293.4006
293.36704
293.33901
293.31838
293.30595
293.30005
293.29689
293.29188
293.28111
293.26412
293.24459
293.2294
293.22563
293.23478
293.24868
293.25883
293.26269
293.26562
293.27316
293.28351
293.28657
293.27968
293.25609
293.21994
293.16451
293.10271
293.02981
292.96656
292.90846
292.87473
292.87054
292.9174
292.97563
293.08614
293.17002
293.52428
293.52029
293.51534
293.50955
293.50334
293.49721
293.49209
293.489
293.48887
293.49219
293.49955
293.5111
293.52608
293.5436
293.56237
293.58046
293.59533
293.60505
293.60672
293.6011
293.58766
293.56714
293.54095
293.50986
293.47535
293.43944
293.40326
293.37
293.34167
293.32022
293.30677
293.29985
293.29595
293.29058
293.27979
293.26281
293.24291
293.22669
293.22157
293.22951
293.2429
293.25312
293.25717
293.26013
293.26768
293.27843
293.28243
293.27675
293.25476
293.22015
293.16627
293.10552
293.03332
292.96949
292.91026
292.87458
292.8691
292.91376
292.97096
293.08003
293.16645
293.23725
293.24756
293.25185
293.25487
293.26244
293.27355
293.27846
293.27395
293.25354
293.22043
293.16807
293.10837
293.03687
292.9725
292.91219
292.8746
292.86776
292.91029
292.96641
293.07404
293.16283
291.99677
291.96832
292.50997
292.3734
292.26237
292.17507
292.10847
292.05922
292.02347
291.99746
292.6465
292.5008
292.37254
292.26866
292.18795
292.12705
292.08229
292.04984
292.02617
292.62963
292.49405
292.37389
292.27668
292.20191
292.14613
292.10546
292.07604
292.05455
292.61644
292.49033
292.37766
292.28652
292.2172
292.16602
292.12899
292.10231
292.0828
292.60686
292.48957
292.38421
292.29902
292.23446
292.18722
292.15331
292.12902
292.11129
292.60128
292.49264
292.39454
292.31481
292.25431
292.21033
292.17901
292.15671
292.14051
292.60166
292.50148
292.40967
292.33444
292.27733
292.23598
292.2067
292.186
292.17105
292.60793
292.51533
292.42951
292.35837
292.30411
292.2648
292.23708
292.21757
292.2036
292.62179
292.53637
292.45556
292.38779
292.3356
292.29766
292.27094
292.25222
292.23894
292.64283
292.56426
292.48836
292.42337
292.37255
292.33528
292.30901
292.29069
292.2778
292.67197
292.59971
292.52813
292.46536
292.4153
292.37815
292.35183
292.33353
292.32076
292.70916
292.64253
292.57466
292.51358
292.46382
292.42633
292.39959
292.38098
292.36808
292.75197
292.69057
292.6263
292.56686
292.51729
292.4793
292.45192
292.43281
292.41961
292.79836
292.74185
292.6812
292.62358
292.57436
292.53594
292.5079
292.48819
292.47456
292.84638
292.79458
292.73765
292.6821
292.63351
292.59487
292.56628
292.54603
292.532
292.89443
292.84725
292.79412
292.74088
292.6932
292.65457
292.62557
292.60484
292.59038
292.94124
292.89868
292.84943
292.79866
292.75204
292.71349
292.68407
292.66275
292.64771
292.98598
292.94794
292.90271
292.85459
292.80911
292.77054
292.74047
292.71828
292.70235
293.02972
292.99583
292.95441
292.90886
292.86433
292.82543
292.79434
292.77092
292.7538
293.07188
293.04193
293.00434
292.96145
292.91788
292.87847
292.84606
292.82113
292.80267
293.113
293.08668
293.05282
293.0128
292.97041
292.93048
292.89651
292.86968
292.84944
293.15264
293.12979
293.09963
293.06272
293.02194
292.98186
292.94647
292.91772
292.89563
293.18962
293.17024
293.14396
293.11061
293.07221
293.03281
292.99663
292.96627
292.94237
293.22177
293.206
293.1839
293.15475
293.1197
293.08218
293.04635
293.01527
292.99014
293.24693
293.23496
293.21724
293.19273
293.16195
293.12763
293.09363
293.06323
293.03804
293.26378
293.25547
293.24234
293.22305
293.19753
293.16777
293.13715
293.10888
293.08485
293.272
293.26682
293.25786
293.24371
293.22387
293.19955
293.17349
293.14861
293.12688
293.27353
293.27067
293.26502
293.25527
293.24067
293.22185
293.20082
293.18002
293.16135
293.27399
293.27234
293.26885
293.26239
293.25206
293.23798
293.22148
293.20449
293.18871
293.27956
293.27885
293.27681
293.27253
293.26519
293.2546
293.24155
293.2275
293.21389
293.29434
293.29444
293.2936
293.29099
293.28581
293.27769
293.26709
293.25511
293.24303
293.31607
293.31767
293.31864
293.31821
293.31548
293.30986
293.30159
293.2916
293.28109
293.33895
293.34344
293.34791
293.35124
293.35222
293.35017
293.34515
293.33796
293.3297
293.36295
293.37048
293.37862
293.38625
293.39214
293.39515
293.39478
293.39163
293.38672
293.38169
293.39154
293.40271
293.41408
293.42404
293.43115
293.43498
293.43575
293.43425
293.39043
293.40088
293.41284
293.42513
293.43651
293.44581
293.45224
293.45572
293.45675
293.39754
293.40749
293.41916
293.43188
293.44425
293.45487
293.46282
293.46787
293.47039
293.40914
293.41898
293.43056
293.44299
293.45508
293.46561
293.47366
293.47897
293.48185
293.42865
293.43994
293.45344
293.46826
293.48285
293.49548
293.50514
293.51166
293.51545
293.45247
293.46658
293.4838
293.50315
293.52271
293.54042
293.55479
293.56526
293.57217
293.4673
293.48322
293.50302
293.5259
293.55003
293.57308
293.59299
293.60886
293.62048
293.46905
293.4849
293.50499
293.52882
293.55478
293.5805
293.60373
293.62295
293.63794
293.46378
293.47874
293.49801
293.52139
293.54761
293.57446
293.59949
293.62091
293.63808
293.44806
293.4623
293.481
293.50428
293.53128
293.55998
293.58773
293.61239
293.63282
293.41876
293.43197
293.44962
293.4721
293.49897
293.52863
293.55861
293.58638
293.6103
293.36198
293.37313
293.38828
293.40803
293.43238
293.46034
293.48994
293.51875
293.54473
293.28816
293.29663
293.30834
293.32395
293.3437
293.36711
293.39284
293.41902
293.44381
293.19262
293.19829
293.20636
293.21749
293.2321
293.25013
293.27083
293.29285
293.31461
293.10484
293.10848
293.11382
293.12139
293.13161
293.14454
293.15977
293.17647
293.19351
293.00829
293.01027
293.01343
293.01825
293.02516
293.03435
293.0456
293.0583
293.07163
292.95567
292.95776
292.96087
292.9653
292.9713
292.97892
292.98793
292.99789
293.0082
292.91735
292.92001
292.92368
292.92856
292.93472
292.94207
292.95037
292.9592
292.9681
292.91343
292.91683
292.92129
292.92695
292.93382
292.94175
292.95042
292.95937
292.96812
292.92613
292.93028
292.9357
292.94247
292.95051
292.95957
292.96919
292.97886
292.9881
293.01116
293.01652
293.02338
293.03175
293.04144
293.05203
293.06294
293.07356
293.08339
293.08069
293.08614
293.09305
293.10141
293.11099
293.12135
293.13195
293.14222
293.15171
293.21646
293.22203
293.22891
293.23697
293.24592
293.25531
293.26466
293.27342
293.28126
293.24524
293.24875
293.2532
293.25852
293.2645
293.27078
293.27696
293.28278
293.28802
291.94463
291.92135
291.89772
291.87102
291.83442
291.76812
291.9757
291.95422
291.93229
291.90736
291.87304
291.81055
292.00626
291.98651
291.96625
291.9431
291.91108
291.85247
292.03638
292.01829
291.99964
291.97825
291.94857
291.89392
292.06626
292.04972
292.03263
292.01297
291.98562
291.93497
292.09621
292.0811
292.06547
292.0475
292.02246
291.97579
292.12671
292.11286
292.09859
292.0822
292.05939
292.01661
292.15832
292.14558
292.13251
292.11758
292.0969
292.05782
292.19174
292.1799
292.16789
292.15429
292.13557
292.09994
292.22771
292.21658
292.20543
292.193
292.17605
292.14354
292.26697
292.25634
292.24588
292.23442
292.21902
292.18924
292.31012
292.29979
292.28982
292.27913
292.26501
292.23752
292.35744
292.34723
292.33757
292.32744
292.31434
292.28881
292.40882
292.3986
292.38907
292.37926
292.3668
292.34264
292.46351
292.45317
292.44363
292.43399
292.42213
292.39984
292.52072
292.51027
292.50071
292.49113
292.47933
292.45601
292.5788
292.56814
292.55832
292.54825
292.53526
292.50736
292.63565
292.62453
292.61409
292.60313
292.58909
292.56302
292.68951
292.67771
292.66659
292.65521
292.64181
292.62165
292.73998
292.72735
292.71554
292.7037
292.69028
292.67067
292.78783
292.77443
292.76207
292.75001
292.73661
292.71714
292.83308
292.81833
292.80472
292.79141
292.77663
292.75532
292.87765
292.86147
292.84652
292.832
292.81591
292.7922
292.92263
292.90468
292.88794
292.87151
292.85332
292.82754
292.96901
292.94949
292.931
292.91272
292.89261
292.86577
293.01651
292.99633
292.97695
292.95753
292.93582
292.90558
293.0639
293.0439
293.02431
293.00424
292.98109
292.94708
293.10755
293.08874
293.06989
293.05006
293.02627
292.98931
293.14438
293.12749
293.11013
293.0912
293.06737
293.02801
293.17394
293.15884
293.14278
293.12461
293.10067
293.06002
293.2007
293.18672
293.17136
293.15333
293.12877
293.08675
293.23088
293.2176
293.20258
293.1845
293.15948
293.11687
293.27013
293.25779
293.24353
293.22604
293.20144
293.15923
293.32058
293.30984
293.29705
293.28096
293.25778
293.21701
293.38048
293.37243
293.3622
293.34858
293.32788
293.28909
293.43111
293.42615
293.41899
293.40847
293.39074
293.353
293.456
293.4535
293.44887
293.44097
293.42619
293.39186
293.47105
293.46998
293.46679
293.4603
293.44684
293.4141
293.48294
293.48238
293.47986
293.47427
293.46241
293.43396
293.51727
293.51739
293.51566
293.51116
293.50103
293.47648
293.57653
293.57891
293.57928
293.57687
293.56923
293.54903
293.62911
293.63569
293.64027
293.64225
293.63936
293.62363
293.64999
293.66039
293.66924
293.67587
293.67883
293.67088
293.65235
293.66522
293.67684
293.68731
293.69556
293.69631
293.65034
293.66672
293.68221
293.69711
293.71134
293.72248
293.63164
293.65247
293.67309
293.69396
293.71512
293.73092
293.56891
293.59369
293.61953
293.64753
293.67936
293.71318
293.46811
293.49447
293.5236
293.55743
293.59888
293.64788
293.33683
293.3621
293.39154
293.42766
293.47502
293.53496
293.21154
293.2331
293.25947
293.2941
293.34163
293.40215
293.08609
293.10382
293.12634
293.1568
293.20169
293.26344
293.01937
293.0332
293.05095
293.07594
293.11398
293.16683
292.97759
292.98913
293.00386
293.0245
293.05821
293.11131
292.97721
292.98797
293.00124
293.01949
293.04849
293.097
292.99755
293.00844
293.02159
293.03908
293.06731
293.11744
293.09322
293.1042
293.1169
293.13315
293.15882
293.20621
293.1613
293.17213
293.18475
293.20099
293.22515
293.26674
293.28886
293.29703
293.30619
293.31687
293.33405
293.36808
293.29323
293.29921
293.30591
293.31468
293.32603
293.33992
)
;

boundaryField
{
    Side1
    {
        type            empty;
    }
    Inlet
    {
        type            totalTemperature;
        gamma           1.4;
        T0              nonuniform List<scalar> 0();
        value           nonuniform List<scalar> 0();
    }
    Side2
    {
        type            empty;
    }
    Outlet
    {
        type            zeroGradient;
    }
    Botwall
    {
        type            zeroGradient;
    }
    Cyli
    {
        type            zeroGradient;
    }
    procBoundary1to0
    {
        type            processor;
        value           nonuniform List<scalar> 
44
(
292.86974
292.6663
293.07441
293.07441
293.3035
293.3035
293.40876
293.42552
293.42552
293.44271
293.44271
293.45106
293.44971
293.45038
293.45038
293.45935
293.46379
293.46957
293.47599
293.48232
293.49477
293.48882
293.49477
293.50375
293.51458
293.52732
293.52732
291.96951
291.93851
292.52064
292.37598
292.25735
292.16284
292.09002
292.03596
292.03596
292.6663
292.6663
291.91282
291.88769
291.86232
291.83386
291.79512
291.7252
)
;
    }
    procBoundary1to3
    {
        type            processor;
        value           nonuniform List<scalar> 
62
(
293.54737
293.54124
293.53364
293.5248
293.51535
293.5062
293.49855
293.493
293.49019
293.49077
293.49407
293.50155
293.51241
293.52604
293.54151
293.5573
293.57115
293.5811
293.58473
293.58152
293.57115
293.55395
293.53121
293.50315
293.47135
293.43761
293.40297
293.37064
293.3425
293.32058
293.30632
293.29855
293.29407
293.28854
293.27795
293.2612
293.24115
293.22412
293.21769
293.22441
293.22441
293.23171
293.24212
293.24669
293.24983
293.2574
293.26884
293.27463
293.27126
293.2524
293.22075
293.16988
293.11124
293.04043
292.97558
292.91425
292.8748
292.86652
292.90698
292.962
293.06817
293.15915
)
;
    }
}


// ************************************************************************* //
