/*--------------------------------*- C++ -*----------------------------------*\
| =========                 |                                                 |
| \\      /  F ield         | OpenFOAM: The Open Source CFD Toolbox           |
|  \\    /   O peration     | Version:  2406                                  |
|   \\  /    A nd           | Website:  www.openfoam.com                      |
|    \\/     M anipulation  |                                                 |
\*---------------------------------------------------------------------------*/
FoamFile
{
    version     2.0;
    format      ascii;
    arch        "LSB;label=32;scalar=64";
    class       volScalarField;
    location    "0.005";
    object      k;
}
// * * * * * * * * * * * * * * * * * * * * * * * * * * * * * * * * * * * * * //

dimensions      [0 2 -2 0 0 0 0];

internalField   nonuniform List<scalar> 
8951
(
0.40101969
0.54910674
0.48079833
0.46439364
0.4598065
0.40095067
258.7429
239.17039
215.51153
187.36923
155.33487
120.92649
86.334063
54.102853
27.153834
9.3060944
2.4196437
1.0592853
0.75596802
0.61164054
0.55001982
0.48148141
0.46513429
0.46118227
0.40089023
357.24905
358.64696
359.08039
358.19536
355.44779
350.39535
342.73969
332.47969
320.0136
306.05108
291.23869
275.65565
258.58071
238.77113
215.09292
187.08543
155.25894
121.05974
86.628107
54.480882
27.508686
9.4962662
2.4618332
1.0645447
0.75782624
0.61272464
0.55092298
0.48218829
0.46603478
0.46267921
0.40083506
355.9411
357.81869
358.71202
358.27086
356.06272
351.5236
344.28621
334.26054
321.76463
307.485
292.14471
275.98393
258.44856
238.39112
214.6802
186.79739
155.17348
121.18229
86.912989
54.852563
27.861315
9.6879111
2.504445
1.0694429
0.75996059
0.61381389
0.5518121
0.48292802
0.46701652
0.46425699
0.40078194
354.06876
356.37423
357.76068
357.88087
356.15043
352.17044
345.41743
335.7166
323.29708
308.80409
293.01548
276.32064
258.33651
238.02513
214.2705
186.50347
155.07752
121.29361
87.18847
55.217796
28.211747
9.8806721
2.5475591
1.0741359
0.76184079
0.61489532
0.55268381
0.48370526
0.46796195
0.46586083
0.40072825
351.63547
354.35341
356.23394
356.87956
355.77202
352.30077
346.10105
336.81013
324.57036
309.97061
293.82132
276.64575
258.23294
237.66681
213.86038
186.20175
154.97
121.39315
87.454301
55.576481
28.560041
10.075241
2.5917652
1.0792023
0.76391701
0.61596432
0.55353534
0.4845263
0.46883022
0.46742893
0.40067174
348.65479
351.77472
354.14983
355.30837
354.82625
352.00286
346.30349
337.50459
325.54426
310.94564
294.53029
276.937
258.12472
237.30898
213.44594
185.89009
154.84972
121.48028
87.710219
55.928516
28.906126
10.272377
2.6374602
1.084568
0.76586435
0.61700208
0.5543648
0.48539963
0.46974389
0.46890253
0.40061145
345.14963
348.65308
351.50208
353.18758
353.29169
351.14355
346.09114
337.76385
326.18063
311.69086
295.10926
277.17012
257.99724
236.94355
213.02282
185.56613
154.71541
121.55435
87.955952
56.273837
29.249858
10.472214
2.6846609
1.0900732
0.76795098
0.61800268
0.5551695
0.48632778
0.47068969
0.47023552
0.40054823
341.16051
345.02087
348.30849
350.53487
351.21121
349.71515
345.37929
337.63476
326.4434
312.16938
295.52475
277.31898
257.83491
236.56164
212.5862
185.22727
154.56566
121.61463
88.191225
56.612454
29.591102
10.675111
2.7333654
1.0956778
0.76978266
0.61894312
0.55594775
0.48730835
0.47164942
0.47139922
0.40048479
336.73747
340.92177
344.61778
347.36353
348.59784
347.76509
344.11055
337.08717
326.36585
312.34516
295.7442
277.35516
257.62259
236.15382
212.13087
184.87074
154.39901
121.6603
88.415753
56.944458
29.92978
10.881498
2.7835999
1.1014426
0.77177655
0.61983051
0.55669505
0.48833467
0.47260464
0.47238097
0.40042529
331.9343
336.41066
340.47709
343.7101
345.48448
345.29533
342.34693
336.00436
325.94931
312.26606
295.75481
277.30009
257.34661
235.71013
211.65125
184.49358
154.21388
121.69037
88.629242
57.270038
30.265948
11.091762
2.8354042
1.1074366
0.77349085
0.62064291
0.5574089
0.4893968
0.47353898
0.47317994
0.40037474
326.80486
331.53875
335.93904
339.6003
341.91889
342.33009
340.07758
334.45734
325.0403
311.90081
295.60135
277.1064
256.98764
235.21987
211.14145
184.09266
154.00865
121.70355
88.831387
57.589399
30.599978
11.306004
2.8888321
1.1136972
0.77495473
0.62138928
0.55808148
0.49048064
0.47443902
0.473804
0.4003383
321.40788
326.36129
331.05589
335.09975
337.92446
338.9109
337.32873
332.43064
323.70218
311.10077
295.15254
276.70986
256.52604
234.67214
210.59541
183.66479
153.78179
121.70096
89.021915
57.902557
30.932764
11.524334
2.943955
1.1202213
0.77701549
0.6220783
0.55871006
0.49156321
0.47529432
0.47426865
0.40031958
315.80575
320.93832
325.88419
330.26694
333.55082
335.06843
334.14913
329.9492
321.93812
309.93152
294.37924
276.12034
255.94679
234.05628
210.007
183.20672
153.5317
121.68449
89.200443
58.209296
31.264544
11.746812
3.0008592
1.126968
0.77817644
0.62267974
0.55928553
0.49258324
0.47609826
0.47459743
0.40032318
310.06179
315.33149
320.4827
325.15639
328.84859
330.85611
330.5554
327.06453
319.75138
308.40572
293.32026
275.32466
255.23629
233.36228
209.37022
182.71522
153.25655
121.64681
89.366348
58.509342
31.595494
11.973481
3.0596474
1.1339155
0.77912267
0.62327375
0.55980404
0.49355496
0.47684546
0.47482263
0.40035124
304.23902
309.60315
314.91202
319.82531
323.8631
326.33032
326.58993
323.78019
317.18267
306.50823
291.96901
274.31144
254.3828
232.58093
208.67928
182.18713
152.95467
121.58876
89.519091
58.802286
31.925595
12.203731
3.1204345
1.1410549
0.78019953
0.62377867
0.56026046
0.49448595
0.47752995
0.47498548
0.40040511
298.39882
303.81484
309.23298
314.33249
318.65415
321.53739
322.30274
320.12965
314.25513
304.25946
290.3257
273.07447
253.37691
231.70395
207.92881
181.61953
152.62454
121.51046
89.658192
59.087739
32.254468
12.437462
3.1833344
1.1483926
0.78115915
0.62432021
0.56065596
0.49538408
0.4781775
0.47513459
0.40048534
292.59974
298.02624
303.50578
308.73759
313.28461
316.52353
317.74259
316.16146
310.97498
301.69731
288.37925
271.60975
252.21128
230.72462
207.11421
181.00973
152.26477
121.41113
89.783229
59.365312
32.581837
12.674683
3.248424
1.1559483
0.78196249
0.62477563
0.56098311
0.49625762
0.47869474
0.47532177
0.40059188
286.89618
292.29372
297.78834
303.09938
307.81304
311.34278
312.95929
311.91915
307.38397
298.81725
286.15018
269.91977
250.88259
229.63821
206.23171
180.35543
151.87415
121.29011
89.893838
59.634779
32.907592
12.915284
3.3156983
1.163742
0.78281316
0.62530925
0.56126073
0.49711289
0.47881198
0.47559378
0.40072426
281.3373
286.66908
292.13481
297.47377
302.29607
306.05095
308.00513
307.44929
303.52436
295.64557
283.66603
268.00014
249.3886
228.44109
205.2782
179.65473
151.45172
121.14685
89.98968
59.895808
33.231854
13.159251
3.3852679
1.1717793
0.78370897
0.62577797
0.56147182
0.49795175
0.47877413
0.47598858
0.40088149
275.96637
281.19872
286.59465
291.9129
296.78771
300.7029
302.93294
302.80025
299.43718
292.21864
280.92546
265.86247
247.72989
227.1316
204.25186
178.90647
150.99682
120.98094
90.070464
60.147984
33.554291
13.406933
3.4572439
1.1800546
0.78451611
0.62630197
0.56164756
0.49877204
0.47866911
0.4765404
0.40106197
270.82038
275.92313
281.212
286.46448
291.33885
295.34808
297.79898
298.02077
295.16636
288.57374
277.95629
263.52994
245.91275
225.71087
203.15224
178.11011
150.50909
120.79217
90.135972
60.390967
33.873513
13.658936
3.5317399
1.1885621
0.78516232
0.626816
0.56179569
0.49956666
0.47852191
0.47726871
0.4012635
265.92994
270.87663
276.02512
281.17064
285.99486
290.0393
292.65123
293.16114
290.7574
284.74895
274.7898
261.00933
243.94448
224.18173
201.98022
177.26574
149.98851
120.58048
90.18607
60.624611
34.188987
13.913624
3.6090383
1.1973083
0.78575441
0.62732263
0.5619073
0.50032281
0.47835412
0.47817948
0.40148319
261.31957
266.08763
271.06672
276.0687
280.79776
284.82408
287.53558
288.27098
286.25701
280.78487
271.45855
258.32631
241.84081
222.54996
200.73807
176.37433
149.43562
120.3461
90.220668
60.848862
34.500623
14.169645
3.6892789
1.2063194
0.78645308
0.62792255
0.56206801
0.50102982
0.47818498
0.4792691
0.40171776
257.00808
261.57886
266.36404
271.19078
275.78483
279.74455
282.49741
283.39815
281.71246
276.72421
267.99707
255.50475
239.61465
220.82324
199.42927
175.43773
148.85144
120.08946
90.239563
61.063682
34.808292
14.426879
3.7725137
1.2156533
0.7873824
0.62843292
0.56220333
0.50167494
0.4780319
0.48053006
0.40196396
253.00908
257.36777
261.93897
266.56382
270.98834
274.83824
277.57904
278.58802
277.16986
272.6101
264.44124
252.56901
237.27793
219.01017
198.05859
174.45858
148.23741
119.81126
90.241643
61.269067
35.111863
14.685023
3.8587818
1.2253996
0.78858104
0.62910829
0.56242604
0.50223909
0.47791826
0.48195617
0.40221853
249.33161
253.4671
257.80861
262.20988
266.43578
270.13824
272.81899
273.88295
272.67342
268.4854
260.82903
249.55002
234.85346
217.12294
196.63273
173.44056
147.59552
119.51264
90.233577
61.465196
35.411198
14.943759
3.9483141
1.2356181
0.78998716
0.62974979
0.56271459
0.50270477
0.47786008
0.48355055
0.40247776
245.98093
249.88559
253.98587
258.1467
262.15031
265.67341
268.25194
269.3222
268.26533
264.39237
257.19939
246.48044
232.36566
215.17643
195.16017
172.38833
146.92824
119.19481
90.211474
61.652102
35.706148
15.202787
4.041964
1.2463604
0.79157045
0.63033341
0.56298465
0.50307237
0.47786409
0.48531727
0.40273721
242.95917
246.62862
250.48004
254.38819
258.15111
261.46872
263.90879
264.94185
263.98537
260.37203
253.59122
243.39365
229.83941
213.1873
193.6509
171.3074
146.23866
118.85934
90.173626
61.829828
35.996534
15.461805
4.1398213
1.257671
0.79326745
0.63080019
0.56347496
0.50334063
0.47793668
0.48725813
0.40299144
240.26593
243.69878
247.29737
250.94496
254.45386
257.54541
259.81668
260.77449
259.87035
256.46319
250.04228
240.32298
227.30158
211.17361
192.11602
170.20416
145.53039
118.50813
90.123107
61.998546
36.282131
15.72049
4.2411484
1.2695837
0.79504778
0.63135047
0.56384784
0.50350126
0.47808276
0.48937683
0.40323402
237.89874
241.09639
244.44155
247.82478
251.07107
253.92132
255.99911
256.84909
255.95356
252.70146
246.58769
237.29995
224.77936
209.15356
190.56734
169.08569
144.80749
118.14336
90.060933
62.158488
36.562706
15.977624
4.3458367
1.2821249
0.79686307
0.63213195
0.56440922
0.50356358
0.47830538
0.49167686
0.40345764
235.85349
238.81985
241.91412
245.03291
248.01241
250.61118
252.47622
253.19117
252.26489
249.11914
243.25935
234.35269
222.29668
207.14467
189.01689
167.95965
144.07448
117.76749
89.988256
62.309974
36.838065
16.23321
4.4538153
1.295314
0.79877441
0.6329537
0.56502951
0.50356747
0.47860252
0.49415925
0.40365443
234.12461
236.86595
239.71469
242.57241
245.28503
247.62686
249.26511
249.8232
248.83155
245.74643
240.08765
231.5092
219.86806
205.16472
187.47715
166.83432
143.33631
117.38328
89.906368
62.453428
37.107861
16.487499
4.5645113
1.3091591
0.80073754
0.63372272
0.56534354
0.5035526
0.47896076
0.49682073
0.40381644
232.70521
235.22989
237.84098
240.44409
242.89345
244.97729
246.37974
246.76448
245.67806
242.61225
237.10369
228.80008
217.52141
203.23504
185.96232
165.71871
142.59842
116.99369
89.816668
62.589382
37.371988
16.74018
4.6774237
1.3236608
0.80277518
0.63461224
0.56599122
0.50350619
0.47934783
0.49965189
0.40393623
231.58692
233.90516
236.2887
238.64631
240.83928
242.66801
243.83051
244.03029
242.82492
239.74221
234.33697
226.25481
215.29355
201.37711
184.48749
164.62223
141.86647
116.60194
89.720757
62.718449
37.630564
16.991218
4.7924384
1.3388155
0.80482886
0.63575142
0.56654798
0.50336538
0.47969941
0.50263642
0.40400739
230.75974
232.88343
235.05143
237.17494
239.1209
240.69977
241.62524
241.63067
240.28701
237.15618
231.81169
223.90096
213.20459
199.60895
183.06646
163.55421
141.14626
116.21143
89.620396
62.841298
37.883692
17.2406
4.9093348
1.3546193
0.8068667
0.63705371
0.56678892
0.50321328
0.47991251
0.50575011
0.40402981
230.21158
232.15412
234.12038
236.02343
237.73477
239.06893
239.76813
239.5695
238.07269
234.86596
229.54201
221.76029
211.26837
197.94594
181.71166
162.52376
140.44378
115.82572
89.517422
62.958642
38.131459
17.488129
5.0280739
1.3710697
0.80892572
0.63835043
0.56710687
0.50308118
0.4804503
0.50896082
0.40399261
229.92739
231.70376
233.48403
235.18222
236.6734
237.77378
238.25487
237.84976
236.18699
232.87836
227.53568
219.83056
209.49689
196.40116
180.43488
161.53991
139.7651
115.44846
89.41377
63.071252
38.373948
17.733579
5.1483278
1.3881619
0.81104284
0.6395723
0.56784081
0.50285494
0.4814817
0.51222958
0.40390062
229.89103
231.51859
233.12841
234.63862
235.92634
236.80737
237.08127
236.47262
234.63619
231.20437
225.80714
218.12665
207.90936
194.98987
179.24848
160.61175
139.11632
115.0834
89.311462
63.179962
38.611293
17.976737
5.2696714
1.4058821
0.81322324
0.64077659
0.56826399
0.50260258
0.48285443
0.51551002
0.40375567
230.05399
231.56054
233.03219
234.37407
235.4777
236.15761
236.23829
235.43415
233.42338
229.85576
224.37966
216.68326
206.52604
193.72862
178.16485
159.74827
138.50358
114.73436
89.21259
63.285666
38.843669
18.217492
5.3916629
1.4242041
0.81545993
0.64205943
0.56825518
0.50250829
0.484403
0.51874575
0.40356182
230.42921
231.80503
233.14496
234.36137
235.30515
235.80958
235.708
234.71971
232.53762
228.82571
223.25232
215.50273
205.35554
192.62924
177.19481
158.95794
137.93283
114.40512
89.119289
63.389311
39.071269
18.455749
5.5140971
1.4430939
0.81773225
0.64346745
0.56818881
0.50252351
0.48589013
0.52187122
0.40332479
230.98219
232.25699
233.46993
234.54042
235.35752
235.73572
235.47131
234.31097
231.96238
228.10024
222.40493
214.57796
204.40121
191.6998
176.34752
158.24863
137.40984
114.09945
89.033731
63.491885
39.294308
18.691316
5.6368155
1.4625203
0.82003572
0.64497773
0.56825495
0.50261575
0.48752577
0.52481518
0.40305219
231.67829
232.87207
233.99141
234.94815
235.61377
235.85659
235.48068
234.18933
231.68626
227.6743
221.84294
213.9148
203.66949
190.94801
175.63117
157.62755
136.9401
113.82104
88.958098
63.59442
39.513053
18.924011
5.7598627
1.4824638
0.82237901
0.6465329
0.56858732
0.50281531
0.48929514
0.52750888
0.40275318
232.48071
233.61284
234.65958
235.53157
236.09415
236.20906
235.67859
234.26946
231.67071
227.53814
221.5671
213.51259
203.16447
190.37992
175.05264
157.10116
136.52874
113.57343
88.894585
63.697982
39.727853
19.153715
5.8832441
1.5029127
0.82475046
0.648077
0.56934651
0.50311693
0.49115889
0.52989699
0.40243707
233.34747
234.4375
235.43338
236.24456
236.73291
236.76785
236.13091
234.5717
231.82686
227.59521
221.53604
213.36002
202.88316
189.99808
174.61708
156.675
136.18042
113.35999
88.845398
63.803657
39.939159
19.380381
6.0067893
1.5238473
0.82716935
0.64956728
0.57009522
0.50347265
0.49306631
0.53193954
0.40211197
234.23279
235.3004
236.26726
237.0412
237.4836
237.46261
236.75576
235.11273
232.24534
227.85317
221.65904
213.38966
202.81477
189.80235
174.32768
156.35351
135.8993
113.18387
88.812797
63.912518
40.147547
19.604033
6.1303828
1.5452449
0.82963644
0.65098349
0.57065922
0.50382135
0.49493633
0.53361105
0.40178384
235.08708
236.15203
237.11208
237.8733
238.29704
238.24779
237.5013
235.80475
232.8672
228.37675
222.03062
213.5883
202.8844
189.77867
174.18562
156.1399
135.68886
113.04787
88.799392
64.025533
40.353638
19.82508
6.2538208
1.5670832
0.83217062
0.65233388
0.57107082
0.50414221
0.496688
0.53491533
0.4014562
235.85726
236.93908
237.91429
238.68788
239.11909
239.07068
238.31538
236.59685
233.62115
229.06255
222.62291
214.04106
203.13914
189.86566
174.17843
156.03615
135.55191
112.95438
88.802125
64.143425
40.557913
20.043844
6.3769712
1.5893412
0.83480008
0.65365058
0.57151437
0.504431
0.49825788
0.53588079
0.40113098
236.48864
237.60659
238.61869
239.42961
239.89433
239.87583
239.1421
237.43196
234.44386
229.85783
223.35177
214.6614
203.61089
190.13132
174.25976
156.03263
135.49105
112.9062
88.820906
64.267091
40.760729
20.260063
6.5002126
1.6120004
0.837501
0.65496369
0.57211834
0.50468439
0.49956725
0.5365377
0.40081041
236.92647
238.0993
239.1694
240.04121
240.56852
240.60927
239.93153
238.26695
235.30754
230.72161
224.17943
215.40569
204.22214
190.57043
174.49165
156.09592
135.4941
112.90204
88.866232
64.397451
40.962368
20.473967
6.6234186
1.6350427
0.84025498
0.65626745
0.57284464
0.50489876
0.50060417
0.53707414
0.40049712
237.11503
238.35826
239.50639
240.46212
241.08008
241.20882
240.62166
239.04057
236.14934
231.60118
225.05917
216.23418
204.94104
191.12746
174.86025
156.27303
135.54568
112.92534
88.934146
64.5349
41.163028
20.685746
6.7464498
1.65845
0.84303558
0.65750572
0.573562
0.50505971
0.50137206
0.53764843
0.40019384
237.03661
238.34664
239.57595
240.63184
241.36788
241.61304
241.14869
239.68735
236.90201
232.43673
225.93799
217.10227
205.73247
191.7775
175.3265
156.55538
135.67964
112.99589
89.024061
64.679704
41.362938
20.89551
6.8691919
1.6822054
0.84580136
0.65859532
0.57418157
0.50511173
0.50182179
0.53831842
0.3999032
236.64341
238.06162
239.39507
240.54947
241.39368
241.76817
241.4589
240.15375
237.51568
233.17877
226.76845
217.96636
206.55918
192.49188
175.87132
156.9141
135.88587
113.11802
89.136205
64.831988
41.562206
21.103377
6.9915384
1.7062908
0.84849367
0.65947279
0.57468437
0.50521006
0.5020314
0.53916461
0.39962739
235.80934
237.35907
238.84416
240.16273
241.16932
241.67392
241.51106
240.39239
237.94624
233.78129
227.50411
218.7817
207.38113
193.2384
176.4719
157.33542
136.14655
113.27859
89.26958
64.991646
41.761022
21.309385
7.1134283
1.7306862
0.85103993
0.66010552
0.57509757
0.50524394
0.50207868
0.54024327
0.39936763
234.54497
236.22106
237.85195
239.3426
240.56103
241.29691
241.33002
240.37686
238.12908
234.17684
228.08679
219.49627
208.15418
193.98163
177.10219
157.80254
136.45258
113.47336
89.422596
65.158258
41.95928
21.513657
7.2348751
1.7553728
0.85336892
0.66049441
0.57550866
0.50510365
0.50189552
0.5415184
0.3991239
232.83782
234.64815
236.43229
238.09671
239.50895
240.47544
240.77787
240.09591
238.06115
234.31895
228.47117
220.06429
208.83552
194.68461
177.73363
158.29611
136.79269
113.69672
89.592875
65.331043
42.156633
21.716065
7.356232
1.7803318
0.85543796
0.66068553
0.57598613
0.50483432
0.50152411
0.54295058
0.39889481
230.67933
232.62755
234.57015
236.41559
238.03308
239.23661
239.78557
239.40943
237.70788
234.22904
228.6003
220.44177
209.38225
195.30933
178.33576
158.79452
137.15371
113.94169
89.777221
65.508868
42.352643
21.915234
7.4773499
1.8055864
0.85725418
0.66076956
0.5765585
0.50436026
0.50093206
0.54451269
0.39867746
228.07513
230.16131
232.26385
234.29377
236.1226
237.57242
238.38231
238.30282
236.93272
233.8413
228.5035
220.58062
209.75345
195.81821
178.877
159.27433
137.5206
114.20002
89.971748
65.690236
42.546896
22.111082
7.5974262
1.8312211
0.8588689
0.66085791
0.57715588
0.50371919
0.50012416
0.54618625
0.39846764
225.04597
227.2662
229.52589
231.73925
233.78092
235.47626
236.56924
236.79248
235.76381
233.03518
228.12392
220.50167
209.90924
196.17526
179.32579
159.71093
137.87677
114.46221
90.171775
65.873244
42.738841
22.303466
7.7164512
1.8572763
0.86035611
0.6610453
0.57763913
0.50294494
0.49909989
0.54796234
0.39826028
221.62717
223.97307
226.38216
228.77242
231.02233
232.96082
234.34256
234.8741
234.20002
231.8531
227.34047
220.16085
209.86141
196.34464
179.65098
160.07928
138.20448
114.71746
90.371826
66.055567
42.927731
22.492167
7.8342943
1.8837189
0.86179816
0.66150025
0.57789668
0.50206444
0.49783258
0.54983879
0.39804948
217.86844
220.32705
222.87261
225.42744
227.87467
230.04776
231.71311
232.55374
232.24068
230.29013
226.19646
219.44578
209.58967
196.32841
179.82415
160.35468
138.48533
114.95414
90.565717
66.234461
43.112619
22.676909
7.9508192
1.9105295
0.86327349
0.6623399
0.57794978
0.50108652
0.4963791
0.5518166
0.39782788
213.83286
216.38678
219.05077
221.75204
224.37909
226.77089
228.70417
229.85178
229.89481
228.34728
224.68926
218.38998
208.97306
196.13666
179.83035
160.5133
138.70075
115.16005
90.746665
66.4068
43.292368
22.857359
8.0658875
1.9377228
0.86484702
0.66339541
0.57791554
0.50000536
0.49477458
0.55389704
0.39758745
209.59461
212.22233
214.98197
217.80605
220.58913
223.17672
225.35207
226.80102
227.18152
226.03517
222.82136
216.99088
208.04599
195.64522
179.70807
160.53638
138.83294
115.32271
90.907448
66.569126
43.465664
23.033134
8.1793722
1.9653184
0.86656679
0.6644611
0.57773146
0.49877692
0.49305421
0.55607501
0.39732067
205.23566
207.91227
210.7407
213.65911
216.56869
219.32234
221.71101
223.43626
224.13409
223.37593
220.60454
215.2542
206.80157
194.86476
179.35434
160.46199
138.86447
115.42986
91.040614
66.717733
43.631047
23.203812
8.2911136
1.9933331
0.8684635
0.66530661
0.57712639
0.49736088
0.49126376
0.55831897
0.39702163
200.84173
203.53992
206.4072
209.38762
212.38945
215.27378
217.84045
219.80747
220.79463
220.40175
218.06016
213.19104
205.24534
193.80915
178.72574
160.21949
138.82254
115.46794
91.138855
66.848778
43.786941
23.368921
8.4010783
2.0217838
0.87055165
0.66579345
0.57585177
0.49572914
0.48943984
0.56056783
0.39668676
196.49795
199.18911
202.06349
205.07106
208.12748
211.10263
213.8063
215.97291
217.21437
217.15409
215.21906
210.82131
203.38895
192.47313
177.86911
159.75574
138.66923
115.45066
91.19452
66.958402
43.931696
23.527937
8.5088632
2.0506864
0.87283239
0.66594662
0.57452932
0.49388359
0.48761889
0.56274092
0.39631517
192.28418
194.9397
197.78898
200.78777
203.85925
206.88251
209.67824
211.99302
213.45527
213.68024
212.11981
208.17312
201.25003
190.86781
176.77975
159.09976
138.34392
115.36567
91.201261
67.043246
44.063637
23.680408
8.6143304
2.0800581
0.87529637
0.66593693
0.57331305
0.49189942
0.48584287
0.56476112
0.39590853
188.27106
190.86356
193.65644
196.61098
199.65775
202.68524
205.52555
207.9383
209.57271
210.03503
208.80764
205.28106
198.85128
189.00492
175.45148
158.24626
137.87137
115.1644
91.17406
67.099144
44.181045
23.825864
8.7176098
2.109906
0.87792426
0.6658019
0.57223588
0.4898667
0.48410664
0.5665459
0.39547106
184.51749
187.02192
189.72931
192.60602
195.58972
198.57826
201.41546
203.87493
205.62721
206.27578
205.33282
202.18671
196.22444
186.90645
173.89882
157.20366
137.24981
114.85502
91.086116
67.118562
44.28253
23.963972
8.8186158
2.1402114
0.88068977
0.66530554
0.5712724
0.48781197
0.4823799
0.56798947
0.39500939
181.06901
183.46357
186.05966
188.82816
191.71336
194.62213
197.41008
199.86533
201.6797
202.46046
201.74825
198.93572
193.40623
184.59911
172.13983
155.978
136.48184
114.44215
90.91679
67.111135
44.367522
24.094585
8.9174452
2.1710126
0.88356748
0.66448978
0.57038276
0.48573145
0.48067027
0.56893175
0.39453218
177.95704
180.22384
182.68692
185.32103
188.07644
190.86851
193.56431
195.96662
197.78811
198.64584
198.10743
195.57585
190.43626
182.11253
170.19382
154.57658
135.57233
113.92397
90.680727
67.075211
44.434619
24.217571
9.0143188
2.2023886
0.88653236
0.66375112
0.56953044
0.48368839
0.47902468
0.56915991
0.39405083
175.19911
177.32452
179.63755
182.11607
184.71552
187.35902
189.92447
192.22906
194.00549
194.88589
194.4631
192.15605
187.35704
179.48062
168.08516
153.01641
134.52616
113.30139
90.375833
66.989691
44.48158
24.332722
9.1094416
2.2343949
0.88955986
0.66316862
0.56867157
0.48175357
0.47751034
0.56855045
0.39358131
172.8005
174.77528
176.92613
179.23319
181.6562
184.12506
186.52769
188.69511
190.37877
191.23042
190.866
188.72537
184.21311
176.74058
165.84141
151.31498
133.34979
112.57796
90.001955
66.858886
44.505661
24.439761
9.2030834
2.2670413
0.8926283
0.66271243
0.56775204
0.47999366
0.47619705
0.56741562
0.39314603
170.75653
172.57577
174.55707
176.68211
178.91399
181.18838
183.40218
185.39927
186.94822
187.72423
187.36363
185.33161
181.04967
173.93203
163.49395
149.49236
132.05766
111.75969
89.560827
66.687702
44.507314
24.538961
9.2954757
2.3003224
0.89571427
0.66228671
0.56673746
0.47847037
0.47514836
0.56639844
0.39277001
169.05406
170.71682
172.52574
174.46335
176.49522
178.56171
180.56746
182.36799
183.74693
184.4062
183.99912
182.0199
177.91101
171.0954
161.07671
147.57534
130.66608
110.85483
89.0559
66.477387
44.497307
24.630901
9.386941
2.3343312
0.89879333
0.6618267
0.56565599
0.47723835
0.4744127
0.5658833
0.39247314
167.67286
169.18172
170.81957
172.56914
174.39764
176.24901
178.03431
179.61933
180.80028
181.30852
180.81034
178.83182
174.83975
168.27111
158.62468
145.59066
129.19424
109.87445
88.492309
66.229403
44.467332
24.715586
9.4776806
2.3692096
0.90184173
0.66129367
0.56459447
0.47634002
0.47403682
0.56612232
0.39227102
166.58769
167.94826
169.41999
170.98525
172.61206
174.2469
175.80595
177.16369
178.12628
178.45663
177.82945
175.80473
171.87616
165.49949
156.17511
143.57014
127.66437
108.83217
87.876987
65.946088
44.412565
24.793186
9.567912
2.4050659
0.90484017
0.66067493
0.56365283
0.47579789
0.4740539
0.56718226
0.39217874
165.77025
166.99068
168.30431
169.69266
171.12385
172.54597
173.87909
175.00483
175.73623
175.86942
175.08242
172.97059
169.05618
162.81767
153.76304
141.54775
126.0998
107.74307
87.218007
65.63105
44.339978
24.864321
9.6580042
2.4420072
0.90776903
0.66003273
0.56290564
0.47560841
0.47445787
0.56897895
0.39220613
165.19047
166.28108
167.44721
168.66921
169.91468
171.13239
172.24493
173.13827
173.63901
173.55885
172.58897
170.35595
166.41107
160.25866
151.41895
139.54595
124.52182
106.62217
86.524202
65.288774
44.251615
24.929748
9.7483537
2.4801773
0.91061894
0.65942275
0.56239563
0.47575212
0.47521398
0.57134225
0.39235569
164.81593
165.78878
166.82018
167.88908
168.96207
169.98782
170.8905
171.55532
171.83321
171.53045
170.36284
167.98213
163.96844
157.85385
149.1801
137.59058
122.95377
105.48557
85.805594
64.924499
44.149743
24.990344
9.8392844
2.5197503
0.91339264
0.65882729
0.56211594
0.47618178
0.47625843
0.57408262
0.39262932
164.61014
165.47849
166.38958
167.32078
168.23726
169.08704
169.79499
170.24356
170.30755
169.78298
168.41001
165.86288
161.74929
155.6288
147.07274
135.71467
121.4196
104.3507
85.073244
64.544188
44.03703
25.04718
9.9312415
2.560865
0.91609905
0.65822073
0.5620004
0.47684241
0.47749641
0.57711212
0.39302733
164.53509
165.31311
166.11948
166.92981
167.70767
168.39987
168.92832
169.18587
169.04424
168.30659
166.7287
164.00453
159.76753
153.60802
145.11381
133.94289
119.94046
103.23492
84.338814
64.154412
43.91654
25.101552
10.024511
2.6036632
0.91875337
0.65750749
0.56197231
0.47768327
0.47882346
0.58035396
0.39353418
164.54945
165.25241
165.97079
166.67859
167.33761
167.89322
168.2624
168.35187
168.02107
167.08436
165.30848
162.40419
158.02744
151.80075
143.32748
132.29608
118.5371
102.15535
83.614249
63.762184
43.791676
25.154959
10.119998
2.6483022
0.92137563
0.65650471
0.5619745
0.47865781
0.48014667
0.58360436
0.39413937
164.61299
165.25523
165.90228
166.52634
167.08729
167.52774
167.76533
167.70796
167.2107
166.09473
164.13466
161.05505
156.5327
150.21193
141.73137
130.79177
117.22875
101.1284
82.911495
63.374783
43.66608
25.208843
10.218505
2.694954
0.92398521
0.65518681
0.56199343
0.4797229
0.48138309
0.5866874
0.39487361
164.67962
165.27654
165.86995
166.42996
166.91475
167.26285
167.3974
167.2174
166.58042
165.30989
163.186
159.94384
155.27865
148.85113
140.33448
129.44514
116.03214
100.16925
82.242172
62.999651
43.543522
25.264596
10.320577
2.7438087
0.92659937
0.65362716
0.56202388
0.48085357
0.4824371
0.58927296
0.3957489
164.70426
165.2733
165.83236
166.34934
166.78059
167.061
167.11785
166.8421
166.09304
164.695
162.43173
159.04583
154.24433
147.71011
139.13686
128.26536
114.96027
99.291179
81.61717
62.644058
43.427874
25.323604
10.426919
2.7950904
0.92931175
0.6519744
0.56208558
0.48203655
0.48323613
0.59077488
0.39673472
164.67985
165.23261
165.76893
166.25731
166.65221
166.88583
166.88734
166.54176
165.70887
164.21263
161.83833
158.33314
153.41176
146.77535
138.13473
127.25622
114.02207
98.505011
81.046264
62.314954
43.323083
25.387509
10.538278
2.8491259
0.93229245
0.65046587
0.56223403
0.48323932
0.48378116
0.59090165
0.39776904
164.56902
165.11144
165.63471
166.10647
166.47987
166.68731
166.65508
166.26677
165.38029
163.81813
161.36523
157.77117
152.75431
146.0263
137.31755
126.41537
113.2217
97.818564
80.5377
62.018803
43.233117
25.458072
10.655659
2.9067575
0.93568543
0.64919214
0.56244119
0.48441419
0.48410497
0.58980727
0.39878036
164.27097
164.81831
165.34506
165.81897
166.1935
166.3996
166.36146
165.9607
165.05309
163.45898
160.96165
157.30984
152.22789
145.4321
136.66501
125.73278
112.55776
97.236014
80.097751
61.761291
43.16197
25.537165
10.779448
2.9682177
0.93963178
0.64803387
0.56259991
0.48554455
0.48423525
0.58794631
0.39970777
163.72592
164.29646
164.84809
165.34729
165.74652
165.97496
165.95718
165.57282
164.67576
163.08415
160.57896
156.90713
151.79285
144.957
136.15005
125.19163
112.0232
96.757515
79.730305
61.546966
43.113692
25.626484
10.909341
3.0338858
0.944279
0.64695715
0.56268548
0.48663445
0.48420206
0.58570777
0.40054769
162.95158
163.55252
164.13758
164.6731
165.11119
165.38059
165.40386
165.06101
164.20344
162.64695
160.16981
156.51617
151.40697
144.56493
135.74254
124.77065
111.606
96.379065
79.436512
61.378732
43.091687
25.727132
11.047493
3.1029993
0.94977796
0.64621037
0.56270073
0.48768487
0.48405307
0.58357327
0.40133565
161.93156
162.56834
163.19376
163.77441
164.26252
164.58795
164.66892
164.38902
163.59658
162.10524
159.69025
156.09203
151.02801
144.21646
135.40886
124.44366
111.28898
96.092233
79.214488
61.257685
43.091449
25.83965
11.194013
3.1751814
0.95625395
0.6459765
0.56263721
0.48869297
0.48383544
0.58226417
0.40209668
160.65731
161.3333
162.00362
162.63545
163.18157
163.5737
163.72541
163.52537
162.81906
161.41843
159.0959
155.58785
150.6068
143.86445
135.10841
124.17842
111.04968
95.884088
79.059006
61.184315
43.107475
25.965255
11.349162
3.2507807
0.96382893
0.64600425
0.56256746
0.48965427
0.48357931
0.58233003
0.40284505
159.13247
159.84857
160.56555
161.25147
161.86008
162.32552
162.5569
162.44898
161.84495
160.55564
158.35114
154.96404
150.10103
143.46532
134.80193
123.94152
110.86286
95.738057
78.961005
61.157049
43.156674
26.105224
11.512991
3.3300409
0.9725864
0.64617462
0.56257818
0.49056882