/*--------------------------------*- C++ -*----------------------------------*\
| =========                 |                                                 |
| \\      /  F ield         | OpenFOAM: The Open Source CFD Toolbox           |
|  \\    /   O peration     | Version:  2406                                  |
|   \\  /    A nd           | Website:  www.openfoam.com                      |
|    \\/     M anipulation  |                                                 |
\*---------------------------------------------------------------------------*/
FoamFile
{
    version     2.0;
    format      ascii;
    arch        "LSB;label=32;scalar=64";
    class       volVectorField;
    location    "0.005";
    object      U;
}
// * * * * * * * * * * * * * * * * * * * * * * * * * * * * * * * * * * * * * //

dimensions      [0 1 -1 0 0 0 0];

internalField   nonuniform List<vector> 
8951
(
(52.284828 -0.40281314 0)
(56.91838 0.6759517 1.0177029e-18)
(56.278765 0.39892563 -4.3446639e-22)
(55.873347 0.12888392 1.5502158e-18)
(54.562087 -0.19099992 -1.7670393e-19)
(52.281319 -0.40950446 -1.2637236e-24)
(48.049089 -2.6527313 4.3688127e-21)
(50.360098 -2.2775312 -1.2068964e-19)
(52.507543 -1.8968009 1.0339833e-19)
(54.494001 -1.5034697 1.6132869e-19)
(56.313715 -1.0898722 -4.1790003e-21)
(57.943912 -0.64849952 1.7557433e-21)
(59.333504 -0.18246618 0)
(60.399338 0.29951868 0)
(61.00743 0.72160086 -3.0109437e-19)
(60.774989 1.0677251 -1.4233603e-21)
(59.707385 1.0369395 0)
(58.733743 0.99442124 0)
(58.057168 0.94893079 -6.578644e-19)
(57.482849 0.80729626 2.3079247e-18)
(56.93042 0.6551562 -1.0076727e-18)
(56.291939 0.38503035 0)
(55.886076 0.11546881 1.8721423e-22)
(54.571922 -0.18843485 1.6213997e-19)
(52.27814 -0.41661904 -1.3756734e-24)
(22.084412 -4.7350787 -1.2320712e-20)
(23.253129 -4.720188 3.7747512e-20)
(24.60733 -4.7022373 -1.2413526e-20)
(26.168596 -4.6648716 2.4028158e-20)
(27.955582 -4.600279 -2.2825627e-20)
(29.979575 -4.5008117 0)
(32.238102 -4.3586544 3.9133573e-20)
(34.70775 -4.1673725 0)
(37.338661 -3.9246977 0)
(40.055601 -3.6350056 6.9297959e-21)
(42.770048 -3.3095899 -9.6133415e-20)
(45.401054 -2.9631851 -5.1508e-21)
(47.893442 -2.6079724 0)
(50.222486 -2.2493874 0)
(52.384403 -1.8851905 7.3467643e-24)
(54.381691 -1.5080072 -1.6141374e-19)
(56.209635 -1.1096616 -1.3419144e-19)
(57.847102 -0.68228289 0)
(59.245078 -0.22842665 -1.509096e-21)
(60.324468 0.24327183 2.7007321e-21)
(60.951822 0.66108874 2.9611549e-19)
(60.751029 1.0104067 3.5027058e-19)
(59.708951 0.9811155 1.3975307e-21)
(58.735697 0.94732899 -1.4380083e-21)
(58.063018 0.91718899 0)
(57.49215 0.7828732 -1.1426292e-18)
(56.942307 0.63425877 9.9769281e-19)
(56.305081 0.37112404 0)
(55.898607 0.10194711 0)
(54.581582 -0.18632667 1.8069235e-23)
(52.275295 -0.42410128 -2.9505879e-24)
(22.102052 -4.5071052 -2.4241909e-20)
(23.247159 -4.4979485 7.4256719e-25)
(24.574937 -4.4876816 0)
(26.107495 -4.4598854 2.8011735e-24)
(27.864215 -4.4069457 3.3764836e-20)
(29.85762 -4.3214252 -2.102966e-20)
(32.087553 -4.1956782 -2.8991816e-20)
(34.533801 -4.0230329 -4.3747894e-20)
(37.150042 -3.8004881 -5.4654429e-20)
(39.863576 -3.5312887 -5.4970018e-20)
(42.585775 -3.2256374 1.9688971e-19)
(45.232408 -2.8977637 7.1616004e-20)
(47.743352 -2.5601512 -1.0797499e-25)
(50.08961 -2.2185327 3.6414323e-21)
(52.265239 -1.8710675 -9.4126636e-20)
(54.272577 -1.5101677 -1.6401433e-19)
(56.107964 -1.1272333 -1.3438548e-19)
(57.751969 -0.71406877 -1.1106693e-19)
(59.157685 -0.27261262 -1.511335e-21)
(60.249867 0.18847127 0)
(60.895002 0.60202129 -2.9572114e-19)
(60.726517 0.95342018 -3.3213406e-19)
(59.709694 0.9344323 -3.2662213e-19)
(58.736454 0.89562552 0)
(58.067939 0.88546776 -1.2589739e-21)
(57.501167 0.75834542 2.207487e-21)
(56.954032 0.61326593 -1.9746069e-18)
(56.318185 0.35721096 -8.6252494e-19)
(55.910986 0.088145286 3.6656855e-22)
(54.590993 -0.18515835 1.6321259e-23)
(52.272741 -0.43179645 -3.1001469e-24)
(22.13305 -4.2670843 1.19387e-20)
(23.255968 -4.264698 2.62245e-25)
(24.558224 -4.2625397 -2.4099468e-20)
(26.062565 -4.2448693 1.6378164e-24)
(27.789287 -4.2042168 -4.4432661e-20)
(29.752313 -4.1334161 0)
(31.953397 -4.0248274 9.5524822e-21)
(34.375333 -3.8716211 3.4620259e-20)
(36.975252 -3.670116 -7.7380351e-21)
(39.683178 -3.4224297 5.4505279e-20)
(42.410829 -3.1375799 -9.4797511e-20)
(45.071155 -2.8291283 5.088245e-21)
(47.599249 -2.5096706 -4.3198969e-21)
(49.961697 -2.1853713 0)
(52.150198 -1.8547739 0)
(54.166778 -1.5102352 1.6404624e-19)
(56.008814 -1.1427999 -7.2277034e-24)
(57.658613 -0.74399786 1.1125532e-19)
(59.071415 -0.31510301 0)
(60.175628 0.13508797 -1.3507224e-21)
(60.837584 0.54396091 2.2943158e-21)
(60.700903 0.89986041 3.1357803e-19)
(59.709756 0.8990616 6.8381068e-19)
(58.736631 0.87621606 6.4372772e-19)
(58.072126 0.85372207 0)
(57.50984 0.73373834 0)
(56.965585 0.59218302 9.7603525e-19)
(56.33126 0.34326254 1.7064515e-18)
(55.923243 0.07383657 -3.6271204e-22)
(54.599978 -0.1853102 1.4476873e-23)
(52.270398 -0.4395079 -5.2010487e-20)
(22.178539 -4.0155614 -3.4842845e-20)
(23.280368 -4.0211711 2.4062239e-20)
(24.55806 -4.0280058 0)
(26.034955 -4.021027 2.3050556e-20)
(27.732149 -3.9931712 -9.3638086e-25)
(29.664807 -3.9375944 -6.1575057e-20)
(31.836736 -3.8468404 1.8892472e-20)
(34.23339 -3.7137689 0)
(36.815295 -3.5341145 1.2255856e-19)
(39.51533 -3.3088783 0)
(42.245979 -3.0458155 0)
(44.91785 -2.7576598 0)
(47.461471 -2.4569412 -4.3032704e-21)
(49.838958 -2.1503033 3.6239603e-21)
(52.039411 -1.8366678 -3.0302906e-21)
(54.064393 -1.5085105 1.6154854e-19)
(55.912271 -1.1565897 1.3678676e-19)
(57.567117 -0.77222308 0)
(58.986344 -0.35598199 1.5159982e-21)
(60.101843 0.083098878 -1.350409e-21)
(60.779533 0.48693103 0)
(60.674226 0.85078953 -3.0512686e-19)
(59.708671 0.86343378 -3.6860256e-19)
(58.736756 0.84176641 -1.4077736e-18)
(58.076411 0.82213472 -2.9380745e-25)
(57.518228 0.70903124 1.0808017e-21)
(56.976958 0.57101572 0)
(56.344317 0.32922952 -4.2090833e-24)
(55.935399 0.058792993 0)
(54.608312 -0.18695383 0)
(52.268107 -0.44730497 5.2667408e-20)
(22.237474 -3.7617677 0)
(23.320751 -3.76676 0)
(24.575505 -3.7848017 0)
(26.025896 -3.7891218 -2.2770282e-20)
(27.694069 -3.7746152 0)
(29.596329 -3.7348897 -4.0463682e-24)
(31.738594 -3.6625268 3.7386006e-20)
(34.109013 -3.5502751 0)
(36.671169 -3.3931724 -4.5541686e-20)
(39.360957 -3.1912101 -8.0450093e-20)
(42.091999 -2.9508317 2.3380669e-20)
(44.773055 -2.6837932 7.0477935e-20)
(47.330387 -2.4023892 0)
(49.721606 -2.1137193 -1.1206364e-19)
(51.933005 -1.8171175 -3.026485e-21)
(53.965512 -1.5053027 -1.615305e-19)
(55.818416 -1.1688386 0)
(57.477556 -0.79890258 0)
(58.902547 -0.39533471 1.5178574e-21)
(60.028598 0.032457758 -1.3502199e-21)
(60.72071 0.43088966 -2.9188496e-19)
(60.645182 0.80115265 3.0283658e-19)
(59.706652 0.82235517 0)
(58.736534 0.80309162 -1.3832043e-21)
(58.080464 0.79010444 2.4407629e-21)
(57.526257 0.6841907 -1.096384e-18)
(56.988141 0.54976851 9.5564419e-19)
(56.357373 0.31505662 8.1147034e-22)
(55.947481 0.042856802 -3.5503017e-22)
(54.615867 -0.18998384 -1.1108756e-23)
(52.265781 -0.45508133 3.2536481e-24)
(22.316281 -3.4959797 -4.3206295e-25)
(23.375482 -3.516253 1.1518015e-20)
(24.610501 -3.5334162 2.2761742e-20)
(26.03606 -3.5516426 -8.7939115e-25)
(27.675728 -3.5505658 -4.28833e-20)
(29.54783 -3.5267862 6.0227058e-20)
(31.660021 -3.4730747 -7.4007868e-20)
(34.003108 -3.3820481 0)
(36.543827 -3.2481118 6.0199088e-20)
(39.220958 -3.0701063 6.6517149e-20)
(41.949665 -2.8531964 9.2022485e-26)
(44.637351 -2.6080227 -9.0125618e-20)
(47.206368 -2.3464878 -6.8312835e-20)
(49.609848 -2.0760411 1.2257889e-19)
(51.831093 -1.7965049 -9.0673632e-21)
(53.870208 -1.5009298 -1.6150676e-19)
(55.72731 -1.1797902 -1.306872e-19)
(57.389991 -0.82419979 2.0181342e-25)
(58.820085 -0.43324638 1.9448346e-19)
(59.955977 -0.016871202 1.7145471e-19)
(60.661229 0.37594675 2.909892e-19)
(60.614843 0.75006724 -2.9938893e-19)
(59.704216 0.78183467 -2.919598e-21)
(58.735783 0.76439264 1.3640564e-21)
(58.083998 0.75888042 0)
(57.533952 0.65922686 1.0838414e-18)
(56.999129 0.52844932 -4.3085936e-24)
(56.370448 0.3006941 -8.2615217e-19)
(55.959513 0.02599276 0)
(54.622682 -0.19408349 1.0187518e-23)
(52.263374 -0.46267036 -5.4042327e-20)
(22.416651 -3.2248638 2.2683607e-20)
(23.452706 -3.2525364 -1.1571497e-20)
(24.660439 -3.2887068 3.3661511e-20)
(26.06473 -3.3053195 -2.1775359e-20)
(27.677914 -3.321663 2.1214923e-20)
(29.520193 -3.3144324 -3.0885585e-25)
(31.601998 -3.2796948 5.4964954e-20)
(33.91663 -3.210171 0)
(36.434085 -3.0998165 -5.9686298e-20)
(39.096169 -2.9463498 -3.9611838e-20)
(41.819708 -2.7535511 5.2264497e-26)
(44.511294 -2.5308849 2.2123008e-26)
(47.089774 -2.2897193 -1.7013918e-20)
(49.503883 -2.0377135 -1.078725e-19)
(51.733772 -1.7752228 0)
(53.778534 -1.4957179 -8.7964227e-24)
(55.638997 -1.1896944 1.3496881e-19)
(57.304463 -0.84828217 1.775417e-21)
(58.739005 -0.46979961 -1.9617778e-19)
(59.884042 -0.064884448 -1.7273932e-19)
(60.601311 0.32244657 -2.9010486e-19)
(60.583344 0.69736773 -1.165416e-21)
(59.70115 0.74143205 3.711764e-19)
(58.734525 0.72647425 6.9255901e-19)
(58.086999 0.72587445 0)
(57.541256 0.63412762 1.047401e-21)
(57.009914 0.50706103 -9.3694046e-19)
(56.383562 0.28610564 8.1732746e-19)
(55.971509 0.0082931332 -3.4750604e-22)
(54.628905 -0.19888667 9.969307e-24)
(52.260867 -0.46988265 5.4863622e-20)
(22.538321 -2.9508246 2.2442406e-20)
(23.552955 -2.9869674 0)
(24.734622 -3.0325934 -1.1313705e-20)
(26.108876 -3.0727289 0)
(27.699666 -3.0871594 -2.0476218e-20)
(29.514081 -3.1004252 0)
(31.565085 -3.0845563 -3.6306623e-20)
(33.850256 -3.0363286 0)
(36.342643 -2.9494642 5.9201576e-20)
(38.987262 -2.8208066 1.0484715e-19)
(41.702801 -2.6526085 0)
(44.395419 -2.4529623 7.9273425e-20)
(46.980955 -2.2325996 8.4660277e-21)
(49.40389 -1.9992016 1.0756426e-19)
(51.64112 -1.7536738 0)
(53.690523 -1.4899991 1.6135768e-19)
(55.5535 -1.1988057 0)
(57.220997 -0.87132011 0)
(58.659338 -0.50507632 -1.5220692e-21)
(59.812798 -0.11153343 2.6978382e-21)
(60.541173 0.27101573 2.8696012e-19)
(60.550719 0.6445535 1.1565728e-21)
(59.69723 0.70099699 -3.6578369e-19)
(58.732719 0.68935294 1.3388474e-21)
(58.089483 0.69657021 -2.3654922e-21)
(57.548237 0.60893708 1.0361557e-21)
(57.020491 0.48561629 9.2609447e-19)
(56.396734 0.27126981 -8.0857848e-19)
(55.983472 -0.010054728 0)
(54.634709 -0.20410284 1.0316724e-23)
(52.258276 -0.47652143 5.5657183e-20)
(22.6823 -2.6749652 0)
(23.676173 -2.7203203 0)
(24.834005 -2.7757597 0)
(26.17899 -2.8276234 0)
(27.73706 -2.8691821 2.0158148e-20)
(29.527829 -2.8796463 -1.8943573e-20)
(31.550012 -2.8883257 8.9959754e-20)
(33.804552 -2.8618188 3.2724034e-20)
(36.270123 -2.7984231 -1.4677822e-20)
(38.894843 -2.6945543 -3.9030942e-20)
(41.5995 -2.5512322 -1.1391105e-20)
(44.290205 -2.3750112 9.861527e-21)
(46.880217 -2.1757203 1.3497086e-19)
(49.310026 -1.9609969 0)
(51.55319 -1.73227 -9.6259374e-20)
(53.606183 -1.4841095 1.5621963e-19)
(55.470821 -1.2073819 4.2201788e-21)
(57.139599 -0.89348597 1.778266e-21)
(58.581088 -0.53915751 -1.9493543e-19)
(59.742186 -0.15670475 -1.3480635e-21)
(60.480917 0.22271867 1.1263852e-21)
(60.517233 0.59253277 2.927667e-19)
(59.692472 0.66054021 0)
(58.730455 0.65246725 0)
(58.091576 0.65960414 1.170521e-21)
(57.554785 0.58360848 -2.0506195e-21)
(57.030853 0.4641157 8.9078743e-22)
(56.409978 0.25618975 7.9989229e-19)
(55.995393 -0.028810914 0)
(54.640249 -0.2095336 0)
(52.255632 -0.48240004 -5.6296079e-20)
(22.848648 -2.3998418 0)
(23.821981 -2.4543759 1.1255513e-20)
(24.956596 -2.5202639 1.1135662e-20)
(26.275086 -2.5834108 0)
(27.800603 -2.6394362 7.7596472e-25)
(29.557117 -2.6802009 -9.542104e-26)
(31.554844 -2.6859585 -1.7266289e-20)
(33.780571 -2.6871875 -1.6227166e-20)
(36.217273 -2.6478856 -8.7412652e-20)
(38.819592 -2.5688737 1.2918594e-20)
(41.510305 -2.4505021 -1.1319567e-20)
(44.196033 -2.2978757 -6.8630407e-20)
(46.787823 -2.1197125 -6.7204365e-20)
(49.222412 -1.923607 0)
(51.470011 -1.7114288 9.6076483e-20)
(53.525502 -1.478387 -1.6111936e-19)
(55.39094 -1.2156828 0)
(57.060251 -0.91495332 0)
(58.504227 -0.57213456 1.9501961e-19)
(59.672016 -0.20021617 -1.3473375e-21)
(60.420438 0.17880816 -2.8631318e-19)
(60.483159 0.54114567 -2.9173049e-19)
(59.686796 0.62018673 1.3985108e-21)
(58.727704 0.61544347 -1.3109268e-21)
(58.093114 0.63750201 -1.1582544e-21)
(57.560944 0.55823534 1.0143473e-21)
(57.040993 0.4425821 -1.8129525e-18)
(56.423279 0.24091649 -7.9106797e-19)
(56.007259 -0.047721479 0)
(54.645668 -0.21503014 0)
(52.252974 -0.48735906 -5.6619223e-20)
(23.037627 -2.1284283 2.1811081e-20)
(23.990592 -2.1920207 -3.3460504e-20)
(25.102175 -2.2681539 -2.2072109e-20)
(26.39486 -2.3433584 0)
(27.89111 -2.4122439 -2.0441734e-20)
(29.611732 -2.4715534 0)
(31.575189 -2.5083552 1.6848598e-20)
(33.775806 -2.5078334 -1.5529358e-20)
(36.185125 -2.4991454 0)
(38.762116 -2.4450001 -5.1319405e-20)
(41.435649 -2.3514786 -1.1249727e-20)
(44.113216 -2.2223016 7.9492107e-26)
(46.703961 -2.0652187 1.6731326e-20)
(49.141123 -1.8875403 -1.0234218e-26)
(51.391579 -1.6915679 -5.9930506e-21)
(53.448438 -1.4731686 0)
(55.313812 -1.2239684 -1.3925713e-19)
(56.982914 -0.93590366 3.5594778e-21)
(58.42869 -0.60413122 -3.0483319e-21)
(59.602052 -0.24192276 2.6921894e-21)
(60.3599 0.13791285 5.730631e-19)
(60.448634 0.49016012 0)
(59.68024 0.58003734 -1.3834339e-21)
(58.724363 0.57809895 1.297254e-21)
(58.094279 0.5925718 0)
(57.566851 0.53273953 -1.0037664e-21)
(57.050907 0.42101885 8.9678646e-19)
(56.436655 0.22547855 -7.735099e-19)
(56.01905 -0.066546196 0)
(54.651069 -0.22046468 1.037414e-19)
(52.250332 -0.49128032 5.6527014e-20)
(23.249262 -1.8635993 1.0811468e-20)
(24.182088 -1.9360717 -1.1057171e-20)
(25.270814 -2.0220394 -1.0941888e-20)
(26.537884 -2.1089206 4.250677e-20)
(28.005709 -2.1915299 2.027264e-20)
(29.694419 -2.2651624 -1.9012572e-20)
(31.619111 -2.326325 0)
(33.787858 -2.3549423 0)
(36.170891 -2.3544151 5.7424679e-20)
(38.721883 -2.3250579 6.3713449e-20)
(41.375617 -2.2553198 -9.0953145e-26)
(44.041924 -2.1490958 6.791926e-20)
(46.628748 -2.012865 -8.3302819e-21)
(49.066195 -1.8533046 7.0848569e-21)
(51.317856 -1.6731019 5.9804472e-21)
(53.374924 -1.4687881 1.2884884e-25)
(55.239373 -1.2324991 1.3077073e-19)
(56.90753 -0.95653331 3.5604302e-21)
(58.354394 -0.63530979 1.9511377e-19)
(59.532147 -0.28209859 -5.3798209e-21)
(60.299517 0.098315911 -2.8510903e-19)
(60.413779 0.43973046 1.1226863e-21)
(59.67282 0.54016224 -3.5166371e-19)
(58.721046 0.54063209 6.5860011e-19)
(58.094748 0.55081213 -5.2861579e-19)
(57.571954 0.50718516 -9.928847e-22)
(57.06058 0.39944164 0)
(56.450175 0.20988814 2.9059942e-24)
(56.030703 -0.085072035 0)
(54.656494 -0.22572457 -1.090689e-19)
(52.247732 -0.49409595 0)
(23.483189 -1.6082157 -2.1438513e-20)
(24.396107 -1.6892663 -7.0896897e-25)
(25.462169 -1.7845515 -1.0849927e-20)
(26.703714 -1.8823857 -2.1077988e-20)
(28.143187 -1.9779561 4.0217924e-20)
(29.800908 -2.0664801 -1.8862494e-20)
(31.691278 -2.1422991 0)
(33.819168 -2.2013418 1.5383074e-20)
(36.173656 -2.2111844 -2.7406603e-20)
(38.698892 -2.2086912 -2.5316735e-20)
(41.330183 -2.1628742 2.2228437e-20)
(43.982217 -2.07911 -8.6864342e-20)
(46.562228 -1.9632797 -7.4653168e-20)
(48.997612 -1.8214185 -1.1298801e-19)
(51.24877 -1.6564401 5.9669447e-21)
(53.304864 -1.4655727 0)
(55.16753 -1.2415324 -1.3492855e-19)
(56.834028 -0.97703859 -1.1393226e-19)
(58.281264 -0.66585568 -1.9815254e-19)
(59.462233 -0.32116753 2.6869833e-21)
(60.239868 0.060537326 2.8989763e-19)
(60.378841 0.39011887 2.8643261e-19)
(59.664597 0.50062627 6.9299096e-19)
(58.717625 0.50336551 -6.5039994e-19)
(58.094791 0.53086297 5.0576108e-19)
(57.576371 0.48163591 1.0069517e-18)
(57.070008 0.3779036 -8.5699649e-22)
(56.463783 0.19417564 1.4928384e-18)
(56.04223 -0.10313045 3.256082e-22)
(54.661932 -0.23070755 1.1257836e-19)
(52.245201 -0.49579415 -5.4896922e-20)
(23.738717 -1.3651928 -1.0630031e-20)
(24.631953 -1.4544203 1.0871783e-20)
(25.675534 -1.5584462 -1.0761008e-20)
(26.891635 -1.6665278 0)
(28.302652 -1.7742142 0)
(29.929107 -1.8769953 -3.7434184e-20)
(31.785725 -1.9690685 3.4576295e-20)
(33.876332 -2.0442019 1.6682707e-24)
(36.191537 -2.0933817 -4.0389242e-20)
(38.691565 -2.0917178 3.615309e-20)
(41.299875 -2.0752289 -8.8383159e-20)
(43.934164 -2.0132514 0)
(46.504378 -1.917159 6.6066105e-20)
(48.935299 -1.7924172 1.0556233e-19)
(51.184205 -1.6419843 9.5244404e-20)
(53.238132 -1.4638394 5.0106874e-21)
(55.098172 -1.2513181 1.3061967e-19)
(56.762318 -0.99761064 1.1390952e-19)
(58.209239 -0.69596908 -1.9202659e-19)
(59.392308 -0.359475 -2.6841931e-21)
(60.179417 0.022390587 -6.0039301e-19)
(60.343867 0.34146202 -1.101907e-21)
(59.655438 0.46147355 3.6277363e-24)
(58.713334 0.46646259 1.2567678e-21)
(58.094497 0.50604574 0)
(57.580744 0.45597626 -1.4463322e-24)
(57.079178 0.35640819 8.6818652e-19)
(56.477321 0.17840314 -2.7762647e-24)
(56.053697 -0.12059828 0)
(54.667345 -0.23531581 -1.1434521e-19)
(52.242781 -0.49642469 1.0648351e-19)
(24.014887 -1.1374079 1.0541203e-20)
(24.88869 -1.2343111 -3.2346003e-20)
(25.910005 -1.3464082 0)
(27.100804 -1.4639642 0)
(28.483385 -1.5828617 0)
(30.078389 -1.6988717 7.4294582e-20)
(31.9011 -1.8064244 -3.4317721e-20)
(33.95608 -1.8983987 -4.6889992e-20)
(36.231991 -1.9686881 1.1117884e-19)
(38.698646 -2.0002495 -3.4976174e-20)
(41.282809 -1.9939087 1.8668716e-19)
(43.897214 -1.9529435 -1.1554687e-25)
(46.45501 -1.87527 -8.2217786e-21)
(48.879113 -1.7667934 1.1221087e-19)
(51.124003 -1.6301196 -1.0093592e-19)
(53.174568 -1.4638895 5.0025447e-21)
(55.031162 -1.2620954 0)
(56.692303 -1.0184385 0)
(58.138269 -0.72583551 1.9500073e-19)
(59.322513 -0.39712755 0)
(60.118942 -0.01720639 6.2398509e-19)
(60.30864 0.29375071 -2.8113743e-19)
(59.6454 0.42263843 -3.3899338e-19)
(58.708267 0.42992274 0)
(58.093513 0.47379924 0)
(57.584973 0.43046274 -9.8547521e-19)
(57.088083 0.33495332 -1.7167935e-18)
(56.490762 0.16263976 -7.2379948e-19)
(56.065094 -0.13738805 0)
(54.672726 -0.23946827 0)
(52.240515 -0.49610411 -5.0953312e-20)
(24.310478 -0.92760166 -2.0904677e-20)
(25.165126 -1.0315779 3.2074382e-20)
(26.164424 -1.1509713 1.0586188e-20)
(27.330108 -1.2771099 -4.1153239e-20)
(28.684339 -1.4061956 -1.9640499e-20)
(30.247795 -1.5342124 -3.6863988e-20)
(32.036254 -1.6557969 3.4065085e-20)
(34.05531 -1.7637778 -3.1037776e-20)
(36.294202 -1.8502831 -6.9799276e-20)
(38.721091 -1.908794 3.621926e-20)
(41.278083 -1.9142385 -7.3022601e-20)
(43.871524 -1.8978006 -6.6496743e-20)
(46.413937 -1.8380613 -1.6368811e-20)
(48.828841 -1.7449705 -1.0481239e-19)
(51.067959 -1.6212149 -9.4745329e-20)
(53.113983 -1.4660053 0)
(54.966341 -1.274089 0)
(56.623868 -1.039701 1.1381469e-19)
(58.068296 -0.75561077 -1.9795165e-19)
(59.253041 -0.43407599 2.6767002e-21)
(60.057737 -0.05933497 6.8350289e-24)
(60.272982 0.24703735 2.7908308e-19)
(59.634593 0.38397759 3.3529574e-19)
(58.702763 0.39367806 6.299619e-19)
(58.092014 0.44118168 5.5633233e-19)
(57.588781 0.40462563 -9.5115743e-22)
(57.096697 0.31354614 8.503549e-19)
(56.504137 0.14691719 0)
(56.076362 -0.15344769 3.1508192e-22)
(54.678033 -0.2431317 -4.1742056e-23)
(52.23843 -0.49501295 2.9319342e-24)
(24.624002 -0.73832422 -4.2444521e-25)
(25.459809 -0.84868076 0)
(26.437371 -0.97450933 4.1993388e-20)
(27.578162 -1.1082425 -2.982837e-26)
(28.904162 -1.2464063 -4.2722107e-25)
(30.436019 -1.3851778 -3.6584109e-20)
(32.189863 -1.5193582 0)
(34.172199 -1.6419219 3.081444e-20)
(36.373607 -1.7446274 5.5457647e-20)
(38.762944 -1.8194572 -3.6993638e-20)
(41.285499 -1.8566248 -1.0190858e-20)
(43.855913 -1.8494212 6.6133954e-20)
(46.380662 -1.8065248 8.146386e-21)
(48.784186 -1.7274552 1.0442086e-19)
(51.015819 -1.615624 1.0037535e-19)
(53.056151 -1.4704464 0)
(54.903525 -1.2875057 0)
(56.556885 -1.0615643 -1.1372983e-19)
(57.999243 -0.78541829 1.9781018e-19)
(59.183992 -0.47034689 1.6571347e-19)
(59.997992 -0.101414 -3.1314189e-19)
(60.23663 0.20188194 -2.7920468e-19)
(59.622993 0.34535574 -3.2903114e-19)
(58.696886 0.35764251 -6.2202859e-19)
(58.090042 0.40969152 -5.5254373e-19)
(57.592118 0.37938342 9.4072472e-22)
(57.105017 0.29220682 0)
(56.517434 0.13124365 0)
(56.087426 -0.16875537 0)
(54.683193 -0.24633028 0)
(52.236523 -0.49337768 0)
(24.953732 -0.57186352 3.0801056e-20)
(25.771043 -0.68782622 0)
(26.727191 -0.81915299 -3.1225732e-20)
(27.843356 -0.95940711 2.0241903e-20)
(29.1413 -1.1054425 0)
(30.641595 -1.2536262 -1.8151464e-20)
(32.360628 -1.3989102 1.6780239e-20)
(34.305671 -1.5344215 3.0593355e-20)
(36.468688 -1.651847 -1.3766476e-20)
(38.820287 -1.7423256 1.7650834e-25)
(41.30623 -1.7987666 1.60483e-25)
(43.849479 -1.8052358 8.959055e-21)
(46.355018 -1.7805096 6.4860633e-20)
(48.744829 -1.7145724 -1.1094096e-19)
(50.967286 -1.6136124 0)
(53.000819 -1.4774414 0)
(54.84251 -1.3025301 4.1947741e-21)
(56.491206 -1.084182 -3.5508267e-21)
(57.931011 -0.81538075 3.0407841e-21)
(59.115342 -0.50614574 -1.7344076e-19)
(59.938242 -0.1436549 -3.1435493e-19)
(60.200111 0.15970708 -2.1768871e-21)
(59.610674 0.30681505 2.5622258e-21)
(58.690642 0.32174409 -6.1658826e-19)
(58.087558 0.37850417 5.4450426e-19)
(57.595004 0.35310537 0)
(57.113014 0.27093893 -8.1174082e-22)
(56.530617 0.11561298 6.9840917e-19)
(56.098258 -0.18330848 0)
(54.688239 -0.249132 0)
(52.234774 -0.49144401 0)
(25.297715 -0.43018146 0)
(26.096911 -0.55090771 1.0409473e-20)
(27.032006 -0.68673438 -1.0316594e-20)
(28.12386 -0.83236564 -4.0139394e-20)
(29.393982 -0.98498119 -2.2139208e-25)
(30.862827 -1.1411335 3.6013578e-20)
(32.546968 -1.295911 0)
(34.454338 -1.4425768 -3.0368711e-20)
(36.57819 -1.5727973 -4.1014801e-20)
(38.891072 -1.6774087 -1.2169255e-20)
(41.340464 -1.7481114 0)
(43.85235 -1.776489 0)
(46.336269 -1.7611516 -1.290822e-19)
(48.710292 -1.7068767 1.1049116e-19)
(50.922001 -1.6154415 9.9756014e-20)
(52.947697 -1.4871955 -4.9611705e-21)
(54.783068 -1.3193238 -1.340168e-19)
(56.42667 -1.1076932 1.1705402e-19)
(57.863495 -0.84562107 -6.075058e-21)
(59.047117 -0.54174715 5.3272306e-21)
(59.878278 -0.18740777 3.1307692e-19)
(60.163126 0.11943227 -4.5089305e-21)
(59.597895 0.26857529 2.5340567e-21)
(58.684009 0.28597743 6.0997091e-19)
(58.084535 0.34738856 -1.0508603e-21)
(57.597432 0.32853134 -1.565363e-25)
(57.120685 0.24975333 -1.066438e-25)
(56.543667 0.10001021 -6.9068835e-19)
(56.108842 -0.19712044 -3.0482473e-22)
(54.693219 -0.25164138 -3.9777216e-23)
(52.233141 -0.48945547 -3.6186306e-20)
(25.653811 -0.31486176 -4.9338369e-26)
(26.435301 -0.43945472 3.0925771e-20)
(27.349741 -0.57873871 -1.0221176e-20)
(28.417646 -0.72855256 3.9783818e-20)
(29.660237 -0.88639463 -1.9010015e-20)
(31.097819 -1.0489956 1.7860994e-20)
(32.747078 -1.2115731 0)
(34.616514 -1.3675267 3.0142738e-20)
(36.700576 -1.5085413 5.4297662e-20)
(38.97368 -1.6253203 -4.8347803e-20)
(41.385593 -1.708814 0)
(43.863486 -1.7524017 0)
(46.32321 -1.7486199 6.4213249e-20)
(48.679955 -1.7045188 -2.2003718e-19)
(50.879559 -1.6213417 -1.9298301e-19)
(52.896468 -1.499891 -9.218123e-26)
(54.72495 -1.3380213 1.4213156e-19)
(56.363103 -1.1322187 -3.5388156e-21)
(57.796603 -0.87624195 0)
(58.979446 -0.57741956 0)
(59.818154 -0.2323382 0)
(60.124492 0.077812638 -2.357618e-21)
(59.584665 0.2305592 2.5061273e-21)
(58.676972 0.25038554 0)
(58.080971 0.31647489 -1.065738e-18)
(57.599405 0.30126961 0)
(57.128008 0.22865086 0)
(56.556554 0.084418896 -6.8706906e-19)
(56.119152 -0.210217 -6.0297915e-22)
(54.698141 -0.25398392 0)
(52.231552 -0.48765079 3.1597904e-20)
(26.019724 -0.22706182 -4.9802069e-21)
(26.783944 -0.35458722 -2.04063e-20)
(27.67816 -0.49626084 -2.0243185e-20)
(28.72252 -0.64903345 -1.6073147e-25)
(29.937924 -0.8107115 2.4274865e-25)
(31.344495 -0.9781904 1.7710974e-20)
(32.958965 -1.1468159 1.639014e-20)
(34.790328 -1.3101092 -2.991101e-20)
(36.834141 -1.4597851 -5.3899485e-20)
(39.066628 -1.5864067 3.6008599e-20)
(41.440028 -1.6804074 -8.4642178e-20)
(43.883956 -1.7347928 0)
(46.315718 -1.7434302 0)
(48.653292 -1.7077193 -3.2137089e-24)
(50.839508 -1.6314828 -2.8798932e-24)
(52.846785 -1.5156368 -4.935036e-21)
(54.66789 -1.3587218 4.1719622e-21)
(56.300319 -1.1578541 -1.1318886e-19)
(57.730239 -0.90731295 0)
(58.912362 -0.61325111 0)
(59.757975 -0.27674336 0)
(60.084059 0.033480872 0)
(59.570811 0.1926574 3.1725426e-19)
(58.669504 0.21508093 5.9572784e-19)
(58.076867 0.28603745 1.0552768e-18)
(57.600948 0.27806222 0)
(57.134968 0.20760865 -8.0346042e-19)
(56.56926 0.068815464 6.8436606e-19)
(56.129165 -0.22264085 -1.2213316e-18)
(54.703013 -0.25628139 1.2616249e-23)
(52.229885 -0.48626758 -2.7041141e-20)
(26.393053 -0.16748072 4.9236326e-21)
(27.140457 -0.29698376 0)
(28.014908 -0.4399743 0)
(29.036163 -0.59447628 -3.6660092e-25)
(30.224779 -0.75859055 1.3385286e-25)
(31.600653 -0.92936544 -1.7556158e-20)
(33.180514 -1.1022737 -1.6253772e-20)
(34.97378 -1.2709593 -1.4837385e-20)
(36.977037 -1.4272026 -1.3373484e-20)
(39.168253 -1.5614949 -3.5753327e-20)
(41.502248 -1.6640146 8.4076953e-20)
(43.911309 -1.727296 6.42465e-20)
(46.313464 -1.7461261 7.5628586e-21)
(48.629686 -1.7166313 1.0220534e-19)
(50.801363 -1.6459274 1.0448509e-19)
(52.798271 -1.5344701 1.4761576e-19)
(54.611608 -1.3814891 8.3255885e-21)
(56.238125 -1.184668 -7.062509e-21)
(57.664299 -0.93888026 -2.0229967e-25)
(58.845795 -0.64923347 5.294193e-21)
(59.697913 -0.32024394 3.0675557e-19)
(60.044013 -0.0098564328 0)
(59.556242 0.15496477 -3.1618013e-19)
(58.6616 0.18013425 -1.1785421e-18)
(58.072227 0.25607261 -5.2142287e-19)
(57.602123 0.24867931 0)
(57.141521 0.18668548 1.5916292e-18)
(56.581765 0.053181276 -6.6799681e-22)
(56.138832 -0.23444683 1.2078641e-18)
(54.707851 -0.2586292 0)
(52.227988 -0.48553928 2.282765e-20)
(26.77133 -0.13632859 2.4320435e-20)
(27.502388 -0.26685007 -1.9952473e-20)
(28.357554 -0.41009778 0)
(29.35618 -0.56511432 3.8633288e-20)
(30.518453 -0.7302783 -1.0216927e-25)
(31.864014 -0.90278027 -3.4791406e-20)
(33.409544 -1.0782172 1.254846e-25)
(35.164825 -1.2503647 5.8861555e-20)
(37.127396 -1.4110992 1.3269533e-20)
(39.276894 -1.5508799 9.4640635e-20)
(41.570611 -1.6597164 7.3064134e-20)
(43.943533 -1.7292698 -6.383987e-20)
(46.315051 -1.7532914 5.9446837e-20)
(48.608652 -1.7309769 0)
(50.764667 -1.6646195 9.250533e-20)
(52.750546 -1.5564204 4.9097203e-21)
(54.555813 -1.4063555 1.3849137e-25)
(56.176315 -1.212703 -3.5244914e-21)
(57.598664 -0.97097398 -1.9325607e-19)
(58.779626 -0.68535543 0)
(59.637909 -0.36294961 6.803843e-24)
(60.002904 -0.052712675 -2.9877183e-19)
(59.540876 0.1174908 -2.4236252e-21)
(58.653307 0.14559161 1.1657311e-18)
(58.067009 0.22642332 2.0145443e-21)
(57.602871 0.23021245 9.0216366e-19)
(57.147715 0.1656779 -7.8668319e-19)
(56.594031 0.037502056 6.6927039e-22)
(56.148154 -0.24569505 -8.7487608e-22)
(54.71263 -0.26108404 -9.6350826e-20)
(52.225731 -0.48568318 0)
(27.152068 -0.13331484 1.4403697e-20)
(27.867255 -0.26390648 -1.9707796e-20)
(28.703633 -0.4063796 0)
(29.680133 -0.56072796 0)
(30.816553 -0.72558772 0)
(32.132249 -0.89828021 0)
(33.643818 -1.0745213 0)
(35.361352 -1.2482228 -4.3768597e-20)
(37.283276 -1.4113759 1.3162374e-20)
(39.390812 -1.5544427 1.1740962e-20)
(41.643571 -1.6672793 -1.6581578e-19)
(43.979104 -1.7409344 -8.1546371e-20)
(46.31966 -1.768788 -6.2006419e-20)
(48.589744 -1.7510797 0)
(50.728951 -1.6876248 5.75972e-21)
(52.703222 -1.5814962 -1.6130606e-19)
(54.500209 -1.4333264 -1.2839284e-19)
(56.114677 -1.2419736 -3.5170986e-21)
(57.533208 -1.0036052 1.9287581e-19)
(58.713734 -0.72160925 0)
(59.577867 -0.40494542 -3.0647797e-19)
(59.960823 -0.095093895 2.9864123e-19)
(59.5248 0.080283153 -3.0677873e-19)
(58.644568 0.11144293 -2.2519269e-21)
(58.061298 0.19675585 1.9926308e-21)
(57.603343 0.19133222 8.7066471e-22)
(57.153375 0.1449293 -7.5972537e-22)
(56.606071 0.021793144 0)
(56.157122 -0.25643045 0)
(54.717393 -0.2636557 9.2155613e-20)
(52.223023 -0.48688491 0)
(27.532792 -0.15764915 1.894012e-20)
(28.232585 -0.28738932 0)
(29.050681 -0.42810004 0)
(30.005579 -0.58064779 -3.777733e-20)
(31.116673 -0.74390326 -6.4299603e-26)
(32.403007 -0.91530613 0)
(33.881065 -1.0906847 -3.1632704e-20)
(35.561205 -1.2640888 4.3378834e-20)
(37.442667 -1.4276404 2.6103897e-20)
(39.508193 -1.5718519 -8.1531854e-20)
(41.719642 -1.6865049 8.2296535e-20)
(44.017263 -1.7623197 7.1993426e-20)
(46.326321 -1.7928954 -6.2422835e-20)
(48.571998 -1.7769789 0)
(50.693628 -1.7149192 -9.1698792e-20)
(52.655883 -1.6096325 1.6072532e-19)
(54.444491 -1.4623607 1.3215088e-19)
(56.052994 -1.2724625 -3.5089829e-21)
(57.467795 -1.0367743 1.9547643e-19)
(58.648002 -0.75798728 -1.681457e-19)
(59.517714 -0.44629954 -3.0749914e-19)
(59.91792 -0.13700028 0)
(59.508109 0.043345799 -4.159611e-24)
(58.635227 0.077651136 -1.1426368e-18)
(58.055292 0.16688278 0)
(57.603458 0.16175516 -1.6284353e-18)
(57.158296 0.12379686 -7.7017047e-19)
(56.617859 0.0060640126 0)
(56.16567 -0.26669643 -2.8519854e-22)
(54.722169 -0.26633546 2.1316275e-23)
(52.219818 -0.489284 -1.4398433e-20)
(27.911083 -0.20805516 -1.3996158e-20)
(28.595954 -0.33606335 2.8770699e-20)
(29.396278 -0.47408523 9.5490785e-21)
(30.330114 -0.62376994 1.8659301e-20)
(31.416435 -0.78419743 -2.129947e-25)
(32.67396 -0.95291323 0)
(34.119035 -1.1258518 6.2636808e-20)
(35.762236 -1.297202 -4.297433e-20)
(37.60357 -1.4592343 -5.1749335e-20)
(39.627236 -1.6025613 8.0862271e-20)
(41.797296 -1.7169769 -9.18771e-20)
(44.056744 -1.7930295 1.787197e-20)
(46.333689 -1.8242681 -7.7548432e-21)
(48.554439 -1.8084432 0)
(50.658071 -1.7463294 0)
(52.608098 -1.6406937 -1.552483e-19)
(54.388349 -1.4933466 0)
(55.991053 -1.3041216 0)
(57.402295 -1.0704676 -1.9201518e-19)
(58.582324 -0.79447844 1.6766955e-19)
(59.457388 -0.48707727 -6.7728917e-24)
(59.874235 -0.17846678 0)
(59.490735 0.0066652924 2.3392484e-21)
(58.62532 0.044140462 -2.2119299e-21)
(58.048784 0.13678088 0)
(57.603391 0.14462789 7.8242215e-19)
(57.162876 0.10302485 7.6090582e-19)
(56.629228 -0.0096271593 -6.6461905e-19)
(56.173813 -0.2765262 2.8200654e-22)
(54.726908 -0.26912475 8.1742121e-20)
(52.216118 -0.49296407 1.3222362e-20)
(28.284622 -0.28280735 1.3777246e-20)
(28.955035 -0.40825853 -2.8346108e-20)
(29.738094 -0.54274026 -9.4173511e-21)