/*--------------------------------*- C++ -*----------------------------------*\
| =========                 |                                                 |
| \\      /  F ield         | OpenFOAM: The Open Source CFD Toolbox           |
|  \\    /   O peration     | Version:  2406                                  |
|   \\  /    A nd           | Website:  www.openfoam.com                      |
|    \\/     M anipulation  |                                                 |
\*---------------------------------------------------------------------------*/
FoamFile
{
    version     2.0;
    format      ascii;
    arch        "LSB;label=32;scalar=64";
    class       volScalarField;
    location    "0.03";
    object      p;
}
// * * * * * * * * * * * * * * * * * * * * * * * * * * * * * * * * * * * * * //

dimensions      [1 -1 -2 0 0 0 0];

internalField   nonuniform List<scalar> 
2065
(
100022.9
99969.589
99920.21
99871.209
99936.437
100048.94
100221.15
100392.36
100564.15
100730.01
100873.49
100984.27
101060.55
101097.77
101090.18
101012.71
100914.62
100862.56
100913.86
101052.73
101194.77
101322.04
101340.04
101187.61
101003.56
100749.61
100812.74
100937.92
101347.46
101451.11
101339.17
101248.6
101344.93
101337.67
101272.64
101185.37
101252.05
101368.69
101349.22
101339.95
101319.27
101318.51
101312.09
101314.48
101317.29
101315.06
101309.74
101300.73
101291.61
101283.94
101277.54
101278.03
101288.22
101304.73
101322.98
101342.09
101353.83
101356.33
99917.147
99825.661
99778.054
99748.951
99823.84
99968.161
100161.02
100352.26
100538.12
100707.57
100852.31
100957.58
101025.35
101054
101024.73
100921.56
100814.83
100772.04
100841.04
101018.98
101158.52
101279.39
101288.75
101157.02
100983.93
100701.08
100776.11
100945.88
101327.58
101415.71
101298.7
101232.12
101332.3
101318.46
101272.31
101190.8
101254.67
101364.43
101343.75
101339.34
101320.06
101319.82
101311.92
101314.07
101317.44
101315.03
101309.63
101300.57
101291.5
101283.91
101277.59
101278.11
101288.33
101304.81
101323.07
101342.18
101354
101356.51
99928.026
99782.968
99636.675
99568.711
99588.48
99671.58
99899.393
100109.6
100320.33
100523.24
100699.88
100842.25
100935.78
100982.3
100997.56
100947.15
100815.87
100705.41
100671.34
100758.79
100970.45
101120.03
101235.12
101242.98
101143.32
100957.17
100637.28
100755.49
100961.59
101312
101376.78
101258.33
101214.06
101317.91
101302.15
101274.28
101197.22
101257.77
101359.54
101337.21
101338.9
101321.59
101320.46
101311.81
101313.61
101317.58
101315.03
101309.52
101300.42
101291.4
101283.88
101277.67
101278.2
101288.45
101304.9
101323.17
101342.29
101354.21
101356.73
99946.853
99799.763
99626.251
99458.165
99374.612
99417.406
99523.948
99774.357
100049.25
100287.28
100510.71
100690.89
100819.27
100903.52
100938.97
100921.25
100842.93
100693.24
100585.43
100550.11
100677.21
100909.67
101080.51
101195.28
101197.39
101138.57
100926.3
100579.34
100742.59
100975.16
101293.22
101335.03
101219.68
101194.36
101303.53
101287.55
101278.84
101203.95
101260.06
101354.3
101330.53
101338.59
101323.77
101320.15
101311.79
101313.1
101317.69
101315.05
101309.42
101300.27
101291.32
101283.87
101277.78
101278.31
101288.56
101304.98
101323.27
101342.39
101354.45
101356.97
99803.377
99630.615
99449.546
99285.709
99194.313
99246.312
99390.286
99632.552
99982.412
100258.82
100493.77
100676.74
100797.08
100859.99
100887.48
100842.11
100727.15
100554.72
100455.46
100419.21
100595.51
100842.11
101039.42
101157.61
101161.43
101142.85
100877.24
100555.83
100734.34
100984.25
101271.88
101290.6
101183.01
101172.01
101289.82
101270.79
101287.41
101210.84
101261.89
101346.6
101325.82
101338.3
101326.02
101319.7
101311.93
101312.49
101317.77
101315.08
101309.33
101300.12
101291.25
101283.87
101277.95
101278.43
101288.68
101305.05
101323.36
101342.5
101354.71
101357.26
99775.876
99612.543
99422.938
99249.007
99118.061
99032.684
99094.286
99260.145
99513.143
99893.417
100220.08
100470.99
100641.2
100756.16
100814.5
100815.75
100755.65
100597.47
100408.08
100307.75
100289.13
100511.26
100776.47
100997.27
101122.17
101147.81
101138.82
100805.87
100563.91
100730.6
100990.29
101251.99
101244.51
101148.77
101146.12
101278.43
101257.56
101302.67
101219.13
101263.69
101336.69
101323.43
101338.01
101328.52
101319.14
101311.95
101312.04
101317.81
101315.13
101309.27
101299.99
101291.18
101283.89
101278.27
101278.58
101288.78
101305.12
101323.45
101342.62
101354.99
101357.6
99740.337
99570.913
99387.423
99200.88
99036.434
98959.004
98909.075
98950.852
99127.94
99429.639
99821.959
100178.33
100444.78
100607.55
100704.63
100750.28
100733.96
100656.38
100454.75
100261.33
100151.12
100162.29
100430.74
100716.13
100958.62
101092.87
101141.12
101112.87
100753.31
100580.13
100732.37
100996.32
101236.48
101198.39
101116.86
101121.72
101266.98
101257.88
101302.7
101226.97
101265.62
101327.39
101320.64
101337.6
101331.41
101318.53
101311.77
101311.82
101317.81
101315.2
101309.22
101299.86
101291.13
101283.92
101278.44
101278.77
101288.89
101305.19
101323.55
101342.74
101355.3
101358.02
99506.685
99336.992
99156.384
98991.258
98857.622
98817.015
98797.967
98824.062
99024.31
99359.835
99767.859
100150.51
100413.89
100578.79
100666.37
100694.66
100662.01
100553.07
100309.92
100111.56
100006.42
100029.02
100359.82
100661.93
100926.22
101071.45
101132.01
101071.28
100739.53
100603.75
100740.98
101001.65
101226.33
101153.25
101087.06
101103.07
101254.56
101268.91
101289.45
101234.43
101268.51
101318.45
101318.14
101336.73
101334.79
101318.05
101311.56
101311.67
101317.73
101315.29
101309.17
101299.74
101291.09
101283.96
101278.61
101279.02
101288.99
101305.25
101323.64
101342.86
101355.61
101358.53
99270.469
99110.752
98936.948
98790.617
98720.038
98700.191
98697.839
98735.301
98957.952
99325.7
99741.147
100130.42
100392.78
100551.03
100633.97
100647.18
100596.29
100455.12
100168.22
99968.369
99872.859
99909.755
100285.13
100615.57
100899.97
101055.42
101122.34
101027.85
100752.39
100634.53
100753.6
101006.46
101218.98
101112.81
101060.14
101088.98
101242.9
101280.03
101282.8
101241.59
101272.8
101309.52
101317.07
101334.87
101338.9
101317.74
101311.3
101311.57
101317.6
101315.41
101309.12
101299.64
101291.05
101284.01
101278.84
101279.34
101289.09
101305.31
101323.72
101342.98
101355.91
101359.13
99195.551
99057.064
98915.15
98756.894
98639.83
98618.231
98626.706
98641.308
98697.526
98927.784
99312.578
99744.615
100137.04
100393.95
100537.79
100607.62
100606.67
100534.74
100367.27
100038.04
99845.313
99742.316
99816.479
100207.53
100574.63
100877.23
101046.06
101116.39
101001.91
100775.17
100682.75
100769.01
101012.2
101208.38
101084.83
101036.01
101077.33
101233.54
101290.36
101277.44
101246.87
101277.88
101300.34
101317.22
101332.62
101343.49
101317.69
101311
101311.56
101317.42
101315.54
101309.09
101299.56
101291.01
101284.08
101279.05
101279.74
101289.19
101305.36
101323.81
101343.11
101356.2
101359.79
99064.989
98927.324
98775.061
98648.414
98585.772
98590.016
98601.653
98633.045
98706.283
98943.947
99338.291
99780.902
100165.73
100407.34
100542.57
100594.47
100577.48
100485.97
100291.96
99933.803
99761.507
99616.866
99744.649
100142.55
100538.03
100862.83
101037.06
101116.92
100997.81
100808.03
100724.01
100788.36
101020.6
101195.2
101066.58
101014.35
101067.11
101226.33
101302.25
101273.56
101252.13
101283.33
101290.89
101317.64
101331.44
101347.1
101318.06
101310.62
101311.59
101317.23
101315.7
101309.06
101299.49
101290.98
101284.16
101279.28
101280.21
101289.28
101305.4
101323.89
101343.23
101356.46
101360.64
99102.747
98925.049
98734.879
98631.334
98591.395
98619.321
98637.792
98673.799
98763.694
99009.689
99407.677
99849.5
100223.48
100445.99
100563.78
100600.19
100565.2
100454.96
100236.63
99865.955
99695.787
99530.989
99696.316
100089.77
100507.73
100854.53
101025.66
101113.63
101012.22
100848
100767.21
100810.71
101031.98
101184.12
101050.95
100995.01
101058.32
101219.73
101317.19
101271.57
101257.99
101289.55
101280.89
101318.25
101331.33
101348.49
101319.4
101310.16
101311.46
101317.06
101315.87
101309.04
101299.43
101290.97
101284.25
101279.5
101280.52
101289.36
101305.44
101323.97
101343.36
101356.59
101361.41
99167.131
99018.233
98836.91
98708.49
98656.164
98686.526
98720.537
98770.141
98875.86
99124.702
99527.485
99956.935
100307.85
100516.82
100609.49
100622.93
100570.86
100444.24
100211.39
99835.086
99635.009
99498.563
99658.242
100049.39
100484.01
100841.35
101021.13
101110.19
101036.55
100893.59
100812.91
100834.41
101045.19
101175.3
101039.43
100977.99
101050.87
101213.2
101333.41
101271.85
101264.48
101292.73
101273.27
101319.16
101331.36
101348.94
101321.33
101309.58
101311.45
101316.91
101316.06
101309.03
101299.38
101290.97
101284.35
101279.73
101280.67
101289.44
101305.47
101324.05
101343.5
101356.73
101361.94
99299.972
99201.163
99029.157
98877.235
98803.996
98807.38
98848.545
98925.807
99047.564
99295.521
99702.856
100108.46
100427.12
100614.13
100679.95
100671.73
100593.55
100456
100220.71
99841.501
99605.614
99499.544
99630.453
100020.41
100464.13
100827.42
101025.69
101113.49
101067.4
100942.84
100860.98
100859.06
101062.35
101169.16
101034.57
100963.35
101044.89
101206.68
101348.98
101274.6
101272.91
101292.7
101265.75
101319.73
101331.49
101349.44
101323.13
101308.92
101311.36
101316.79
101316.26
101309.04
101299.35
101290.98
101284.46
101279.97
101280.83
101289.52
101305.49
101324.12
101343.63
101356.88
101362.46
99469.76
99358.846
99251.056
99127.973
99039.74
99021.913
99060.741
99137.761
99287.946
99539.764
99940.66
100306.22
100578.15
100732.96
100771.48
100743.14
100635.4
100492.25
100260.95
99883.691
99605.334
99517.046
99619.653
100001.86
100447.12
100817.57
101032.06
101123.08
101099.88
100993.95
100911.69
100885.85
101085.06
101164.37
101037.55
100951
101040.17
101200.29
101360.44
101281.05
101282.75
101294.84
101257.94
101316.85
101331.67
101350.07
101324.88
101308.23
101311.22
101316.72
101316.48
101309.06
101299.32
101291
101284.58
101280.21
101281.01
101289.6
101305.51
101324.19
101343.76
101357.03
101362.97
99520.787
99428.721
99366.331
99323.793
99313.11
99359.175
99449.717
99605.655
99881.091
100232.95
100537.1
100757.57
100876.81
100887.19
100831.63
100698.37
100541.01
100322.97
99961.194
99626.623
99543.135
99626.448
99993.216
100432.02
100812.51
101040.15
101136.41
101131.25
101046.48
100964.62
100916.1
101114.41
101159.98
101047.48
100940.5
101035.89
101194.24
101365.54
101293.05
101292.36
101297.74
101254.22
101311.87
101331.93
101350.81
101326.62
101307.57
101311.1
101316.72
101316.74
101309.06
101299.31
101291.03
101284.7
101280.46
101281.21
101289.67
101305.52
101324.25
101343.89
101357.16
101363.45
99617.516
99550.992
99529.992
99553.317
99605.255
99696.639
99833.805
100007.85
100267.28
100544.62
100788.86
100958.63
101038.08
101023.48
100939.66
100792.08
100601.37
100403.6
100087.53
99656.212
99578.443
99655.782
99994.521
100419.3
100810.91
101050.83
101151.2
101164.29
101098.32
101019.9
100952.51
101143.27
101154.68
101061.06
100931.57
101032.78
101187.49
101365.31
101309.78
101302.01
101300.24
101252.39
101307.13
101332.24
101351.59
101328.34
101307.02
101310.98
101316.89
101316.94
101309.03
101299.32
101291.08
101284.84
101280.72
101281.4
101289.74
101305.53
101324.32
101344.02
101357.3
101363.87
99595.699
99568.568
99598.331
99682.048
99812.001
99978.629
100183.66
100421.89
100636.23
100885.46
101047.2
101170
101212.8
101170.08
101064.44
100900.79
100677.39
100485.17
100232.29
99719.918
99631.241
99704.337
100006.34
100408.03
100810.66
101062.54
101170.78
101196.18
101147.43
101076.69
101001.73
101162.11
101148.08
101077.57
100924.23
101031.89
101179.35
101362.72
101328.09
101311.83
101302.05
101251.63
101302.82
101332.48
101352.33
101330.01
101306.59
101310.85
101317.2
101317.07
101308.99
101299.33
101291.14
101284.98
101280.97
101281.6
101289.8
101305.54
101324.38
101344.16
101357.43
101364.23
99502.353
99569.269
99711.252
99936.278
100202.2
100467.49
100725.48
100974.2
101186.72
101295.68
101382.16
101391.4
101322.48
101197.55
101024.01
100785.91
100551.48
100358.95
99843.844
99708.43
99763.767
100028.66
100395.95
100810.31
101071.39
101189.86
101225.95
101193.65
101132.92
101057.34
101178.9
101139.75
101098.27
100917.84
101033
101170.79
101359.71
101345.89
101321.51
101303.51
101251.61
101298.89
101332.63
101352.99
101331.65
101306.26
101310.71
101317.54
101317.18
101308.97
101299.36
101291.21
101285.13
101281.23
101281.79
101289.86
101305.54
101324.44
101344.3
101357.56
101364.54
101252.07
101295.29
101332.7
101353.55
101333.26
101305.98
101310.57
101317.89
101317.3
101308.96
101299.41
101291.29
101285.28
101281.49
101281.98
101289.92
101305.53
101324.49
101344.43
101357.68
101364.79
100287.77
100306.48
100078.76
100110.59
100174.74
100233.94
100287.57
100328.78
100357.5
100379.89
100014.31
100047.24
100131.3
100218.98
100289.5
100350.64
100397.2
100430.92
100456.57
99952.973
100051.1
100176.39
100270.64
100352
100419.06
100471.31
100508.77
100537.15
99965.712
100104.24
100232.6
100332.46
100421.44
100496.8
100552.54
100593.38
100622.84
100043.44
100177.35
100299.9
100402.2
100505.36
100583.38
100641.57
100684.42
100713.98
100169.03
100284.69
100386.63
100498.9
100602.2
100679.25
100738.99
100781.95
100812.13
100293.06
100389.36
100498.62
100613.46
100709.51
100782.27
100841.58
100886.57
100915.4
100452.05
100536.83
100635.4
100737
100823.01
100891.57
100949.95
100991.74
101018.41
100622.28
100700.56
100782.28
100868.83
100938.59
101003.41
101058.19
101093.09
101118.17
100781.83
100846.18
100916.35
100991.85
101051.43
101110.55
101153.05
101185.87
101207.9
100917.82
100970.81
101030.52
101093.29
101148.27
101200.88
101232.56
101262.67
101280.87
101024.66
101068.41
101120.93
101174.17
101224.84
101270.43
101298.37
101323.92
101338.21
101100.14
101140.49
101187.21
101236.25
101281.77
101319.32
101346.6
101367.21
101378.62
101141.06
101180.34
101223.7
101269.13
101312.76
101342.7
101367.99
101384.62
101392.77
101138.58
101178.61
101224.52
101267.17
101312.03
101341.97
101362.81
101376.88
101383.66
101076.3
101124.79
101180.18
101232.11
101283.67
101316.61
101337.42
101352.45
101360.54
100991.36
101048.72
101113.24
101180.47
101238.95
101276.09
101303.05
101322.07
101333.67
100940.26
101003.83
101078.88
101151.69
101212
101255.31
101288.12
101311.3
101326.62
100983.8
101049.93
101114.63
101174.3
101232.58
101286.06
101326.56
101355.35
101375.36
101092.37
101150.21
101216.95
101279.94
101338.5
101392.16
101437.19
101471.23
101494.46
101234.9
101290.04
101360.89
101434.02
101502.24
101563.49
101610.72
101644.32
101664.21
101365.78
101422.71
101494.39
101564.72
101636.57
101703.1
101747.35
101782.21
101813.56
101399.41
101446.53
101504.29
101580.38
101651.66
101727.77
101778.36
101821.19
101867.05
101236.9
101284.26
101335.55
101394.51
101450.4
101512.46
101571.99
101624.33
101666.21
101018.83
101032.47
101049.13
101079.03
101127.93
101189.57
101242.99
101281.66
101308.31
100754.08
100766.53
100810.5
100871.91
100936.73
100965.97
100968.16
100994.62
101016.99
100832.57
100831.63
100815.1
100803.71
100801.8
100833.65
100887.32
100929
100962.41
100953.94
100998.53
101048.06
101108.23
101174.14
101245.79
101307.67
101353.46
101382.56
101389.33
101442.97
101497.79
101560.9
101617.9
101670.91
101724.61
101762.7
101780.64
101484.59
101517.33
101554.33
101593.1
101628.19
101657.12
101680.7
101696.6
101703.48
101368.47
101383.18
101400.44
101419.48
101438.78
101457.4
101476.85
101493.26
101503.66
101269.73
101291.05
101315.21
101340.14
101363.46
101382.6
101393.82
101399.67
101404.03
101358.3
101372.63
101390.69
101411.82
101435.33
101457.06
101475.28
101492.25
101505.2
101354.8
101371.77
101391.87
101412.88
101434.52
101454.63
101471.87
101485.89
101495.86
101271.81
101268.95
101265.54
101262.63
101260.71
101259.77
101259.26
101258.95
101258.7
101178.9
101173.35
101167.43
101162.13
101157.97
101155.69
101154.76
101154.86
101155.54
101251.69
101254.26
101257.2
101260.65
101264.17
101267.69
101270.83
101273.42
101275.32
101373.75
101378.5
101383.26
101387.9
101392.14
101395.75
101398.54
101400.48
101401.73
101353.6
101357.06
101361
101365.07
101368.8
101371.84
101374.05
101375.5
101376.38
101340.4
101340.25
101339.99
101339.67
101339.28
101338.87
101338.47
101338.12
101337.87
101318.36
101317.42
101316.47
101315.61
101314.9
101314.38
101314.07
101313.91
101313.84
101316.64
101315.69
101314.61
101313.5
101312.47
101311.59
101310.92
101310.44
101310.12
101312.27
101312.47
101312.75
101313.09
101313.45
101313.78
101314.05
101314.25
101314.38
101314.87
101315.28
101315.75
101316.29
101316.92
101317.62
101318.25
101318.69
101318.92
101317.14
101317.07
101316.98
101316.88
101316.75
101316.61
101316.51
101316.51
101316.55
101315.06
101315.03
101315
101314.94
101314.85
101314.79
101314.74
101314.7
101314.67
101309.79
101309.77
101309.73
101309.71
101309.72
101309.73
101309.73
101309.72
101309.71
101300.83
101300.84
101300.86
101300.87
101300.86
101300.85
101300.83
101300.8
101300.78
101291.67
101291.65
101291.62
101291.61
101291.62
101291.61
101291.59
101291.58
101291.57
101283.96
101283.91
101283.86
101283.8
101283.74
101283.69
101283.65
101283.62
101283.6
101277.5
101277.46
101277.43
101277.41
101277.37
101277.33
101277.31
101277.29
101277.27
101277.97
101277.93
101277.88
101277.84
101277.8
101277.76
101277.74
101277.72
101277.7
101288.13
101288.13
101288.13
101288.13
101288.12
101288.12
101288.12
101288.12
101288.12
101304.66
101304.68
101304.71
101304.73
101304.74
101304.76
101304.77
101304.78
101304.79
101322.89
101322.89
101322.87
101322.86
101322.86
101322.85
101322.85
101322.85
101322.85
101342
101341.98
101341.95
101341.91
101341.87
101341.84
101341.82
101341.81
101341.8
101353.69
101353.59
101353.49
101353.4
101353.3
101353.2
101353.11
101353.03
101352.97
101356.18
101356.05
101355.93
101355.8
101355.68
101355.56
101355.46
101355.36
101355.27
100316.54
100319.35
100322.43
100325.49
100328
100328.6
100393.03
100398.4
100403.32
100407.26
100409.67
100409.2
100471.64
100478.83
100485.1
100490.03
100493.68
100495.35
100553.49
100561.38
100568.46
100574.37
100578.09
100579.42
100639.51
100648.78
100656.62
100662.47
100666.87
100668.49
100730.54
100740.1
100747.93
100753.49
100756.79
100758.36
100828.55
100838.33
100847.55
100853.77
100856.89
100858.02
100930.6
100941.16
100949.79
100955.6
100959.72
100959.9
101033.38
101043.4
101051.23
101056.78
101060.42
101060.62
101132.83
101142.21
101151.44
101157.77
101162.56
101163.42
101218.06
101227.63
101235.1
101238.91
101244.73
101245.75
101287.76
101295.09
101298.57
101299.39
101302.24
101300.74
101345.2
101350.03
101352.24
101353.18
101353.42
101350.53
101385.4
101387.91
101389.47
101390.38
101390.56
101389.09
101398.35
101400.14
101401.47
101401.59
101401.52
101400.33
101388.14
101390.35
101392.19
101392.53
101392.39
101392.16
101365.55
101368.76
101371.17
101372.17
101372.42
101372.47
101341.07
101346.03
101349.43
101351.65
101353
101353.44
101336.69
101344.03
101349.66
101353.64
101356.09
101357.14
101388.57
101397.53
101404.36
101409.43
101413.13
101414.8
101509.3
101518.59
101525.44
101531.19
101535.73
101538.06
101674.21
101678.54
101682.72
101688.45
101694.02
101698.22
101832.98
101842.5
101848.83
101855.75
101863.72
101872.98
101899.75
101924.21
101945.29
101966.12
101984.1
102012.24
101696.36
101720.48
101736.85
101753.44
101773.25
101793.23
101328.12
101344.85
101357.56
101367.87
101377.06
101384.41
101039.48
101058.95
101073.42
101084.19
101091.02
101095.81
100989.83
101011.26
101027.18
101037.88
101044.1
101046.08
101398.08
101406.18
101410.14
101411.58
101411.66
101411.19
101794.69
101804.61
101808.04
101808.81
101806.8
101802.39
101708.9
101714.01
101716.81
101718.04
101718.24
101717.89
101511.44
101518.12
101522.83
101525.45
101526.59
101526.8
101407.31
101410.08
101412.29
101414.59
101416.51
101418.91
101514.65
101522.46
101529.47
101536.66
101541.13
101550.99
101502.94
101508.77
101514.17
101519.61
101523.89
101528.93
101259.02
101260
101261.08
101262.27
101263.27
101263.99
101156.43
101157.23
101157.89
101158.35
101158.62
101159.21
101276.34
101276.69
101276.86
101276.86
101276.72
101276.66
101402.27
101402.29
101402.05
101401.62
101400.8
101399.61
101376.96
101377.41
101377.68
101377.8
101377.83
101377.79
101337.76
101337.79
101337.87
101337.96
101338.04
101338.07
101313.89
101314.04
101314.25
101314.53
101314.78
101314.88
101309.89
101309.72
101309.6
101309.52
101309.48
101309.47
101314.46
101314.52
101314.55
101314.56
101314.57
101314.57
101319.02
101319.03
101319.01
101318.94
101318.82
101318.69
101316.58
101316.61
101316.62
101316.63
101316.64
101316.64
101314.65
101314.64
101314.63
101314.63
101314.63
101314.63
101309.7
101309.7
101309.69
101309.69
101309.69
101309.69
101300.77
101300.76
101300.76
101300.75
101300.75
101300.75
101291.55
101291.55
101291.55
101291.55
101291.55
101291.55
101283.58
101283.57
101283.57
101283.56
101283.56
101283.56
101277.24
101277.22
101277.19
101277.15
101277.12
101277.1
101277.68
101277.66
101277.64
101277.63
101277.62
101277.61
101288.12
101288.11
101288.1
101288.09
101288.09
101288.09
101304.8
101304.79
101304.78
101304.78
101304.78
101304.77
101322.85
101322.84
101322.84
101322.83
101322.83
101322.83
101341.79
101341.78
101341.77
101341.77
101341.76
101341.76
101352.92
101352.88
101352.85
101352.82
101352.81
101352.8
101355.17
101355.07
101354.98
101354.9
101354.85
101354.82
)
;

boundaryField
{
    Side1
    {
        type            empty;
    }
    Inlet
    {
        type            totalPressure;
        rho             rho;
        psi             none;
        gamma           1;
        p0              nonuniform List<scalar> 0();
        value           nonuniform List<scalar> 0();
    }
    Side2
    {
        type            empty;
    }
    Outlet
    {
        type            freestreamPressure;
        freestreamValue uniform 101325;
        value           nonuniform List<scalar> 
35
(
101325
101325
101325
101325
101325
101325
101325
101325
101325
101325
101325
101325
101325
101325
101325
101325
101325
101325
101325
101325
101325
101325
101325
101325
101325
101325
101325
101325
101325
101325
101325
101325
101325
101325
101325
)
;
    }
    Botwall
    {
        type            zeroGradient;
    }
    Cyli
    {
        type            zeroGradient;
    }
    procBoundary1to0
    {
        type            processor;
        value           nonuniform List<scalar> 
44
(
100089.75
100059.81
100020.25
100020.25
100049.42
100049.42
100068.31
99948.551
99948.551
99930.349
99930.349
99859.969
99640.593
99407.388
99407.388
99295.425
99172.324
99179.315
99243.234
99376.769
99627.863
99580.872
99627.863
99693.711
99642.736
99493.95
99493.95
100218.56
100234.29
100094.16
100105.29
100140.13
100185.77
100227.49
100263
100263
100059.81
100059.81
100241.7
100241.67
100242.8
100244.82
100247.47
100248.99
)
;
    }
    procBoundary1to3
    {
        type            processor;
        value           nonuniform List<scalar> 
62
(
99383.91
99469.901
99653.965
99946.012
100319.8
100671.42
100948.45
101221.56
101397.95
101526.31
101570.14
101560.87
101474.03
101333.56
101155.26
100915.87
100630.37
100435.45
100009.82
99821.21
99827.383
100047.72
100391.53
100808.95
101076.71
101201.37
101252.49
101236.41
101188.77
101107.34
101198.59
101129.82
101124.83
100911.27
101036.17
101162.18
101356.19
101362.85
101330.97
101305.05
101305.05
101253
101291.99
101332.7
101354.04
101334.85
101305.74
101310.44
101318.27
101317.42
101308.97
101299.46
101291.38
101285.43
101281.75
101282.16
101289.98
101305.52
101324.55
101344.57
101357.8
101365
)
;
    }
}


// ************************************************************************* //
