/*--------------------------------*- C++ -*----------------------------------*\
| =========                 |                                                 |
| \\      /  F ield         | OpenFOAM: The Open Source CFD Toolbox           |
|  \\    /   O peration     | Version:  2406                                  |
|   \\  /    A nd           | Website:  www.openfoam.com                      |
|    \\/     M anipulation  |                                                 |
\*---------------------------------------------------------------------------*/
FoamFile
{
    version     2.0;
    format      ascii;
    arch        "LSB;label=32;scalar=64";
    class       volScalarField;
    location    "0.032";
    object      alphat;
}
// * * * * * * * * * * * * * * * * * * * * * * * * * * * * * * * * * * * * * //

dimensions      [1 -1 -1 0 0 0 0];

internalField   nonuniform List<scalar> 
92813
(
0.039272293
0.042402303
0.04565152
0.04894339
0.052245428
0.055536834
0.058799961
0.062020684
0.065187255
0.068289581
0.071318591
0.074265639
0.077121886
0.079877873
0.082522916
0.085046306
0.087439514
0.089685953
0.091770597
0.093679617
0.095398271
0.096911656
0.098204833
0.099262389
0.10006838
0.10060644
0.10085985
0.10081167
0.10044484
0.099742422
0.098687845
0.097265274
0.095460029
0.093259141
0.090652004
0.087631148
0.08419356
0.080341105
0.076081957
0.071432151
0.066424032
0.061098498
0.055508013
0.049726365
0.043844738
0.037970272
0.032278156
0.026971697
0.022306955
0.018539152
0.015814898
0.014015752
0.012852762
0.012054825
0.011447882
0.010944537
0.010503602
0.010106283
0.0097429817
0.0094086892
0.009100856
0.0088163285
0.0085531989
0.0083096641
0.0080841283
0.0078742976
0.0076794498
0.0074991386
0.0073308929
0.007174972
0.0070305071
0.0068952067
0.0067690142
0.0066516117
0.0065410376
0.0064381453
0.0063426101
0.0062528282
0.0061692742
0.0060913062
0.0060176205
0.0059484699
0.0058833997
0.0058223045
0.0057650726
0.005710887
0.0056604791
0.0056135455
0.0055693186
0.0055282086
0.0054897018
0.005453236
0.0054191506
0.0053871867
0.0053569119
0.0053287605
0.0053024194
0.0052775151
0.0052543699
0.0052324662
0.0052118165
0.0051923765
0.0051740608
0.0051571409
0.005141334
0.0051263284
0.0051118874
0.0050978911
0.0050843648
0.0050715589
0.0050597367
0.0050488521
0.0050387132
0.0050293129
0.0050206194
0.0050126394
0.005005353
0.0049986694
0.0049926517
0.0049872126
0.004982416
0.0049782433
0.0049747288
0.0049717729
0.0049697099
0.0049677411
0.004967551
0.044086813
0.047251072
0.050411478
0.053571628
0.056725158
0.059860322
0.062964265
0.066025267
0.069032752
0.071976953
0.074848615
0.077638647
0.080337681
0.082935722
0.085422048
0.087785566
0.090014718
0.092095147
0.094012194
0.095751372
0.097297721
0.098635946
0.099751205
0.10062802
0.10125038
0.10160193
0.10166601
0.10142578
0.10086438
0.099965189
0.098712051
0.097089706
0.095084217
0.092683563
0.089878335
0.086662557
0.083034936
0.079000028
0.074568341
0.069757041
0.064603583
0.059154685
0.053465709
0.047616752
0.0417078
0.035866491
0.030271097
0.025147688
0.02076825
0.017374872
0.015023684
0.013510741
0.01252564
0.011824086
0.011268814
0.010794797
0.010372654
0.0099892671
0.0096372993
0.0093128603
0.0090139744
0.0087373627
0.0084814121
0.0082443935
0.0080247301
0.0078201022
0.0076299718
0.0074540549
0.0072896798
0.0071373355
0.0069961903
0.0068638405
0.0067404577
0.0066255605
0.006517182
0.0064163936
0.0063227139
0.0062345848
0.0061525197
0.0060759121
0.0060035432
0.005935596
0.0058715238
0.005811335
0.0057549632
0.0057015758
0.0056519757
0.0056057631
0.0055621754
0.0055216541
0.0054836813
0.0054477169
0.0054141273
0.0053826175
0.0053527706
0.0053250292
0.0052990484
0.0052744768
0.0052516168
0.0052299568
0.0052095349
0.0051902743
0.0051720922
0.0051552866
0.0051395879
0.0051246872
0.0051103617
0.0050964829
0.0050830673
0.0050703594
0.0050586298
0.0050478317
0.0050377676
0.0050284315
0.0050197956
0.0050118719
0.0050046289
0.0049979866
0.0049920075
0.0049866021
0.0049818322
0.0049776847
0.0049741888
0.0049712501
0.0049691992
0.0049672486
0.0049670573
0.049052412
0.0521295
0.055177131
0.058204695
0.061212858
0.064194415
0.067139917
0.070039915
0.072885152
0.075666497
0.07837487
0.081001088
0.083535616
0.085968288
0.088288211
0.090483683
0.092542141
0.094449721
0.096191908
0.097754083
0.09912128
0.10027816
0.10120947
0.10189958
0.10233254
0.10249203
0.10236149
0.10192427
0.10116376
0.10006368
0.09860839
0.096783279
0.09457526
0.091973389
0.088969612
0.085559658
0.081744264
0.077530696
0.072931313
0.067967819
0.06268269
0.057126377
0.051360472
0.045473102
0.039574605
0.033809081
0.028369235
0.023500359
0.019475176
0.016482091
0.014473983
0.013185133
0.012320352
0.011678441
0.01115403
0.010698343
0.010288889
0.0099154618
0.0095717817
0.009254572
0.0089621505
0.0086911155
0.0084401099
0.0082074668
0.0079916481
0.0077903665
0.0076032231
0.0074300204
0.0072680006
0.0071178876
0.0069786993
0.0068479098
0.006725947
0.0066123462
0.0065050829
0.0064053517
0.0063126005
0.0062252894
0.00614388
0.0060678879
0.0059961898
0.0059287548
0.0058651319
0.0058053985
0.0057494535
0.0056964578
0.0056472566
0.0056014035
0.0055581246
0.0055178832
0.0054801895
0.0054444941
0.0054111789
0.0053799355
0.0053503394
0.0053228327
0.0052970635
0.0052726888
0.0052499825
0.0052284552
0.0052081594
0.0051889774
0.0051708288
0.0051540431
0.0051383768
0.0051235235
0.0051092679
0.0050954661
0.0050821208
0.005069467
0.0050577856
0.0050470354
0.0050370142
0.0050277123
0.0050191072
0.0050112158
0.0050039945
0.0049973748
0.0049914179
0.0049860322
0.0049812766
0.0049771435
0.0049736577
0.004970729
0.004968687
0.0049667417
0.0049665542
0.054148839
0.057083001
0.059987092
0.062865961
0.065719839
0.068542401
0.071325393
0.074060451
0.0767391
0.079352663
0.081892238
0.084348614
0.086712122
0.088972445
0.091118492
0.093138305
0.095019019
0.09674682
0.0983072
0.099685506
0.10086669
0.10183522
0.10257566
0.10307233
0.1033093
0.10327034
0.10293904
0.10229895
0.10133381
0.10002777
0.098365793
0.096334026
0.093920366
0.091115104
0.087911729
0.084307883
0.080306631
0.075918246
0.071156509
0.066050187
0.060646805
0.054999057
0.049177395
0.04327855
0.037424023
0.031773397
0.026535974
0.021969275
0.01832652
0.015718713
0.014006377
0.012896567
0.012125685
0.011531376
0.011033012
0.010593739
0.010196102
0.009832214
0.0094965965
0.0091865423
0.0089006409
0.0086352707
0.008389379
0.0081613428
0.0079496437
0.0077520021
0.0075681672
0.0073980507
0.0072387402
0.0070911773
0.0069543231
0.0068255713
0.0067055259
0.0065936452
0.0064878571
0.0063895389
0.006298032
0.0062118208
0.0061313446
0.0060562586
0.0059855343
0.005918961
0.0058560536
0.0057969791
0.005741673
0.005689266
0.005640651
0.0055953226
0.0055525079
0.0055126942
0.0054754052
0.0054400943
0.0054071642
0.0053762868
0.0053470336
0.0053198453
0.0052943607
0.0052702545
0.0052477623
0.0052264199
0.0052063031
0.005187247
0.0051691794
0.0051524555
0.0051368535
0.0051220744
0.0051079105
0.0050942065
0.005080956
0.0050683848
0.0050567767
0.0050460953
0.0050361369
0.0050268864
0.0050183278
0.005010482
0.005003294
0.0049967073
0.0049907812
0.0049854233
0.0049806892
0.0049765761
0.0049731056
0.0049701908
0.0049681598
0.0049662219
0.0049660402
0.059339201
0.062104456
0.06484395
0.067558703
0.070247279
0.072902784
0.075516919
0.078081489
0.080588218
0.083028551
0.085393595
0.087674046
0.08986008
0.091941211
0.093906186
0.095742913
0.097438432
0.098978944
0.10034998
0.10153691
0.10252463
0.10329749
0.10383994
0.10413626
0.10417052
0.10392659
0.10338824
0.1025393
0.10136391
0.09984675
0.097973466
0.095731102
0.093108678
0.090097891
0.086693961
0.082896653
0.07871163
0.074152361
0.069235166
0.063995696
0.058486557
0.052763952
0.046907756
0.041023695
0.03524536
0.029748038
0.02475722
0.020534056
0.017292058
0.015051521
0.013598478
0.012637859
0.011944223
0.011389864
0.010914488
0.010490574
0.010104494
0.0097502191
0.0094228277
0.0091201343
0.0088409422
0.0085813498
0.0083406687
0.0081173041
0.0079097565
0.0077157727
0.0075352553
0.0073682186
0.0072116015
0.0070665811
0.0069320108
0.0068051886
0.0066869446
0.0065766871
0.006472295
0.0063753129
0.0062849676
0.0061997829
0.0061201723
0.0060458952
0.0059760541
0.0059102524
0.005847974
0.0057894961
0.005734773
0.0056828995
0.0056348058
0.0055899376
0.0055475273
0.0055080862
0.0054711572
0.0054361904
0.0054036053
0.0053730609
0.005344118
0.0053172114
0.0052919791
0.005268114
0.0052458042
0.0052246196
0.0052046588
0.0051857022
0.0051676905
0.0051510044
0.0051354441
0.0051207237
0.0051066408
0.0050930247
0.0050798608
0.0050673643
0.0050558196
0.0050451982
0.0050352962
0.0050260908
0.0050175727
0.0050097668
0.0050026069
0.0049960488
0.0049901494
0.004984816
0.0049801005
0.0049760048
0.0049725474
0.004969645
0.0049676242
0.0049656933
0.0049655158
0.064579523
0.067158516
0.069722336
0.072262856
0.074777245
0.077257983
0.079696465
0.082084316
0.084413137
0.086674264
0.088858669
0.090956885
0.092958908
0.09485409
0.096631042
0.098277585
0.099780723
0.1011267
0.10230111
0.10328937
0.10407639
0.10464646
0.10498398
0.1050732
0.10489821
0.10444302
0.10369161
0.10262817
0.10123727
0.099504235
0.097415504
0.094959141
0.092125441
0.088907683
0.085303022
0.081313567
0.076947877
0.072222769
0.067158239
0.061796654
0.056195563
0.050416267
0.044548405
0.038707312
0.033039957
0.027738104
0.02304133
0.019201868
0.016371077
0.014472846
0.013242439
0.012403953
0.011773033
0.011251958
0.010796832
0.010387203
0.010012224
0.0096673832
0.0093481075
0.009052718
0.0087801909
0.0085262825
0.0082907511
0.0080720099
0.0078685697
0.0076782151
0.0075010096
0.0073370706
0.0071831616
0.0070406994
0.0069084385
0.0067835863
0.0066672099
0.0065586344
0.0064556862
0.0063600937
0.0062709521
0.0061868324
0.0061081388
0.0060347081
0.0059657999
0.0059008529
0.0058392646
0.0057814293
0.0057273399
0.0056760456
0.0056285141
0.0055841396
0.0055421658
0.0055031303
0.0054665915
0.0054319975
0.0053997852
0.0053696003
0.0053409911
0.0053143848
0.0052894205
0.0052658141
0.0052436984
0.0052226811
0.0052028882
0.0051840399
0.0051660943
0.0051494543
0.0051339384
0.0051192807
0.0051052839
0.0050917606
0.0050786911
0.0050662792
0.0050548053
0.0050442498
0.0050344113
0.0050252565
0.0050167839
0.0050090213
0.0050018929
0.0049953665
0.004989496
0.0049841894
0.0049794947
0.004975418
0.0049719755
0.0049690865
0.0049670766
0.0049651529
0.0049649805
0.069830323
0.072208521
0.074591435
0.076951638
0.079285394
0.081584933
0.083841514
0.086046557
0.088191445
0.090267305
0.092264905
0.094174581
0.095986143
0.097688783
0.099271002
0.10072056
0.10202445
0.10316898
0.10413981
0.10492243
0.10550181
0.10586223
0.10598809
0.10586365
0.1054731
0.1048006
0.10383042
0.10254714
0.10093588
0.098982684
0.096674905
0.094001767
0.090955008
0.087529683
0.083725105
0.079545992
0.075004133
0.070119592
0.064917364
0.059446834
0.053770015
0.047954785
0.042101143
0.036335159
0.030818721
0.025760568
0.021408955
0.017988279
0.015565595
0.013975001
0.01293005
0.012189875
0.011609838
0.011116833
0.010679927
0.010283842
0.0099196882
0.009584234
0.0092730729
0.0089850337
0.0087192171
0.0084709776
0.0082406178
0.0080265258
0.0078272086
0.0076405084
0.0074666565
0.0073058635
0.0071547019
0.0070148337
0.006884905
0.0067620315
0.006647536
0.0065406534
0.006439161
0.0063449721
0.0062570356
0.0061739807
0.0060962276
0.0060236354
0.0059556422
0.0058915648
0.0058306727
0.0057734861
0.0057200362
0.005669323
0.0056223497
0.0055784598
0.0055369128
0.005498276
0.005462124
0.0054279005
0.0053960581
0.0053662308
0.0053379514
0.0053116379
0.0052869334
0.0052635796
0.0052416497
0.0052207905
0.0052011583
0.0051824098
0.0051645239
0.0051479236
0.0051324417
0.0051178405
0.0051039279
0.0050904947
0.0050775191
0.0050651926
0.0050537883
0.0050432975
0.0050335225
0.0050244183
0.0050159907
0.0050082698
0.0050011723
0.0049946769
0.0049888341
0.0049835538
0.0049788796
0.0049748214
0.0049713935
0.0049685177
0.0049665185
0.004964602
0.0049644343
0.075046715
0.077223309
0.079420743
0.081595851
0.083743894
0.085856933
0.087926168
0.089942848
0.091898132
0.093782926
0.095587786
0.097302849
0.098917748
0.10042154
0.10180262
0.10304871
0.10414683
0.10508333
0.10584396
0.10641431
0.10677942
0.10692362
0.10683137
0.10648701
0.10587488
0.10497935
0.10378504
0.102277
0.10044101
0.098263916
0.09573413
0.092842188
0.089581459
0.085948988
0.081946497
0.077581638
0.072869854
0.067833799
0.062505678
0.056942333
0.051208855
0.04538196
0.039572738
0.033919565
0.028600805
0.023841079
0.019886182
0.016907521
0.014872995
0.013547982
0.012653184
0.011991273
0.011452723
0.010983713
0.010563483
0.010180373
0.0098268063
0.0095006866
0.009197605
0.0089169183
0.0086578043
0.008415163
0.0081899546
0.0079805005
0.0077852864
0.0076022375
0.00743176
0.0072741438
0.0071257493
0.0069884914
0.0068609078
0.0067400241
0.0066274337
0.0065222682
0.0064222521
0.0063294891
0.0062427692
0.0061607869
0.0060840133
0.0060122699
0.0059451881
0.005882019
0.0058218582
0.0057653489
0.0057125615
0.0056624473
0.0056160471
0.0055726514
0.0055315396
0.0054933122
0.0054575586
0.005423718
0.0053922569
0.0053627976
0.0053348556
0.0053088404
0.0052843977
0.0052612986
0.0052395574
0.0052188557
0.0051993837
0.0051807353
0.0051629116
0.0051463527
0.0051309008
0.0051163541
0.0051025273
0.0050891856
0.005076307
0.0050640713
0.0050527398
0.0050423163
0.0050326083
0.005023558
0.0050151777
0.0050074991
0.0050004343
0.0049939711
0.0049881567
0.0049829034
0.0049782509
0.0049742118
0.0049707992
0.004967937
0.0049659486
0.0049640397
0.0049638768
0.080188004
0.082168899
0.08417712
0.086163395
0.088121725
0.090043942
0.091921197
0.093744601
0.095505128
0.097193493
0.098800066
0.10031481
0.10172721
0.10302621
0.10420013
0.10523667
0.10612286
0.10684513
0.10738933
0.10774116
0.10788575
0.10780755
0.10749113
0.10692099
0.10608165
0.10495781
0.1035345
0.10179735
0.099732854
0.097328833
0.094574893
0.091463059
0.087988534
0.084150593
0.079953647
0.075408648
0.070535257
0.065357819
0.05991853
0.054281741
0.048514064
0.042704368
0.036975397
0.031479736
0.026413205
0.02201164
0.018499342
0.015967473
0.014284987
0.013180414
0.012404327
0.011804486
0.01130016
0.01085202
0.010447338
0.01007679
0.0097336235
0.0094168116
0.0091217816
0.0088484545
0.008596034
0.008358924
0.0081388625
0.007934052
0.0077429377
0.007563558
0.0073964988
0.007242104
0.0070965073
0.0069618868
0.0068366674
0.0067177874
0.0066071219
0.0065036935
0.0064051727
0.0063138536
0.0062283587
0.0061474526
0.0060716973
0.0060008122
0.0059346263
0.0058723878
0.0058129863
0.0057571801
0.0057050702
0.0056555643
0.005609742
0.0055668414
0.0055261643
0.0054883494
0.0054529985
0.0054195464
0.0053884716
0.005359384
0.0053317797
0.0053060624
0.0052818773
0.0052590271
0.0052374741
0.0052169248
0.0051976057
0.0051790542
0.0051612911
0.0051447718
0.0051293432
0.0051148463
0.0051011053
0.0050878545
0.0050750738
0.0050629314
0.0050516739
0.0050413188
0.0050316792
0.0050226846
0.0050143525
0.0050067156
0.0049996842
0.0049932534
0.0049874671
0.004982241
0.0049776104
0.0049735906
0.0049701935
0.0049673449
0.0049653672
0.0049634661
0.0049633079
0.085217698
0.087006125
0.088824118
0.090619312
0.092385005
0.094112974
0.095794382
0.097420262
0.098981463
0.10046856
0.10187178
0.10318097
0.10438549
0.1054742
0.10643537
0.10725669
0.10792526
0.10842755
0.10874953
0.10887702
0.10879533
0.10848902
0.10794286
0.10714155
0.10606992
0.10471304
0.10305648
0.10108652
0.098790541
0.096157447
0.093178212
0.089846554
0.086159743
0.082119553
0.077733384
0.07301585
0.067991044
0.062686684
0.05715456
0.051465764
0.045691367
0.039933602
0.034327691
0.029042536
0.024290568
0.020307899
0.017270145
0.015167372
0.013788849
0.012860831
0.012176966
0.011626573
0.011150973
0.010721332
0.010331393
0.0099730936
0.0096401695
0.0093326441
0.0090456274
0.00877965
0.0085338909
0.0083022331
0.0080873073
0.0078871387
0.0077001182
0.0075244274
0.0073608324
0.0072096956
0.0070669179
0.0069349559
0.0068121124
0.0066952463
0.0065865212
0.0064848492
0.0063878419
0.0062979813
0.0062137201
0.0061338931
0.0060591932
0.0059891823
0.0059238812
0.0058625911
0.0058039827
0.0057489131
0.0056974991
0.0056486131
0.0056033746
0.0055609733
0.0055207345
0.0054833392
0.0054483985
0.0054153439
0.0053846633
0.0053559531
0.0053286888
0.0053032723
0.0052793424
0.0052567347
0.0052353737
0.005214974
0.0051958001
0.005177345
0.0051596437
0.0051431644
0.0051277546
0.0051133039
0.0050996494
0.00508649
0.0050738087
0.0050617632
0.0050505824
0.0050402977
0.005030729
0.0050217928
0.0050135107
0.0050059152
0.0049989188
0.0049925212
0.0049867631
0.0049815646
0.0049769568
0.0049729565
0.0049695757
0.0049667411
0.0049647738
0.0049628809
0.0049627272
0.090097414
0.091696001
0.093323682
0.094926355
0.096497253
0.09802829
0.099510687
0.10093545
0.10229338
0.10357495
0.10477033
0.10586925
0.10686102
0.10773445
0.10847779
0.10907875
0.10952446
0.10980152
0.109896
0.10979389
0.10948066
0.1089411
0.10816019
0.10712296
0.10581459
0.10422067
0.10232736
0.10012176
0.097592257
0.094729019
0.091524581
0.087974578
0.084078618
0.079841291
0.075273355
0.070393518
0.065230227
0.059816619
0.0542142
0.048499667
0.042751843
0.037087528
0.031655861
0.026643388
0.022274295
0.018764915
0.016211047
0.014497663
0.013369381
0.012578624
0.01196571
0.011455239
0.01100428
0.010591365
0.01021561
0.0098693082
0.009546487
0.0092482288
0.0089691813
0.0087105295
0.0084713801
0.0082451012
0.0080353043
0.0078397766
0.0076568557
0.0074848894
0.0073248166
0.0071769713
0.0070370327
0.0069077538
0.0067872954
0.0066724545
0.0065656831
0.006465785
0.00637031
0.006281919
0.0061989017
0.0061201581
0.0060465442
0.0059774291
0.0059130086
0.0058526735
0.0057948886
0.0057405919
0.0056898911
0.0056416349
0.0055969814
0.0055550808
0.0055152824
0.0054783128
0.0054437882
0.0054111385
0.0053808585
0.0053525291
0.0053256042
0.00530049
0.0052768111
0.0052544351
0.00523327
0.0052130163
0.0051939765
0.005175617
0.0051579777
0.0051415377
0.0051261428
0.0051117342
0.0050981655
0.0050850978
0.0050725168
0.0050605709
0.005049469
0.0050392566
0.0050297601
0.005020885
0.0050126541
0.0050050995
0.0049981393
0.0049917755
0.0049860455
0.0049808749
0.0049762904
0.00497231
0.0049689459
0.0049661254
0.0049641684
0.0049622838
0.0049621347
0.094786531
0.096197726
0.097635017
0.099044414
0.10041915
0.10175132
0.10303225
0.104253
0.10540435
0.10647678
0.10746042
0.10834497
0.10911971
0.10977344
0.11029443
0.11067043
0.11088865
0.11093579
0.11079807
0.11046168
0.10991231
0.109135
0.10811504
0.10683785
0.10528909
0.10345494
0.10132233
0.098879291
0.096115394
0.093022257
0.089594202
0.085829045
0.081729038
0.07730196
0.072562403
0.067533763
0.062247951
0.056746599
0.051101826
0.045393781
0.03971283
0.034191712
0.028995308
0.024326742
0.020409812
0.017411215
0.015322117
0.013941855
0.013010947
0.012324622
0.011766293
0.011288754
0.010859428
0.010461958
0.010100002
0.0097654632
0.0094526202
0.0091636034
0.008892478
0.008641108
0.0084084878
0.0081875287
0.0079828563
0.0077919637
0.0076131598
0.0074449675
0.0072884805
0.0071439485
0.0070068638
0.00688029
0.0067622169
0.0066494104
0.0065446023
0.0064464918
0.006352568
0.0062656526
0.0061838912
0.0061062378
0.0060337307
0.0059655376
0.005902007
0.0058426247
0.0057856899
0.005732205
0.0056822354
0.0056346198
0.0055905499
0.0055491515
0.0055097968
0.0054732607
0.0054391587
0.0054069221
0.0053770498
0.005349104
0.0053225174
0.0052977076
0.0052742758
0.0052521183
0.0052311543
0.0052110445
0.0051921264
0.0051738628
0.0051562868
0.0051398857
0.0051245037
0.0051101337
0.0050966499
0.0050836745
0.0050711948
0.0050593512
0.005048331
0.005038193
0.0050287706
0.005019959
0.005011781
0.0050042671
0.0049973448
0.0049910152
0.0049853136
0.0049801713
0.0049756108
0.0049716504
0.0049683036
0.0049654977
0.0049635506
0.0049616746
0.00496153
0.099241372
0.1004676
0.10171493
0.1029309
0.10410877
0.10524081
0.10631851
0.107333
0.10827516
0.10913549
0.10990415
0.11057087
0.11112495
0.1115552
0.11184995
0.11199702
0.11198372
0.1117969
0.11142295
0.1108483
0.1100589
0.1090401
0.10777761
0.10625729
0.10446542
0.1023889
0.10001555
0.097334529
0.094336774
0.091015578
0.087367307
0.083392253
0.079095663
0.074488926
0.069591038
0.064430973
0.059042524
0.053480302
0.047827241
0.042164472
0.036599384
0.031281371
0.026392073
0.0221451
0.018741021
0.01626232
0.014590769
0.013479655
0.012699082
0.012091323
0.011575504
0.011125857
0.010715934
0.010333078
0.0099846293
0.0096615786
0.0093586117
0.0090787965
0.0088155553
0.0085714029
0.0083451912
0.0081295242
0.0079299787
0.0077437115
0.0075690584
0.0074047064
0.0072518732
0.0071106637
0.0069764477
0.0068525966
0.0067368977
0.0066261357
0.0065232998
0.0064269857
0.006334633
0.0062491958
0.0061687043
0.006092153
0.0060207633
0.0059535225
0.0058909056
0.0058324672
0.0057764024
0.005723768
0.0056745465
0.0056275818
0.0055840919
0.0055431962
0.0055042888
0.0054681941
0.0054345209
0.0054027054
0.005373247
0.0053456858
0.005319435
0.0052949305
0.0052717414
0.005249787
0.0052290283
0.0052090609
0.0051902506
0.0051720836
0.0051545719
0.0051382091
0.0051228395
0.0051085049
0.0050951039
0.0050822214
0.005069844
0.0050581051
0.0050471693
0.0050371079
0.0050277608
0.0050190153
0.0050108915
0.0050034185
0.0049965354
0.0049902406
0.0049845673
0.0049794537
0.0049749178
0.0049709777
0.0049676488
0.0049648577
0.0049629203
0.0049610531
0.004960913
0.10341615
0.10445986
0.10551804
0.10654091
0.10752174
0.10845297
0.10932628
0.11013295
0.11086395
0.11150991
0.11206104
0.11250716
0.11283761
0.11304129
0.11310661
0.11302148
0.11277336
0.11234926
0.11173581
0.1109197
0.10988721
0.10862409
0.10711651
0.10535093
0.10331435
0.10099452
0.098380367
0.095462336
0.092232963
0.088687479
0.08482459
0.080647407
0.076164565
0.071391527
0.06635227
0.061081824
0.055618013
0.050028589
0.044405619
0.038836058
0.033446762
0.028403665
0.023903439
0.020155028
0.017301864
0.015316308
0.013994702
0.013090291
0.012421436
0.011872859
0.01139114
0.010965649
0.010573392
0.010204864
0.0098695966
0.0095576282
0.0092644947
0.0089938159
0.0087384538
0.0085014408
0.0082814506
0.008071102
0.0078766955
0.0076950378
0.0075245844
0.0073641539
0.0072150412
0.0070771488
0.0069458201
0.0068246961
0.0067113446
0.0066026396
0.0065017845
0.0064072677
0.0063165083
0.0062325487
0.0061533422
0.0060779099
0.006007642
0.0059413856
0.0058797173
0.0058222123
0.0057670308
0.0057152826
0.0056668234
0.00562052
0.0055776057
0.0055372132
0.0054987579
0.0054631124
0.0054298749
0.0053984884
0.0053694501
0.0053422728
0.0053163547
0.005292155
0.0052692045
0.0052474376
0.0052268864
0.0052070609
0.0051883452
0.0051702756
0.0051528296
0.0051365047
0.0051211485
0.0051068475
0.005093526
0.0050807373
0.0050684633
0.0050568313
0.005045983
0.0050360003
0.0050267299
0.0050180527
0.0050099846
0.0050025531
0.0049957105
0.0049894509
0.0049838064
0.0049787218
0.0049742111
0.0049702915
0.004966981
0.0049642054
0.0049622773
0.004960419
0.0049602834
0.10726301
0.10812662
0.10899681
0.10982727
0.11061132
0.11134158
0.1120099
0.11260778
0.11312633
0.11355631
0.11388808
0.11411155
0.11421616
0.11419093
0.11402437
0.11370455
0.1132191
0.11255524
0.11169988
0.11064001
0.10936234
0.10785307
0.10609897
0.10408722
0.10180564
0.099243052
0.096389636
0.093237388
0.089780698
0.086017037
0.081947797
0.077579309
0.072924065
0.068002171
0.062843295
0.057488619
0.051982771
0.04640744
0.040862105
0.035444893
0.030303542
0.025619628
0.021595894
0.018408664
0.016107233
0.014553922
0.013506896
0.012755168
0.012168052
0.0116648
0.011211981
0.010807415
0.010431368
0.010077686
0.009755004
0.0094534896
0.0091702989
0.008908635
0.0086612251
0.0084312714
0.0082172046
0.0080122972
0.007823049
0.0076459685
0.007479778
0.007323366
0.0071780361
0.0070434392
0.0069150264
0.0067966115
0.0066855638
0.0065789346
0.0064800695
0.006387341
0.0062982012
0.0062157191
0.0061378115
0.0060635199
0.0059943793
0.0059291403
0.0058684576
0.0058118798
0.0057575902
0.0057067578
0.0056590705
0.0056134374
0.0055710959
0.0055312072
0.0054932097
0.0054580206
0.0054252256
0.0053942762
0.0053656632
0.0053388677
0.0053132786
0.0052893804
0.0052666646
0.0052450702
0.0052247247
0.0052050412
0.005186409
0.0051684374
0.0051510583
0.0051347709
0.0051194311
0.0051051624
0.0050919163
0.0050792222
0.0050670531
0.00505553
0.0050447721
0.0050348703
0.0050256777
0.0050170708
0.0050090599
0.005001671
0.0049948699
0.0049886461
0.0049830306
0.0049779755
0.0049734905
0.0049695917
0.0049663002
0.0049635404
0.0049616216
0.0049597721
0.0049596409
0.11073171
0.11141774
0.11210136
0.11274045
0.11332838
0.11385795
0.11432124
0.11470995
0.1150154
0.11522853
0.11533983
0.11533936
0.11521672
0.11496104
0.11456101
0.11400487
0.11328047
0.1123753
0.11127658
0.10997171
0.10844788
0.10669185
0.10469111
0.10243367
0.099908389
0.097105329
0.094016162
0.090634691
0.086957476
0.082984585
0.078720505
0.074175251
0.069365724
0.064317431
0.059066668
0.05365963
0.048152575
0.042643001
0.037233999
0.032041682
0.027234182
0.023003864
0.019537921
0.016941253
0.01514771
0.013943676
0.013100775
0.012459463
0.011931181
0.01146397
0.011037639
0.01065032
0.010289458
0.0099520952
0.0096407741
0.0093489831
0.0090761119
0.0088231932
0.0085839439
0.0083609552
0.0081523637
0.0079531935
0.0077691037
0.007596522
0.007434679
0.007282407
0.0071409158
0.0070095639
0.0068841103
0.0067683576
0.0066595534
0.0065550301
0.0064581623
0.006367202
0.0062797151
0.0061987138
0.0061221137
0.0060489867
0.0059809911
0.0059168027
0.0058571321
0.0058014847
0.0057480955
0.0056981988
0.005651287
0.0056063319
0.0055645626
0.0055251789
0.0054876461
0.00545292
0.0054205745
0.0053900702
0.0053618868
0.0053354692
0.0053102054
0.0052866022
0.0052641171
0.0052426835
0.0052225368
0.0052029956
0.0051844392
0.0051665658
0.0051492549
0.0051330052
0.0051176859
0.0051034496
0.0050902742
0.0050776753
0.0050656132
0.0050542009
0.0050435361
0.0050337172
0.0050246038
0.0050160689
0.0050081167
0.0050007719
0.0049940131
0.0049878255
0.0049822398
0.0049772146
0.0049727557
0.004968878
0.0049656058
0.0049628625
0.004960953
0.0049591123
0.0049589855
0.11376965
0.11428069
0.11477943
0.11522851
0.11562135
0.11595098
0.11620972
0.11638951
0.1164819
0.11647801
0.11636853
0.11614368
0.11579322
0.11530647
0.11467229
0.11387916
0.11291519
0.11176821
0.11042582
0.10887589
0.1071062
0.10510422
0.10285824
0.10035731
0.097591511
0.094552362
0.091233306
0.087630268
0.083742345
0.079572625
0.075129173
0.07042622
0.065485716
0.060339499
0.055031927
0.049611589
0.044155297
0.038775018
0.033573781
0.028694641
0.024320376
0.020639315
0.017786102
0.015759474
0.014392092
0.013449733
0.012753994
0.012192359
0.011704992
0.011268067
0.010867676
0.010493599
0.010147696
0.0098283506
0.0095266654
0.00924428
0.0089821867
0.0087374431
0.0085067157
0.0082904612
0.0080868333
0.0078939576
0.0077149328
0.0075466962
0.0073893275
0.0072413601
0.0071037511
0.0069755346
0.0068531095
0.0067399433
0.0066333056
0.0065309375
0.0064360668
0.0063468446
0.0062610549
0.006181544
0.0061062509
0.0060343119
0.0059675007
0.0059043969
0.0058457432
0.0057910414
0.0057385654
0.0056896118
0.0056434731
0.0055992022
0.0055580074
0.0055191297
0.0054820698
0.0054478128
0.0054159242
0.0053858726
0.0053581211
0.0053320766
0.0053071346
0.0052838163
0.0052615569
0.0052402765
0.0052203164
0.0052009174
0.0051824339
0.0051646578
0.0051474168
0.0051312058
0.005115912
0.0051017093
0.0050885995
0.0050760964
0.0050641438
0.0050528439
0.0050422751
0.0050325409
0.0050235078
0.0050150464
0.0050071545
0.0049998559
0.0049931396
0.0049869889
0.0049814338
0.0049764388
0.0049720066
0.0049681504
0.0049648977
0.0049621714
0.0049602714
0.0049584392
0.0049583167
0.11632136
0.11666023
0.11697613
0.11723691
0.11743615
0.1175671
0.11762238
0.11759418
0.11747429
0.11725405
0.11692433
0.11647554
0.11589764
0.11518015
0.11431217
0.11328245
0.11207944
0.11069134
0.10910625
0.10731261
0.1052989
0.1030534
0.10056544
0.097825242
0.094824354
0.091556036
0.088015813
0.084202104
0.080116984
0.075767072
0.07116459
0.066328622
0.061286879
0.056078534
0.050756573
0.045376216
0.040036009
0.03485764
0.029954104
0.025492666
0.021658022
0.01860338
0.01636745
0.014838162
0.013797039
0.013039636
0.01244945
0.011944761
0.01148869
0.011075621
0.010694908
0.010339579
0.010009439
0.0097016445
0.0094124886
0.0091419239
0.0088888621
0.0086514688
0.008429491
0.008219573
0.0080206979
0.0078348134
0.0076605584
0.0074965072
0.0073437871
0.0072003341
0.0070666094
0.0069413335
0.0068220561
0.0067113687
0.0066068011
0.006506672
0.0064137811
0.0063262588
0.0062422282
0.0061642221
0.0060902229
0.0060194952
0.0059539323
0.0058919478
0.0058342917
0.0057805601
0.0057290176
0.005681
0.0056356281
0.0055920465
0.0055514297
0.0055130582
0.005476481
0.0054426999
0.0054112751
0.0053816835
0.0053543642
0.0053286871
0.0053040636
0.0052810167
0.005258977
0.0052378467
0.0052180562
0.0051987984
0.0051803898
0.0051627097
0.0051455402
0.0051293702
0.0051141079
0.0050999409
0.0050868922
0.0050744854
0.005062645
0.005051459
0.0050409885
0.0050313408
0.0050223893
0.0050140027
0.0050061728
0.0049989226
0.0049922491
0.0049861358
0.0049806124
0.0049756479
0.0049712428
0.0049674085
0.0049641754
0.0049614668
0.0049595769
0.0049577527
0.0049576346
0.11832932
0.11849886
0.1186342
0.11870881
0.1187164
0.11865052
0.11850409
0.1182696
0.11793905
0.11750399
0.11695551
0.11628422
0.11548028
0.11453347
0.11343317
0.11216847
0.11072821
0.10910109
0.10727577
0.10524139
0.10298727
0.10050269
0.097778172
0.094805388
0.091577596
0.088090119
0.084340946
0.080331439
0.076067179
0.071558942
0.066823831
0.061886594
0.056781666
0.05155681
0.046272674
0.040998905
0.035856963
0.030970865
0.026473182
0.022544325
0.019344347
0.016945131
0.015267887
0.014129137
0.013318261
0.012693442
0.012170744
0.011701399
0.011277438
0.010887933
0.010525998
0.010187558
0.0098717994
0.0095766623
0.0092994959
0.0090394971
0.0087956897
0.0085665928
0.0083508648
0.0081467317
0.0079551531
0.0077759566
0.0076059651
0.0074461536
0.0072981843
0.0071594457
0.0070294886
0.0069069291
0.0067909878
0.0066826158
0.0065800091
0.0064822559
0.0063912973
0.0063054315
0.0062232511
0.0061467587
0.0060740296
0.0060045462