/*--------------------------------*- C++ -*----------------------------------*\
| =========                 |                                                 |
| \\      /  F ield         | OpenFOAM: The Open Source CFD Toolbox           |
|  \\    /   O peration     | Version:  2406                                  |
|   \\  /    A nd           | Website:  www.openfoam.com                      |
|    \\/     M anipulation  |                                                 |
\*---------------------------------------------------------------------------*/
FoamFile
{
    version     2.0;
    format      ascii;
    arch        "LSB;label=32;scalar=64";
    class       volScalarField;
    location    "0.032";
    object      T;
}
// * * * * * * * * * * * * * * * * * * * * * * * * * * * * * * * * * * * * * //

dimensions      [0 0 0 1 0 0 0];

internalField   nonuniform List<scalar> 
92813
(
292.84692
292.84727
292.84664
292.84724
292.84894
292.85132
292.85415
292.85726
292.86048
292.86368
292.86675
292.86963
292.87225
292.87455
292.87648
292.87801
292.87909
292.87969
292.8798
292.87944
292.87859
292.87728
292.87549
292.87325
292.87056
292.86743
292.86389
292.85994
292.85562
292.85093
292.84592
292.84062
292.83505
292.82926
292.82331
292.81725
292.81115
292.80513
292.79932
292.7939
292.78894
292.78465
292.78154
292.78
292.78056
292.78389
292.79075
292.80186
292.81745
292.83665
292.85699
292.8754
292.89
292.90072
292.90849
292.91441
292.91927
292.92356
292.92752
292.93128
292.93487
292.93833
292.94166
292.94488
292.948
292.95101
292.95394
292.95676
292.9595
292.96215
292.96471
292.9672
292.96961
292.97195
292.97424
292.97646
292.97861
292.98072
292.98276
292.98475
292.98668
292.98855
292.99035
292.99209
292.99378
292.99543
292.99703
292.9986
293.00015
293.00167
293.00317
293.00464
293.00608
293.00747
293.00884
293.01016
293.01144
293.01268
293.01388
293.01503
293.01615
293.01722
293.01825
293.01925
293.02023
293.02117
293.02209
293.02297
293.02381
293.02461
293.02538
293.0261
293.02679
293.02744
293.02806
293.02865
293.02921
293.02974
293.03023
293.03069
293.03112
293.0315
293.03183
293.03211
293.03234
293.03249
293.03261
292.88801
292.88442
292.88186
292.88081
292.88064
292.88103
292.88187
292.88302
292.88436
292.88577
292.88716
292.88845
292.88957
292.89049
292.89115
292.89152
292.89155
292.89122
292.89051
292.8894
292.88788
292.88595
292.88359
292.88082
292.87763
292.87406
292.8701
292.86578
292.86112
292.85613
292.85085
292.8453
292.83953
292.83357
292.82747
292.82131
292.81516
292.80912
292.80334
292.79806
292.79329
292.78931
292.78665
292.78572
292.78708
292.79143
292.79954
292.812
292.82874
292.84838
292.86808
292.88503
292.89799
292.90736
292.91419
292.91949
292.92395
292.92795
292.93168
292.93523
292.93864
292.94193
292.9451
292.94817
292.95114
292.95402
292.95682
292.95952
292.96214
292.96468
292.96714
292.96952
292.97184
292.97409
292.97629
292.97842
292.9805
292.98253
292.9845
292.98641
292.98828
292.99009
292.99183
292.99351
292.99514
292.99674
292.99829
292.99982
293.00132
293.0028
293.00425
293.00569
293.00709
293.00845
293.00978
293.01107
293.01231
293.01353
293.0147
293.01582
293.01692
293.01796
293.01897
293.01995
293.0209
293.02182
293.02272
293.02358
293.02441
293.02519
293.02594
293.02665
293.02733
293.02797
293.02858
293.02916
293.0297
293.03022
293.03071
293.03117
293.03158
293.03196
293.03229
293.03256
293.03278
293.03294
293.03305
292.93211
292.92638
292.92191
292.91885
292.91658
292.91488
292.91367
292.91283
292.91226
292.91185
292.91151
292.91115
292.91072
292.91016
292.90942
292.90847
292.90729
292.90584
292.9041
292.90206
292.89968
292.89695
292.89387
292.89042
292.88663
292.88249
292.87801
292.87321
292.86811
292.86272
292.85707
292.85119
292.84512
292.8389
292.83259
292.82625
292.81996
292.81384
292.80807
292.80286
292.79822
292.79454
292.79232
292.79201
292.79422
292.79966
292.80907
292.82286
292.84057
292.86027
292.87896
292.8943
292.90569
292.91385
292.91987
292.92464
292.92873
292.93245
292.93595
292.93929
292.94251
292.94562
292.94862
292.95152
292.95434
292.95708
292.95975
292.96232
292.96482
292.96725
292.96959
292.97188
292.9741
292.97625
292.97836
292.98041
292.9824
292.98435
292.98625
292.98809
292.98989
292.99163
292.99332
292.99494
292.99652
292.99806
292.99957
293.00104
293.0025
293.00393
293.00534
293.00674
293.0081
293.00943
293.01073
293.01198
293.0132
293.01438
293.01552
293.01662
293.01769
293.01871
293.01969
293.02065
293.02158
293.02248
293.02336
293.02421
293.02501
293.02579
293.02652
293.02722
293.02788
293.02851
293.0291
293.02967
293.03021
293.03072
293.0312
293.03165
293.03206
293.03242
293.03275
293.03302
293.03324
293.03339
293.0335
292.97484
292.96739
292.96111
292.95616
292.952
292.94845
292.94541
292.94279
292.94049
292.9384
292.93645
292.93456
292.93266
292.93069
292.92862
292.9264
292.92402
292.92144
292.91865
292.91562
292.91234
292.90879
292.90495
292.90081
292.89637
292.89164
292.88662
292.88131
292.87574
292.86993
292.86389
292.85766
292.85127
292.84477
292.83822
292.83169
292.82527
292.81906
292.81331
292.80817
292.80367
292.80033
292.79861
292.79899
292.80213
292.80874
292.81949
292.83453
292.85292
292.87226
292.88963
292.90327
292.91317
292.92025
292.92555
292.92984
292.93359
292.93704
292.9403
292.94343
292.94646
292.94938
292.95221
292.95495
292.95762
292.96022
292.96274
292.96519
292.96757
292.96987
292.97211
292.97429
292.97641
292.97846
292.98048
292.98244
292.98435
292.98622
292.98804
292.98981
292.99154
292.99322
292.99484
292.99641
292.99792
292.99941
293.00087
293.00229
293.00371
293.0051
293.00647
293.00782
293.00915
293.01044
293.0117
293.01292
293.0141
293.01526
293.01637
293.01744
293.01848
293.01948
293.02043
293.02137
293.02227
293.02316
293.02402
293.02484
293.02563
293.02639
293.02711
293.02779
293.02844
293.02905
293.02964
293.0302
293.03072
293.03122
293.0317
293.03213
293.03254
293.0329
293.03322
293.03348
293.0337
293.03385
293.03396
293.01547
293.00658
292.99876
292.99218
292.98636
292.98115
292.97646
292.97221
292.96832
292.96468
292.96123
292.95789
292.9546
292.95131
292.94798
292.94457
292.94105
292.93739
292.93359
292.92961
292.92544
292.92107
292.91646
292.91161
292.90652
292.90119
292.8956
292.88978
292.88374
292.87749
292.87106
292.86447
292.85776
292.85099
292.84421
292.8375
292.83095
292.82468
292.81898
292.81392
292.80964
292.80671
292.80557
292.80674
292.81091
292.81879
292.8309
292.84704
292.86575
292.88429
292.90005
292.91198
292.92048
292.92659
292.93124
292.9351
292.93852
292.9417
292.94474
292.94766
292.95048
292.95322
292.95587
292.95845
292.96096
292.96341
292.9658
292.96811
292.97037
292.97256
292.97467
292.97675
292.97876
292.98072
292.98264
292.98451
292.98633
292.98813
292.98987
292.99156
292.99322
292.99484
292.9964
292.9979
292.99936
293.0008
293.0022
293.00357
293.00494
293.00629
293.00761
293.00893
293.01021
293.01146
293.01269
293.01388
293.01503
293.01615
293.01723
293.01828
293.01929
293.02026
293.02119
293.0221
293.02298
293.02384
293.02469
293.02549
293.02627
293.02701
293.02771
293.02838
293.02901
293.02961
293.03018
293.03073
293.03125
293.03174
293.0322
293.03263
293.03303
293.03339
293.0337
293.03396
293.03418
293.03432
293.03443
293.05411
293.04407
293.035
293.02701
293.01974
293.01305
293.00688
293.00116
292.9958
292.99074
292.9859
292.98121
292.97662
292.97208
292.96755
292.963
292.9584
292.95371
292.94893
292.94403
292.93899
292.93379
292.92842
292.92287
292.91711
292.91116
292.90501
292.89866
292.89213
292.88543
292.87859
292.87164
292.86461
292.85757
292.85056
292.84367
292.83702
292.83072
292.82508
292.82016
292.81617
292.81371
292.81323
292.81531
292.82063
292.82986
292.84329
292.86029
292.87887
292.89619
292.91017
292.92041
292.92763
292.93288
292.93696
292.94041
292.94352
292.94644
292.94925
292.95196
292.95458
292.95713
292.9596
292.96201
292.96436
292.96667
292.96891
292.97109
292.97322
292.97529
292.97729
292.97925
292.98116
292.98302
292.98485
292.98663
292.98836
292.99007
292.99174
292.99335
292.99494
292.99649
292.99798
292.99942
293.00083
293.00221
293.00355
293.00488
293.0062
293.0075
293.00878
293.01005
293.0113
293.01251
293.0137
293.01485
293.01597
293.01706
293.01811
293.01913
293.02011
293.02105
293.02196
293.02285
293.02371
293.02455
293.02537
293.02616
293.02691
293.02763
293.02832
293.02897
293.02959
293.03018
293.03074
293.03128
293.03178
293.03226
293.03272
293.03314
293.03353
293.03388
293.03419
293.03444
293.03466
293.0348
293.03491
293.09079
293.07984
293.06975
293.06058
293.05204
293.04406
293.03658
293.02954
293.02287
293.0165
293.01038
293.00444
292.99864
292.99294
292.98729
292.98165
292.97601
292.97034
292.96461
292.95882
292.95293
292.94693
292.9408
292.93453
292.92811
292.92154
292.91481
292.90793
292.90091
292.89376
292.88651
292.87919
292.87184
292.86452
292.85729
292.85024
292.84349
292.8372
292.83166
292.82691
292.82328
292.82138
292.82168
292.82478
292.83136
292.84198
292.85662
292.87413
292.89208
292.90782
292.91994
292.92858
292.93465
292.93913
292.9427
292.94577
292.94859
292.95125
292.95383
292.95632
292.95874
292.9611
292.9634
292.96563
292.96782
292.96998
292.97208
292.97412
292.97613
292.97807
292.97995
292.9818
292.98361
292.98536
292.98709
292.98878
292.99042
292.99205
292.99364
292.99517
292.99669
292.99817
292.9996
293.00098
293.00232
293.00364
293.00494
293.00621
293.00748
293.00873
293.00997
293.0112
293.0124
293.01358
293.01473
293.01585
293.01693
293.01799
293.01901
293.01999
293.02095
293.02186
293.02275
293.02361
293.02444
293.02526
293.02606
293.02683
293.02757
293.02827
293.02894
293.02958
293.03018
293.03076
293.03131
293.03183
293.03233
293.0328
293.03324
293.03366
293.03404
293.03438
293.03469
293.03494
293.03515
293.03529
293.0354
293.12554
293.11387
293.10295
293.09277
293.08317
293.07408
293.06545
293.05724
293.04939
293.04185
293.03456
293.02748
293.02057
293.01377
293.00707
293.00042
292.9938
292.98718
292.98055
292.97389
292.96718
292.96039
292.95352
292.94655
292.93948
292.93229
292.92498
292.91756
292.91005
292.90245
292.89479
292.8871
292.87943
292.87184
292.8644
292.85721
292.85039
292.84415
292.83875
292.83423
292.83105
292.8298
292.83098
292.83522
292.84317
292.85516
292.87079
292.88834
292.90517
292.91908
292.92935
292.93652
292.94157
292.94538
292.94848
292.9512
292.95372
292.95613
292.95848
292.96076
292.96297
292.96514
292.96726
292.96932
292.97135
292.97335
292.97531
292.97721
292.97908
292.9809
292.98266
292.9844
292.9861
292.98774
292.98938
292.99097
292.99252
292.99407
292.99557
292.99703
292.99847
292.99988
293.00124
293.00256
293.00384
293.00511
293.00634
293.00756
293.00878
293.00999
293.01118
293.01237
293.01353
293.01466
293.01578
293.01686
293.01791
293.01893
293.01992
293.02087
293.0218
293.02269
293.02355
293.02438
293.0252
293.02599
293.02677
293.02752
293.02824
293.02892
293.02958
293.0302
293.03079
293.03135
293.03188
293.0324
293.03288
293.03334
293.03378
293.03418
293.03456
293.0349
293.0352
293.03544
293.03565
293.03578
293.03589
293.15838
293.14615
293.13454
293.12355
293.11305
293.10301
293.09339
293.08416
293.07527
293.06668
293.05834
293.05022
293.04228
293.03448
293.0268
293.0192
293.01166
293.00415
292.99666
292.98917
292.98167
292.97412
292.96653
292.95888
292.95115
292.94335
292.93547
292.92753
292.91952
292.91147
292.90341
292.89536
292.88739
292.87954
292.87191
292.8646
292.85774
292.85161
292.84639
292.84215
292.83952
292.83905
292.84124
292.84675
292.8561
292.86938
292.88564
292.9027
292.91798
292.92991
292.9384
292.94425
292.94841
292.95163
292.9543
292.95669
292.95893
292.96109
292.9632
292.96526
292.96726
292.96924
292.97118
292.97306
292.97493
292.97678
292.97859
292.98035
292.98209
292.98378
292.98541
292.98704
292.98863
292.99017
292.9917
292.9932
292.99466
292.99612
292.99754
292.99892
293.00029
293.00162
293.00292
293.00417
293.00539
293.0066
293.00778
293.00894
293.01011
293.01127
293.01241
293.01356
293.01468
293.01577
293.01685
293.01789
293.0189
293.0199
293.02085
293.02177
293.02267
293.02353
293.02436
293.02517
293.02596
293.02673
293.02749
293.02822
293.02892
293.02959
293.03022
293.03083
293.0314
293.03195
293.03247
293.03297
293.03344
293.0339
293.03432
293.03472
293.03509
293.03542
293.03571
293.03595
293.03615
293.03629
293.0364
293.18937
293.17668
293.16453
293.15286
293.14163
293.13079
293.12033
293.11022
293.10042
293.09091
293.08164
293.07258
293.06371
293.05499
293.0464
293.03792
293.02951
293.02117
293.01286
293.00459
292.99632
292.98805
292.97976
292.97144
292.96309
292.95469
292.94626
292.93779
292.9293
292.92082
292.91236
292.90396
292.89569
292.88761
292.87981
292.87241
292.86556
292.85959
292.85458
292.85075
292.84879
292.84921
292.85256
292.85943
292.87021
292.88455
292.90095
292.91695
292.93034
292.94027
292.94713
292.95182
292.9552
292.95789
292.96018
292.96224
292.9642
292.96611
292.96799
292.96984
292.97162
292.97341
292.97516
292.97687
292.97856
292.98026
292.98193
292.98354
292.98515
292.98671
292.98822
292.98973
292.99121
292.99264
292.99407
292.99547
292.99684
292.99821
292.99955
293.00085
293.00213
293.00339
293.00462
293.00581
293.00697
293.00812
293.00924
293.01035
293.01147
293.01258
293.01367
293.01477
293.01585
293.0169
293.01794
293.01894
293.01992
293.02088
293.0218
293.02269
293.02355
293.02439
293.02519
293.02598
293.02674
293.02749
293.02822
293.02893
293.02961
293.03026
293.03088
293.03147
293.03203
293.03256
293.03307
293.03356
293.03402
293.03446
293.03488
293.03527
293.03563
293.03595
293.03624
293.03647
293.03667
293.0368
293.03691
293.21856
293.20552
293.19291
293.18071
293.16888
293.15739
293.14622
293.13536
293.12478
293.11445
293.10435
293.09446
293.08475
293.0752
293.06579
293.05649
293.04728
293.03816
293.02909
293.02007
293.01109
293.00212
292.99317
292.98421
292.97524
292.96627
292.9573
292.94832
292.93937
292.93046
292.92162
292.9129
292.90435
292.89606
292.88812
292.88068
292.8739
292.86812
292.86342
292.86013
292.85896
292.8604
292.86504
292.87336
292.88545
292.90048
292.91644
292.93087
292.94216
292.95016
292.95558
292.95925
292.96195
292.96418
292.9661
292.96785
292.96954
292.9712
292.97285
292.97447
292.97604
292.97764
292.9792
292.98073
292.98226
292.9838
292.98532
292.98678
292.98826
292.98968
292.99107
292.99247
292.99383
292.99515
292.99648
292.99778
292.99905
293.00033
293.00159
293.00281
293.00402
293.0052
293.00636
293.00748
293.00857
293.00966
293.01073
293.01178
293.01285
293.01391
293.01496
293.01601
293.01704
293.01805
293.01905
293.02001
293.02095
293.02187
293.02276
293.02362
293.02445
293.02526
293.02604
293.02679
293.02753
293.02826
293.02897
293.02966
293.03032
293.03095
293.03155
293.03212
293.03266
293.03318
293.03368
293.03415
293.03461
293.03504
293.03544
293.03582
293.03618
293.03649
293.03677
293.037
293.0372
293.03733
293.03744
293.246
293.2327
293.21975
293.20713
293.19482
293.18279
293.17103
293.15954
293.14828
293.13726
293.12644
293.11581
293.10535
293.09505
293.08488
293.07484
293.0649
293.05505
293.04527
293.03555
293.02589
293.01627
293.00668
292.99712
292.98757
292.97805
292.96855
292.95909
292.94969
292.94038
292.93118
292.92215
292.91336
292.90489
292.89686
292.88941
292.88279
292.8773
292.87298
292.87035
292.87012
292.87275
292.87879
292.88855
292.90173
292.91691
292.93179
292.94425
292.9534
292.95962
292.96378
292.96659
292.96869
292.97051
292.97208
292.97352
292.97495
292.97635
292.97778
292.97918
292.98053
292.98193
292.98331
292.98466
292.98602
292.9874
292.98877
292.99008
292.99142
292.99271
292.99397
292.99525
292.99649
292.9977
292.99893
293.00013
293.00131
293.0025
293.00367
293.00481
293.00593
293.00704
293.00813
293.00918
293.01021
293.01124
293.01224
293.01324
293.01426
293.01526
293.01626
293.01727
293.01826
293.01922
293.02018
293.0211
293.022
293.02289
293.02374
293.02457
293.02537
293.02615
293.0269
293.02763
293.02834
293.02905
293.02973
293.0304
293.03104
293.03165
293.03223
293.03279
293.03331
293.03382
293.0343
293.03476
293.0352
293.03562
293.03602
293.03639
293.03674
293.03704
293.03732
293.03754
293.03774
293.03786
293.03797
293.27175
293.25828
293.24508
293.23214
293.21944
293.20698
293.19474
293.18272
293.1709
293.15927
293.14782
293.13655
293.12543
293.11446
293.10362
293.0929
293.08229
293.07177
293.06134
293.05098
293.04069
293.03045
293.02026
293.01012
293.00003
292.98998
292.97999
292.97008
292.96025
292.95056
292.94103
292.93173
292.92273
292.91413
292.90605
292.89866
292.8923
292.88716
292.88333
292.88154
292.88241
292.88637
292.89389
292.90499
292.91882
292.93348
292.9467
292.95696
292.96405
292.9687
292.9718
292.97386
292.97543
292.97688
292.97812
292.97925
292.98042
292.98157
292.98277
292.98394
292.98507
292.98628
292.98748
292.98864
292.98983
292.99106
292.99227
292.99343
292.99463
292.99579
292.99691
292.99808
292.9992
293.0003
293.00143
293.00252
293.0036
293.0047
293.00578
293.00684
293.00788
293.00891
293.00993
293.01092
293.01187
293.01284
293.01379
293.01473
293.01569
293.01664
293.01759
293.01855
293.01949
293.02041
293.02133
293.02221
293.02308
293.02392
293.02474
293.02554
293.02631
293.02705
293.02778
293.02848
293.02917
293.02984
293.03051
293.03115
293.03177
293.03236
293.03293
293.03346
293.03398
293.03447
293.03493
293.03538
293.03581
293.03622
293.03661
293.03697
293.0373
293.0376
293.03787
293.03809
293.03828
293.03841
293.03851
293.29588
293.28231
293.26893
293.25576
293.24278
293.22997
293.21734
293.20488
293.19259
293.18045
293.16847
293.15664
293.14494
293.13338
293.12194
293.11062
293.0994
293.08828
293.07724
293.06628
293.05541
293.0446
293.03386
293.02318
293.01257
293.00203
292.99158
292.98124
292.97103
292.96099
292.95117
292.94163
292.93247
292.92379
292.91573
292.9085
292.90247
292.89777
292.89463
292.89386
292.89597
292.90139
292.91037
292.9225
292.93636
292.9498
292.96093
292.96896
292.97415
292.97746
292.97968
292.98108
292.98218
292.9833
292.9842
292.98504
292.98595
292.98685
292.98782
292.98876
292.98967
292.99069
292.9917
292.99268
292.9937
292.99476
292.99582
292.99683
292.99789
292.99891
292.9999
293.00095
293.00196
293.00294
293.00396
293.00495
293.00593
293.00694
293.00793
293.00891
293.00986
293.01081
293.01176
293.01268
293.01357
293.01447
293.01536
293.01624
293.01715
293.01805
293.01894
293.01986
293.02075
293.02163
293.0225
293.02334
293.02417
293.02498
293.02576
293.02652
293.02726
293.02797
293.02867
293.02934
293.03001
293.03066
293.0313
293.03192
293.03252
293.03309
293.03364
293.03415
293.03465
293.03512
293.03558
293.03601
293.03643
293.03683
293.0372
293.03755
293.03788
293.03818
293.03844
293.03865
293.03884
293.03896
293.03906
293.31845
293.30484
293.29136
293.27803
293.26483
293.25177
293.23883
293.22602
293.21334
293.20078
293.18834
293.17603
293.16384
293.15176
293.1398
293.12793
293.11617
293.1045
293.09292
293.08142
293.07001
293.05867
293.04742
293.03625
293.02516
293.01417
293.0033
292.99257
292.98201
292.97166
292.96159
292.95186
292.94259
292.9339
292.92596
292.91899
292.91339
292.90927
292.90702
292.90743
292.91095
292.91789
292.92815
292.94079
292.95393
292.96551
292.97434
292.98025
292.98378
292.98597
292.98744
292.98827
292.98897
292.98974
292.99032
292.99089
292.99154
292.99219
292.99292
292.99363
292.99433
292.99516
292.99597
292.99677
292.99762
292.99853
292.99942
293.00028
293.0012
293.00208
293.00294
293.00387
293.00475
293.00562
293.00654
293.00742
293.0083
293.00921
293.01012
293.01101
293.01188
293.01275
293.01362
293.01447
293.01529
293.01613
293.01695
293.01778
293.01863
293.01948
293.02032
293.02119
293.02203
293.02286
293.02369
293.02449
293.02528
293.02605
293.02679
293.02752
293.02823
293.02891
293.02958
293.03023
293.03086
293.03149
293.03211
293.0327
293.03328
293.03383
293.03436
293.03486
293.03534
293.03579
293.03623
293.03665
293.03706
293.03744
293.03781
293.03815
293.03847
293.03876
293.03902
293.03923
293.0394
293.03952
293.03962
293.33953
293.32592
293.31241
293.29898
293.28564
293.27238
293.25921
293.24612
293.23313
293.22022
293.20741
293.1947
293.18208
293.16956
293.15713
293.1448
293.13255
293.12039
293.10832
293.09634
293.08444
293.07263
293.06091
293.04929
293.03777
293.02637
293.01512
293.00404
292.99317
292.98256
292.97229
292.96245
292.95314
292.94452
292.93678
292.93022
292.9252
292.9218
292.92065
292.92243
292.92747
292.93585
292.94699
292.9594
292.97104
292.98036
292.98688
292.99088
292.99304
292.99429
292.99507
292.99547
292.99582
292.99618
292.99648
292.99682
292.99721
292.9976
292.99808
292.99855
292.99904
292.99969
293.0003
293.00092
293.0016
293.00234
293.00307
293.00378
293.00456
293.0053
293.00603
293.00683
293.00759
293.00834
293.00915
293.00993
293.01071
293.01153
293.01234
293.01314
293.01394
293.01472
293.01552
293.0163
293.01705
293.01782
293.01858
293.01934
293.02014
293.02093
293.02173
293.02254
293.02334
293.02412
293.02491
293.02567
293.02641
293.02714
293.02785
293.02854
293.02921
293.02987
293.0305
293.03112
293.03173
293.03233
293.03293
293.0335
293.03405
293.03459
293.03509
293.03557
293.03603
293.03648
293.0369
293.03731
293.0377
293.03807
293.03843
293.03876
293.03907
293.03935
293.0396
293.03981
293.03998
293.0401
293.0402
293.35917
293.34562
293.33211
293.31865
293.30522
293.29183
293.27849
293.26519
293.25195
293.23877
293.22565
293.2126
293.19963
293.18673
293.17391
293.16117
293.1485
293.13592
293.12341
293.11099
293.09867
293.08643
293.07429
293.06227
293.05036
293.0386
293.02702
293.01564
293.00452
292.99371
292.98331
292.97341
292.96416
292.95571
292.9483
292.94234
292.93802
292.93553
292.93571
292.93901
292.94557
292.95509
292.96645
292.97778
292.9873
292.99423
292.99855
293.00086
293.00201
293.00248
293.00262
293.00271
293.00271
293.00263
293.0027
293.00282
293.00292
293.00306
293.00327
293.0035
293.00384
293.00426
293.00467
293.00513
293.00563
293.00621
293.00677
293.00733
293.00796
293.00856
293.00916
293.00983
293.01047
293.01111
293.01181
293.01248
293.01316
293.01388
293.0146
293.01532
293.01602
293.01673
293.01745
293.01815
293.01883
293.01954
293.02024
293.02094
293.02168
293.02241
293.02315
293.02392
293.02467
293.0254
293.02614
293.02686
293.02756
293.02825
293.02892
293.02958
293.03022
293.03084
293.03145
293.03204
293.03262
293.03319
293.03376
293.03431
293.03484
293.03535
293.03584
293.0363
293.03674
293.03717
293.03758
293.03797
293.03835
293.03871
293.03906
293.03938
293.03968
293.03995
293.0402
293.0404
293.04057
293.04068
293.04078
293.37744
293.36399
293.35053
293.33707
293.3236
293.31014
293.29668
293.28323
293.2698
293.25641
293.24304
293.22973
293.21646
293.20325
293.1901
293.17701
293.16398
293.15103
293.13815
293.12535
293.11265
293.10004
293.08754
293.07516
293.06292
293.05085
293.03899
293.02737
293.01606
293.00512
292.99467
292.98481
292.97572
292.96758
292.96067
292.95544
292.95199
292.95071
292.9524
292.95726
292.96514
292.97521
292.98592
292.99538
293.00247
293.00705
293.00937
293.01036
293.01073
293.0106
293.01026
293.00994
293.00957
293.0092
293.00898
293.00881
293.00866
293.00857
293.00849
293.00852
293.00869
293.00886
293.00909
293.0094
293.00973
293.01012
293.01051
293.01093
293.01141
293.01187
293.01234
293.01288
293.0134
293.01391
293.0145
293.01507
293.01564
293.01627
293.01689
293.01752
293.01814
293.01876
293.01941
293.02003
293.02065
293.02129
293.02192
293.02256
293.02324
293.02392
293.02461
293.02532
293.02602
293.02671
293.0274
293.02807
293.02873
293.02938
293.03001
293.03064
293.03124
293.03183
293.03241
293.03297
293.03352
293.03407
293.03461
293.03514
293.03565
293.03614
293.0366
293.03704
293.03747
293.03788
293.03827
293.03865
293.03902
293.03937
293.0397
293.04001
293.04031
293.04057
293.04081
293.041
293.04117
293.04128
293.04137
293.39439
293.38107
293.36769
293.35427
293.34081
293.32731
293.31379
293.30024
293.28668
293.27313
293.25958
293.24605
293.23255
293.21909
293.20566
293.19229
293.17896
293.16569
293.1525
293.13938
293.12635
293.11343
293.10061
293.08794
293.07543
293.06311
293.05103
293.03924
293.02781
293.01683
293.00642
292.99671
292.98791
292.98024
292.97405
292.96974
292.96736
292.96754
292.97084
292.97714
292.98583
292.99559
293.00476
293.01182
293.01638
293.01874
293.01959
293.0197
293.01931
293.01864
293.01787
293.01715
293.01645
293.01581
293.01528
293.01482
293.01442
293.01408
293.01379
293.01364
293.01356
293.01348
293.01356
293.01373
293.01388
293.01407
293.01428
293.01459
293.0149
293.01521
293.01557
293.01597
293.01636
293.01677
293.01724
293.01769
293.01817
293.01869
293.01923
293.01977
293.0203
293.02084
293.0214
293.02195
293.02249
293.02307
293.02363
293.02421
293.02483
293.02545
293.02609
293.02674
293.02739
293.02803
293.02868
293.0293
293.02992
293.03053
293.03112
293.03171
293.03228
293.03284
293.03338
293.03391
293.03444
293.03496
293.03548
293.03598
293.03646
293.03693
293.03738
293.0378
293.03821
293.0386
293.03898
293.03934
293.03969
293.04003
293.04035
293.04066
293.04094
293.04119
293.04142
293.04161
293.04177
293.04188
293.04198
293.41007
293.39691
293.38364
293.3703
293.35687
293.34338
293.32983
293.31623
293.30259
293.28893
293.27525
293.26157
293.24789
293.23423
293.22059
293.20698
293.19341
293.17989
293.16643
293.15305
293.13976
293.12657
293.11351
293.1006
293.08788
293.07538
293.06316
293.05128
293.03982
293.0289
293.01864
293.00923
293.00087
292.99386
292.98867
292.98543
292.98434
292.98618
292.99103
292.99834
293.007
293.01549
293.02234
293.02677
293.029
293.02968
293.02952
293.02878
293.02775
293.0266
293.02544
293.02437
293.02336
293.02242
293.0216
293.02087
293.02022
293.01964
293.01914
293.01876
293.01846
293.01822
293.0181
293.01807
293.01806
293.01806
293.01813
293.01829
293.01842
293.01861
293.01885
293.01909
293.01935
293.01966
293.02001
293.02036
293.02074
293.02115
293.02159
293.02204
293.02249
293.02294
293.02343
293.0239
293.02437
293.02487
293.02537
293.02589
293.02645
293.02701
293.02759
293.02819
293.02879
293.02938
293.02998
293.03056
293.03113
293.0317
293.03225
293.0328
293.03334
293.03386
293.03438
293.03487
293.03537
293.03587
293.03636
293.03683
293.0373
293.03774
293.03817
293.03857
293.03896
293.03933
293.0397
293.04005
293.04038
293.04071
293.04102
293.04131
293.04159
293.04183
293.04205
293.04224
293.04239
293.0425
293.04259
293.42454
293.41153
293.39841
293.38515
293.37179
293.35834
293.3448
293.3312
293.31753
293.30381
293.29005
293.27627
293.26246
293.24866
293.23486
293.22107
293.20732
293.1936
293.17994
293.16635
293.15285
293.13947
293.12622
293.11315
293.10028
293.08768
293.0754
293.06353
293.05216
293.04141
293.03146
293.0225
293.0148
293.00872
293.00472
293.00273
293.00322
293.00669
293.01271
293.02022
293.02781
293.03417
293.03822
293.0402
293.04072
293.04021
293.03908
293.03763
293.03607
293.0345
293.03299
293.03158
293.03027
293.02905
293.02795
293.02695
293.02605
293.02524
293.02452
293.02392
293.02341
293.02299
293.02268
293.02245
293.02226
293.02211
293.02204
293.02201
293.02197
293.02206
293.02217
293.02225
293.0224
293.02261
293.02281
293.02305
293.02334
293.02366
293.02399
293.02435
293.02471
293.02508
293.02549
293.02588
293.02628
293.02671
293.02714
293.02759
293.02809
293.0286
293.02912
293.02967
293.03021
293.03075
293.0313
293.03183
293.03236
293.03289
293.0334
293.03391
293.03441
293.0349
293.03539
293.03586
293.03632
293.03679
293.03725
293.03771
293.03814
293.03857
293.03897
293.03935
293.03972
293.04008
293.04043
293.04076
293.04108
293.0414
293.0417
293.04198
293.04224
293.04248
293.0427
293.04287
293.04302
293.04313
293.04322
293.43781
293.42492
293.41194
293.39882
293.38557
293.3722
293.35873
293.34515
293.33149
293.31776
293.30397
293.29014
293.27626
293.26237
293.24846
293.23455
293.22067
293.20681
293.193
293.17927
293.16563
293.15211
293.13875
293.12559
293.11267
293.10005
293.08782
293.07607
293.06491
293.05451
293.04504
293.03675
293.02993
293.02509
293.02245
293.0219
293.02405
293.02882
293.03521
293.04181
293.04733
293.05092
293.05248
293.05267
293.05178
293.05021
293.04832
293.0463
293.04429
293.04235
293.04052
293.03879
293.03718
293.03569
293.03431
293.03305
293.03191
293.03086
293.02993
293.02912
293.02841
293.02779
293.02729
293.02687
293.02651
293.0262
293.02596
293.02577
293.02561
293.02555
293.0255
293.02544
293.02549
293.02558
293.02565
293.02579
293.02599
293.02619
293.02642
293.0267
293.02697
293.02726
293.02757
293.02788
293.02821
293.02857
293.02894
293.02933
293.02976
293.03021
293.03068
293.03117
293.03166
293.03215
293.03265
293.03313
293.03362
293.0341
293.03457
293.03504
293.03551
293.03596
293.03641
293.03685
293.03729
293.03773
293.03817
293.03859
293.03901
293.03941
293.03979
293.04015
293.0405
293.04084
293.04117
293.04149
293.0418
293.0421
293.04239
293.04266
293.04291
293.04314
293.04335
293.04352
293.04367
293.04376
293.04385
293.44992
293.43717
293.42431
293.41136
293.39826
293.38501
293.37162
293.35812
293.34451
293.33081
293.31703
293.30319
293.28929
293.27535
293.26139
293.24742
293.23345
293.21952
293.20563
293.19181
293.1781
293.16453
293.15113
293.13796
293.12508
293.11256
293.10049
293.08901
293.07824
293.06838
293.05963
293.05227
293.04662
293.04319
293.04204
293.04309
293.04665
293.05187
293.05741
293.06199
293.06482
293.06589
293.06559
293.06422
293.06218
293.0598
293.05731
293.05484
293.05245
293.05017
293.04801
293.04599
293.04409
293.04232
293.04069
293.03917
293.03779
293.03652
293.03537
293.03435
293.03344
293.03263
293.03194
293.03133
293.0308
293.03033
293.02993
293.02958
293.02928
293.02906
293.02887
293.0287
293.02863
293.02858
293.02852
293.02858
293.02867
293.02874
293.02889
293.02908
293.02925
293.02946
293.02969
293.02992
293.03018
293.03046
293.03076
293.03109
293.03146
293.03185
293.03226
293.03269
293.03313
293.03357
293.03401
293.03445
293.03489
293.03533
293.03576
293.03619
293.03662
293.03704
293.03746
293.03787
293.03828
293.03869
293.03909
293.0395
293.03989
293.04026
293.04062
293.04096
293.04129
293.04161
293.04193
293.04223
293.04252
293.04281
293.04309
293.04335
293.04359
293.04381
293.04401
293.04418
293.04432
293.04441
293.0445
293.46087
293.44832
293.43567
293.42289
293.40993
293.3968
293.38353
293.37012
293.3566
293.34297
293.32924
293.31543
293.30155
293.28762
293.27366
293.25967
293.24569
293.23173