/*--------------------------------*- C++ -*----------------------------------*\
| =========                 |                                                 |
| \\      /  F ield         | OpenFOAM: The Open Source CFD Toolbox           |
|  \\    /   O peration     | Version:  2406                                  |
|   \\  /    A nd           | Website:  www.openfoam.com                      |
|    \\/     M anipulation  |                                                 |
\*---------------------------------------------------------------------------*/
FoamFile
{
    version     2.0;
    format      ascii;
    arch        "LSB;label=32;scalar=64";
    class       volVectorField;
    location    "0.02";
    object      U;
}
// * * * * * * * * * * * * * * * * * * * * * * * * * * * * * * * * * * * * * //

dimensions      [0 1 -1 0 0 0 0];

internalField   nonuniform List<vector> 
2065
(
(44.096792 31.864682 -1.2756903e-20)
(45.614354 30.443916 -1.4094302e-23)
(47.058592 29.021146 9.6753455e-21)
(48.454372 27.592446 8.2572537e-21)
(49.796225 26.114357 -6.9979744e-21)
(51.062588 24.605151 -5.8924824e-21)
(52.242824 23.107105 1.9825684e-20)
(53.327908 21.65681 0)
(54.34604 20.283495 0)
(55.344401 18.993553 1.4887245e-21)
(56.276402 17.802046 -1.2773757e-21)
(57.166481 16.701601 -3.5737956e-20)
(58.007876 15.678008 -3.314149e-20)
(58.788906 14.687501 6.2284379e-20)
(59.345578 13.695967 -9.51723e-22)
(59.537585 12.607977 0)
(59.046617 11.136948 1.5292014e-21)
(57.953778 9.2545849 -2.2478153e-21)
(57.215139 7.8707095 0)
(56.769557 6.8447392 -3.2348329e-19)
(56.407922 5.9417896 -1.1875256e-18)
(56.10581 5.1087981 -5.368086e-19)
(55.805305 4.3777998 0)
(55.50344 3.6689357 1.7268748e-18)
(55.207854 3.0359211 -1.5002777e-21)
(54.954981 2.4061017 1.3624884e-18)
(54.681293 1.857876 -5.8833057e-22)
(54.519129 1.2147833 1.0658374e-18)
(54.338797 0.73386704 0)
(54.09356 0.083600452 6.387014e-19)
(52.354694 -0.1005622 -2.2225091e-25)
(42.968313 30.997322 -2.130516e-23)
(44.553108 29.715657 -4.840619e-24)
(46.055882 28.496427 7.4094823e-24)
(47.514805 27.23596 7.4780401e-21)
(48.929957 25.908779 1.2970919e-20)
(50.28329 24.533352 1.1153851e-20)
(51.559587 23.143653 -3.8130251e-20)
(52.751002 21.773942 -4.0654328e-21)
(53.870548 20.454361 -1.0415019e-20)
(54.941733 19.196928 2.9764937e-21)
(55.947168 18.014367 -2.5774739e-21)
(56.897041 16.908076 0)
(57.782897 15.866643 -2.0693075e-21)
(58.588859 14.855764 -2.7232529e-20)
(59.154817 13.811426 -1.9756073e-21)
(59.323208 12.685193 0)
(58.794491 11.123356 -2.0289589e-19)
(57.730463 9.2143677 4.5706423e-21)
(57.073243 7.8572598 -5.1286901e-21)
(56.670236 6.8409493 0)
(56.330052 5.9398494 2.1958722e-21)
(56.043381 5.1063112 -4.0166647e-21)
(55.754376 4.3765179 1.8031486e-21)
(55.461419 3.6681145 -1.6489786e-18)
(55.173834 3.0347201 7.3413707e-19)
(54.927346 2.4057022 -1.2721071e-21)
(54.658801 1.8570564 1.1255256e-21)
(54.50027 1.2134779 -2.0402683e-18)
(54.32287 0.73437891 -1.799111e-18)
(54.082648 0.086629044 -8.9837991e-19)
(52.34598 -0.10448008 -5.169439e-23)
(41.797548 29.828987 -9.2047873e-21)
(43.359221 28.797447 1.004928e-23)
(44.911503 27.805079 -7.5594236e-21)
(46.441687 26.738255 6.8282954e-21)
(47.938064 25.58445 -1.2158099e-20)
(49.383314 24.362702 -1.0722776e-20)
(50.761048 23.101609 3.7540538e-20)
(52.060337 21.832092 0)
(53.284731 20.584162 1.4190396e-20)
(54.445655 19.373345 3.0919015e-21)
(55.534103 18.212542 -2.7146632e-21)
(56.553189 17.109186 4.1167806e-20)
(57.492779 16.054803 3.5457073e-20)
(58.331347 15.023569 3.1779001e-20)
(58.915837 13.929738 0)
(59.067278 12.758093 0)
(58.510235 11.089758 -1.5235199e-23)
(57.49771 9.1847387 0)
(56.927365 7.8732648 0)
(56.563837 6.8642088 2.9388977e-19)
(56.245517 5.9622644 1.070987e-18)
(55.975995 5.1240067 -4.8273159e-19)
(55.700489 4.3920122 0)
(55.417534 3.6809995 7.6034517e-19)
(55.138391 3.0442494 -6.7434247e-19)
(54.897911 2.4135806 -1.1737884e-21)
(54.633911 1.8627187 0)
(54.478345 1.2168335 9.3991872e-19)
(54.304032 0.73849396 -1.8846122e-23)
(54.070314 0.089843537 -1.019908e-18)
(52.337082 -0.10356666 -8.1286475e-19)
(40.818846 28.505473 7.6443976e-21)
(42.327976 27.717669 -7.0479478e-21)
(43.874158 26.949916 1.3264008e-20)
(45.429732 26.09087 -1.2312844e-20)
(46.973308 25.128455 1.1264093e-20)
(48.484188 24.078657 -1.0181519e-20)
(49.94297 22.965631 -1.8207724e-20)
(51.334217 21.816184 0)
(52.653061 20.658095 7.1650092e-21)
(53.902467 19.509671 -6.3472919e-21)
(55.073046 18.385278 2.2634657e-20)
(56.162611 17.295475 -5.0945183e-21)
(57.158164 16.234715 4.7356814e-21)
(58.029826 15.184607 -3.6609084e-20)
(58.63159 14.043583 0)
(58.760112 12.816846 -2.7595811e-21)
(58.177653 11.030536 1.1904981e-19)
(57.234244 9.1563692 4.6180737e-21)
(56.759008 7.8862974 3.024152e-19)
(56.439275 6.8805723 -2.8203994e-19)
(56.146506 5.9778512 -4.8963891e-19)
(55.896658 5.1351618 4.4487054e-19)
(55.636621 4.4017904 3.0438575e-25)
(55.365133 3.6891858 -7.0532972e-19)
(55.096117 3.0498372 6.2572894e-19)
(54.863254 2.4184874 -2.1464538e-21)
(54.604918 1.8660725 0)
(54.452925 1.2182827 0)
(54.281915 0.7417389 1.5144453e-18)
(54.055633 0.093295125 9.4802674e-19)
(52.326573 -0.097443778 0)
(40.045204 27.073934 6.3132946e-21)
(41.479035 26.505491 0)
(42.978687 25.947074 -5.7583993e-21)
(44.517658 25.294693 -1.0952923e-20)
(46.071617 24.53171 1.0463106e-23)
(47.61678 23.667051 1.9038807e-20)
(49.130458 22.718741 -8.7252571e-21)
(50.59282 21.708133 5.4600117e-24)
(51.991298 20.658969 1.8084431e-24)
(53.32018 19.590519 1.2872892e-20)
(54.567663 18.51846 -3.4963127e-20)
(55.725664 17.454639 -3.7390946e-20)
(56.77671 16.395966 0)
(57.680251 15.330077 3.9238204e-20)
(58.29484 14.14287 0)
(58.392195 12.849382 9.5852711e-20)
(57.789305 10.93567 -1.1717224e-19)
(56.945318 9.1267185 -2.9528351e-19)
(56.572704 7.8972909 -2.6837893e-19)
(56.298927 6.8965915 1.1709948e-24)
(56.034941 5.995305 -7.0647172e-21)
(55.807237 5.1486018 3.1498384e-21)
(55.565053 4.4142057 2.4674891e-25)
(55.306614 3.7000883 6.3392495e-19)
(55.049138 3.0576916 -5.6381383e-19)
(54.824783 2.4253757 0)
(54.572374 1.8711174 0)
(54.423864 1.2208294 0)
(54.255973 0.74626463 1.3712125e-18)
(54.039188 0.097033552 2.1563057e-22)
(52.314697 -0.092015438 8.9501515e-23)
(39.493204 25.560455 5.1987208e-21)
(40.832291 25.188689 -9.9840927e-21)
(42.254896 24.81993 1.4840852e-20)
(43.740928 24.362449 9.6453458e-21)
(45.268022 23.796117 -1.854962e-20)
(46.812097 23.121391 8.0962353e-24)
(48.348839 22.348395 4.1153976e-20)
(49.855127 21.491568 -2.2886147e-20)
(51.312036 20.569026 0)
(52.705597 19.598357 0)
(54.019947 18.595068 0)
(55.240348 17.570905 -3.8703626e-20)
(56.343147 16.524343 3.6838658e-20)
(57.274947 15.44701 -8.3343887e-20)
(57.89445 14.212778 0)
(57.951104 12.837108 -1.0917263e-19)
(57.335791 10.797114 1.2755245e-19)
(56.633022 9.0966437 2.8000247e-19)
(56.363872 7.9042086 0)
(56.139231 6.9081873 -2.2976545e-19)
(55.907863 6.0100782 -4.173807e-19)
(55.704906 5.1598183 -3.5403392e-19)
(55.482955 4.4248815 -6.5399245e-19)
(55.239315 3.7098095 -5.7488063e-19)
(54.995199 3.0644761 0)
(54.780131 2.4316373 0)
(54.535302 1.8758158 0)
(54.390781 1.2228899 0)
(54.225746 0.75103236 -1.2363807e-18)
(54.020887 0.10119883 3.9907876e-22)
(52.301704 -0.090576452 -3.5188855e-19)
(39.181111 23.994681 -1.5653646e-20)
(40.410408 23.80055 3.3367651e-20)
(41.732457 23.599516 -3.3787007e-20)
(43.134294 23.317508 1.6861002e-20)
(44.598798 22.934829 1.6564209e-20)
(46.104796 22.444711 -4.0163219e-20)
(47.628758 21.848973 2.5590839e-24)
(49.146141 21.154216 -7.5142811e-24)
(50.633661 20.371546 -1.3669201e-20)
(52.070585 19.514203 -1.2781708e-20)
(53.435727 18.595233 3.5935908e-20)
(54.707125 17.624537 4.5292251e-20)
(55.853206 16.600816 -8.752153e-20)
(56.805211 15.516621 8.779281e-20)
(57.416529 14.231317 0)
(57.423005 12.75247 -1.3567022e-20)
(56.816766 10.613912 1.5769503e-20)
(56.300702 9.0652982 -2.5293265e-19)
(56.131009 7.9050128 0)
(55.958666 6.9140649 2.0804325e-19)
(55.764205 6.0223431 3.709591e-19)
(55.588902 5.169937 -2.7197016e-23)
(55.389912 4.4352709 -3.8427076e-23)
(55.163249 3.7199278 5.1642812e-19)
(54.934441 3.0717174 -4.6018413e-19)
(54.729053 2.4385202 3.1504232e-21)
(54.493642 1.8812867 0)
(54.353511 1.2253735 6.2822731e-19)
(54.190949 0.75672352 1.1077773e-18)
(53.999905 0.10584244 -3.671772e-22)
(52.287793 -0.093133097 1.6886084e-22)
(39.120985 22.455789 0)
(40.226527 22.394461 3.4862044e-21)
(41.429033 22.327147 0)
(42.721587 22.192425 0)
(44.092877 21.970366 -1.4707306e-20)
(45.526284 21.648765 1.4566435e-20)
(47.001151 21.221994 -1.1726187e-23)
(48.493767 20.688652 0)
(49.978975 20.051895 1.317945e-20)
(51.43144 19.318425 0)
(52.824586 18.496259 -4.7891658e-20)
(54.129035 17.59117 5.7579013e-20)
(55.303571 16.600236 -2.6456955e-23)
(56.260756 15.511825 -1.0327592e-19)
(56.843857 14.165509 1.1060717e-19)
(56.792054 12.558412 -2.811209e-20)
(56.246567 10.401046 1.5171678e-20)
(55.947438 9.0258099 2.3209967e-19)
(55.871462 7.8967425 -2.0981772e-19)
(55.754707 6.9111273 0)
(55.601821 6.0292895 3.3311537e-19)
(55.457116 5.1769279 5.8101176e-19)
(55.283824 4.4433737 8.1245578e-21)
(55.076635 3.7286944 3.60892e-21)
(54.865217 3.078039 -6.3965627e-21)
(54.67042 2.4448609 2.8146728e-21)
(54.446522 1.8866892 0)
(54.311576 1.2277087 -1.0804559e-21)
(54.151587 0.76298962 9.8982588e-22)
(53.974562 0.11074797 5.517318e-19)
(52.272939 -0.10080559 3.3252348e-19)
(39.295919 20.9612 0)
(40.273287 20.996935 8.7709796e-21)
(41.345433 21.032765 -1.2308937e-20)
(42.511962 21.0149 0)
(43.767098 20.925292 6.5267629e-21)
(45.099047 20.748544 6.5848461e-21)
(46.491426 20.473263 1.3126536e-20)
(47.923497 20.091012 -1.2937188e-20)
(49.370809 19.597118 8.7233223e-24)
(50.805898 18.990505 3.6809631e-20)
(52.197831 18.271903 3.5717989e-20)
(53.510089 17.440396 -5.8190738e-20)
(54.690086 16.489084 5.7951476e-20)
(55.627885 15.392225 5.9664215e-20)
(56.15376 13.965618 -1.2815746e-19)
(56.033337 12.205241 -9.888729e-20)
(55.651913 10.193627 -1.4234558e-20)
(55.569015 8.9715094 1.3161218e-20)
(55.583091 7.8751174 -3.8395558e-23)
(55.524851 6.8963711 1.0484211e-20)
(55.41941 6.0286763 -9.2667731e-21)
(55.308211 5.1802576 -2.6349282e-19)
(55.163478 4.4488412 4.6603221e-19)
(54.978711 3.7360803 4.0532851e-19)
(54.786783 3.0837523 3.6925473e-19)
(54.603626 2.4509489 0)
(54.393416 1.8923305 0)
(54.264689 1.2302212 -4.9934708e-19)
(54.107782 0.77012165 -8.8047337e-19)
(53.946048 0.11604585 -3.9955423e-19)
(52.257096 -0.097068825 0)
(39.675586 19.537206 -1.9217999e-20)
(40.530882 19.631637 -2.4719908e-21)
(41.472386 19.738538 -2.6511537e-21)
(42.504169 19.808428 -2.2389661e-20)
(43.626823 19.819814 1.1655571e-20)
(44.834158 19.758211 2.3932277e-20)
(46.115213 19.608614 -2.43038e-20)
(47.453668 19.357356 0)
(48.827654 18.993045 -3.6376371e-20)
(50.209672 18.506595 1.5313421e-23)
(51.565795 17.889778 -4.7345e-20)
(52.852664 17.13255 4.7077594e-20)
(54.004319 16.220968 -4.7595743e-20)
(54.887585 15.092684 -2.479057e-20)
(55.31412 13.565765 0)
(55.17345 11.693051 -4.9788171e-23)
(55.0659 9.9936279 -2.6161547e-20)
(55.165125 8.8935565 2.3671337e-20)
(55.262617 7.8336009 -3.8164931e-23)
(55.265701 6.8664592 0)
(55.215786 6.0165675 -2.6530196e-19)
(55.140844 5.1781302 0)
(55.026941 4.449676 0)
(54.867794 3.7404588 -3.6028577e-19)
(54.69752 3.0878108 -1.0095805e-20)
(54.52749 2.4558668 -5.6115438e-19)
(54.333124 1.8975579 -3.9275985e-21)
(54.212334 1.2325264 1.7322726e-21)
(54.059549 0.77786408 -7.8494339e-19)
(53.912917 0.12191638 6.2832225e-22)
(52.24048 -0.091887063 0)
(40.218233 18.17954 0)
(40.947724 18.325829 2.1635962e-21)
(41.764553 18.469865 2.100618e-20)
(42.66378 18.590969 -2.0050029e-20)
(43.64882 18.667291 1.057742e-20)
(44.719151 18.683813 0)
(45.869519 18.625153 -2.2765872e-20)
(47.088563 18.474899 4.6480224e-20)
(48.35797 18.21628 -3.5267418e-20)
(49.651512 17.832287 2.3641665e-20)
(50.93307 17.304461 -1.1967009e-23)
(52.151707 16.611399 -1.9583276e-24)
(53.224879 15.725941 -2.457235e-20)
(54.010171 14.493656 2.5385624e-20)
(54.284264 12.927312 1.5795092e-19)
(54.302522 11.102218 7.7310602e-20)
(54.503535 9.781397 2.3525766e-20)
(54.733512 8.7824197 1.2626271e-19)
(54.908716 7.7629947 1.8671646e-20)
(54.974856 6.8182791 -1.161167e-19)
(54.989562 5.988626 -2.9469849e-20)
(54.954457 5.1691153 2.6629886e-25)
(54.872565 4.4443176 1.1495335e-20)
(54.742496 3.7407851 -3.2469292e-19)
(54.596227 3.0899111 0)
(54.441224 2.4593262 -3.01892e-23)
(54.264629 1.9021673 -4.4568638e-19)
(54.153581 1.2348227 -3.0707886e-21)
(54.006725 0.78628277 6.9435087e-19)
(53.875958 0.1276808 5.6042717e-22)
(52.224024 -0.087677922 0)
(40.928019 16.851353 3.0962531e-20)
(41.533485 16.987703 0)
(42.205842 17.158868 -3.443002e-20)
(42.962236 17.302033 4.669487e-21)
(43.802692 17.413996 3.4806395e-20)
(44.72822 17.477696 3.6765448e-20)
(45.735879 17.477817 -4.3962753e-20)
(46.816939 17.396711 -5.6891329e-20)
(47.955428 17.213764 5.8439012e-20)
(49.125808 16.904855 -2.3873367e-20)
(50.288443 16.440965 -2.3691203e-23)
(51.381295 15.787002 -1.2131792e-23)
(52.298295 14.882038 -3.0208083e-24)
(52.919409 13.511435 -7.76122e-20)
(53.193029 11.91326 -1.001782e-19)
(53.52555 10.64141 1.1674901e-19)
(53.932306 9.6071878 -2.1158486e-20)
(54.288067 8.5719096 -1.5072445e-19)
(54.522204 7.6919929 -3.5808981e-23)
(54.656827 6.7145875 1.1781939e-19)
(54.737594 5.9405773 0)
(54.74723 5.1498939 0)
(54.698741 4.4299381 1.0183184e-20)
(54.600943 3.7348542 2.7853548e-19)
(54.481124 3.0887806 0)
(54.343804 2.460277 4.4737236e-19)
(54.186581 1.9052683 7.8897873e-19)
(54.086001 1.2366774 -3.4787151e-19)
(53.948528 0.79504817 6.1335713e-19)
(53.832665 0.13337256 0)
(52.21044 -0.081123402 0)
(41.689671 15.411898 3.1083819e-20)
(42.178902 15.539863 1.9206124e-21)
(42.730462 15.695579 -3.6287869e-20)
(43.350574 15.840461 -4.636027e-21)
(44.046776 15.960375 0)
(44.823408 16.040557 -3.7282954e-20)
(45.678377 16.065972 9.0034034e-20)
(46.602786 16.0176 -2.4893234e-23)
(47.580572 15.871077 -6.1171726e-20)
(48.584609 15.595447 5.0481127e-20)
(49.569668 15.151661 2.5892268e-20)
(50.475836 14.482874 2.6373518e-20)
(51.205679 13.505305 -2.3741935e-23)
(51.708197 12.224057 5.0869499e-20)
(52.262386 11.046254 9.4322426e-20)
(52.88098 10.116619 -4.2430612e-20)
(53.402451 9.2380224 3.7759701e-20)
(53.804598 8.3925131 -1.0042467e-19)
(54.116402 7.5093176 2.3689652e-19)
(54.309987 6.6718178 5.2379246e-20)
(54.458125 5.8646155 2.0772123e-19)
(54.514962 5.0994842 0)
(54.505748 4.4033053 0)
(54.442247 3.7207251 0)
(54.350396 3.0833406 0)
(54.234635 2.4579772 3.9559445e-19)
(54.098056 1.9062351 -3.4877184e-19)
(54.007594 1.2376923 6.1506993e-19)
(53.883958 0.80381632 -5.4222506e-19)
(53.786558 0.13781318 -4.1628595e-19)
(52.183467 -0.09417614 -9.8457752e-24)
(42.391095 13.709712 -3.6457052e-20)
(42.789403 13.791226 3.0785091e-20)
(43.247056 13.895011 -3.6395077e-20)
(43.758365 14.004714 4.2256363e-20)
(44.326789 14.105133 -4.5805804e-20)
(44.957211 14.171611 1.0430126e-19)
(45.649986 14.186006 -1.0359828e-19)
(46.399081 14.131217 1.2124843e-19)
(47.188959 13.982351 -1.2432855e-19)
(47.994549 13.702266 8.3702863e-20)
(48.77201 13.248346 -5.534967e-20)
(49.478524 12.59503 5.3859598e-20)
(50.127468 11.771054 -5.1209216e-20)
(50.82849 10.97212 4.2914578e-23)
(51.593962 10.329951 -8.492302e-20)
(52.260772 9.6694479 -3.779174e-20)
(52.837861 8.9148253 -6.6977767e-20)
(53.322326 8.0969437 1.1860269e-19)
(53.689016 7.3264865 -1.3107642e-19)
(53.9526 6.4936891 2.3192628e-20)
(54.148955 5.8114919 -1.4317977e-19)
(54.256078 5.0287644 -2.1451415e-24)
(54.294177 4.3545274 -1.5889844e-20)
(54.266497 3.6961287 0)
(54.202336 3.0715405 6.1926554e-21)
(54.112496 2.4510898 -7.0438064e-19)
(53.998186 1.9039297 0)
(53.918507 1.2368219 -2.7588641e-19)
(53.8113 0.81168405 -4.7522656e-19)
(53.730409 0.14011068 6.0508073e-19)
(52.162093 -0.071110214 3.8969026e-22)
(42.944899 11.479642 1.4740622e-21)
(43.191915 11.554092 0)
(43.508965 11.639977 0)
(43.919263 11.695006 0)
(44.397208 11.754605 0)
(44.921301 11.772558 -7.3696891e-21)
(45.48689 11.740848 0)
(46.104643 11.659297 -1.3549486e-19)
(46.750839 11.551577 1.4977335e-19)
(47.411769 11.36094 0)
(48.086275 11.092063 -2.770843e-20)
(48.776732 10.782862 0)
(49.520738 10.40493 0)
(50.311054 10.066248 4.2485642e-20)
(51.036586 9.6058139 -4.7677222e-23)
(51.715015 9.051267 -3.352147e-20)
(52.326108 8.4119173 0)
(52.841891 7.7661376 0)
(53.249189 7.0731668 0)
(53.575372 6.3330159 -1.0236475e-19)
(53.831682 5.6607239 1.6266653e-19)
(53.9708 4.9527139 -1.5941969e-20)
(54.063493 4.2942536 1.4043863e-20)
(54.074648 3.6543134 1.9819083e-19)
(54.037995 3.0511089 -1.7496629e-19)
(53.975738 2.4386862 -9.6687385e-21)
(53.886324 1.8971352 8.4994654e-21)
(53.818599 1.233731 0)
(53.728755 0.81767933 4.2608433e-19)
(53.671364 0.13663581 -3.372767e-19)
(52.129897 -0.090157558 0)
(43.848598 9.0601075 0)
(44.012513 9.1726357 1.3846761e-19)
(44.189473 9.322098 -1.4277208e-19)
(44.387441 9.5201198 4.4339324e-21)
(44.654739 9.6751355 -1.4182569e-19)
(44.993411 9.8196038 1.484297e-19)
(45.408481 9.9328358 1.6883098e-20)
(45.929929 9.8860542 3.11392e-20)
(46.482576 9.8206317 1.0320921e-19)
(47.075391 9.7385163 -4.1596708e-23)
(47.734714 9.5649456 -7.6213556e-20)
(48.431224 9.4717669 -1.175555e-19)
(49.170387 9.360176 4.2490347e-20)
(49.869043 9.1258589 0)
(50.566263 8.8022483 3.3497014e-20)
(51.219788 8.4152688 0)
(51.829835 7.912035 -5.2471726e-20)
(52.382669 7.3453708 9.2774874e-20)
(52.816023 6.7485272 -4.0975976e-20)
(53.19618 6.094303 -1.0850077e-19)
(53.499442 5.5066423 -9.5708943e-20)
(53.673676 4.8293029 2.8144154e-20)
(53.809605 4.2252232 -2.4824703e-20)
(53.866969 3.5918431 -1.7491113e-19)
(53.86151 3.0183224 1.5423416e-19)
(53.823377 2.420214 3.9981405e-19)
(53.761039 1.8839511 7.4994546e-21)
(53.707838 1.2275358 -3.3059039e-21)
(53.634907 0.82029905 -3.7012351e-19)
(53.602765 0.12542465 3.0007572e-19)
(52.087962 -0.081985833 5.0739904e-21)
(44.840253 7.0721018 -2.9065563e-21)
(45.011635 7.1616891 3.5516166e-19)
(45.196603 7.279801 -2.0237379e-23)
(45.392923 7.4151352 -1.6798637e-19)
(45.604514 7.5541917 1.5038463e-19)
(45.824696 7.6995022 -1.513628e-19)
(46.037038 7.8492003 -1.7589657e-20)
(46.247447 8.1858469 -1.5509667e-20)
(46.611302 8.3170818 1.4054529e-20)
(47.05078 8.51894 2.5613614e-20)
(47.617793 8.4187699 -2.2380593e-20)
(48.203632 8.3328393 2.0281264e-20)
(48.836011 8.1750299 -3.7028069e-20)
(49.514229 8.1100913 6.6723028e-20)
(50.188807 7.9456344 0)
(50.821056 7.6719912 5.2481475e-20)
(51.415982 7.2806055 0)
(51.960521 6.867896 -4.098595e-20)
(52.4001 6.363482 3.6174551e-20)
(52.817231 5.8310496 3.1898925e-20)
(53.166116 5.287269 -2.816062e-20)
(53.369212 4.6810411 -2.4831067e-20)
(53.544378 4.1016194 2.1900414e-20)
(53.641226 3.533845 0)
(53.673958 2.9569697 0)
(53.658242 2.3961416 -1.1997407e-19)
(53.62096 1.8629286 6.6145408e-21)
(53.586391 1.217244 1.8077867e-19)
(53.528488 0.81766037 3.2642164e-19)
(53.525628 0.1058248 -2.6442964e-19)
(52.045028 -0.079997054 -1.3195904e-19)
(45.432124 6.0611599 3.1963011e-21)
(45.547543 6.1446104 -5.9312062e-21)
(45.683912 6.2415425 0)
(45.84844 6.3439403 -5.278244e-21)
(46.051215 6.4520876 9.792856e-21)
(46.306134 6.5618241 -8.9960669e-21)
(46.614013 6.6624776 2.6213648e-19)
(46.903796 6.7967751 -2.3497253e-19)
(47.175584 6.9521735 -1.3151053e-20)
(47.507243 6.9095079 -2.3743894e-20)
(47.747659 7.3515043 -1.2309493e-19)
(48.160782 7.4659122 3.4076138e-23)
(48.678555 7.2516318 2.228173e-19)
(49.243313 7.082636 -1.1580953e-19)
(49.866152 6.9866736 0)
(50.474931 6.882437 -9.2710044e-20)
(51.050026 6.6516292 4.093476e-20)
(51.593419 6.3274938 -3.3785628e-23)
(52.025275 5.9260465 -9.5745509e-20)
(52.454412 5.4779845 5.6312282e-20)
(52.831496 5.0270162 -2.4833523e-20)
(53.067334 4.4969967 -6.5713075e-20)
(53.27298 3.9641141 0)
(53.400888 3.4287042 -1.5324939e-19)
(53.470606 2.8972613 2.9999124e-20)
(53.484034 2.3547806 -1.3223326e-20)
(53.467326 1.8333381 -1.8079743e-19)
(53.453966 1.2013629 -1.6453111e-19)
(53.41094 0.80831033 -4.5322992e-21)
(53.439365 0.075290948 -2.3729912e-19)
(51.970433 -0.11902093 0)
(46.300134 5.0274866 0)
(46.397145 5.1045207 5.6303942e-21)
(46.505878 5.193179 0)
(46.626256 5.2860921 -3.1666538e-19)
(46.756741 5.3834806 2.7683443e-19)
(46.895262 5.484131 0)
(47.045337 5.5864191 0)
(47.226776 5.6823482 2.1131777e-19)
(47.455934 5.7674341 -3.1123729e-23)
(47.744871 5.9044407 -1.6894194e-19)
(48.123058 5.8833088 -1.8792982e-20)
(48.442222 5.8578509 0)
(48.707726 6.40443 -1.1483048e-19)
(49.137935 6.2335112 1.2483104e-19)
(49.635465 6.0813982 0)
(50.178137 5.9867987 4.0613842e-20)
(50.75373 5.9123601 -3.6048932e-20)
(51.278185 5.7348248 9.5717499e-20)
(51.713557 5.4321476 0)
(52.124241 5.1201902 4.966507e-20)
(52.502696 4.7030702 -4.3810858e-20)
(52.762704 4.2758113 -1.5828838e-23)
(53.004882 3.7768114 0)
(53.150813 3.3242466 2.4018575e-19)
(53.249586 2.7935739 0)
(53.300042 2.2999796 1.1659646e-20)
(53.304874 1.7933341 -1.0294499e-20)
(53.31024 1.1785828 0)
(53.28389 0.79409331 -1.2786162e-19)
(53.342342 0.042046438 4.2203415e-19)
(51.90116 -0.10564536 0)
(46.885757 4.2720712 0)
(46.95245 4.3358085 -3.2434665e-19)
(47.030882 4.4082693 1.7691377e-23)
(47.123799 4.4844881 2.8725464e-19)
(47.235278 4.5666275 1.96685e-24)
(47.37046 4.6566646 2.3124657e-19)
(47.531781 4.7554871 -2.0870817e-19)
(47.714876 4.8637349 0)
(47.912663 4.9814103 -1.0479324e-20)
(48.112774 5.0833322 0)
(48.30681 5.2191155 1.163204e-19)
(48.586034 5.3710501 -1.179917e-19)
(48.943254 5.1270654 -5.225897e-20)
(49.167462 5.5621948 -2.2494846e-20)
(49.546722 5.4175575 9.7678972e-20)
(49.979202 5.2693221 1.0497423e-19)
(50.435004 5.1701906 -9.4283572e-20)
(50.94466 5.0667493 0)
(51.444677 4.9226357 -1.2479102e-23)
(51.84171 4.6994535 -4.3814067e-20)
(52.184736 4.3383002 -3.8626366e-20)
(52.464563 4.0127773 3.4034527e-20)
(52.721651 3.5813725 -7.6222476e-24)
(52.90166 3.1505042 -1.3232472e-19)
(53.020389 2.6981266 2.3328991e-20)
(53.102377 2.2114746 6.1702046e-20)
(53.133748 1.7413818 1.540944e-19)
(53.154697 1.1466525 -7.989756e-21)
(53.145669 0.77057728 1.1268194e-19)
(53.228661 0.0085146129 -3.7489531e-19)
(51.834773 -0.10684379 1.326389e-19)
(47.6347 3.4807267 6.3743471e-19)
(47.690543 3.5358315 -2.3002437e-21)
(47.753539 3.5982701 -1.0876386e-18)
(47.824205 3.6639555 4.945538e-19)
(47.902549 3.7345099 4.6171739e-19)
(47.987779 3.8102428 6.4026394e-21)
(48.080544 3.8902081 -3.7074814e-19)
(48.18572 3.9727082 -3.3233888e-19)
(48.313007 4.0554371 9.3098201e-21)
(48.477444 4.1439742 2.6436518e-19)
(48.686797 4.2248026 2.9358504e-20)
(48.890179 4.2757916 2.0830149e-19)
(49.083991 4.5175872 -3.9208405e-19)
(49.399606 4.315737 1.4283111e-19)
(49.583467 4.7731582 -1.5841521e-19)
(49.91748 4.6755612 9.129221e-20)
(50.284879 4.5664621 2.7142578e-20)
(50.677248 4.4630354 2.4412336e-20)
(51.162433 4.3150225 4.3600137e-20)
(51.572606 4.2836942 3.8605072e-20)
(51.872954 3.9304385 -7.7855574e-24)
(52.183775 3.7203984 3.0005616e-20)
(52.440563 3.3417599 2.6459296e-20)
(52.649324 2.9681754 -1.3997438e-19)
(52.787853 2.5433789 2.0566274e-20)
(52.897138 2.1196047 -7.2504075e-20)
(52.9492 1.6690372 1.5978826e-20)
(52.985512 1.1006168 -1.1971727e-19)
(52.99279 0.74459879 4.8270389e-25)
(53.098112 -0.016144141 3.2750786e-19)
(51.687683 -0.15194975 -1.2473551e-20)
(48.171067 2.8860508 5.7179126e-19)
(48.20772 2.9317258 4.0730178e-21)
(48.250705 2.9831775 4.8656013e-19)
(48.301372 3.0375811 -4.4636535e-19)
(48.36147 3.0968019 -3.1491162e-21)
(48.433515 3.1622039 3.5319388e-19)
(48.520036 3.2343799 -2.1257347e-23)
(48.621881 3.313542 -5.7844209e-19)
(48.73689 3.3996614 2.6229388e-19)
(48.859132 3.4897173 0)
(48.986851 3.5827856 -1.6925148e-24)
(49.150814 3.691432 0)
(49.356959 3.6900304 0)
(49.527744 3.903057 7.9721426e-25)
(49.789113 3.7141839 1.5901479e-20)
(49.970765 3.9890123 -2.7367419e-20)
(50.270363 3.9659068 2.3752343e-20)
(50.57904 3.9896741 6.5039005e-20)
(50.942867 3.7709992 -2.1170246e-23)
(51.296894 3.7484375 -3.3940035e-20)
(51.571542 3.5226634 -2.9984049e-20)
(51.930245 3.3476754 0)
(52.182265 3.07039 0)
(52.395095 2.7469076 1.233585e-19)
(52.552259 2.3719604 7.2499924e-20)
(52.686982 1.9853291 -1.5975142e-20)
(52.754522 1.5884063 -8.4501326e-20)
(52.802286 1.0438116 8.6897273e-20)
(52.824393 0.72469265 9.3026963e-20)
(52.971727 -0.019560791 -1.5646119e-19)
(51.615625 0.078554816 0)
(48.825802 2.2483455 0)
(48.856703 2.2856466 -1.8113785e-21)
(48.891442 2.3275055 3.3493506e-21)
(48.930173 2.3717273 7.8585969e-19)
(48.972891 2.4198486 -7.1466606e-19)
(49.019268 2.4725753 6.5070362e-19)
(49.069127 2.5296884 -3.0035457e-23)
(49.123862 2.5906252 -4.0900258e-21)
(49.187674 2.6545463 -4.6333309e-19)
(49.267292 2.7217389 0)
(49.367497 2.7921519 -1.1436408e-20)
(49.47581 2.8561682 0)
(49.59063 2.9705299 0)
(49.752888 2.9709049 1.5868383e-20)
(49.89758 3.1733048 -1.4021011e-20)
(50.133939 3.1328318 2.4662543e-20)
(50.346292 3.2039799 -2.1042645e-20)
(50.578192 3.3356178 0)
(50.850523 3.2948327 0)
(51.120054 3.2229415 -2.8837638e-24)
(51.369886 3.117743 -2.6421744e-20)
(51.687171 2.9326466 0)
(51.946571 2.7500077 0)
(52.154651 2.4682357 -3.6238584e-20)
(52.324118 2.1773036 -9.5830547e-20)
(52.46967 1.8252517 5.6320507e-20)
(52.554396 1.4841272 7.4460835e-20)
(52.614236 0.97665265 8.7530561e-20)
(52.646457 0.70438936 7.4252205e-24)
(52.806851 -0.012038867 -1.2032945e-19)
(51.539928 -0.17000677 -5.5358224e-22)
(49.258956 1.8089161 -1.8134367e-18)
(49.276253 1.8391107 8.2313919e-19)
(49.297087 1.8727889 7.5699087e-19)
(49.322391 1.9083791 5.4139433e-21)
(49.352338 1.9474948 -1.2606859e-18)
(49.3874 1.9910322 1.1403131e-18)
(49.428287 2.0396134 -5.1221135e-19)
(49.475986 2.0941217 -7.1624308e-21)
(49.533012 2.1530761 0)
(49.596953 2.2172457 -5.6807523e-21)
(49.667491 2.2851524 3.2272888e-19)
(49.753438 2.3595745 -2.8602362e-19)
(49.859374 2.414249 0)
(49.969801 2.5243383 0)
(50.116168 2.4972444 -1.9774798e-19)
(50.209164 2.6156905 1.7463441e-19)
(50.358256 2.7648324 0)
(50.581329 2.5361871 1.4957415e-19)
(50.824549 2.6674928 -2.3729704e-19)
(51.054092 2.5826233 1.3220968e-19)
(51.273564 2.6524465 1.3986013e-19)
(51.486294 2.4414582 -1.2331753e-19)
(51.735309 2.3563005 3.6240049e-20)
(51.936389 2.1726229 3.1942059e-20)
(52.115253 1.9355168 0)
(52.259918 1.6575875 0)
(52.357186 1.3416796 0)
(52.432676 0.89530495 -7.7132738e-20)
(52.469113 0.65185019 4.4638874e-24)
(52.615455 -0.0093330732 1.233859e-19)
(51.486615 0.14520962 2.7592335e-20)
(49.82163 1.3271236 1.5673606e-21)
(49.836909 1.3512058 -7.2825859e-19)
(49.85337 1.3781047 6.7061473e-19)
(49.870712 1.4069419 -6.1926735e-19)
(49.889645 1.4384999 5.6004656e-19)
(49.910864 1.4734131 0)
(49.934842 1.5116986 4.5562385e-19)
(49.961139 1.5528654 6.303949e-21)
(49.987446 1.5985882 -3.6059328e-19)
(50.017593 1.6474297 1.0020498e-20)
(50.055088 1.6996953 0)
(50.098468 1.7538049 0)
(50.146073 1.8179881 0)
(50.203199 1.8528538 -6.1658098e-21)
(50.260443 1.9502736 1.7431245e-19)
(50.359066 1.9597861 -1.5392738e-19)
(50.433603 1.9514956 0)
(50.585612 2.1003623 -2.9516374e-20)
(50.78973 2.0474595 0)
(51.005244 1.936866 -2.3137859e-20)
(51.225515 2.1273881 -1.027188e-19)
(51.365139 2.0463795 1.9305639e-23)
(51.556681 1.9356334 9.5815189e-20)
(51.746051 1.8327437 -2.8147835e-20)
(51.927361 1.6634146 0)
(52.079253 1.4429635 -4.3743335e-20)
(52.180153 1.1913533 0)
(52.264782 0.79560304 8.4971326e-20)
(52.294206 0.56666978 -8.8167472e-21)
(52.446415 -0.056684627 -3.0557053e-20)
(51.498461 -0.1739371 -1.1531258e-20)
(50.150009 0.98710679 -1.4168192e-18)
(50.155941 1.0042648 1.2541385e-21)
(50.163335 1.0236716 1.1591949e-21)
(50.172365 1.0443821 2.1191706e-21)
(50.183409 1.0673755 -1.92308e-21)
(50.196957 1.0932477 8.8809493e-19)
(50.213647 1.1223322 -8.0037819e-19)
(50.234293 1.1550739 -2.785163e-21)
(50.2596 1.1923757 0)
(50.290391 1.2343171 -8.8347281e-21)
(50.326095 1.2803049 5.0174638e-19)
(50.365144 1.331154 -8.8915583e-19)
(50.405965 1.3827077 2.6915415e-23)
(50.44706 1.4494336 7.0110665e-19)
(50.49383 1.4964624 9.5735133e-21)
(50.54417 1.5719096 -3.9850659e-19)
(50.633332 1.6244603 1.1973162e-19)
(50.70125 1.6909428 1.3203002e-20)
(50.787883 1.7699741 -1.1403519e-20)
(50.946244 1.7103544 2.0409129e-20)
(51.132032 1.6225469 0)
(51.281604 1.6353068 1.5965067e-20)
(51.430421 1.5340376 -5.6291446e-20)
(51.593958 1.4611121 0)
(51.758854 1.3585739 0)
(51.912355 1.2051949 3.8541817e-20)
(52.019909 1.0095796 -3.3984432e-20)
(52.110609 0.68130679 -5.9907403e-20)
(52.122309 0.49289798 -1.3202752e-20)
(52.280327 -0.11479254 0)
(51.453297 -0.15081254 0)
(50.553702 0.6474571 6.1282964e-22)
(50.558665 0.66067661 -1.1096337e-21)
(50.563987 0.67526664 0)
(50.569785 0.69091218 0)
(50.576167 0.70820092 0)
(50.583215 0.72744959 0)
(50.590986 0.74872568 0)
(50.59949 0.77188278 0)
(50.608344 0.79614984 0)
(50.614965 0.82155738 3.894443e-21)
(50.617343 0.8482906 0)
(50.61784 0.87547731 -3.9160118e-19)
(50.621406 0.902229 3.464602e-19)
(50.633287 0.92636478 0)
(50.658847 0.95461634 -8.4643523e-21)
(50.706006 0.98091474 -7.4732847e-21)
(50.759857 1.0170635 -6.5952127e-21)
(50.815315 1.0676311 1.8036234e-19)
(50.87636 1.0281738 1.0102054e-20)
(50.940403 1.2223814 -1.5388028e-19)
(51.032859 1.0656444 -1.5928813e-20)
(51.195669 1.1497598 8.4385915e-20)
(51.335077 1.1178378 -7.4435536e-20)
(51.461121 1.0824942 0)
(51.583975 1.0264635 0)
(51.718098 0.92488171 3.3974894e-20)
(51.837003 0.79509417 0)
(51.947869 0.5614518 0)
(51.951216 0.3959477 0)
(52.143673 -0.12092115 0)
(51.300871 -0.16629703 0)
(50.773109 0.44940033 -1.1014764e-18)
(50.775196 0.45711904 1.991618e-18)
(50.777764 0.46546636 -9.1925447e-19)
(50.780723 0.47415166 0)
(50.783951 0.4837081 0)
(50.787302 0.4944125 0)
(50.790706 0.50640339 -6.1645496e-19)
(50.794337 0.5197332 1.0889741e-21)
(50.798552 0.53458918 4.9129292e-19)
(50.803966 0.55144062 -1.7067843e-21)
(50.81118 0.57115453 3.0312602e-21)
(50.819747 0.59511975 3.4399935e-19)
(50.828415 0.62343928 -6.0902378e-19)
(50.834506 0.65686541 2.7354555e-19)
(50.83442 0.69567672 0)
(50.833695 0.73400451 3.2766221e-21)
(50.843171 0.76513142 -1.7923863e-19)
(50.876255 0.74647227 5.1235213e-21)
(50.894764 0.85901255 1.4387486e-19)