/*--------------------------------*- C++ -*----------------------------------*\
| =========                 |                                                 |
| \\      /  F ield         | OpenFOAM: The Open Source CFD Toolbox           |
|  \\    /   O peration     | Version:  2406                                  |
|   \\  /    A nd           | Website:  www.openfoam.com                      |
|    \\/     M anipulation  |                                                 |
\*---------------------------------------------------------------------------*/
FoamFile
{
    version     2.0;
    format      ascii;
    arch        "LSB;label=32;scalar=64";
    class       volScalarField;
    location    "0.019";
    object      nutMean;
}
// * * * * * * * * * * * * * * * * * * * * * * * * * * * * * * * * * * * * * //

dimensions      [0 2 -1 0 0 0 0];

internalField   nonuniform List<scalar> 
92813
(
0.031568296
0.034299022
0.037137803
0.040058762
0.043049536
0.046102637
0.04921331
0.052379036
0.05559825
0.05887064
0.062196864
0.065577933
0.069015696
0.072512551
0.076071074
0.079694292
0.083385425
0.08714707
0.090979791
0.094836322
0.098723089
0.10266321
0.10666096
0.11071788
0.11483461
0.11901103
0.12324623
0.1275387
0.13188597
0.13628456
0.14073005
0.1452167
0.14973759
0.1542844
0.1588472
0.16341443
0.16797273
0.17250693
0.17699989
0.18143255
0.18578391
0.19003091
0.19414864
0.19811043
0.20188793
0.20545132
0.20876955
0.21181077
0.21454268
0.21693283
0.21894881
0.22055871
0.22173232
0.22244212
0.22266354
0.22237565
0.22156216
0.22021221
0.21831924
0.21588119
0.21290369
0.20940047
0.20539264
0.20090435
0.19595802
0.19056176
0.1846892
0.17831363
0.17144097
0.16409835
0.15632191
0.14814851
0.13961553
0.13076467
0.1216429
0.11230247
0.10279795
0.093189083
0.083549316
0.073967577
0.064543231
0.055381573
0.04659038
0.038275762
0.030551253
0.023543415
0.017386816
0.012227149
0.0082384944
0.0056779949
0.0046661147
0.0044673697
0.0044245063
0.0043994537
0.0043775041
0.0043571891
0.0043382339
0.0043205082
0.0043039355
0.0042884061
0.0042738172
0.0042601035
0.0042471984
0.0042350696
0.0042236837
0.0042129902
0.004203026
0.0041937856
0.0041851919
0.0041771987
0.0041697747
0.0041628776
0.0041564736
0.0041505278
0.0041450398
0.0041400331
0.0041354917
0.0041314473
0.0041277762
0.0041245392
0.0041213326
0.0041181606
0.00411529
0.0041124588
0.0041099657
0.0041064054
0.0041080667
0.035292694
0.037951464
0.040698846
0.043531915
0.046443435
0.049425135
0.052471165
0.055578315
0.058743941
0.061967034
0.065247859
0.068586829
0.071985384
0.075445557
0.078969312
0.082559192
0.08621769
0.089946176
0.093743664
0.097573915
0.10143315
0.10534701
0.10931761
0.11334603
0.11743271
0.1215773
0.12577857
0.13003474
0.13434297
0.13869948
0.14309952
0.14753703
0.15200479
0.15649415
0.16099486
0.16549514
0.16998135
0.17443812
0.17884818
0.18319234
0.18744951
0.19159662
0.1956089
0.19945986
0.20312145
0.20656415
0.2097574
0.21266989
0.21526992
0.2175257
0.2194055
0.22087821
0.22191464
0.22248831
0.22257586
0.22215767
0.22121867
0.2197489
0.21774236
0.215198
0.21212251
0.20853032
0.20444276
0.19988291
0.19487119
0.18940973
0.18346834
0.17702581
0.17009309
0.16269912
0.15488039
0.14667347
0.1381158
0.12924931
0.12012136
0.1107844
0.10129307
0.091707982
0.08210411
0.072571395
0.06320962
0.054123794
0.045420795
0.037205912
0.02959332
0.0227101
0.01669058
0.011681049
0.0078590414
0.0054885468
0.0046216467
0.0044588653
0.0044202141
0.004395813
0.004374145
0.0043540597
0.004335311
0.0043177729
0.0043013715
0.0042859989
0.0042715531
0.0042579711
0.0042451879
0.0042331731
0.0042218944
0.0042113025
0.004201435
0.004192286
0.004183778
0.0041758644
0.0041685125
0.0041616791
0.0041553314
0.0041494362
0.0041439951
0.0041390317
0.0041345303
0.0041305223
0.0041268833
0.004123677
0.004120498
0.0041173559
0.0041145176
0.0041117219
0.0041092706
0.0041057657
0.0041074345
0.039266428
0.041849514
0.044514919
0.04726386
0.050092193
0.052994746
0.055966913
0.059004842
0.062105884
0.065269159
0.068494343
0.071781367
0.075131355
0.078545851
0.082026218
0.085574552
0.089192745
0.092881515
0.096640075
0.10043477
0.10425818
0.1081373
0.11207293
0.11606542
0.12011483
0.12422033
0.12838035
0.13259276
0.1368543
0.14116081
0.14550728
0.14988725
0.1542932
0.15871615
0.16314552
0.16756932
0.17197367
0.17634305
0.18066006
0.18490547
0.18905815
0.19309513
0.19699185
0.20072212
0.2042582
0.20757104
0.21063065
0.21340635
0.21586709
0.21798183
0.21971958
0.22105013
0.22194538
0.22237997
0.22233186
0.22178276
0.22071881
0.21913076
0.21701312
0.21436601
0.21119705
0.20752133
0.20336008
0.1987351
0.19366404
0.18814159
0.18213548
0.17563125
0.16864433
0.16120498
0.15334971
0.14511469
0.13653758
0.12766057
0.11853141
0.10920268
0.099729215
0.0901728
0.080610041
0.071131666
0.061837739
0.052832848
0.044222924
0.036112718
0.028617256
0.021863943
0.015986829
0.011133148
0.0074854392
0.0053133878
0.0045827603
0.0044509119
0.0044159048
0.0043920892
0.0043707041
0.004350855
0.0043323192
0.0043149746
0.0042987497
0.0042835387
0.0042692404
0.0042557939
0.0042431363
0.0042312389
0.0042200707
0.0042095834
0.0041998155
0.0041907604
0.0041823403
0.0041745081
0.0041672298
0.0041604617
0.0041541715
0.0041483284
0.0041429357
0.0041380167
0.0041335565
0.0041295857
0.0041259795
0.0041228045
0.0041196539
0.0041165427
0.0041137378
0.004110979
0.0041085708
0.0041051235
0.0041067997
0.043447493
0.045952984
0.048538025
0.051204605
0.053950527
0.056772256
0.059666363
0.062630051
0.065661406
0.068759038
0.071922012
0.075150586
0.078445744
0.081808339
0.08523932
0.088740469
0.092313165
0.095957799
0.099673975
0.10342714
0.10720857
0.11104673
0.11494147
0.11889242
0.12289914
0.1269603
0.13107386
0.13523735
0.13944703
0.14369841
0.14798615
0.1523034
0.15664231
0.1609936
0.16534636
0.16968837
0.17400554
0.17828223
0.18250089
0.18664226
0.19068526
0.19460703
0.19838323
0.20198797
0.20539385
0.20857231
0.21149399
0.2141288
0.21644641
0.21841646
0.22000873
0.221194
0.22194525
0.22223834
0.22205262
0.22137108
0.22018092
0.21847344
0.2162439
0.21349363
0.21023112
0.20647219
0.20223766
0.19754784
0.19241654
0.18683045
0.18075786
0.17419154
0.16715061
0.15966636
0.15177522
0.14351294
0.13491742
0.12603113
0.11690221
0.10758335
0.098129635
0.088604184
0.079085224
0.069664213
0.060441439
0.05152095
0.043007595
0.035005771
0.027631496
0.02101235
0.015282174
0.010589613
0.0071236896
0.0051561541
0.004550163
0.0044436435
0.0044115823
0.0043882912
0.0043671897
0.0043475822
0.0043292645
0.004312118
0.0042960741
0.0042810284
0.0042668813
0.0042535737
0.0042410449
0.0042292677
0.0042182127
0.0042078326
0.0041981666
0.0041892073
0.0041808767
0.0041731275
0.0041659241
0.0041592223
0.0041529909
0.0041472011
0.0041418578
0.0041369844
0.0041325662
0.0041286331
0.0041250604
0.0041219173
0.004118796
0.0041157165
0.004112946
0.0041102252
0.0041078616
0.0041044739
0.0041061577
0.047814195
0.050242689
0.052748722
0.055334648
0.057999285
0.06074039
0.063555632
0.066443063
0.069401101
0.072428766
0.075525599
0.078691548
0.081926863
0.085232298
0.088608889
0.092058028
0.095580502
0.09917665
0.1028463
0.10655271
0.11028645
0.11407779
0.1179258
0.1218295
0.12578796
0.12979922
0.13386084
0.13796996
0.14212234
0.14631314
0.15053671
0.15478575
0.15905212
0.16332621
0.16759678
0.17185145
0.1760759
0.18025434
0.18436916
0.18840105
0.19232901
0.19613034
0.19978095
0.2032552
0.2065261
0.20956565
0.21234507
0.21483491
0.21700551
0.21882726
0.2202707
0.22130765
0.22191222
0.2220616
0.22173654
0.22092122
0.21960371
0.21777583
0.21543382
0.21258021
0.20922434
0.20538268
0.20107526
0.19632066
0.1911274
0.18547471
0.1793342
0.17270565
0.16561106
0.15808254
0.15015631
0.14186772
0.13325494
0.12436071
0.11523363
0.1059264
0.09649451
0.087002529
0.077530271
0.068169876
0.059021757
0.050189289
0.041776163
0.033886642
0.026637837
0.020157319
0.014578911
0.010053191
0.0067772043
0.0050179835
0.0045232836
0.0044369727
0.0044072571
0.0043844399
0.0043636216
0.0043442589
0.0043261624
0.0043092172
0.0042933568
0.0042784792
0.0042644855
0.004251319
0.0042389209
0.004227266
0.0042163261
0.0042060549
0.0041964922
0.0041876302
0.0041793903
0.004171725
0.0041645971
0.0041579624
0.0041517905
0.0041460547
0.0041407618
0.0041359347
0.004131559
0.0041276642
0.0041241255
0.0041210149
0.0041179235
0.0041148766
0.0041121412
0.0041094599
0.0041071424
0.0041038161
0.0041055075
0.052350323
0.054703287
0.057131658
0.059638421
0.062223119
0.064884469
0.067621065
0.07043158
0.073315031
0.07627077
0.079298446
0.082398044
0.08556985
0.08881454
0.092132943
0.095525878
0.098993793
0.10253739
0.10615637
0.10981117
0.11349189
0.11723083
0.12102642
0.12487718
0.12878169
0.13273736
0.13674138
0.14079047
0.14487988
0.14900445
0.15315816
0.15733326
0.16152136
0.16571248
0.16989512
0.17405668
0.17818267
0.18225717
0.18626248
0.19017933
0.19398681
0.19766238
0.20118224
0.204521
0.20765216
0.21054826
0.21318112
0.21552191
0.21754169
0.21921155
0.2205029
0.2213886
0.22184398
0.22184766
0.22138174
0.22043145
0.21898554
0.21703648
0.21458168
0.21162476
0.20817594
0.20425209
0.19987213
0.1950524
0.18979466
0.18407246
0.17786297
0.17117225
0.16402449
0.15645246
0.14849201
0.14017818
0.13154939
0.12264873
0.1135252
0.10423155
0.094823737
0.085367945
0.07594553
0.066649218
0.057579452
0.048838784
0.040529713
0.032756648
0.025637815
0.019300611
0.013879094
0.0095264168
0.0064491206
0.0048990143
0.0045012566
0.0044307772
0.0044029227
0.0043805394
0.004360004
0.0043408887
0.0043230162
0.0043062746
0.0042906003
0.0042758928
0.0042620546
0.0042490312
0.0042367658
0.0042252348
0.0042144117
0.004204251
0.0041947931
0.0041860296
0.0041778813
0.0041703006
0.004163249
0.0041566819
0.0041505702
0.0041448893
0.0041396475
0.0041348675
0.0041305349
0.0041266787
0.0041231745
0.004120097
0.0041170361
0.0041140225
0.0041113234
0.0041086828
0.004106413
0.0041031499
0.0041048491
0.057043253
0.059322207
0.061674448
0.064103695
0.066610068
0.069192973
0.071851662
0.074585498
0.077393946
0.080276624
0.083233466
0.086264584
0.089370313
0.092551156
0.095807728
0.099140734
0.10255086
0.10603844
0.10960254
0.11320111
0.11682378
0.12050497
0.12424254
0.12803475
0.13187957
0.13577386
0.13971452
0.14369777
0.14771836
0.15177086
0.15584883
0.15994407
0.16404795
0.16815015
0.17223891
0.17630147
0.18032312
0.18428785
0.18817789
0.19197404
0.19565553
0.1992
0.20258389
0.20578218
0.20876884
0.211517
0.21399902
0.21618673
0.21805192
0.21956641
0.2207025
0.22143417
0.22173808
0.22159431
0.22098619
0.21989983
0.21832459
0.21625379
0.21368609
0.21062609
0.2070849
0.20307945
0.19862718
0.19374142
0.18841603
0.18262166
0.17634251
0.16958985
0.16238958
0.1547749
0.14678122
0.13844333
0.12979992
0.12089445
0.11177635
0.10249833
0.093117086
0.083700441
0.07433122
0.065102696
0.056115173
0.047470237
0.039269233
0.031617026
0.024632888
0.018443912
0.01318474
0.0090118074
0.0061423932
0.0047985596
0.0044831754
0.0044249402
0.004398569
0.0043765891
0.0043563371
0.0043374719
0.0043198259
0.0043032906
0.0042878045
0.0042732694
0.0042595887
0.0042467103
0.0042345796
0.0042231743
0.0042124696
0.004202421
0.0041930693
0.0041844054
0.0041763497
0.0041688543
0.0041618796
0.0041553808
0.0041493299
0.0041437046
0.0041385148
0.0041337825
0.0041294935
0.0041256765
0.0041222071
0.0041191632
0.0041161337
0.0041131542
0.0041104922
0.0041078937
0.0041056732
0.0041024753
0.0041041824
0.061883735
0.064090186
0.066367798
0.068721113
0.071150735
0.073656614
0.076238516
0.078896263
0.081629776
0.084439018
0.087324086
0.090285208
0.093322798
0.09643738
0.099629532
0.10289986
0.10624875
0.10967637
0.11318199
0.1167204
0.1202802
0.12389828
0.12757237
0.13130046
0.13507981
0.13890691
0.14277834
0.14668982
0.15063562
0.15461004
0.15860619
0.16261547
0.16662904
0.17063623
0.17462502
0.17858254
0.18249382
0.18634284
0.19011177
0.19378152
0.19733147
0.20073944
0.20398217
0.20703503
0.2098725
0.21246825
0.21479521
0.21682588
0.21853279
0.21988853
0.22086634
0.22144138
0.22159177
0.22129903
0.22054755
0.21932415
0.21761881
0.21542596
0.21274546
0.20958281
0.20594999
0.20186345
0.19733892
0.19238553
0.1869889
0.18112019
0.17477104
0.16795688
0.16070488
0.15304853
0.1450227
0.13666205
0.12800553
0.11909704
0.10998638
0.10072627
0.091374266
0.081999974
0.072687538
0.063530719
0.054629511
0.046084405
0.037995675
0.030468987
0.023624481
0.017588885
0.012497864
0.008511937
0.0058597704
0.0047152829
0.0044682346
0.0044193666
0.004394188
0.0043725888
0.004352621
0.0043340086
0.0043165916
0.0043002651
0.0042849696
0.004270609
0.0042570879
0.0042443565
0.0042323622
0.0042210843
0.0042104998
0.0042005649
0.0041913206
0.0041827575
0.0041747954
0.004167386
0.0041604887
0.0041540588
0.0041480693
0.0041425004
0.0041373635
0.0041326796
0.0041284347
0.0041246571
0.0041212231
0.0041182134
0.0041152159
0.0041122714
0.0041096476
0.0041070926
0.0041049231
0.0041017924
0.0041035073
0.066864095
0.068999483
0.07120391
0.073482853
0.075837293
0.078267592
0.080773914
0.083356445
0.086015421
0.088751118
0.091563864
0.09445401
0.097422045
0.10046847
0.10359385
0.10679876
0.11008356
0.11344826
0.11689197
0.12036584
0.12385766
0.12740765
0.13101324
0.13467168
0.13837971
0.14213379
0.14593009
0.14976369
0.15362864
0.15751884
0.16142694
0.16534403
0.16926106
0.17316699
0.17704962
0.18089591
0.18469073
0.188418
0.19205994
0.19559757
0.1990104
0.20227647
0.20537288
0.20827539
0.21095903
0.21339796
0.21556571
0.21743548
0.21898053
0.22017427
0.22099094
0.22140701
0.22140213
0.22095911
0.22006325
0.21870193
0.21686594
0.21455099
0.21175799
0.20849335
0.20476969
0.20060252
0.1960055
0.19098202
0.18551054
0.17956586
0.17314667
0.16627162
0.1589688
0.15127189
0.14321513
0.13483314
0.12616516
0.11725561
0.10815455
0.098914793
0.089594959
0.080266471
0.071014657
0.061933703
0.053123041
0.044682033
0.036709992
0.029313734
0.02261403
0.016737255
0.01182054
0.0080294751
0.0056036496
0.004647412
0.0044557441
0.0044139799
0.004389773
0.0043685376
0.0043488554
0.0043304984
0.0043133132
0.004297198
0.0042820954
0.0042679114
0.0042545519
0.0042419695
0.0042301134
0.0042189648
0.0042085022
0.0041986825
0.0041895471
0.0041810859
0.0041732182
0.0041658955
0.0041590763
0.0041527157
0.0041467883
0.0041412765
0.0041361932
0.0041315584
0.0041273582
0.0041236205
0.0041202223
0.0041172474
0.0041142827
0.0041113739
0.0041087895
0.0041062796
0.0041041627
0.004101101
0.0041028238
0.071977706
0.074043499
0.076176153
0.078382219
0.080662963
0.083019062
0.085450985
0.087959207
0.090544217
0.093206515
0.095946613
0.098765055
0.10166235
0.10463906
0.10769575
0.11083291
0.11405088
0.11734957
0.12072803
0.12413341
0.12755276
0.13102969
0.13456118
0.13814423
0.14177545
0.14545095
0.14916606
0.15291556
0.15669353
0.16049325
0.16430691
0.16812552
0.17193967
0.17573797
0.17950814
0.18323696
0.18690911
0.19050859
0.19401763
0.1974174
0.20068754
0.20380635
0.20675132
0.20949867
0.21202389
0.21430168
0.21630615
0.21801126
0.21939103
0.22041969
0.22107257
0.22132761
0.22116596
0.22057157
0.21953044
0.21803051
0.21606359
0.21362672
0.21072172
0.20735597
0.20354229
0.19929485
0.19462463
0.18952779
0.18397811
0.17795637
0.17146742
0.16453224
0.15717969
0.14944346
0.14135708
0.13295533
0.12427771
0.11536921
0.10628009
0.097063343
0.08777885
0.078499883
0.069312778
0.060312055
0.051596365
0.043263882
0.035413183
0.028152531
0.021603024
0.015890792
0.011154951
0.0075672587
0.0053759012
0.0045929225
0.0044451233
0.0044087203
0.0043853184
0.004364435
0.0043450402
0.0043269414
0.0043099903
0.0042940889
0.0042791816
0.0042651765
0.0042519806
0.0042395491
0.0042278333
0.0042168158
0.0042064766
0.0041967739
0.0041877487
0.0041793905
0.0041716181
0.0041643826
0.0041576419
0.0041513511
0.0041454865
0.0041400327
0.0041350037
0.0041304188
0.0041262636
0.0041225662
0.0041192044
0.0041162649
0.0041133338
0.0041104617
0.0041079177
0.0041054543
0.0041033919
0.0041004012
0.0041021319
0.07721852
0.079216178
0.081278414
0.083413016
0.085621455
0.087904642
0.09026328
0.092698064
0.095209681
0.097798806
0.1004661
0.10321222
0.1060378
0.10894342
0.1119296
0.11499687
0.11814545
0.12137525
0.1246852
0.1280182
0.13136043
0.13475932
0.13821159
0.14171394
0.14526262
0.14885332
0.1524812
0.15614071
0.15982553
0.16352838
0.16724113
0.17095488
0.1746597
0.17834393
0.18199531
0.18560031
0.18914359
0.19260922
0.19597947
0.19923565
0.20235757
0.20532383
0.20811236
0.2106998
0.21306211
0.21517452
0.2170118
0.21854863
0.21975984
0.22062053
0.22110727
0.22119955
0.22087991
0.22013324
0.2189461
0.21730704
0.21520922
0.21265086
0.20963462
0.20616877
0.20226585
0.19793832
0.19319347
0.18801941
0.18238875
0.1762894
0.16973122
0.16273686
0.15533582
0.1475616
0.13944711
0.13102731
0.12234203
0.11343688
0.10436222
0.09517137
0.08592566
0.07670019
0.067582142
0.058666249
0.050050118
0.041830771
0.034106344
0.026986712
0.020593028
0.015051403
0.010503407
0.0071283292
0.0051776123
0.0045497127
0.0044359046
0.0044035417
0.00438082
0.0043602805
0.0043411751
0.0043233372
0.0043066228
0.0042909378
0.0042762281
0.0042624039
0.0042493738
0.0042370954
0.0042255217
0.004214637
0.0042044232
0.0041948389
0.0041859252
0.0041776711
0.0041699948
0.0041628472
0.0041561855
0.0041499651
0.0041441638
0.0041387687
0.0041337949
0.0041292604
0.0041251508
0.0041214941
0.0041181692
0.0041152658
0.004112369
0.0041095347
0.0041070321
0.004104617
0.0041026107
0.0040996931
0.0041014316
0.082580615
0.084511602
0.086504735
0.088569199
0.090706612
0.092918052
0.095204403
0.097566526
0.10000526
0.10252142
0.10511577
0.10778905
0.11054198
0.11337518
0.1162892
0.11928446
0.12236119
0.12551927
0.12875751
0.13201424
0.13527481
0.13859083
0.14195871
0.14537489
0.14883537
0.15233555
0.1558702
0.1594334
0.16301851
0.16661811
0.17022381
0.17382626
0.17741515
0.18097887
0.18450508
0.18797988
0.19138812
0.19471389
0.19793948
0.2010464
0.20401462
0.20682318
0.20945038
0.21187325
0.21406827
0.2160112
0.2176775
0.21904263
0.22008221
0.22077231
0.22109087
0.22101899
0.2205404
0.21964071
0.21830695
0.21652856
0.21430018
0.21162097
0.2084945
0.2049297
0.20093819
0.19653048
0.19170866
0.1864533
0.1807396
0.17456256
0.1679359
0.1608835
0.15343537
0.14562465
0.13748366
0.12904769
0.12035696
0.11145764
0.10240015
0.093238359
0.084035157
0.074867423
0.065823054
0.056996804
0.048485007
0.040383594
0.032790677
0.025817735
0.019585722
0.014221092
0.0098684207
0.0067159307
0.0050089206
0.0045157543
0.0044277264
0.0043984078
0.0043762747
0.0043560738
0.0043372601
0.0043196857
0.0043032106
0.0042877445
0.0042732347
0.0042595936
0.0042467315
0.004234608
0.0042231786
0.0042124287
0.0042023419
0.0041928776
0.0041840767
0.0041759277
0.0041683484
0.004161289
0.0041547069
0.0041485573
0.0041428199
0.0041374843
0.0041325665
0.004128083
0.0041240195
0.0041204039
0.0041171163
0.0041142497
0.0041113882
0.0041085924
0.0041061327
0.0041037675
0.0041018192
0.0040989767
0.0041007228
0.088057676
0.089923484
0.091848807
0.093844397
0.095911964
0.098052713
0.10026766
0.10255779
0.10492406
0.10736737
0.10988857
0.11248848
0.11516783
0.11792729
0.12076742
0.12368863
0.12669108
0.1297746
0.13293801
0.13611464
0.13928899
0.14251734
0.14579574
0.14912038
0.15248701
0.15589077
0.15932611
0.16278684
0.16626603
0.16975595
0.17324797
0.17673251
0.18019909
0.18363604
0.1870306
0.19036883
0.19363597
0.19681593
0.19989105
0.20284312
0.20565233
0.20829816
0.21075924
0.21301303
0.21503651
0.21680602
0.21829775
0.21948796
0.22035308
0.22087028
0.22101903
0.22078192
0.22014364
0.21909035
0.21760959
0.21569203
0.21333368
0.21053454
0.2072991
0.20363645
0.19955691
0.19506845
0.19016628
0.18482584
0.17902777
0.17277337
0.16607923
0.15897013
0.15147646
0.14363086
0.13546518
0.12701512
0.11832132
0.10943052
0.10039315
0.091263831
0.082107176
0.073001702
0.064035894
0.055304292
0.046901813
0.038923345
0.031467476
0.02464716
0.018582919
0.01340206
0.0092527367
0.0063334533
0.0048688644
0.0044892017
0.0044203185
0.0043932908
0.0043716798
0.0043518147
0.004333295
0.0043159869
0.0042997536
0.0042845088
0.0042702013
0.0042567455
0.0042440536
0.0042320871
0.0042208039
0.0042101906
0.0042002325
0.0041908898
0.0041822032
0.0041741603
0.0041666785
0.0041597081
0.0041532059
0.0041471275
0.0041414547
0.0041361793
0.0041313182
0.0041268864
0.0041228695
0.0041192954
0.0041160457
0.0041132165
0.0041103911
0.004107635
0.0041052193
0.0041029058
0.0041010174
0.004098252
0.0041000056
0.09364272
0.095444889
0.097303698
0.099231632
0.10123046
0.10330147
0.10544577
0.10766445
0.10995854
0.11232899
0.11477674
0.11730263
0.11990741
0.12259177
0.12535625
0.12820129
0.13112705
0.13413328
0.13721872
0.14031143
0.14339506
0.14653091
0.14971475
0.1529425
0.15620965
0.15951113
0.16284114
0.16619321
0.16956016
0.17293403
0.17630593
0.17966612
0.18300386
0.18630743
0.18956402
0.19275972
0.19587977
0.19890793
0.2018269
0.20461871
0.20726377
0.209742
0.2120323
0.21411263
0.21596051
0.21755286
0.21886667
0.219879
0.22056712
0.22090952
0.22088723
0.2204841
0.21968561
0.21847832
0.21685049
0.21479427
0.21230684
0.20938898
0.20604601
0.20228653
0.19811933
0.1935487
0.18856209
0.18313343
0.17725038
0.17091931
0.16415891
0.15699464
0.14945718
0.14157846
0.1333901
0.1249282
0.11623395
0.10735454
0.098340512
0.089247383
0.080141621
0.071103232
0.062221135
0.053589378
0.045301386
0.037451119
0.03013817
0.023476674
0.017586607
0.012596691
0.0086593781
0.0059842809
0.0047553963
0.0044683492
0.0044134595
0.0043881698
0.0043670338
0.0043475028
0.0043292796
0.0043122405
0.0042962517
0.0042812307
0.0042671279
0.0042538596
0.0042413398
0.0042295326
0.0042183975
0.0042079228
0.0041980952
0.0041888757
0.0041803046
0.0041723688
0.0041649854
0.0041581042
0.0041516822
0.0041456756
0.0041400679
0.0041348534
0.0041300498
0.0041256703
0.0041217004
0.0041181683
0.0041149569
0.0041121659
0.0041093776
0.0041066623
0.0041042919
0.0041020319
0.0041002052
0.004097519
0.00409928
0.099327964
0.10106807
0.10286164
0.10472309
0.10665419
0.10865631
0.1107306
0.11287823
0.11510025
0.11739771
0.11977155
0.12222263
0.12475174
0.12735956
0.13004664
0.13281337
0.13565994
0.13858612
0.14159056
0.14459557
0.14758392
0.15062244
0.15370662
0.15683214
0.15999424
0.16318763
0.1664063
0.16964357
0.17289203
0.1761435
0.17938887
0.18261825
0.18582078
0.18898464
0.19209703
0.19514412
0.19811105
0.20098177
0.20373927
0.2063655
0.20884141
0.21114734
0.21326237
0.21516509
0.21683351
0.21824521
0.21937804
0.22020982
0.2207188
0.22088493
0.22069075
0.22012111
0.21916206
0.21780061
0.21602605
0.21383201
0.21121667
0.20818162
0.20473259
0.2008772
0.19662233
0.19196705
0.1868916
0.1813725
0.17540449
0.16899777
0.16217256
0.15495489
0.14737554
0.13946563
0.13125679
0.12278553
0.1140937
0.1052288
0.096241575
0.08718868
0.078138495
0.069172304
0.060379364
0.05185281
0.043684694
0.03596818
0.02880435
0.022308116
0.016598946
0.011807594
0.0080916934
0.005671595
0.0046655768
0.0044517498
0.0044069821
0.0043830292
0.0043623352
0.004343138
0.004325214
0.0043084467
0.0042927048
0.0042779099
0.0042640142
0.0042509357
0.0042385903
0.0042269443
0.0042159595
0.0042056254
0.0041959301
0.0041868353
0.0041783809
0.0041705532
0.0041632687
0.0041564771
0.0041501359
0.0041442014
0.0041386594
0.0041335066
0.0041287611
0.0041244345
0.004120512
0.0041170223
0.0041138499
0.0041110978
0.0041083474
0.0041056741
0.0041033505
0.0041011458
0.0040993827
0.0040967779
0.004098546
0.10510469
0.10678432
0.10851388
0.11030993
0.11217422
0.11410814
0.1161129
0.1181897
0.12033964
0.12256379
0.12486311
0.12723849
0.12969073
0.1322205
0.13482835
0.13751464
0.14027953
0.1431228
0.14604313
0.1489567
0.15184529
0.15478165
0.15776104
0.16077899
0.16383053
0.16691008
0.17001149
0.17312787
0.17625165
0.1793744
0.18248692
0.18557916
0.1886402
0.19165821
0.19462038
0.19751292
0.20032099
0.20302879
0.2056194
0.20807507
0.21037724
0.21250629
0.21444177
0.21616293
0.21764828
0.21887621
0.21982528
0.22047419
0.22080236
0.22079124
0.22042467
0.21968827
0.21856854
0.2170531
0.21513255
0.21280191
0.21006015
0.20690966
0.20335598
0.19940542
0.19506225
0.19031867
0.18515034
0.17953955
0.17348713
0.16700609
0.16011775
0.15284868
0.14522949
0.13729055
0.12906363
0.12058576
0.11189943
0.1030524
0.094095762
0.085087484
0.076097913
0.067209363
0.058511261
0.050095468
0.042052812
0.034475934
0.02746776
0.021143474
0.015622325
0.011037634
0.0075533556
0.005397957
0.0045959374
0.0044382433
0.0044007611
0.0043778578
0.004357583
0.0043387202
0.004321098
0.0043046053
0.0042891128
0.0042745466
0.0042608603
0.0042479737
0.0042358048
0.0042243224
0.0042134899
0.0042032983
0.004193737
0.0041847685
0.0041764323
0.0041687135
0.0041615286
0.004154827
0.0041485666
0.0041427047
0.0041372289
0.0041321385
0.004127452
0.0041231788
0.0041193041
0.0041158572
0.0041127245
0.004110012
0.0041073006
0.0041046704
0.0041023948
0.0041002475
0.00409855
0.0040960286
0.0040978035
0.11096307
0.11258373
0.11425042
0.11598202
0.11778027
0.11964654
0.1215821
0.12358814
0.12566582
0.12781621
0.13004029
0.13233897
0.13471305
0.13716319
0.13968991
0.14229356
0.14497426
0.14773177
0.15056478
0.1533831
0.15616746
0.15899692
0.16186647
0.16477154
0.16770698
0.17066705
0.17364535
0.17663487
0.17962782
0.18261568
0.18558914
0.1885381
0.1914516
0.1943178
0.19712394
0.19985623
0.20249996
0.20503947
0.20745818
0.20973863
0.21186238
0.21381021
0.21556231
0.21709826
0.21839727
0.21943858
0.22020151
0.2206657
0.2208119
0.22062301
0.22008386
0.21918068
0.21790042
0.21623159
0.21416623
0.21170051
0.20883418
0.20557012
0.20191305
0.19786778
0.19343463
0.18859829
0.18333392
0.17763111
0.17149528
0.16494154
0.15799203
0.15067376
0.14301698
0.13505134
0.12680903
0.11832754
0.10965006
0.10082455
0.091902596
0.082943696
0.074020117
0.065214975
0.056617635
0.048318367
0.04040698
0.032975992
0.026130326
0.019984958
0.014659359
0.01028999
0.0070484088
0.0051648277
0.0045428859
0.004426977
0.004394705
0.0043726472
0.0043527765
0.0043342495
0.0043169317
0.0043007163
0.0042854758
0.0042711405
0.0042576661
0.0042449738
0.0042329836
0.0042216669
0.0042109888
0.0042009417
0.0041915163
0.0041826754
0.0041744586
0.0041668497
0.0041597648
0.0041531535
0.0041469743
0.0041411854
0.0041357764
0.004130749
0.004126122
0.0041219029
0.0041180764
0.0041146728
0.0041115802
0.0041089082
0.0041062368
0.004103651
0.0041014251
0.0040993372
0.004097707
0.0040952712
0.0040970526
0.11689185
0.11845498
0.1200598
0.12172778
0.1234606
0.12525964
0.12712616
0.1290614
0.13106651
0.13314258
0.13529061
0.1375115
0.13980603
0.14217486
0.14461849
0.14713722
0.14973115
0.15240002
0.15514249
0.15786166
0.16053736
0.16325523
0.16600999
0.16879696
0.17161086
0.17444579
0.17729526
0.18015202
0.18300819
0.18585516
0.1886836
0.19148336
0.19424351
0.19695219
0.19959668
0.2021633
0.20463749
0.20700379
0.20924584
0.21134644
0.21328748
0.21505019
0.21661514
0.21796256
0.21907248
0.21992479
0.22049961
0.22077777
0.22074138
0.22037456
0.21966295
0.21859322
0.21715298
0.21533184
0.21312324
0.21052432
0.20753557
0.20415974
0.20040036
0.19626033
0.1917342
0.18680048
0.18143813
0.1756437
0.16942587
0.16280136
0.15579289
0.14842784
0.14073591
0.13274617
0.12449138
0.11600957
0.10734458
0.098544531
0.089661722
0.080757358
0.071905505
0.06318987
0.054699427
0.046522689
0.038748627
0.031470203
0.024794184
0.018834973
0.013712938
0.0095681428
0.0065812601
0.0049721016
0.0045030242
0.0044173127
0.0043887456
0.0043673916
0.0043479154
0.0043297259
0.0043127151
0.0042967797
0.0042817938
0.0042676918
0.0042544315
0.0042419359
0.0042301265
0.0042189777
0.0042084562
0.0041985557
0.0041892679
0.0041805563
0.00417246
0.0041649619
0.0041579775
0.0041514567
0.0041453589
0.0041396433
0.0041343015
0.0041293379
0.0041247712
0.0041206066
0.0041168287
0.0041134687
0.0041104171
0.0041077863
0.0041051559
0.0041026159
0.0041004412
0.0040984148
0.0040968538
0.0040945058
0.0040962935
0.12287809
0.12438508
0.12592895
0.12753404
0.12920193
0.13093401
0.13273156
0.13459581
0.13652794
0.13852902
0.14060007
0.14274197
0.1449555
0.14724126
0.14959975
0.15203123
0.15453575
0.15711304
0.15976175
0.16237791
0.16494047
0.16754212
0.17017725
0.17284101
0.17552802
0.17823231
0.18094726
0.18366557
0.18637923
0.1890796
0.19175733
0.19440228
0.19700351
0.19954924
0.2020268
0.20442265
0.20672243
0.20891085
0.21097179
0.2128883
0.21464264
0.21621648
0.21759105
0.21874718
0.2196655
0.2203268
0.22071225
0.22080371
0.22058456
0.22004004
0.21915631
0.21792062
0.21632142
0.21434953
0.21199966
0.20926985
0.20616095
0.20267496
0.19881411
0.19457827
0.1899549
0.18491989
0.17945882
0.17357382
0.1672758
0.16058272
0.1535178
0.14610864
0.13838418
0.13037321
0.12210914
0.11363062
0.10498203
0.096211739
0.087372933
0.078528676
0.069754655
0.061134941
0.052757717
0.0447098
0.037079403
0.029960625
0.023461675
0.017696217
0.012786243
0.0088760091
0.0061564798
0.0048178067
0.0044731993
0.0044087547
0.0043828338
0.0043620869
0.0043429993
0.0043251494
0.0043084483
0.0042927955
0.0042780669
0.0042642004
0.0042511566
0.00423886
0.0042272338
0.004216255
0.0042058922
0.0041961403
0.004186992
0.0041784111
0.0041704366
0.0041630501
0.0041561665
0.0041497364
0.0041437203
0.0041380784
0.0041328044
0.004127905
0.0041233992
0.0041192896
0.0041155607
0.0041122448
0.0041092348
0.0041066461
0.0041040579
0.004101565
0.0040994432
0.0040974803
0.0040959906
0.0040937323
0.0040955261
0.12890738
0.13035949
0.13184322
0.13338598
0.1349893
0.13665458
0.13838309
0.14017607
0.14203469
0.14396002
0.14595307
0.1480147
0.15014565
0.15234652
0.15461775
0.15695957
0.15937203
0.16185478
0.16440649
0.16691582
0.16936084
0.17184165
0.17435236
0.17688793
0.1794429
0.18201123
0.18458624
0.18716059
0.1897263
0.19227467
0.19479633
0.19728115
0.19971825
0.20209594
0.20440166
0.20662203
0.20874287
0.21074905
0.21262472
0.21435324
0.21591729
0.21729909
0.21848047
0.21944283
0.22016768
0.22063668
0.22083192
0.2207365
0.220335
0.21961333
0.21855819
0.2171576
0.21540095
0.21328032
0.21079158
0.20793348
0.20470663
0.20111187
0.19714991
0.19281581
0.18809036
0.18295143
0.17739198
0.17141794
0.1650419
0.15828276
0.15116419
0.1437138
0.13595966
0.12793066
0.11966081
0.1111895
0.10256156
0.093825688
0.085036161
0.07625802
0.067568315
0.059051265
0.050793745
0.042881189