/*--------------------------------*- C++ -*----------------------------------*\
| =========                 |                                                 |
| \\      /  F ield         | OpenFOAM: The Open Source CFD Toolbox           |
|  \\    /   O peration     | Version:  2406                                  |
|   \\  /    A nd           | Website:  www.openfoam.com                      |
|    \\/     M anipulation  |                                                 |
\*---------------------------------------------------------------------------*/
FoamFile
{
    version     2.0;
    format      ascii;
    arch        "LSB;label=32;scalar=64";
    class       volScalarField;
    location    "0.017";
    object      Ma;
}
// * * * * * * * * * * * * * * * * * * * * * * * * * * * * * * * * * * * * * //

dimensions      [0 0 0 0 0 0 0];

internalField   nonuniform List<scalar> 
23203
(
0.17168596
0.17178327
0.17181491
0.17178456
0.17169823
0.17157149
0.17139869
0.17117748
0.17090966
0.17059633
0.17023786
0.16983413
0.16938463
0.16888833
0.1683437
0.16774863
0.16710041
0.16639575
0.16563093
0.16480222
0.163907
0.16294645
0.1619318
0.16089641
0.15991182
0.15907793
0.15845993
0.15803122
0.15770894
0.15743539
0.15718364
0.15694062
0.1567041
0.15647248
0.1562462
0.156024
0.15580644
0.15559254
0.15538263
0.15517644
0.15497376
0.15477498
0.15457989
0.15438883
0.15420151
0.15401822
0.15383875
0.15366317
0.15349128
0.15332313
0.15315838
0.15299729
0.1528396
0.15268559
0.152535
0.15238787
0.15224409
0.15210341
0.15196636
0.15183256
0.15170221
0.151576
0.15145341
0.15133479
0.1512202
0.1511093
0.15100209
0.15089875
0.15079901
0.15070244
0.1506086
0.15051722
0.15042864
0.15034269
0.15026002
0.1501803
0.1501035
0.15002989
0.14995924
0.14989133
0.14982637
0.14976439
0.14970501
0.14964805
0.14959365
0.14954174
0.14949196
0.14944459
0.14939978
0.14935722
0.14931703
0.14927909
0.14924345
0.1492102
0.149179
0.14914997
0.14912303
0.14909807
0.14907513
0.14905415
0.14903533
0.14901823
0.14900339
0.14899023
0.14897967
0.14897031
0.14896462
0.14896022
0.17076594
0.17088026
0.17093609
0.17092072
0.17083936
0.17071693
0.17055237
0.17033738
0.17007359
0.16976239
0.16940416
0.16899869
0.16854534
0.16804297
0.1674899
0.16688385
0.166222
0.16550102
0.16471743
0.16386841
0.16295372
0.16198007
0.16097037
0.15997816
0.15909573
0.15841417
0.15794603
0.15761979
0.157354
0.15711213
0.15688106
0.15665415
0.1564318
0.15621327
0.15599924
0.1557884
0.15558176
0.1553782
0.15517823
0.15498146
0.15478779
0.15459764
0.1544108
0.15422764
0.15404786
0.15387177
0.15369916
0.15353013
0.15336442
0.15320215
0.15304295
0.15288715
0.15273449
0.15258524
0.15243917
0.15229631
0.15215657
0.15201972
0.15188637
0.15175612
0.15162919
0.15150628
0.15138687
0.15127129
0.15115958
0.15105142
0.15094681
0.15084593
0.15074846
0.15065397
0.15056201
0.15047244
0.15038559
0.1503013
0.15022025
0.15014203
0.15006667
0.14999446
0.1499251
0.1498584
0.14979462
0.14973375
0.1496754
0.14961943
0.14956595
0.1495149
0.14946593
0.14941934
0.14937524
0.14933335
0.14929379
0.14925643
0.14922134
0.14918859
0.14915786
0.14912927
0.14910272
0.14907813
0.14905554
0.14903487
0.14901632
0.14899946
0.14898484
0.14897185
0.14896144
0.14895218
0.14894655
0.14894217
0.16969076
0.16983798
0.16992684
0.16993932
0.16987756
0.16976626
0.16961837
0.16941789
0.16916568
0.16886351
0.16851184
0.16811043
0.16765858
0.16715511
0.16659827
0.1659858
0.16531491
0.16458261
0.16378626
0.16292508
0.16200334
0.16103692
0.16006535
0.15916311
0.15842602
0.15790044
0.1575386
0.15726365
0.15702299
0.15679873
0.15658316
0.15637067
0.15616189
0.15595623
0.15575428
0.15555472
0.15535896
0.15516569
0.15497566
0.15478829
0.15460361
0.15442202
0.15424335
0.15406799
0.15389565
0.15372666
0.15356081
0.15339821
0.15323859
0.15308211
0.15292839
0.1527778
0.15263007
0.15248551
0.1523439
0.15220523
0.1520695
0.15193641
0.15180672
0.15167998
0.15155639
0.15143673
0.15132043
0.15120781
0.15109891
0.15099343
0.15089137
0.15079289
0.15069766
0.15060524
0.15051516
0.15042739
0.15034227
0.15025963
0.15018017
0.15010342
0.15002948
0.14995864
0.14989054
0.14982505
0.14976243
0.14970266
0.14964533
0.14959035
0.1495378
0.14948762
0.14943948
0.14939367
0.14935029
0.14930907
0.14927014
0.14923337
0.14919883
0.14916659
0.14913633
0.14910817
0.14908203
0.14905782
0.14903557
0.14901521
0.14899695
0.14898033
0.14896593
0.14895311
0.14894285
0.1489337
0.14892814
0.14892378
0.16856831
0.16874458
0.16885884
0.16890098
0.1688612
0.16876079
0.16862653
0.16844004
0.16819918
0.16790579
0.16756044
0.16716282
0.16671215
0.16620719
0.16564617
0.16502687
0.16434672
0.16360338
0.16279572
0.16192637
0.16100663
0.16006551
0.15916196
0.15838342
0.1578025
0.15740645
0.15712032
0.15688733
0.1566742
0.15647086
0.15627252
0.15607537
0.15588082
0.15568855
0.15549916
0.15531129
0.15512681
0.15494422
0.15476453
0.15458694
0.15441161
0.15423895
0.1540688
0.15390158
0.153737
0.15357542
0.15341662
0.15326073
0.15310746
0.15295702
0.152809
0.15266386
0.15252128
0.15238161
0.15224466
0.15211037
0.15197883
0.15184968
0.15172383
0.15160077
0.15148069
0.15136444
0.15125142
0.1511419
0.15103595
0.15093329
0.1508339
0.15073794
0.15064506
0.15055479
0.15046666
0.1503808
0.15029747
0.15021655
0.15013877
0.15006355
0.1499911
0.14992169
0.14985493
0.1497907
0.14972929
0.14967068
0.14961442
0.14956046
0.14950889
0.14945962
0.14941233
0.14936733
0.1493247
0.14928418
0.14924592
0.14920977
0.14917579
0.14914408
0.14911432
0.14908661
0.1490609
0.14903707
0.14901519
0.14899516
0.14897718
0.14896082
0.14894664
0.14893401
0.14892391
0.14891487
0.14890936
0.14890504
0.1673977
0.16759899
0.16773523
0.16780667
0.16778851
0.16770051
0.16757613
0.16740323
0.16717344
0.16688839
0.16654882
0.16615442
0.16570433
0.16519727
0.16463154
0.16400508
0.16331588
0.16256287
0.16174766
0.16087866
0.15997819
0.15909283
0.15829916
0.15767728
0.15724921
0.15695431
0.15672192
0.15651911
0.15632677
0.15614077
0.15595808
0.15577587
0.1555955
0.15541672
0.15524
0.15506395
0.15489088
0.15471909
0.1545499
0.15438223
0.15421641
0.15405281
0.1538913
0.15373233
0.15357562
0.15342156
0.15326992
0.15312084
0.15297399
0.15282967
0.15268744
0.15254782
0.15241049
0.15227578
0.15214355
0.15201371
0.15188644
0.15176131
0.15163937
0.15152007
0.15140358
0.15129079
0.15118112
0.15107475
0.15097181
0.150872
0.15077534
0.15068193
0.15059142
0.15050332
0.15041719
0.15033326
0.15025177
0.15017261
0.15009653
0.15002289
0.14995195
0.14988401
0.1498186
0.14975565
0.14969549
0.14963804
0.14958287
0.14952996
0.14947939
0.14943104
0.14938463
0.14934046
0.1492986
0.1492588
0.14922122
0.14918569
0.14915231
0.14912114
0.14909188
0.14906463
0.14903935
0.14901592
0.1489944
0.14897471
0.14895702
0.14894093
0.14892697
0.14891453
0.14890459
0.14889566
0.14889023
0.14888593
0.16617548
0.16639929
0.16655557
0.16665015
0.16665467
0.16658253
0.16646477
0.16630478
0.16608563
0.16580834
0.16547394
0.16508212
0.16463198
0.16412226
0.16355142
0.16291791
0.16222078
0.16146132
0.16064585
0.15979224
0.15893839
0.15814947
0.15750535
0.15704796
0.15674275
0.1565163
0.15632129
0.15614333
0.15597128
0.15580332
0.15563678
0.15546993
0.15530404
0.15513898
0.15497518
0.1548112
0.15464973
0.15448891
0.15433046
0.15417291
0.1540168
0.15386247
0.15370978
0.15355924
0.15341058
0.1532642
0.15311985
0.15297773
0.15283743
0.15269937
0.15256305
0.15242907
0.15229709
0.15216745
0.15204006
0.15191478
0.15179188
0.15167087
0.15155294
0.15143751
0.15132469
0.15121546
0.15110921
0.15100608
0.15090621
0.15080934
0.15071545
0.15062466
0.15053656
0.15045068
0.15036659
0.15028466
0.15020505
0.15012769
0.15005335
0.14998132
0.14991193
0.14984549
0.14978147
0.14971983
0.14966095
0.14960469
0.14955064
0.14949881
0.14944926
0.14940185
0.14935634
0.14931303
0.14927196
0.1492329
0.149196
0.14916113
0.14912835
0.14909773
0.14906899
0.14904221
0.14901737
0.14899435
0.14897321
0.14895386
0.14893648
0.14892065
0.14890693
0.14889468
0.14888491
0.14887609
0.14887072
0.14886646
0.16489964
0.16514324
0.16531796
0.16542963
0.16545779
0.16540236
0.16529122
0.16514239
0.16493279
0.16466234
0.16433228
0.16394227
0.16349142
0.16297857
0.16240267
0.16176311
0.16106106
0.16030196
0.15950002
0.15868728
0.15791995
0.15727251
0.1567992
0.15648471
0.15626556
0.156086
0.15592056
0.1557646
0.15561159
0.15546102
0.15531021
0.15515875
0.15500741
0.1548562
0.15470548
0.15455379
0.15440405
0.15425435
0.15410682
0.15395956
0.15381334
0.15366843
0.15352471
0.15338275
0.15324228
0.15310371
0.15296678
0.15283173
0.15269809
0.15256637
0.15243608
0.15230784
0.15218133
0.15205683
0.15193438
0.15181374
0.15169531
0.15157851
0.15146468
0.1513532
0.15124415
0.15113855
0.15103581
0.15093597
0.15083925
0.15074536
0.15065432
0.15056618
0.15048053
0.1503969
0.15031489
0.15023501
0.15015732
0.15008181
0.15000925
0.14993886
0.14987107
0.14980616
0.14974355
0.14968326
0.14962568
0.14957065
0.14951773
0.149467
0.14941849
0.14937206
0.14932748
0.14928503
0.14924477
0.14920647
0.14917028
0.14913607
0.14910391
0.14907386
0.14904564
0.14901935
0.14899496
0.14897236
0.14895161
0.14893261
0.14891553
0.14889998
0.1488865
0.14887445
0.14886484
0.14885614
0.14885085
0.14884661
0.16356833
0.16382855
0.16401899
0.16414593
0.16419709
0.16415683
0.16405331
0.16391266
0.16371139
0.16344683
0.16312017
0.16273115
0.16227901
0.16176297
0.16118296
0.16054031
0.15983997
0.15909452
0.15833032
0.15759753
0.15696472
0.15649016
0.15617522
0.15596368
0.15580093
0.15565567
0.15551544
0.15537993
0.15524573
0.15511278
0.15497779
0.154842
0.15470537
0.15456815
0.15443072
0.15429154
0.15415368
0.15401526
0.15387882
0.153742
0.15360587
0.15347054
0.15333595
0.15320272
0.15307058
0.15293996
0.15281057
0.15268271
0.15255583
0.15243057
0.15230642
0.15218402
0.15206308
0.15194384
0.15182642
0.1517105
0.15159665
0.15148417
0.15137451
0.1512671
0.15116189
0.15106002
0.15096086
0.15086438
0.15077086
0.15068003
0.1505919
0.15050645
0.15042328
0.15034194
0.15026207
0.15018429
0.15010857
0.15003495
0.1499642
0.1498955
0.14982934
0.14976599
0.14970482
0.14964592
0.14958967
0.14953588
0.14948413
0.14943453
0.14938709
0.14934165
0.14929801
0.14925645
0.14921702
0.1491795
0.14914404
0.14911051
0.14907898
0.14904951
0.14902183
0.14899604
0.14897211
0.14894994
0.14892958
0.14891095
0.14889417
0.14887891
0.14886567
0.14885383
0.14884438
0.14883581
0.14883058
0.14882639
0.16217935
0.1624533
0.16265691
0.16279705
0.16286884
0.16284426
0.16274758
0.16261152
0.1624175
0.16215803
0.1618339
0.1614452
0.16099169
0.16047346
0.15989243
0.15925345
0.15856817
0.15786035
0.15717228
0.15656946
0.1561101
0.15580528
0.15560857
0.15546345
0.15534002
0.15522297
0.15510607
0.15499025
0.15487464
0.15475931
0.15463998
0.15452004
0.15439821
0.15427505
0.15415105
0.15402463
0.15389881
0.15377182
0.15364662
0.15352036
0.15339449
0.15326888
0.15314358
0.15301921
0.15289554
0.152773
0.15265126
0.1525307
0.15241069
0.15229199
0.1521741
0.15205763
0.15194238
0.15182848
0.15171618
0.15160509
0.1514959
0.15138785
0.15128246
0.15117919
0.15107793
0.15097986
0.15088436
0.15079131
0.15070106
0.15061334
0.15052816
0.15044545
0.1503648
0.1502858
0.15020811
0.15013247
0.15005877
0.14998708
0.14991819
0.14985121
0.14978672
0.14972496
0.14966527
0.14960779
0.14955291
0.14950038
0.14944982
0.14940137
0.14935502
0.1493106
0.14926793
0.14922729
0.1491887
0.14915198
0.14911727
0.14908444
0.14905356
0.14902467
0.14899755
0.14897227
0.14894881
0.14892708
0.14890712
0.14888886
0.1488724
0.14885743
0.14884444
0.14883281
0.14882353
0.14881509
0.14880993
0.14880577
0.16072995
0.16101508
0.1612296
0.16138
0.16146992
0.1614603
0.16136965
0.16123526
0.16104757
0.16079244
0.16047014
0.16008167
0.15962802
0.15911095
0.1585362
0.15791475
0.15726913
0.15663775
0.15607682
0.15564874
0.15536727
0.15519308
0.15507154
0.1549707
0.15487824
0.15478631
0.15469189
0.15459526
0.15449809
0.15440046
0.15429677
0.15419293
0.15408598
0.15397694
0.1538665
0.15375309
0.15363948
0.15352411
0.15341024
0.15329466
0.15317922
0.15306349
0.15294761
0.15283224
0.15271717
0.15260282
0.15248884
0.15237569
0.15226264
0.1521506
0.15203909
0.15192866
0.15181919
0.15171072
0.15160364
0.15149746
0.15139304
0.15128952
0.15118849
0.15108947
0.15099223
0.15089805
0.15080628
0.15071672
0.1506298
0.15054526
0.15046309
0.15038316
0.15030507
0.15022844
0.15015298
0.15007955
0.1500079
0.1499382
0.1498712
0.14980598
0.1497432
0.14968307
0.14962488
0.14956885
0.14951537
0.14946414
0.14941479
0.14936752
0.14932229
0.1492789
0.14923723
0.14919752
0.1491598
0.1491239
0.14908995
0.14905784
0.14902763
0.14899935
0.14897279
0.14894803
0.14892506
0.14890377
0.14888423
0.14886634
0.1488502
0.14883553
0.14882279
0.14881138
0.14880228
0.14879396
0.14878888
0.14878476
0.15921669
0.15951071
0.15973452
0.15989291
0.15999363
0.15999819
0.15991686
0.15978175
0.15959885
0.1593473
0.15902667
0.15863989
0.15819012
0.15768228
0.15712901
0.15655092
0.15598544
0.15548288
0.15509709
0.15485437
0.15471205
0.15461962
0.15454598
0.15447915
0.15441352
0.15434534
0.1542734
0.15419557
0.1541165
0.15403642
0.15394838
0.15386089
0.15376889
0.15367399
0.15357718
0.15347703
0.15337583
0.15327229
0.15316978
0.15306499
0.15296013
0.1528544
0.15274809
0.15264183
0.15253548
0.15242944
0.15232331
0.15221766
0.15211169
0.1520064
0.15190139
0.15179709
0.15169351
0.15159057
0.15148878
0.15138761
0.15128807
0.15118919
0.1510926
0.15099792
0.1509048
0.15081458
0.15072661
0.15064061
0.15055709
0.15047577
0.15039668
0.15031955
0.15024405
0.15016985
0.15009667
0.1500255
0.14995596
0.14988829
0.14982321
0.1497598
0.14969877
0.1496403
0.14958365
0.1495291
0.14947705
0.14942713
0.14937902
0.14933297
0.14928888
0.14924655
0.14920589
0.14916714
0.14913031
0.14909525
0.14906208
0.1490307
0.14900118
0.14897352
0.14894754
0.14892331
0.14890084
0.14888
0.14886088
0.14884338
0.14882757
0.14881321
0.14880073
0.14878955
0.14878061
0.14877243
0.14876743
0.14876335
0.15763537
0.15793564
0.15816638
0.15833133
0.15843714
0.15845549
0.15838446
0.15824863
0.15806919
0.1578212
0.15750388
0.15712379
0.15668763
0.15620594
0.15570253
0.15521052
0.15477982
0.15445561
0.15425907
0.15416175
0.1541036
0.15406113
0.15402383
0.1539862
0.15394483
0.15390004
0.15385115
0.15379164
0.15373013
0.15366705
0.15359497
0.15352409
0.1534471
0.15336635
0.15328319
0.15319654
0.15310795
0.15301647
0.15292533
0.15283141
0.15273732
0.15264169
0.15254507
0.15244804
0.15235052
0.15225288
0.15215469
0.15205663
0.15195784
0.1518594
0.15176102
0.15166293
0.15156533
0.151468
0.1513716
0.15127553
0.15118097
0.15108684
0.15099477
0.15090453
0.15081562
0.15072943
0.15064533
0.15056296
0.15048289
0.15040487
0.15032888
0.15025461
0.15018174
0.15011
0.15003916
0.14997031
0.14990292
0.14983733
0.1497742
0.14971265
0.14965341
0.14959663
0.14954155
0.14948852
0.14943794
0.14938936
0.14934251
0.14929769
0.14925478
0.14921352
0.14917391
0.14913614
0.14910022
0.14906602
0.14903365
0.14900302
0.1489742
0.14894717
0.14892179
0.14889811
0.14887614
0.14885577
0.14883708
0.14881998
0.1488045
0.14879045
0.14877825
0.14876729
0.14875853
0.14875049
0.14874556
0.14874153
0.15598167
0.15628554
0.15652037
0.15668922
0.15679948
0.1568321
0.15676947
0.15663373
0.15645759
0.15621616
0.15590816
0.15554714
0.15514464
0.15472086
0.15431362
0.15396511
0.15371792
0.15358556
0.1535372
0.15352034
0.15351232
0.15350837
0.15350275
0.1534911
0.15347195
0.15345089
0.15342518
0.15338369
0.15333965
0.15329243
0.1532369
0.15318279
0.15312073
0.15305424
0.15298469
0.15291179
0.15283599
0.15275677
0.15267698
0.15259403
0.15251087
0.15242542
0.15233862
0.1522509
0.1521623
0.15207317
0.15198299
0.15189259
0.15180111
0.1517096
0.15161796
0.15152618
0.15143463
0.15134301
0.15125208
0.15116121
0.15107173
0.15098248
0.15089502
0.1508093
0.15072469
0.1506426
0.15056244
0.15048375
0.15040721
0.15033252
0.15025969
0.15018831
0.1501181
0.15004889
0.14998044
0.14991394
0.14984876
0.1497853
0.14972417
0.14966451
0.14960711
0.14955205
0.14949857
0.1494471
0.14939801
0.14935079
0.14930524
0.14926168
0.14921996
0.14917982
0.14914127
0.1491045
0.14906952
0.1490362
0.14900465
0.14897479
0.14894669
0.14892031
0.14889553
0.14887242
0.14885096
0.14883106
0.14881282
0.14879612
0.14878099
0.14876726
0.14875532
0.1487446
0.14873602
0.14872812
0.14872327
0.14871929
0.15425148
0.15455681
0.15479351
0.15496408
0.15507742
0.15512481
0.1550734
0.15493983
0.15476883
0.15454268
0.15425884
0.15394288
0.15361036
0.15329605
0.1530441
0.15288686
0.15282857
0.15284017
0.15286821
0.15289506
0.15292965
0.15295995
0.15298185
0.15299389
0.15299613
0.15299881
0.15299313
0.15297084
0.15294608
0.15291335
0.15287499
0.15283717
0.15278962
0.15273792
0.15268189
0.15262297
0.15256007
0.1524933
0.15242483
0.15235296
0.1522809
0.15220569
0.15212881
0.15205049
0.15197089
0.15189032
0.15180824
0.15172556
0.15164153
0.15155702
0.15147223
0.15138684
0.15130142
0.1512156
0.15113022
0.15104465
0.15096036
0.1508761
0.15079332
0.15071221
0.15063199
0.15055408
0.15047791
0.15040297
0.15033001
0.15025871
0.15018909
0.15012062
0.15005311
0.14998649
0.14992048
0.14985639
0.14979346
0.14973219
0.14967309
0.14961537
0.14955985
0.14950654
0.1494547
0.14940483
0.14935726
0.14931143
0.1492672
0.14922493
0.14918444
0.14914542
0.14910796
0.14907222
0.14903819
0.14900578
0.14897506
0.14894599
0.14891863
0.14889291
0.14886876
0.14884622
0.14882529
0.14880588
0.14878809
0.14877179
0.14875702
0.14874362
0.14873196
0.14872147
0.14871308
0.14870533
0.14870056
0.14869662
0.15244147
0.15274705
0.15298469
0.15315611
0.15327037
0.15333479
0.15330151
0.1531792
0.15302145
0.15282965
0.15260118
0.15237608
0.15216914
0.15202507
0.15197089
0.15199578
0.15205863
0.1521396
0.15221569
0.15228668
0.15235591
0.1524136
0.15245958
0.15249497
0.15252099
0.15254283
0.15255188
0.15255345
0.15254973
0.15253088
0.15251061
0.15248725
0.1524537
0.15241791
0.15237517
0.15233039
0.15228036
0.15222618
0.15216899
0.15210833
0.15204754
0.15198259
0.15191572
0.15184686
0.15177631
0.15170436
0.15163047
0.15155555
0.15147912
0.1514017
0.15132384
0.15124492
0.15116569
0.15108576
0.15100602
0.15092585
0.15084686
0.1507677
0.1506897
0.15061328
0.15053751
0.15046384
0.15039173
0.1503206
0.15025128
0.15018342
0.15011704
0.15005153
0.14998677
0.14992278
0.14985927
0.14979764
0.14973701
0.14967798
0.14962095
0.14956522
0.14951163
0.1494601
0.14940992
0.14936169
0.14931567
0.14927126
0.14922838
0.14918743
0.14914818
0.14911031
0.14907396
0.14903928
0.14900623
0.14897474
0.14894488
0.14891662
0.14889001
0.14886497
0.14884145
0.1488195
0.14879911
0.1487802
0.14876287
0.148747
0.14873258
0.14871952
0.14870815
0.14869791
0.1486897
0.1486821
0.14867741
0.14867352
0.1505505
0.15085676
0.15109703
0.1512726
0.15138984
0.15146585
0.15146821
0.15138681
0.15126364
0.15114135
0.1510239
0.1509458
0.1509268
0.1509755
0.15107631
0.15120921
0.15133955
0.15146412
0.15158204
0.15169044
0.15178447
0.15186582
0.15193554
0.15199422
0.15204328
0.15208296
0.15211078
0.15213322
0.1521447
0.15214485
0.15214466
0.15213286
0.15211409
0.15209471
0.15206499
0.15203437
0.151997
0.15195558
0.15190964
0.15186028
0.15181088
0.15175624
0.15169944
0.15164008
0.15157863
0.15151532
0.15144974
0.15138261
0.15131393
0.15124368
0.15117279
0.15110042
0.15102744
0.1509535
0.15087949
0.15080483
0.15073123
0.15065729
0.15058414
0.15051249
0.15044127
0.15037189
0.15030389
0.15023663
0.15017101
0.15010663
0.15004352
0.14998102
0.14991904
0.14985774
0.14979679
0.14973767
0.1496794
0.14962265
0.14956774
0.14951404
0.14946241
0.1494127
0.14936424
0.14931768
0.14927323
0.14923026
0.14918876
0.14914915
0.14911118
0.14907448
0.14903928
0.14900567
0.14897362
0.14894308
0.14891409
0.14888666
0.14886082
0.14883649
0.14881362
0.14879227
0.14877243
0.14875402
0.14873717
0.14872172
0.14870767
0.14869496
0.14868388
0.14867388
0.14866587
0.14865842
0.14865381
0.14864998
0.14858309
0.14889328
0.1491417
0.14933051
0.14946522
0.14955862
0.14961684
0.14962124
0.14959279
0.14959339
0.14964733
0.14974518
0.14990574
0.15009654
0.15028687
0.15047274
0.15064769
0.15081261
0.15096131
0.15109349
0.15121208
0.15131815
0.15141152
0.15149258
0.15156208
0.15162131
0.1516705
0.1517089
0.15173627
0.15175706
0.15177196
0.15177323
0.15177386
0.15176774
0.15175177
0.15173518
0.15171008
0.15168184
0.15164711
0.15160913
0.15157099
0.1515267
0.15148003
0.15143019
0.1513779
0.15132323
0.15126611
0.15120681
0.15114599
0.15108298
0.15101909
0.15095334
0.15088668
0.15081883
0.15075065
0.15068158
0.15061349
0.15054488
0.15047666
0.15040984
0.15034324
0.15027821
0.15021437
0.15015105
0.15008917
0.15002832
0.14996852
0.14990906
0.14984991
0.14979136
0.14973303
0.14967646
0.1496206
0.14956619
0.14951343
0.14946181
0.1494122
0.14936434
0.14931762
0.14927277
0.14922992
0.14918843
0.14914835
0.1491101
0.14907342
0.14903792
0.14900389
0.14897138
0.14894035
0.14891078
0.14888268
0.1488561
0.14883106
0.14880743
0.14878523
0.1487645
0.14874522
0.14872734
0.14871097
0.14869595
0.14868228
0.14866992
0.14865914
0.1486494
0.14864157
0.14863429
0.14862977
0.14862599
0.14655789
0.14688154
0.14715188
0.14737382
0.14755543
0.14770997
0.14785371
0.14799162
0.14812295
0.1483002
0.14853142
0.14878051
0.14904747
0.14930301
0.14954285
0.14976837
0.14997673
0.15016674
0.15034008
0.15049884
0.15064303
0.15077253
0.15088791
0.15099014
0.15108024
0.15115838
0.15122511
0.15128211
0.15132881
0.15136574
0.1513941
0.15141399
0.15142978
0.15143498
0.15143656
0.15143265
0.15141982
0.15140528
0.15138182
0.15135552
0.15132789
0.15129397
0.1512576
0.15121723
0.15117421
0.15112813
0.15107967
0.15102822
0.15097533
0.15091965
0.15086273
0.15080371
0.15074344
0.15068178
0.15061953
0.15055616
0.15049366
0.15043047
0.15036726
0.15030534
0.15024344
0.15018279
0.15012317
0.15006385
0.15000576
0.14994848
0.149892
0.14983564
0.14977936
0.14972362
0.14966797
0.14961399
0.1495606
0.14950858
0.14945802
0.14940852
0.14936097
0.149315
0.14927006
0.14922696
0.14918574
0.14914574
0.14910712
0.14907026
0.1490349
0.14900063
0.14896778
0.14893639
0.14890641
0.14887783
0.14885065
0.14882493
0.14880071
0.14877781
0.14875629
0.14873618
0.14871749
0.14870014
0.14868426
0.14866969
0.1486564
0.1486444
0.14863392
0.14862445
0.14861682
0.1486097
0.14860526
0.14860155
0.14452574
0.14488558
0.14520775
0.14550125
0.14577797
0.14605199
0.1463356
0.14663178
0.14694357
0.14727917
0.14761678
0.14794611
0.14825874
0.14855064
0.14882312
0.14907583
0.14930983
0.14952678
0.14972709
0.14991037
0.15007703
0.15022818
0.15036479
0.15048759
0.15059716
0.15069437
0.15077992
0.15085387
0.15091711
0.15097126
0.15101644
0.15105269
0.15108106
0.15110169
0.15111791
0.15112485
0.15112732
0.15112569
0.15111393
0.15110021
0.15108159
0.15105819
0.15103226
0.15100125
0.15096769
0.15093012
0.1508905
0.15084695
0.15080196
0.15075369
0.15070374
0.15065154
0.15059774
0.15054239
0.15048615
0.15042858
0.15037173
0.15031407
0.15025596
0.15019898
0.15014186
0.15008564
0.15003028
0.14997501
0.14992076
0.1498671
0.14981396
0.14976073
0.14970738
0.1496545
0.14960159
0.14955026
0.14949938
0.14944981
0.1494015
0.14935417
0.14930872
0.14926467
0.14922156
0.14918024
0.14914066
0.1491022
0.14906506
0.14902962
0.14899559
0.14896257
0.14893095
0.14890071
0.1488718
0.14884423
0.14881799
0.14879315
0.14876975
0.1487476
0.14872678
0.14870732
0.14868921
0.14867241
0.14865704
0.14864292
0.14863002
0.14861839
0.14860823
0.14859902
0.14859159
0.14858464
0.14858029
0.14857664
0.14260178
0.1430398
0.14346157
0.1438765
0.14429339
0.14471792
0.14514954
0.1455821
0.14600567
0.14641144
0.14679539
0.14715678
0.14749679
0.1478163
0.14811574
0.14839561
0.1486563
0.14889787
0.14912062
0.14932556
0.14951385
0.14968627
0.14984339
0.14998585
0.15011444
0.15022986
0.15033289
0.15042445
0.15050512
0.1505754
0.15063588
0.1506875
0.1507314
0.15076734
0.15079555
0.15081617
0.15083249
0.15084078
0.15084335
0.15084306
0.15083226
0.15081997
0.15080418
0.15078247
0.15075852
0.15072942
0.15069861
0.15066307
0.15062584
0.1505851
0.15054216
0.15049687
0.15044965
0.15040069
0.15035057
0.15029888
0.15024773
0.15019568
0.15014276
0.15009076
0.1500385
0.14998673
0.14993568
0.14988453
0.14983415
0.14978414
0.14973437
0.14968432
0.14963395
0.14958399
0.14953389
0.14948524
0.14943694
0.14938987
0.14934385
0.14929874
0.14925542
0.14921333
0.14917209
0.1491326
0.14909468
0.14905778
0.14902217
0.14898817
0.14895549
0.14892376
0.14889338
0.14886431
0.14883649
0.14880996
0.14878467
0.14876074
0.14873819
0.14871681
0.1486967
0.14867789
0.14866039
0.14864415
0.14862929
0.14861562
0.14860314
0.14859188
0.14858204
0.1485731
0.14856587
0.1485591
0.14855484
0.14855125
0.14097478
0.14153101
0.14208201
0.14262924
0.14317098
0.14370201
0.14421478
0.14470234
0.14516162
0.14559428
0.14600323
0.14639092
0.14675787
0.14710358
0.14742788
0.14773094
0.14801335
0.14827604
0.14852015
0.14874646
0.1489555
0.14914785
0.14932421
0.1494854
0.14963222
0.14976552
0.14988608
0.1499945
0.15009151
0.15017791
0.15025442
0.1503216
0.15037965
0.15042939
0.15047187
0.15050683
0.15053449
0.15055456
0.15057059
0.15058021
0.15058022
0.15058028
0.1505734
0.1505615
0.15054675
0.15052633
0.15050397
0.15047664
0.15044701
0.1504139
0.15037805
0.15033976
0.15029921
0.15025674
0.15021281
0.15016712
0.15012168
0.1500753
0.15002769
0.1499807
0.14993337
0.14988608
0.14983936
0.14979241
0.14974591
0.14969961
0.14965321
0.14960638
0.14955906
0.14951206
0.14946485
0.14941893
0.14937327
0.14932873
0.14928507
0.14924222
0.14920107
0.14916098
0.14912165
0.14908402
0.14904778
0.14901247
0.14897844
0.1489459
0.14891459
0.14888416
0.14885506
0.14882718
0.14880048
0.14877501
0.14875069
0.14872768
0.14870601
0.1486854
0.14866603
0.14864788
0.148631
0.14861534
0.148601
0.14858781
0.14857573
0.14856486
0.14855535
0.14854669
0.14853967
0.14853308
0.14852891
0.14852539
0.13977628
0.14043031
0.14106736
0.1416831
0.14227334
0.14283513
0.14336765
0.14387241
0.14435207
0.14480856
0.14524276
0.14565461
0.14604372
0.14641013
0.14675444
0.14707758
0.14738049
0.14766389
0.14792828
0.14817417
0.14840222
0.14861322
0.14880792
0.14898712
0.1491516
0.14930214
0.14943951
0.14956451
0.14967784
0.1497801
0.14987189
0.14995384
0.15002669
0.1500909
0.15014651
0.15019411
0.15023471
0.15026822
0.15029468
0.15031403
0.15032747
0.15033654
0.15033969
0.15033895
0.15033217
0.1503211
0.15030657
0.1502877
0.15026557
0.15024015
0.15021152
0.15018028
0.15014647
0.15011058
0.15007292
0.15003333
0.1499936
0.14995294
0.14991076
0.1498688
0.14982647
0.14978368
0.14974133
0.14969863
0.14965605
0.14961348
0.14957048
0.1495269
0.14948269
0.14943872
0.14939446
0.14935131
0.14930834
0.14926639
0.14922513
0.1491846
0.14914566
0.1491076
0.14907023
0.1490345
0.14899996
0.14896627
0.14893385
0.1489028
0.14887287
0.14884378
0.14881598
0.14878932
0.14876376
0.14873937
0.14871604
0.14869398
0.14867319
0.14865339
0.14863476
0.1486173
0.14860105
0.14858598
0.14857217
0.14855945
0.14854781
0.14853733
0.14852815
0.14851977
0.14851297
0.14850656
0.14850249
0.14849903
0.13888492
0.13956501
0.14021756
0.140842
0.14143912
0.14201056
0.14255795
0.14308213
0.143583
0.14406012
0.14451319
0.14494255
0.14534899
0.14573345
0.14609659
0.14643888
0.14676073
0.14706259
0.14734506
0.14760886
0.14785473
0.14808337
0.14829549
0.14849184
0.14867322
0.14884043
0.14899423
0.14913532
0.14926439
0.14938209
0.14948907
0.14958587
0.14967291
0.14975071
0.14981989
0.14988081
0.1499335
0.14997843
0.15001671
0.15004797
0.15007217
0.15009019
0.15010435
0.15011216
0.15011501
0.15011373
0.15010671
0.15009642
0.15008182
0.15006403
0.15004266
0.15001852
0.14999149
0.14996227
0.14993091
0.14989757
0.14986354
0.14982862
0.14979198
0.14975506
0.1497178
0.14967952
0.14964157
0.1496032
0.14956454
0.14952574
0.14948614
0.14944586
0.14940483
0.14936393
0.1493227
0.14928238
0.14924216
0.14920283
0.14916405
0.14912588
0.14908916
0.14905318
0.14901782
0.14898403
0.1489512
0.14891916
0.1488884
0.14885886
0.14883032
0.14880261
0.14877613
0.14875072
0.14872631
0.14870303
0.14868072
0.14865963
0.14863974
0.14862075
0.14860289
0.14858612
0.14857053
0.14855606
0.14854279
0.14853056
0.14851934
0.14850927
0.14850043
0.14849234
0.14848575
0.14847953
0.14847556
0.14847217
0.13808162
0.13875833
0.13941168
0.14004236
0.14065066
0.14123636
0.14179878
0.14233719
0.1428513
0.14334141
0.14380832
0.14425288
0.14467562
0.14507679
0.14545661
0.14581541
0.14615368
0.14647203
0.1467711
0.14705155
0.14731401
0.14755916
0.14778771
0.1480004
0.148198
0.14838124
0.14855086
0.14870758
0.14885205
0.14898487
0.14910657
0.14921768
0.14931875
0.14941024
0.14949245
0.1495658
0.14963084
0.14968798
0.1497373
0.1497791
0.14981419
0.14984324
0.14986641
0.14988295
0.14989579
0.14990232
0.14990473
0.14990296
0.14989595
0.14988577
0.14987158
0.14985461
0.14983431
0.14981188
0.14978683
0.14975987
0.14973155
0.14970236
0.14967136
0.14963948
0.14960736
0.14957361
0.14954009
0.14950612
0.14947139
0.14943635
0.14940019
0.14936325
0.14932548
0.1492877
0.14924958
0.14921213
0.14917471
0.14913805
0.1491018
0.14906604
0.14903159
0.14899771
0.1489644
0.14893258
0.14890151
0.14887114
0.14884207
0.14881407
0.14878693
0.14876062
0.14873551
0.14871136
0.14868813
0.14866598
0.1486447
0.1486246
0.14860563
0.14858747
0.14857039
0.14855433
0.14853942
0.14852557
0.14851284
0.1485011
0.14849034
0.14848067
0.14847219
0.14846439
0.14845802
0.148452
0.14844813
0.14844481
0.13732855
0.13800847
0.13866746
0.13930484
0.13991977
0.1405117
0.14108047
0.14162634
0.1421498
0.14265127
0.14313099
0.14358899
0.14402531
0.14444015
0.1448339
0.14520699
0.14555994
0.14589324
0.14620742
0.14650309
0.14678089
0.14704148
0.14728553
0.14751374
0.1477268
0.14792543
0.14811033
0.14828215
0.14844149
0.14858893
0.14872498
0.14885013
0.1489648
0.14906942
0.14916445
0.1492503
0.14932724
0.1493957
0.1494562
0.14950907
0.14955468
0.14959339
0.14962603
0.14965293
0.14967391
0.14968905
0.14970051
0.14970608
0.14970802
0.14970545
0.14969846
0.1496887
0.14967508
0.14965952
0.14964074
0.14962032
0.14959769
0.1495742
0.14954889
0.14952208
0.14949514
0.14946597
0.14943689
0.14940738
0.14937659
0.14934531
0.14931262
0.14927905
0.14924464
0.14921003
0.14917507
0.14914054
0.14910599
0.14907204
0.14903837
0.14900509
0.14897292
0.14894118
0.14890997
0.14888016
0.14885086
0.1488222