/*--------------------------------*- C++ -*----------------------------------*\
| =========                 |                                                 |
| \\      /  F ield         | OpenFOAM: The Open Source CFD Toolbox           |
|  \\    /   O peration     | Version:  2406                                  |
|   \\  /    A nd           | Website:  www.openfoam.com                      |
|    \\/     M anipulation  |                                                 |
\*---------------------------------------------------------------------------*/
FoamFile
{
    version     2.0;
    format      ascii;
    arch        "LSB;label=32;scalar=64";
    class       volScalarField;
    location    "0.017";
    object      nutMean;
}
// * * * * * * * * * * * * * * * * * * * * * * * * * * * * * * * * * * * * * //

dimensions      [0 2 -1 0 0 0 0];

internalField   nonuniform List<scalar> 
23203
(
0.10688078
0.11130281
0.11578667
0.12033707
0.12495579
0.1296434
0.13439966
0.13922353
0.14411311
0.1490655
0.15407667
0.15914135
0.16425293
0.16940334
0.17458285
0.17978001
0.18498137
0.19017145
0.19533267
0.20044523
0.20548711
0.2104341
0.21525978
0.21993575
0.22443188
0.22871648
0.23275638
0.236517
0.23996266
0.24305694
0.24576316
0.24804463
0.24986522
0.25119075
0.2519901
0.25223546
0.25190308
0.25097445
0.24943721
0.24728392
0.24451227
0.24112865
0.23714867
0.2325963
0.22749891
0.22188194
0.2157546
0.20908699
0.20184893
0.19404721
0.18571264
0.17688616
0.16760947
0.15792489
0.14787977
0.13752753
0.12692753
0.11614168
0.10523764
0.094298542
0.08342512
0.072730054
0.062332928
0.052356289
0.042920553
0.034153872
0.026198532
0.019206109
0.0133427
0.0088091521
0.0058996717
0.0047501321
0.0045243502
0.0044757337
0.004447383
0.0044225724
0.0043996283
0.00437824
0.0043582578
0.0043395948
0.0043221263
0.0043057335
0.0042903394
0.0042758649
0.0042622678
0.004249505
0.0042375149
0.004226331
0.0042159446
0.0042062761
0.0041972795
0.0041889284
0.0041811847
0.0041740139
0.0041673728
0.0041612459
0.0041556478
0.0041505512
0.0041459886
0.0041418301
0.0041381408
0.0041345039
0.004130901
0.004127617
0.0041243705
0.0041214905
0.0041173812
0.0041190066
0.11000212
0.11439348
0.11884801
0.12336797
0.12795465
0.13260837
0.13732863
0.14211406
0.1469624
0.15187037
0.15683355
0.1618463
0.16690166
0.17199118
0.17710477
0.1822306
0.18735494
0.19246204
0.19753408
0.20255109
0.20749095
0.2123294
0.2170401
0.2215949
0.22596404
0.23011626
0.23401873
0.23763731
0.2409368
0.24388141
0.24643518
0.24856217
0.25022717
0.25139715
0.25204217
0.25213575
0.25165563
0.25058466
0.24891154
0.24662943
0.24373721
0.24024247
0.23616159
0.23151878
0.22634023
0.22064908
0.21444778
0.20770211
0.20038812
0.19251832
0.18412554
0.1752511
0.16593635
0.15622374
0.1461609
0.13580166
0.12520563
0.11443477
0.10355768
0.092659243
0.081841364
0.071217221
0.060906108
0.051029538
0.041706912
0.033066996
0.025252633
0.018415303
0.012722157
0.0083780733
0.0056846108
0.0046997749
0.0045148519
0.0044710198
0.0044434036
0.004418907
0.0043962182
0.004375059
0.0043552849
0.004336812
0.0043195172
0.0043032828
0.0042880341
0.0042736937
0.0042602217
0.0042475763
0.0042356969
0.0042246182
0.0042143316
0.0042047569
0.0041958479
0.0041875763
0.004179903
0.0041727941
0.004166208
0.0041601314
0.0041545796
0.0041495262
0.0041450033
0.0041408799
0.0041372238
0.0041336159
0.0041300435
0.0041267915
0.0041235784
0.0041207364
0.0041166785
0.0041183056
0.11326602
0.11761722
0.12203269
0.12651326
0.1310594
0.13567093
0.14034687
0.14508545
0.14988395
0.15473867
0.15964476
0.16459621
0.16958565
0.17460426
0.17964156
0.18468538
0.18972169
0.19473449
0.19970579
0.20461551
0.2094415
0.21415953
0.2187435
0.22316564
0.22739668
0.23140576
0.2351605
0.23862727
0.24177149
0.24455806
0.24695182
0.24891769
0.25042149
0.2514314
0.25191875
0.25185852
0.25122997
0.2500173
0.24821003
0.24580195
0.2427932
0.23919245
0.23501685
0.23029047
0.22503805
0.21927958
0.21300911
0.20619006
0.19880615
0.19087492
0.1824307
0.17351481
0.16416816
0.15443348
0.14435872
0.13399815
0.12341148
0.11266089
0.10181631
0.090964454
0.08020815
0.069660923
0.059441622
0.049670664
0.040466731
0.031959447
0.024292021
0.017615839
0.012099524
0.0079536556
0.0054857865
0.0046557573
0.0045059776
0.0044662835
0.0044393271
0.0044151464
0.0043927207
0.0043717983
0.0043522394
0.0043339628
0.0043168471
0.0043007762
0.0042856774
0.0042714755
0.0042581324
0.004245608
0.0042338429
0.0042228729
0.0042126889
0.0042032106
0.0041943914
0.0041862011
0.0041786001
0.0041715548
0.0041650253
0.0041590007
0.0041534966
0.0041484877
0.0041440053
0.0041399178
0.0041362956
0.0041327175
0.0041291765
0.0041259576
0.0041227793
0.0041199767
0.0041159725
0.0041176015
0.1166814
0.12098535
0.1253546
0.12978895
0.13428807
0.13885114
0.14347665
0.14816233
0.152905
0.15770047
0.16254347
0.16742759
0.17234507
0.17728666
0.18224152
0.18719713
0.19213918
0.19705146
0.20191581
0.20671206
0.21141807
0.21600975
0.22046128
0.2247453
0.22883295
0.23269376
0.23629577
0.23960593
0.24259027
0.24521443
0.24744407
0.24924495
0.25058401
0.25143067
0.25175761
0.25154135
0.25076261
0.24940681
0.2474641
0.24492911
0.24180337
0.23809654
0.23382656
0.22901707
0.22369111
0.21786433
0.21152168
0.20462725
0.19717296
0.18918051
0.1806854
0.17172881
0.16235121
0.15259565
0.14251036
0.13215011
0.12157467
0.1108465
0.100037
0.089234766
0.078543465
0.068076912
0.057953367
0.048291978
0.039210913
0.030840822
0.023325138
0.016815282
0.011481861
0.0075427426
0.0053073374
0.0046188904
0.004497887
0.0044615366
0.0044351702
0.0044113059
0.0043891491
0.0043684691
0.0043491304
0.0043310549
0.0043141227
0.0042982191
0.0042832739
0.0042692138
0.0042560027
0.0042436023
0.004231954
0.0042210952
0.0042110162
0.0042016362
0.0041929084
0.004184801
0.0041772736
0.004170293
0.0041638215
0.0041578502
0.004152395
0.0041474314
0.0041429903
0.0041389394
0.0041353518
0.0041318043
0.0041282955
0.0041251107
0.0041219682
0.0041192065
0.0041152581
0.0041168889
0.12024958
0.12449967
0.12881593
0.13319732
0.13764282
0.14215096
0.14671964
0.15134606
0.15602656
0.16075645
0.16553002
0.17034047
0.17517959
0.18003773
0.18490368
0.18976458
0.1946059
0.19941118
0.20416215
0.20883858
0.21341841
0.21787773
0.22219106
0.22633144
0.23027035
0.23397764
0.23742188
0.24057057
0.24339041
0.2458478
0.24790923
0.24954134
0.25071223
0.25139261
0.25155661
0.25118236
0.25025191
0.24875168
0.24667243
0.24400989
0.24076695
0.23695425
0.23259045
0.2276983
0.22229885
0.2164018
0.20998363
0.20301221
0.19548739
0.18743412
0.1788888
0.16989239
0.16048494
0.15070978
0.14061552
0.13025739
0.11969519
0.10899176
0.098220188
0.087470866
0.07684826
0.066466361
0.056442684
0.046895008
0.037941227
0.029713145
0.022354247
0.016016245
0.010872298
0.0071492073
0.0051505503
0.0045885222
0.0044904782
0.004456789
0.0044309547
0.0044074062
0.0043855218
0.0043650878
0.0043459728
0.0043281012
0.0043113553
0.0042956216
0.0042808323
0.0042669162
0.0042538393
0.0042415647
0.0042300354
0.0042192894
0.0042093168
0.0042000364
0.0041914013
0.0041833777
0.0041759247
0.0041690098
0.0041625972
0.0041566802
0.0041512746
0.004146357
0.0041419578
0.004137944
0.0041343916
0.0041308752
0.0041273995
0.0041242495
0.0041211443
0.0041184249
0.0041145341
0.004116167
0.12397003
0.12816006
0.13241685
0.1367387
0.14112397
0.14557059
0.15007584
0.15463643
0.15924819
0.16390592
0.16860347
0.17333362
0.17808771
0.1828557
0.18762602
0.19238551
0.19711939
0.20181104
0.20644206
0.21099224
0.21543962
0.21976056
0.22392993
0.22792111
0.23170582
0.23525433
0.23853571
0.24151809
0.24416882
0.24645513
0.24834431
0.24980395
0.25080336
0.25131462
0.25131342
0.25077944
0.24969591
0.24805007
0.24583339
0.24304293
0.23968284
0.23576472
0.23130772
0.22633331
0.22085998
0.2148898
0.20839281
0.2013432
0.19374791
0.18563439
0.17703971
0.16800447
0.15856837
0.14877507
0.13867354
0.12831948
0.11777269
0.10709657
0.096365998
0.085673147
0.075123171
0.064830131
0.054910618
0.04548098
0.036659155
0.028578149
0.021381346
0.015221074
0.010273721
0.0067766102
0.0050155796
0.0045636697
0.0044836123
0.0044520329
0.0044266852
0.0044034519
0.0043818429
0.0043616578
0.0043427693
0.0043251042
0.0043085471
0.0042929855
0.0042783542
0.0042645841
0.0042516432
0.0042394964
0.0042280877
0.0042174561
0.0042075912
0.0041984118
0.0041898702
0.0041819313
0.0041745535
0.0041677051
0.0041613523
0.0041554903
0.0041501354
0.0041452644
0.0041409075
0.0041369313
0.0041334146
0.0041299301
0.0041264881
0.004123374
0.0041203071
0.0041176316
0.0041138005
0.0041154354
0.12784091
0.13196499
0.13615609
0.14041194
0.14473043
0.1491089
0.15354402
0.15803205
0.1625683
0.16714709
0.17176182
0.17640481
0.18106697
0.1857379
0.19040567
0.19505684
0.19967645
0.20424769
0.20875212
0.21316955
0.21747822
0.22165481
0.22567445
0.22951078
0.23313581
0.23652024
0.23963371
0.24244495
0.24492202
0.24703299
0.24874597
0.25002958
0.25085437
0.25119388
0.2510255
0.25033026
0.24909243
0.24729991
0.24494516
0.24202667
0.23854969
0.23452682
0.22997726
0.22492083
0.21937263
0.21332572
0.20674691
0.19961834
0.19195286
0.1837798
0.17513675
0.16606378
0.15660038
0.1467905
0.13668356
0.12633569
0.11580667
0.10516066
0.094474437
0.083841855
0.073368717
0.063168962
0.053358076
0.044051008
0.035366094
0.027437478
0.020408346
0.014432069
0.0096889997
0.0064283037
0.0049016433
0.0045433028
0.0044771561
0.0044472568
0.0044223608
0.0043994433
0.0043781126
0.0043581793
0.0043395201
0.0043220641
0.004305698
0.0042903107
0.0042758396
0.0042622176
0.0042494145
0.0042373973
0.0042261108
0.0042155952
0.0042058396
0.0041967621
0.004188315
0.0041804617
0.0041731598
0.0041663786
0.0041600865
0.0041542806
0.0041489771
0.0041441534
0.0041398392
0.0041359011
0.0041324206
0.0041289688
0.0041255613
0.0041224838
0.0041194566
0.0041168265
0.0041130572
0.0041146941
0.13185955
0.13591198
0.14003126
0.14421475
0.14845998
0.15276362
0.15712182
0.16153047
0.16598434
0.17047723
0.17500211
0.17955091
0.18411403
0.1886808
0.19323894
0.19777476
0.20227314
0.20671711
0.21108824
0.21536644
0.21953021
0.22355644
0.22742054
0.23109633
0.23455617
0.23777126
0.24071179
0.24334711
0.24564606
0.24757752
0.24911049
0.25021465
0.25086187
0.25102733
0.25069001
0.24983218
0.24843893
0.24649887
0.24400571
0.2409593
0.2373659
0.23323911
0.2285976
0.22345921
0.21783429
0.21170662
0.20504353
0.19783561
0.19010042
0.18186871
0.17317838
0.16406893
0.1545797
0.14475498
0.13464466
0.12430527
0.11379656
0.10318369
0.092545452
0.081977213
0.071585365
0.061483523
0.051785913
0.042606162
0.034063401
0.02629274
0.019437142
0.013651533
0.0091210627
0.0061074046
0.0048072223
0.0045265066
0.0044710016
0.0044424516
0.0044179812
0.0043953805
0.004374331
0.0043546524
0.0043362252
0.0043189808
0.0043028082
0.0042875974
0.0042732885
0.0042598165
0.0042471531
0.0042352672
0.0042241049
0.0042137066
0.0042040616
0.0041950873
0.0041867356
0.0041789686
0.0041717434
0.0041650301
0.0041587996
0.0041530508
0.0041477993
0.0041430235
0.0041387525
0.004134853
0.0041314095
0.0041279909
0.0041246186
0.0041215787
0.0041185927
0.0041160097
0.0041123041
0.0041139432
0.1360221
0.13999714
0.14403873
0.14814384
0.15230932
0.15653137
0.16080589
0.16512825
0.16949269
0.17389258
0.17832047
0.18276783
0.18722468
0.19168005
0.19612135
0.20053469
0.20490479
0.20921461
0.21344575
0.2175783
0.22159098
0.22546087
0.22916353
0.23267307
0.23596224
0.23900275
0.24176537
0.24422008
0.24633653
0.24808445
0.24943374
0.25035522
0.25082221
0.25081159
0.25030385
0.24928228
0.24773263
0.24564439
0.24301276
0.23983876
0.2361297
0.2318999
0.22716694
0.22194633
0.21624193
0.21002938
0.20328017
0.19599287
0.18818866
0.17989932
0.17116297
0.16201841
0.15250499
0.1426673
0.13255581
0.12222735
0.11174173
0.10116531
0.090578959
0.080079416
0.069773585
0.05977447
0.050194972
0.041147515
0.032752429
0.025145557
0.018469696
0.012881838
0.0085729473
0.0058166311
0.0047303034
0.0045124975
0.0044650617
0.0044376095
0.0044135457
0.004391263
0.0043704978
0.0043510767
0.0043328843
0.0043158541
0.0042998772
0.0042848451
0.0042707006
0.0042573806
0.0042448589
0.0042331062
0.0042220696
0.0042117903
0.0042022573
0.0041933872
0.0041851317
0.0041774518
0.0041703039
0.0041636594
0.0041574914
0.0041518004
0.0041466019
0.0041418746
0.0041376473
0.0041337869
0.0041303808
0.0041269962
0.00412366
0.0041206588
0.0041177152
0.0041151812
0.0041115413
0.0041131825
0.14032378
0.14421602
0.14817406
0.15219445
0.15627364
0.16040763
0.16459182
0.16882085
0.17308868
0.1773884
0.18171202
0.18605056
0.1903938
0.19473043
0.19904761
0.20333129
0.20756605
0.21173484
0.21581938
0.2197999
0.22365533
0.22736283
0.23089816
0.23423575
0.23734882
0.2402096
0.2427894
0.24505892
0.24698863
0.24854913
0.24971127
0.25044705
0.25073145
0.25054306
0.24986365
0.24867733
0.24697047
0.24473375
0.24196386
0.23866285
0.23483912
0.23050723
0.22568321
0.22037959
0.214592
0.20829079
0.20145424
0.19408788
0.1862155
0.17786975
0.16908878
0.15991062
0.15037479
0.1405262
0.13041595
0.12010106
0.10964153
0.099105151
0.0885749
0.078148692
0.067933844
0.058042484
0.048586109
0.039676186
0.031434599
0.023997611
0.017508027
0.012125476
0.0080478788
0.0055581024
0.0046685873
0.0045006157
0.0044592687
0.0044327243
0.0044090534
0.0043870908
0.0043666128
0.0043474521
0.0043294972
0.0043126838
0.004296905
0.0042820538
0.0042680759
0.0042549099
0.0042425317
0.0042309141
0.004220005
0.0042098462
0.0042004263
0.0041916616
0.0041835032
0.004175911
0.0041688411
0.0041622662
0.0041561615
0.0041505293
0.0041453846
0.0041407063
0.0041365232
0.0041327023
0.0041293344
0.0041259845
0.0041226852
0.0041197236
0.0041168241
0.0041143407
0.0041107687
0.0041124121
0.14475864
0.14856267
0.15243138
0.15636098
0.1603476
0.16438683
0.16847364
0.17260238
0.1767666
0.18095888
0.18517084
0.18939313
0.19361533
0.19782587
0.20201162
0.20615846
0.21025086
0.21427184
0.21820325
0.22202543
0.22571741
0.22925644
0.23261854
0.23577857
0.2387102
0.24138616
0.24377836
0.24585826
0.24759714
0.24896653
0.24993824
0.25048565
0.25058548
0.25021793
0.24936581
0.2480139
0.24614925
0.24376408
0.24085641
0.23742924
0.233492
0.22905888
0.22414404
0.21875578
0.21288063
0.20648762
0.19956311
0.19211827
0.1841788
0.17577803
0.16695395
0.15774389
0.14818761
0.13833037
0.12822398
0.11792551
0.10749534
0.097002893
0.086533249
0.076185315
0.066066678
0.056288284
0.046960246
0.038193407
0.030111412
0.022850674
0.016554313
0.011385086
0.0075493124
0.0053330483
0.0046196868
0.00449033
0.0044535697
0.0044277913
0.004404504
0.0043828636
0.0043626759
0.0043437783
0.0043260638
0.0043094696
0.0042938911
0.0042792233
0.004265414
0.0042524041
0.0042401715
0.0042286907
0.0042179109
0.0042078741
0.0041985686
0.0041899103
0.0041818498
0.0041743461
0.0041673548
0.0041608502
0.0041548097
0.0041492373
0.0041441471
0.0041395184
0.0041353799
0.0041315992
0.00412827
0.0041249556
0.004121694
0.0041187732
0.0041159194
0.0041134883
0.0041099864
0.0041116318
0.14931953
0.15303002
0.15680373
0.16063649
0.16452419
0.16846208
0.17244475
0.17646615
0.18051943
0.18459686
0.18868982
0.19278858
0.19688236
0.2009594
0.20500645
0.20900935
0.21295248
0.216819
0.22059083
0.22424833
0.22777063
0.23113514
0.23431823
0.23729518
0.24004011
0.24252629
0.24472627
0.24661227
0.24815646
0.24933127
0.25010956
0.25046628
0.25037995
0.24983212
0.24880647
0.24728826
0.24526562
0.24273237
0.23968764
0.23613547
0.232086
0.22755242
0.22254664
0.21707109
0.21110377
0.20461662
0.19760405
0.19008159
0.1820763
0.1736221
0.16475661
0.1555165
0.1459419
0.13607852
0.12597878
0.11569981
0.10530257
0.094858269
0.084454044
0.074189633
0.064172681
0.054512671
0.045318388
0.036700525
0.028784507
0.021706656
0.015610846
0.010663538
0.0070809313
0.0051416212
0.0045812985
0.0044812296
0.0044479238
0.0044228068
0.004399897
0.0043785813
0.0043586868
0.0043400552
0.0043225839
0.0043062114
0.0042908357
0.0042763534
0.0042627149
0.0042498633
0.0042377781
0.0042264361
0.0042157872
0.0042058739
0.0041966842
0.0041881333
0.0041801713
0.0041727567
0.0041658448
0.0041594111
0.0041534357
0.004147924
0.004142889
0.0041383107
0.0041342172
0.0041304771
0.0041271873
0.0041239092
0.0041206863
0.0041178074
0.0041150008
0.004112624
0.0041091944
0.0041108417
0.1539982
0.15760978
0.16128284
0.16501282
0.16879529
0.17262524
0.17649695
0.18040397
0.18433918
0.1882945
0.192261
0.19622876
0.20018681
0.20412313
0.20802444
0.21187642
0.21566346
0.21936898
0.2229748
0.22646128
0.22980771
0.23299175
0.23599016
0.23877864
0.24133176
0.24362337
0.24562668
0.24731472
0.2486606
0.24963761
0.25021985
0.250384
0.25011028
0.24938134
0.24818149
0.24649658
0.24431609
0.24163545
0.23845471
0.23477896
0.23061851
0.22598509
0.22088772
0.21532108
0.2092573
0.20267452
0.19557426
0.1879753
0.17990569
0.17139984
0.16249475
0.15322666
0.14363612
0.13376931
0.12367926
0.11342311
0.10306266
0.092671091
0.082337416
0.072162079
0.0622525
0.052716527
0.04366165
0.035198993
0.027455642
0.020567617
0.014680147
0.0099639629
0.006646582
0.0049827255
0.0045513262
0.0044730072
0.0044422992
0.0044177679
0.0043952321
0.0043742437
0.0043546454
0.0043362827
0.0043190571
0.004302909
0.0042877384
0.004273444
0.0042599786
0.0042472872
0.0042353515
0.0042241501
0.0042136339
0.0042038457
0.0041947729
0.0041863303
0.0041784676
0.0041711427
0.0041643107
0.0041579487
0.0041520394
0.0041465892
0.0041416103
0.0041370827
0.0041330348
0.0041293358
0.0041260861
0.0041228452
0.0041196619
0.004116826
0.0041140684
0.0041117477
0.0041083928
0.0041100419
0.15878506
0.16229245
0.16585919
0.16948044
0.17315144
0.1768669
0.18062083
0.18440651
0.18821651
0.19204251
0.19587535
0.19970485
0.20351988
0.2073083
0.21105686
0.2147512
0.21837565
0.22191367
0.22534701
0.22865618
0.23182067
0.23481843
0.23762666
0.24022142
0.24257779
0.24467024
0.24647265
0.24795897
0.24910317
0.24987949
0.25026351
0.25023368
0.24977168
0.24886103
0.24748653
0.24563482
0.24329708
0.24047005
0.23715467
0.23335696
0.2290867
0.22435386
0.21916331
0.21350093
0.20733714
0.20065804
0.19347087
0.18579677
0.17766459
0.16910904
0.16016639
0.15087259
0.14126866
0.1314014
0.1213243
0.11109461
0.10077516
0.090441245
0.080183601
0.07010319
0.060306893
0.05090081
0.041991262
0.033690416
0.026126723
0.019435821
0.013764942
0.0092898039
0.0062501022
0.0048540337
0.0045278328
0.0044654114
0.004436672
0.0044126727
0.0043905091
0.0043698507
0.0043505517
0.0043324607
0.0043154835
0.0042995622
0.0042845992
0.0042704949
0.0042572047
0.0042446758
0.0042328917
0.0042218327
0.004211451
0.0042017892
0.0041928346
0.0041845013
0.0041767385
0.0041695039
0.0041627524
0.0041564628
0.0041506204
0.0041452326
0.0041403105
0.0041358342
0.0041318324
0.0041281751
0.0041249662
0.0041217632
0.0041186205
0.0041158289
0.0041131221
0.0041108596
0.0041075816
0.0041092323
0.16366918
0.16706709
0.17052191
0.17402846
0.17758177
0.18117628
0.18480574
0.1884632
0.19214099
0.19583061
0.19952267
0.20320682
0.20687185
0.2105055
0.21409449
0.21762445
0.22107983
0.22444387
0.22769844
0.23082423
0.23380081
0.2366067
0.23921944
0.2416154
0.24377031
0.24565924
0.24725684
0.24853794
0.24947743
0.25005062
0.25023474
0.25000997
0.24935911
0.24826638
0.24671704
0.24469891
0.24220488
0.23923278
0.23578449
0.2318665
0.22748746
0.22265519
0.21736867
0.21160555
0.20533925
0.19856384
0.19129092
0.18354332
0.17535056
0.16674748
0.15776946
0.14845245
0.13883797
0.12897349
0.11891287
0.10871356
0.098439683
0.088168736
0.077992926
0.068013635
0.058336706
0.049066609
0.04030864
0.032176582
0.02479983
0.018313735
0.012868218
0.0086448721
0.0058950982
0.0047522064
0.0045091748
0.0044582519
0.0044310248
0.0044075197
0.0043857278
0.0043654023
0.0043464056
0.004328589
0.0043118629
0.004296171
0.0042814179
0.0042675061
0.0042543934
0.0042420291
0.0042303986
0.004219484
0.0042092384
0.0041997047
0.0041908693
0.0041826462
0.0041749838
0.00416784
0.0041611696
0.0041549532
0.0041491785
0.004143854
0.0041389894
0.004134565
0.0041306097
0.0041269947
0.0041238273
0.0041206631
0.0041175621
0.0041148161
0.0041121619
0.0041099594
0.0041067608
0.0041084129
0.16863813
0.17192132
0.17525864
0.17864463
0.18207409
0.18554129
0.18903972
0.19256227
0.19610105
0.19964741
0.20319179
0.20672375
0.21023198
0.21370419
0.21712705
0.22048616
0.22376593
0.22694957
0.23001919
0.23295564
0.23573875
0.23834745
0.24075952
0.24295187
0.24490087
0.24658223
0.24797144
0.2490442
0.24977633
0.25014447
0.25012757
0.24970728
0.24886729
0.24759232
0.24586833
0.24368463
0.24103568
0.23792021
0.234341
0.23030432
0.22581734
0.22088494
0.2154983
0.20962989
0.20325966
0.19638857
0.18903139
0.18121219
0.17296109
0.16431283
0.15530188
0.14596443
0.13634249
0.12648429
0.11644395
0.10627929
0.096055957
0.085853691
0.0757659
0.065894188
0.056342933
0.04721513
0.038615362
0.03065945
0.023477218
0.017204091
0.01199325
0.0080333433
0.0055844713
0.0046733038
0.0044940345
0.0044513864
0.0044253446
0.0044023077
0.0043808881
0.0043608984
0.004342207
0.0043246677
0.0043081952
0.0042927353
0.0042781945
0.0042644775
0.0042515446
0.0042393471
0.0042278723
0.0042171039
0.0042069961
0.0041975919
0.004188877
0.0041807648
0.0041732034
0.0041661509
0.0041595623
0.0041534195
0.0041477135
0.0041424532
0.0041376467
0.0041332747
0.0041293664
0.0041257944
0.0041226692
0.0041195447
0.0041164865
0.0041137873
0.0041111877
0.0041090473
0.0041059303
0.0041075837
0.17367795
0.17684127
0.18005562
0.18331527
0.18661489
0.18994855
0.19330962
0.19669078
0.20008401
0.20348047
0.20687054
0.21024373
0.21358863
0.21689291
0.22014319
0.22332504
0.22642286
0.22941998
0.23229863
0.23504002
0.23762432
0.24003066
0.24223723
0.24422156
0.2459605
0.2474306
0.24860822
0.24946992
0.24999257
0.25015433
0.24993579
0.24931978
0.24829063
0.24683361
0.24493565
0.24258771
0.23978557
0.23652882
0.23282081
0.22866687
0.22407248
0.21903805
0.21354624
0.20756897
0.20109443
0.19412878
0.18668916
0.17880057
0.17049365
0.16180275
0.15276155
0.14340669
0.1337807
0.12393258
0.11391663
0.10379127
0.093623865
0.083496383
0.073503168
0.063745768
0.054326723
0.045347767
0.036913234
0.029141194
0.022161394
0.016109881
0.011143673
0.007459811
0.0053198728
0.0046132463
0.0044814431
0.0044447109
0.004419622
0.004397036
0.0043759902
0.0043563391
0.0043379559
0.0043206967
0.0043044803
0.004289255
0.004274929
0.0042614091
0.0042486582
0.0042366297
0.0042253128
0.0042146925
0.0042047243
0.004195451
0.0041868577
0.0041788571
0.0041713972
0.0041644364
0.00415793
0.0041518617
0.0041462251
0.0041410298
0.0041362822
0.0041319631
0.0041281023
0.0041245738
0.0041214916
0.0041184078
0.0041153935
0.0041127426
0.0041101997
0.0041081233
0.0041050904
0.0041067448
0.17877317
0.18181156
0.18489765
0.18802541
0.1911894
0.19438354
0.1976011
0.20083468
0.20407606
0.2073163
0.21054572
0.21375376
0.21692898
0.22005899
0.22313038
0.22612873
0.22903853
0.23184326
0.23452538
0.23706634
0.23944664
0.24164573
0.24364233
0.24541446
0.24693969
0.24819533
0.2491586
0.24980699
0.25011866
0.25007334
0.249653
0.24884138
0.24762334
0.24598487
0.24391417
0.24140379
0.2384506
0.23505499
0.23122021
0.22695024
0.22224838
0.21710854
0.21150634
0.20541799
0.1988396
0.19178099
0.18426111
0.17630563
0.16794565
0.15921488
0.15014638
0.14077742
0.13115111
0.12131718
0.11133009
0.10124907
0.091143452
0.081097266
0.071205558
0.061569443
0.052289409
0.043466125
0.035204336
0.027624222
0.0208551
0.015034414
0.010323459
0.0069292766
0.0051011763
0.0045681745
0.0044706752
0.0044381478
0.0044138505
0.0043917041
0.004371034
0.0043517243
0.0043336524
0.0043166761
0.0043007183
0.00428573
0.0042716213
0.0042583007
0.0042457342
0.0042338771
0.0042227201
0.0042122499
0.0042024228
0.0041932819
0.0041848113
0.0041769231
0.004169565
0.0041626964
0.0041562728
0.0041502795
0.0041447131
0.0041395838
0.0041348957
0.0041306299
0.0041268171
0.0041233327
0.0041202943
0.0041172521
0.004114283
0.0041116818
0.0041091977
0.0041071874
0.0041042411
0.0041058962
0.18390697
0.18681547
0.18976821
0.19275879
0.19578162
0.19883055
0.20189876
0.20497875
0.20806226
0.21114023
0.21420288
0.21723962
0.22023899
0.22318858
0.226075
0.22888391
0.23159993
0.23420678
0.2366871
0.23902262
0.24119411
0.24318146
0.24496389
0.24652014
0.24782845
0.24886685
0.24961355
0.25004712
0.250147
0.24989441
0.24927253
0.2482657
0.24685944
0.24504068
0.24279901
0.24012841
0.23702676
0.23349489
0.22953518
0.22515012
0.22033963
0.21508955
0.20937252
0.20317228
0.1964912
0.18934166
0.181744
0.17372449
0.16531447
0.15654682
0.1474543
0.13807487
0.12845233
0.11863701
0.10868364
0.098652463
0.08861495
0.078656996
0.068874088
0.059366435
0.050232527
0.041572054
0.033490978
0.026111184
0.019561414
0.013981333
0.0095370718
0.0064469236
0.0049261371
0.0045345078
0.0044611679
0.0044316412
0.0044080252
0.0043863118
0.0043660196
0.0043470543
0.0043292964
0.0043126058
0.0042969092
0.0042821604
0.0042682715
0.0042551526
0.0042427727
0.0042310892
0.0042200944
0.0042097762
0.0042000919
0.0041910847
0.0041827379
0.0041749625
0.0041677068
0.0041609306
0.0041545903
0.0041486728
0.0041431773
0.0041381147
0.0041334868
0.0041292749
0.0041255105
0.004122071
0.0041190771
0.0041160776
0.0041131549
0.0041106051
0.0041081818
0.0041062397
0.0041033824
0.0041050381
0.1890612
0.19183509
0.19464956
0.1974979
0.20037435
0.20327264
0.20618592
0.2091066
0.21202637
0.21493618
0.21782618
0.22068572
0.22350332
0.22626663
0.22896237
0.2315763
0.23409323
0.23649707
0.23877068
0.24089605
0.24285434
0.24462588
0.24619056
0.24752774
0.24861633
0.24943532
0.2499639
0.25018174
0.25006971
0.24961026
0.24878743
0.2475862
0.24599292
0.2439956
0.24158523
0.23875714
0.23550998
0.23184433
0.22776127
0.22326156
0.21833965
0.21297384
0.20713902
0.20082725
0.19404523
0.18680722
0.17913461
0.17105423
0.16259745
0.15379618
0.14468326
0.13529733
0.12568301
0.1158911
0.10597673
0.096001366
0.086038777
0.076176424
0.066509981
0.057138148
0.048157749
0.03966765
0.031775762
0.024605
0.018283738
0.012954658
0.0087895132
0.0060178166
0.0047904391
0.0045090787
0.0044525108
0.0044251519
0.0044021429
0.0043808589
0.0043609473
0.004342329
0.0043248881
0.0043084861
0.004293053
0.0042785461
0.0042648796
0.0042519647
0.0042397738
0.0042282662
0.0042174356
0.0042072714
0.0041977317
0.0041888595
0.0041806375
0.0041729756
0.0041658224
0.0041591391
0.0041528825
0.0041470413
0.0041416175
0.0041366224
0.0041320553
0.0041278977
0.0041241823
0.0041207883
0.0041178398
0.004114884
0.0041120092
0.0041095121
0.0041071519
0.0041052802
0.0041025145
0.0041041706
0.19421643
0.19685123
0.19952269
0.2022239
0.20494893
0.20769139
0.21044438
0.21320028
0.21595073
0.2186867
0.2213984
0.22407513
0.22670541
0.22927703
0.23177683
0.2341907
0.23650365
0.23869974
0.24076209
0.24267308
0.24441421
0.24596646
0.24731035
0.24842584
0.24929265
0.24989068
0.25020026
0.2502023
0.24987878
0.24921323
0.24819045
0.24679622
0.24501772
0.24284412
0.24026788
0.23728552
0.23389593
0.23009871
0.22589358
0.22127855
0.21624072
0.21075418
0.20480031
0.19837835
0.19149766
0.18417404
0.17642969
0.16829196
0.15979194
0.1509606
0.14183125
0.13244321
0.12284191
0.11307862
0.10320894
0.093295896
0.083415574
0.073656636
0.064114633
0.054886212
0.046066983
0.037755301
0.030061534
0.023108875
0.017025852
0.011958868
0.0080863577
0.0056462652
0.0046883119
0.0044894872
0.0044444133
0.004418653
0.0043962017
0.0043753455
0.0043558174
0.0043375487
0.0043204276
0.0043043169
0.0042891499
0.0042748872
0.0042614457
0.0042487372
0.0042367374
0.0042254082
0.004214744
0.0042047358
0.0041953423
0.0041866065
0.0041785102
0.0041709622
0.0041639119
0.0041573215
0.0041511492
0.0041453851
0.0041400336
0.0041351066
0.004130601
0.0041264981
0.0041228321
0.0041194845
0.0041165822
0.0041136712
0.0041108456
0.0041084032
0.0041061084
0.0041043092
0.0041016373
0.0041032938
0.19935172
0.20184313
0.20436704
0.20691634
0.20948506
0.21206671
0.21465431
0.21724021
0.2198161
0.22237295
0.22490101
0.22738972
0.22982767
0.23220272
0.2345018
0.23671098
0.23881545
0.24079948
0.24264654
0.24433939
0.24586006
0.24719018
0.24831086
0.24920268
0.2498463
0.2502227
0.25031326
0.25009998
0.24956593
0.24869551
0.24747426
0.24588897
0.24392774
0.24158079
0.23884207
0.23570901
0.23217988
0.22825299
0.22392653
0.21919379
0.21403444
0.20842368
0.20235113
0.19582104
0.18884445
0.18143849
0.17362599
0.16543473
0.15689525
0.14803776
0.13889636
0.12951098
0.11992793
0.1101989
0.10038014
0.090536474
0.080746242
0.071098984
0.061689642
0.052612537
0.043962425
0.035837742
0.028351444
0.021626337
0.015791948
0.010998895
0.0074336744
0.0053349064
0.0046134158
0.004473967
0.0044366697
0.0044121257
0.0043902001
0.0043697718
0.0043506301
0.0043327138
0.0043159149
0.0043000985
0.0042852001
0.0042711839
0.0042579698
0.00424547
0.0042336638
0.0042225155
0.0042120198
0.0042021695
0.004192924
0.0041843256
0.0041763559
0.0041689224
0.0041619751
0.004155478
0.0041493903
0.0041437038
0.0041384254
0.0041335673
0.0041291235
0.0041250759
0.0041214597
0.0041181594
0.0041153041
0.0041124391
0.0041096642
0.0041072781
0.0041050511
0.0041033265
0.004100751
0.0041024078
0.20444424
0.20678805
0.20916007
0.21155294
0.21396066
0.2163768
0.21879425
0.22120535
0.22360181
0.22597472
0.2283144
0.23061038
0.23285149
0.23502558
0.23711965
0.23911997
0.24101193
0.24278013
0.24440844
0.2458801
0.24717771
0.24828356
0.24917927
0.24984623
0.25026614
0.25042106
0.25029329
0.24986585
0.2491227
0.24804909
0.24663159
0.24485787
0.24271682
0.24020009
0.23730295
0.23402276
0.23035662
0.22630159
0.22185336
0.21699852
0.21171236
0.20597595
0.19978632
0.19315078
0.18608156
0.17859693
0.17072027
0.16247964
0.15390474
0.14502546
0.13587674
0.12649925
0.11694015
0.10725149
0.097490395
0.087723754
0.078031998
0.068505088
0.059236829
0.050319318
0.041846597
0.033918147
0.02664899
0.020161315
0.014586675
0.010080221
0.0068381168
0.0050836746
0.0045595605
0.004461209
0.0044291367
0.0044055574
0.0043841378
0.0043641381
0.0043453859
0.0043278244
0.0043113504
0.0042958309
0.0042812036
0.0042674364
0.0042544522
0.0042421635
0.0042305531
0.0042195881
0.0042092631
0.0041995726
0.0041904768
0.004182017
0.0041741748
0.0041668562
0.0041600122
0.0041536084
0.0041476057
0.0041419974
0.0041367927
0.0041320041
0.0041276228
0.0041236308
0.0041200651
0.0041168126
0.0041140054
0.0041111875
0.004108465