/*--------------------------------*- C++ -*----------------------------------*\
| =========                 |                                                 |
| \\      /  F ield         | OpenFOAM: The Open Source CFD Toolbox           |
|  \\    /   O peration     | Version:  2406                                  |
|   \\  /    A nd           | Website:  www.openfoam.com                      |
|    \\/     M anipulation  |                                                 |
\*---------------------------------------------------------------------------*/
FoamFile
{
    version     2.0;
    format      ascii;
    arch        "LSB;label=32;scalar=64";
    class       volVectorField;
    location    "0.001";
    object      U;
}
// * * * * * * * * * * * * * * * * * * * * * * * * * * * * * * * * * * * * * //

dimensions      [0 1 -1 0 0 0 0];

internalField   nonuniform List<vector> 
23204
(
(53.192022 0.11043185 9.371726e-23)
(53.189638 0.095313225 -9.1713822e-23)
(53.187999 0.048085676 -1.6370312e-19)
(53.154182 0.025655876 0)
(53.065611 -0.013851131 7.0285643e-20)
(53.684387 0.37373648 -2.4540132e-26)
(53.633861 0.33834634 2.3915888e-19)
(53.583824 0.30310722 2.3501646e-19)
(53.533723 0.26630448 -4.5016806e-22)
(53.486798 0.23401504 4.4284436e-22)
(53.443859 0.20309141 -2.2170589e-19)
(53.403574 0.1808452 0)
(53.365484 0.16084926 -4.1647195e-22)
(53.329183 0.14911087 2.0952579e-19)
(53.294218 0.13593264 -2.0487224e-19)
(53.25833 0.13174807 2.0110148e-19)
(53.222043 0.12366242 -1.9741828e-19)
(53.194814 0.12611343 0)
(53.19624 0.1075506 1.6626127e-25)
(53.194685 0.092963501 0)
(53.192717 0.046354794 -1.6009057e-19)
(53.157407 0.024076263 2.1831275e-23)
(53.065261 -0.013932497 7.4969723e-20)
(54.864819 0.77350912 1.3515426e-21)
(54.801043 0.74599585 8.4947773e-20)
(54.737106 0.71969572 -1.6812896e-19)
(54.672708 0.69467978 2.5592957e-21)
(54.607992 0.67103008 -1.6206023e-19)
(54.543006 0.64889972 -1.5785471e-19)
(54.478067 0.62841929 -1.5494675e-19)
(54.413374 0.60957348 1.520803e-19)
(54.348957 0.59215771 -1.4925423e-19)
(54.284869 0.57588769 -3.3490646e-25)
(54.221096 0.56040262 1.4372681e-19)
(54.157784 0.54509562 1.4102602e-19)
(54.094974 0.5294542 -1.0810121e-21)
(54.032884 0.51269962 2.1211092e-21)
(53.972866 0.49470305 -2.0809031e-21)
(53.914956 0.47509365 1.0206642e-21)
(53.857057 0.4520631 -1.2815542e-19)
(53.799967 0.42604699 0)
(53.743365 0.3966173 1.2330302e-19)
(53.690016 0.36437358 0)
(53.639223 0.32947016 -2.3723467e-19)
(53.589026 0.29479093 -2.3312326e-19)
(53.538713 0.25873572 4.4569578e-22)
(53.491567 0.22658385 2.233586e-19)
(53.448348 0.19681728 2.2034229e-19)
(53.407821 0.17452378 -4.2042311e-22)
(53.369674 0.15520785 0)
(53.333452 0.14401253 -2.0701993e-19)
(53.298325 0.13158957 2.032146e-19)
(53.262386 0.12756411 -1.9441769e-22)
(53.225555 0.11992324 0)
(53.198433 0.12278929 0)
(53.200477 0.10464864 1.8774053e-19)
(53.19976 0.090623518 0)
(53.197497 0.044742678 1.5688253e-19)
(53.160639 0.022627422 0)
(53.064825 -0.013953037 9.7802312e-26)
(55.878401 -0.53940146 -1.6910793e-20)
(55.996984 -0.29734453 -3.7737659e-20)
(56.10195 -0.063372299 -2.1039727e-25)
(56.193864 0.16164454 1.8154276e-20)
(56.273238 0.37675183 1.2713158e-21)
(56.340359 0.58072543 -2.3165626e-20)
(56.39497 0.77186319 2.5492761e-20)
(56.43551 0.94746193 -5.634483e-20)
(56.457257 1.1027488 2.0268473e-21)
(56.447478 1.2287449 -8.0246343e-20)
(56.377976 1.3071666 -9.314601e-25)
(56.23517 1.3203704 0)
(56.097686 1.3053496 5.9068838e-20)
(56.010182 1.2945993 1.5157217e-24)
(55.950039 1.2840973 0)
(55.899013 1.2712509 0)
(55.850071 1.2554435 5.6840786e-20)
(55.80092 1.2366865 5.7761556e-20)
(55.750933 1.2149896 -1.7239949e-21)
(55.700091 1.1927883 -1.5771943e-21)
(55.647867 1.1653121 1.0863138e-19)
(55.59403 1.1366793 0)
(55.538738 1.1062351 1.6183954e-21)
(55.482346 1.0743764 1.0029573e-19)
(55.425084 1.0418836 1.6870443e-24)
(55.366889 1.0089573 1.0008196e-19)
(55.307755 0.97602738 -1.9376707e-19)
(55.247791 0.94307616 -9.5237373e-20)
(55.187071 0.91030403 -9.5065806e-20)
(55.12558 0.87803416 -9.0545319e-20)
(55.063388 0.84648622 8.8963311e-20)
(55.000472 0.8157547 -8.8785292e-20)
(54.936935 0.78590504 0)
(54.873116 0.75729575 0)
(54.809412 0.72990927 8.5427327e-20)
(54.745534 0.70384084 1.6389444e-19)
(54.681165 0.67905305 1.6218032e-19)
(54.61644 0.65568379 1.5921697e-19)
(54.551388 0.63384296 1.5751529e-19)
(54.486339 0.61364091 1.5341277e-19)
(54.421508 0.59510413 -1.5174826e-19)
(54.356943 0.57800727 2.9554526e-19)
(54.292689 0.56211675 -3.3802074e-25)
(54.228747 0.54703114 -1.4118539e-19)
(54.165262 0.53212992 -1.4180252e-19)
(54.102286 0.51687915 1.3805731e-19)
(54.039952 0.50052478 0)
(53.979598 0.48285648 -1.3184746e-19)
(53.921434 0.46365531 0)
(53.863412 0.44118699 1.2687374e-19)
(53.806023 0.4156176 1.2444864e-19)
(53.74919 0.3866598 0)
(53.69564 0.35486752 0)
(53.644573 0.32047618 2.3485267e-19)
(53.594199 0.28635948 2.3033138e-19)
(53.543719 0.25106528 -2.263364e-19)
(53.496305 0.21906272 2.6850781e-26)
(53.452831 0.19053832 -2.1685409e-19)
(53.412121 0.16804231 -4.1617534e-22)
(53.373824 0.14946565 8.1630623e-22)
(53.33766 0.13882487 2.047357e-19)
(53.302539 0.12722734 -1.4027611e-27)
(53.266487 0.12332875 -1.97269e-19)
(53.229081 0.11616016 1.8874659e-22)
(53.202089 0.11942911 1.7312748e-19)
(53.20473 0.10172993 0)
(53.204852 0.088292816 -8.8978398e-23)
(53.202251 0.043271571 7.5526881e-23)
(53.163878 0.021331062 0)
(53.06431 -0.013905975 -8.7379803e-20)
(45.250139 -9.1387428 0)
(45.646858 -8.967449 0)
(46.042841 -8.7872171 0)
(46.437513 -8.5985127 -6.111682e-21)
(46.83046 -8.4016155 7.4943856e-21)
(47.22131 -8.1968319 -1.4705579e-21)
(47.60971 -7.9844883 -1.443976e-21)
(47.995309 -7.764925 1.276123e-20)
(48.377754 -7.5384943 -6.9659701e-21)
(48.75668 -7.3055598 -4.1091463e-21)
(49.131714 -7.0664948 4.0410085e-21)
(49.502469 -6.8216816 -1.0606487e-20)
(49.868543 -6.5715109 2.6110665e-21)
(50.229517 -6.3163809 9.0050076e-21)
(50.584956 -6.0566969 -5.0733299e-21)
(50.934407 -5.7928711 3.7538603e-21)
(51.277396 -5.525322 -4.9418802e-21)
(51.613431 -5.2544748 2.4408912e-21)
(51.941999 -4.9807613 -1.2062911e-21)
(52.262567 -4.7046203 8.3534636e-21)
(52.574586 -4.4264987 -8.268136e-21)
(52.877485 -4.1468523 -1.8716282e-20)
(53.170683 -3.8661477 9.2732892e-21)
(53.453586 -3.5848643 -9.1943703e-21)
(53.725596 -3.3034967 7.5289532e-27)
(53.986118 -3.0225573 0)
(54.234574 -2.7425797 0)
(54.470411 -2.4641218 1.1168231e-21)
(54.693124 -2.1877685 -1.1102531e-21)
(54.902268 -1.9141349 -1.1051433e-21)
(55.09749 -1.6438683 9.9081427e-21)
(55.278545 -1.3776521 7.6891434e-21)
(55.445332 -1.1162002 1.0982365e-21)
(55.597923 -0.86029811 1.1831609e-25)
(55.736504 -0.61059924 3.5524818e-20)
(55.861238 -0.3677955 1.8004877e-20)
(55.9726 -0.13273477 -1.7246453e-20)
(56.071169 0.093774454 -1.1875887e-21)
(56.157522 0.31085145 0)
(56.232096 0.51740202 2.1287391e-20)
(56.294929 0.71193024 0)
(56.345077 0.89209537 5.2901907e-20)
(56.379144 1.0537069 3.0430588e-25)
(56.387063 1.1890352 3.8593348e-20)
(56.34259 1.2810245 -4.8302429e-20)
(56.221452 1.306038 0)
(56.088871 1.2919968 -5.8436353e-20)
(56.001718 1.2805307 6.2128561e-20)
(55.942654 1.2696508 -6.5103977e-20)
(55.893175 1.2564958 5.3542403e-21)
(55.845866 1.2404104 2.2173751e-25)
(55.798293 1.2213855 -1.7337842e-21)
(55.749668 1.1994632 0)
(55.700199 1.1754528 1.076238e-19)
(55.649389 1.1487409 -1.655451e-21)
(55.596695 1.1206694 1.6289848e-21)
(55.542468 1.0902013 -1.0097732e-19)
(55.486949 1.0582044 -1.5766159e-21)
(55.430366 1.0254806 1.7571095e-24)
(55.372738 0.99239 9.7588386e-20)
(55.314112 0.95933268 1.4426389e-24)
(55.254626 0.9262543 -9.4310503e-20)
(55.194292 0.89346611 0)
(55.133099 0.86124021 -1.4232276e-21)
(55.07115 0.8297766 -8.8093179e-20)
(55.008445 0.79914341 8.7913472e-20)
(54.945057 0.76942248 0)
(54.881335 0.74090989 -1.3251829e-21)
(54.8177 0.71364711 -5.2926326e-25)
(54.753882 0.68780258 1.2777158e-21)
(54.689549 0.66323289 -6.3921711e-25)
(54.624819 0.64014772 0)
(54.559713 0.61859867 -1.5595035e-19)
(54.494562 0.5986821 1.5307292e-19)
(54.429601 0.58043987 1.4907261e-19)
(54.364885 0.56367113 -1.4515625e-19)
(54.300465 0.5481667 -1.4356662e-19)
(54.236358 0.53347902 -1.1005558e-21)
(54.172704 0.51896738 1.3822448e-19)
(54.109566 0.50411424 -1.3455611e-19)
(54.046989 0.48817486 -2.0788847e-21)
(53.986322 0.47083317 5.1186737e-25)
(53.927881 0.4520341 1.0003127e-21)
(53.869681 0.43011898 -1.2608859e-19)
(53.812059 0.40503483 4.8054224e-22)
(53.755002 0.37655203 0)
(53.701254 0.34523289 0)
(53.64991 0.31137913 -4.645189e-19)
(53.599344 0.27782364 -2.2845549e-19)
(53.548734 0.24329069 2.2318046e-19)
(53.501018 0.21152337 -2.1887957e-19)
(53.457322 0.18416992 -4.2007402e-22)
(53.416459 0.16143847 -2.1010732e-19)
(53.377956 0.14366481 2.0686045e-19)
(53.341837 0.13356315 -2.0325862e-19)
(53.306811 0.12276698 -1.9344692e-19)
(53.270629 0.11904714 1.9489172e-19)
(53.232591 0.11235486 1.8683481e-22)
(53.205763 0.11604309 -3.4800065e-19)
(53.209 0.098796208 0)
(53.209948 0.085972779 -8.8077224e-23)
(53.207049 0.041900317 3.743155e-23)
(53.167105 0.020196021 4.2354604e-23)
(53.063744 -0.0137909 -1.0184571e-19)
(45.08221 -8.9744898 -6.2535242e-21)
(45.472603 -8.8161642 0)
(45.862887 -8.6487079 0)
(46.252427 -8.4725262 5.921496e-21)
(46.640776 -8.2878786 -5.8164409e-21)
(47.027549 -8.0950558 0)
(47.41238 -7.8943668 7.0212837e-21)
(47.794906 -7.6861331 -6.9023295e-21)
(48.174761 -7.4706883 5.431745e-21)
(48.551566 -7.2483779 5.3446477e-21)
(48.924932 -7.0195581 1.3156921e-21)
(49.294459 -6.7845958 5.1835418e-21)
(49.659729 -6.5438676 3.2582604e-25)
(50.020307 -6.2977592 -6.2969355e-21)
(50.375744 -6.0466655 0)
(50.72557 -5.7909895 0)
(51.069298 -5.5311427 -1.2122263e-21)
(51.406421 -5.2675448 1.1979751e-21)
(51.736413 -5.0006239 0)
(52.058728 -4.7308169 -8.209352e-21)
(52.372805 -4.4585701 -1.1611979e-21)
(52.678063 -4.1843409 9.2050373e-21)
(52.97391 -3.9085987 0)
(53.259746 -3.6318271 -9.0504528e-21)
(53.534967 -3.3545264 -1.7961665e-20)
(53.798973 -3.0772163 1.003073e-20)
(54.051183 -2.8004388 -9.9631204e-21)
(54.291043 -2.5247614 1.1003123e-21)
(54.518046 -2.25078 -1.0939547e-21)
(54.731748 -1.9791219 0)
(54.931795 -1.7104475 0)
(55.117942 -1.4454528 -1.731663e-20)
(55.290083 -1.184861 0)
(55.448259 -0.92942661 1.2292946e-25)
(55.592573 -0.67979398 -3.6064701e-20)
(55.723331 -0.4366626 -1.6603809e-20)
(55.840963 -0.2008831 0)
(55.946045 0.026761708 0)
(56.039205 0.24544593 0)
(56.121004 0.45418562 2.078072e-20)
(56.191734 0.65166526 0)
(56.250983 0.83587177 -2.5600844e-20)
(56.296513 1.0031908 3.043085e-25)
(56.320759 1.1470288 0)
(56.300816 1.2523532 0)
(56.204973 1.291051 -3.4282721e-21)
(56.079562 1.2794188 3.6111918e-21)
(55.993058 1.2671201 5.7913227e-20)
(55.935068 1.2557992 1.1465908e-19)
(55.887128 1.2422777 0)
(55.841457 1.2258561 0)
(55.795476 1.2065043 -3.4353103e-21)
(55.748367 1.1843074 3.3831662e-21)
(55.700213 1.1596891 -1.0660399e-19)
(55.650569 1.1328976 0)
(55.59906 1.1047954 -1.6135619e-21)
(55.546008 1.0742378 1.0318407e-19)
(55.491411 1.0421987 0)
(55.435527 1.0092452 1.950321e-19)
(55.378466 0.97601596 1.5082962e-21)
(55.320361 0.94275371 9.5011204e-20)
(55.261347 0.90950403 9.3391098e-20)
(55.201384 0.87666926 9.1782687e-20)
(55.14049 0.84444665 8.8780021e-20)
(55.078794 0.81301421 2.7690873e-21)
(55.016309 0.78242754 -1.7545496e-19)
(54.953083 0.75279823 -1.3359809e-21)
(54.889469 0.7243521 -7.4432803e-26)
(54.825897 0.69721188 -8.1169823e-20)
(54.762144 0.67158312 0)
(54.69785 0.64722723 -1.2427343e-21)
(54.633119 0.6244216 1.2192464e-21)
(54.567972 0.60315975 3.0639563e-19)
(54.502731 0.58353718 -4.222435e-25)
(54.437643 0.5655896 0)
(54.372775 0.54916629 0)
(54.308188 0.53404924 0)
(54.243925 0.51975455 0)
(54.180108 0.50562276 0)
(54.116814 0.49116518 0)
(54.054016 0.47565321 1.3170903e-19)
(53.993026 0.45865104 1.3021893e-19)
(53.934293 0.44023922 -1.9804539e-21)
(53.875904 0.41887518 9.7197574e-22)
(53.81807 0.39430721 -1.2195312e-19)
(53.760799 0.3663048 0)
(53.706854 0.33547021 4.5827362e-22)
(53.655232 0.302175 1.442039e-24)
(53.604466 0.26918632 -2.2569968e-19)
(53.553745 0.23540173 -2.8660703e-26)
(53.505706 0.20399635 2.1666169e-19)
(53.461838 0.17759882 4.1581205e-22)
(53.420816 0.15477942 2.0879158e-19)
(53.382076 0.13780333 -2.0516097e-19)
(53.34604 0.12824393 2.0080275e-19)
(53.311054 0.11818353 3.6567258e-19)
(53.274812 0.11473379 -3.7714721e-22)
(53.236081 0.10848102 1.8493465e-22)
(53.209449 0.11261449 1.7479513e-19)
(53.213284 0.095849285 0)
(53.21504 0.083666795 1.7854827e-19)
(53.211861 0.040617636 0)
(53.170311 0.019226976 0)
(53.063168 -0.013609556 1.1613888e-19)
(44.925556 -8.7982785 1.2056086e-20)
(45.309201 -8.6528488 5.9279887e-21)
(45.693266 -8.4981467 7.2876671e-21)
(46.07713 -8.3344919 -1.4331271e-21)
(46.46034 -8.1621243 4.2291655e-21)
(46.842499 -7.9813242 -4.1605777e-21)
(47.22323 -7.7923853 -6.8223025e-21)
(47.602157 -7.5956098 -3.3251585e-25)
(47.978899 -7.391311 -9.2567732e-21)
(48.353068 -7.1798145 5.2104943e-21)
(48.724259 -6.9614578 5.1347587e-21)
(49.092057 -6.73659 -3.7967655e-21)
(49.456032 -6.5055719 -1.2482568e-21)
(49.815735 -6.268775 1.2322579e-21)
(50.170701 -6.0265814 -1.2165097e-21)
(50.520449 -5.7793835 -4.8083539e-21)
(50.864475 -5.527584 0)
(51.202261 -5.2715953 1.1754945e-21)
(51.533267 -5.0118401 -1.0468556e-20)
(51.856937 -4.7487517 -9.2140962e-21)
(52.172694 -4.4827747 0)
(52.479952 -4.2143662 9.0480474e-21)
(52.778108 -3.943997 -1.121729e-21)
(53.066554 -3.6721538 1.0014997e-20)
(53.34468 -3.3993413 1.1046956e-21)
(53.611883 -3.1260851 -9.871656e-21)
(53.867577 -2.8529343 1.743551e-20)
(54.111208 -2.5804646 0)
(54.342267 -2.3092813 0)
(54.560311 -2.0400213 7.5051302e-21)
(54.764984 -1.7733544 1.0680721e-21)
(54.95604 -1.5099828 8.5254086e-21)
(55.133362 -1.250628 -8.5218942e-21)
(55.296958 -0.99602177 1.3891803e-25)
(55.446933 -0.74682702 1.827498e-20)
(55.583583 -0.50376672 -1.0875985e-21)
(55.707344 -0.26765142 0)
(55.818788 -0.039246838 -1.8277078e-20)
(55.918575 0.18066066 0)
(56.007365 0.39117662 -2.0272662e-20)
(56.085661 0.59114112 2.205717e-20)
(56.153503 0.77883015 2.6305633e-20)
(56.209646 0.95118609 2.531628e-20)
(56.248881 1.1025566 4.4323687e-21)
(56.25256 1.2207061 -2.8028536e-21)
(56.184425 1.2747667 0)
(56.069537 1.2675968 6.0669606e-20)
(55.984196 1.254378 -1.182919e-19)
(55.927288 1.2425443 -5.6791151e-20)
(55.880879 1.2285986 0)
(55.836851 1.2117809 0)
(55.792472 1.1920448 3.4027852e-21)
(55.74689 1.1695171 4.0266922e-25)
(55.700042 1.1444869 -1.0888326e-19)
(55.651538 1.1180423 -1.0392636e-19)
(55.601259 1.0889814 -1.0226839e-19)
(55.549357 1.0583335 1.5721885e-21)
(55.495695 1.0262162 9.742003e-20)
(55.440537 0.99318061 -9.7329608e-20)
(55.384069 0.95975298 -1.7401494e-24)
(55.326507 0.92622192 9.2610311e-20)
(55.267948 0.89279185 1.4448541e-21)
(55.208345 0.85987915 -9.0881355e-20)
(55.147755 0.8276168 -9.0696676e-20)
(55.086324 0.79614767 -8.773503e-20)
(55.024063 0.76557962 1.3474568e-21)
(54.961009 0.73601226 0)
(54.897512 0.70761495 -8.4434437e-20)
(54.833997 0.68060135 8.1636764e-20)
(54.77031 0.65519053 1.2524145e-21)
(54.706063 0.63105428 -7.3363887e-25)
(54.641336 0.6085181 1.5450604e-19)
(54.576157 0.58753767 -5.1934232e-25)
(54.510836 0.56821889 -1.488604e-19)
(54.445625 0.55057741 -1.1414231e-21)
(54.380606 0.5345061 1.1201007e-21)
(54.315857 0.51975966 1.0992118e-21)
(54.251444 0.50585744 -1.078524e-21)
(54.187471 0.4921107 1.354542e-19)
(54.124021 0.47803886 0)
(54.061038 0.46296049 -2.6075483e-19)
(53.999698 0.44632169 0)
(53.940667 0.42827351 -9.8019983e-22)
(53.882089 0.40745736 2.4806334e-19)
(53.824051 0.38342749 -9.4309897e-22)
(53.766577 0.35591432 -4.6249883e-22)
(53.712434 0.32557744 4.5364217e-22)
(53.660533 0.29285797 2.2779508e-19)
(53.609559 0.26044202 1.3997673e-24)
(53.558749 0.22738717 0)
(53.510372 0.19648065 0)
(53.466387 0.17073229 0)
(53.42518 0.14816464 2.0666319e-19)
(53.386187 0.13186476 3.9584239e-22)
(53.350208 0.12284485 -3.8819638e-22)
(53.315323 0.11350089 -1.9171005e-19)
(53.279017 0.11042014 0)
(53.239628 0.10457279 0)
(53.213138 0.10911534 1.7532251e-19)
(53.21758 0.092891179 1.802368e-19)
(53.220118 0.081376627 -1.7672525e-19)
(53.216669 0.039410186 0)
(53.173504 0.018425185 0)
(53.062591 -0.013355317 -1.3130724e-19)
(44.780545 -8.6115038 -5.8051718e-21)
(45.157029 -8.4786958 -5.7170352e-21)
(45.534384 -8.3365786 6.1600742e-25)
(45.912062 -8.1853402 0)
(46.289622 -8.0251962 -5.4598463e-21)
(46.666658 -7.8564082 1.2099991e-20)
(47.04278 -7.679248 -6.6221285e-21)
(47.4176 -7.4939951 -3.9151869e-21)
(47.790724 -7.3009404 3.8590862e-21)
(48.16175 -7.1003876 3.3115977e-25)
(48.530264 -6.8926537 -3.7533033e-21)
(48.895837 -6.6780685 3.7042475e-21)
(49.258026 -6.4569751 4.8763054e-21)
(49.616371 -6.2297288 0)
(49.970395 -5.9966976 1.1900887e-21)
(50.319602 -5.7582614 2.3529755e-21)
(50.663478 -5.514812 4.6551423e-21)
(51.001491 -5.266753 -2.7631375e-25)
(51.33309 -5.0145 1.1403037e-21)
(51.657706 -4.7584812 9.0398719e-21)
(51.974755 -4.4991377 -1.1201479e-21)
(52.283638 -4.2369248 -1.7770525e-20)
(52.583746 -3.9723134 1.1017016e-21)
(52.874463 -3.7057915 1.0936748e-21)
(53.155174 -3.4378671 1.5200801e-20)
(53.425271 -3.16907 1.0783556e-21)
(53.684166 -2.8999549 -8.5734368e-21)
(53.931303 -2.6311043 -8.5230891e-21)
(54.166171 -2.3631304 0)
(54.388328 -2.0966774 -8.4383827e-21)
(54.597415 -1.8324208 0)
(54.793181 -1.5710645 -7.3381505e-21)
(54.975495 -1.3133253 7.3346167e-21)
(55.144341 -1.0599228 7.3505113e-21)
(55.299815 -0.81155219 1.0563896e-21)
(55.442204 -0.56894654 3.5259156e-20)
(55.57194 -0.33288039 -1.8499411e-20)
(55.689585 -0.10410253 1.7904475e-20)
(55.795818 0.11663005 0)
(55.891373 0.3284938 1.2352203e-21)
(55.976925 0.53046128 -2.1421335e-20)
(56.052886 0.72105841 -2.3925292e-20)
(56.118841 0.89774072 -1.7368593e-21)
(56.171616 1.0557245 2.1170049e-21)
(56.197177 1.1854256 -2.6833757e-21)
(56.15886 1.2564102 0)
(56.058544 1.2564956 -5.6370369e-20)
(55.975131 1.2423618 1.6813928e-24)
(55.919343 1.2299176 -5.6252354e-20)
(55.874458 1.2154869 0)
(55.832075 1.1982086 0)
(55.789301 1.1780218 5.3922686e-20)
(55.745234 1.1550826 3.3194029e-21)
(55.699687 1.1296185 1.0457476e-19)
(55.652408 1.1023864 3.0087365e-24)
(55.603326 1.0732368 1.9939849e-19)
(55.552514 1.0424973 -1.0119534e-19)
(55.499779 1.0103206 -9.6474235e-20)
(55.44539 0.97718167 0)
(55.389563 0.94348987 -1.8804384e-19)
(55.332547 0.90970175 -9.3157555e-20)
(55.274425 0.87609867 -1.4306187e-21)
(55.215179 0.84306149 0)
(55.154904 0.81069835 0)
(55.093739 0.77915556 8.6865287e-20)
(55.031702 0.74859667 8.5329073e-20)
(54.968831 0.71906814 0)
(54.905456 0.69070998 8.3592311e-20)
(54.841987 0.66382884 -8.3346857e-20)
(54.778369 0.63862084 2.4798111e-21)
(54.714178 0.61470843 -1.5824655e-19)
(54.649462 0.59243689 -1.5175949e-19)
(54.584259 0.57173975 -5.5496399e-25)
(54.518866 0.55273389 0)
(54.45354 0.53540678 1.4462398e-19)
(54.388373 0.51967833 -1.1088446e-21)
(54.323464 0.50528228 1.0880382e-21)
(54.258907 0.4917728 0)
(54.194788 0.47842689 -3.8394643e-25)
(54.131178 0.46474058 1.0277289e-21)
(54.068032 0.45009673 -2.0159908e-21)
(54.006402 0.43381302 9.8906186e-22)
(53.946998 0.41613269 -1.2418922e-19)
(53.888202 0.39585003 -1.2086614e-19)
(53.829994 0.37238417 -1.8669627e-21)
(53.772331 0.34537401 4.5782092e-22)
(53.71799 0.31554451 4.490154e-22)
(53.665814 0.28341719 0)
(53.61462 0.25157431 2.2112487e-19)
(53.563735 0.21923109 4.2354086e-22)
(53.515037 0.18894976 -4.1540165e-22)
(53.470941 0.16353711 2.0898289e-19)
(53.42955 0.14165493 -2.0534904e-19)
(53.390263 0.12584845 3.9180065e-22)
(53.354328 0.11736757 -1.9710367e-19)
(53.319543 0.10870504 3.7678199e-22)
(53.283251 0.1061188 0)
(53.243225 0.10063106 0)
(53.216841 0.1055608 -3.5162769e-19)
(53.22187 0.089917054 -7.2794647e-23)
(53.225178 0.079103936 1.7081406e-22)
(53.221463 0.038266475 -7.2883929e-23)
(53.176692 0.017787946 -1.682602e-19)
(53.062035 -0.013026575 1.4355401e-19)
(44.279701 -8.5262192 -5.6736905e-21)
(44.647193 -8.4153424 0)
(45.01614 -8.2948478 0)
(45.386336 -8.1650628 5.8203402e-25)
(45.757372 -8.026056 0)
(46.128817 -7.8780107 5.2818284e-21)
(46.500259 -7.7211574 4.5522678e-25)
(46.871293 -7.5557391 5.1363927e-21)
(47.241521 -7.3820089 5.0670056e-21)
(47.610539 -7.2002332 -1.2501675e-21)
(47.977935 -7.0106924 -3.7015284e-21)
(48.343283 -6.8136814 0)
(48.706145 -6.6095092 0)
(49.066068 -6.3984996 -9.5132321e-21)
(49.42258 -6.1809904 0)
(49.775194 -5.9573336 -1.1627859e-21)
(50.123401 -5.7278948 -2.7265822e-25)
(50.466678 -5.4930534 2.2776212e-21)
(50.80448 -5.2532024 2.6531662e-25)
(51.136247 -5.0087488 6.7042045e-21)
(51.4614 -4.7601136 1.107447e-21)
(51.779345 -4.507733 0)
(52.089474 -4.2520588 1.6344066e-20)
(52.39117 -3.9935603 1.081263e-21)
(52.683811 -3.7327257 0)
(52.966778 -3.4700643 -6.5396055e-26)
(53.239457 -3.2061087 -9.534727e-21)
(53.50126 -2.9414177 -2.3341126e-25)
(53.751627 -2.6765782 8.3753028e-21)
(53.990047 -2.4122078 -7.2903548e-21)
(54.216076 -2.148955 0)
(54.429351 -1.8874984 0)
(54.629613 -1.6285413 9.2730098e-21)
(54.816717 -1.3727979 -9.2664166e-21)
(54.990625 -1.1209857 -1.0316954e-21)
(55.151423 -0.87382343 1.0372834e-21)
(55.299387 -0.63205116 -1.782276e-20)
(55.434933 -0.39641851 1.8133821e-20)
(55.558614 -0.16765932 -1.6429413e-20)
(55.671112 0.053491507 -1.1385662e-21)
(55.773215 0.26626469 1.2032822e-21)
(55.865733 0.46974291 -1.2992629e-21)
(55.949377 0.66266373 2.3102941e-20)
(56.024406 0.84293632 -2.83333e-20)
(56.089342 1.0065675 2.0181885e-21)
(56.134782 1.1462079 -4.0923678e-20)
(56.127192 1.2350748 0)
(56.04603 1.2460652 -5.5562344e-20)
(55.965843 1.2311285 1.1244231e-19)
(55.911246 1.2179415 1.0795301e-19)
(55.867882 1.2029615 -5.1553262e-20)
(55.827146 1.1851544 0)
(55.785983 1.1644477 -5.3409002e-20)
(55.743423 1.1410234 3.2875623e-21)
(55.69918 1.1150799 -3.2362388e-21)
(55.653154 1.0877118 2.0386472e-19)
(55.605276 1.0574867 -2.5717154e-24)
(55.55545 1.0267031 3.0859862e-21)
(55.503654 0.99443291 3.0638027e-25)
(55.450089 0.96109228 9.3941273e-20)
(55.394939 0.9272225 2.0288192e-24)
(55.338462 0.89316016 -1.441148e-21)
(55.280774 0.8593775 1.4165786e-21)
(55.221891 0.82616183 -9.0481591e-20)
(55.161936 0.79367431 0)
(55.101034 0.7620287 0)
(55.03922 0.73146398 0)
(54.976544 0.70195889 -8.1673277e-20)
(54.913291 0.67364628 -2.5462773e-21)
(54.84986 0.64688842 8.1259322e-20)
(54.786314 0.62187761 -1.2274706e-21)
(54.722186 0.59817533 -6.6309254e-26)
(54.657486 0.57616918 -6.4350071e-26)
(54.592268 0.55576119 -1.4745906e-19)
(54.526812 0.53707221 -1.4586894e-19)
(54.46138 0.52006126 -1.431592e-19)
(54.396072 0.50466352 0)
(54.331006 0.49061139 0)
(54.266304 0.47748468 0)
(54.202048 0.46455655 -2.6543463e-19)
(54.138282 0.451278 1.017261e-21)
(54.07498 0.43705478 1.2674013e-19)
(54.013073 0.42116242 1.2530941e-19)
(53.953285 0.40381682 1.2292155e-19)
(53.894257 0.38405205 0)
(53.835896 0.36116541 0)
(53.778057 0.33467053 1.1599589e-19)
(53.723519 0.30535586 0)
(53.671065 0.27383206 -4.3584465e-22)
(53.619656 0.24256644 4.2747002e-22)
(53.568691 0.21091828 0)
(53.519723 0.18134989 -2.1008457e-19)
(53.475482 0.15605985 -2.0683807e-19)
(53.433902 0.13529598 0)
(53.394317 0.11974724 -1.9853718e-19)
(53.358397 0.1118171 5.9754439e-25)
(53.323734 0.10381032 -1.907416e-19)
(53.287336 0.10191121 -1.8283691e-22)
(53.246875 0.096681666 -1.8360857e-19)
(53.220559 0.1019726 3.1870502e-19)
(53.226192 0.086942745 -3.529336e-19)
(53.230215 0.076842605 -1.5392005e-22)
(53.226235 0.037177089 1.4792521e-19)
(53.179879 0.017307823 4.0538805e-23)
(53.061542 -0.012627439 1.4219787e-19)
(44.166246 -8.3099822 1.3625666e-21)
(44.525395 -8.2109584 5.3768328e-21)
(44.886417 -8.1024964 0)
(45.249117 -7.9847377 -3.9278642e-21)
(45.613131 -7.8577186 -1.2923912e-21)
(45.978049 -7.7215813 -5.1035332e-21)
(46.343459 -7.5765167 -1.1337391e-20)
(46.708957 -7.4227347 1.2436953e-21)
(47.074134 -7.2604598 4.9138158e-21)
(47.438581 -7.0899321 4.8539682e-21)
(47.801877 -6.9114074 4.7961205e-21)
(48.163588 -6.725157 -1.1851986e-21)
(48.523269 -6.5314682 2.3433417e-21)
(48.880456 -6.3306439 2.3175783e-21)
(49.23467 -6.1230029 -3.4399162e-21)
(49.585412 -5.9088794 1.1349942e-21)
(49.932167 -5.6886235 -1.1235917e-21)
(50.274399 -5.4626002 -4.4525074e-21)
(50.611557 -5.2311905 0)
(50.943069 -4.9947907 0)
(51.268347 -4.7538133 9.761334e-21)
(51.586789 -4.5086876 7.5324744e-21)
(51.89778 -4.2598604 -1.7087599e-20)
(52.200697 -4.0077978 0)
(52.494911 -3.7529862 0)
(52.779797 -3.4959348 -8.3696706e-21)
(53.05474 -3.2371774 1.1391261e-25)
(53.319148 -2.9772748 0)
(53.572461 -2.7168169 -1.0279383e-21)
(53.814165 -2.4564242 9.2032167e-21)
(54.043813 -2.1967476 0)
(54.261039 -1.9384665 -1.0143045e-21)
(54.465573 -1.6822833 1.0115429e-21)
(54.657253 -1.4289118 7.0757918e-21)
(54.836026 -1.1790726 1.0123961e-21)
(55.001966 -0.93349961 -1.017774e-21)
(55.155331 -0.6929367 1.0276862e-21)
(55.296519 -0.45812004 1.7759675e-20)
(55.426065 -0.22977247 1.4997378e-20)
(55.544651 -0.0086127588 -1.289883e-25)
(55.653094 0.20462892 -1.1340348e-25)
(55.752311 0.40912373 -9.8049711e-26)
(55.843244 0.60378551 -4.3193917e-20)
(55.926687 0.78691046 3.9182313e-25)
(56.002524 0.95521988 -1.9209553e-21)
(56.065491 1.1031125 4.3714196e-20)
(56.08711 1.209926 -3.0583319e-21)
(56.030972 1.2358057 5.1260912e-20)
(55.956266 1.2206826 -5.2164768e-20)
(55.903018 1.2066332 -5.1735443e-20)
(55.861175 1.1910397 -3.4022133e-21)
(55.82209 1.1726332 5.3690108e-20)
(55.78254 1.1513351 0)
(55.741487 1.127338 0)
(55.698595 1.1008607 -1.025625e-19)
(55.653828 1.0720646 -2.018851e-19)
(55.607031 1.0426327 -2.6573157e-24)
(55.558205 1.0112488 9.7705447e-20)
(55.507371 0.97853267 0)
(55.454631 0.94497336 -1.8898665e-19)
(55.400167 0.91088105 9.4355543e-20)
(55.344247 0.87655308 -2.8538572e-21)
(55.286995 0.84255532 1.4023848e-21)
(55.228479 0.80916952 8.9581646e-20)
(55.168844 0.77652922 8.5308305e-20)
(55.108202 0.74479612 -1.3303327e-21)
(55.046609 0.71419891 -8.1015429e-20)
(54.984134 0.68470488 7.9570201e-20)
(54.921005 0.65644406 1.2602862e-21)
(54.857605 0.62979756 -7.920323e-20)
(54.794136 0.60495206 0)
(54.730078 0.58146859 1.1928632e-21)
(54.665396 0.55973204 -1.1708844e-21)
(54.600172 0.53961677 -1.4711184e-19)
(54.534663 0.52124342 2.8877463e-19)
(54.469136 0.50455089 0)
(54.403694 0.4894796 1.0864186e-21)
(54.338476 0.47576853 1.3538651e-19)
(54.273631 0.4630099 1.0460183e-21)
(54.209242 0.45049289 -2.0521261e-21)
(54.145328 0.43764276 1.0068198e-21)
(54.081874 0.42382275 -1.2643014e-19)
(54.01967 0.40834988 -9.6947291e-22)
(53.959534 0.39132936 1.2261117e-19)
(53.900333 0.3720976 9.323004e-22)
(53.841751 0.3497564 -1.8288983e-21)
(53.783751 0.32378276 -1.1480487e-19)
(53.729019 0.29499635 4.3987228e-22)
(53.676294 0.26408842 4.3138824e-22)
(53.624669 0.23339818 -2.1660465e-19)
(53.573612 0.20243018 0)
(53.524429 0.17361989 4.0800881e-22)
(53.480005 0.14838827 -1.9689527e-26)
(53.438234 0.12909577 -3.9134027e-22)
(53.398409 0.11352796 3.9336322e-19)
(53.362522 0.10620508 3.8500189e-19)
(53.327902 0.09882373 3.7791588e-19)
(53.291375 0.097802518 1.8529198e-19)
(53.250579 0.09271698 1.8171208e-19)
(53.224332 0.09832873 -1.2892898e-19)
(53.230503 0.08395269 1.7455843e-19)
(53.235231 0.074600021 1.2718502e-19)
(53.230979 0.036134462 -1.4658968e-19)
(53.183064 0.016974315 3.295271e-19)
(53.061131 -0.012158524 -1.4095049e-19)
(44.064434 -8.0873498 -6.5385691e-21)
(44.414972 -7.9998369 -3.8742034e-21)
(44.767805 -7.90299 0)
(45.122712 -7.7968821 6.3059595e-21)
(45.479365 -7.6815277 -4.9852974e-21)
(45.83738 -7.5570261 -4.9271666e-21)
(46.19636 -7.4235254 2.4349074e-21)
(46.555903 -7.2811989 1.2034825e-21)
(46.9156 -7.13024 -1.0710315e-20)
(47.275035 -6.9708602 -8.2377486e-21)
(47.633784 -6.8032891 -4.6558297e-21)
(47.991408 -6.627773 3.454807e-21)
(48.347453 -6.4445759 1.1395441e-21)
(48.70145 -6.2539787 -4.512896e-21)
(49.052912 -6.0562794 4.4687434e-21)
(49.401334 -5.8517935 -5.5336007e-21)
(49.746191 -5.6408533 -2.4877054e-25)
(50.086941 -5.4238084 6.5224334e-21)
(50.423024 -5.2010256 7.5458658e-21)
(50.75386 -4.9728891 0)
(51.078853 -4.7398011 -9.5496477e-21)
(51.397396 -4.5021823 -2.4042352e-25)
(51.708865 -4.2604729 9.4120467e-21)
(52.012631 -4.0151338 -7.2708271e-21)
(52.308061 -3.7666481 7.2238e-21)
(52.594526 -3.5155232 -8.2041654e-21)
(52.87141 -3.2622921 8.1552757e-21)
(53.138115 -3.007516 -8.1086294e-21)
(53.394081 -2.7517859 0)
(53.638792 -2.4957231 -1.0032001e-21)
(53.871798 -2.2399793 9.9852017e-22)
(54.092726 -1.9852335 8.9544798e-21)
(54.301296 -1.7321869 -1.9847592e-21)
(54.497332 -1.4815546 1.9828649e-21)
(54.680764 -1.234062 1.856686e-25)
(54.851657 -0.99045166 -9.9736071e-22)
(55.010242 -0.75147011 1.6106516e-20)
(55.156897 -0.51784802 -1.6356532e-20)
(55.292138 -0.29030217 -1.6748631e-20)
(55.416636 -0.069540535 1.7343437e-20)
(55.531225 0.1437324 0)
(55.636896 0.34875607 0)
(55.734768 0.54458928 2.1498647e-20)
(55.82604 0.72985312 4.3072652e-25)
(55.911635 0.9019324 -2.9210757e-20)
(55.989461 1.056702 0)
(56.038523 1.1797236 -4.6883061e-20)
(56.012908 1.2242324 -5.3652847e-20)
(55.946219 1.2110374 3.4399957e-21)
(55.894669 1.1960075 -3.4154186e-21)
(55.854366 1.1797368 1.0788904e-19)
(55.816931 1.1606599 -5.6499686e-20)
(55.778998 1.1386999 5.2384317e-20)
(55.73945 1.1140744 3.223974e-21)
(55.697912 1.0869993 2.0313493e-19)
(55.654343 1.058676 1.9991601e-19)
(55.608676 1.0272834 -1.9669838e-19)
(55.560846 0.99557983 0)
(55.510942 0.96256606 -2.973488e-21)
(55.459004 0.92887733 2.9258044e-21)
(55.405254 0.89443339 -9.4854593e-20)
(55.349901 0.85986631 2.8253306e-21)
(55.293075 0.82567301 0)
(55.234929 0.79209149 0)
(55.175618 0.75928349 -1.7158792e-19)
(55.115236 0.72744713 0)
(55.053864 0.69678486 1.0636553e-24)
(54.99159 0.66729666 8.1307481e-20)
(54.928587 0.63911822 1.2476276e-21)
(54.865224 0.61255498 -1.2249809e-21)
(54.801828 0.58784053 -1.5394793e-19)
(54.737841 0.56457197 0)
(54.673182 0.54310247 0)
(54.607963 0.52328052 1.4561419e-19)
(54.54241 0.50522204 -1.4291497e-19)
(54.4768 0.48886367 1.4025537e-19)
(54.411232 0.47412585 -1.3763585e-19)
(54.345868 0.4607484 -2.7011193e-19)
(54.280884 0.44835575 0)