/*--------------------------------*- C++ -*----------------------------------*\
| =========                 |                                                 |
| \\      /  F ield         | OpenFOAM: The Open Source CFD Toolbox           |
|  \\    /   O peration     | Version:  2406                                  |
|   \\  /    A nd           | Website:  www.openfoam.com                      |
|    \\/     M anipulation  |                                                 |
\*---------------------------------------------------------------------------*/
FoamFile
{
    version     2.0;
    format      ascii;
    arch        "LSB;label=32;scalar=64";
    class       volScalarField;
    location    "0.1";
    object      k;
}
// * * * * * * * * * * * * * * * * * * * * * * * * * * * * * * * * * * * * * //

dimensions      [0 2 -2 0 0 0 0];

internalField   nonuniform List<scalar> 
2065
(
207.6901
212.22952
216.05923
219.31455
221.90638
224.08567
226.00917
227.50939
228.34686
228.22967
227.41267
225.40166
223.19474
221.62372
221.22063
221.59272
222.29073
222.33988
221.95848
221.43757
220.8492
220.13326
217.18271
207.92651
192.18618
173.7055
154.85359
136.57183
118.70416
103.07685
93.222081
89.168983
87.014799
83.133776
74.275532
62.018528
52.198734
47.552933
46.53556
45.999591
43.844739
40.74039
39.604673
39.751154
40.610784
41.348717
41.919515
42.463257
42.923909
42.954892
42.882417
42.269894
41.622209
40.173486
39.185847
36.995951
35.789293
32.258526
144.95118
155.16678
164.50347
173.43189
182.0147
190.18234
197.79036
204.22223
209.21332
212.46514
213.62557
213.08315
211.92371
211.97227
213.0617
216.00676
219.60563
222.74632
225.44028
227.75842
228.50222
227.57728
222.42821
209.25271
191.06219
171.7415
153.16665
135.41447
118.32342
104.00061
94.973158
90.963262
88.362573
83.710996
74.050557
61.988197
52.89105
48.992631
48.460319
48.342698
46.802495
43.97192
42.947641
43.155874
44.100874
44.812777
45.288056
45.670169
45.95587
45.81029
45.582574
44.761149
44.007831
42.370987
41.306932
38.956583
37.695611
33.995832
83.784014
97.928784
112.39862
127.04919
141.79953
156.0272
169.33864
181.21368
190.94291
198.75976
204.04744
206.31742
206.13478
205.25365
205.56596
208.06184
213.47893
219.7078
225.43558
231.38683
235.37193
236.0558
233.57578
224.63951
207.52467
187.54289
168.20713
150.44794
133.62465
117.66359
104.67535
96.389551
92.319101
89.313346
84.102386
74.083933
62.331048
53.942813
50.758713
50.694985
51.086353
50.127954
47.624224
46.60066
46.814925
47.761156
48.398789
48.73815
48.925628
49.015711
48.667103
48.276665
47.224714
46.354435
44.525848
43.372652
40.856475
39.533315
35.665614
56.573858
67.037846
79.410543
93.230938
108.04124
123.3357
138.42644
152.9056
166.1255
177.59324
187.61219
194.80558
199.03376
200.79253
201.14625
202.30726
206.49881
214.27904
222.16449
231.17172
239.04055
242.89915
242.24793
236.68163
222.72604
202.58898
181.69757
163.18044
146.73224
131.23155
116.67566
105.01289
97.3961
93.25917
89.994514
84.560137
74.618143
63.249378
55.504857
52.970158
53.294303
54.291942
53.802207
51.68278
50.539864
50.704211
51.567616
52.084594
52.251155
52.215264
52.097537
51.511429
50.953758
49.6593
48.659994
46.637335
45.384162
42.69875
41.307462
37.273169
52.483402
60.637678
70.134005
81.109266
93.416745
106.74876
120.61761
134.4631
147.83517
160.45534
172.34998
181.721
189.17
194.41301
197.57111
201.11268
207.69967
217.51095
227.80246
238.81145
246.67712
248.54723
245.48424
235.26785
216.62025
194.55062
173.92665
156.9248
142.19229
128.32292
115.3634
104.97858
97.965454
93.855346
90.585276
85.35262
75.924037
64.967624
57.721685
55.705337
56.345816
57.944903
57.839036
56.095186
54.735792
54.789247
55.495284
55.846928
55.809036
55.524671
55.185732
54.335565
53.603496
52.062455
50.922188
48.703729
47.341477
44.485762
43.021582
38.82275
47.781059
53.425214
60.077789
67.820937
76.560792
86.219106
96.840832
108.21838
120.0775
132.19368
144.51758
156.81434
168.03115
178.33991
187.24875
194.41921
201.2541
210.75337
223.18203
234.88242
246.23235
251.79848
250.74209
244.28816
228.68881
206.69617
184.09715
164.9381
149.9013
137.11806
125.0488
113.75793
104.60701
98.146838
94.257671
91.316619
86.743196
78.243071
67.691493
60.718674
59.027469
59.896256
62.016641
62.235075
60.799334
59.156436
59.024271
59.521493
59.663449
59.396285
58.831841
58.26173
57.136276
56.21636
54.43054
53.138043
50.722872
49.244746
46.218352
44.678077
40.317712
46.397589
51.034275
56.149564
61.858455
68.228865
75.367316
83.144077
91.544582
100.57644
110.24121
120.6546
131.88664
143.78455
156.22282
168.58976
180.54608
191.60315
202.14332
214.69878
228.52776
240.75678
250.23757
252.49596
248.90886
237.45663
217.30282
193.9846
172.53927
155.71034
142.79631
131.93523
121.638
111.95376
103.93155
98.098724
94.684338
92.451933
88.935761
81.734927
71.559906
64.58851
62.975286
63.961168
66.465957
66.955496
65.735056
63.764422
63.3651
63.62073
63.518014
62.978469
62.12727
61.309454
59.906656
58.785507
56.757173
55.304087
52.692298
51.093516
47.896888
46.278622
41.760642
49.978381
54.3312
59.027281
64.123635
69.639631
75.62701
82.099899
89.011925
96.475825
104.5705
113.43036
123.30049
134.37555
146.83056
160.43904
174.70826
188.91947
202.58835
217.10578
231.14254
242.66106
249.29478
249.03297
241.56815
224.82941
202.77931
180.29447
161.586
147.48363
136.51113
127.2225
118.42506
110.13967
103.12806
98.043492
95.405475
94.24248
92.032548
86.436152
76.621598
69.35963
67.550461
68.528851
71.242034
71.93328
70.849766
68.515977
67.781671
67.763039
67.381058
66.536444
65.394857
64.316976
62.636134
61.303874
59.036044
57.416552
54.609333
52.886899
49.521456
47.82431
43.153483
53.347083
57.239155
61.396238
65.86507
70.678318
75.828548
81.372457
87.323966
93.883742
101.04209
108.97679
117.86344
128.02315
139.83672
153.60178
169.14372
185.29277
201.13806
216.29508
229.86994
240.00302
243.84937
239.86661
227.8871
208.92613
187.39836
167.94777
153.0488
141.76575
132.20351
123.73197
115.87757
108.62531
102.50317
98.275883
96.705016
96.873684
96.098786
92.171234
82.843202
75.000044
72.716228
73.561147
76.282475
77.100543
76.080695
73.369407
72.246061
71.922469
71.207342
70.061142
68.619148
67.272477
65.314436
63.764365
61.260991
59.471525
56.471201
54.623709
51.091847
49.315811
44.497645
53.017515
56.263975
59.618838
63.181774
67.00173
71.108418
75.52112
80.306691
85.522383
91.295015
97.744373
105.00875
113.26545
122.75706
133.988
147.23618
162.61009
179.18739
196.2582
211.5134
223.85128
231.51354
231.69621
225.14014
210.93877
192.39444
173.93574
159.20524
148.69868
139.82237
130.91606
122.35906
114.5983
107.85298
102.44659
99.177064
98.827162
100.52049
101.10984
98.609288
90.104409
81.425628
78.405875
78.994843
81.521148
82.390742
81.371654
78.274811
76.720069
76.057583
74.986697
73.534029
71.785158
70.164443
67.9317
66.160009
63.426084
61.465085
58.275107
56.302569
52.607646
50.753481
45.794081
55.793348
58.557281
61.394176
64.414971
67.676687
71.213649
75.051129
79.229458
83.831353
88.957607
94.739115
101.3377
108.90418
117.78324
128.35875
140.84401
155.22443
170.84175
187.01158
201.5114
212.06809
217.38502
215.69637
207.65896
193.8707
178.28611
164.89689
155.61013
149.06766
142.26627
133.38509
123.83087
115.26799
108.33884
103.31476
101.13664
101.79179
105.17858
107.07523
105.59043
98.08634
88.507579
84.536413
84.74203
86.89544
87.740945
86.670526
83.179689
81.167575
80.13792
78.701001
76.936979
74.878616
72.98185
70.4786
68.484107
65.525705
63.393408
60.018317
57.922015
54.068298
52.137442
47.043341
57.72193
60.083901
62.515953
65.135822
68.003396
71.158341
74.625639
78.418667
82.601157
87.255199
92.494538
98.471138
105.34106
113.4774
123.16666
134.56032
147.53253
161.54652
175.60395
188.32045
197.25394
200.98542
198.57855
190.86208
179.84681
169.16686
161.68023
157.48347
154.31609
149.2806
140.08541
128.82462
118.5392
110.61407
105.6328
104.3381
105.75351
110.70582
113.74313
112.99304
106.51409
96.093414
91.024967
90.682534
92.356256
93.093638
91.924894
88.035308
85.554618
84.137221
82.330665
80.253151
77.886162
75.714342
72.946463
70.730356
67.554616
65.252871
61.69822
59.480565
55.473161
53.46765
48.2456
58.49282
60.676456
62.924758
65.366025
68.061123
71.043094
74.341896
77.978434
81.990494
86.441834
91.419076
97.037528
103.41826
110.76156
119.2838
129.20739
140.45935
152.50688
164.41047
174.9688
182.3556
185.43271
183.49607
177.92892
171.30433
166.2502
164.19061
164.18429
163.54845
160.07842
150.74974
137.48861
124.84125
115.22276
109.72788
108.85957
110.77484
116.89627
120.86284
120.64933
115.13687
104.02584
97.784944
96.691756
97.859302
98.396955
97.083737
92.797042
89.84973
88.031667
85.857032
83.467105
80.795526
78.352391
75.327377
72.892965
69.508035
67.040126
63.312389
60.976776
56.821561
54.743957
49.400687
58.212534
60.426474
62.69116
65.147951
67.866407
70.889948
74.246005
77.948345
82.031478
86.540296
91.530748
97.064415
103.23803
110.16278
117.83459
126.42739
135.77375
145.73701
155.54658
164.23067
170.5225
173.64651
173.18291
170.92391
169.132
168.988
171.26999
174.41268
175.55956
173.31368
164.46459
149.44629
134.2231
122.34804
115.69804
114.68823
116.78957
123.53883
128.19818
128.3871
123.70995
112.16677
104.71034
102.70409
103.33278
103.60434
102.09812
97.42516
94.0243
91.79994
89.262928
86.564949
83.595679
80.887442
77.614281
74.966745
71.381687
68.752165
64.858636
62.409298
58.112834
55.96616
50.508084
56.680724
59.133606
61.630845
64.325165
67.297143
70.598751
74.263676
78.320798
82.802108
87.740587
93.162468
99.065417
105.41886
112.27301
119.50623
127.24892
135.12627
143.23929
151.19489
158.3203
163.95043
167.57789
169.06553
170.28584
172.25643
176.03
181.27776
186.48653
189.09349
187.77036
179.93729
163.90769
146.32339
131.89899
123.47606
121.70038
123.65239
130.43613
135.54236
136.04797
132.02808
120.37338
111.69674
108.66561
108.70848
108.67563
106.92134
101.88586
98.052891
95.423324
92.533045
89.534472
86.276959
83.312021
79.801045
76.947183
73.171859
70.386362
66.335048
63.776914
59.346364
57.134038
51.566307
56.787813
59.693394
62.801616
66.205028
69.976138
74.172641
78.844495
84.036925
89.783403
96.093547
102.93376
110.17623
117.66596
125.21736
132.46533
139.39609
146.10991
152.56612
158.51546
163.62501
167.69537
170.69573
174.57463
179.57525
185.49298
192.36437
198.93342
202.83114
202.36585
195.89313
179.89973
160.47186
143.50356
132.84543
129.68477
131.1698
137.42132
142.73126
143.47124
139.98131
128.46817
118.64361
114.53658
113.92152
113.57285
111.51177
106.15254
101.9135
98.885788
95.654191
92.365261
88.831167
85.619808
81.882513
78.830501
74.875435
71.940518
67.740028
65.078583
60.521614
58.247387
52.57384
53.428313
56.840504
60.474251
64.433461
68.814765
73.708769
79.197811
85.353932
92.220392
99.793979
108.01105
116.66762
125.49405
134.02191
141.69609
148.44743
154.38428
159.60846
164.24097
168.63922
172.68182
177.14584
182.87962
188.8926
195.58843
203.14396
210.58291
215.70337
216.21939
211.23607
196.38043
175.84065
156.60846
143.4749
138.39532
139.11114
144.36625
149.63406
150.52972
147.47317
136.30167
125.45886
120.26166
118.92815
118.25213
115.84757
110.20639
105.58773
102.17404
98.615448
95.048771
91.251615
87.805686
83.854538
80.613695
76.489931
73.412905
69.072322
66.313479
61.638156
59.306043
53.528965
49.176512
53.1013
57.298362
61.875656
66.949768
72.644656
79.0807
86.369995
94.570476
103.66597
113.55847
123.97046
134.52256
144.67235
153.6128
161.07993
167.0148
171.62043
175.29356
178.73955
182.40903
187.17197
192.80545
198.56334
205.03843
212.62217
220.61239
226.91063
228.72107
225.18117
212.29489
191.57508
170.57857
154.97055
147.6038
147.2017
151.19212
156.15282
157.12844
154.42756
143.74998
132.06157
125.78994
123.69626
122.67907
119.90819
114.03488
109.06076
105.27755
101.40824
97.578358
93.533145
89.865761
85.713995
82.29455
78.013517
74.802284
70.331039
67.481008
62.695693
60.309906
54.432466
48.585067
53.327904
58.542448
64.364267
70.935756
78.400555
86.912545
96.546918
107.27657
118.97186
131.32333
143.90098
156.08193
166.96105
175.9056
182.45678
186.9
189.79962
192.16917
194.97692
198.59524
202.94866
207.5424
213.06542
220.21106
228.54364
235.97785
239.37199
237.25651
226.78964
206.89162
184.78254
166.91205
157.11925
155.13345
157.87163
162.21936
163.20212
160.79066
150.71427
138.38249
131.07841
128.20047
126.82689
123.68278
117.62635
112.32128
108.18856
104.02635
99.94927
95.672122
91.797356
87.458754
83.871637
79.445002
76.107918
71.515674
68.580856
63.694086
61.258961
55.285951
144.36072
136.09251
132.42279
130.67343
127.17558
120.96659
115.36141
110.902
106.46584
102.15861
97.666397
93.598986
89.08767
85.344301
80.78383
77.329568
72.626104
69.612992
64.633368
62.153281
56.090626
444.69449
413.2671
348.77346
412.64073
456.6842
476.11814
476.16987
459.98329
433.75368
402.87644
277.36755
341.81083
401.79287
443.97566
463.03181
463.31826
447.72608
422.16289
391.87419
274.97729
334.42952
390.50889
430.74275
449.34922
449.8286
434.82839
409.94037
380.27709
272.32628
326.69887
378.85021
417.03649
435.10086
435.72477
421.30843
397.1144
368.12449
269.33701
318.69236
366.89701
402.92684
420.34333
421.05904
407.205
383.71823
355.4465
266.06014
310.46036
354.70829
388.47088
405.10764
405.83765
392.53793
369.77815
342.26754
262.61598
302.10959
342.3573
373.73914
389.46013
390.15015
377.36268
355.33613
328.63138
259.00084
293.74201
329.95878
358.83998
373.48922
374.06722
361.73745
340.44317
314.58298
255.15302
285.29285
317.61828
343.87437
357.29107
357.6518
345.69941
325.12654
300.1451
250.96982
276.96384
305.41849
328.97073
340.96366
340.98681
329.33062
309.44784
285.35893
246.7217
268.8315
293.51917
314.28034
324.6624
324.17189
312.71269
293.46868
270.26662
242.204
260.89744
282.13305
299.96544
308.54047
307.33146
295.93031
277.25188
254.91401
237.78931
253.55284
271.46839
286.18201
292.76961
290.60461
279.09073
260.88354
239.37288
234.18192
247.15212
261.66951
273.03363
277.48427
274.09954
262.28087
244.42953
223.68708
231.54215
241.57764
252.63368
260.48879
262.7341
257.90231
245.62433
228.04423
208.03666
229.42451
236.48909
243.99759
248.24795
248.36504
241.93524
229.0876
211.7177
192.42401
227.25588
231.23817
234.95384
236.41213
234.07953
226.09133
212.66555
195.49422
176.9027
224.29144
225.16484
225.676
224.42755
219.72986
210.34253
196.47081
179.6086
161.80953
220.77828
218.71254
216.18616
212.17928
205.36429
194.78374
180.62968
164.20106
147.28391
217.36994
212.51511
206.96001
200.23978
191.46966
179.90243
165.65991
149.80564
133.84211
214.52358
207.3213
198.94335
189.51221
178.766
166.24602
151.98363
136.76575
121.79468
212.87173
204.28979
193.7568
181.82578
168.94795
155.20856
140.70879
125.98192
111.89721
210.40699
201.84414
190.65327
177.28322
162.71832
147.74949
132.80608
118.30896
104.84019
203.43196
196.22312
185.86535
172.69874
157.74227
142.2099
126.96964
112.58995
99.557325
189.96612
184.89458
176.75255
165.41912
151.65436
136.74195
121.86868
107.8597
95.265545
172.77707
169.27592
163.10494
153.86629
141.97836
128.55961
114.83801
101.75868
89.952773
154.22767
151.39989
146.43567
138.92047
129.00425
117.44239
105.28994
93.501289
82.758524
136.0792
133.72991
129.71982
123.58236
115.30258
105.43845
94.844888
84.37762
74.713515
117.96577
115.61239
111.90502
106.56836
99.598308
91.306562
82.280638
73.220163
64.753842
101.5146
98.732465
94.809074
89.578555
83.052317
75.521572
67.509386
59.602847
52.312071
91.114556
88.129624
83.981284
78.530515
71.892713
64.472517
56.836351
49.539203
43.002482
87.045134
84.277139
80.337365
75.076716
68.635411
61.394569
53.921197
46.812288
40.5048
85.277999
82.970179
79.558664
74.836741
68.863033
61.888572
54.525381
47.444324
41.128602
82.086023
80.466468
77.929196
74.155654
69.012731
62.904921
56.275339
49.684796
43.62163
74.199064
73.664009
72.607723
70.445347
66.8033
61.744328
55.814392
49.687821
43.965569
61.904955
61.440072
60.735034
59.668514
57.860355
54.950965
51.002729
46.33763
41.58059
51.567888
50.722611
49.601687
48.059723
45.930178
43.125796
39.777066
36.261577
32.807175
46.355402
45.092617
43.498746
41.482045
38.969306
35.981014
32.673068
29.301434
26.122867
44.961554
43.393673
41.482636
39.187341
36.478344
33.397323
30.100407
26.822415
23.790922
44.118589
42.296904
40.168769
37.753054
35.059619
32.115176
29.015508
25.936622
23.073788
41.457215
39.199883
36.705803
34.138914
31.599915
29.082315
26.553695
24.050364
21.676248
38.148016
35.73429
33.073775
30.364539
27.767884
25.330838
23.023268
20.836004
18.819895
36.875762
34.326643
31.453244
28.469916
25.596577
22.956742
20.569763
18.422049
16.522188
36.942987
34.301599
31.227684
27.913337
24.635608
21.634184
19.008255
16.764661
14.884731
37.682596
34.909828
31.64189
28.064924
24.433184
21.010159
18.043577
15.604127
13.653294
38.415385
35.626627
32.281674
28.538214
24.682962
21.038483
17.787881
15.077789
12.944301
39.051289
36.324114
33.014395
29.251177
25.283213
21.435981
18.01272
15.149147
12.859346
39.724602
37.126551
33.943616
30.275625
26.334784
22.404756
18.777985
15.670639
13.181878
40.331756
37.882127
34.859916
31.343511
27.517412
23.641697
19.985078
16.754787
14.059414
40.518824
38.230552
35.393043
32.06812
28.415879
24.670598
21.082481
17.855317
15.111425
40.587677
38.453819
35.802944
32.681018
29.222722
25.638296
22.159787
18.984571
16.240537
40.145409
38.175534
35.7074
32.783605
29.532049
26.134316
22.803783
19.729055
17.039556
39.59916
37.745035
35.419586
32.653074
29.556547
26.318424
23.132117
20.169533
17.555996
38.322004
36.645229
34.534843
32.009023
29.152381
26.111267
23.076491
20.235755
17.720254
37.405281
35.811674
33.80053
31.387736
28.655565
25.748066
22.843864
20.107508
17.66655
35.361133
33.919015
32.095188
29.900783
27.40705
24.741768
22.063375
19.524824
17.245985
34.210119
32.837875
31.099726
29.00452
26.618279
24.061709
21.487046
19.043944
16.85019
30.834138
29.622896
28.092905
26.250602
24.15039
21.894472
19.614879
17.443654
15.485777
379.76262
341.43973
294.58321
235.13538
154.25111
50.191376
369.84728
332.0142
285.79679
227.34578
148.39423
48.004516
359.37679
322.11212
276.64226
219.35882
142.55128
45.796316
348.37113
311.76287
267.16127
211.20506
136.72168
43.592319
336.87674
301.00353
257.38977
202.92368
130.92685
41.405915
324.91625
289.86888
247.36768
194.5364
125.15989
39.251521
312.52269
278.39715
237.12835
186.06682
119.42328
37.132275
299.73824
266.62197
226.69424
177.51936
113.69476
35.048802
286.60203
254.57618
216.08717
168.8981
107.95542
32.992892
273.13247
242.27164
205.30721
160.18516
102.16936
30.95204
259.3559
229.72234
194.35443
151.3633
96.30242
28.908291
245.2957
216.93281
183.21413
142.4007
90.31809
26.841938
230.9812
203.91461
171.88039
133.2772
84.190033
24.735131
216.4736
190.7184
160.39097
124.01593
77.940634
22.578905
201.79286
177.33625
148.71397
114.58454
71.602247
20.393734
187.1452
164.00516
137.12786
105.31023
65.502651
18.248958
172.54012
150.73805
125.63802
96.15585
59.482766
16.124494
158.00368
137.48899
114.07435
86.768669
52.988195
13.943898
143.96746
124.79815
103.1231
78.053237
47.276436
12.144204
130.55989
112.77472
92.862253
70.032535
42.231353
10.726804
118.24297
101.78029
83.485555
62.630869
37.364857
9.6668687
107.33921
92.206364
75.534372
56.671756
33.995324
8.8985497
98.483205
84.55727
69.342703
52.235664
31.774201
8.3574667
92.199724
79.190124
65.085025
49.283815
30.357922
7.9859353
87.516707
75.244888
62.027443
47.238187
29.424277
7.6977773
83.717476
72.015185
59.466649
45.429518
28.412146
7.3533138
79.120958
68.134593
56.333131
43.09225
26.95736
6.8758373
72.853094
62.77139
51.89948
39.645088
24.629453
6.2526762
65.73168
56.546433
46.603468
35.370536
21.593556
5.540937
56.831732
48.705133
39.885631
29.939273
17.844893
4.7827661
45.559505
38.712351
31.364548
23.189355
13.456216
4.0757899
37.070055
31.182835
25.028846
18.374636
10.762253
3.7276006
34.81562
29.21384
23.45127
17.330229
10.489915
3.7790288
35.410111
29.759303
23.95046
17.790821
10.947341
4.0672965
37.992854
32.29647
26.325033
19.87273
12.551565
4.5049328
38.607718
33.115366
27.264195
20.814143
13.280981
4.7405829
36.89463
31.919573
26.472617
20.339007
13.049078
4.6905152
29.402634
25.727503
21.590856
16.784959
10.893432
4.2315655
23.103348
19.967015
16.576322
12.791753
8.3612883
3.8430578
20.948492
18.041146
14.976973
11.684402
8.0462757
3.8271065
20.37066
17.586261
14.65048
11.526919
8.1923785
3.9823033
19.357914
16.881272
14.195462
11.274572
8.1462085
4.126235
16.909656
14.901491
12.710731
10.286525
7.6336407
4.0917628
14.758849
12.945501
11.029021
8.9866782
6.8529651
3.9732548
13.211994
11.55438
9.8715734
8.1669477
6.4975988
3.9002241
11.988253
10.411153
8.8912455
7.4459894
6.1696207
3.8444517
11.180365
9.5792627
8.1213239
6.8422596
5.8390343
3.7781424
10.931405
9.1850455
7.6596456
6.4225674
5.5889576
3.7065353
11.0936
9.1977746
7.5180701
6.2018251
5.4378293
3.6402646
11.717189
9.5383233
7.6335825
6.1492572
5.3421014
3.5767904
12.659567
10.280347
8.0580738
6.2473849
5.2091976
3.5043064
13.737296
11.237802
8.8055592
6.6187099
5.1722694
3.4428902
14.546323
12.000479
9.4402827
6.9648424
4.904096
3.3367246
15.103767
12.560326
9.9531278
7.3245052
4.8631708
3.238226
15.338592
12.83443
10.223075
7.4863014
4.6924481
3.0974359
15.336821
12.871155
10.286597
7.5433606
4.6559733
2.9465225
15.044207
12.674024
10.154839
7.4221421
4.4423016
2.7480244
14.720622
12.417727
9.9693218
7.3139656
4.3976974
2.5879039
13.565005
11.459672
9.2018478
6.7528376
4.2340944
2.3271889
)
;

boundaryField
{
    Side1
    {
        type            empty;
    }
    Inlet
    {
        type            inletOutlet;
        inletValue      nonuniform List<scalar> 0();
        value           nonuniform List<scalar> 0();
    }
    Side2
    {
        type            empty;
    }
    Outlet
    {
        type            zeroGradient;
    }
    Botwall
    {
        type            kqRWallFunction;
        value           nonuniform List<scalar> 
59
(
50.191376
48.004516
45.796316
43.592319
41.405915
39.251521
37.132275
35.048802
32.992892
30.95204
28.908291
26.841938
24.735131
22.578905
20.393734
18.248958
16.124494
13.943898
12.144204
10.726804
9.6668687
8.8985497
8.3574667
7.9859353
7.6977773
7.3533138
6.8758373
6.2526762
5.540937
4.7827661
4.0757899
3.7276006
3.7790288
4.0672965
4.5049328
4.7405829
4.6905152
4.2315655
3.8430578
3.8271065
3.9823033
4.126235
4.0917628
3.9732548
3.9002241
3.8444517
3.7781424
3.7065353
3.6402646
3.5767904
3.5043064
3.4428902
3.3367246
3.238226
3.0974359
2.9465225
2.7480244
2.5879039
2.3271889
)
;
    }
    Cyli
    {
        type            kqRWallFunction;
        value           nonuniform List<scalar> 0();
    }
    procBoundary1to0
    {
        type            processor;
        value           nonuniform List<scalar> 
44
(
201.96355
279.48397
133.63298
133.63298
71.039846
71.039846
48.506843
45.881963
45.881963
42.915206
42.915206
42.093899
45.879941
49.622651
49.622651
49.961552
53.079261
55.294317
56.199021
55.940382
53.92761
54.302511
53.92761
50.0894
45.409222
44.21642
44.21642
454.94316
423.00304
355.23354
422.97662
468.79182
488.55008
488.31871
471.55269
471.55269
279.48397
279.48397
389.07639
350.33356
302.95361
242.68022
160.07548
52.330317
)
;
    }
    procBoundary1to3
    {
        type            processor;
        value           nonuniform List<scalar> 
62
(
43.518778
48.728295
54.57677
61.214368
68.787866
77.404553
87.258885
98.442084
110.90625
124.50521
138.88476
153.60195
167.94848
180.8669
191.47299
199.10765
203.89769
206.31432
207.58051
208.74422
210.23161
212.45212
215.17351
219.10284
225.2466
233.63873
242.14373
247.46536
247.05926
239.42501
221.64485
199.20153
179.26614
166.8251
162.69292
164.0781
167.54683
168.53949
166.46037
157.26785
157.26785
150.08054
140.85053
136.32138
134.15485
130.38116
124.06407
118.18331
113.41365
108.7229
104.20425
99.514496
95.270117
90.60035
86.712384
82.029993
78.4676
73.662594
70.577541
65.51384
62.993215
56.847845
)
;
    }
}


// ************************************************************************* //
