/*--------------------------------*- C++ -*----------------------------------*\
| =========                 |                                                 |
| \\      /  F ield         | OpenFOAM: The Open Source CFD Toolbox           |
|  \\    /   O peration     | Version:  2406                                  |
|   \\  /    A nd           | Website:  www.openfoam.com                      |
|    \\/     M anipulation  |                                                 |
\*---------------------------------------------------------------------------*/
FoamFile
{
    version     2.0;
    format      ascii;
    arch        "LSB;label=32;scalar=64";
    class       volScalarField;
    location    "0.011";
    object      alphat;
}
// * * * * * * * * * * * * * * * * * * * * * * * * * * * * * * * * * * * * * //

dimensions      [1 -1 -1 0 0 0 0];

internalField   nonuniform List<scalar> 
23203
(
0.052946375
0.057899357
0.063128833
0.068566396
0.074198304
0.080020402
0.086030369
0.09222899
0.09862143
0.10521201
0.11200717
0.11901577
0.12624433
0.13370807
0.14142177
0.1493923
0.15763389
0.16616218
0.17498975
0.059746715
0.064671059
0.069809862
0.075158703
0.0807151
0.086473906
0.09243109
0.098585938
0.10494108
0.11150064
0.11827058
0.12525838
0.13247205
0.13992415
0.1476253
0.15558618
0.16381701
0.17233127
0.18113753
0.067062281
0.071925104
0.076980011
0.082242838
0.087716577
0.09339877
0.099286908
0.10538074
0.11168235
0.11819556
0.1249257
0.13187957
0.13906515
0.1464924
0.15417136
0.16211247
0.17032555
0.17882179
0.18760707
0.074869669
0.079659529
0.084635392
0.089815714
0.095206391
0.10080808
0.10662055
0.11264484
0.11888345
0.12534026
0.1320204
0.13893025
0.14607731
0.15347033
0.16111871
0.16903217
0.1772202
0.18569211
0.19445469
0.0831536
0.087867685
0.092764729
0.097863534
0.10317148
0.10869153
0.11442542
0.12037553
0.12654516
0.13293858
0.13956101
0.14641866
0.15351869
0.16086918
0.1684789
0.17635692
0.18451227
0.19295359
0.20168822
0.091897625
0.096535733
0.10135408
0.10637209
0.11159801
0.11703649
0.12269074
0.12856434
0.13466147
0.14098691
0.14754616
0.15434545
0.16139176
0.16869279
0.17625682
0.18409243
0.19220823
0.20061251
0.20931271
0.10109499
0.10565703
0.11039716
0.11533528
0.12048018
0.12583769
0.13141223
0.13720834
0.14323097
0.14948547
0.15597766
0.16271391
0.16970116
0.1769469
0.18445909
0.19224592
0.20031567
0.20867634
0.21733522
0.11074393
0.11522988
0.11989237
0.1247516
0.1298165
0.13509388
0.14058906
0.14630735
0.15225433
0.15843585
0.16485809
0.17152761
0.17845138
0.18563681
0.19309162
0.20082376
0.20884121
0.21715168
0.22576224
0.12084554
0.12525571
0.12984119
0.13462242
0.13960828
0.14480631
0.15022254
0.15586288
0.16173341
0.16784039
0.17419034
0.18079001
0.18764646
0.19476706
0.20215941
0.20983125
0.21779031
0.22604405
0.23459923
0.13140378
0.13573902
0.14024797
0.14495175
0.14985915
0.1549783
0.16031576
0.16587788
0.17167113
0.17770212
0.18397762
0.19050458
0.19729015
0.2043417
0.21166673
0.21927282
0.2271675
0.23535796
0.24385064
0.14242684
0.14668781
0.15111972
0.15574561
0.16057438
0.16561451
0.17087288
0.17635612
0.18207099
0.18802436
0.19422319
0.20067458
0.20738577
0.2143641
0.22161701
0.22915195
0.23697623
0.24509678
0.25351972
0.15392163
0.15810961
0.1624633
0.16701013
0.17175943
0.17671979
0.18189819
0.18730143
0.19293645
0.19881025
0.20492996
0.21130276
0.21793592
0.22483678
0.23201269
0.23947096
0.24721869
0.25526256
0.26360835
0.16589303
0.17000862
0.17428316
0.17874986
0.18341868
0.18829817
0.19339531
0.19871701
0.20427028
0.21006223
0.21610004
0.22239094
0.2289422
0.23576112
0.24285494
0.25023081
0.25789564
0.26585583
0.27411682
0.17834326
0.18238724
0.18658203
0.19096772
0.19555495
0.20035225
0.20536656
0.21060482
0.21607409
0.22178152
0.22773431
0.23393967
0.24040484
0.24713704
0.25414339
0.26143087
0.26900615
0.27687536
0.28504359
0.19127364
0.19524651
0.19936102
0.20366482
0.2081693
0.2128829
0.21781256
0.22296518
0.22834786
0.23396774
0.23983199
0.2459478
0.25232233
0.25896268
0.26587583
0.27306856
0.28054731
0.28831789
0.29638506
0.20468419
0.20858597
0.21261951
0.21684043
0.22126081
0.22588901
0.2307319
0.23579637
0.24108951
0.24661843
0.25239027
0.25841213
0.26469106
0.27123404
0.27804787
0.28513911
0.29251393
0.30017786
0.30813526
0.21857319
0.22240343
0.22635498
0.23049172
0.23482634
0.23936711
0.2441208
0.24909426
0.25429454
0.25972873
0.26540386
0.27132695
0.27750492
0.28394459
0.29065255
0.29763513
0.30489823
0.31244704
0.32028556
0.23293656
0.23669417
0.24056225
0.2446131
0.24885997
0.25331095
0.25797265
0.26285187
0.26795561
0.27329086
0.27886459
0.28468368
0.2907549
0.29708488
0.30367999
0.3105463
0.31768943
0.32511423
0.33282432
0.24776551
0.25144933
0.25523227
0.25919541
0.26335234
0.26771089
0.2722775
0.27705891
0.28206204
0.28729379
0.29276102
0.29847045
0.30442869
0.31064216
0.317117
0.323859
0.33087347
0.33816493
0.34573659
0.26304913
0.266658
0.27035301
0.2742261
0.27829053
0.28255367
0.28702176
0.29170142
0.29659948
0.30172276
0.30707796
0.31267166
0.31851027
0.32459997
0.33094667
0.33755588
0.34443257
0.35158091
0.35900371
0.27876647
0.28230221
0.28590945
0.28968943
0.29365802
0.29782217
0.30218779
0.30676133
0.31154947
0.31655888
0.32179611
0.32726757
0.33297946
0.33893773
0.345148
0.35161549
0.35834486
0.3653399
0.37260303
0.29490112
0.29835686
0.30187922
0.30556602
0.3094344
0.313495
0.31775356
0.32221609
0.32688896
0.33177867
0.33689157
0.34223387
0.34781154
0.35363028
0.35969543
0.3660119
0.37258401
0.3794152
0.38650748
0.31143272
0.31480446
0.31823396
0.32182712
0.32559361
0.32954562
0.33369186
0.33803792
0.34258975
0.3473535
0.3523353
0.35754113
0.36297671
0.36864747
0.37455846
0.38071427
0.38711887
0.39377534
0.40068528
0.32832673
0.33161544
0.33494615
0.33843674
0.34210032
0.3459413
0.34996962
0.35419329
0.35861786
0.36324904
0.36809265
0.37315439
0.3784397
0.38395374
0.38970124
0.39568647
0.40191305
0.40838369
0.41509958
0.34554478
0.34874747
0.35197885
0.35536048
0.35891214
0.36264044
0.3665473
0.37064238
0.3749331
0.3794248
0.38412286
0.38903266
0.39415932
0.39950769
0.4050822
0.41088676
0.41692465
0.42319821
0.42970822
0.36304091
0.36615418
0.36928225
0.37255415
0.37598684
0.37959331
0.38337659
0.38733847
0.3914886
0.39583363
0.40037863
0.40512852
0.41008806
0.41526175
0.42065369
0.42626745
0.43210595
0.43817114
0.4444634
0.3807607
0.38378152
0.3868021
0.38996009
0.39327262
0.39674955
0.40040015
0.40422649
0.40823036
0.41242143
0.41680579
0.42138783
0.42617183
0.43116189
0.43636177
0.44177468
0.44740318
0.45324882
0.4593116
0.39864121
0.40156671
0.40447609
0.40751593
0.41070387
0.41404974
0.41755943
0.42124141
0.42509644
0.42912668
0.43334301
0.43774945
0.44234972
0.44714747
0.45214605
0.45734832
0.46275643
0.46837159
0.47419336
0.41661081
0.41943841
0.42223318
0.42515121
0.42821019
0.43142035
0.43478737
0.43831623
0.44201256
0.44588006
0.44992184
0.45414537
0.45855412
0.46315126
0.4679397
0.47292191
0.47809965
0.48347374
0.48904336
0.43458914
0.43731667
0.43999384
0.44278684
0.44571317
0.44878299
0.45200167
0.45537386
0.45890808
0.46260648
0.46646885
0.47050183
0.47471123
0.4790997
0.48366957
0.4884228
0.49336071
0.49848365
0.50379043
0.45248722
0.45511308
0.45767037
0.46033584
0.46312679
0.46605339
0.46912118
0.4723345
0.47569773
0.47921829
0.48289765
0.48673585
0.49073939
0.49491213
0.49925592
0.50377213
0.50846152
0.51332396
0.51835779
0.47020767
0.47273078
0.47516651
0.47770246
0.48035565
0.48313618
0.48604948
0.48909997
0.49229165
0.49562835
0.49911701
0.50275782
0.50655066
0.51050176
0.51461308
0.5188854
0.5233187
0.52791215
0.53266352
0.4876454
0.49006538
0.49237863
0.49478386
0.49729775
0.49993034
0.50268689
0.50557159
0.5085885
0.51174123
0.5150331
0.51847033
0.52205175
0.52577623
0.52965019
0.53367337
0.53784455
0.5421617
0.54662156
0.50468842
0.50700556
0.50919629
0.51147044
0.51384435
0.51632798
0.51892648
0.52164381
0.52448383
0.52745025
0.53054633
0.5337748
0.53713759
0.54063649
0.54427134
0.54804288
0.5519487
0.5559844
0.56014378
0.52121875
0.52343405
0.52550304
0.5276466
0.52988071
0.53221524
0.53465522
0.53720442
0.53986648
0.54264484
0.54554238
0.54856184
0.55170918
0.55498224
0.558378
0.56189873
0.56554129
0.56929624
0.57314711
0.53711364
0.53922878
0.54117771
0.54319203
0.54528744
0.54747373
0.54975578
0.55213724
0.55462161
0.55721228
0.55991242
0.56272461
0.56565117
0.5686974
0.5718607
0.57513856
0.57853331
0.58203176
0.58558864
0.55224685
0.55426414
0.55609547
0.55798271
0.55994129
0.56198093
0.56410637
0.56632108
0.56862841
0.57103161
0.57353383
0.57613813
0.57884735
0.58166442
0.58459368
0.58764083
0.59081651
0.59415173
0.56649022
0.56841253
0.57012947
0.57189256
0.57371699
0.5756124
0.57758336
0.57963312
0.58176478
0.58398136
0.58628577
0.58868073
0.59116862
0.59375205
0.59643752
0.59922442
0.60211192
0.60510235
0.57971523
0.58154588
0.58315233
0.5847949
0.5864886
0.58824298
0.59006241
0.59194985
0.5939081
0.59593986
0.59804769
0.60023392
0.60250063
0.60484933
0.60728116
0.60980017
0.61240141
0.61507784
0.59179459
0.5935373
0.59503774
0.59656407
0.59813116
0.5997485
0.60142017
0.60314884
0.60493693
0.60678677
0.60870048
0.61067989
0.61272647
0.61484138
0.61702496
0.61927675
0.62159609
0.6239777
0.60260383
0.6042626
0.60566201
0.60707692
0.6085222
0.61000721
0.61153579
0.61311022
0.61473256
0.61640473
0.61812845
0.61990507
0.62173557
0.62362046
0.62555961
0.62755208
0.6295988
0.63169313
0.61202266
0.61360166
0.61490536
0.61621417
0.61754297
0.61890104
0.62029192
0.62171752
0.62317952
0.62467945
0.62621863
0.62779803
0.62941824
0.6310794
0.63278111
0.63452211
0.63630056
0.63811633
0.61993626
0.62143967
0.62265321
0.62386151
0.62507958
0.6263166
0.62757579
0.6288587
0.63016659
0.63150065
0.63286181
0.63425069
0.63566753
0.63711215
0.63858396
0.64008177
0.64160322
0.64314432
0.62623619
0.62766811
0.62879705
0.62991061
0.63102394
0.63214612
0.63328007
0.6344269
0.63558751
0.63676271
0.63795306
0.63915883
0.64037995
0.64161595
0.64286594
0.64412856
0.64540172
0.64668155
0.63082118
0.63218548
0.63323525
0.63425979
0.63527445
0.63628819
0.63730356
0.63832127
0.63934182
0.64036566
0.64139298
0.64242372
0.64345747
0.64449346
0.64553056
0.64656711
0.64760073
0.64862717
0.63359751
0.63489771
0.63587345
0.63681453
0.6377365
0.63864816
0.63955167
0.64044733
0.64133525
0.64221549
0.64308789
0.64395205
0.64480725
0.64565246
0.64648626
0.64730684
0.64811173
0.64889691
0.63447914
0.6357183
0.63662471
0.63748755
0.63832258
0.63913835
0.63993662
0.64071725
0.64147995
0.6422244
0.6429501
0.64365629
0.64434195
0.64500574
0.64564603
0.64626076
0.64684729
0.6474015
0.63338744
0.63456811
0.63540935
0.63619875
0.63695221
0.63767798
0.63837735
0.63904976
0.63969452
0.64031092
0.6408981
0.64145497
0.64198019
0.64247213
0.6429289
0.64334828
0.64372744
0.64406212
0.6302507
0.63137487
0.63215447
0.63287471
0.63355151
0.63419275
0.63479922
0.6353699
0.63590371
0.63639957
0.63685625
0.63727233
0.63764612
0.63797575
0.63825907
0.63849363
0.63867648
0.63880323
0.62500323
0.62607235
0.62679317
0.62744796
0.62805253
0.62861423
0.62913333
0.62960837
0.63003788
0.63042038
0.63075432
0.63103791
0.63126918
0.63144595
0.63156585
0.63162622
0.63162396
0.63155456
0.61758429
0.61859927
0.61926354
0.61985603
0.62039224
0.62087889
0.62131567
0.6217007
0.6220321
0.62230806
0.62252665
0.62268576
0.62278313
0.62281632
0.62278272
0.62267951
0.62250345
0.62224996
0.60793682
0.6088981
0.60950745
0.61004023
0.61051147
0.61092704
0.61128606
0.61158622
0.61182528
0.61200105
0.61211127
0.61215354
0.6121253
0.61202385
0.61184639
0.61158994
0.61125115
0.61082539
0.59600602
0.59691369
0.59746921
0.59794447
0.59835365
0.59870167
0.59898702
0.59920699
0.59935899
0.5994405
0.59944894
0.59938159
0.59923565
0.59900821
0.59869626
0.5982967
0.59780611
0.59721982
0.58173807
0.58259198
0.58309441
0.58351396
0.58386366
0.58414726
0.58436263
0.58450669
0.58457651
0.58456927
0.58448209
0.58431198
0.5840559
0.58371075
0.58327339
0.5827406
0.58210893
0.58137371
0.56507895
0.5658789
0.56632881
0.5666943
0.56698685
0.56720888
0.56735765
0.56742972
0.56742189
0.56733104
0.56715403
0.56688765
0.56652867
0.56607383
0.56551989
0.56486357
0.56410141
0.56322876
0.54597395
0.54671975
0.54711789
0.54743093
0.54766847
0.54783152
0.54791678
0.5479205
0.54783922
0.54766959
0.54740825
0.54705183
0.54659696
0.54604027
0.54537845
0.54460822
0.54372612
0.54272758
0.52436635
0.52505731
0.52540502
0.52566756
0.52585238
0.52595909
0.52598386
0.52592273
0.52577207
0.52552837
0.52518812
0.52474785
0.52420409
0.52355344
0.52279253
0.52191812
0.52092677
0.51981402
0.50019549
0.50083136
0.50113014
0.5013451
0.5014804
0.50153399
0.5015017
0.50137958
0.50116393
0.50085119
0.50043781
0.49992025
0.49929501
0.49855866
0.49770786
0.49673936
0.49564978
0.49443475
0.47340588
0.47398923
0.47424155
0.47441156
0.4745
0.4745034
0.4744175
0.47423844
0.47396259
0.47358638
0.47310625
0.47251863
0.47182001
0.47100695
0.47007607
0.46902416
0.46784789
0.46654296
0.44395143
0.44448543
0.44469478
0.44482237
0.44486642
0.44482272
0.44468715
0.444456
0.44412566
0.44369255
0.44315308
0.44250365
0.44174068
0.4408607
0.43986033
0.43873632
0.43748541
0.43610339
0.41180343
0.41229253
0.41246532
0.4125534
0.41255545
0.41246799
0.41228733
0.41200974
0.41163152
0.411149
0.41055848
0.40985626
0.40903868
0.40810217
0.4070433
0.40585885
0.40454559
0.40309944
0.37696045
0.37740768
0.37755024
0.37760296
0.37756751
0.37744204
0.3772229
0.3769062
0.37648811
0.3759648
0.37533241
0.37458711
0.3737251
0.37274272
0.37163652
0.37040328
0.36903988
0.36754247
0.3394555
0.3398649
0.33998297
0.34000722
0.33994224
0.33978738
0.33953889
0.33919255
0.33874429
0.33819011
0.337526
0.33674797
0.33585216
0.33483485
0.33369258
0.33242221
0.33102082
0.32948492
0.29937128
0.2997506
0.29985336
0.29986023
0.29977763
0.2996052
0.29933888
0.29897423
0.29850703
0.29793317
0.29724857
0.29644916
0.29553104
0.29449048
0.29332408
0.29202884
0.29060212
0.28904098
0.25687093
0.25722597
0.25732535
0.2573312
0.25724766
0.25707343
0.25680436
0.25643607
0.25596438
0.25538518
0.25469436
0.25388787
0.25296181
0.25191246
0.25073651
0.2494311
0.24799395
0.24642274
0.21227258
0.21261479
0.21272752
0.21274899
0.21268114
0.21252194
0.21226727
0.21191283
0.21145443
0.21088797
0.21020936
0.20941456
0.20849966
0.20746101
0.20629533
0.20499993
0.20357278
0.20201221
0.16618267
0.16652251
0.16666471
0.16671836
0.16668329
0.16655692
0.16633523
0.16601407
0.16558939
0.16505723
0.16441359
0.16365458
0.16277645
0.16177572
0.16064928
0.15939463
0.15801005
0.15649459
0.11975556
0.12009937
0.12028365
0.12038226
0.12039349
0.12031466
0.12014227
0.11987275
0.1195026
0.1190283
0.11844632
0.11775323
0.11694575
0.11602093
0.11497616
0.11380927
0.11251877
0.11110409
0.075245963
0.075576103
0.075791863
0.075928725
0.075984405
0.075956379
0.075842017
0.075638821
0.075344318
0.074955862
0.074470648
0.073886074
0.07319997
0.072410519
0.071516096
0.070515187
0.069406287
0.06818772
0.0370883
0.037355148
0.037567048
0.037723937
0.037818869
0.03784453
0.037798268
0.037680212
0.037490452
0.037227979
0.036890896
0.036478498
0.035991813
0.035431837
0.034798755
0.034092202
0.033310767
0.032448954
0.012782453
0.012932687
0.01305916
0.013162352
0.013239243
0.013286396
0.013301589
0.013282847
0.013228711
0.013138556
0.013012617
0.012851828
0.012657378
0.012430608
0.012173056
0.011885813
0.011568829
0.011218027
0.0051333161
0.0051889587
0.0052296333
0.0052608328
0.0052857749
0.0053050384
0.0053185138
0.0053260666
0.0053277501
0.0053237743
0.0053144739
0.0053002766
0.0052816659
0.0052591432
0.0052332261
0.005204302
0.0051723583
0.0051357025
0.0043225667
0.0043369784
0.0043489357
0.004358654
0.0043678771
0.004377127
0.0043865392
0.0043962173
0.0044062189
0.0044165164
0.004427061
0.0044378459
0.0044488916
0.0044602446
0.004471974
0.0044841169
0.0044965933
0.0045084802
0.0043233154
0.0043350345
0.004344886
0.0043534501
0.0043620823
0.0043711588
0.0043807162
0.0043907399
0.0044012081
0.0044120885
0.0044233435
0.004434934
0.0044468433
0.0044590639
0.0044715774
0.0044843673
0.0044974337
0.004510584
0.0043204617
0.0043313496
0.0043408035
0.0043493642
0.0043578999
0.004366616
0.004375559
0.0043847637
0.0043942521
0.0044040236
0.0044140567
0.0044243169
0.004434769
0.0044453909
0.0044561549
0.004467033
0.0044780056
0.0044889383
0.0043052027
0.0043145034
0.0043229013
0.0043309281
0.0043391715
0.0043476833
0.0043564358
0.0043654181
0.0043746245
0.004384043
0.0043936552
0.0044034392
0.00441337
0.0044234229
0.0044335765
0.0044438143
0.0044540846
0.0042926054
0.0043011289
0.0043090377
0.0043166992
0.0043245379
0.0043325619
0.0043407445
0.0043490891
0.0043576071
0.0043663031
0.004375172
0.0043842013
0.004393372
0.0044026618
0.0044120487
0.0044215118
0.0044309904
0.0042839996
0.0042916725
0.0042988273
0.0043057831
0.0043129376
0.0043203184
0.0043279072
0.0043357004
0.0043436966
0.0043518869
0.0043602558
0.0043687832
0.0043774451
0.0043862163
0.0043950718
0.0044039862
0.0044128972
0.0042773054
0.0042843226
0.0042910356
0.0042976136
0.0043043688
0.0043113215
0.0043184507
0.0043257497
0.0043332182
0.0043408526
0.0043486439
0.0043565782
0.0043646372
0.0043727989
0.0043810399
0.0043893326
0.0043976118
0.0042734054
0.0042798615
0.0042859943
0.0042920351
0.0042982484
0.0043046577
0.0043112517
0.0043180283
0.0043249866
0.0043321199
0.004339416
0.0043468569
0.0043544214
0.0043620847
0.0043698206
0.0043775982
0.0043853505
0.0042708341
0.0042768182
0.0042825314
0.0042881999
0.0042940389
0.0043000617
0.0043062545
0.0043126127
0.0043191344
0.0043258134
0.0043326392
0.0043395967
0.0043466673
0.0043538287
0.0043610562
0.004368318
0.004375548
0.0042701838
0.0042756969
0.0042809738
0.0042862215
0.0042916319
0.0042972204
0.0043029769
0.0043088984
0.0043149832
0.0043212248
0.0043276121
0.0043341291
0.0043407566
0.0043474714
0.0043542473
0.0043610511
0.0043678164
0.0042705585
0.0042756749
0.0042806014
0.0042855229
0.0042906011
0.0042958488
0.0043012553
0.0043068162
0.0043125287
0.0043183861
0.0043243778
0.0043304892
0.0043367021
0.0043429949
0.0043493422
0.004355711
0.0043620363
0.0042722218
0.0042769667
0.0042815509
0.0042861405
0.004290879
0.0042957793
0.0043008329
0.0043060359
0.0043113855
0.0043168754
0.0043224947
0.0043282291
0.0043340605
0.0043399672
0.0043459238
0.0043518967
0.0043578221
0.0042747065
0.004279129
0.0042834221
0.0042877341
0.0042921887
0.0042967974
0.0043015518
0.0043064476
0.0043114815
0.0043166467
0.0043219328
0.004327326
0.004332809
0.0043383611
0.0043439575
0.004349565
0.0043551217
0.0042781094
0.0042822353
0.0042862557
0.0042903028
0.004294486
0.004298816
0.0043032854
0.00430789
0.0043126261
0.004317487
0.0043224624
0.0043275388
0.0043326992
0.0043379237
0.0043431875
0.0043484579
0.0043536745
0.0042822085
0.0042860693
0.0042898485
0.0042936645
0.0042976113
0.0043016981
0.0043059177
0.0043102656
0.0043147375
0.0043193269
0.0043240235
0.0043288143
0.0043336831
0.0043386102
0.0043435719
0.0043485357
0.0043534432
0.0042870537
0.0042906695
0.0042942259
0.0042978288
0.004301558
0.0043054205
0.004309409
0.0043135193
0.0043177467
0.0043220845
0.0043265229
0.0043310492
0.0043356475
0.004340299
0.0043449805
0.0043496598
0.0043542803
0.0042925227
0.0042959424
0.0042993164
0.0043027322
0.0043062678
0.0043099303
0.0043137126
0.0043176095
0.0043216168
0.0043257277
0.0043299327
0.0043342194
0.0043385725
0.0043429737
0.0043474002
0.0043518207
0.0043561798
0.0042987444
0.0043019737
0.0043051767
0.0043084241
0.0043117845
0.0043152644
0.0043188573
0.0043225587
0.0043263641
0.0043302667
0.0043342572
0.0043383232
0.0043424496
0.0043466187
0.0043508084
0.0043549882
0.0043591042
0.004305755
0.0043088153
0.0043118615
0.0043149539
0.0043181543
0.0043214681
0.0043248892
0.0043284129
0.0043320347
0.0043357475
0.0043395419
0.0043434054
0.0043473234
0.0043512785
0.0043552494
0.0043592067
0.0043630981
0.0043136766
0.0043165823
0.0043194857
0.0043224373
0.0043254922
0.0043286548
0.004331919
0.00433528
0.0043387329
0.0043422708
0.0043458837
0.0043495593
0.0043532828
0.0043570373
0.0043608025
0.0043645504
0.0043682309
0.0043226696
0.0043254343
0.0043282066
0.0043310281
0.004333948
0.0043369699
0.0043400878
0.0043432971
0.0043465924
0.0043499666
0.0043534095
0.0043569082
0.004360448
0.004364012
0.004367581
0.0043711296
0.0043746111
0.0043329272
0.0043355601
0.0043382097
0.0043409095
0.0043437036
0.0043465943
0.0043495759
0.0043526434
0.0043557912
0.0043590117
0.0043622941
0.0043656252
0.0043689893
0.0043723697
0.0043757483
0.0043791036
0.0043823949
0.0043446868
0.0043471942
0.0043497269
0.0043523103
0.0043549836
0.0043577484
0.0043605988
0.0043635297
0.0043665353
0.0043696072
0.0043727342
0.0043759019
0.0043790938
0.0043822923
0.0043854804
0.004388642
0.0043917485
0.0043581926
0.0043605777
0.0043629964
0.0043654663
0.0043680219
0.004370664
0.0043733869
0.0043761849
0.004379052
0.004381979
0.004384954
0.0043879613
0.0043909826
0.0043939982
0.0043969908
0.0043999512
0.0044028739
0.0043737109
0.0043759736
0.004378278
0.0043806337
0.0043830709
0.0043855898
0.0043881842
0.0043908487
0.0043935763
0.0043963573
0.004399179
0.0044020244
0.0044048725
0.0044076997
0.0044104847
0.0044132219
0.0044159454
0.0043914869
0.0043936244
0.0043958114
0.0043980498
0.0044003656
0.0044027581
0.0044052213
0.0044077491
0.0044103342
0.0044129663
0.0044156316
0.0044183117
0.004420983
0.0044236158
0.0044261779
0.0044286509
0.0044311033
0.004411747
0.0044137537
0.0044158174
0.0044179318
0.0044201194
0.0044223791
0.0044247042
0.0044270884
0.004429524
0.004432
0.0044345017
0.0044370097
0.0044394981
0.0044419318
0.0044442621
0.0044464194
0.0044346562
0.0044365243
0.0044384562
0.0044404381
0.0044424891
0.0044446069
0.0044467852
0.0044490169
0.0044512936
0.0044536041
0.0044559328
0.0044582599
0.0044605583
0.0044627915
0.0044649096
0.0044668428
0.0044603059
0.004462026
0.0044638158
0.0044656544
0.0044675578
0.0044695228
0.0044715426
0.0044736101
0.0044757163
0.0044778491
0.0044799929
0.0044821269
0.0044842234
0.0044862448
0.0044881396
0.0044898361
0.0044886716
0.0044902338
0.0044918707
0.0044935546
0.0044952985
0.0044970988
0.0044989483
0.0045008393
0.0045027625
0.0045047054
0.0045066519
0.0045085808
0.0045104639
0.0045122628
0.0045139249
0.0045153775
0.0045195922
0.0045209873
0.0045224607
0.0045239789
0.0045255519
0.0045271758
0.0045288432
0.0045305459
0.0045322741
0.0045340152
0.0045357527
0.0045374655
0.0045391251
0.0045406928
0.0045421159
0.0045433212
0.0045527354
0.0045539567
0.0045552583
0.0045566018
0.0045579951
0.0045594333
0.004560909
0.0045624139
0.0045639377
0.0045654678
0.0045669879
0.0045684768
0.0045699066
0.0045712393
0.0045724223
0.0045733834
0.0045875845
0.0045886292
0.0045897544
0.0045909182
0.0045921263
0.0045933733
0.0045946519
0.0045959535
0.0045972678
0.0045985824
0.0045998812
0.0046011438
0.0046023432
0.0046034428
0.0046043915
0.0046051192
0.004623431
0.0046243019
0.0046252516
0.0046262361
0.004627259
0.0046283151
0.0046293968
0.0046304957
0.0046316016
0.0046327023
0.0046337828
0.0046348236
0.0046357994
0.0046366756
0.004637404
0.0046379179
0.0046593987
0.0046601044
0.0046608853
0.004661697
0.0046625415
0.0046634134
0.0046643054
0.0046652091
0.0046661149
0.0046670112
0.0046678839
0.0046687152
0.004669482
0.0046701529
0.0046706836
0.0046710124
0.0046944889
0.0046950445
0.0046956699
0.0046963219
0.0046970012
0.0046977026
0.0046984189
0.0046991423
0.0046998639
0.0047005728
0.0047012561
0.0047018981
0.0047024784
0.0047029697
0.0047033328
0.0047035122
0.0047276617
0.0047280875
0.0047285761
0.0047290871
0.0047296203
0.0047301708
0.004730732
0.0047312965
0.0047318563
0.0047324013
0.0047329203
0.0047333997
0.0047338226
0.004734166
0.0047343971
0.004734468
0.0047579387
0.0047582581
0.0047586321
0.0047590248
0.0047594352
0.0047598587
0.0047602896
0.0047607212
0.0047611461
0.0047615557
0.0047619399
0.0047622878
0.0047625857
0.0047628159
0.0047629527
0.0047629572
0.0047845175
0.0047847549
0.0047850381
0.0047853364
0.0047856488
0.0047859712
0.0047862986
0.0047866251
0.0047869442
0.0047872483
0.0047875292
0.0047877776
0.0047879834
0.0047881344
0.0047882129
0.0047881901
0.0048068738
0.0048070516
0.0048072666
0.0048074939
0.0048077323
0.0048079784
0.0048082279
0.0048084759
0.0048087169
0.0048089445
0.0048091517
0.004809331
0.0048094749
0.004809576
0.0048096257
0.0048096081
0.0048248222
0.0048249598
0.0048251264
0.0048253029
0.0048254883
0.0048256797
0.0048258739
0.0048260669
0.0048262542
0.0048264304
0.0048265898
0.0048267259
0.0048268328
0.0048269064
0.0048269461
0.0048269537
0.0048385194
0.0048386317
0.0048387658
0.0048389079
0.0048390572
0.0048392117
0.0048393686
0.0048395252
0.0048396779
0.0048398227
0.0048399546
0.004840068
0.0048401573
0.0048402182
0.0048402525
0.0048402814
0.0048484031
0.0048485009
0.0048486146
0.0048487349
0.004848861
0.0048489916
0.0048491248
0.0048492586
0.0048493907
0.0048495181
0.004849637
0.004849743
0.0048498302
0.0048498909
0.0048499143
0.0048550898
0.0048551805
0.0048552825
0.0048553898
0.004855502
0.0048556181
0.0048557369
0.0048558573
0.0048559777
0.0048560964
0.004856211
0.0048563188
0.0048564164
0.0048564993
0.0048565612
0.0048592653
0.004859353
0.0048594488
0.0048595489
0.0048596531
0.0048597607
0.0048598712
0.0048599837
0.0048600976
0.0048602117
0.0048603249
0.0048604357
0.0048605423
0.0048606424
0.0048607325
0.0048615978
0.004861684
0.0048617759
0.0048618714
0.0048619705
0.0048620727
0.0048621777
0.0048622851
0.0048623945
0.0048625055
0.0048626174
0.0048627298
0.0048628418
0.0048629526
0.0048630603
0.0048626852
0.0048627688
0.0048628566
0.0048629476
0.0048630418
0.0048631388
0.0048632385
0.0048633407
0.0048634454
0.0048635523
0.0048636613
0.0048637722
0.0048638851
0.0048639997
0.0048641153
0.0048630231
0.0048631014
0.0048631832
0.004863268
0.0048633556
0.0048634458
0.0048635385
0.0048636339
0.0048637317
0.0048638321
0.004863935
0.0048640407
0.0048641493
0.0048642613
0.0048643763
0.0048629773
0.0048630485
0.0048631224
0.0048631988
0.0048632776
0.0048633587
0.0048634422
0.0048635281
0.0048636165
0.0048637074
0.0048638009
0.0048638974
0.0048639973
0.004864101
0.0048642086
0.0048627777
0.0048628391
0.0048629029
0.0048629689
0.004863037
0.0048631072
0.0048631794
0.0048632538
0.0048633304
0.0048634093
0.0048634908
0.004863575
0.0048636625
0.0048637538
0.0048638488
0.004862538
0.0048625886
0.0048626413
0.0048626957
0.0048627519
0.0048628097
0.0048628693
0.0048629307
0.0048629939
0.0048630592
0.0048631266
0.0048631964
0.004863269
0.0048633447
0.0048634236
0.0048623194
0.0048623585
0.0048623992
0.0048624413
0.0048624846
0.0048625293
0.0048625753
0.0048626226
0.0048626714
0.0048627218
0.0048627738
0.0048628278
0.0048628839
0.0048629423
0.0048630028
0.004862186
0.0048622132
0.0048622415
0.0048622708
0.0048623011
0.0048623322
0.0048623643
0.0048623972
0.0048624312
0.0048624663
0.0048625025
0.0048625401
0.0048625793
0.0048626199
0.0048626614
0.0048621513
0.0048621671
0.0048621839
0.0048622015
0.0048622196
0.0048622383
0.0048622575
0.0048622772
0.0048622975
0.0048623185
0.0048623401
0.0048623627
0.0048623861
0.0048624103
0.0048622542
0.0048622613
0.0048622696
0.0048622786
0.0048622879
0.0048622975
0.0048623073
0.0048623173
0.0048623275
0.0048623379
0.0048623484
0.0048623592
0.0048623702
0.004862381
0.0056940934
0.006946674
0.0083809743
0.0099918059
0.011776587
0.013734564
0.015866461
0.018174384
0.020661706
0.023332759
0.026192395
0.029245745
0.032498182
0.035955301
0.039622542
0.043504592
0.047605023
0.051926034
0.056478843
0.006318886
0.0077310958
0.0093141877
0.011067223
0.012989719
0.015082095
0.017346116
0.019784909
0.022402697
0.02520433
0.028194927
0.031379668
0.034763801
0.038352641
0.04215122
0.046163501
0.050391642
0.054837293
0.0071302609
0.0086930965
0.010421347
0.012314577
0.014373153
0.016598575
0.018993731
0.021562658
0.024310144
0.027241317
0.030361364
0.033675502
0.037189015
0.04090709
0.04483439
0.048974149
0.053327998
0.057906424
0.0080614777
0.0097677462
0.011635786
0.013665496
0.015858003
0.018215701
0.020742235
0.023442108
0.026320295
0.029381948
0.032632324
0.03607673
0.039720463
0.043568513
0.047625019
0.051892536
0.056372925
0.0090731246
0.010915902
0.012918591
0.015081512
0.017406403
0.019896194
0.02255486
0.025386997
0.028397543
0.031591615
0.034974454
0.03855135
0.042327469
0.046307508
0.050495169
0.054892973
0.059509647
0.010136481
0.012110946
0.014245027
0.016539423
0.018996197
0.021618483
0.024410287
0.027376114
0.03052077
0.033849273
0.037366767
0.041078414
0.044989165
0.049103393
0.05342438
0.057954676
0.011230292
0.013334099
0.015598313
0.018023891
0.020612966
0.023368647
0.026294819
0.02939581
0.032676259
0.036141039
0.039795142
0.04364356
0.04769101
0.05194162
0.056398609
0.061068971
0.012339366
0.014572267
0.016966944
0.0195245
0.022246965
0.025137296
0.028199191
0.031436781
0.034854534
0.038457173
0.042249518
0.0462364
0.05042231
0.054811127
0.059405624
0.013453383
0.015816587
0.018343108
0.021034113
0.023891434
0.026917823
0.030116785
0.033492265
0.03704859
0.040790355
0.044722218
0.048848927
0.053174805
0.05770383
0.062440664
0.014565653
0.017061206
0.019721517
0.022547757
0.025541516
0.028705342
0.032042579
0.035557019
0.03925291
0.043134742
0.047207025
0.051474621
0.055941609
0.060611783
0.015671986
0.018302304
0.021098553
0.024061848
0.027193537
0.030496014
0.033972518
0.037626718
0.041462913
0.045485469
0.049698673
0.054107964
0.058717301
0.063530891
0.016769868
0.019537398
0.02247166
0.02557366
0.02884454
0.032286618
0.035903157
0.039697664
0.043674588
0.047838246
0.052192423
0.056742986
0.06149461
0.066451156
0.017857946
0.020764908
0.023838917
0.027080993
0.030492053
0.034074358
0.037831515
0.041766693
0.045883722
0.050187935
0.054683414
0.059375376
0.064268375
0.01893571
0.021983819
0.025198776
0.02858202
0.032134024
0.035856746
0.039754162
0.043829634
0.048087113
0.052531517
0.057167469
0.062000051
0.067033492
0.02000263
0.023193112
0.026550207
0.030074836
0.033767801
0.037631242
0.041668755
0.045883929
0.050280993
0.054864771
0.059640225
0.064612694
0.069785881
0.021058335
0.024392032
0.02789175
0.031558048
0.035391832
0.039395438
0.043572323
0.047926309
0.052461829
0.057183803
0.062097429
0.067208458
0.022102887