/*--------------------------------*- C++ -*----------------------------------*\
| =========                 |                                                 |
| \\      /  F ield         | OpenFOAM: The Open Source CFD Toolbox           |
|  \\    /   O peration     | Version:  2406                                  |
|   \\  /    A nd           | Website:  www.openfoam.com                      |
|    \\/     M anipulation  |                                                 |
\*---------------------------------------------------------------------------*/
FoamFile
{
    version     2.0;
    format      ascii;
    arch        "LSB;label=32;scalar=64";
    class       surfaceScalarField;
    location    "0.069";
    object      phi;
}
// * * * * * * * * * * * * * * * * * * * * * * * * * * * * * * * * * * * * * //

dimensions      [1 0 -1 0 0 0 0];

oriented        oriented;

internalField   nonuniform List<scalar> 
16284
(
0.010487291
-0.014626613
0.015072465
-0.010933145
0.010045273
-0.017174226
0.017616239
0.0095818698
-0.020097572
0.020560964
0.0091003457
-0.023475949
0.023957462
0.0086079293
-0.027378541
0.027870944
0.0081148844
-0.031871837
0.032364865
0.0076330944
-0.03703098
0.037512725
0.007172254
-0.042945842
0.043406635
0.0067383752
-0.049738861
0.050172761
0.0063338979
-0.057551453
0.057956028
0.0059594015
-0.066512313
0.066886952
0.0056105015
-0.07678689
0.077135954
0.0052771097
-0.088540516
0.088874071
0.0049417179
-0.1018961
0.10223162
0.0045753736
-0.11668954
0.11705596
0.0041110117
-0.13256505
0.13302947
0.0035361852
-0.14873157
0.1493065
0.0030191784
-0.16607408
0.16659118
0.0026344492
-0.18696122
0.18734604
0.0023067135
-0.21120465
0.21153246
0.0020094644
-0.2387612
0.23905852
0.0017391901
-0.26996272
0.27023309
0.0014928247
-0.30532117
0.30556762
0.001267769
-0.34539467
0.34561981
0.001061903
-0.39092116
0.39112713
0.00087115572
-0.44264907
0.44283996
0.00069244998
-0.50146738
0.50164623
0.00052095851
-0.56825607
0.56842761
0.00035191624
-0.64410502
0.64427397
0.00018060412
-0.73042533
0.73059658
-0.8284812
0.82866183
0.011624004
-0.014235921
-0.012014716
0.011185081
-0.016735326
0.010719477
-0.019631996
0.010230984
-0.022987485
0.0097243425
-0.026871929
0.0092087639
-0.031356287
0.0086960138
-0.036518273
0.008197909
-0.042447767
0.0077209304
-0.049261841
0.0072684611
-0.057098874
0.0068432081
-0.066086905
0.0064421678
-0.076385671
0.0060552754
-0.088153447
0.0056592586
-0.10149994
0.0052227949
-0.11625301
0.0046699687
-0.13201218
0.0039984826
-0.14805998
0.0034189545
-0.16549447
0.0029880093
-0.18653017
0.0026170358
-0.21083359
0.0022795897
-0.23842366
0.0019729471
-0.26965595
0.0016935194
-0.30504164
0.0014382547
-0.3451393
0.0012049414
-0.39068773
0.00098864447
-0.44243261
0.000785909
-0.50126449
0.00059123102
-0.56806134
0.0003993758
-0.64391327
0.00020481202
-0.73023084
-0.82827637
0.012759504
-0.013894382
-0.013101077
0.012361172
-0.016337034
0.011919375
-0.019190241
0.011442156
-0.022510307
0.010936007
-0.026365817
0.010409966
-0.030830279
0.0098755995
-0.035983935
0.009345875
-0.041918045
0.0088294153
-0.048745318
0.0083295978
-0.056598933
0.0078515779
-0.065608717
0.0073935991
-0.075927499
0.0069458451
-0.087705501
0.006479841
-0.10103379
0.0059596736
-0.11573277
0.0052996756
-0.13135213
0.0045202562
-0.14728045
0.0038815379
-0.16485565
0.0033993025
-0.18604782
0.0029784938
-0.21041267
0.0025943063
-0.23803936
0.002245143
-0.26930663
0.001926899
-0.30472328
0.0016361269
-0.34484841
0.0013706683
-0.39042213
0.0011245596
-0.44218632
0.00089387063
-0.50103363
0.00067234799
-0.56783978
0.00045422498
-0.64369526
0.00023289528
-0.73000959
-0.82804345
0.013910297
-0.013610901
-0.014193823
0.013568024
-0.01599481
0.013171067
-0.018793333
0.01272547
-0.022064756
0.012237921
-0.025878307
0.011717143
-0.03030953
0.011174369
-0.035441172
0.010622622
-0.041366269
0.010072201
-0.048194809
0.0095281754
-0.056054767
0.0089968008
-0.06507716
0.00847773
-0.075408221
0.0079613528
-0.087188922
0.007414371
-0.10048666
0.0067933594
-0.11511169
0.0060037865
-0.1305625
0.005104746
-0.14638132
0.004406985
-0.16415779
0.0038649144
-0.18550562
0.0033870512
-0.20993469
0.0029497062
-0.23760187
0.0025523762
-0.26890912
0.0021902924
-0.30436105
0.0018594454
-0.34451743
0.0015578323
-0.39012036
0.0012781668
-0.44190645
0.001015941
-0.50077121
0.00076405974
-0.56758786
0.00051622726
-0.64344756
0.00026455926
-0.72975801
-0.82777885
0.0150728
-0.013394115
-0.015289631
0.014797327
-0.015719384
0.014461557
-0.018457608
0.014067258
-0.021670496
0.013618588
-0.025429666
0.013122371
-0.029813324
0.012588373
-0.03490716
0.012028614
-0.040806455
0.011454078
-0.047620167
0.010871907
-0.055472441
0.010288896
-0.064493955
0.0097058151
-0.074824922
0.0091129191
-0.086595816
0.0084719109
-0.099845503
0.0077275518
-0.11436727
0.0067832341
-0.12961813
0.0057585543
-0.14535655
0.0050020725
-0.1634012
0.0043927833
-0.18489618
0.0038509158
-0.20939268
0.0033539281
-0.23710472
0.0029023268
-0.2684573
0.0024905789
-0.30394913
0.0021141061
-0.3441408
0.0017713415
-0.38977742
0.0014534626
-0.44158834
0.0011552423
-0.50047279
0.00086868589
-0.56730128
0.00058702384
-0.64316605
0.00030070106
-0.72947179
-0.82747811
0.016237179
-0.013251311
-0.016380019
0.016038465
-0.015520703
0.015777945
-0.018197116
0.015452981
-0.021345553
0.015063628
-0.025040321
0.014613097
-0.029362782
0.01410811
-0.034402133
0.013558348
-0.040256614
0.012974085
-0.047035779
0.012363466
-0.054861657
0.01173341
-0.063863698
0.011085062
-0.074176353
0.01040763
-0.085918172
0.0096567134
-0.09909444
0.0087601868
-0.11347069
0.007633839
-0.12849174
0.0064896633
-0.1442123
0.0056732465
-0.16258468
0.004989324
-0.18421211
0.0043754041
-0.2087786
0.0038115351
-0.23654064
0.0032989058
-0.26794441
0.0028310953
-0.3034811
0.0024029425
-0.34371246
0.0020136109
-0.38938789
0.0016525283
-0.441227
0.0013134647
-0.50013351
0.00098750619
-0.56697531
0.0006674651
-0.64284618
0.00034169039
-0.72914612
-0.82713637
0.01739923
-0.013187351
-0.01746321
0.017284598
-0.015406085
0.017110696
-0.018023216
0.016870232
-0.021105085
0.016558521
-0.024728592
0.016174169
-0.028978393
0.01571947
-0.033947369
0.015200189
-0.039737236
0.014624034
-0.04645949
0.013998246
-0.0542357
0.013328674
-0.063193928
0.012615395
-0.073462858
0.011844545
-0.085147118
0.01096353
-0.098213291
0.0098775534
-0.11238468
0.0085465043
-0.12716068
0.0073089755
-0.14297473
0.006426115
-0.16170173
0.005661097
-0.18344692
0.004966953
-0.20808426
0.0043289882
-0.23590242
0.0037483607
-0.26736346
0.0032176436
-0.30295012
0.0027310947
-0.34322569
0.0022890347
-0.38894561
0.0018790766
-0.44081676
0.001493575
-0.49974778
0.0011227526
-0.5666045
0.0007591153
-0.64248273
0.00038833459
-0.72877545
-0.82674796
0.018571374
-0.013202576
-0.018556149
0.018542976
-0.015377682
0.018459868
-0.017940098
0.018312031
-0.020957226
0.018090592
-0.024507116
0.017788992
-0.028676739
0.017403871
-0.03356217
0.01693541
-0.039268669
0.016386565
-0.045910512
0.015761125
-0.053610101
0.015061603
-0.06249422
0.014284218
-0.07268527
0.013407833
-0.084270545
0.012369813
-0.097175153
0.011049363
-0.11106421
0.0095095055
-0.12562084
0.008223117
-0.14168833
0.0072656128
-0.16074414
0.006413408
-0.18259455
0.0056311613
-0.2073018
0.0049118258
-0.23518277
0.0042559462
-0.2667072
0.0036551166
-0.30234898
0.0031029339
-0.34267326
0.0026013583
-0.38844379
0.0021363246
-0.44035141
0.0016981724
-0.49930939
0.0012764178
-0.56618278
0.00086332345
-0.64206984
0.00044127453
-0.72835351
-0.82630659
0.019762982
-0.013290372
-0.019675181
0.019817001
-0.015431691
0.019823726
-0.017946805
0.019770761
-0.020904231
0.0196459
-0.024382213
0.019437578
-0.028468362
0.019136293
-0.033260812
0.018735453
-0.038867736
0.018231225
-0.04540617
0.017621049
-0.052999788
0.016900773
-0.061773781
0.016057733
-0.071842048
0.015053595
-0.083266245
0.013821679
-0.09594314
0.012228123
-0.10947067
0.010520577
-0.12391337
0.0092320346
-0.14039982
0.0081953734
-0.15970743
0.0072493827
-0.18164841
0.0063732324
-0.2064254
0.005565597
-0.23437475
0.0048274435
-0.2659686
0.0041493275
-0.30167047
0.003523969
-0.3420476
0.0029554021
-0.38787493
0.0024283802
-0.43982406
0.0019306029
-0.49881138
0.0014510774
-0.56570332
0.00098186202
-0.64160084
0.00050146384
-0.72787322
-0.82580501
0.020984579
-0.013439006
-0.020835947
0.021109179
-0.015556285
0.021197379
-0.018034984
0.021234797
-0.020941621
0.021204919
-0.024352313
0.021091567
-0.028354988
0.020879532
-0.033048746
0.0205551
-0.038543255
0.020106075
-0.044957072
0.019520596
-0.052414209
0.018783656
-0.061036708
0.017867136
-0.070925367
0.016708146
-0.082107113
0.015210108
-0.094445022
0.013338128
-0.10759872
0.011588927
-0.12216429
0.010324539
-0.13913554
0.0092155637
-0.15859846
0.0081683373
-0.18060105
0.0071978351
-0.20545462
0.0062943742
-0.23347085
0.0054676168
-0.26514134
0.004705243
-0.30090764
0.0039992979
-0.34134131
0.0033557107
-0.38723102
0.0027591393
-0.43922714
0.0021940965
-0.49824612
0.0016492626
-0.5651586
0.0011164313
-0.64106823
0.00056980722
-0.7273267
-0.82523503
0.022236456
-0.01364326
-0.022032153
0.022421061
-0.015740856
0.022575314
-0.018189246
0.022684691
-0.021051046
0.02273256
-0.024400255
0.022700308
-0.028322824
0.022567957
-0.032916476
0.02231452
-0.038289867
0.021917726
-0.044560279
0.021352818
-0.051849248
0.020588598
-0.060272378
0.019570256
-0.069906871
0.018189233
-0.080725938
0.016357751
-0.092613437
0.014385084
-0.10562607
0.0127915
-0.12057088
0.011513703
-0.13785794
0.010301169
-0.15738599
0.0091741356
-0.1794739
0.0080876367
-0.20436783
0.0070957064
-0.23247843
0.0061811888
-0.26422626
0.005327514
-0.30005345
0.0045342382
-0.34054762
0.0038073173
-0.38650372
0.0031329836
-0.43855245
0.0024923669
-0.4976053
0.0018739048
-0.56454029
0.0012690156
-0.64046356
0.00064746541
-0.72670523
-0.82458735
0.02340795
-0.013878562
-0.02317242
0.023631428
-0.015964127
0.023831818
-0.018389559
0.023993264
-0.021212543
0.024097982
-0.024505166
0.024125499
-0.028350618
0.024051962
-0.032843215
0.023849055
-0.038087165
0.023482279
-0.044193602
0.022908404
-0.051275364
0.022070616
-0.05943448
0.020879185
-0.068715251
0.019230945
-0.079077466
0.017221797
-0.090604068
0.015450338
-0.10385458
0.014038424
-0.11915918
0.012706106
-0.13652594
0.011460272
-0.1561403
0.010240934
-0.1782545
0.0090927021
-0.20321932
0.0079909231
-0.23137612
0.0069590069
-0.26319375
0.0060181425
-0.29911204
0.0051328686
-0.33966187
0.0043145606
-0.38568498
0.0035538873
-0.43779143
0.0028288349
-0.49688009
0.002127876
-0.56383953
0.0014415206
-0.63977739
0.0007355343
-0.7259993
-0.82385154
0.024326869
-0.014115176
-0.024090387
0.024551447
-0.0161897
0.0247533
-0.018592725
0.024919824
-0.021380342
0.025033884
-0.024620309
0.025073388
-0.028391007
0.025010172
-0.032780629
0.024806795
-0.037884166
0.024413142
-0.043800121
0.023761468
-0.050623691
0.02276717
-0.058440025
0.021368991
-0.06731678
0.019676239
-0.077384327
0.018059475
-0.088986902
0.016639169
-0.1024341
0.015301581
-0.11782184
0.013991315
-0.13521615
0.012665317
-0.15481466
0.01138026
-0.17696949
0.010126313
-0.20196508
0.0089496864
-0.23019896
0.0078409028
-0.26208434
0.0067739237
-0.29804451
0.0057905853
-0.33867806
0.0048816905
-0.38477563
0.004025961
-0.43693534
0.003207085
-0.49606109
0.0024143877
-0.56304707
0.0016360268
-0.63899915
0.00083505671
-0.72519833
-0.82301613
0.024182147
-0.014314524
-0.023982852
0.024369958
-0.016376549
0.024537204
-0.018758308
0.02467884
-0.021520288
0.024784043
-0.024724007
0.024822064
-0.028427785
0.024749843
-0.032707562
0.024520046
-0.037653912
0.024083175
-0.043363026
0.023386916
-0.049927266
0.022414855
-0.057467689
0.021247521
-0.066149006
0.020084581
-0.076220848
0.018974333
-0.087876103
0.017812541
-0.10127198
0.016551164
-0.11656065
0.015227089
-0.1338927
0.013890621
-0.15347887
0.012551357
-0.17563056
0.011254928
-0.20066851
0.0099803324
-0.22892387
0.0087621219
-0.26086551
0.0076185606
-0.29690039
0.0065333722
-0.33759241
0.0055116121
-0.38375343
0.0045478878
-0.43597122
0.0036309591
-0.49514408
0.0027367785
-0.56215314
0.0018543913
-0.63811678
0.00094618558
-0.72429005
-0.82206951
0.023067597
-0.014558031
-0.022824167
0.023296032
-0.016604922
0.023487114
-0.018949233
0.023610051
-0.021642858
0.023638662
-0.02475216
0.023571991
-0.028360636
0.023409417
-0.032544561
0.023160472
-0.037404655
0.022840602
-0.043042908
0.022429187
-0.049515569
0.021942252
-0.056980348
0.021394602
-0.065600807
0.020757091
-0.07558274
0.019933536
-0.087051997
0.018901932
-0.10024
0.01772325
-0.11538202
0.016456357
-0.13262637
0.015114263
-0.15213762
0.013756409
-0.17427348
0.01240271
-0.19931505
0.011071406
-0.22759224
0.0097874584
-0.25958108
0.0085227611
-0.29563516
0.00732614
-0.33639531
0.006202644
-0.38262958
0.0051397355
-0.43490797
0.0041060047
-0.49411024
0.0030946152
-0.56114195
0.0020972865
-0.63711934
0.0010690807
-0.72326167
-0.82099991
0.0207041
-0.014859349
-0.020402791
0.021034272
-0.016935062
0.021394467
-0.019309373
0.021780593
-0.022028897
0.022165652
-0.02513711
0.022509685
-0.02870453
0.022756516
-0.032791215
0.022800078
-0.037447982
0.022622529
-0.042865039
0.022327992
-0.049220598
0.02204345
-0.056695248
0.021732727
-0.065289454
0.021301283
-0.075150719
0.02068068
-0.086430985
0.019854287
-0.099413386
0.018805565
-0.11433331
0.01760364
-0.13142482
0.016316181
-0.1508508
0.014956641
-0.17291486
0.01359734
-0.19795646
0.012213031
-0.22620806
0.010836076
-0.25820389
0.0095079879
-0.29430664
0.0082170149
-0.33510397
0.006964576
-0.38137681
0.0057763659
-0.43371944
0.0046280579
-0.49296177
0.0034968405
-0.56001077
0.0023711765
-0.63599341
0.0012051802
-0.72209539
-0.81979414
0.019191022
-0.015098162
-0.018952203
0.019449104
-0.017193117
0.019726846
-0.019587078
0.020021905
-0.022323906
0.020338156
-0.025453287
0.020675429
-0.029041698
0.021061195
-0.033176839
0.021560564
-0.037947168
0.022047716
-0.043351954
0.022328141
-0.049500706
0.022255426
-0.056622194
0.021965078
-0.064998825
0.02161484
-0.074800138
0.02120936
-0.086025292
0.020631906
-0.098835822
0.019782839
-0.11348417
0.018707937
-0.13035026
0.017484838
-0.149628
0.016157568
-0.17158798
0.014782277
-0.19658197
0.013382656
-0.22480909
0.011962323
-0.25678382
0.010528639
-0.2928728
0.009152412
-0.33372744
0.0077967348
-0.3800208
0.0064825608
-0.43240494
0.0052057091
-0.49168469
0.0039411768
-0.55874607
0.0026709501
-0.63472273
0.0013562722
-0.72078032
-0.8184372
0.018966942
-0.015340658
-0.018724452
0.019227438
-0.01745362
0.019505295
-0.019864936
0.019800382
-0.022618991
0.020115359
-0.025768255
0.020447658
-0.029373984
0.02077688
-0.033506043
0.021075859
-0.038246132
0.02140288
-0.043678969
0.021860578
-0.049958438
0.022298325
-0.057060084
0.022371432
-0.065072243
0.022050187
-0.074479209
0.021618658
-0.08559442
0.021124801
-0.098342968
0.02052447
-0.11288313
0.019669981
-0.12949532
0.018595164
-0.14855346
0.017331444
-0.17032402
0.015970814
-0.19522144
0.014554599
-0.22339356
0.013095831
-0.25532598
0.011622934
-0.29140026
0.010144436
-0.33224861
0.0086795906
-0.37855558
0.0072425754
-0.43096761
0.0058282795
-0.49027007
0.0044253403
-0.55734271
0.0030065373
-0.63330334
0.0015240256
-0.71929733
-0.81691243
0.018150887
-0.015571929
-0.017919632
0.018405209
-0.017707961
0.018682551
-0.020142299
0.018981762
-0.022918231
0.019298882
-0.026085408
0.019625585
-0.029700737
0.019948869
-0.033829393
0.020249841
-0.038547221
0.020520412
-0.04394975
0.020703769
-0.050142223
0.020930769
-0.057287945
0.02145169
-0.065594842
0.021889663
-0.074921038
0.021847515
-0.085558952
0.021501754
-0.098000063
0.021015723
-0.11239066
0.020375063
-0.12885034
0.019535867
-0.1477131
0.018444558
-0.16923263
0.017120276
-0.19389666
0.015705372
-0.22197866
0.014242114
-0.25386361
0.012701964
-0.28986091
0.011162423
-0.33070911
0.0096215262
-0.37701421
0.0080585477
-0.4294042
0.0065006812
-0.48871187
0.0049482983
-0.55578978
0.0033663937
-0.63172082
0.0017093406
-0.71763972
-0.81520224
0.017824885
-0.01578977
-0.017607082
0.018064187
-0.017947308
0.018326114
-0.020404286
0.018611368
-0.023203554
0.018920714
-0.026394851
0.01925573
-0.030035873
0.01962004
-0.034193885
0.020018955
-0.0389464
0.020449232
-0.044380486
0.020901748
-0.050595603
0.021310376
-0.057698445
0.021529645
-0.065818764
0.02177208
-0.075174865
0.022047678
-0.085856979
0.021906211
-0.097865163
0.021447443
-0.11190229
0.020865017
-0.12825328
0.020169102
-0.14701272
0.019329749
-0.1683918
0.018187235
-0.19275332
0.016818444
-0.22060926
0.015332599
-0.25237782
0.01379214
-0.28832102
0.012194693
-0.32911206
0.010567104
-0.37538628
0.0089041427
-0.42774064
0.0072037685
-0.4870111
0.0055028807
-0.55408841
0.0037559174
-0.62997335
0.0019120191
-0.71579517
-0.81328922
0.01679318
-0.015990359
-0.016592618
0.017015119
-0.018169274
0.01725909
-0.020648288
0.017525334
-0.023469824
0.017812922
-0.026682463
0.018119011
-0.030341964
0.018437341
-0.034512186
0.018757648
-0.039266577
0.019068888
-0.044691381
0.019362971
-0.050888803
0.019646384
-0.057979657
0.019928866
-0.06609569
0.020119151
-0.075351264
0.020279559
-0.085989189
0.020766085
-0.098338721
0.021087986
-0.11225723
0.020904591
-0.12808696
0.020490134
-0.14660108
0.019854382
-0.16775488
0.018950159
-0.19184738
0.017755178
-0.2194134
0.016360377
-0.25098259
0.014826594
-0.28678689
0.013190021
-0.32747561
0.011515035
-0.37371126
0.0097680677
-0.42599289
0.0079366558
-0.4851791
0.0060689216
-0.55222035
0.0041547937
-0.62805899
0.0021293985
-0.71376899
-0.81115859
0.016338313
-0.016179847
-0.016148866
0.016548444
-0.018379448
0.016780986
-0.020880872
0.01703737
-0.023726255
0.017318953
-0.026964086
0.01762704
-0.03065009
0.017963227
-0.034848389
0.018329172
-0.039632521
0.01872419
-0.045086342
0.019140497
-0.051304963
0.019557874
-0.058396701
0.019952369
-0.066489467
0.020354016
-0.075751636
0.020685965
-0.086320535
0.020735346
-0.098391005
0.020825209
-0.11235129
0.020896749
-0.1281612
0.020511667
-0.14621883
0.019978912
-0.16722377
0.01933948
-0.1912072
0.018441423
-0.21851412
0.017177827
-0.24971856
0.015757809
-0.28536599
0.014147616
-0.32586438
0.01239618
-0.37195949
0.010581807
-0.42417749
0.0086560802
-0.48325236
0.006643627
-0.55020774
0.0045594882
-0.62597483
0.0023552841
-0.71156385
-0.80880177
0.01515057
-0.01635487
-0.014975648
0.015345567
-0.018574559
0.015561948
-0.021097382
0.015800937
-0.02396539
0.016063266
-0.027226581
0.016348854
-0.030935869
0.016656516
-0.035156271
0.016982901
-0.039959164
0.017322958
-0.045426708
0.017672379
-0.051654761
0.018030341
-0.058755137
0.018396315
-0.066856042
0.018743266
-0.076099348
0.019102483
-0.086680811
0.019477113
-0.098767043
0.019657606
-0.11253228
0.019932248
-0.12843532
0.020169574
-0.14645648
0.019829796
-0.16688592
0.019338192
-0.19071631
0.018721155
-0.21789704
0.017739505
-0.24873644
0.016458444
-0.28408409
0.014958511
-0.3243622
0.013195605
-0.37019485
0.011329403
-0.42230987
0.0093176775
-0.48123923
0.0071846349
-0.54807443
0.004946043
-0.62373616
0.0025765552
-0.70919326
-0.80622335
0.014656416
-0.016514667
-0.014496716
0.014834679
-0.018752933
0.01503337
-0.021296197
0.015254209
-0.024186368
0.015498828
-0.027471356
0.01576864
-0.031205855
0.016064729
-0.035452555
0.016388886
-0.040283548
0.016743625
-0.045781719
0.017130325
-0.052041797
0.0175461
-0.059171347
0.01798162
-0.067292118
0.018424472
-0.076542901
0.018817615
-0.087074778
0.019150481
-0.099101139
0.019451074
-0.1128345
0.019536136
-0.12852151
0.019653769
-0.14657396
0.019731014
-0.1669612
0.019269078
-0.19025425
0.018633952
-0.21726156
0.017841058
-0.24794334
0.016786143
-0.2830282
0.01549332
-0.32306645
0.013822938
-0.36852114
0.011909853
-0.42039484
0.0098821437
-0.47920994
0.0076685172
-0.54586009
0.0052961564
-0.62136332
0.0027778713
-0.7066737
-0.8034434
0.013324087
-0.016653929
-0.013184967
0.013479883
-0.018908888
0.013653901
-0.021470399
0.013847727
-0.024380408
0.014062737
-0.027686617
0.014299856
-0.031443275
0.014558997
-0.035712054
0.014839172
-0.040564152
0.015138109
-0.04608117
0.015452239
-0.052356545
0.015777427
-0.059497274
0.016109669
-0.067625267
0.016447155
-0.076881492
0.016807144
-0.087436076
0.017186488
-0.099481747
0.017573919
-0.11322318
0.017885197
-0.12883351
0.017901636
-0.14658876
0.01804524
-0.16710169
0.018283741
-0.19049088
0.018013969
-0.21699232
0.017494733
-0.24742528
0.016706411
-0.28224187
0.015634912
-0.32199263
0.014167914
-0.36705004
0.012314089
-0.41853849
0.010244829
-0.47713872
0.0080123014
-0.54362623
0.00557762
-0.61892738
0.0029480606
-0.70404261
-0.80049341
0.012977488
-0.016774981
-0.012856535
0.01311239
-0.01904391
0.013262356
-0.021620505
0.013428453
-0.024546669
0.013611847
-0.027870206
0.01381399
-0.031645649
0.014036959
-0.035935305
0.014282694
-0.040810237
0.014552658
-0.04635158
0.014847727
-0.052652192
0.015168237
-0.059818539
0.015514729
-0.067972727
0.015883888
-0.077251802
0.01624784
-0.087801058
0.016563951
-0.099798275
0.016818127
-0.11347642
0.017109938
-0.12912261
0.017507419
-0.14698245
0.017696572
-0.16728872
0.017628112
-0.19042321
0.017414629
-0.21677999
0.016841649
-0.24685014
0.016216083
-0.28162279
0.015331931
-0.32111139
0.01401682
-0.36573298
0.012333053
-0.41685288
0.010380429
-0.47518389
0.0081803691
-0.54142421
0.0057329607
-0.61647787
0.0030457132
-0.70135341
-0.79744621
0.011800423
-0.016878168
-0.011697303
0.011916315
-0.019159871
0.012046215
-0.021750477
0.012191513
-0.02469204
0.012353671
-0.028032434
0.012534075
-0.031826115
0.01273385
-0.036135127
0.012953739
-0.041030142
0.013193899
-0.046591709
0.013453621
-0.052911812
0.013730814
-0.060095533
0.014021887
-0.068263506
0.014326113
-0.07755574
0.014659255
-0.088134336
0.015034914
-0.1001751
0.01542886
-0.11387322
0.01575999
-0.12945886
0.015989076
-0.14721899
0.016174304
-0.16747951
0.016306626
-0.19055278
0.016408622
-0.21687405
0.016203137
-0.24663907
0.015408367
-0.28081336
0.014355756
-0.32006025
0.013257301
-0.36464338
0.01187501
-0.41547404
0.01012235
-0.47343055
0.0080552702
-0.53935517
0.0057089551
-0.61412913
0.0030578787
-0.69869967
-0.79438676
0.011126055
-0.016949961
-0.011054314
0.011206435
-0.019240315
0.011296567
-0.021840686
0.011397557
-0.024793124
0.011510549
-0.028145539
0.011636732
-0.031952436
0.011777313
-0.03627587
0.011933467
-0.041186485
0.012106282
-0.046764734
0.012296577
-0.053102322
0.012504637
-0.060303784
0.012729136
-0.068488101
0.012963899
-0.077790375
0.013194983
-0.08836487
0.013413421
-0.10039238
0.013607532
-0.11406546
0.013753223
-0.129602
0.013820218
-0.14728235
0.013772933
-0.16742722
0.013610292
-0.19038582
0.013306929
-0.21656886
0.013282376
-0.24661708
0.013298137
-0.28083147
0.012716813
-0.31947921
0.011993259
-0.36393437
0.010905466
-0.41439611
0.0094683941
-0.47199613
0.0076410152
-0.53752605
0.0054615457
-0.61194704
0.0029561791
-0.69619083
-0.79142843
0.010188266
-0.017005442
-0.010132887
0.01025095
-0.019303126
0.010321699
-0.021911597
0.010401308
-0.024872937
0.010490533
-0.028235023
0.010590078
-0.032052308
0.010700508
-0.036386709
0.010822114
-0.041308599
0.01095473
-0.04689797
0.011097375
-0.053245701
0.011247867
-0.060455102
0.011402541
-0.068643639
0.011555963
-0.077944585
0.011698546
-0.088507972
0.011821438
-0.10051525
0.011931708
-0.11417485
0.012061714
-0.12973022
0.012210929
-0.14742967
0.012362737
-0.16757835
0.012505046
-0.19052924
0.012612189
-0.21667526
0.012540313
-0.24654421
0.012101816
-0.28039488
0.011497703
-0.31888093
0.010684897
-0.36312435
0.009735445
-0.41344773
0.0084656209
-0.47073016
0.0068711108
-0.53593112
0.00493039
-0.6100035
0.0026865521
-0.69394336
-0.78874011
0.0098901424
-0.017032721
-0.0098631311
0.0099200927
-0.019333389
0.0099528354
-0.021944711
0.0099884967
-0.024909036
0.010027153
-0.028274198
0.010068777
-0.032094544
0.010113225
-0.036431878
0.010160269
-0.041356484
0.010209687
-0.046948354
0.010261559
-0.053298649
0.010316633
-0.060511312
0.010377146
-0.068705238
0.01044961
-0.078017872
0.010546014
-0.088604599
0.010665467
-0.10063388
0.010797108
-0.11430437
0.010916585
-0.12984647
0.011016772
-0.14752651
0.01108846
-0.16764853
0.011120829
-0.19056345
0.011108948
-0.21666758
0.010937697
-0.24636526
0.0107023
-0.28014088
0.010352767
-0.31852974
0.0095198921
-0.36231995
0.0085135777
-0.41244657
0.0073487294
-0.46957032
0.0059537126
-0.53453943
0.0042819403
-0.60832984
0.0023044372
-0.69196288
-0.78643455
0.0096163981
-0.009611264
0.0096221986
0.009629197
0.0096376822
0.0096480055
0.0096605861
0.0096759018
0.0096944582
0.0097167078
0.0097428786
0.0097726873
0.0098048453
0.00983579
0.0098612489
0.0098775384
0.0098818393
0.0098691463
0.0098296472
0.0097489321
0.0096037637
0.0093636627
0.0090180453
0.0085978202
0.0082273771
0.0078598225
0.0072333767
0.006331433
0.0051616248
0.0037226241
0.0020040261
0.011474111
-0.011308508
0.0089735512
-0.0091390736
0.013238786
-0.014551524
0.012786926
0.014557366
-0.017813972
0.016495486
0.015606736
-0.021414378
0.02036514
0.016527543
-0.025535091
0.024614435
0.017387106
-0.030291844
0.029432438
0.018186585
-0.035758603
0.034959295
0.018942101
-0.042010606
0.041255266
0.019653704
-0.049198922
0.048487489
0.020297632
-0.05743687
0.056793092
0.020854094
-0.066853764
0.066297418
0.021311118
-0.077607547
0.077150603
0.021659069
-0.089876549
0.08952866
0.021885775
-0.10383712
0.10361049
0.021973782
-0.11966481
0.11957689
0.02186304
-0.13739446
0.13750527
0.021491888
-0.15682106
0.15719222
0.020758777
-0.17747917
0.17821231
0.019590091
-0.19820868
0.19937742
0.018345228
-0.22001024
0.2212552
0.017220031
-0.24608346
0.24720876
0.016087629
-0.27655893
0.27769141
0.014887637
-0.31132829
0.31252834
0.013593511
-0.35090038
0.35219459
0.012190173
-0.39587448
0.39727794
0.010657212
-0.44712091
0.448654
0.0089714798
-0.50547146
0.50715733
0.0071015462
-0.57193683
0.57380705
0.0050118829
-0.64759408
0.64968385
0.0026603522
-0.73387948
0.73623095
-0.83214936
0.83480941
0.012667992
-0.012775384
-0.011201027
0.013667987
-0.015551429
0.014495013
-0.018640885
0.015268542
-0.022187776
0.016033711
-0.026300108
0.01679295
-0.031050909
0.017528221
-0.036493696
0.018231276
-0.042713483
0.018883009
-0.049850486
0.019460764
-0.05801448
0.01995289
-0.067345779
0.020351504
-0.078006082
0.020648262
-0.090173243
0.020831337
-0.10402011
0.020882388
-0.11971576
0.020734825
-0.13724681
0.020334123
-0.15642035
0.019571497
-0.17671649
0.018404715
-0.19704182
0.017231713
-0.21883709
0.016176868
-0.24502853
0.015105763
-0.27548776
0.013969617
-0.3101921
0.012746356
-0.34967702
0.011423098
-0.39455109
0.0099805426
-0.44567822
0.0083972701
-0.50388803
0.0066438128
-0.57018307
0.0046867045
-0.64563688
0.0024872623
-0.7316801
-0.82966218
0.012253599
-0.013591277
-0.011437621
0.012977381
-0.016275109
0.013711878
-0.019375267
0.014475997
-0.022951757
0.015246612
-0.027070565
0.015992375
-0.031796502
0.016698466
-0.037199609
0.01735974
-0.043374578
0.017957252
-0.050447831
0.018479399
-0.058536486
0.018918546
-0.06778482
0.019268919
-0.078356382
0.019523121
-0.090427382
0.01966997
-0.10416687
0.019690799
-0.11973648
0.019514213
-0.13707014
0.019092739
-0.15599887
0.018307322
-0.17593101
0.017161932
-0.19589635
0.01607053
-0.21774558
0.015083116
-0.24404104
0.014073618
-0.2744782
0.013003893
-0.30912232
0.011854882
-0.34852792
0.010615672
-0.39331175
0.0092680657
-0.44433047
0.0077925823
-0.50241237
0.006161666
-0.56855185
0.0043442215
-0.64381935
0.0023044532
-0.72964039
-0.82735777
0.011374404
-0.014330541
-0.010635037
0.012138167
-0.017038761
0.012911101
-0.020148077
0.0136768
-0.023717316
0.014419667
-0.027813273
0.015125338
-0.032502
0.015784988
-0.037859078
0.016392565
-0.043981977
0.01693388
-0.050988981
0.017401052
-0.059003521
0.017788953
-0.068172619
0.018093285
-0.078660642
0.018307259
-0.09064129
0.018419757
-0.10427927
0.018406186
-0.11972278
0.018203944
-0.13686781
0.017772
-0.1555669
0.01697222
-0.17513115
0.015862069
-0.19478612
0.014851433
-0.21673485
0.013930279
-0.24311981
0.012985245
-0.2735331
0.011985815
-0.30812284
0.010915543
-0.34745755
0.009765395
-0.39216147
0.0085183032
-0.44308323
0.0071567333
-0.50105062
0.0056550865
-0.56704989
0.0039847402
-0.64214894
0.002112824
-0.72776855
-0.82524497
0.010478926
-0.015119216
-0.0096901167
0.01126299
-0.017822704
0.012032644
-0.020917599
0.012779904
-0.024464431
0.013493196
-0.028526401
0.014160929
-0.033169556
0.01477563
-0.038473595
0.015330958
-0.044537125
0.015818094
-0.051475954
0.016232611
-0.059417906
0.016571705
-0.068511615
0.016832379
-0.078921241
0.017008344
-0.090817176
0.01708823
-0.10435904
0.017041815
-0.11967624
0.016819906
-0.13664581
0.016380602
-0.15512754
0.015572443
-0.17432289
0.014509842
-0.19372343
0.013581571
-0.21580647
0.012727378
-0.24226555
0.011849376
-0.27265505
0.010923514
-0.30719692
0.0099357052
-0.34646963
0.0088787151
-0.39110434
0.0077366734
-0.44194104
0.0064940637
-0.49980781
0.0051273069
-0.56568283
0.0036103303
-0.64063191
0.0019132127
-0.72607151
-0.82333177
0.0095479376
-0.015922036
-0.0087450085
0.010331964
-0.018606617
0.011090707
-0.021676213
0.011814864
-0.025188438
0.012493194
-0.029204564
0.013117408
-0.033793588
0.013682561
-0.03903856
0.014184199
-0.045038581
0.01461773
-0.051909324
0.014981272
-0.059781319
0.015273668
-0.068803913
0.015492889
-0.079140377
0.015633104
-0.090957292
0.015682903
-0.10440873
0.015607883
-0.11960107
0.015373209
-0.13641105
0.014926769
-0.15468106
0.014115465
-0.17351149
0.013112284
-0.19272016
0.012265576
-0.21495966
0.011478346
-0.24147826
0.010669497
-0.27184614
0.0098201505
-0.30634752
0.0089182406
-0.34556762
0.0079582436
-0.39014421
0.006925552
-0.44090818
0.0058066746
-0.49868872
0.0045800949
-0.56445594
0.0032223486
-0.63927413
0.0017065339
-0.72455578
-0.82162525
0.0085850295
-0.016732886
-0.0077741182
0.0093639165
-0.0193854
0.010102458
-0.022414626
0.010792481
-0.025878306
0.011427094
-0.029838999
0.012001706
-0.034368009
0.012513502
-0.039550162
0.012960438
-0.045485333
0.013340922
-0.052289649
0.013654878
-0.060095151
0.013902358
-0.069051294
0.014082093
-0.079319993
0.014188851
-0.091063903
0.014211799
-0.10443158
0.014115223
-0.11950437
0.013877405
-0.13617319
0.013423209
-0.1542268
0.012609678
-0.17269785
0.011675507
-0.19178589
0.010908723