/*--------------------------------*- C++ -*----------------------------------*\
| =========                 |                                                 |
| \\      /  F ield         | OpenFOAM: The Open Source CFD Toolbox           |
|  \\    /   O peration     | Version:  2406                                  |
|   \\  /    A nd           | Website:  www.openfoam.com                      |
|    \\/     M anipulation  |                                                 |
\*---------------------------------------------------------------------------*/
FoamFile
{
    version     2.0;
    format      ascii;
    arch        "LSB;label=32;scalar=64";
    class       volScalarField;
    location    "0.003";
    object      nut;
}
// * * * * * * * * * * * * * * * * * * * * * * * * * * * * * * * * * * * * * //

dimensions      [0 2 -1 0 0 0 0];

internalField   nonuniform List<scalar> 
8260
(
0.035038388
0.039794606
0.045385384
0.051726168
0.058679455
0.06610103
0.073812796
0.081575973
0.089066134
0.095822387
0.10118929
0.1042537
0.10376071
0.098087506
0.085303751
0.063987796
0.036614724
0.016210312
0.0086299404
0.0068276545
0.0060616156
0.0054688086
0.0049853512
0.004678867
0.0045057906
0.0043766206
0.004305254
0.0042232716
0.0041780274
0.0041245243
0.0040932157
0.041433763
0.046330511
0.051725311
0.057688766
0.064187977
0.071117676
0.078311343
0.085530061
0.092443849
0.098583839
0.1032702
0.10556909
0.10420545
0.097553513
0.083708053
0.061519873
0.034025353
0.014900963
0.0083639755
0.0067251774
0.0060081733
0.0054394673
0.0049685927
0.0046697099
0.0045001033
0.0043734962
0.0043033157
0.0042222819
0.0041770468
0.0041242141
0.0040934563
0.048791407
0.053514488
0.05865911
0.064263608
0.070310374
0.076718215
0.083337157
0.089935711
0.096180896
0.10159335
0.10547857
0.10688026
0.10450268
0.096722397
0.081681627
0.058511983
0.031078391
0.013651703
0.0080515429
0.0066700016
0.0059801269
0.0054241095
0.0049604703
0.0046650907
0.0044971408
0.0043718117
0.0043022348
0.0042217675
0.0041763283
0.0041240453
0.0040936912
0.057206477
0.061565237
0.066338934
0.071512196
0.077053713
0.082883313
0.088856968
0.094747414
0.10021869
0.10478103
0.1077273
0.10808024
0.10452452
0.095446504
0.079061897
0.054838357
0.027795988
0.012500885
0.0078007907
0.0065851887
0.0059318398
0.0053966304
0.0049457047
0.0046563823
0.0044914408
0.0043684703
0.0043000652
0.0042207435
0.0041751578
0.0041237032
0.0040939266
0.066687957
0.07054147
0.074837292
0.079480653
0.08442837
0.089593348
0.094828474
0.09990407
0.10447795
0.10804937
0.10989785
0.10902696
0.10410442
0.093537488
0.075652104
0.050354495
0.024228201
0.011397406
0.0075456503
0.0065090122
0.0058890398
0.0053730939
0.0049329247
0.0046492871
0.004486952
0.0043658458
0.004298315
0.0042199002
0.0041740899
0.0041233772
0.0040941418
0.077081778
0.080372385
0.08409311
0.088105913
0.092357907
0.096753372
0.10113754
0.10527298
0.10880725
0.11122657
0.11179615
0.10950192
0.10299932
0.090734158
0.071195131
0.04490951
0.020499763
0.010356175
0.007342443
0.0064168621
0.005832929
0.0053413855
0.0049152115
0.0046391302
0.0044803713
0.0043619032
0.0042956908
0.0042185882
0.0041726477
0.0041228887
0.0040943416
0.088105333
0.09079986
0.093871645
0.097166121
0.1006227
0.10413744
0.10754635
0.11060129
0.11293663
0.11402337
0.11311152
0.10917169
0.10085473
0.08667378
0.065359339
0.03839341
0.017354416
0.0094233273
0.0071321525
0.0063241091
0.0057764299
0.0053103296
0.0048976611
0.0046296081
0.0044743682
0.0043582759
0.0042932095
0.0042172715
0.0041712257
0.0041223219
0.0040945287
0.09928814
0.10136147
0.10372588
0.10622708
0.1087963
0.11132066
0.11362582
0.11545114
0.11641588
0.11597436
0.1133615
0.10753711
0.097160763
0.080859924
0.057735627
0.030864901
0.014462389
0.0085970603
0.0069405771
0.0062190488
0.0057079963
0.0052720256
0.0048756255
0.0046173977
0.0044665025
0.0043534347
0.0042899106
0.0042154167
0.0041695435
0.0041215482
0.0040946901
0.10987158
0.11130259
0.11291106
0.11455434
0.11615368
0.11758516
0.11866198
0.11910877
0.11852767
0.11635576
0.11181548
0.10386533
0.0911973
0.072631754
0.047882803
0.022815829
0.011864257
0.007902324
0.0067479915
0.006109592
0.0056358456
0.0052318737
0.0048528572
0.0046052426
0.0044588012
0.0043486255
0.0042865284
0.0042135664
0.0041678072
0.0041206302
0.0040948049
0.11865438
0.11943325
0.12024719
0.12098003
0.12154096
0.12179222
0.12153086
0.12046288
0.11817069
0.11407503
0.10739375
0.097104469
0.081975188
0.06115859
0.035561189
0.017107618
0.0098756393
0.0074299863
0.0065683717
0.0059865732
0.0055518597
0.0051834988
0.0048257657
0.0045904288
0.0044491635
0.0043425622
0.0042822299
0.0042107661
0.0041656719
0.0041194911
0.0040948391
0.12382315
0.12394868
0.12394993
0.12374206
0.12321936
0.12222825
0.12054566
0.11785411
0.11371342
0.10753289
0.098546027
0.085795834
0.068199478
0.045557174
0.022622374
0.012558047
0.0084438342
0.0071693593
0.0063757293
0.0058531335
0.0054636802
0.0051311316
0.0047975073
0.0045754216
0.004439184
0.0043363236
0.0042775721
0.0042081157
0.0041626215
0.0041181636
0.0040948162
0.12269837
0.12215065
0.12134636
0.12020892
0.11860957
0.11637081
0.11324341
0.10887879
0.10281114
0.094458962
0.083130314
0.068052919
0.048314626
0.027449329
0.015000862
0.009657645
0.007666371
0.0068257539
0.0061745301
0.0057040305
0.0053647335
0.0050700462
0.0047643508
0.0045578792
0.0044268621
0.0043288217
0.0042718446
0.0042039973
0.0041594167
0.0041165433
0.0040948576
0.11137061
0.11019671
0.10864802
0.10664729
0.10404686
0.10064554
0.096163403
0.09017761
0.082178977
0.071703093
0.058363371
0.04220499
0.027564732
0.016391585
0.01043819
0.0081297333
0.0073636689
0.0066074922
0.0059571524
0.0055506989
0.0052630179
0.0050046843
0.0047290764
0.0045399488
0.0044140695
0.0043212122
0.0042654493
0.0041998615
0.0041553163
0.0041146036
0.0040949558
0.084417259
0.082731707
0.080576461
0.077892441
0.074511822
0.070251215
0.064935926
0.058547743
0.05105537
0.042417758
0.032887641
0.023275424
0.015459263
0.010507961
0.0083672638
0.0076118833
0.0068357904
0.0062330505
0.0057331967
0.0053977679
0.0051379912
0.0049300611
0.0046898659
0.0045172347
0.004399082
0.0043125794
0.0042577203
0.0041946256
0.0041506001
0.0041122644
0.0040949608
0.050681084
0.049394347
0.047805093
0.045847625
0.043364639
0.040255236
0.036464246
0.031976712
0.027053556
0.022159052
0.017244158
0.012796522
0.0096965136
0.0081477961
0.0074955486
0.0069968204
0.0065419156
0.0060285448
0.0055529679
0.0052354002
0.0050182075
0.004845579
0.0046465174
0.0044946641
0.0043836377
0.0043040957
0.0042489485
0.0041883128
0.0041448955
0.0041094807
0.004094793
0.025170126
0.024635682
0.023870786
0.022870078
0.021588754
0.020021064
0.018148676
0.01603463
0.013806293
0.011670421
0.0097700282
0.0082318441
0.0074385413
0.0071590368
0.0069328916
0.00655622
0.0060113767
0.005621014
0.0052950767
0.0050786449
0.0048917569
0.0047559537
0.0045942888
0.0044657232
0.0043661036
0.0042944451
0.0042387318
0.0041808596
0.0041385175
0.0041063129
0.0040943056
0.012290313
0.012145224
0.011864243
0.011465276
0.010958044
0.010365931
0.0096777475
0.0089190571
0.0081385535
0.0073906846
0.0069069536
0.0066322259
0.0066596287
0.0065430993
0.0061519361
0.0059170386
0.0057726025
0.0054162931
0.0051275479
0.0049342629
0.0047900774
0.0046665156
0.0045324192
0.0044384956
0.00434763
0.0042842545
0.0042271298
0.004172739
0.0041313832
0.004102837
0.0040928036
0.0073154391
0.007280847
0.0072002837
0.0070801307
0.0069139018
0.0067124566
0.0065125496
0.0063100004
0.0061897876
0.0061360503
0.0061221648
0.0060868469
0.0058738725
0.005580878
0.0056103801
0.0056078538
0.0053426624
0.0050867773
0.0049007485
0.0047590089
0.004679305
0.0045773877
0.0044726455
0.0043964507
0.0043262211
0.0042717582
0.0042131683
0.0041630677
0.0041234242
0.0040989668
0.0040904007
0.0056663362
0.0056497606
0.0056348852
0.0056254072
0.0056391586
0.0056362474
0.0056088311
0.0055794704
0.0055505177
0.0054709964
0.005428533
0.0053498243
0.0052659746
0.005190036
0.0050837904
0.0050015538
0.0050958211
0.0050046325
0.0047958907
0.0046390218
0.0045643778
0.0044824129
0.0044173111
0.0043569106
0.0043037685
0.004257154
0.0041970394
0.0041531444
0.0041149453
0.0040943407
0.0040873517
0.005216751
0.0052148523
0.0052210395
0.0052337757
0.0052381934
0.0052169597
0.0052071515
0.0051801771
0.0051158589
0.0050595078
0.0050234525
0.004976213
0.0049249134
0.0048514907
0.0047935077
0.0047476563
0.0047532602
0.0047453729
0.0046483492
0.0045254213
0.0044579238
0.0043878739
0.0043453636
0.0043176386
0.0042753786
0.0042370358
0.0041786765
0.0041414501
0.0041058664
0.0040885859
0.0040832741
0.0048661742
0.0048600721
0.0048466274
0.0048208072
0.0047898241
0.0047903504
0.0047809063
0.0047687463
0.0047578982
0.0047705193
0.0047557133
0.0047233346
0.0046425675
0.0046633111
0.0046260409
0.0045788326
0.0045337527
0.004590811
0.004598814
0.0044670885
0.0043792302
0.0043204692
0.0042863748
0.0042726684
0.0042468725
0.0042148723
0.004160131
0.0041283319
0.0040963339
0.0040822871
0.0040772017
0.0045609269
0.0045608352
0.0045602195
0.0045631138
0.0045716503
0.004568803
0.0045651786
0.0045578013
0.0045384838
0.0045003687
0.0044847456
0.0044734913
0.0044873341
0.0044479391
0.0044230726
0.0044500753
0.0044054071
0.0043786095
0.0043762104
0.0043758829
0.0043229365
0.0042658385
0.0042297417
0.004218789
0.0042087586
0.0041876043
0.0041401559
0.0041135058
0.0040869915
0.0040754172
0.0040700235
0.0043900664
0.0043891985
0.0043852483
0.0043752486
0.0043653961
0.0043643362
0.0043607905
0.0043560725
0.0043509129
0.0043452892
0.0043446416
0.0043441813
0.0043231324
0.0043354365
0.004322824
0.0042972123
0.004323732
0.0042948421
0.0042780154
0.0042945387
0.0042834519
0.0042360556
0.0041936896
0.0041701234
0.0041728764
0.0041534235
0.0041219675
0.0040979872
0.0040782104
0.0040679011
0.0040637533
0.0042536942
0.0042552599
0.0042559415
0.004257468
0.0042602508
0.0042617208
0.0042618764
0.0042608389
0.0042569834
0.0042485369
0.0042368542
0.0042284167
0.0042317498
0.0042214601
0.0042302873
0.0042239575
0.0042213008
0.0042377412
0.0042177429
0.0042075145
0.0042061094
0.0041974016
0.0041718089
0.0041385985
0.0041304664
0.0041159931
0.0041052156
0.0040828217
0.0040707968
0.004061813
0.004054815
0.0041788583
0.0041799077
0.0041791442
0.004176357
0.004172234
0.0041685162
0.0041664764
0.0041650003
0.0041640216
0.0041633201
0.0041625805
0.0041647009
0.0041627894
0.0041688906
0.0041624654
0.0041628202
0.0041621835
0.0041622446
0.0041699868
0.0041669232
0.0041562291
0.004150275
0.0041409239
0.0041193869
0.0041089413
0.0040925293
0.0040906785
0.0040724699
0.0040646119
0.0040567831
0.0040482116
0.0041160242
0.0041173179
0.0041174863
0.0041170195
0.0041167778
0.0041177296
0.0041193422
0.0041204525
0.0041214952
0.0041220995
0.0041218713
0.0041208238
0.0041227973
0.0041241368
0.0041239364
0.0041231709
0.0041233937
0.0041231602
0.0041206936
0.0041202934
0.0041182911
0.0041114733
0.0041026792
0.0040945953
0.0040924659
0.0040801314
0.0040756312
0.0040666252
0.0040591159
0.0040501834
0.0040451984
0.0040843624
0.0040853249
0.0040851514
0.0040843529
0.0040833481
0.0040821998
0.0040808856
0.0040803667
0.0040803691
0.0040809712
0.0040822103
0.0040839366
0.0040861032
0.0040890373
0.004096286
0.004101766
0.0041007428
0.0040996555
0.0040996612
0.0040966142
0.004097201
0.0040941685
0.0040834732
0.0040829736
0.0040749745
0.0040730362
0.004064716
0.0040615673
0.004052868
0.0040461644
0.0040434368
0.0040583527
0.0040588309
0.0040587058
0.0040585006
0.0040585394
0.0040587143
0.0040589839
0.0040593873
0.0040600345
0.0040610543
0.0040629774
0.0040647205
0.0040660571
0.0040674446
0.0040673853
0.0040691054
0.0040725469
0.00407741
0.0040820512
0.0040822507
0.0040796216
0.0040799077
0.0040732873
0.004071944
0.0040653351
0.0040668454
0.0040593347
0.0040550571
0.0040476841
0.0040436328
0.0040415192
0.0040484354
0.004048684
0.0040484319
0.0040482034
0.0040481831
0.0040482681
0.004048391
0.0040485395
0.0040487
0.0040488777
0.0040491318
0.0040495969
0.004050369
0.0040514119
0.0040529321
0.0040545841
0.0040562448
0.0040572502
0.004057164
0.004057737
0.0040593594
0.0040596202
0.0040626914
0.0040602115
0.0040593727
0.0040565912
0.0040542599
0.0040482033
0.0040437949
0.0040409283
0.0040377499
0.0040426734
0.0040427453
0.0040426498
0.0040426165
0.0040426574
0.0040427382
0.004042849
0.004042979
0.0040431086
0.0040432359
0.004043423
0.0040437885
0.0040443681
0.004045083
0.0040456219
0.0040460046
0.0040463908
0.0040466575
0.0040469338
0.0040475563
0.0040482819
0.0040484407
0.0040488471
0.0040470247
0.004049278
0.0040474612
0.0040462471
0.0040444431
0.0040407795
0.00403713
0.0040361412
0.0040363428
0.0040363921
0.0040364686
0.0040365904
0.0040367588
0.004036967
0.0040372279
0.004037569
0.0040380177
0.0040385809
0.0040392249
0.0040398307
0.0040404725
0.0040411424
0.0040415418
0.0040418141
0.0040416054
0.0040416519
0.0040421199
0.0040427968
0.0040436013
0.0040438283
0.004043371
0.004041649
0.0040429015
0.0040430284
0.0040420979
0.0040407251
0.0040398729
0.00403928
0.0040385398
0.00077725151
0.0016768029
0.003352699
0.0058682407
0.0092033644
0.013443171
0.018662875
0.024910968
0.032352162
0.040446553
0.049398936
0.058854087
0.068190096
0.076418777
0.08202644
0.08282639
0.075882302
0.059039156
0.035772225
0.016914852
0.0087175629
0.0062486061
0.0053641988
0.0049124156
0.0046587118
0.0044638393
0.0043397449
0.0042394172
0.0041930549
0.004124095
0.004081447
0.001899086
0.0038119013
0.0063499714
0.0093841464
0.013089117
0.017578148
0.022926109
0.029397123
0.036638317
0.044701541
0.053506045
0.062649355
0.071466615
0.078915538
0.083429631
0.08278748
0.074088039
0.055693987
0.032069805
0.014936265
0.008097674
0.0060626096
0.0052992554
0.004880511
0.004640382
0.0044538549
0.0043358818
0.0042378182
0.0041922141
0.0041238979
0.0040819088
0.0035223907
0.0056067518
0.0081746625
0.011386339
0.015374361
0.02022461
0.026031672
0.03273656
0.040176199
0.048373086
0.057131532
0.066026742
0.074362533
0.081053522
0.084490926
0.082435621
0.072054816
0.052331586
0.028863507
0.013298137
0.0076041895
0.0059815732
0.005269554
0.0048651268
0.004631497
0.0044488856
0.0043339957
0.004236943
0.0041918411
0.0041238346
0.0040823782
0.0051150531
0.0073952611
0.010276339
0.013840298
0.018132838
0.023250414
0.02932925
0.036081528
0.043632873
0.051870604
0.060529449
0.069146336
0.076981815
0.082903793
0.085263389
0.081814766
0.069822226
0.048992966
0.025966775
0.012049042
0.0072671998
0.0058888217
0.0052253398
0.00484065
0.0046165358
0.0044406729
0.004331033
0.0042356912
0.0041911831
0.0041237435
0.0040828506
0.0066685854
0.0092668102
0.012460031
0.016295604
0.020856477
0.026261771
0.032417315
0.039336751
0.046995347
0.05523403
0.063754759
0.072060649
0.079370041
0.084506132
0.085784091
0.080963391
0.06742845
0.045720568
0.023331896
0.010981029
0.0070096077
0.005826379
0.0051970879
0.0048252227
0.0046073015
0.0044354476
0.0043292531
0.0042348382
0.0041907111
0.0041237558
0.004083325
0.0083136477
0.011183076
0.014624653
0.018704743
0.023566028
0.029181222
0.035490376
0.042552592
0.050278225
0.058478946
0.066827599
0.074792841
0.081552263
0.08588751
0.086082838
0.07991372
0.064913221
0.042519565
0.020975958
0.010109968
0.0068199683
0.00576291
0.0051627993
0.0048055494
0.0045951496
0.0044285261
0.0043268493
0.0042337638
0.0041900806
0.0041237407
0.0040838029
0.0099134026
0.013039044
0.016747373
0.021117934
0.026231721
0.032015257
0.038515232
0.045702951
0.053468736
0.061603766
0.069753864
0.077354504
0.083545083
0.087069367
0.086185668
0.078692496
0.062317626
0.039410924
0.018897281
0.0093925645
0.0066643671
0.0057139374
0.005137367
0.0047911596
0.004586381
0.0044234111
0.0043251875
0.0042329486
0.0041895403
0.0041237952
0.0040842875
0.01146245
0.014870537
0.018857543
0.023540552
0.028841273
0.034823479
0.041487043
0.048774703
0.056557675
0.064604904
0.072535517
0.079753316
0.085362083
0.088071171
0.086117314
0.077336422
0.059678469
0.036434497
0.017078947
0.0088157382
0.0065476796
0.0056672899
0.005110114
0.0047751086
0.0045763812
0.0044175438
0.004323194
0.0042320209
0.0041889185
0.0041238415
0.004084782
0.013008077
0.016682682
0.020950166
0.025878797
0.031393051
0.037571719
0.044383985
0.051754607
0.059536909
0.067478698
0.075173844
0.081996238
0.087016484
0.088912498
0.085902802
0.075873367
0.057027159
0.033631672
0.015524698
0.0083577922
0.0064518115
0.005628708
0.0050881766
0.0047622961
0.0045684349
0.0044128534
0.0043216451
0.0042312638
0.0041883389
0.0041239219
0.0040852887
0.014505824
0.018449079
0.023005077
0.028141843
0.033884383
0.040249124
0.047195641
0.054633691
0.062400005
0.070222396
0.077670831
0.084090958
0.088522508
0.089614531
0.085574558
0.074332227
0.054402456
0.031037183
0.014248808
0.0080010029
0.0063762899
0.0055934177
0.0050664142
0.0047491353
0.0045600912
0.0044079721
0.0043199288
0.0042304574
0.0041877177
0.0041239972
0.0040858097
0.015986669
0.020189197
0.024998326
0.030348373
0.036309424
0.042846186
0.049912364
0.057403842
0.065141535
0.072834321
0.080029592
0.086046378
0.089895778
0.090200339
0.08516732
0.07275982
0.05184154
0.028679948
0.013219234
0.0077263931
0.0063131202
0.0055636269
0.0050482237
0.0047381107
0.0045530504
0.0044039384
0.004318474
0.0042297626
0.0041871158
0.0041240809
0.0040863506
0.017423732
0.021889382
0.026917338
0.03249509
0.038658937
0.045352221
0.052524814
0.060057703
0.067756972
0.075313817
0.082254349
0.08787251
0.091152968
0.090698199
0.084710951
0.071196428
0.049371202
0.02657953
0.012382468
0.0075182661
0.0062613378
0.0055373239
0.0050311466
0.0047273887
0.0045460362
0.0044000111
0.0043169504
0.0042290518
0.0041864912
0.0041241546
0.0040869222
0.018833177
0.023538733
0.028780916
0.034572736
0.040913763
0.04775698
0.055024928
0.062588576
0.070242566
0.077661038
0.084350147
0.089580296
0.092312669
0.091128728
0.084231313
0.069673926
0.0470131
0.024747743
0.011714451
0.0073664305
0.0062172565
0.0055153051
0.0050167983
0.0047182221
0.0045399415
0.0043967127
0.0043155962
0.0042284147
0.0041858742
0.004124224
0.0040875267
0.020212447
0.025134363
0.030585506
0.036573473
0.043066389
0.05005386
0.057404028
0.064989943
0.072595654
0.079878313
0.086324363
0.091185675
0.09339216
0.09151075
0.083752816
0.06821931
0.04480078
0.023187691
0.011195354
0.0072632675
0.0061802811
0.0054966249
0.0050040225
0.0047096962
0.0045341257
0.0043936193
0.0043142452
0.0042277806
0.0041852448
0.0041242856
0.0040881508
0.021570555
0.026682668
0.03232673
0.038492551
0.045142818
0.052216807
0.059657349
0.067259797
0.074816582
0.081972549
0.088187778
0.092698895
0.094408969
0.091873597
0.083308091
0.066860857
0.042759303
0.021892439
0.010806154
0.0071819196
0.006148857
0.0054814941
0.0049935939
0.0047024375
0.0045290581
0.004390965
0.0043130341
0.0042271913
0.0041846179
0.0041243542
0.0040887821
0.022885456
0.028176695
0.033995271
0.04031865
0.04710442
0.05428389
0.061753952
0.069394155
0.076904389
0.083937941
0.089940053
0.094126823
0.095381971
0.092243427
0.082930839
0.06562804
0.040911178
0.020858048
0.010531015
0.0071150951
0.0061228646
0.0054696114
0.0049847663
0.004695992
0.0045244213
0.0043884992
0.0043118798
0.0042266053
0.0041839853
0.0041244242
0.0040893995
0.024096587
0.029569108
0.035555331
0.042026302
0.048934109
0.056206011
0.063725983
0.071344462
0.078824211
0.085765063
0.091578846
0.095481582
0.096327846
0.092644457
0.082651289
0.064553347
0.039324013
0.020022512
0.010267241
0.0070479796
0.0061015437
0.0054608624
0.0049779522
0.0046906683
0.0045204161
0.0043863504
0.0043108374
0.0042260561
0.004183352
0.0041244392
0.0040900012
0.025183453
0.030799872
0.036931469
0.043537791
0.050566012
0.057934523
0.065522667
0.073159579
0.080591713
0.087424631
0.093104704
0.0967719
0.097261957
0.093098831
0.082497489
0.063673416
0.038024147
0.019335614
0.010032762
0.0069909159
0.0060845651
0.005454948
0.004972808
0.0046862266
0.0045168645
0.0043844004
0.0043098642
0.0042255282
0.0041827151
0.004124437
0.0040905395
0.026330407
0.032008818
0.038217022
0.044910572
0.052024527
0.05946966
0.067118533
0.07478988
0.082213976
0.088988819
0.094531923
0.097977285
0.098195552
0.093626061
0.082495114
0.063024749
0.037013346
0.018770488
0.0098111312
0.0069398315
0.0060714737
0.0054516295
0.0049695102
0.0046827989
0.0045138708
0.0043827127
0.0043089951
0.0042250496
0.0041820769
0.0041244483
0.0040910198
0.02746498
0.033182994
0.039429299
0.046166785
0.053330275
0.06082688
0.068521849
0.07622645
0.083658202
0.090401733
0.095861384
0.099166058
0.099143008
0.094220473
0.08266507
0.062642845
0.036289928
0.018305298
0.0096023487
0.0068986156
0.0060619875
0.0054505785
0.0049679783
0.0046802823
0.0045113687
0.004381238
0.0043082198
0.0042246244
0.0041814334
0.0041244747
0.0040914433
0.028565418
0.034291046
0.040543435
0.047292306
0.054474985
0.062000987
0.069728927
0.077465559
0.084919326
0.091659743
0.097080473
0.10029724
0.10011197
0.094946078
0.083016167
0.062558882
0.035861363
0.01791558
0.0093982207
0.0068680772
0.006056095
0.0054514844
0.0049684461
0.0046787559
0.0045094305
0.0043800143
0.004307556
0.0042242701
0.0041807779
0.0041245117
0.0040918238
0.029622236
0.035320211
0.041543206
0.048271402
0.055444071
0.062980242
0.070752264
0.078543662
0.086049424
0.092817249
0.098219873
0.10138762
0.10110622
0.095778344
0.083585925
0.062795257
0.035749517
0.017572301
0.0091933205
0.0068520733
0.0060539593
0.0054548563
0.0049709554
0.004678163
0.0045080195
0.0043790054
0.0043069752
0.0042239767
0.0041800965
0.0041245437
0.0040922119
0.030642269
0.036251066
0.042392825
0.049065378
0.056232722
0.06379803
0.071610058
0.079442646
0.086974551
0.093775995
0.09921562
0.10240305
0.10211157
0.096720177
0.084363148
0.063363194
0.035983956
0.017232273
0.0089889937
0.0068432182
0.006055436
0.0054596096
0.0049753673
0.0046783008
0.0045070943
0.0043781744
0.004306439
0.0042237318
0.0041793762
0.0041245551
0.00409259
0.03162896
0.037055945
0.043022759
0.049556967
0.056646488
0.064183402
0.072006344
0.079886217
0.087499112
0.094392301
0.099927962
0.10320308
0.10297488
0.097604866
0.085177488
0.06406705
0.036479881
0.016842077
0.0087812619
0.006841312
0.0060582448
0.0054647791
0.0049809672
0.0046787872
0.004506477
0.0043774193
0.0043058865
0.0042235212
0.0041786205
0.0041245281
0.0040929914
0.00079105505
0.0016147412
0.0031925097
0.0055727993
0.0087394167
0.012725242
0.017655719
0.02363085
0.030828585
0.038750571
0.047586314
0.05701364
0.066438822
0.074928498
0.08101606
0.082549983
0.076582246
0.060639677
0.037544873
0.017766551
0.0089031846
0.0062986435
0.0053844434
0.0049242724
0.0046663288
0.0044677934
0.0043413263
0.0042401352
0.004193197
0.0041241226
0.0040811946
0.00083527091
0.0016503969
0.0032002026
0.0055145678
0.008600068
0.012522313
0.017379979
0.023267794
0.03033402
0.038183049
0.046884716
0.056198221
0.065591724
0.074132271
0.080383267
0.082223214
0.076737409
0.061342974
0.038472342
0.018282503
0.0090396467
0.0063282322
0.0053971617
0.0049321037
0.0046715655
0.0044705081
0.0043418362
0.0042401906
0.0041931939
0.0041241265
0.00408083
0.00088706423
0.0016871977
0.0032157752
0.0054891668
0.0085181471
0.012364897
0.017125791
0.022901553
0.029807832
0.037546813
0.046137529
0.055364093
0.064716414
0.073301138
0.079712278
0.081861661
0.076867287
0.062053532
0.03943692
0.018848925
0.0091912073
0.006360032
0.0054107499
0.004941262
0.0046778526
0.00447322
0.0043426265
0.0042402643
0.0041932303
0.0041237691
0.0040804772
0.00094915965
0.001729084
0.003231245
0.0054632815
0.0084349145
0.012205882
0.016870026
0.022527518
0.029280192
0.036902152
0.045376324
0.054507595
0.063813161
0.072434802
0.079001759
0.081462741
0.076968781
0.062765253
0.040433622
0.019468852
0.0093532372
0.0063955585
0.0054253837
0.0049498453
0.0046833408
0.0044763099
0.0043426794
0.0042403643
0.0041929711
0.0041241804
0.0040803885
0.0010208122
0.0017784555
0.003249065
0.0054387726
0.0083530254
0.0120483
0.016615301
0.022150063
0.02875291
0.036251789
0.044603306
0.053631991
0.062883274
0.071533828
0.078251053
0.081023956
0.077037822
0.063469259
0.041458689
0.020146028
0.0095438553
0.006433978
0.0054417054
0.0049617794
0.004691644
0.0044794361
0.004344417
0.0042413797
0.004193596
0.004124029
0.0040799391
0.0011144992
0.001837715
0.0032751318
0.0054217953
0.0082782998
0.011897338
0.016366491
0.021780882
0.02822934
0.035598843
0.043820678
0.052739595
0.061928073
0.070598913
0.077459585
0.080542369
0.077064682
0.064155518
0.042513104
0.020867178
0.0097449703
0.0064772607
0.0054589595
0.0049714413
0.0046973229
0.0044829442
0.004345433
0.0042415079
0.0041935479
0.004123854
0.0040794651
0.0012347592
0.0019209033
0.0033146774
0.0054149969
0.0082122373
0.011753746
0.016123694
0.021415647
0.027711517
0.034942772
0.04302881
0.051830463
0.060946504
0.069627473
0.076622398
0.080010715
0.077069105
0.064855186
0.043652682
0.021668462
0.0099815584
0.0065241428
0.0054776407
0.0049836454
0.0047052973
0.0044866491
0.0043462999
0.0042416384
0.0041933394
0.004123657
0.0040789683
0.0013803318
0.0020256331
0.0033760214
0.0054289503
0.0081666828
0.011630515
0.015901105
0.021070511
0.027219439
0.034302672
0.042246099
0.050922676
0.05995509
0.068636098
0.075755366
0.07944465
0.077031491
0.065543376
0.04484526
0.022540665
0.010241123
0.0065763559
0.0054979348
0.0049969246
0.0047137428
0.004490614
0.0043472628
0.0042417728
0.0041930461
0.0041234284
0.0040784509
0.00155605
0.0021595978
0.0034703886
0.0054725364
0.0081481078
0.011532162
0.015701175
0.020744503
0.026732293
0.033672926
0.041468151
0.050011184
0.058948141
0.067618547
0.074850334
0.078832345
0.076947716
0.066211623
0.046065438
0.023487858
0.010537951
0.0066330248
0.0055194416
0.0050109917
0.004722932
0.0044948214
0.004348167
0.0042419149
0.0041927122
0.0041231492
0.0040779164
0.0017690054
0.0023374283
0.0036010422
0.0055543986
0.0081658541
0.011467187
0.015531422
0.020444897
0.02627297
0.03306023
0.040700636
0.049101831
0.05794153
0.066579198
0.073909319
0.078173321
0.076814108
0.066846589
0.047311407
0.024513146
0.010868186
0.0066979281
0.0055431782
0.0050267105
0.0047325303
0.004499294
0.0043492429
0.0042420755
0.0041922407
0.0041228195
0.0040773694
0.002024728
0.0025697743
0.0037993377
0.005687968
0.0082294773
0.011444012
0.015399398
0.020179662
0.025853291
0.032476765
0.039950389
0.048199837
0.056926515
0.065521509
0.072934814
0.077467606
0.076627197
0.067441491
0.048557531
0.025614403
0.011241172
0.0067671592
0.0055679863
0.0050426669
0.0047432337
0.0045041516
0.0043501199
0.0042422372
0.0041917535
0.0041224215
0.0040768154
0.0023365735
0.0028670912
0.0040514127
0.0058831404
0.0083490309
0.011471004
0.015313146
0.019955152
0.025471813
0.031920613
0.039222582
0.047310614
0.055909467
0.064449607
0.071929849
0.076715884
0.076384046
0.067986479
0.04979505
0.026794629
0.011658544
0.0068487177
0.0055956518
0.0050612749
0.0047541625
0.0045091105
0.0043513336
0.0042423928
0.0041910304
0.0041219779
0.0040762589
0.0027173347
0.0032404912
0.004370901
0.0061432519
0.0085299869
0.011554089
0.015278444
0.019776262
0.025130546
0.031386038
0.038520487
0.046439513
0.054898808
0.063367969
0.070897975
0.07591962
0.076082975
0.068471734
0.051031719
0.028053667
0.012127414
0.0069437964
0.0056246328
0.0050793518
0.0047665277
0.0045148228
0.004352166
0.0042426277
0.0041903184
0.0041214616
0.0040756995
0.0031720039
0.0036887681
0.0047771033
0.0064805563
0.0087733288
0.011693646
0.015296225
0.019646871
0.024834179
0.030904411
0.037852052
0.045592369
0.053899842
0.062278548
0.069843107
0.075081097
0.07572338
0.068891006
0.05225698
0.029387827
0.012651106
0.0070521732
0.0056565053
0.0051006371
0.0047791113
0.0045202198
0.004353609
0.0042427304
0.0041892101
0.0041208934
0.0040751441
0.0037253412
0.0042219837
0.0052539625
0.0068719914
0.0090735438
0.011886535
0.015364402
0.019567079
0.024584006
0.030470532
0.037236184
0.044777366
0.052918991
0.061192681
0.068770855
0.074203554
0.075305747
0.069238979
0.053470587
0.030793623
0.013236754
0.007176483
0.0056911638
0.0051222547
0.0047927302
0.004526914
0.004354594
0.0042428838
0.0041880855
0.0041202514
0.0040745966
0.0043826274
0.0048411815
0.005796171
0.0073146277
0.0094211062
0.012125035
0.015477284
0.019533439
0.024378763
0.030079135
0.036638364
0.043993015
0.051962189
0.060129181
0.067688223
0.073291096
0.074831949
0.069513409
0.054653641
0.032266076
0.013886494
0.0073155584
0.0057275876
0.0051444228
0.0048076075
0.0045330357
0.0043563945
0.004242936
0.0041864959
0.0041196112
0.0040740586
0.0051250901
0.0055364759
0.0064028921
0.0078160128
0.0098096562
0.012399677
0.015626382
0.019539331
0.024214517
0.02972836
0.03607911
0.043241691
0.051031705
0.05906882
0.066598544
0.072347791
0.074303861
0.069720037
0.055803361
0.033797004
0.014613568
0.0074766934
0.005768609
0.005171955
0.0048214146
0.0045403376
0.0043578805
0.0042430008
0.0041846954
0.0041190772
0.0040735242
0.0059335656
0.0062891411
0.0070584993
0.008353645
0.010226773
0.012699137
0.015801624
0.019576368
0.024086311
0.029418593
0.035575845
0.042541732
0.050134665
0.058024068
0.065506227
0.071377207
0.073719346
0.069856427
0.056917042
0.035414074
0.015416555
0.0076566094
0.0058119517
0.005193991
0.0048390983
0.0045483292
0.0043597722
0.0042429235
0.0041828232
0.0041187224
0.0040729817
0.0067553007
0.0070674636
0.007741906
0.0089150929
0.010663076
0.013013345
0.01599344
0.019636167
0.023988552
0.029146038
0.035112285
0.041874989
0.049271764
0.05700101
0.064403604
0.070381656
0.073078826
0.069908836
0.057953454
0.037054135
0.016335389
0.007863183
0.0058575321
0.0052250096
0.0048527253
0.0045552746
0.004361997
0.0042426384
0.0041801725
0.0041186404
0.0040724138
0.0075505389
0.0078349246
0.008435913
0.0094929492
0.011106935
0.013336913
0.016196496
0.019713248
0.023916864
0.028906681
0.034682974
0.041226814
0.048438329
0.056005272
0.063328328
0.069370801
0.072386665
0.06987719
0.05890415
0.038663509
0.017361351
0.0081017419
0.0059113413
0.0052544667
0.0048719101
0.0045656012
0.0043632936
0.0042420867
0.0041782543
0.0041187541
0.0040717954
0.0082232811
0.0085071333
0.009073954
0.010049049
0.011556948
0.013669042
0.016411686
0.019808242
0.023871695
0.028701902
0.034296125
0.040644663
0.047672775
0.055052526
0.062286585
0.068353435
0.071648887
0.069762792
0.059759265