/*--------------------------------*- C++ -*----------------------------------*\
| =========                 |                                                 |
| \\      /  F ield         | OpenFOAM: The Open Source CFD Toolbox           |
|  \\    /   O peration     | Version:  2406                                  |
|   \\  /    A nd           | Website:  www.openfoam.com                      |
|    \\/     M anipulation  |                                                 |
\*---------------------------------------------------------------------------*/
FoamFile
{
    version     2.0;
    format      ascii;
    arch        "LSB;label=32;scalar=64";
    class       volScalarField;
    location    "0.003";
    object      Ma;
}
// * * * * * * * * * * * * * * * * * * * * * * * * * * * * * * * * * * * * * //

dimensions      [0 0 0 0 0 0 0];

internalField   nonuniform List<scalar> 
8951
(
0.08107225
0.081282115
0.081561594
0.081886056
0.082253818
0.082659009
0.083094928
0.083554867
0.08403239
0.084521744
0.085017125
0.085511585
0.085992778
0.086456464
0.08689409
0.087297781
0.087672983
0.088001005
0.088291018
0.088540388
0.08872162
0.08885545
0.088938286
0.088946838
0.088898312
0.088783468
0.088602315
0.088355388
0.088044499
0.087673341
0.087247016
0.086770804
0.08625275
0.085703049
0.085131261
0.084554729
0.083984827
0.083429143
0.082906033
0.0824274
0.081998669
0.081631626
0.081332456
0.08110442
0.080949498
0.080870824
0.080863486
0.080926108
0.081067462
0.081283227
0.081568028
0.081918545
0.082331601
0.082802759
0.083328981
0.083907098
0.084533992
0.08520713
0.085923743
0.086681633
0.087478751
0.088313164
0.089182938
0.090086062
0.091020579
0.091984413
0.092975312
0.093990894
0.095028796
0.09608672
0.097162034
0.098251926
0.099354207
0.10046734
0.10158985
0.10272036
0.10385779
0.10500094
0.10614842
0.1072991
0.10845171
0.10960484
0.11075709
0.11190698
0.11305294
0.11419331
0.11532636
0.1164502
0.1175629
0.11866245
0.11974686
0.12081375
0.12186063
0.12288622
0.12388966
0.12486961
0.12582496
0.12675495
0.12765927
0.1285381
0.12939204
0.13022215
0.13102982
0.13181684
0.13258529
0.1333375
0.13407604
0.13480356
0.13552289
0.13623685
0.13694822
0.13765959
0.13837319
0.13909084
0.13981383
0.14054262
0.14127706
0.1420162
0.14275832
0.14350091
0.14424032
0.14497156
0.1456878
0.14637994
0.14703806
0.14765258
0.14821536
0.14872239
0.14917225
0.14955507
0.14985117
0.15004585
0.15013383
0.15015124
0.15013494
0.15010423
0.15008897
0.15009585
0.15013591
0.15022743
0.15031158
0.1504006
0.15049356
0.15058757
0.15068021
0.15077122
0.15085926
0.15094653
0.15103013
0.15110837
0.15118084
0.151247
0.1513105
0.15137122
0.15142711
0.15147795
0.15152159
0.15155795
0.15159006
0.15161727
0.15164013
0.15165733
0.15166769
0.15166941
0.15166623
0.15165354
0.15163564
0.15161636
0.15160649
0.15158957
0.15157369
0.1515552
0.15153746
0.15152572
0.15151374
0.15151086
0.15150115
0.078062273
0.078228315
0.078492759
0.078809402
0.079169575
0.079570757
0.080006386
0.080470973
0.080958801
0.081464094
0.081981532
0.08250559
0.083029132
0.083542357
0.084040665
0.084516093
0.084963776
0.085384105
0.085762613
0.086108723
0.086411016
0.086651992
0.086851798
0.086995268
0.087069808
0.087085168
0.087039629
0.086926768
0.086749393
0.086508152
0.086207507
0.085852025
0.085447201
0.085001477
0.084525116
0.084028373
0.083528801
0.08303647
0.082558599
0.082115079
0.081716198
0.081366221
0.081077955
0.080855791
0.080702437
0.080619551
0.080607314
0.080661638
0.080792774
0.080997892
0.081270426
0.081607323
0.082006219
0.082463747
0.082975478
0.083538507
0.084149777
0.084806489
0.085506324
0.086246697
0.087025616
0.087841202
0.088691667
0.089575219
0.090489992
0.091434155
0.092405746
0.093402637
0.094422596
0.095463408
0.096522886
0.097598541
0.098687766
0.099788518
0.1008993
0.10201867
0.10314526
0.10427798
0.10541562
0.10655685
0.10770057
0.10884555
0.10999046
0.11113394
0.11227459
0.11341088
0.11454123
0.11566395
0.11677723
0.11787917
0.11896784
0.12004126
0.12109705
0.12213289
0.12314768
0.12414049
0.12510998
0.12605509
0.12697508
0.12786969
0.1287391
0.12958394
0.13040525
0.1312044
0.13198317
0.1327436
0.13348799
0.13421884
0.13493877
0.13565053
0.13635689
0.13706055
0.13776403
0.13846948
0.13917867
0.13989278
0.14061225
0.14133686
0.14206564
0.14279686
0.14352802
0.14425545
0.14497423
0.14567765
0.14635693
0.14700263
0.14760576
0.14815884
0.14865838
0.14910343
0.14948505
0.14978501
0.14998826
0.15008865
0.15011637
0.1501088
0.15008811
0.15007722
0.15008761
0.15013681
0.15022947
0.15031293
0.15040197
0.150495
0.15058906
0.15068178
0.15077282
0.15086084
0.15094796
0.15103126
0.15110934
0.1511818
0.15124795
0.15131139
0.15137206
0.1514278
0.15147845
0.15152199
0.15155834
0.15159032
0.1516174
0.15164014
0.15165729
0.15166758
0.15166927
0.15166608
0.15165344
0.15163575
0.1516165
0.15160637
0.1515893
0.1515733
0.15155481
0.15153719
0.15152559
0.15151365
0.15151075
0.1515008
0.075105211
0.075341091
0.075648834
0.076002244
0.076398734
0.076833729
0.077300692
0.077795316
0.078312625
0.078847443
0.079394908
0.079949765
0.080505316
0.081053597
0.081589823
0.082107029
0.082601641
0.083070922
0.0835043
0.08390809
0.084267717
0.084574152
0.084840237
0.085048177
0.085192395
0.085278687
0.085301433
0.085261789
0.0851568
0.084988289
0.08476171
0.084480366
0.084150273
0.083780227
0.083380585
0.082962306
0.082542726
0.082130647
0.081733199
0.081371853
0.081054498
0.08078495
0.08057675
0.080431609
0.080352198
0.080339326
0.080391322
0.080515427
0.080712332
0.080976432
0.081303046
0.081690373
0.082135562
0.082635103
0.083184993
0.083782461
0.084424725
0.085109186
0.08583363
0.086595806
0.087393882
0.088226144
0.089090952
0.089986654
0.090911528
0.091863869
0.09284183
0.093843414
0.094866536
0.095909127
0.096969114
0.098044152
0.099131825
0.10023022
0.10133789
0.10245339
0.1035754
0.10470279
0.10583436
0.10696883
0.10810513
0.10924208
0.11037839
0.11151278
0.11264388
0.11377025
0.11489033
0.11600252
0.11710503
0.11819605
0.11927368
0.12033598
0.12138053
0.12240525
0.12340917
0.12439128
0.12535025
0.12628505
0.12719499
0.12807984
0.12893979
0.12977548
0.13058794
0.13137853
0.132149
0.13290136
0.13363787
0.13436098
0.13507326
0.13577739
0.13647609
0.13717198
0.13786752
0.13856478
0.13926545
0.13997065
0.14068077
0.14139556
0.14211401
0.14283439
0.14355418
0.14426976
0.14497623
0.14566704
0.14633373
0.14696735
0.14755945
0.1481032
0.14859555
0.14903598
0.14941646
0.14972005
0.14993142
0.15004366
0.15008239
0.15008242
0.15007139
0.15006509
0.15007958
0.15013913
0.15023119
0.15031415
0.15040329
0.15049644
0.15059056
0.15068338
0.15077444
0.15086244
0.1509494
0.15103242
0.15111035
0.15118279
0.15124892
0.15131231
0.15137293
0.15142852
0.15147897
0.15152243
0.15155876
0.15159062
0.15161757
0.15164018
0.15165729
0.15166751
0.15166918
0.15166596
0.15165342
0.15163589
0.15161668
0.15160629
0.15158908
0.15157297
0.15155448
0.15153698
0.1515255
0.15151361
0.15151067
0.1515005
0.072123978
0.072414152
0.072761946
0.073153292
0.07358634
0.074055345
0.074554565
0.075080495
0.075628699
0.076194664
0.076774036
0.077361963
0.077952388
0.07853869
0.079116186
0.079678868
0.080223433
0.080745487
0.081237145
0.081701037
0.08212257
0.082497594
0.082831419
0.083107844
0.083325044
0.083484401
0.083581243
0.083613794
0.083584549
0.083491716
0.083342135
0.083137724
0.082885304
0.082594011
0.082274205
0.08193754
0.081600609
0.081271209
0.080956713
0.080679825
0.080445353
0.080257858
0.080129956
0.080060413
0.080053556
0.080108428
0.080232152
0.080423975
0.08068191
0.08100209
0.081381042
0.081816507
0.082305513
0.082844687
0.083430406
0.084060064
0.084731119
0.085441196
0.086188258
0.086970321
0.087785719
0.088632907
0.089510389
0.090416655
0.091350126
0.092309219
0.093292207
0.094297227
0.095322339
0.096365614
0.097425098
0.098498587
0.099583844
0.10067908
0.10178286
0.1028938
0.10401056
0.10513202
0.10625697
0.10738418
0.1085126
0.1096411
0.11076845
0.11189341
0.11301467
0.11413083
0.11524042
0.11634185
0.11743342
0.11851335
0.1195798
0.12063082
0.12166404
0.12267757
0.12367055
0.12464189
0.12559028
0.12651472
0.12741457
0.12828961
0.12914007
0.12996657
0.13077014
0.13155213
0.13231426
0.13305851
0.13378709
0.13450241
0.13520698
0.13590344
0.13659442
0.13728249
0.13797003
0.13865905
0.13935118
0.14004745
0.14074822
0.14145319
0.14216135
0.14287094
0.14357945
0.14428328
0.1449776
0.14565601
0.14631038
0.14693221
0.14751363
0.14804837
0.1485338
0.14896982
0.14934917
0.14965619
0.14987528
0.14999861
0.15004825
0.15005664
0.15005346
0.15005248
0.15007199
0.15014275
0.1502326
0.15031524
0.15040457
0.15049786
0.15059207
0.15068498
0.15077608
0.15086405
0.15095085
0.15103359
0.15111139
0.1511838
0.15124991
0.15131325
0.15137381
0.15142926
0.15147952
0.1515229
0.15155921
0.15159094
0.15161777
0.15164025
0.15165733
0.15166747
0.15166912
0.15166589
0.15165342
0.15163608
0.1516169
0.15160625
0.15158891
0.15157268
0.1515542
0.15153681
0.15152546
0.15151361
0.15151063
0.15150025
0.068857305
0.069121223
0.069458685
0.069846795
0.070277044
0.070746792
0.071250242
0.071782645
0.072340986
0.072921387
0.073520025
0.07413309
0.074756225
0.075384094
0.076011139
0.076632896
0.077244096
0.077841316
0.07841936
0.078971884
0.079498338
0.079985426
0.080430956
0.080834626
0.081182946
0.081475348
0.081710129
0.081882947
0.081992537
0.082039198
0.082024134
0.081954723
0.081829801
0.081657959
0.081448469
0.081211512
0.080959385
0.080707395
0.080462873
0.080233827
0.080043141
0.079892377
0.079788052
0.079737945
0.079743073
0.079807195
0.079936631
0.080129421
0.080384588
0.080700591
0.081074912
0.081503919
0.081984916
0.082515207
0.083091581
0.083710763
0.084370335
0.085067995
0.085801597
0.0865693
0.087369363
0.088200286
0.08906069
0.089949222
0.090864513
0.091805121
0.092769586
0.093756304
0.094763545
0.095789513
0.096832417
0.097890418
0.098961455
0.10004346
0.10113473
0.1022339
0.10333957
0.10445044
0.10556537
0.10668316
0.10780261
0.10892271
0.11004236
0.11116038
0.11227558
0.11338671
0.11449241
0.11559126
0.11668174
0.11776218
0.11883086
0.11988599
0.12092561
0.12194738
0.12294967
0.12393165
0.12489216
0.12582992
0.12674396
0.12763367
0.12849888
0.12933981
0.13015709
0.13095174
0.1317251
0.13247884
0.13321494
0.13393555
0.13464303
0.13533985
0.13602858
0.1367118
0.13739201
0.13807151
0.13875226
0.1394358
0.14012314
0.14081455
0.14150973
0.14220763
0.14290649
0.1436038
0.14429601
0.14497835
0.14564456
0.14628687
0.14689723
0.14746828
0.14799432
0.1484731
0.14890487
0.14928312
0.14959336
0.14981978
0.14995347
0.15001388
0.15003163
0.15003462
0.15003922
0.15006607
0.15014647
0.15023357
0.15031618
0.15040578
0.15049926
0.15059357
0.15068659
0.15077772
0.15086567
0.15095231
0.15103478
0.15111244
0.15118483
0.15125092
0.1513142
0.15137471
0.15143003
0.15148011
0.15152341
0.15155969
0.1515913
0.151618
0.15164036
0.1516574
0.15166747
0.15166909
0.15166584
0.15165346
0.15163631
0.15161716
0.15160626
0.15158878
0.15157243
0.15155396
0.1515367
0.15152547
0.15151365
0.15151062
0.15150003
0.065788223
0.066107629
0.066490538
0.066919918
0.067389623
0.067896357
0.068434859
0.069001286
0.069593021
0.070206798
0.070839476
0.071487818
0.072148028
0.072815512
0.073485568
0.074154005
0.074816094
0.075468167
0.076104671
0.076719976
0.077311136
0.077866419
0.078383826
0.078859414
0.079282256
0.07965154
0.079963584
0.080214571
0.080402995
0.080529178
0.080595479
0.080604266
0.080563542
0.080474471
0.080349831
0.080198577
0.080033462
0.079868248
0.079710555
0.079569449
0.079465608
0.079398446
0.079376201
0.079401611
0.079482212
0.079622501
0.079822659
0.080080734
0.080396318
0.080768259
0.081194505
0.081670759
0.082194641
0.08276364
0.083374741
0.084025006
0.084712219
0.08543432
0.086189389
0.08697579
0.087792006
0.088636703
0.08950866
0.090406667
0.091329491
0.092275827
0.093244334
0.094233534
0.095241828
0.096267564
0.09730908
0.098364655
0.099432368
0.1005103
0.10159685
0.10269067
0.10379041
0.10489476
0.10600258
0.10711267
0.10822388
0.10933523
0.11044563
0.11155396
0.11265909
0.1137598
0.11485478
0.11594268
0.11702201
0.11809115
0.11914843
0.1201921
0.12122018
0.12223044
0.12322143
0.12419235
0.12514197
0.12606905
0.12697265
0.1278522
0.12870753
0.12953891
0.13034694
0.13113264
0.13189733
0.13264266
0.13337057
0.13408317
0.13478278
0.13547181
0.13615277
0.13682818
0.13750049
0.13817192
0.13884436
0.13951931
0.14019769
0.14087976
0.14156517
0.14225286
0.14294107
0.14362728
0.14430798
0.1449785
0.14563274
0.14626325
0.14686243
0.14742343
0.14794105
0.14841343
0.14884109
0.14921825
0.14953151
0.14976488
0.14990848
0.14997978
0.15000679
0.15001545
0.1500261
0.15006241
0.15014894
0.15023408
0.15031699
0.15040693
0.15050063
0.15059507
0.15068821
0.15077937
0.1508673
0.15095378
0.15103599
0.15111352
0.15118588
0.15125194
0.15131518
0.15137562
0.15143083
0.15148072
0.15152395
0.1515602
0.15159168
0.15161826
0.15164049
0.1516575
0.1516675
0.1516691
0.15166584
0.15165355
0.15163658
0.15161744
0.1516063
0.1515887
0.15157222
0.15155377
0.15153664
0.15152552
0.15151374
0.15151064
0.15149984
0.0627275
0.063099579
0.063527998
0.06399945
0.064509028
0.065053182
0.06562739
0.066228582
0.066854554
0.067502691
0.068170522
0.068855403
0.069554145
0.070262885
0.070977628
0.071694484
0.072409114
0.073117597
0.07381423
0.074493596
0.075151063
0.075776264
0.076366513
0.076915723
0.077414909
0.077862334
0.078253194
0.078584046
0.078853198
0.079060777
0.079210366
0.079301731
0.079344253
0.079340975
0.079304842
0.079241543
0.079165255
0.079088195
0.079019054
0.078968088
0.078949425
0.078964739
0.079022871
0.079126741
0.079284667
0.079497306
0.07976472
0.080085292
0.080458806
0.080884629
0.081359782
0.081880489
0.082444563
0.083049663
0.083693008
0.084371983
0.085084587
0.085828998
0.086603519
0.087406719
0.08823729
0.089094058
0.089975957
0.090881916
0.091810834
0.092761539
0.09373281
0.094723292
0.095731519
0.096755976
0.097795127
0.098847368
0.099910914
0.10098398
0.10206507
0.10315285
0.10424598
0.1053432
0.10644334
0.10754523
0.10864774
0.1097499
0.11085068
0.11194898
0.11304372
0.11413373
0.11521776
0.11629449
0.11736247
0.11842015
0.11946588
0.12049797
0.1215144
0.12251306
0.12349271
0.12445251
0.1253912
0.12630755
0.12720067
0.12807002
0.12891547
0.12973726
0.13053603
0.13131275
0.13206874
0.13280563
0.13352531
0.13422987
0.13492157
0.13560277
0.13627593
0.13694351
0.13760787
0.1382712
0.13893532
0.13960166
0.1402711
0.14094384
0.14161952
0.14229705
0.14297467
0.14364989
0.14431922
0.14497809
0.14562058
0.14623954
0.14682783
0.14737908
0.14788856
0.14835474
0.14877845
0.14915452
0.14947057
0.14971055
0.14986366
0.14994576
0.14998186
0.14999638
0.15001314
0.15006067
0.15014995
0.15023416
0.15031765
0.15040801
0.15050199
0.15059656
0.15068984
0.15078103
0.15086894
0.15095525
0.15103722
0.15111463
0.15118695
0.15125299
0.15131618
0.15137655
0.15143166
0.15148137
0.15152452
0.15156073
0.1515921
0.15161855
0.15164066
0.15165763
0.15166756
0.15166914
0.15166586
0.15165366
0.15163689
0.15161776
0.15160638
0.15158866
0.15157204
0.15155362
0.15153664
0.15152562
0.15151386
0.15151071
0.15149968
0.059692582
0.060116776
0.060591193
0.061105419
0.061655324
0.062237404
0.062847916
0.063484463
0.064145299
0.064828476
0.065532187
0.066254407
0.066992583
0.067743556
0.068503948
0.069270182
0.070038214
0.070803906
0.071561504
0.072305527
0.073030216
0.073726213
0.074389823
0.0750138
0.075590422
0.076116847
0.076587693
0.076999736
0.077351194
0.077642038
0.077876853
0.078051906
0.078180361
0.078265709
0.078318503
0.078345897
0.078359857
0.078371943
0.078392596
0.078432018
0.078496144
0.078594289
0.078734612
0.078916213
0.079148414
0.079430343
0.079762176
0.080142433
0.080571926
0.081048413
0.081569531
0.082131873
0.082733419
0.083372012
0.084045133
0.084750475
0.085486261
0.086250899
0.087042911
0.087861063
0.088704243
0.089571435
0.090461721
0.091374162
0.092307789
0.093261558
0.094234367
0.09522498
0.096232065
0.097254238
0.098290087
0.099338121
0.10039669
0.10146413
0.10253902
0.10362008
0.10470598
0.10579546
0.10688738
0.10798056
0.10907391
0.11016648
0.11125725
0.11234519
0.11342925
0.1145083
0.11558114
0.11664649
0.11770295
0.118749
0.11978306
0.12080343
0.12180811
0.12279511
0.12376337
0.124712
0.12563971
0.1265453
0.12742792
0.12828705
0.12912258
0.12993477
0.13072425
0.13149197
0.13223924
0.13296767
0.1336791
0.13437559
0.13505935
0.13573269
0.13639801
0.13705772
0.13771412
0.13836933
0.13902511
0.13968284
0.14034333
0.14100678
0.14167276
0.1423402
0.14300733
0.14367165
0.14432975
0.14497715
0.1456081
0.14621578
0.14679346
0.14733523
0.14783684
0.14829703
0.1487169
0.14909187
0.14941052
0.14965677
0.14981906
0.14991175
0.14995676
0.14997746
0.1500011
0.15005952
0.15014968
0.15023389
0.15031817
0.15040904
0.15050332
0.15059806
0.15069148
0.1507827
0.15087059
0.15095674
0.15103847
0.15111576
0.15118803
0.15125405
0.1513172
0.1513775
0.15143251
0.15148206
0.15152513
0.1515613
0.15159255
0.15161888
0.15164085
0.1516578
0.15166764
0.15166922
0.15166592
0.15165382
0.15163724
0.15161811
0.1516065
0.15158867
0.15157191
0.15155353
0.15153669
0.15152577
0.15151404
0.15151081
0.15149956
0.056281104
0.056704888
0.057181145
0.057702207
0.05825991
0.058850635
0.059471128
0.06011839
0.060790638
0.061486629
0.062205094
0.062944892
0.063704641
0.064482453
0.065275853
0.066082025
0.066897723
0.067719141
0.068541993
0.06936052
0.070169055
0.070961102
0.071727972
0.072464936
0.073164171
0.07381865
0.074424498
0.074976078
0.075470252
0.075905173
0.076280896
0.076600902
0.076862922
0.077079183
0.077254598
0.077397937
0.077516817
0.077621973
0.077723864
0.077834819
0.077962934
0.078110222
0.078291387
0.078511625
0.078769132
0.079072706
0.079420945
0.079814024
0.080252217
0.080734182
0.08125825
0.081822392
0.082423534
0.083059834
0.083729337
0.084429802
0.08515922
0.085916032
0.086698873
0.087506472
0.088337789
0.089191894
0.090067921
0.090965095
0.091882607
0.092819614
0.093775195
0.094748364
0.095738009
0.096742922
0.097761848
0.098793494
0.099836483
0.10088928
0.10195036
0.10301836
0.10409203
0.10517007
0.10625126
0.10733442
0.1084184
0.10950215
0.11058472
0.11166513
0.11274239
0.11381548
0.11488331
0.11594473
0.1169985
0.11804327
0.11907755
0.1200998
0.12110834
0.12210116
0.12307646
0.12403329
0.12497069
0.12588738
0.12678219
0.12765427
0.12850316
0.12932877
0.13013134
0.13091151
0.13167022
0.13240876
0.13312869
0.13383185
0.13452025
0.13519604
0.13586149
0.13651896
0.13717078
0.1378192
0.13846627
0.1391137
0.13976282
0.14041439
0.14106857
0.14172491
0.14238232
0.14303904
0.14369259
0.1443396
0.14497571
0.14559534
0.14619199
0.14675933
0.1472919
0.14778588
0.14824027
0.14865641
0.14903027
0.14935132
0.14960352
0.14977471
0.14987777
0.1499315
0.14995883
0.14999009
0.15005802
0.15014857
0.15023333
0.15031857
0.15041
0.15050464
0.15059955
0.15069312
0.15078438
0.15087225
0.15095823
0.15103973
0.15111691
0.15118914
0.15125514
0.15131825
0.15137847
0.1514334
0.15148278
0.15152576
0.15156189
0.15159303
0.15161924
0.15164108
0.15165799
0.15166776
0.15166933
0.15166602
0.15165401
0.15163762
0.15161849
0.15160666
0.15158872
0.15157182
0.15155348
0.1515368
0.15152597
0.15151426
0.15151094
0.15149947
0.053306334
0.05378811
0.054316652
0.054885133
0.055487008
0.056119019
0.056778277
0.057462475
0.058170406
0.058901378
0.05965481
0.060430243
0.061226973
0.062043798
0.062878923
0.063730078
0.064594373
0.065468225
0.066347274
0.067225789
0.068097885
0.068956597
0.069793631
0.070603338
0.071377625
0.072109748
0.072794968
0.073427565
0.074004364
0.074523427
0.074984736
0.075390376
0.075741589
0.076047326
0.076313733
0.076548365
0.076759349
0.076955967
0.077147883
0.077348654
0.077563612
0.077794165
0.078056758
0.078354153
0.078685001
0.079056794
0.079467927
0.079920466
0.080412906
0.080944066
0.081512654
0.08211687
0.082753983
0.083422349
0.084120227
0.084845663
0.085596924
0.086372673
0.087171757
0.087993106
0.088835863
0.089699269
0.090582605
0.091485228
0.092406456
0.093345568
0.094301763
0.095274169
0.096261792
0.097263549
0.098278307
0.099304888
0.10034202
0.1013883
0.1024423
0.10350273
0.10456837
0.10563797
0.10671028
0.10778417
0.10885849
0.1099322
0.11100439
0.11207409
0.11314035
0.11420219
0.11525856
0.11630835
0.11735035
0.11838325
0.11940562
0.12041594
0.12141255
0.12239342
0.12335699
0.12430234
0.12522847
0.12613411
0.12701809
0.12787963
0.12871827
0.12953393
0.13032688
0.13109772
0.13184741
0.1325772
0.13328863
0.1339835
0.13466378
0.13533159
0.13598914
0.13663872
0.13728263
0.13792305
0.13856198
0.13920107
0.13984159
0.14048426
0.14112921
0.14177596
0.14242342
0.14306982
0.14371272
0.14434879
0.14497379
0.14558233
0.1461682
0.14672547
0.1472491
0.14773568
0.14818445
0.14859696
0.14896968
0.14929294
0.14955079
0.14973061
0.14984378
0.14990611
0.14994059
0.14998018
0.15005558
0.1501468
0.15023251
0.15031886
0.15041091
0.15050593
0.15060105
0.15069477
0.15078607
0.15087392
0.15095974
0.15104102
0.15111808
0.15119028
0.15125624
0.15131932
0.15137946
0.15143431
0.15148353
0.15152643
0.15156252
0.15159354
0.15161963
0.15164135
0.15165822
0.15166791
0.15166947
0.15166615
0.15165423
0.15163805
0.15161891
0.15160686
0.15158881
0.15157178
0.15155349
0.15153697
0.15152622
0.15151453
0.15151112
0.15149941
0.0504277
0.050967718
0.051549148
0.052165909
0.052812584
0.053486212
0.054184324
0.054905251
0.055648353
0.056413533
0.057200914
0.05801075
0.058843057
0.059697351
0.060572528
0.061466874
0.062377893
0.063302242
0.064235571
0.065172204
0.066106065
0.067029894
0.067935603
0.068816776
0.069665187
0.070474117
0.071238143
0.071951522
0.072610946
0.073214347
0.073761528
0.074254016
0.074694987
0.075091004
0.075448754
0.075774959
0.076078025
0.076365691
0.0766472
0.076936384
0.077236171
0.077548928
0.077890455
0.078262003
0.078662946
0.079099236
0.079571332
0.080079671
0.080622836
0.081199972
0.081810011
0.082451362
0.083121653
0.083819452
0.084543237
0.085291336
0.086062281
0.086854946
0.087668385
0.088501715
0.089354254
0.090225403
0.091114581
0.092021274
0.092944922
0.093884921
0.094840585
0.095811154
0.096795749
0.097793408
0.098803118
0.099823808
0.10085432
0.10189335
0.10293958
0.10399178
0.10504878
0.10610934
0.10717225
0.10823636
0.10930056
0.11036382
0.11142525
0.1124839
0.11353887
0.11458919
0.11563386
0.11667181
0.11770187
0.11872275
0.11973307
0.12073135
0.1217159
0.12268477
0.12363656
0.12457039
0.12548522
0.12637978
0.12725292
0.12810389
0.12893227
0.12973798
0.1305213
0.13128281
0.13202347
0.13274449
0.13344741
0.13413398
0.13480613
0.13546594
0.13611557
0.13675726
0.13739325
0.13802567
0.13865645
0.1392872
0.13991914
0.14055294
0.1411887
0.14182593
0.14246352
0.1430997
0.14373207
0.14435736
0.14497143
0.1455691
0.14614444
0.14669189
0.14720685
0.14768623
0.14812955
0.14853852
0.14891009
0.14923535
0.14949858
0.1496868
0.14980971
0.14988064
0.1499228
0.1499711
0.15005211
0.15014451
0.15023149
0.15031904
0.15041177
0.15050721
0.15060254
0.15069643
0.15078777
0.15087559
0.15096125
0.15104234
0.15111928
0.15119143
0.15125737
0.15132041
0.15138047
0.15143525
0.15148431
0.15152713
0.15156317
0.15159408
0.15162005
0.15164164
0.15165847
0.15166809
0.15166964
0.15166631
0.15165448
0.15163851
0.15161936
0.15160711
0.15158895
0.15157177
0.15155355
0.15153719
0.15152653
0.15151486
0.15151135
0.15149938
0.047671877
0.048270908
0.048906104
0.049571975
0.0502639
0.050979194
0.051715836
0.052472756
0.053249894
0.05404779
0.054867306
0.055709447
0.056574999
0.057464238
0.058376779
0.059311499
0.060266345
0.061238255
0.062222974
0.063214922
0.064207878
0.065194415
0.066166522
0.067117171
0.068038055
0.068922322
0.069764018
0.070557378
0.071298888
0.071986312
0.072619281
0.073199163
0.073729696
0.074216065
0.074664914
0.075082357
0.075476689
0.075854304
0.07622417
0.076599541
0.076981871
0.077374691
0.077792012
0.078234233
0.078701327
0.079199915
0.079729373
0.080289775
0.080880266
0.081500168
0.082148599
0.082824189
0.083524927
0.084249595
0.084996897
0.08576543
0.086553976
0.087361616
0.088187592
0.089031206
0.089891936
0.090769333
0.09166295
0.092572395
0.093497224
0.094436946
0.095390987
0.096358695
0.097339303
0.098331967
0.099335786
0.1003498
0.10137294
0.10240402
0.10344182
0.10448517
0.10553293
0.1065839
0.10763687
0.10869073
0.10974437
0.11079678
0.11184708
0.11289437
0.11393774
0.11497629
0.11600904
0.11703494
0.11805288
0.1190616
0.12005975
0.12104588
0.12201828
0.12297509
0.12391506
0.12483734
0.12574083
0.12662428
0.12748656
0.12832696
0.12914507
0.12994084
0.13071451
0.1314667
0.13219831
0.13291057
0.13360497
0.13428323
0.13494725
0.13559904
0.13624074
0.13687453
0.13750259
0.138127
0.13874964
0.13937208
0.13999545
0.14062042
0.14124704
0.14187481
0.14250262
0.1431287
0.14375067
0.14436533
0.14496866
0.14555567
0.14612073
0.14665863
0.14716514
0.14763755
0.14807556
0.14848107
0.14885145
0.14917856
0.14944689
0.14964328
0.14977557
0.14985514
0.14990546
0.14996228
0.15004792
0.15014182
0.15023028
0.15031913
0.15041258
0.15050847
0.15060403
0.1506981
0.15078947
0.15087728
0.15096278
0.15104367
0.15112049
0.15119261
0.15125852
0.15132153
0.1513815
0.15143621
0.15148512
0.15152785
0.15156385
0.15159466
0.15162051
0.15164197
0.15165876
0.15166831
0.15166985
0.1516665
0.15165477
0.151639
0.15161986
0.15160741
0.15158913
0.1515718
0.15155367
0.15153748
0.1515269
0.15151524
0.15151162
0.15149938
0.045067144
0.04572623
0.046416096
0.047131693
0.047868975
0.048625536
0.049399819
0.050191342
0.051000651
0.051828976
0.052677954
0.053549398
0.054444915
0.055365593
0.056311804
0.05728307
0.05827784
0.059293393
0.060325658
0.061369194
0.062417704
0.063463678
0.064499116
0.065516507
0.066507476
0.067464954
0.068382567
0.06925449
0.070076949
0.070847499
0.071565623
0.072232546
0.072851829
0.07342786
0.07396687
0.074474437
0.074958411
0.07542414
0.075880277
0.07633897
0.076801132
0.077270941
0.077760238
0.078269053
0.078799825
0.07935713
0.079939962
0.080548877
0.081183336
0.081842816
0.082526626
0.083233627
0.083962159
0.084711219
0.085479731
0.086266554
0.087070701
0.087891449
0.088728223
0.089580494
0.090447892
0.091330109
0.092226824
0.093137762
0.094062589
0.095000925
0.095952302
0.096916173
0.097891882
0.098878695
0.099875821
0.1008824
0.10189746
0.10291993
0.10394866
0.10498255
0.1060205
0.10706133
0.10810388
0.10914702
0.11018966
0.11123084
0.11226967
0.11330527
0.11433678
0.1153633
0.11638391
0.11739758
0.11840324
0.11939966
0.12038552
0.12135938
0.12231955
0.12326425
0.12419239
0.12510307
0.1259952
0.12686752
0.12771893
0.12854875
0.12935659
0.13014241
0.13090644
0.1316493
0.13237188
0.13307537
0.13376125
0.13443119
0.13508706
0.13573084
0.1363646
0.13699049
0.13761063
0.13822704
0.13884156
0.13945568
0.14007053
0.14068671
0.14130425
0.14192264
0.14254075
0.14315683
0.14376853
0.14437273
0.14496552
0.1455421
0.14609712
0.14662571
0.147124
0.14758963
0.14802248
0.1484246
0.14879376
0.14912253
0.14939573
0.14960005
0.14974138
0.14982966
0.1498885
0.14995343
0.1500432
0.15013881
0.15022892
0.15031912
0.15041335
0.15050972
0.15060552
0.15069977
0.15079119
0.15087898
0.15096433
0.15104503
0.15112174
0.15119381
0.15125969
0.15132267
0.15138255
0.1514372
0.15148596
0.15152861
0.15156456
0.15159528
0.151621
0.15164234
0.15165908
0.15166855
0.15167009
0.15166673
0.15165509
0.15163952
0.15162039
0.15160776
0.15158935
0.15157188
0.15155385
0.15153783
0.15152732
0.15151568
0.15151195
0.15149941
0.042642632
0.043362792
0.044107978
0.044873477
0.04565568
0.046452487
0.047262828
0.048086817
0.04892565
0.049781296
0.050656216
0.051553081
0.052474383
0.05342207
0.05439732
0.055400361
0.056430214
0.057484568
0.058559626
0.059650139
0.060749808
0.06185111
0.062946023
0.064026668
0.065084589
0.066112463
0.067103565
0.068051963
0.068953551
0.069805678
0.070607619
0.071360328
0.07206686
0.072731049
0.073358486
0.073954208
0.074525404
0.075076657
0.075616156
0.076154865
0.076693499
0.077236298
0.07779313
0.078365946
0.078956824
0.079568566
0.080201044
0.080854981
0.081530088
0.082226011
0.082942258
0.083677927
0.084431692
0.08520276
0.085990268
0.086793323
0.087611154
0.088443226
0.089289132
0.090148505
0.091021116
0.091906787
0.092805322
0.093716551
0.094640252
0.095576145
0.096523868
0.097482976
0.098452917
0.099433065
0.10042273
0.10142115
0.10242746
0.10344067
0.10445972
0.10548358
0.10651117
0.10754136
0.10857298
0.10960495
0.1106362
0.11166577
0.11269279
0.11371641
0.11473578
0.11575005
0.1167583
0.11775957
0.11875279
0.11973677
0.12071023
0.12167174
0.12261958
0.12355215
0.12446841
0.12536747
0.12624821
0.12710939
0.12794992
0.12876916
0.12956675
0.13034261
0.13109702
0.13183055
0.1325441
0.13323883
0.13391618
0.13457781
0.13522554
0.1358613
0.13648713
0.13710512
0.13771734
0.13832576
0.13893216
0.13953801
0.14014436
0.1407518
0.14136032
0.14196941
0.14257792
0.14318413
0.1437857
0.1443796
0.14496203
0.1455284
0.14607361
0.14659313
0.14708344
0.14754247
0.14797029
0.1483691
0.148737
0.14906727
0.1493451
0.14955714
0.14970717
0.14980423
0.1498718
0.1499444
0.15003805
0.15013554
0.15022743
0.15031904
0.15041408
0.15051095
0.150607
0.15070144
0.15079291
0.15088069
0.15096588
0.15104641
0.151123
0.15119504
0.15126089
0.15132383
0.15138361
0.1514382
0.15148683
0.1515294
0.15156529
0.15159593
0.15162152
0.15164274
0.15165943
0.15166883
0.15167036
0.15166698
0.15165545
0.15164007
0.15162096
0.15160815
0.15158961
0.15157199
0.15155408
0.15153825
0.15152781
0.15151618
0.15151233
0.15149947
0.039669357
0.040427304
0.041209125
0.042009711
0.042824602
0.043650559
0.04448583
0.045329866
0.046183407
0.047048345
0.047927438
0.04882401
0.049741646
0.050683773
0.051653246
0.052652099
0.053681329
0.0547406
0.055828094
0.056940369
0.058072433
0.059218064
0.060369783
0.061519543
0.062659195
0.063780186
0.06487492
0.06593637
0.066958405
0.067936571
0.068867984
0.069751594
0.070587938
0.071379438
0.072129414
0.072842689
0.073523744
0.074178987
0.07481243
0.075431717
0.076046624
0.076657479
0.07726854
0.077890012
0.078523398
0.079169753
0.07983201
0.080510489
0.081206001
0.081918497
0.08264781
0.083393646
0.08415534
0.084931875
0.085722663
0.086527047
0.087344365
0.088174048
0.089015738
0.089869185
0.090734175
0.091610611
0.092498437
0.093397572
0.094307951