/*--------------------------------*- C++ -*----------------------------------*\
| =========                 |                                                 |
| \\      /  F ield         | OpenFOAM: The Open Source CFD Toolbox           |
|  \\    /   O peration     | Version:  2406                                  |
|   \\  /    A nd           | Website:  www.openfoam.com                      |
|    \\/     M anipulation  |                                                 |
\*---------------------------------------------------------------------------*/
FoamFile
{
    version     2.0;
    format      ascii;
    arch        "LSB;label=32;scalar=64";
    class       volScalarField;
    location    "0.003";
    object      p;
}
// * * * * * * * * * * * * * * * * * * * * * * * * * * * * * * * * * * * * * //

dimensions      [1 -1 -2 0 0 0 0];

internalField   nonuniform List<scalar> 
8951
(
100886.67
100887.66
100887.53
100887.46
100887.41
100887.46
100887.69
100888.19
100889.07
100890.45
100892.45
100895.17
100898.62
100903.01
100908
100913.92
100921.03
100928.53
100937.43
100946.85
100956.43
100967.74
100978.17
100989.62
101001
101012.69
101023.92
101034.73
101045.09
101054.85
101063.97
101072.36
101079.99
101086.9
101093.07
101098.54
101103.4
101107.65
101111.57
101114.94
101118.12
101121.08
101123.84
101126.51
101129.26
101131.95
101134.5
101137.57
101140.93
101144.41
101148.07
101152.04
101156.25
101160.77
101165.62
101170.62
101176.21
101181.91
101187.82
101193.92
101200.17
101206.53
101212.97
101219.47
101225.99
101232.51
101239.04
101245.54
101252.01
101258.44
101264.78
101271.02
101277.12
101283.04
101288.71
101294.1
101299.15
101303.81
101308.05
101311.85
101315.17
101318.02
101320.41
101322.34
101323.84
101324.94
101325.68
101326.09
101326.22
101326.11
101325.81
101325.37
101324.82
101324.17
101323.39
101322.49
101321.49
101320.39
101319.2
101317.93
101316.59
101315.19
101313.76
101312.32
101310.87
101309.44
101308.01
101306.59
101305.19
101303.83
101302.51
101301.25
101300.04
101298.89
101297.74
101296.54
101295.24
101293.77
101292.08
101290.14
101287.95
101285.53
101282.94
101280.27
101277.65
101275.17
101272.92
101270.93
101269.23
101267.73
101266.22
101264.87
101263.71
101263.27
101263.65
101264.15
101265.15
101266.61
101268.48
101270.49
101272.69
101275.29
101278.14
101281.18
101284.37
101287.63
101290.89
101294.05
101297.04
101299.8
101302.31
101304.54
101306.49
101308.2
101309.67
101310.94
101312.04
101312.82
101313.17
101313.12
101312.69
101311.88
101310.6
101309
101307.2
101305.41
101303.9
101302.75
101302.42
101303.06
101304.33
101306.34
101308.96
101312.07
101315.49
101319.13
101322.86
100887.17
100888.92
100889.19
100888.94
100888.77
100888.57
100888.47
100888.6
100889.04
100889.91
100891.33
100893.4
100896.21
100899.8
100904.28
100909.47
100915.64
100922.87
100930.66
100939.73
100949.19
100959.21
100970.45
100980.96
100992.65
101003.79
101015.2
101026.55
101037.31
101047.52
101057.11
101066.05
101074.24
101081.67
101088.38
101094.36
101099.65
101104.35
101108.46
101112.28
101115.52
101118.65
101121.56
101124.23
101126.9
101129.57
101132.03
101134.83
101138.24
101141.42
101144.81
101148.49
101152.49
101156.72
101161.26
101166.12
101171.22
101176.74
101182.43
101188.34
101194.43
101200.66
101207.01
101213.43
101219.9
101226.39
101232.89
101239.39
101245.87
101252.32
101258.71
101265.03
101271.23
101277.29
101283.16
101288.79
101294.11
101299.1
101303.69
101307.86
101311.58
101314.83
101317.61
101319.92
101321.78
101323.22
101324.26
101324.95
101325.32
101325.42
101325.28
101324.96
101324.51
101323.96
101323.31
101322.52
101321.63
101320.63
101319.54
101318.37
101317.11
101315.78
101314.41
101313
101311.58
101310.16
101308.74
101307.33
101305.94
101304.56
101303.21
101301.9
101300.66
101299.47
101298.32
101297.17
101295.98
101294.68
101293.21
101291.52
101289.58
101287.4
101284.99
101282.42
101279.77
101277.18
101274.75
101272.54
101270.6
101268.96
101267.52
101266.08
101264.8
101263.73
101263.21
101263.75
101264.19
101265.17
101266.7
101268.59
101270.55
101272.78
101275.38
101278.22
101281.26
101284.45
101287.71
101290.95
101294.1
101297.09
101299.84
101302.34
101304.56
101306.51
101308.21
101309.67
101310.94
101312.04
101312.82
101313.16
101313.11
101312.68
101311.87
101310.59
101308.99
101307.19
101305.41
101303.9
101302.75
101302.42
101303.06
101304.33
101306.34
101308.96
101312.07
101315.48
101319.13
101322.86
100888.79
100889.83
100889.85
100889.72
100889.6
100889.39
100889.33
100889.55
100890.11
100891.13
100892.71
100894.96
100897.97
100901.76
100906.44
100911.87
100918.29
100925.68
100933.71
100942.87
100952.43
100962.67
100973.75
100984.46
100995.95
101007.35
101018.34
101029.34
101040.06
101050.1
101059.46
101068.15
101076.09
101083.27
101089.75
101095.51
101100.6
101105.12
101109.07
101112.79
101115.88
101118.97
101121.82
101124.34
101127.03
101129.44
101132.08
101135.24
101138.46
101141.54
101144.97
101148.69
101152.71
101156.96
101161.53
101166.42
101171.58
101177.09
101182.79
101188.71
101194.8
101201.03
101207.37
101213.78
101220.23
101226.71
101233.19
101239.67
101246.13
101252.56
101258.93
101265.22
101271.39
101277.41
101283.24
101288.82
101294.09
101299.02
101303.55
101307.65
101311.3
101314.48
101317.19
101319.44
101321.25
101322.63
101323.63
101324.27
101324.6
101324.67
101324.51
101324.18
101323.73
101323.18
101322.52
101321.73
101320.83
101319.83
101318.75
101317.59
101316.34
101315.03
101313.67
101312.27
101310.87
101309.47
101308.07
101306.68
101305.29
101303.93
101302.59
101301.3
101300.06
101298.88
101297.74
101296.6
101295.42
101294.12
101292.65
101290.96
101289.03
101286.85
101284.46
101281.91
101279.29
101276.75
101274.36
101272.21
101270.33
101268.75
101267.36
101265.98
101264.75
101263.72
101263.17
101263.81
101264.25
101265.2
101266.78
101268.7
101270.63
101272.88
101275.47
101278.31
101281.35
101284.53
101287.78
101291.02
101294.16
101297.13
101299.88
101302.37
101304.58
101306.52
101308.22
101309.67
101310.95
101312.03
101312.81
101313.15
101313.1
101312.67
101311.86
101310.58
101308.98
101307.18
101305.4
101303.9
101302.74
101302.42
101303.07
101304.33
101306.34
101308.96
101312.06
101315.48
101319.13
101322.85
100889.52
100890.13
100890.21
100890.22
100890.19
100890.11
100890.21
100890.6
100891.35
100892.56
100894.36
100896.82
100900.03
100904.04
100908.93
100914.59
100921.22
100928.75
100936.98
100946.2
100955.82
100966.16
100977.11
100987.89
100999.22
101010.53
101021.53
101032.11
101042.48
101052.41
101061.53
101069.97
101077.67
101084.59
101090.85
101096.4
101101.29
101105.64
101109.45
101113.08
101116.02
101119.09
101121.82
101124.21
101126.76
101129.33
101132.23
101135.28
101138.35
101141.45
101144.93
101148.68
101152.72
101157
101161.6
101166.52
101171.72
101177.23
101182.95
101188.88
101194.98
101201.22
101207.55
101213.96
101220.4
101226.87
101233.35
101239.81
101246.26
101252.67
101259.02
101265.29
101271.44
101277.43
101283.22
101288.76
101293.99
101298.86
101303.34
101307.38
101310.98
101314.1
101316.76
101318.95
101320.71
101322.04
101323
101323.61
101323.91
101323.96
101323.78
101323.44
101322.99
101322.44
101321.77
101320.98
101320.08
101319.09
101318.01
101316.86
101315.62
101314.32
101312.96
101311.59
101310.2
101308.81
101307.42
101306.04
101304.66
101303.31
101301.99
101300.7
101299.48
101298.3
101297.17
101296.04
101294.85
101293.56
101292.09
101290.4
101288.48
101286.32
101283.94
101281.42
101278.84
101276.34
101274.01
101271.92
101270.11
101268.58
101267.23
101265.9
101264.71
101263.71
101263.16
101263.8
101264.36
101265.23
101266.86
101268.81
101270.7
101272.97
101275.56
101278.4
101281.44
101284.61
101287.86
101291.09
101294.22
101297.18
101299.91
101302.39
101304.6
101306.54
101308.22
101309.68
101310.94
101312.03
101312.8
101313.14
101313.09
101312.66
101311.84
101310.57
101308.98
101307.18
101305.4
101303.9
101302.75
101302.42
101303.07
101304.34
101306.34
101308.96
101312.06
101315.48
101319.12
101322.85
100888.63
100889.82
100890.37
100890.59
100890.72
100890.8
100890.89
100891.17
100891.74
100892.68
100894.1
100896.11
100898.79
100902.22
100906.45
100911.53
100917.41
100924.22
100931.88
100940.27
100949.52
100959.21
100969.6
100980.43
100991.22
101002.41
101013.54
101024.41
101034.9
101044.88
101054.5
101063.42
101071.65
101079.09
101085.76
101091.81
101097.15
101101.87
101106.05
101109.73
101113.29
101116.05
101119.06
101121.48
101124.1
101126.63
101129.41
101132.17
101135.11
101138.18
101141.33
101144.83
101148.6
101152.66
101156.97
101161.6
101166.55
101171.78
101177.31
101183.05
101189
101195.1
101201.34
101207.68
101214.08
101220.52
101226.98
101233.44
101239.9
101246.33
101252.72
101259.06
101265.31
101271.43
101277.4
101283.16
101288.65
101293.84
101298.67
101303.09
101307.09
101310.63
101313.7
101316.31
101318.45
101320.16
101321.46
101322.38
101322.96
101323.23
101323.25
101323.06
101322.72
101322.26
101321.71
101321.04
101320.25
101319.35
101318.36
101317.29
101316.14
101314.91
101313.61
101312.27
101310.9
101309.53
101308.15
101306.77
101305.4
101304.04
101302.7
101301.38
101300.11
101298.89
101297.73
101296.6
101295.47
101294.29
101293
101291.53
101289.85
101287.93
101285.79
101283.43
101280.94
101278.4
101275.95
101273.67
101271.65
101269.89
101268.42
101267.12
101265.83
101264.68
101263.7
101263.2
101263.77
101264.42
101265.28
101266.96
101268.89
101270.78
101273.06
101275.65
101278.49
101281.52
101284.69
101287.92
101291.15
101294.27
101297.22
101299.95
101302.42
101304.62
101306.55
101308.23
101309.68
101310.94
101312.02
101312.79
101313.13
101313.08
101312.65
101311.83
101310.56
101308.97
101307.17
101305.4
101303.9
101302.75
101302.42
101303.07
101304.34
101306.35
101308.96
101312.06
101315.48
101319.12
101322.85
100888.95
100890.01
100890.64
100890.99
100891.25
100891.46
100891.72
100892.18
100892.94
100894.09
100895.73
100897.95
100900.85
100904.5
100908.94
100914.22
100920.3
100927.28
100935.07
100943.58
100952.87
100962.62
100973.01
100983.75
100994.5
101005.54
101016.49
101027.18
101037.48
101047.3
101056.55
101065.22
101073.24
101080.43
101086.85
101092.69
101097.83
101102.37
101106.4
101109.95
101113.41
101116.03
101118.75
101121.28
101124.06
101126.72
101129.29
101131.96
101134.91
101138
101141.18
101144.7
101148.49
101152.57
101156.91
101161.58
101166.56
101171.82
101177.37
101183.13
101189.08
101195.2
101201.44
101207.77
101214.17
101220.6
101227.06
101233.51
101239.96
101246.38
101252.76
101259.08
101265.31
101271.41
101277.35
101283.08
101288.54
101293.68
101298.46
101302.84
101306.79
101310.28
101313.3
101315.85
101317.96
101319.62
101320.88
101321.76
101322.31
101322.56
101322.55
101322.35
101322
101321.54
101320.99
101320.31
101319.51
101318.61
101317.62
101316.56
101315.41
101314.19
101312.91
101311.58
101310.22
101308.86
101307.49
101306.12
101304.76
101303.41
101302.08
101300.77
101299.51
101298.3
101297.14
101296.02
101294.9
101293.72
101292.43
101290.97
101289.3
101287.39
101285.26
101282.93
101280.47
101277.96
101275.55
101273.34
101271.37
101269.68
101268.26
101267
101265.76
101264.65
101263.69
101263.25
101263.79
101264.44
101265.35
101267.05
101268.96
101270.86
101273.14
101275.74
101278.57
101281.6
101284.76
101287.99
101291.21
101294.32
101297.26
101299.98
101302.44
101304.63
101306.56
101308.24
101309.68
101310.94
101312.01
101312.78
101313.12
101313.07
101312.64
101311.82
101310.55
101308.96
101307.17
101305.4
101303.91
101302.75
101302.42
101303.08
101304.34
101306.35
101308.96
101312.06
101315.48
101319.12
101322.84
100889.06
100890.17
100890.88
100891.37
100891.77
100892.14
100892.59
100893.25
100894.21
100895.58
100897.44
100899.89
100903.02
100906.88
100911.54
100917.02
100923.29
100930.43
100938.33
100946.94
100956.27
100966.05
100976.43
100987.07
100997.76
101008.63
101019.4
101029.89
101039.97
101049.56
101058.57
101066.96
101074.7
101081.67
101087.92
101093.5
101098.43
101102.79
101106.67
101110.08
101113.22
101116.09
101118.5
101121.32
101123.99
101126.56
101129.03
101131.73
101134.7
101137.79
101141
101144.54
101148.36
101152.46
101156.84
101161.54
101166.54
101171.83
101177.4
101183.17
101189.14
101195.27
101201.51
101207.84
101214.24
101220.67
101227.11
101233.56
101239.99
101246.4
101252.77
101259.07
101265.28
101271.37
101277.28
101282.98
101288.4
101293.51
101298.25
101302.58
101306.48
101309.92
101312.89
101315.4
101317.46
101319.08
101320.3
101321.15
101321.66
101321.88
101321.86
101321.65
101321.29
101320.83
101320.27
101319.59
101318.79
101317.88
101316.9
101315.84
101314.7
101313.48
101312.2
101310.88
101309.54
101308.19
101306.83
101305.48
101304.13
101302.79
101301.46
101300.17
101298.91
101297.71
101296.56
101295.45
101294.33
101293.16
101291.87
101290.41
101288.74
101286.85
101284.73
101282.43
101280
101277.53
101275.17
101273.01
101271.11
101269.47
101268.11
101266.89
101265.69
101264.61
101263.68
101263.29
101263.83
101264.47
101265.41
101267.14
101269.03
101270.94
101273.23
101275.83
101278.66
101281.68
101284.84
101288.06
101291.26
101294.37
101297.3
101300.01
101302.46
101304.65
101306.56
101308.24
101309.68
101310.94
101312.01
101312.77
101313.11
101313.06
101312.63
101311.81
101310.54
101308.96
101307.17
101305.4
101303.91
101302.75
101302.43
101303.08
101304.34
101306.35
101308.95
101312.05
101315.47
101319.12
101322.84
100889.06
100890.24
100891.07
100891.71
100892.27
100892.82
100893.47
100894.35
100895.54
100897.14
100899.24
100901.93
100905.29
100909.38
100914.25
100919.92
100926.37
100933.65
100941.66
100950.36
100959.71
100969.51
100979.84
100990.38
101000.98
101011.69
101022.26
101032.53
101042.38
101051.73
101060.49
101068.62
101076.04
101082.82
101088.9
101094.22
101098.95
101103.14
101106.87
101110.15
101112.97
101116.11
101118.48
101121.19
101123.75
101126.28
101128.74
101131.49
101134.46
101137.54
101140.78
101144.35
101148.19
101152.32
101156.73
101161.46
101166.5
101171.81
101177.4
101183.19
101189.17
101195.3
101201.55
101207.88
101214.27
101220.7
101227.14
101233.57
101240
101246.4
101252.76
101259.05
101265.24
101271.3
101277.19
101282.86
101288.25
101293.32
101298.02
101302.31
101306.16
101309.56
101312.48
101314.95
101316.96
101318.54
101319.72
101320.54
101321.02
101321.22
101321.18
101320.96
101320.59
101320.13
101319.57
101318.88
101318.06
101317.16
101316.18
101315.12
101313.99
101312.78
101311.51
101310.2
101308.86
101307.52
101306.17
101304.83
101303.49
101302.16
101300.85
101299.56
101298.31
101297.12
101295.98
101294.87
101293.76
101292.59
101291.31
101289.86
101288.19
101286.31
101284.21
101281.93
101279.53
101277.1
101274.79
101272.68
101270.84
101269.27
101267.95
101266.78
101265.63
101264.58
101263.68
101263.34
101263.86
101264.52
101265.47
101267.23
101269.09
101271.02
101273.32
101275.92
101278.74
101281.76
101284.91
101288.13
101291.32
101294.42
101297.34
101300.04
101302.48
101304.66
101306.57
101308.24
101309.68
101310.93
101312
101312.76
101313.1
101313.05
101312.62
101311.8
101310.53
101308.95
101307.16
101305.4
101303.91
101302.76
101302.43
101303.09
101304.34
101306.35
101308.95
101312.05
101315.47
101319.12
101322.83
100887.38
100888.92
100890.2
100891.18
100891.99
100892.73
100893.49
100894.37
100895.48
100896.91
100898.76
100901.11
100904.05
100907.65
100911.97
100917.05
100922.91
100929.54
100936.94
100945.05
100953.81
100963.18
100972.98
100983.24
100993.68
101004.17
101014.69
101025.05
101035.11
101044.72
101053.81
101062.31
101070.17
101077.35
101083.89
101089.73
101094.84
101099.39
101103.42
101107
101110.17
101112.92
101115.96
101118.33
101120.95
101123.45
101125.95
101128.47
101131.23
101134.17
101137.26
101140.53
101144.12
101147.99
101152.15
101156.59
101161.36
101166.42
101171.76
101177.36
101183.17
101189.16
101195.31
101201.56
101207.89
101214.28
101220.7
101227.13
101233.56
101239.98
101246.37
101252.72
101258.99
101265.17
101271.22
101277.08
101282.72
101288.08
101293.12
101297.78
101302.03
101305.84
101309.19
101312.07
101314.5
101316.47
101318.01
101319.16
101319.94
101320.4
101320.57
101320.51
101320.28
101319.91
101319.44
101318.87
101318.17
101317.35
101316.45
101315.47
101314.41
101313.28
101312.08
101310.82
101309.51
101308.19
101306.86
101305.52
101304.19
101302.86
101301.54
101300.23
101298.95
101297.72
101296.53
101295.4
101294.3
101293.19
101292.02
101290.75
101289.3
101287.64
101285.77
101283.69
101281.44
101279.08
101276.69
101274.42
101272.37
101270.59
101269.07
101267.81
101266.68
101265.57
101264.55
101263.67
101263.38
101263.89
101264.56
101265.54
101267.31
101269.15
101271.1
101273.41
101276
101278.83
101281.84
101284.99
101288.19
101291.38
101294.46
101297.38
101300.06
101302.5
101304.67
101306.58
101308.24
101309.68
101310.93
101311.99
101312.74
101313.08
101313.04
101312.61
101311.79
101310.52
101308.94
101307.16
101305.4
101303.92
101302.76
101302.43
101303.09
101304.34
101306.35
101308.94
101312.04
101315.46
101319.11
101322.82
100886.96
100888.64
100890.05
100891.19
100892.2
100893.14
100894.13
100895.25
100896.62
100898.31
100900.42
100903.04
100906.24
100910.09
100914.65
100919.94
100925.98
100932.77
100940.29
100948.49
100957.3
100966.67
100976.46
100986.63
100996.95
101007.31
101017.64
101027.79
101037.61
101046.97
101055.8
101064.04
101071.65
101078.58
101084.87
101090.46
101095.39
101099.75
101103.62
101107.06
101110.13
101112.86
101115.74
101118.09
101120.65
101123.1
101125.61
101128.16
101130.91
101133.85
101136.95
101140.26
101143.87
101147.77
101151.95
101156.43
101161.23
101166.32
101171.68
101177.3
101183.13
101189.13
101195.28
101201.54
101207.87
101214.26
101220.68
101227.1
101233.53
101239.94
101246.32
101252.66
101258.92
101265.08
101271.11
101276.95
101282.57
101287.9
101292.9
101297.53
101301.74
101305.51
101308.82
101311.66
101314.05
101315.98
101317.49
101318.6
101319.35
101319.78
101319.93
101319.86
101319.61
101319.24
101318.76
101318.18
101317.48
101316.65
101315.74
101314.76
101313.71
101312.59
101311.39
101310.13
101308.84
101307.52
101306.2
101304.87
101303.55
101302.23
101300.91
101299.62
101298.35
101297.12
101295.94
101294.82
101293.72
101292.62
101291.46
101290.19
101288.75
101287.1
101285.24
101283.18
101280.96
101278.63
101276.28
101274.06
101272.06
101270.34
101268.88
101267.66
101266.58
101265.51
101264.52
101263.67
101263.42
101263.92
101264.61
101265.62
101267.38
101269.22
101271.18
101273.5
101276.09
101278.91
101281.92
101285.06
101288.25
101291.43
101294.51
101297.41
101300.09
101302.52
101304.68
101306.58
101308.24
101309.67
101310.92
101311.98
101312.73
101313.07
101313.03
101312.6
101311.79
101310.51
101308.94
101307.16
101305.4
101303.92
101302.77
101302.44
101303.1
101304.35
101306.34
101308.94
101312.04
101315.46
101319.11
101322.82
100886.34
100888.17
100889.75
100891.09
100892.3
100893.49
100894.73
100896.12
100897.76
100899.73
100902.13
100905.03
100908.5
100912.6
100917.39
100922.9
100929.12
100936.06
100943.7
100951.97
100960.82
100970.18
100979.92
100990
101000.19
101010.4
101020.53
101030.45
101040.03
101049.14
101057.71
101065.69
101073.04
101079.71
101085.76
101091.11
101095.85
101100.04
101103.75
101107.07
101110.04
101112.73
101115.48
101117.81
101120.3
101122.73
101125.26
101127.81
101130.56
101133.5
101136.62
101139.96
101143.59
101147.52
101151.73
101156.25
101161.07
101166.19
101171.58
101177.22
101183.06
101189.07
101195.23
101201.49
101207.83
101214.21
101220.62
101227.05
101233.47
101239.87
101246.25
101252.57
101258.82
101264.97
101270.98
101276.81
101282.4
101287.7
101292.67
101297.27
101301.44
101305.17
101308.45
101311.25
101313.6
101315.5
101316.97
101318.05
101318.77
101319.18
101319.31
101319.22
101318.96
101318.58
101318.1
101317.51
101316.79
101315.96
101315.05
101314.07
101313.02
101311.9
101310.7
101309.45
101308.17
101306.86
101305.54
101304.23
101302.91
101301.6
101300.29
101299.01
101297.75
101296.53
101295.36
101294.24
101293.15
101292.05
101290.9
101289.63
101288.19
101286.56
101284.71
101282.67
101280.48
101278.18
101275.87
101273.7
101271.76
101270.1
101268.69
101267.53
101266.48
101265.45
101264.49
101263.67
101263.47
101263.95
101264.66
101265.7
101267.45
101269.29
101271.26
101273.59
101276.18
101278.99
101282
101285.13
101288.32
101291.48
101294.55
101297.44
101300.11
101302.53
101304.69
101306.58
101308.24
101309.67
101310.91
101311.96
101312.72
101313.06
101313.02
101312.59
101311.78
101310.5
101308.94
101307.15
101305.41
101303.93
101302.77
101302.44
101303.1
101304.35
101306.34
101308.93
101312.03
101315.45
101319.11
101322.81
100885.5
100887.51
100889.28
100890.84
100892.3
100893.74
100895.26
100896.94
100898.88
100901.16
100903.85
100907.04
100910.8
100915.16
100920.19
100925.91
100932.31
100939.39
100947.13
100955.47
100964.34
100973.68
100983.37
100993.34
101003.39
101013.43
101023.36
101033.04
101042.37
101051.23
101059.53
101067.24
101074.33
101080.75
101086.56
101091.69
101096.24
101100.26
101103.83
101107.03
101109.9
101112.53
101115.17
101117.46
101119.93
101122.37
101124.87
101127.43
101130.19
101133.13
101136.27
101139.64
101143.29
101147.25
101151.49
101156.04
101160.89
101166.04
101171.45
101177.1
101182.96
101188.99
101195.15
101201.42
101207.75
101214.14
101220.55
101226.97
101233.38
101239.78
101246.15
101252.47
101258.71
101264.84
101270.84
101276.64
101282.21
101287.49
101292.43
101296.99
101301.14
101304.84
101308.07
101310.85
101313.16
101315.02
101316.46
101317.51
101318.21
101318.59
101318.7
101318.59
101318.32
101317.93
101317.45
101316.85
101316.12
101315.28
101314.37
101313.39
101312.34
101311.22
101310.03
101308.78
101307.5
101306.2
101304.9
101303.59
101302.28
101300.97
101299.68
101298.4
101297.15
101295.93
101294.77
101293.66
101292.58
101291.48
101290.34
101289.07
101287.65
101286.02
101284.19
101282.17
101280.01
101277.75
101275.48
101273.35
101271.47
101269.86
101268.51
101267.39
101266.39
101265.4
101264.46
101263.67
101263.51
101263.98
101264.71
101265.77
101267.52
101269.36
101271.35
101273.68
101276.26
101279.08
101282.07
101285.2
101288.38
101291.53
101294.59
101297.47
101300.13
101302.54
101304.69
101306.58
101308.24
101309.66
101310.9
101311.95
101312.7
101313.05
101313
101312.58
101311.77
101310.49
101308.93
101307.15
101305.41
101303.94
101302.78
101302.45
101303.1
101304.35
101306.34
101308.93
101312.02
101315.45
101319.1
101322.81
100884.42
100886.64
100888.62
100890.43
100892.16
100893.89
100895.71
100897.71
100899.97
100902.57
100905.58
100909.08
100913.12
100917.76
100923.03
100928.95
100935.53
100942.75
100950.58
100958.98
100967.87
100977.17
100986.79
100996.64
101006.54
101016.4
101026.11
101035.56
101044.63
101053.22
101061.26
101068.71
101075.53
101081.71
101087.27
101092.2
101096.56
101100.41
101103.85
101106.93
101109.72
101112.27
101114.8
101117.09
101119.56
101121.97
101124.45
101127.02
101129.79
101132.74
101135.9
101139.29
101142.98
101146.96
101151.23
101155.81
101160.69
101165.86
101171.3
101176.97
101182.84
101188.88
101195.05
101201.32
101207.66
101214.04
101220.45
101226.86
101233.27
101239.67
101246.03
101252.34
101258.57
101264.7
101270.67
101276.46
101282.01
101287.27
101292.18
101296.72
101300.83
101304.49
101307.7
101310.44
101312.72
101314.55
101315.96
101316.98
101317.65
101318.01
101318.1
101317.98
101317.7
101317.31
101316.82
101316.21
101315.46
101314.61
101313.7
101312.73
101311.68
101310.55
101309.37
101308.12
101306.85
101305.55
101304.25
101302.95
101301.65
101300.35
101299.07
101297.8
101296.55
101295.35
101294.19
101293.09
101292.01
101290.92
101289.78
101288.52
101287.1
101285.49
101283.67
101281.67
101279.54
101277.32
101275.1
101273.01
101271.18
101269.63
101268.33
101267.26
101266.3
101265.35
101264.44
101263.68
101263.56
101264.01
101264.76
101265.85
101267.59
101269.43
101271.43
101273.76
101276.35
101279.16
101282.15
101285.27
101288.44
101291.58
101294.63
101297.5
101300.15
101302.56
101304.7
101306.58
101308.23
101309.66
101310.89
101311.94
101312.69
101313.03
101312.99
101312.57
101311.76
101310.48
101308.93
101307.15
101305.41
101303.94
101302.79
101302.45
101303.11
101304.35
101306.34
101308.92
101312.01
101315.44
101319.1
101322.8
100883.07
100885.52
100887.76
100889.85
100891.87
100893.92
100896.07
100898.41
100901.01
100903.94
100907.29
100911.1
100915.45
100920.36
100925.87
100932.01
100938.76
100946.11
100954.03
100962.47
100971.36
100980.63
100990.17
100999.88
101009.62
101019.29
101028.78
101037.99
101046.8
101055.12
101062.9
101070.08
101076.65
101082.57
101087.91
101092.62
101096.81
101100.5
101103.81
101106.79
101109.48
101111.94
101114.43
101116.74
101119.16
101121.53
101124.01
101126.6
101129.37
101132.33
101135.51
101138.93
101142.64
101146.65
101150.96
101155.56
101160.47
101165.67
101171.12
101176.81
101182.69
101188.74
101194.92
101201.19
101207.53
101213.92
101220.32
101226.74
101233.14
101239.53
101245.89
101252.19
101258.41
101264.53
101270.49
101276.26
101281.79
101287.03
101291.92
101296.43
101300.51
101304.15
101307.33
101310.04
101312.28
101314.09
101315.47
101316.47
101317.11
101317.45
101317.52
101317.39
101317.1
101316.7
101316.2
101315.57
101314.82
101313.96
101313.05
101312.07
101311.02
101309.9
101308.71
101307.47
101306.2
101304.91
101303.62
101302.33
101301.03
101299.74
101298.46
101297.2
101295.96
101294.76
101293.61
101292.51
101291.44
101290.36
101289.22
101287.97
101286.56
101284.96
101283.16
101281.18
101279.08
101276.9
101274.72
101272.68
101270.9
101269.41
101268.17
101267.14
101266.21
101265.3
101264.41
101263.69
101263.6
101264.05
101264.81
101265.92
101267.66
101269.5
101271.51
101273.85
101276.43
101279.24
101282.22
101285.33
101288.49
101291.63
101294.67
101297.53
101300.17
101302.56
101304.7
101306.58
101308.23
101309.65
101310.88
101311.92
101312.67
101313.02
101312.98
101312.56
101311.75
101310.47
101308.93
101307.15
101305.42
101303.95
101302.79
101302.46
101303.11
101304.35
101306.33
101308.91
101312
101315.44
101319.09
101322.8
100878.48
100881.44
100884.15
100886.67
100889.06
100891.42
100893.81
100896.31
100899.01
100901.97
100905.27
100908.96
100913.1
100917.76
100922.95
100928.71
100935.05
100941.97
100949.45
100957.46
100965.93
100974.82
100984.03
100993.48
101003.06
101012.63
101022.1
101031.36
101040.32
101048.87
101056.93
101064.44
101071.35
101077.67
101083.36
101088.47
101092.98
101096.99
101100.54
101103.73
101106.59
101109.16
101111.6
101114.07
101116.35
101118.71
101121.08
101123.56
101126.15
101128.93
101131.91
101135.11
101138.56
101142.29
101146.33
101150.66
101155.3
101160.24
101165.45
101170.92
101176.63
101182.53
101188.58
101194.77
101201.05
101207.39
101213.77
101220.18
101226.59
101232.99
101239.38
101245.73
101252.02
101258.24
101264.34
101270.29
101276.05
101281.56
101286.78
101291.65
101296.13
101300.19
101303.81
101306.95
101309.64
101311.86
101313.63
101314.99
101315.96
101316.59
101316.9
101316.96
101316.81
101316.51
101316.1
101315.59
101314.96
101314.19
101313.33
101312.41
101311.43
101310.38
101309.26
101308.07
101306.83
101305.57
101304.28
101303
101301.71
101300.42
101299.13
101297.86
101296.6
101295.37
101294.18
101293.04
101291.95
101290.88
101289.81
101288.67
101287.43
101286.03
101284.43
101282.65
101280.7
101278.63
101276.49
101274.36
101272.36
101270.63
101269.19
101268
101267.02
101266.13
101265.26
101264.39
101263.7
101263.64
101264.08
101264.87
101266
101267.73
101269.57
101271.6
101273.94
101276.52
101279.32
101282.3
101285.4
101288.55
101291.68
101294.7
101297.55
101300.19
101302.57
101304.7
101306.58
101308.22
101309.64
101310.87
101311.91
101312.65
101313
101312.97
101312.54
101311.74
101310.47
101308.93
101307.15
101305.43
101303.96
101302.8
101302.46
101303.11
101304.35
101306.33
101308.9
101312
101315.43
101319.09
101322.79
100876.29
100879.52
100882.51
100885.34
100888.08
100890.78
100893.54
100896.43
100899.51
100902.85
100906.52
100910.57
100915.05
100920.02
100925.49
100931.5
100938.05
100945.14
100952.75
100960.83
100969.34
100978.21
100987.37
100996.71
101006.14
101015.54
101024.81
101033.85
101042.56
101050.84
101058.64
101065.88
101072.53
101078.6
101084.06
101088.95
101093.28
101097.12
101100.53
101103.59
101106.31
101108.84
101111.28
101113.67
101115.92
101118.25
101120.61
101123.09
101125.69
101128.48
101131.47
101134.7
101138.17
101141.93
101145.99
101150.36
101155.02
101159.98
101165.22
101170.71
101176.43
101182.34
101188.41
101194.6
101200.88
101207.22
101213.6
101220.01
101226.42
101232.82
101239.2
101245.54
101251.84
101258.04
101264.14
101270.08
101275.83
101281.32
101286.52
101291.37
101295.83
101299.87
101303.46
101306.58
101309.24
101311.44
101313.19
101314.52
101315.47
101316.08
101316.37
101316.41
101316.25
101315.94
101315.53
101315.01
101314.36
101313.57
101312.71
101311.79
101310.8
101309.75
101308.63
101307.44
101306.2
101304.94
101303.66
101302.38
101301.09
101299.81
101298.53
101297.27
101296.01
101294.79
101293.61
101292.47
101291.38
101290.32
101289.26
101288.13
101286.89
101285.5
101283.92
101282.15
101280.23
101278.19
101276.09
101274
101272.05
101270.37
101268.98
101267.84
101266.91
101266.06
101265.23
101264.37
101263.71
101263.68
101264.12
101264.92
101266.07
101267.8
101269.64
101271.68
101274.02
101276.6
101279.4
101282.37
101285.46
101288.6
101291.72
101294.73
101297.58
101300.2
101302.58
101304.7
101306.57
101308.21
101309.63
101310.86
101311.89
101312.63
101312.99
101312.96
101312.53
101311.73
101310.46
101308.93
101307.15
101305.43
101303.97
101302.81
101302.47
101303.12
101304.35
101306.33
101308.89
101311.99
101315.42
101319.09
101322.79
100873.77
100877.29
100880.61
100883.78
100886.87
100889.96
100893.11
100896.4
100899.88
100903.61
100907.67
100912.09
100916.92
100922.21
100927.97
100934.23
100940.99
100948.24
100955.97
100964.12
100972.66
100981.52
100990.61
100999.85
101009.13
101018.35
101027.42
101036.22
101044.68
101052.71
101060.24
101067.22
101073.62
101079.44
101084.67
101089.36
101093.51
101097.18
101100.46
101103.36
101106.03
101108.55
101110.92
101113.24
101115.47
101117.78
101120.13
101122.61
101125.22
101128.03
101131.03
101134.28
101137.78
101141.56
101145.65
101150.04
101154.73
101159.71
101164.97
101170.48
101176.21
101182.13
101188.21
101194.4
101200.69
101207.03
101213.42
101219.82
101226.23
101232.62
101239
101245.34
101251.63
101257.83