/*--------------------------------*- C++ -*----------------------------------*\
| =========                 |                                                 |
| \\      /  F ield         | OpenFOAM: The Open Source CFD Toolbox           |
|  \\    /   O peration     | Version:  2406                                  |
|   \\  /    A nd           | Website:  www.openfoam.com                      |
|    \\/     M anipulation  |                                                 |
\*---------------------------------------------------------------------------*/
FoamFile
{
    version     2.0;
    format      ascii;
    arch        "LSB;label=32;scalar=64";
    class       volScalarField;
    location    "0.003";
    object      rho;
}
// * * * * * * * * * * * * * * * * * * * * * * * * * * * * * * * * * * * * * //

dimensions      [1 -3 0 0 0 0 0];

internalField   nonuniform List<scalar> 
8951
(
1.1953124
1.1952808
1.1952409
1.1952064
1.1951764
1.1951512
1.1951313
1.1951173
1.1951101
1.1951109
1.1951207
1.1951405
1.1951705
1.1952131
1.1952648
1.1953303
1.195411
1.1954994
1.1956079
1.1957242
1.1958467
1.1959914
1.1961286
1.1962806
1.1964346
1.1965935
1.1967479
1.1968977
1.1970412
1.1971757
1.1972987
1.1974072
1.1974994
1.1975742
1.1976296
1.1976668
1.1976874
1.1976939
1.1976921
1.1976823
1.1976712
1.1976606
1.1976525
1.1976494
1.1976527
1.1976615
1.1976747
1.1976996
1.1977337
1.197773
1.197818
1.1978702
1.1979283
1.1979926
1.1980627
1.1981364
1.1982181
1.1983021
1.1983893
1.1984789
1.1985702
1.1986624
1.1987549
1.1988473
1.1989392
1.1990304
1.1991209
1.1992108
1.1993004
1.1993899
1.1994794
1.1995691
1.1996594
1.1997501
1.1998412
1.1999325
1.2000238
1.2001146
1.2002048
1.2002941
1.200382
1.2004683
1.2005528
1.2006352
1.2007153
1.200793
1.2008681
1.2009405
1.2010101
1.2010768
1.2011407
1.2012019
1.2012604
1.2013159
1.2013679
1.2014165
1.2014614
1.2015027
1.2015404
1.2015743
1.2016043
1.2016307
1.2016535
1.2016727
1.2016884
1.2017007
1.2017096
1.2017149
1.201717
1.2017157
1.2017115
1.2017043
1.2016944
1.2016818
1.2016665
1.2016481
1.2016266
1.2016016
1.2015733
1.2015418
1.2015079
1.2014722
1.2014362
1.2014015
1.2013701
1.2013435
1.2013232
1.2013098
1.2013039
1.2013049
1.2013134
1.2013351
1.20137
1.2014204
1.2014734
1.2015126
1.2015368
1.201554
1.201568
1.2015814
1.2015971
1.2016173
1.2016396
1.2016634
1.2016881
1.2017134
1.2017385
1.2017634
1.2017873
1.2018099
1.2018309
1.2018499
1.2018673
1.2018829
1.2018961
1.2019072
1.2019161
1.2019219
1.2019238
1.2019221
1.2019171
1.2019085
1.2018957
1.2018806
1.2018641
1.2018485
1.2018362
1.2018279
1.2018274
1.2018343
1.2018455
1.2018618
1.2018827
1.2019079
1.2019348
1.2019648
1.2019929
1.1953265
1.1953047
1.1952693
1.1952329
1.1952019
1.1951745
1.1951518
1.1951346
1.1951237
1.1951199
1.1951243
1.1951377
1.1951614
1.1951956
1.1952414
1.1952976
1.1953676
1.1954514
1.1955447
1.1956559
1.1957738
1.195902
1.1960458
1.1961844
1.1963392
1.1964892
1.1966442
1.1967988
1.1969459
1.1970853
1.1972145
1.1973315
1.1974332
1.1975188
1.1975861
1.1976348
1.1976663
1.1976826
1.1976862
1.1976835
1.1976733
1.1976637
1.1976552
1.1976491
1.197649
1.1976542
1.1976636
1.1976823
1.1977134
1.1977473
1.1977872
1.1978341
1.1978879
1.1979472
1.1980124
1.1980832
1.1981584
1.1982394
1.1983234
1.1984103
1.1984995
1.1985902
1.1986818
1.1987736
1.1988652
1.1989563
1.1990468
1.1991366
1.1992259
1.1993149
1.1994037
1.1994925
1.1995816
1.199671
1.1997609
1.1998509
1.1999411
1.200031
1.2001205
1.2002092
1.2002968
1.2003831
1.2004678
1.2005507
1.2006315
1.20071
1.2007862
1.2008599
1.2009309
1.2009993
1.2010649
1.2011279
1.2011883
1.2012461
1.2013009
1.2013524
1.2014004
1.201445
1.2014861
1.2015236
1.2015574
1.2015874
1.2016139
1.2016367
1.2016561
1.2016721
1.2016847
1.2016939
1.2016996
1.201702
1.2017013
1.2016975
1.2016909
1.2016816
1.2016696
1.2016549
1.2016372
1.2016164
1.2015923
1.2015647
1.2015342
1.2015011
1.2014665
1.2014315
1.2013977
1.2013673
1.2013416
1.2013221
1.2013093
1.2013038
1.201305
1.2013137
1.2013352
1.2013702
1.2014191
1.2014738
1.2015122
1.2015364
1.2015543
1.2015687
1.2015817
1.2015976
1.2016179
1.2016402
1.201664
1.2016887
1.2017139
1.201739
1.2017638
1.2017877
1.2018102
1.2018311
1.2018501
1.2018674
1.201883
1.2018961
1.2019072
1.201916
1.2019218
1.2019237
1.201922
1.201917
1.2019084
1.2018956
1.2018805
1.2018641
1.2018485
1.2018362
1.2018279
1.2018274
1.2018343
1.2018455
1.2018618
1.2018827
1.2019079
1.2019348
1.2019648
1.2019928
1.1953098
1.1952838
1.1952504
1.1952203
1.1951946
1.1951716
1.1951535
1.1951414
1.1951355
1.1951368
1.1951462
1.1951647
1.1951932
1.1952321
1.1952825
1.1953435
1.1954179
1.1955051
1.1956025
1.1957156
1.1958353
1.1959663
1.1961082
1.1962493
1.1964016
1.1965531
1.1967019
1.1968507
1.1969953
1.1971297
1.1972526
1.1973626
1.1974571
1.1975349
1.1975946
1.1976369
1.197663
1.1976752
1.1976763
1.197673
1.1976625
1.1976547
1.1976483
1.1976432
1.1976459
1.1976513
1.1976658
1.197691
1.1977219
1.1977564
1.1977982
1.197847
1.1979021
1.1979625
1.1980287
1.1981003
1.1981764
1.1982574
1.1983414
1.1984283
1.1985172
1.1986075
1.1986986
1.1987898
1.1988809
1.1989714
1.1990613
1.1991506
1.1992393
1.1993278
1.1994161
1.1995044
1.1995928
1.1996815
1.1997705
1.1998596
1.1999486
1.2000374
1.2001255
1.2002128
1.200299
1.2003838
1.200467
1.2005483
1.2006276
1.2007047
1.2007795
1.2008518
1.2009216
1.2009888
1.2010534
1.2011156
1.2011753
1.2012324
1.2012866
1.2013375
1.2013851
1.2014293
1.2014701
1.2015074
1.2015411
1.2015711
1.2015975
1.2016204
1.20164
1.2016562
1.2016689
1.2016784
1.2016844
1.2016872
1.2016869
1.2016836
1.2016775
1.2016687
1.2016574
1.2016433
1.2016264
1.2016063
1.2015829
1.2015562
1.2015265
1.2014944
1.2014608
1.2014268
1.2013941
1.2013648
1.2013401
1.2013213
1.2013092
1.2013042
1.2013056
1.2013143
1.2013354
1.2013701
1.2014179
1.2014739
1.2015121
1.2015362
1.2015546
1.2015696
1.201582
1.2015983
1.2016186
1.2016409
1.2016646
1.2016893
1.2017145
1.2017395
1.2017642
1.201788
1.2018105
1.2018313
1.2018503
1.2018676
1.2018831
1.2018962
1.2019071
1.201916
1.2019217
1.2019235
1.2019219
1.2019168
1.2019083
1.2018955
1.2018804
1.201864
1.2018485
1.2018362
1.2018279
1.2018274
1.2018343
1.2018454
1.2018618
1.2018827
1.2019079
1.2019347
1.2019648
1.2019928
1.1952844
1.1952582
1.1952308
1.1952072
1.1951872
1.1951701
1.1951581
1.1951518
1.1951516
1.1951586
1.1951735
1.1951974
1.1952309
1.1952746
1.1953295
1.195395
1.1954732
1.1955634
1.1956641
1.1957784
1.1958995
1.1960316
1.1961719
1.1963135
1.1964631
1.1966124
1.1967594
1.1969012
1.1970391
1.197169
1.1972854
1.1973882
1.1974754
1.1975453
1.1975982
1.1976345
1.1976557
1.1976645
1.1976638
1.1976604
1.1976498
1.1976442
1.197639
1.1976351
1.1976389
1.1976494
1.1976693
1.1976951
1.1977263
1.1977626
1.1978065
1.1978567
1.1979129
1.1979744
1.1980415
1.1981138
1.1981905
1.1982717
1.1983559
1.1984427
1.1985315
1.1986215
1.1987122
1.198803
1.1988936
1.1989836
1.1990731
1.1991619
1.1992503
1.1993383
1.1994262
1.199514
1.1996019
1.19969
1.1997783
1.1998665
1.1999546
1.2000423
1.2001292
1.2002153
1.2003002
1.2003836
1.2004654
1.2005454
1.2006233
1.2006991
1.2007726
1.2008437
1.2009124
1.2009786
1.2010422
1.2011036
1.2011626
1.2012191
1.2012727
1.2013231
1.2013702
1.2014141
1.2014546
1.2014917
1.2015252
1.2015551
1.2015815
1.2016045
1.2016242
1.2016405
1.2016535
1.2016631
1.2016695
1.2016726
1.2016727
1.2016698
1.2016642
1.201656
1.2016453
1.2016319
1.2016156
1.2015962
1.2015736
1.2015478
1.201519
1.2014879
1.2014553
1.2014224
1.2013908
1.2013625
1.2013388
1.201321
1.2013095
1.2013049
1.2013064
1.2013151
1.2013358
1.20137
1.2014172
1.201473
1.2015125
1.2015359
1.201555
1.2015704
1.2015824
1.2015989
1.2016192
1.2016415
1.2016652
1.2016899
1.201715
1.20174
1.2017646
1.2017883
1.2018107
1.2018315
1.2018504
1.2018677
1.2018831
1.2018962
1.2019071
1.2019159
1.2019215
1.2019234
1.2019218
1.2019167
1.2019082
1.2018953
1.2018804
1.2018639
1.2018484
1.2018362
1.2018279
1.2018274
1.2018343
1.2018454
1.2018618
1.2018827
1.2019079
1.2019347
1.2019648
1.2019927
1.1952754
1.1952565
1.1952347
1.195214
1.1951967
1.1951825
1.1951717
1.1951658
1.1951654
1.1951711
1.1951837
1.1952041
1.1952332
1.1952716
1.19532
1.1953793
1.1954489
1.1955306
1.1956234
1.1957267
1.195842
1.1959641
1.1960965
1.1962352
1.1963762
1.1965228
1.1966689
1.1968121
1.1969505
1.1970808
1.1972037
1.1973136
1.1974097
1.1974893
1.1975518
1.1975984
1.1976293
1.1976463
1.1976523
1.1976504
1.1976474
1.1976366
1.1976327
1.1976265
1.1976281
1.1976342
1.1976499
1.1976701
1.1976966
1.1977296
1.1977679
1.1978133
1.1978647
1.197922
1.1979845
1.1980524
1.1981253
1.1982026
1.198284
1.1983683
1.1984551
1.1985437
1.1986335
1.1987238
1.1988143
1.1989045
1.1989942
1.1990832
1.1991717
1.1992598
1.1993475
1.199435
1.1995224
1.1996098
1.1996974
1.1997849
1.1998724
1.1999596
1.2000462
1.2001321
1.200217
1.2003006
1.2003828
1.2004633
1.2005419
1.2006186
1.2006931
1.2007654
1.2008354
1.2009029
1.2009681
1.2010309
1.2010915
1.2011498
1.2012057
1.2012587
1.2013086
1.2013553
1.2013988
1.2014391
1.201476
1.2015093
1.2015392
1.2015656
1.2015886
1.2016084
1.2016249
1.2016381
1.201648
1.2016546
1.2016581
1.2016586
1.2016561
1.2016511
1.2016434
1.2016333
1.2016205
1.2016049
1.2015863
1.2015644
1.2015394
1.2015115
1.2014814
1.2014498
1.201418
1.2013875
1.2013602
1.2013375
1.2013206
1.2013098
1.2013056
1.2013073
1.2013158
1.2013361
1.20137
1.201417
1.2014719
1.2015124
1.201536
1.2015554
1.201571
1.2015828
1.2015995
1.2016198
1.2016421
1.2016658
1.2016904
1.2017155
1.2017404
1.201765
1.2017887
1.201811
1.2018317
1.2018506
1.2018678
1.2018832
1.2018961
1.201907
1.2019158
1.2019214
1.2019233
1.2019216
1.2019166
1.2019081
1.2018952
1.2018803
1.2018639
1.2018484
1.2018363
1.201828
1.2018274
1.2018343
1.2018454
1.2018618
1.2018827
1.2019079
1.2019347
1.2019648
1.2019927
1.1952449
1.1952296
1.1952138
1.1951996
1.1951885
1.1951804
1.1951759
1.1951761
1.1951817
1.1951932
1.1952114
1.1952373
1.1952715
1.1953148
1.1953678
1.1954311
1.1955046
1.1955894
1.1956847
1.1957901
1.1959061
1.1960289
1.1961609
1.1962981
1.1964376
1.1965809
1.1967233
1.1968621
1.1969954
1.1971206
1.1972355
1.1973383
1.1974278
1.1974998
1.1975553
1.1975961
1.197622
1.1976355
1.1976392
1.1976365
1.1976337
1.1976233
1.1976185
1.1976162
1.1976223
1.1976325
1.1976478
1.197669
1.1976975
1.1977324
1.1977722
1.1978189
1.1978715
1.1979298
1.1979932
1.1980619
1.1981354
1.1982131
1.1982947
1.1983791
1.1984659
1.1985544
1.1986439
1.198734
1.1988242
1.198914
1.1990034
1.1990922
1.1991804
1.1992681
1.1993555
1.1994427
1.1995298
1.1996168
1.1997038
1.1997908
1.1998775
1.1999639
1.2000496
1.2001344
1.2002181
1.2003006
1.2003815
1.2004607
1.2005381
1.2006135
1.2006868
1.2007579
1.2008267
1.2008933
1.2009575
1.2010194
1.2010792
1.2011369
1.2011922
1.2012446
1.201294
1.2013403
1.2013835
1.2014235
1.2014602
1.2014934
1.2015232
1.2015496
1.2015727
1.2015926
1.2016092
1.2016227
1.2016328
1.2016398
1.2016436
1.2016445
1.2016425
1.2016379
1.2016309
1.2016213
1.2016092
1.2015943
1.2015764
1.2015553
1.2015311
1.2015041
1.2014749
1.2014443
1.2014136
1.2013841
1.2013579
1.2013362
1.2013201
1.20131
1.2013062
1.201308
1.2013165
1.2013364
1.2013699
1.201417
1.2014714
1.2015119
1.2015362
1.2015559
1.2015714
1.2015833
1.2016002
1.2016204
1.2016427
1.2016664
1.201691
1.201716
1.2017409
1.2017654
1.2017889
1.2018112
1.2018319
1.2018507
1.2018679
1.2018832
1.2018961
1.201907
1.2019157
1.2019213
1.2019231
1.2019215
1.2019164
1.2019079
1.2018951
1.2018802
1.2018638
1.2018484
1.2018363
1.201828
1.2018274
1.2018344
1.2018454
1.2018618
1.2018827
1.2019079
1.2019347
1.2019648
1.2019927
1.1952138
1.1952041
1.1951946
1.1951869
1.1951821
1.1951802
1.195182
1.1951884
1.1952
1.1952174
1.1952414
1.1952727
1.195312
1.1953601
1.1954175
1.1954848
1.1955618
1.1956495
1.195747
1.195854
1.1959704
1.1960935
1.1962248
1.19636
1.1964975
1.1966372
1.1967754
1.1969094
1.197037
1.1971562
1.1972643
1.1973599
1.1974415
1.1975071
1.1975567
1.1975915
1.1976129
1.1976233
1.1976254
1.1976219
1.1976169
1.1976117
1.1976055
1.1976091
1.1976164
1.1976278
1.197644
1.1976672
1.1976979
1.1977341
1.1977753
1.1978233
1.197877
1.1979362
1.1980004
1.1980698
1.1981439
1.198222
1.1983038
1.1983883
1.1984751
1.1985635
1.1986529
1.1987427
1.1988326
1.1989222
1.1990113
1.1990999
1.1991879
1.1992754
1.1993625
1.1994495
1.1995362
1.1996229
1.1997094
1.1997958
1.1998819
1.1999674
1.2000522
1.200136
1.2002187
1.2003
1.2003798
1.2004578
1.2005339
1.2006081
1.2006802
1.2007502
1.2008179
1.2008834
1.2009467
1.2010078
1.2010669
1.2011239
1.2011786
1.2012305
1.2012793
1.2013252
1.2013681
1.2014079
1.2014444
1.2014775
1.2015073
1.2015337
1.2015569
1.2015768
1.2015937
1.2016073
1.2016177
1.201625
1.2016292
1.2016305
1.201629
1.2016249
1.2016184
1.2016094
1.2015979
1.2015837
1.2015665
1.2015462
1.2015229
1.2014967
1.2014685
1.2014389
1.2014092
1.2013807
1.2013555
1.2013348
1.2013195
1.20131
1.2013066
1.2013086
1.2013171
1.2013367
1.2013697
1.2014169
1.2014711
1.2015115
1.2015362
1.2015565
1.2015717
1.2015838
1.2016008
1.2016211
1.2016433
1.2016669
1.2016915
1.2017165
1.2017413
1.2017657
1.2017892
1.2018114
1.2018321
1.2018508
1.2018679
1.2018832
1.2018961
1.2019069
1.2019156
1.2019212
1.201923
1.2019214
1.2019163
1.2019078
1.201895
1.2018802
1.2018638
1.2018484
1.2018364
1.201828
1.2018274
1.2018344
1.2018454
1.2018618
1.2018826
1.2019079
1.2019347
1.2019649
1.2019926
1.195183
1.1951793
1.1951762
1.195175
1.1951767
1.1951813
1.1951895
1.1952022
1.1952199
1.1952433
1.1952729
1.1953097
1.1953541
1.1954069
1.1954687
1.1955397
1.19562
1.1957103
1.1958096
1.1959179
1.1960346
1.1961575
1.1962874
1.1964205
1.1965554
1.1966911
1.1968247
1.1969536
1.1970752
1.1971878
1.1972892
1.1973777
1.1974515
1.197511
1.1975553
1.1975845
1.197602
1.1976098
1.1976107
1.1976068
1.1975996
1.1975999
1.1975956
1.1976004
1.1976086
1.1976217
1.1976396
1.1976651
1.1976972
1.1977346
1.1977772
1.1978263
1.197881
1.1979411
1.1980061
1.1980762
1.1981507
1.1982292
1.1983112
1.1983959
1.1984827
1.198571
1.1986603
1.19875
1.1988397
1.1989291
1.199018
1.1991063
1.1991942
1.1992815
1.1993685
1.1994552
1.1995417
1.199628
1.1997142
1.1998001
1.1998855
1.1999703
1.2000542
1.2001371
1.2002187
1.200299
1.2003776
1.2004544
1.2005294
1.2006024
1.2006734
1.2007422
1.2008089
1.2008734
1.2009358
1.2009961
1.2010544
1.2011109
1.2011649
1.2012162
1.2012646
1.2013101
1.2013527
1.2013923
1.2014286
1.2014616
1.2014913
1.2015177
1.201541
1.2015611
1.2015781
1.201592
1.2016027
1.2016103
1.2016148
1.2016165
1.2016155
1.2016119
1.201606
1.2015976
1.2015867
1.2015732
1.2015567
1.2015372
1.2015146
1.2014894
1.201462
1.2014335
1.2014048
1.2013774
1.2013531
1.2013333
1.2013189
1.20131
1.201307
1.2013091
1.2013176
1.2013369
1.2013696
1.2014169
1.2014707
1.2015114
1.2015363
1.201557
1.2015719
1.2015843
1.2016015
1.2016217
1.2016439
1.2016675
1.2016921
1.201717
1.2017417
1.2017661
1.2017895
1.2018116
1.2018322
1.2018509
1.201868
1.2018832
1.2018961
1.2019068
1.2019155
1.2019211
1.2019229
1.2019213
1.2019162
1.2019077
1.2018949
1.2018801
1.2018637
1.2018485
1.2018364
1.2018281
1.2018274
1.2018344
1.2018454
1.2018618
1.2018826
1.2019078
1.2019347
1.2019649
1.2019926
1.1951513
1.1951519
1.1951544
1.1951579
1.1951634
1.1951716
1.1951828
1.1951976
1.1952167
1.1952407
1.19527
1.1953055
1.1953476
1.1953972
1.1954546
1.1955205
1.1955951
1.1956786
1.1957711
1.1958721
1.1959812
1.1960978
1.1962202
1.1963483
1.1964789
1.1966107
1.1967422
1.1968709
1.1969942
1.1971097
1.1972156
1.1973101
1.1973915
1.1974586
1.1975119
1.1975504
1.1975754
1.1975895
1.1975952
1.1975953
1.1975912
1.1975852
1.1975865
1.1975844
1.1975903
1.1975999
1.1976148
1.1976349
1.1976621
1.1976953
1.1977339
1.1977778
1.1978279
1.1978836
1.1979445
1.1980103
1.1980809
1.1981559
1.1982348
1.1983171
1.1984019
1.1984887
1.198577
1.1986662
1.1987558
1.1988453
1.1989346
1.1990234
1.1991116
1.1991993
1.1992865
1.1993734
1.19946
1.1995463
1.1996323
1.1997181
1.1998035
1.1998883
1.1999724
1.2000556
1.2001376
1.2002183
1.2002974
1.200375
1.2004507
1.2005246
1.2005964
1.2006663
1.2007341
1.2007997
1.2008633
1.2009247
1.2009843
1.201042
1.2010978
1.2011512
1.201202
1.2012499
1.201295
1.2013373
1.2013767
1.2014128
1.2014457
1.2014754
1.2015019
1.2015252
1.2015455
1.2015626
1.2015767
1.2015877
1.2015956
1.2016005
1.2016026
1.2016021
1.201599
1.2015936
1.2015859
1.2015756
1.2015628
1.201547
1.2015282
1.2015065
1.2014821
1.2014557
1.2014281
1.2014004
1.201374
1.2013507
1.2013318
1.2013182
1.2013099
1.2013073
1.2013096
1.2013181
1.201337
1.2013695
1.2014168
1.2014703
1.2015112
1.2015364
1.2015574
1.2015722
1.2015849
1.2016021
1.2016223
1.2016445
1.2016681
1.2016926
1.2017174
1.2017421
1.2017664
1.2017898
1.2018118
1.2018324
1.201851
1.201868
1.2018832
1.201896
1.2019068
1.2019154
1.2019209
1.2019228
1.2019212
1.201916
1.2019076
1.2018948
1.2018801
1.2018637
1.2018485
1.2018365
1.2018281
1.2018274
1.2018344
1.2018454
1.2018618
1.2018826
1.2019078
1.2019346
1.2019649
1.2019925
1.1951126
1.1951199
1.1951288
1.195139
1.1951513
1.1951662
1.1951841
1.1952056
1.1952312
1.1952615
1.195297
1.1953382
1.1953858
1.1954404
1.1955024
1.1955724
1.1956504
1.1957367
1.1958313
1.1959336
1.1960433
1.1961595
1.1962809
1.1964069
1.1965347
1.196663
1.19679
1.1969134
1.197031
1.1971402
1.1972395
1.197327
1.1974017
1.1974623
1.1975096
1.197543
1.1975642
1.1975755
1.1975796
1.1975791
1.1975752
1.1975709
1.1975724
1.1975723
1.1975795
1.1975905
1.1976073
1.1976293
1.1976578
1.1976921
1.1977319
1.197777
1.1978281
1.1978847
1.1979463
1.1980128
1.1980841
1.1981596
1.1982388
1.1983213
1.1984063
1.1984932
1.1985815
1.1986706
1.1987601
1.1988496
1.1989388
1.1990275
1.1991157
1.1992033
1.1992905
1.1993773
1.1994637
1.1995499
1.1996357
1.1997212
1.1998061
1.1998904
1.1999739
1.2000563
1.2001375
1.2002173
1.2002955
1.200372
1.2004466
1.2005194
1.2005902
1.200659
1.2007257
1.2007904
1.200853
1.2009137
1.2009724
1.2010295
1.2010846
1.2011375
1.2011877
1.2012352
1.20128
1.201322
1.2013611
1.2013971
1.2014299
1.2014595
1.201486
1.2015095
1.2015298
1.2015472
1.2015615
1.2015728
1.201581
1.2015863
1.2015889
1.2015888
1.2015862
1.2015814
1.2015742
1.2015646
1.2015524
1.2015374
1.2015193
1.2014984
1.2014748
1.2014493
1.2014228
1.2013961
1.2013706
1.2013483
1.2013303
1.2013174
1.2013098
1.2013075
1.20131
1.2013185
1.2013372
1.2013694
1.2014167
1.20147
1.2015111
1.2015367
1.2015577
1.2015725
1.2015855
1.2016028
1.201623
1.2016451
1.2016687
1.2016931
1.2017179
1.2017425
1.2017667
1.20179
1.201812
1.2018325
1.2018511
1.2018681
1.2018832
1.201896
1.2019067
1.2019152
1.2019208
1.2019226
1.201921
1.2019159
1.2019075
1.2018947
1.20188
1.2018636
1.2018485
1.2018365
1.2018282
1.2018274
1.2018344
1.2018454
1.2018618
1.2018826
1.2019078
1.2019346
1.2019649
1.2019925
1.1950722
1.1950861
1.1951017
1.1951188
1.195138
1.1951598
1.1951845
1.1952128
1.195245
1.1952817
1.1953233
1.1953704
1.1954235
1.1954831
1.1955496
1.1956235
1.1957048
1.1957937
1.1958901
1.1959935
1.1961034
1.196219
1.1963391
1.1964627
1.1965874
1.1967118
1.1968341
1.1969521
1.1970637
1.1971666
1.1972592
1.19734
1.1974082
1.1974627
1.1975045
1.1975333
1.1975513
1.1975601
1.1975631
1.1975621
1.1975588
1.1975558
1.1975578
1.1975594
1.1975679
1.1975806
1.1975993
1.1976227
1.1976523
1.1976878
1.1977287
1.1977749
1.1978269
1.1978843
1.1979467
1.1980139
1.1980857
1.1981617
1.1982413
1.198324
1.1984091
1.1984962
1.1985845
1.1986737
1.1987632
1.1988526
1.1989418
1.1990304
1.1991186
1.1992062
1.1992934
1.1993802
1.1994666
1.1995526
1.1996382
1.1997234
1.199808
1.1998918
1.1999747
1.2000565
1.2001369
1.2002158
1.2002931
1.2003686
1.2004423
1.200514
1.2005838
1.2006515
1.2007173
1.200781
1.2008427
1.2009025
1.2009606
1.2010169
1.2010715
1.2011238
1.2011735
1.2012205
1.2012649
1.2013067
1.2013456
1.2013814
1.2014141
1.2014437
1.2014703
1.2014938
1.2015143
1.2015319
1.2015464
1.2015579
1.2015665
1.2015722
1.2015752
1.2015755
1.2015735
1.2015692
1.2015627
1.2015537
1.2015421
1.2015278
1.2015105
1.2014903
1.2014677
1.2014431
1.2014174
1.2013917
1.2013673
1.2013459
1.2013287
1.2013167
1.2013096
1.2013077
1.2013103
1.2013189
1.2013373
1.2013693
1.2014166
1.2014697
1.201511
1.201537
1.201558
1.2015729
1.2015861
1.2016035
1.2016236
1.2016457
1.2016692
1.2016936
1.2017183
1.2017429
1.201767
1.2017902
1.2018122
1.2018326
1.2018512
1.2018681
1.2018832
1.2018959
1.2019066
1.2019151
1.2019207
1.2019225
1.2019209
1.2019158
1.2019074
1.2018946
1.20188
1.2018636
1.2018485
1.2018366
1.2018282
1.2018275
1.2018344
1.2018454
1.2018617
1.2018825
1.2019078
1.2019346
1.2019649
1.2019924
1.1950292
1.19505
1.1950724
1.1950964
1.1951227
1.1951515
1.1951832
1.1952183
1.1952573
1.1953004
1.1953483
1.1954012
1.1954598
1.1955243
1.1955953
1.195673
1.1957575
1.1958488
1.1959468
1.196051
1.196161
1.1962757
1.1963941
1.1965151
1.1966364
1.1967566
1.196874
1.1969865
1.1970921
1.1971887
1.1972748
1.1973491
1.1974111
1.19746
1.1974968
1.1975216
1.1975366
1.1975436
1.1975456
1.1975445
1.1975417
1.1975399
1.1975426
1.1975457
1.1975558
1.1975703
1.1975901
1.1976149
1.1976458
1.1976823
1.1977242
1.1977715
1.1978244
1.1978825
1.1979457
1.1980135
1.1980859
1.1981622
1.1982422
1.1983252
1.1984105
1.1984977
1.1985861
1.1986753
1.1987649
1.1988543
1.1989435
1.1990322
1.1991204
1.1992081
1.1992953
1.1993821
1.1994685
1.1995544
1.1996399
1.1997249
1.1998091
1.1998926
1.1999749
1.200056
1.2001357
1.2002138
1.2002902
1.2003649
1.2004376
1.2005083
1.2005771
1.2006439
1.2007087
1.2007714
1.2008323
1.2008913
1.2009487
1.2010044
1.2010584
1.2011101
1.2011593
1.2012058
1.2012499
1.2012914
1.2013301
1.2013658
1.2013985
1.201428
1.2014546
1.2014782
1.2014989
1.2015166
1.2015314
1.2015432
1.2015521
1.2015582
1.2015616
1.2015624
1.2015609
1.2015572
1.2015512
1.2015428
1.2015319
1.2015183
1.2015017
1.2014824
1.2014605
1.2014368
1.2014121
1.2013874
1.2013639
1.2013434
1.2013272
1.2013158
1.2013093
1.2013078
1.2013106
1.2013192
1.2013373
1.2013692
1.2014166
1.2014694
1.201511
1.2015374
1.2015583
1.2015733
1.2015867
1.2016041
1.2016242
1.2016463
1.2016698
1.2016941
1.2017188
1.2017433
1.2017673
1.2017904
1.2018123
1.2018327
1.2018513
1.2018681
1.2018832
1.2018959
1.2019065
1.201915
1.2019205
1.2019224
1.2019208
1.2019157
1.2019073
1.2018945
1.20188
1.2018636
1.2018486
1.2018367
1.2018283
1.2018275
1.2018344
1.2018453
1.2018617
1.2018825
1.2019077
1.2019345
1.2019649
1.2019924
1.1949829
1.1950107
1.1950401
1.1950713
1.1951046
1.1951406
1.1951794
1.1952214
1.1952672
1.1953169
1.195371
1.1954299
1.1954939
1.1955634
1.1956387
1.1957201
1.1958076
1.1959012
1.1960007
1.1961055
1.1962153
1.1963289
1.1964454
1.1965635
1.1966812
1.1967972
1.1969096
1.1970165
1.197116
1.1972064
1.1972862
1.1973544
1.1974105
1.1974542
1.1974866
1.1975079
1.1975205
1.1975259
1.1975273
1.1975263
1.1975241
1.1975234
1.1975266
1.1975316
1.1975433
1.197559
1.19758
1.197606
1.1976381
1.1976756
1.1977186
1.1977668
1.1978205
1.1978794
1.1979432
1.1980117
1.1980845
1.1981614
1.1982417
1.1983249
1.1984105
1.1984978
1.1985864
1.1986757
1.1987653
1.1988548
1.1989441
1.1990329
1.1991212
1.1992089
1.1992962
1.1993831
1.1994695
1.1995554
1.1996408
1.1997256
1.1998096
1.1998926
1.1999745
1.200055
1.2001341
1.2002114
1.2002871
1.2003608
1.2004326
1.2005024
1.2005703
1.2006361
1.2007
1.2007619
1.2008219
1.2008802
1.2009368
1.2009919
1.2010453
1.2010965
1.2011451
1.2011913
1.201235
1.2012763
1.2013147
1.2013503
1.2013828
1.2014124
1.201439
1.2014627
1.2014835
1.2015014
1.2015165
1.2015286
1.2015378
1.2015443
1.2015481
1.2015494
1.2015484
1.2015452
1.2015398
1.2015321
1.2015219
1.2015089
1.2014931
1.2014745
1.2014535
1.2014306
1.2014069
1.2013832
1.2013606
1.201341
1.2013256
1.2013149
1.201309
1.2013079
1.2013108
1.2013195
1.2013374
1.2013691
1.2014165
1.201469
1.201511
1.2015377
1.2015586
1.2015737
1.2015873
1.2016048
1.2016248
1.2016469
1.2016703
1.2016946
1.2017192
1.2017436
1.2017676
1.2017906
1.2018124
1.2018328
1.2018513
1.2018681
1.2018831
1.2018958
1.2019064
1.2019148
1.2019203
1.2019222
1.2019206
1.2019156
1.2019072
1.2018944
1.2018799
1.2018635
1.2018486
1.2018368
1.2018284
1.2018275
1.2018344
1.2018453
1.2018617
1.2018824
1.2019077
1.2019345
1.2019648
1.2019924
1.1949328
1.1949676
1.1950042
1.1950425
1.1950831
1.1951263
1.1951723
1.1952214
1.195274
1.1953303
1.1953907
1.1954555
1.195525
1.1955994
1.195679
1.195764
1.1958545
1.1959502
1.196051
1.1961563
1.1962657
1.1963781
1.1964924
1.1966076
1.1967216
1.1968332
1.1969405
1.1970418
1.1971355
1.1972198
1.1972935
1.1973559
1.1974067
1.1974457
1.197474
1.1974924
1.1975029
1.1975071
1.1975081
1.1975073
1.1975058
1.1975058
1.1975102
1.1975172
1.1975299
1.1975467
1.1975689
1.1975962
1.1976293
1.1976678
1.1977117
1.1977608
1.1978152
1.1978749
1.1979394
1.1980084
1.1980818
1.1981591
1.1982398
1.1983233
1.1984091
1.1984967
1.1985854
1.1986748
1.1987645
1.1988542
1.1989435
1.1990325
1.1991209
1.1992088
1.1992962
1.1993831
1.1994696
1.1995555
1.1996409
1.1997255
1.1998093
1.199892
1.1999735
1.2000535
1.2001319
1.2002086
1.2002835
1.2003564
1.2004274
1.2004963
1.2005632
1.2006282
1.2006912
1.2007522
1.2008115
1.200869
1.200925
1.2009795
1.2010323
1.2010829
1.201131
1.2011767
1.2012202
1.2012612
1.2012995
1.2013349
1.2013673
1.2013969
1.2014235
1.2014473
1.2014683
1.2014864
1.2015017
1.2015141
1.2015237
1.2015305
1.2015347
1.2015365
1.201536
1.2015334
1.2015286
1.2015215
1.2015119
1.2014996
1.2014845
1.2014667
1.2014465
1.2014245
1.2014017
1.2013789
1.2013573
1.2013385
1.2013239
1.201314
1.2013087
1.2013079
1.201311
1.2013197
1.2013373
1.201369
1.2014164
1.2014687
1.2015111
1.2015381
1.2015589
1.2015741
1.201588
1.2016054
1.2016254
1.2016475
1.2016708
1.2016951
1.2017196
1.201744
1.2017679
1.2017908
1.2018126
1.2018329
1.2018513
1.2018681
1.2018831
1.2018957
1.2019062
1.2019147
1.2019202
1.2019221
1.2019205
1.2019154
1.2019071
1.2018943
1.2018799
1.2018635
1.2018487
1.2018368
1.2018284
1.2018276
1.2018344
1.2018453
1.2018617
1.2018824
1.2019076
1.2019345
1.2019648
1.2019923
1.1948376
1.1948781
1.1949202
1.1949639
1.1950096
1.1950576
1.195108
1.1951613
1.1952175
1.195277
1.19534
1.1954067
1.1954774
1.1955523
1.1956316
1.1957155
1.1958041
1.1958973
1.195995
1.196097
1.1962027
1.1963116
1.1964226
1.1965347
1.1966468
1.1967571
1.1968642
1.1969665
1.1970624
1.1971503
1.1972289
1.1972969
1.1973539
1.1973998
1.1974346
1.1974594
1.1974752
1.197484
1.1974874
1.1974883
1.1974876
1.1974864
1.1974879
1.1974937
1.197502
1.1975156
1.1975335
1.1975569
1.1975854
1.1976194
1.1976588
1.1977036
1.1977535
1.1978088
1.1978691
1.1979342
1.1980039
1.1980778
1.1981555
1.1982366
1.1983204
1.1984065
1.1984942
1.1985831
1.1986727
1.1987626
1.1988524
1.1989419
1.199031
1.1991196
1.1992077
1.1992952
1.1993823
1.1994689
1.1995549
1.1996402
1.1997248
1.1998084
1.1998908
1.1999719
1.2000515
1.2001294
1.2002054
1.2002796
1.2003518
1.2004219
1.20049
1.2005561
1.2006202
1.2006823
1.2007426
1.200801
1.2008579
1.2009132
1.2009671
1.2010194
1.2010694
1.201117
1.2011623
1.2012055
1.2012462
1.2012843
1.2013196
1.2013519
1.2013814
1.2014081
1.201432
1.2014531
1.2014715
1.201487
1.2014997
1.2015096
1.2015168
1.2015215
1.2015237
1.2015238
1.2015217
1.2015174
1.2015109
1.201502
1.2014904
1.201476
1.2014589
1.2014396
1.2014185
1.2013966
1.2013747
1.201354
1.2013361
1.2013223
1.2013131
1.2013083
1.2013078
1.2013111
1.2013199
1.2013373
1.2013688
1.2014163
1.2014685
1.2015111
1.2015384
1.2015591
1.2015745
1.2015886
1.2016061
1.201626
1.201648
1.2016713
1.2016956
1.20172
1.2017443
1.2017681
1.201791
1.2018127
1.2018329
1.2018513
1.2018681
1.201883
1.2018956
1.2019061
1.2019145
1.20192
1.2019219
1.2019204
1.2019153
1.201907
1.2018942
1.2018799
1.2018635
1.2018487
1.2018369
1.2018285
1.2018276
1.2018345
1.2018452
1.2018616
1.2018823
1.2019076
1.2019344
1.2019648
1.2019923
1.1947709
1.1948186
1.1948679
1.194919
1.1949721
1.1950274
1.1950853
1.1951458
1.1952092
1.1952756
1.1953452
1.1954183
1.1954948
1.1955752
1.1956593
1.1957474
1.1958394
1.1959354
1.1960351
1.1961382
1.1962442
1.1963524
1.196462
1.1965719
1.1966809
1.1967874
1.1968902
1.1969876
1.1970783
1.1971607
1.1972338
1.1972965
1.1973486
1.19739
1.197421
1.1974429
1.1974566
1.197464
1.1974669
1.1974675
1.1974667
1.1974668
1.1974699
1.1974765
1.1974859
1.1975005
1.1975196
1.197544
1.1975735
1.1976085
1.1976488
1.1976944
1.1977452
1.1978011
1.1978621
1.1979279
1.1979981
1.1980725
1.1981506
1.198232
1.1983162
1.1984026
1.1984905
1.1985797
1.1986695
1.1987595
1.1988495
1.1989392
1.1990285
1.1991173
1.1992056
1.1992934
1.1993807
1.1994673
1.1995534
1.1996388
1.1997233
1.1998068
1.199889
1.1999698
1.200049
1.2001264
1.2002019
1.2002754
1.2003468
1.2004162
1.2004835
1.2005488
1.2006121
1.2006734
1.2007329
1.2007906
1.2008468
1.2009015
1.2009548
1.2010065
1.201056
1.2011031
1.2011481
1.2011909
1.2012314
1.2012692
1.2013044
1.2013367
1.2013662
1.2013929
1.2014169
1.2014381
1.2014567
1.2014724
1.2014854
1.2014957
1.2015033
1.2015084
1.2015111
1.2015116
1.2015101
1.2015064
1.2015005
1.2014922
1.2014813
1.2014676
1.2014513
1.2014327
1.2014125
1.2013915
1.2013706
1.2013508
1.2013337
1.2013206
1.2013121
1.2013078
1.2013077
1.2013112
1.2013201
1.2013372
1.2013687
1.2014161
1.2014682
1.2015112
1.2015387
1.2015594
1.2015749
1.2015892
1.2016067
1.2016266
1.2016486
1.2016719
1.201696
1.2017204
1.2017446
1.2017683
1.2017911
1.2018128
1.201833
1.2018513
1.2018681
1.2018829
1.2018955
1.201906
1.2019144
1.2019198
1.2019218
1.2019203
1.2019152
1.2019069
1.2018941
1.2018799
1.2018635
1.2018488
1.201837
1.2018286
1.2018276
1.2018345
1.2018452
1.2018616
1.2018823
1.2019075
1.2019344
1.2019648
1.2019922
1.194699
1.1947539
1.1948105
1.194869
1.1949295
1.1949923
1.1950575
1.1951254
1.1951959
1.1952692
1.1953455
1.1954248
1.1955073
1.1955929
1.1956818
1.1957741
1.1958696
1.1959682
1.1960698
1.196174
1.1962802
1.1963878
1.196496
1.1966036
1.1967096
1.1968124
1.1969109
1.1970037
1.1970893
1.1971666
1.1972346
1.1972925
1.1973401
1.1973776
1.1974054
1.1974247
1.1974367
1.1974429
1.1974454
1.1974456
1.1974457
1.1974473
1.1974513
1.1974585
1.197469
1.1974847
1.1975049
1.1975303
1.1975608
1.1975966
1.1976378
1.1976841
1.1977357
1.1977923
1.197854
1.1979203
1.1979911
1.198066
1.1981446
1.1982263
1.1983108
1.1983975
1.1984857
1.1985751
1.1986651
1.1987554
1.1988456
1.1989356
1.1990251