/*--------------------------------*- C++ -*----------------------------------*\
| =========                 |                                                 |
| \\      /  F ield         | OpenFOAM: The Open Source CFD Toolbox           |
|  \\    /   O peration     | Version:  2406                                  |
|   \\  /    A nd           | Website:  www.openfoam.com                      |
|    \\/     M anipulation  |                                                 |
\*---------------------------------------------------------------------------*/
FoamFile
{
    version     2.0;
    format      ascii;
    arch        "LSB;label=32;scalar=64";
    class       volVectorField;
    location    "0.003";
    object      U;
}
// * * * * * * * * * * * * * * * * * * * * * * * * * * * * * * * * * * * * * //

dimensions      [0 1 -1 0 0 0 0];

internalField   nonuniform List<vector> 
8951
(
(27.87552 -0.45331145 -1.6723492e-20)
(27.944673 -0.63473408 -4.3672062e-26)
(28.037322 -0.78967898 7.3175954e-21)
(28.14576 -0.9084269 -9.7418214e-20)
(28.269808 -0.99284412 2.8293033e-19)
(28.407926 -1.0381766 2.4790158e-25)
(28.558098 -1.0413063 -3.3150756e-20)
(28.717958 -1.0037069 -3.3078219e-20)
(28.885083 -0.92626536 -3.3015634e-20)
(29.057116 -0.81046248 0)
(29.231527 -0.65907585 -5.2655061e-19)
(29.405315 -0.47564262 5.2579056e-19)
(29.573602 -0.26479319 5.5793784e-19)
(29.734365 -0.027813529 3.2803501e-20)
(29.884105 0.22855363 2.8312154e-23)
(30.019664 0.5029838 3.2737321e-20)
(30.142625 0.78944601 -5.2265326e-19)
(30.246562 1.0784855 -3.2631589e-20)
(30.334334 1.3751191 3.2598862e-20)
(30.406002 1.6583401 4.8852403e-19)
(30.452085 1.9335212 -4.8802804e-19)
(30.480136 2.1981574 5.2016998e-19)
(30.490589 2.4343194 -5.1969183e-19)
(30.475113 2.6526419 0)
(30.44142 2.8378173 -3.1802948e-20)
(30.385999 2.9991538 0)
(30.310465 3.1244742 0)
(30.215091 3.2171653 0)
(30.100822 3.2772479 5.7977787e-19)
(29.969112 3.3052266 4.7977405e-23)
(29.821707 3.3026086 -5.1090764e-19)
(29.660154 3.2725093 5.0758735e-19)
(29.487029 3.216705 -4.4032759e-19)
(29.305312 3.1395778 0)
(29.118037 3.0427915 -6.1425821e-20)
(28.930707 2.9295777 0)
(28.746538 2.8054594 5.9398001e-20)
(28.567882 2.6716086 0)
(28.40091 2.5280213 0)
(28.249026 2.3808176 1.1108819e-19)
(28.114136 2.2282214 0)
(28.000045 2.071843 -8.0013637e-26)
(27.90874 1.9121957 1.0249081e-19)
(27.841167 1.7504877 -4.9804944e-20)
(27.797977 1.5862372 1.4768775e-25)
(27.780163 1.4195006 -4.6961059e-20)
(27.785866 1.2524226 4.5012279e-20)
(27.814351 1.0912988 4.3667437e-20)
(27.86907 0.92564766 -4.2911942e-20)
(27.948258 0.76324359 -3.3357362e-19)
(28.050112 0.60422161 6.4684509e-19)
(28.173535 0.44970321 -3.1377023e-19)
(28.317518 0.29963986 -3.8187785e-20)
(28.480613 0.15539327 3.7118838e-20)
(28.66188 0.017831399 0)
(28.860343 -0.11207788 0)
(29.075047 -0.23508434 -3.4138793e-20)
(29.305234 -0.35010909 0)
(29.550058 -0.4572762 3.233875e-20)
(29.808857 -0.55682276 0)
(30.081006 -0.64908427 -6.1324418e-20)
(30.365906 -0.73451221 0)
(30.66294 -0.81367189 5.8166365e-20)
(30.971454 -0.88713088 5.6643972e-20)
(31.290799 -0.95545583 -8.9683667e-26)
(31.620277 -1.0192053 1.6106027e-19)
(31.959123 -1.0788391 -5.2224546e-20)
(32.306524 -1.1347047 1.3023961e-23)
(32.661673 -1.1870462 -4.4451485e-19)
(33.023777 -1.2361298 1.4395743e-19)
(33.391926 -1.2822144 -1.8641705e-19)
(33.765152 -1.3253375 -9.0493508e-20)
(34.142709 -1.3653331 1.3172397e-19)
(34.52407 -1.4020948 1.7047087e-19)
(34.908729 -1.4355779 -1.6547229e-19)
(35.296214 -1.4656209 1.6069928e-19)
(35.686157 -1.4920118 -1.5613526e-19)
(36.078159 -1.5145366 -1.5181904e-19)
(36.47175 -1.5328348 1.8464319e-19)
(36.866554 -1.5465644 -3.5958319e-20)
(37.262145 -1.5554889 -1.6804175e-25)
(37.65804 -1.5594002 0)
(38.053762 -1.5581633 3.3335399e-20)
(38.448801 -1.5517434 6.50976e-20)
(38.842617 -1.5401774 -1.2721083e-19)
(39.234629 -1.5235976 1.2437776e-19)
(39.624224 -1.5022341 3.0423991e-20)
(40.010749 -1.4763852 1.191588e-19)
(40.393513 -1.4464242 -1.751423e-19)
(40.771811 -1.4128333 2.8625584e-20)
(41.14494 -1.3761635 4.1154615e-25)
(41.512065 -1.3368905 1.6547938e-19)
(41.872319 -1.2954116 0)
(42.225245 -1.2522778 0)
(42.570531 -1.2080746 0)
(42.907707 -1.1633084 0)
(43.236383 -1.1185202 -3.34025e-25)
(43.55629 -1.0742796 -3.2634665e-25)
(43.86732 -1.0311237 0)
(44.169526 -0.98954987 4.897718e-20)
(44.463125 -0.95000422 0)
(44.748477 -0.91289732 0)
(45.026072 -0.87858097 0)
(45.29653 -0.84734696 9.3846311e-20)
(45.560574 -0.81942557 -9.2985223e-20)
(45.819014 -0.79495327 4.609075e-20)
(46.072735 -0.77399898 0)
(46.322667 -0.7565461 -4.5368645e-20)
(46.569781 -0.7424974 1.3514419e-19)
(46.815061 -0.73167307 -4.4751517e-20)
(47.059468 -0.72381201 0)
(47.3039 -0.7185882 -1.3269874e-19)
(47.549127 -0.7155981 8.8023448e-20)
(47.795786 -0.71434112 4.3815473e-20)
(48.044317 -0.71428483 -1.3093657e-19)
(48.294886 -0.71479547 8.6996291e-20)
(48.547436 -0.71515042 0)
(48.801643 -0.71457017 4.3274508e-20)
(49.056917 -0.71219901 -1.7287621e-19)
(49.312401 -0.70710027 2.5915705e-19)
(49.566831 -0.69825184 -1.7285825e-19)
(49.8185 -0.68439813 -8.6426286e-20)
(50.065061 -0.664143 0)
(50.303386 -0.63562152 8.6301721e-20)
(50.530072 -0.59617212 -8.6172161e-20)
(50.741823 -0.5427729 -8.6094162e-20)
(50.935815 -0.47221782 -8.6265691e-20)
(51.110614 -0.38201921 0)
(51.265609 -0.27411686 8.898669e-20)
(51.397266 -0.15645335 -9.2879632e-20)
(51.498682 -0.04244276 2.8404616e-26)
(51.564772 0.050912796 -5.8784816e-25)
(51.593874 0.10743181 -1.235881e-19)
(51.598642 0.11662414 1.3673182e-19)
(51.592052 0.090490457 -1.4879977e-19)
(51.580843 0.049157126 -1.5845703e-19)
(51.575352 0.017338687 7.9957112e-20)
(51.577724 -0.0024409493 2.3774128e-19)
(51.591658 -0.021368644 -7.9803036e-20)
(51.623322 -0.040125945 1.6025092e-19)
(51.652458 -0.049390306 2.3769353e-19)
(51.683275 -0.051306463 -3.1312659e-19)
(51.715465 -0.050345934 0)
(51.748038 -0.04817032 0)
(51.780158 -0.045422118 -1.5081269e-19)
(51.811725 -0.042881607 0)
(51.84227 -0.041047531 0)
(51.872535 -0.039720559 2.1745433e-19)
(51.901515 -0.03684521 -1.4302442e-19)
(51.928625 -0.032737597 -1.8361249e-24)
(51.953722 -0.029293902 6.9606444e-20)
(51.976619 -0.02725348 -4.8063546e-19)
(51.998567 -0.026057993 2.0315374e-19)
(52.019534 -0.025295875 0)
(52.038832 -0.023887679 0)
(52.056396 -0.02123874 0)
(52.07148 -0.018345713 2.5603514e-19)
(52.084055 -0.017057122 2.5245174e-19)
(52.095135 -0.016627368 -7.7541474e-21)
(52.10451 -0.015401993 1.3408875e-19)
(52.112366 -0.014324688 0)
(52.118252 -0.012987101 -2.9796896e-20)
(52.121765 -0.010760416 2.9339692e-20)
(52.122272 -0.009019774 2.2891051e-19)
(52.121074 -0.0068724752 -2.2409532e-19)
(52.116591 -0.0047282677 -2.7888057e-20)
(52.110317 -0.0045004227 2.7681145e-20)
(52.103574 -0.0053597685 -1.9120466e-19)
(52.100111 -0.0061593707 0)
(52.09431 -0.0055875016 0)
(52.088935 -0.0028754202 2.2182019e-19)
(52.082746 -0.00087715242 2.056724e-19)
(52.076869 0.00021289316 -2.0263214e-19)
(52.07309 0.00040383856 1.9334073e-19)
(52.069266 6.5052301e-05 -6.1432593e-21)
(52.068564 -0.0011252438 -3.8370571e-19)
(52.06558 0.00028687362 0)
(26.8419 -0.33895565 -3.2811818e-25)
(26.896218 -0.53896363 -5.0050439e-19)
(26.98341 -0.71914019 5.1595761e-19)
(27.088345 -0.86842341 5.2932831e-19)
(27.208782 -0.98078616 -5.1192888e-19)
(27.34433 -1.0558221 0)
(27.493161 -1.0902471 -3.0857059e-20)
(27.653559 -1.0830782 -1.5396466e-20)
(27.823468 -1.0351547 -4.7643293e-19)
(28.000636 -0.94741385 5.2170528e-19)
(28.182786 -0.82164728 0)
(28.367431 -0.66064008 0)
(28.551456 -0.46812042 0)
(28.730831 -0.24801824 0)
(28.903367 -0.0026526138 4.8782124e-19)
(29.065764 0.26152703 -4.8720858e-19)
(29.215909 0.54261411 -3.0414415e-20)
(29.35369 0.83384308 3.0378828e-20)
(29.474106 1.1283284 3.0343611e-20)
(29.580298 1.4266781 8.1592635e-25)
(29.669249 1.7115688 4.8445456e-19)
(29.73493 1.9883352 -4.5368327e-19)
(29.784966 2.2511936 -4.8353851e-19)
(29.815603 2.4862423 4.8307939e-19)
(29.822373 2.7018568 0)
(29.809785 2.8902582 -2.9633415e-20)
(29.778737 3.0415386 0)
(29.726475 3.1660198 -4.5020082e-19)
(29.655201 3.2554463 4.8017121e-19)
(29.565212 3.3121459 -5.0884325e-19)
(29.458185 3.3368753 5.0685723e-19)
(29.335648 3.3312879 0)
(29.199202 3.2984467 -4.7128099e-19)
(29.051546 3.2400122 -3.265997e-23)
(28.89569 3.1602473 4.6175144e-19)
(28.734913 3.0604158 -4.2698001e-19)
(28.574722 2.9441917 -2.2147894e-23)
(28.417864 2.8171015 4.396516e-19)
(28.266614 2.6796254 0)
(28.127671 2.5316615 3.6788711e-19)
(28.003764 2.3804735 -4.6114886e-19)
(27.896509 2.2229349 -4.9879866e-20)
(27.809985 2.061535 -4.8504266e-20)
(27.745548 1.8969106 -4.2416736e-19)
(27.703985 1.7298598 4.5748131e-19)
(27.685815 1.5600738 3.9943429e-19)
(27.691001 1.3877978 -3.4017105e-19)
(27.717724 1.2210482 1.5186141e-25)
(27.769955 1.0505833 -4.0411686e-20)
(27.84645 0.88208398 3.9246499e-20)
(27.944976 0.71661331 3.4207354e-19)
(28.064523 0.55472221 1.1201502e-23)
(28.204336 0.39739441 -2.8645878e-19)
(28.36334 0.24510041 -3.4787193e-20)
(28.540106 0.099039303 2.3656146e-19)
(28.733751 -0.039999541 -2.6268805e-19)
(28.943344 -0.17162639 0)
(29.168048 -0.29520192 -3.104202e-20)
(29.407178 -0.41100383 -2.4160757e-19)
(29.659954 -0.51888555 2.6451557e-19)
(29.925785 -0.6190721 2.2890955e-19)
(30.204105 -0.71192133 -2.2288266e-19)
(30.494361 -0.79790012 -2.1707292e-19)
(30.795984 -0.87757375 2.1139938e-19)
(31.108369 -0.95150593 -5.1471214e-20)
(31.43091 -1.0202563 -2.5060088e-20)
(31.762947 -1.0843649 1.9518239e-19)
(32.103758 -1.1442701 -2.3743149e-19)
(32.45258 -1.2003041 1.8479346e-19)
(32.808657 -1.2527107 4.4931266e-20)
(33.171235 -1.3017516 -1.746198e-19)
(33.539452 -1.3476639 4.2409104e-20)
(33.912413 -1.3904803 4.118295e-20)
(34.28942 -1.430066 3.9983816e-20)
(34.66996 -1.4663426 3.8818167e-20)
(35.053535 -1.4992687 0)
(35.439679 -1.5286871 0)
(35.828021 -1.5543903 -3.5582675e-20)
(36.218155 -1.5761501 -3.4603369e-20)
(36.609634 -1.5936044 -3.3673682e-20)
(37.002093 -1.6064203 0)
(37.39512 -1.6143605 -3.1954906e-20)
(37.788256 -1.6172188 0)
(38.181042 -1.6148665 0)
(38.57299 -1.6072723 -2.9690334e-20)
(38.963575 -1.5944766 -1.1604447e-19)
(39.35224 -1.5766172 1.1346644e-19)
(39.73839 -1.5539287 -1.3878416e-19)
(40.121388 -1.5267137 8.1539487e-20)
(40.500565 -1.495355 2.6635285e-20)
(40.875233 -1.4603454 -2.0665278e-25)
(41.244696 -1.42223 -2.5637917e-20)
(41.608114 -1.3814707 -1.0068776e-19)
(41.96468 -1.338491 1.9783612e-19)
(42.313996 -1.2938749 -9.7292411e-20)
(42.655728 -1.2482026 0)
(42.989405 -1.2019859 0)
(43.314647 -1.1557878 -4.6523579e-20)
(43.6312 -1.1101924 -3.7030236e-25)
(43.938965 -1.0657466 9.0650126e-20)
(44.238004 -1.0229577 -1.1409068e-24)
(44.528534 -0.98228177 -8.8564464e-20)
(44.810915 -0.94413756 -8.7625858e-20)
(45.085631 -0.90888298 8.6755052e-20)
(45.353294 -0.87681387 4.2971874e-20)
(45.614616 -0.84816116 1.2778724e-19)
(45.870394 -0.82306204 -8.4495159e-20)
(46.121498 -0.80158404 -8.3849104e-20)
(46.368837 -0.78370586 -4.1626199e-20)
(46.613362 -0.76932311 8.2709258e-20)
(46.856036 -0.75824662 -4.1104791e-20)
(47.097797 -0.75020469 -8.175727e-20)
(47.339517 -0.74485677 4.0676858e-20)
(47.581942 -0.74178233 8.0994155e-20)
(47.825684 -0.74046422 -1.2102829e-19)
(48.071157 -0.74034725 1.608488e-19)
(48.318509 -0.74077584 -8.0214746e-20)
(48.567671 -0.74100373 8.0055642e-20)
(48.818309 -0.74022692 -1.1993119e-19)
(49.06983 -0.73755363 -7.9907605e-20)
(49.321375 -0.73201612 -7.9914571e-20)
(49.571689 -0.722535 1.8117479e-24)
(49.819078 -0.70782677 1.6002819e-19)
(50.061241 -0.68640751 0)
(50.295165 -0.65635096 -3.8574961e-25)
(50.517612 -0.6149927 7.996411e-20)
(50.725485 -0.55934909 0)
(50.916189 -0.48632384 8.0238325e-20)
(51.088456 -0.39362306 -1.62195e-19)
(51.241841 -0.28328273 8.3090934e-20)
(51.373128 -0.16317716 1.7396421e-19)
(51.475901 -0.046795181 1.1302176e-25)
(51.544962 0.04865342 1.0401144e-19)
(51.57835 0.10625376 -1.1771553e-19)
(51.586675 0.11584922 0)
(51.583086 0.089736675 7.19819e-20)
(51.57532 0.048113059 -1.5409873e-19)
(51.571331 0.016111191 -1.5608839e-19)
(51.574907 -0.004263429 -7.7515085e-20)
(51.591978 -0.0243433 7.8199988e-20)
(51.62403 -0.043424225 7.8571986e-20)
(51.652929 -0.052363695 -1.5544361e-19)
(51.683749 -0.054274492 1.5367022e-19)
(51.715967 -0.053278422 -7.5928907e-20)
(51.748556 -0.051013296 7.5011653e-20)
(51.780703 -0.048152186 2.2229469e-19)
(51.81228 -0.045486411 7.3178834e-20)
(51.842817 -0.043538246 0)
(51.873029 -0.042067092 -1.4266767e-19)
(51.901907 -0.038982908 -1.4082268e-19)
(51.928963 -0.034676984 -6.949943e-20)
(51.954054 -0.031062443 -2.0580093e-19)
(51.976946 -0.028901023 3.3850575e-19)
(51.998874 -0.027630228 -1.3360159e-19)
(52.019825 -0.026763659 6.5906495e-20)
(52.039071 -0.025216325 0)
(52.056565 -0.022413503 0)
(52.071619 -0.019371689 0)
(52.084188 -0.017996581 2.4960618e-19)
(52.095226 -0.01751456 0)
(52.104556 -0.016216962 0)
(52.11237 -0.015060103 2.3924886e-19)
(52.11824 -0.013639322 0)
(52.121727 -0.011280462 2.6170541e-19)
(52.122224 -0.0094480189 -2.8371849e-20)
(52.121019 -0.0071914872 -2.7792337e-20)
(52.116557 -0.0049550715 -2.2144554e-19)
(52.110354 -0.0047482143 3.6148409e-25)
(52.103623 -0.0056595095 4.0317265e-19)
(52.10007 -0.0064660082 0)
(52.094217 -0.0058730516 0)
(52.088805 -0.0030521049 0)
(52.082614 -0.00095117099 1.9183209e-19)
(52.076778 0.00018252334 2.142888e-19)
(52.073043 0.00041703759 -3.9125525e-19)
(52.069239 7.4676198e-05 -6.1203094e-21)
(52.068524 -0.00109744 0)
(52.065458 0.00033936752 0)
(25.824233 -0.41421571 1.5747915e-20)
(25.901717 -0.61786152 -4.9032957e-19)
(26.003104 -0.79587148 5.0181958e-19)
(26.120198 -0.94062847 -5.1551099e-19)
(26.252857 -1.0475396 3.1141375e-20)
(26.400007 -1.1156997 -1.5527717e-20)
(26.559793 -1.1425363 -1.5490821e-20)
(26.730848 -1.1277375 -1.5351713e-25)
(26.911336 -1.071924 -1.5429029e-20)
(27.099152 -0.9761942 0)
(27.292115 -0.84251061 1.5375622e-20)
(27.487776 -0.67377759 0)
(27.683127 -0.47360401 0)
(27.874728 -0.24577216 0)
(28.060288 0.0065821636 -5.1924937e-19)
(28.236839 0.27765704 9.451887e-19)
(28.402719 0.56463158 -4.8695379e-19)
(28.556764 0.86065059 -4.8611432e-19)
(28.695313 1.1600193 4.8520984e-19)
(28.820588 1.4604491 -3.0272789e-20)
(28.928403 1.7480628 0)
(29.015716 2.0271227 -3.0171306e-20)
(29.087872 2.2893347 0)
(29.139943 2.5253046 -4.8126804e-19)
(29.170142 2.7401684 9.3097015e-19)
(29.181826 2.9248666 -4.4970951e-19)
(29.173448 3.0804608 4.413833e-19)
(29.146856 3.1979744 -4.9776387e-19)
(29.100361 3.287326 2.969756e-20)
(29.035596 3.3421321 -2.9668874e-20)
(28.954376 3.3648926 4.4291298e-19)
(28.857751 3.3574437 -4.6944459e-19)
(28.747489 3.3227732 -2.9106735e-20)
(28.626413 3.2623968 0)
(28.497558 3.1804097 0)
(28.364447 3.0778128 2.8041064e-20)
(28.232439 2.9587699 -4.4097278e-19)
(28.103823 2.8287515 4.3233358e-19)
(27.9809 2.6875654 0)
(27.870897 2.535098 -3.6122883e-19)
(27.775578 2.3799497 3.771001e-19)
(27.696541 2.2174154 4.1584782e-19)
(27.638012 2.0511505 -3.8044706e-19)
(27.60046 1.8813155 -3.6945537e-19)
(27.584645 1.7088527 -4.4814053e-20)
(27.59083 1.5326219 6.8656402e-19)
(27.617898 1.3616096 -6.2333347e-19)
(27.668904 1.1851056 2.8539825e-19)
(27.743645 1.0116462 -3.9578411e-20)
(27.840285 0.83976928 0)
(27.957223 0.67106255 -3.7142577e-20)
(28.09389 0.50607824 0)
(28.249367 0.34620441 2.8018921e-19)
(28.422544 0.19183684 -5.0999033e-19)
(28.612153 0.044036336 2.6415966e-19)
(28.817365 -0.096475323 2.566903e-19)
(29.03735 -0.22937431 -2.4952589e-19)
(29.271346 -0.35401228 -7.4531927e-26)
(29.518704 -0.47073317 -2.9517493e-20)
(29.778763 -0.57943725 2.0112798e-19)
(30.050984 -0.6803718 -1.9582289e-19)
(30.334858 -0.77391463 -2.1797918e-19)
(30.629882 -0.86054282 2.1232122e-19)
(30.935535 -0.94081888 -2.327088e-19)
(31.251259 -1.0153012 2.0149755e-19)
(31.57649 -1.084541 1.7175053e-19)
(31.910608 -1.1490604 -4.0619837e-19)
(32.252936 -1.2092804 2.3262529e-19)
(32.602761 -1.2655226 2.2640297e-20)
(32.959378 -1.3180316 -1.9822388e-19)
(33.32207 -1.3670638 1.7131461e-19)
(33.690027 -1.4128398 -4.1627118e-20)
(34.062419 -1.4553949 4.0443824e-20)
(34.438591 -1.4946246 1.5714583e-19)
(34.818045 -1.5304728 -3.4341753e-19)
(35.200288 -1.5629006 1.482617e-19)
(35.584862 -1.5917555 0)
(35.971391 -1.6168325 3.5012435e-20)
(36.359465 -1.6378917 5.9926947e-26)
(36.748658 -1.6545718 3.3142833e-20)
(37.138615 -1.666547 1.2910311e-19)
(37.528936 -1.6735773 3.1453603e-20)
(37.919185 -1.6754577 -1.533224e-19)
(38.308922 -1.6720635 1.1967263e-19)
(38.697675 -1.6633647 -2.3366115e-19)
(39.084938 -1.6494044 1.1412962e-19)
(39.470175 -1.6303243 -2.7891379e-20)
(39.852807 -1.606362 0)
(40.232216 -1.5778245 1.0683103e-19)
(40.607749 -1.5451033 -1.5698121e-19)
(40.978737 -1.5086993 -2.5650177e-20)
(41.344487 -1.4691493 2.5163744e-20)
(41.704159 -1.4269076 0)
(42.057014 -1.3824292 0)
(42.4027 -1.3363246 0)
(42.740856 -1.289167 0)
(43.071013 -1.2414797 9.2430626e-20)
(43.392805 -1.1938476 -1.8218588e-19)
(43.705988 -1.1468674 -2.2459084e-20)
(44.010476 -1.1010966 1.0540678e-24)
(44.306335 -1.0570531 1.7513936e-19)
(44.593784 -1.0152041 -1.2981923e-19)
(44.873181 -0.97597679 0)
(45.145004 -0.93973582 -8.4699868e-20)
(45.409858 -0.90678173 8.3871536e-20)
(45.668443 -0.87734725 0)
(45.921543 -0.85157127 4.1191209e-20)
(46.170011 -0.82952043 0)
(46.414737 -0.8111692 -4.0550403e-20)
(46.656655 -0.79640643 1.6106945e-19)
(46.896705 -0.7850341 -8.0014445e-20)
(47.1358 -0.77677022 0)
(47.37479 -0.77126013 3.9555861e-20)
(47.614396 -0.7680671 0)
(47.855206 -0.76665771 0)
(48.09761 -0.76645474 7.8108458e-20)
(48.34174 -0.76677944 -9.5462607e-25)
(48.587515 -0.76686302 -7.7685743e-20)
(48.834595 -0.76587524 0)
(49.082381 -0.76289611 0)
(49.330014 -0.7569233 0)
(49.576251 -0.74683351 -3.8726503e-20)
(49.819415 -0.73128845 3.873353e-20)
(50.057256 -0.70873427 3.8727713e-20)
(50.286874 -0.67719289 -7.7409979e-20)
(50.505195 -0.6340066 -1.8831464e-24)
(50.709317 -0.57623587 -7.7355124e-20)
(50.896856 -0.50089227 -7.7627477e-20)
(51.066699 -0.40585452 0)
(51.218546 -0.29322151 0)
(51.349475 -0.17078288 -1.6869119e-19)
(51.453533 -0.052041614 9.0997562e-20)
(51.525412 0.045590117 0)
(51.56289 0.10471804 1.1489333e-19)
(51.575016 0.11475421 0)
(51.574037 0.088675179 -1.40729e-19)
(51.569594 0.047490176 0)
(51.567175 0.014999727 3.0798568e-19)
(51.572163 -0.0060664348 -7.6560961e-20)
(51.592786 -0.02722848 7.7288652e-20)
(51.624631 -0.046511635 0)
(51.653354 -0.055175797 -7.6849596e-20)
(51.684211 -0.057065264 -7.5985262e-20)
(51.716466 -0.056029367 0)
(51.749078 -0.053671728 0)
(51.781257 -0.050693393 1.1831607e-25)
(51.812842 -0.047901246 1.4480396e-19)
(51.843372 -0.045843344 -7.1498794e-20)
(51.87353 -0.04424094 7.0593027e-20)
(51.902308 -0.040972476 1.3939509e-19)
(51.929313 -0.036493126 1.3761434e-19)
(51.954396 -0.032724791 3.7593398e-26)
(51.977281 -0.030457016 0)
(51.99919 -0.029125712 0)
(52.020123 -0.028168235 0)
(52.039318 -0.026494953 1.9320094e-19)
(52.056745 -0.023549814 -6.3538015e-20)
(52.07177 -0.020369852 2.507409e-19)
(52.084332 -0.018920126 -2.4734735e-19)
(52.095327 -0.018394108 0)
(52.104613 -0.017030926 0)
(52.112385 -0.015807016 -2.3722785e-19)
(52.11824 -0.014316328 0)
(52.121701 -0.01183407 -2.7096393e-26)
(52.12219 -0.0099181579 -2.2509112e-19)
(52.12098 -0.0075516812 -2.2057903e-19)
(52.116547 -0.0052252597 2.1962581e-19)
(52.110404 -0.0050219689 0)
(52.103686 -0.005962585 -1.644969e-19)
(52.100043 -0.0067767712 7.2993518e-23)
(52.094143 -0.0061580682 0)
(52.08869 -0.0032298544 2.1895918e-19)
(52.082499 -0.0010324407 -2.0314489e-19)
(52.076704 0.00013473813 3.5331702e-25)
(52.073013 0.00040348842 1.8503105e-19)
(52.069224 5.6323272e-05 -6.0768634e-21)
(52.068497 -0.0011044876 1.9590813e-19)
(52.065356 0.00034930627 -1.8551794e-19)
(24.797739 -0.49629979 -5.0780827e-19)
(24.893007 -0.69980601 1.5794065e-20)
(25.007433 -0.87520785 -1.5729339e-20)
(25.137084 -1.0152193 5.0157012e-19)
(25.282065 -1.1165901 -5.3130668e-19)
(25.440905 -1.1782642 5.2990476e-19)
(25.611991 -1.1981937 1.5549867e-20)
(25.794191 -1.1761743 -4.8096728e-19)
(25.985804 -1.1128948 -4.7998352e-19)
(26.184891 -1.0096167 5.0991806e-19)
(26.389385 -0.86844487 -4.9347962e-19)
(26.596918 -0.69233267 -1.5403492e-20)
(26.804649 -0.48485909 9.982217e-19)
(27.00956 -0.24977287 -9.807426e-19)
(27.209357 0.0092405951 4.7397614e-19)
(27.401392 0.28682753 4.5764468e-20)
(27.584098 0.57935108 -1.5219286e-20)
(27.755764 0.88008846 -3.0365211e-20)
(27.913672 1.1838418 -3.0292628e-20)
(28.058897 1.4864922 0)
(28.187165 1.77714 0)
(28.297251 2.0580719 0)
(28.392034 2.3201375 4.8025493e-19)
(28.466933 2.557358 -9.5833831e-19)
(28.521742 2.7715668 5.0794949e-19)
(28.558162 2.9556916 0)
(28.575314 3.1077559 -4.162875e-19)
(28.57297 3.2286791 4.6633515e-19)
(28.553028 3.3128358 4.0475883e-19)
(28.514398 3.3669934 -4.3892532e-19)
(28.45998 3.3882231 -4.3845974e-19)
(28.390239 3.3791087 4.642581e-19)
(28.307184 3.3427477 2.8754968e-20)
(28.213767 3.2804597 4.5500464e-19)
(28.113009 3.1961485 -4.4892227e-19)
(28.00867 3.0906741 0)
(27.905765 2.968755 -4.0680574e-19)
(27.806232 2.8356958 4.2506277e-19)
(27.712515 2.6906002 0)
(27.63223 2.5335239 2.5330018e-20)
(27.565938 2.3744764 3.9465808e-19)
(27.515642 2.2070239 2.400019e-20)
(27.485176 2.0356157 9.442242e-24)
(27.474018 1.8599532 -3.6191652e-19)
(27.483405 1.6823786 3.4653062e-19)
(27.512713 1.5069737 -3.3572854e-19)
(27.56482 1.325574 0)
(27.63901 1.1463694 -3.5943556e-19)
(27.734615 0.96944004 3.0899854e-19)
(27.850365 0.79424127 2.6201397e-19)
(27.985085 0.62227419 -2.9089426e-19)
(28.138044 0.45473458 0)
(28.308305 0.29262423 2.7384306e-19)
(28.494817 0.13639816 -2.6582518e-19)
(28.696452 -0.012942709 0)
(28.912447 -0.15475017 -2.5089807e-19)
(29.14206 -0.28866579 3.0477885e-20)
(29.384607 -0.41429548 5.042e-19)
(29.639506 -0.53182311 2.887594e-20)
(29.906185 -0.64124801 -4.4958945e-19)
(30.184164 -0.74284244 1.915531e-19)
(30.472989 -0.83700085 0)
(30.772208 -0.92420725 0)
(31.081344 -1.0050197 -1.7718369e-19)
(31.39989 -1.0799898 -1.2588396e-23)
(31.727322 -1.1496585 1.9225746e-19)
(32.063061 -1.2145306 4.6826835e-20)
(32.406474 -1.2750107 -1.8243649e-19)
(32.756901 -1.3314118 1.7761288e-19)
(33.113682 -1.3839786 -2.1607641e-20)
(33.476143 -1.4329619 0)
(33.843522 -1.4785687 2.0439037e-20)
(34.21505 -1.5208388 -3.973521e-20)
(34.590112 -1.5596955 -2.123874e-19)
(34.968221 -1.5951012 3.3770644e-19)
(35.348891 -1.6270182 -1.458528e-19)
(35.731671 -1.6552979 0)
(36.116179 -1.6797366 -1.0339322e-19)
(36.502007 -1.7000847 1.3410226e-19)
(36.888744 -1.7159827 3.2631476e-20)
(37.276045 -1.7271106 1.2711394e-19)
(37.663522 -1.7332259 -1.2385447e-19)
(38.05076 -1.7341245 3.018808e-20)
(38.437335 -1.7296849 -1.1779433e-19)
(38.822793 -1.719878 8.6230233e-20)
(39.206647 -1.7047489 0)
(39.588376 -1.6844434 2.7434967e-20)
(39.967422 -1.6592013 -1.0731616e-19)
(40.34318 -1.6293343 1.0501775e-19)
(40.715016 -1.5952426 2.5710827e-20)
(41.082277 -1.557433 -1.2598419e-19)
(41.44427 -1.5164327 9.8834009e-20)
(41.800161 -1.4726941 0)
(42.149285 -1.4267072 -2.3794832e-20)
(42.491322 -1.3791023 -2.3386039e-20)
(42.825883 -1.3304446 0)
(43.152504 -1.2812739 0)
(43.470831 -1.2321955 0)
(43.780631 -1.1838181 -2.1988926e-20)
(44.081829 -1.1367095 8.6767412e-20)
(44.374498 -1.0913989 -8.5656992e-20)
(44.658856 -1.0483639 4.2308676e-20)
(44.935257 -1.0080404 0)
(45.204174 -0.97079946 -8.2738225e-20)
(45.466205 -0.93694642 -8.1891321e-20)
(45.722039 -0.90671603 8.1103855e-20)
(45.972445 -0.88024892 -4.018429e-20)
(46.218261 -0.85761076 0)
(46.460358 -0.83877154 7.9050088e-20)
(46.699651 -0.82361328 -3.92329e-20)
(46.937058 -0.81192906 -7.6982884e-25)
(47.173471 -0.8034264 -1.1614401e-19)
(47.409713 -0.79773664 -7.6979505e-20)
(47.646485 -0.79440709 3.8288895e-20)
(47.884351 -0.79288808 1.1432933e-19)
(48.123679 -0.7925808 -1.1386563e-19)
(48.364586 -0.79278381 -3.7823976e-20)
(48.606978 -0.79270607 0)
(48.850509 -0.79149117 0)
(49.09458 -0.78819131 0)
(49.338331 -0.78176805 0)
(49.58053 -0.77105511 1.1262132e-19)
(49.819525 -0.75466263 -3.7532978e-20)
(50.053115 -0.73096365 -3.7512555e-20)
(50.27852 -0.69794237 0)
(50.492823 -0.65295034 3.7441386e-20)
(50.693312 -0.59309696 0)
(50.877799 -0.51550124 7.7771794e-25)
(51.045315 -0.41820689 7.6073363e-20)
(51.195688 -0.30336898 0)
(51.326273 -0.17869193 3.407432e-25)
(51.431544 -0.057678375 4.4247766e-20)
(51.506105 0.042092753 0)
(51.547412 0.10278127 -5.6141532e-20)
(51.563298 0.11416069 0)
(51.565197 0.086793457 6.9580008e-20)
(51.563453 0.046808092 5.2163246e-25)
(51.562853 0.014080509 -7.6033612e-20)
(51.569567 -0.0079013354 1.5187061e-19)
(51.594037 -0.030223809 0)
(51.625123 -0.049447078 7.6802419e-20)
(51.653734 -0.05785262 7.6024397e-20)
(51.684655 -0.059723964 2.2554723e-19)
(51.71696 -0.058643062 -7.4314463e-20)
(51.749601 -0.056189209 -1.4687935e-19)
(51.781813 -0.053093997 -2.9023549e-19)
(51.813409 -0.050178739 -1.4334912e-19)
(51.84393 -0.048017384 0)
(51.874032 -0.046292508 0)
(51.902714 -0.042854261 6.9024183e-20)
(51.92967 -0.038219678 -2.0444789e-19)
(51.954745 -0.034313426 -6.7279345e-20)
(51.977621 -0.031952458 6.6408383e-20)
(51.999512 -0.030572055 1.3108438e-19)
(52.020425 -0.029532716 1.293594e-19)
(52.039573 -0.027741378 -1.2764933e-19)
(52.056935 -0.024664836 0)
(52.071933 -0.021359764 -2.4856407e-19)
(52.084486 -0.019847362 1.8392391e-19)
(52.095439 -0.019279852 2.53793e-20)
(52.104681 -0.017859825 1.2431687e-20)
(52.112409 -0.016581077 -1.8035999e-25)
(52.118251 -0.015023069 -2.9919971e-25)
(52.121688 -0.012420665 -2.5756637e-19)
(52.122168 -0.010420864 0)
(52.120954 -0.0079418164 2.4634717e-19)
(52.116549 -0.0055171551 -4.4100534e-25)
(52.110469 -0.0053126469 -2.707302e-20)
(52.10376 -0.0062676598 0)
(52.10003 -0.0070869491 -1.8339446e-21)
(52.094085 -0.0064301111 0)
(52.088591 -0.0033943521 -4.2216616e-19)
(52.082402 -0.0011023439 1.2612676e-20)
(52.076648 9.7895205e-05 0)
(52.073 0.00039817532 0)
(52.069224 3.8670896e-05 3.018656e-21)
(52.068482 -0.0011133985 -1.888474e-19)
(52.065267 0.00035199052 1.8158619e-19)
(23.676692 -0.35238416 -4.9543154e-19)
(23.763249 -0.58310139 4.9305529e-19)
(23.873794 -0.78619007 -1.5836656e-20)
(24.001318 -0.95827576 -5.0487575e-19)
(24.14385 -1.0933858 5.0322753e-19)
(24.301217 -1.1892148 5.1745887e-19)
(24.471931 -1.2445838 -1.5638878e-20)
(24.654689 -1.2577795 2.0955583e-24)
(24.848481 -1.2287844 -4.9811757e-19)
(25.051742 -1.1583574 -1.5530742e-20)
(25.262708 -1.0478894 2.4290087e-25)
(25.479432 -0.89959382 -4.9468372e-19)
(25.699656 -0.7164672 4.9346251e-19)
(25.920734 -0.50208028 -1.5381604e-20)
(26.139968 -0.26022076 1.5341351e-20)
(26.355105 0.0050967732 1.5298922e-20)
(26.563737 0.28869945 4.7294664e-19)
(26.764265 0.586346 -4.867517e-19)
(26.954722 0.8915219 0)
(27.132949 1.1991696 -4.839112e-19)
(27.29902 1.5041189 9.4983093e-19)
(27.449057 1.7976186 -4.5095007e-19)
(27.582654 2.0800335 4.7967082e-19)
(27.700817 2.3423841 5.1201358e-23)
(27.799775 2.5808023 -4.4707315e-19)
(27.880002 2.7945384 0)
(27.942033 2.9780249 0)
(27.985117 3.1294008 -2.9528535e-20)
(28.009441 3.247422 0)
(28.015311 3.3337739 2.8797006e-20)
(28.003939 3.384218 -4.5523266e-19)
(27.977402 3.404355 4.3095585e-19)
(27.935387 3.3941082 2.8688712e-20)
(27.880557 3.3561167 0)
(27.815855 3.291959 4.4893273e-19)
(27.744235 3.2053372 2.4943829e-23)
(27.669669 3.0970109 -4.3513112e-19)
(27.596635 2.9722973 -5.3361683e-20)
(27.526923 2.8361909 0)
(27.463252 2.6871328 0)
(27.413237 2.5256284 -2.4861836e-20)
(27.37622 2.3626618 4.8392514e-20)
(27.355025 2.1900698 -3.7636566e-19)
(27.35185 2.0115862 3.6059121e-19)
(27.366335 1.8355114 0)
(27.400207 1.6550721 -2.1275366e-20)
(27.455555 1.4697839 3.3294836e-19)
(27.531304 1.2859833 -6.4511964e-19)
(27.627159 1.1034265 3.8964424e-20)
(27.742566 0.92302139 3.2078447e-19)
(27.876717 0.74451156 3.6660298e-20)
(28.028382 0.56987341 3.5558641e-20)
(28.1967 0.40008858 2.4141198e-19)
(28.380846 0.23601821 -2.6769523e-19)
(28.579833 0.078195172 -2.9237524e-19)
(28.792664 -0.0724555 5.3641488e-19)
(29.018646 -0.2153483 -2.4531806e-19)
(29.257126 -0.3501427 2.08734e-19)
(29.5075 -0.47656796 1.292616e-23)
(29.769255 -0.59475801 -2.2587863e-19)
(30.041903 -0.70477917 -2.7494414e-20)
(30.32502 -0.80692154 0)
(30.618208 -0.90159298 -1.8268225e-19)
(30.921062 -0.98928184 3.8150472e-19)
(31.233153 -1.0705405 -1.9831942e-19)
(31.554019 -1.1459128 0)
(31.883178 -1.2159284 1.8843444e-19)
(32.220093 -1.2810746 -2.0658297e-19)
(32.564177 -1.3417416 0)
(32.914818 -1.3982347 -1.7427481e-19)
(33.271403 -1.450798 1.9087732e-19)
(33.633299 -1.4996762 0)
(33.999792 -1.5450648 -1.8793753e-27)
(34.37017 -1.5870099 1.7575576e-19)
(34.743853 -1.6254588 -1.5188294e-19)
(35.120364 -1.6603888 -3.6913408e-20)
(35.499227 -1.6917629 -1.4354446e-19)
(35.879994 -1.7194357 1.3956171e-19)
(36.262281 -1.7432039 -6.6247761e-26)
(36.645679 -1.7628097 1.3207333e-19)
(37.029794 -1.7778968 -3.213937e-19)
(37.414288 -1.7881502 1.2519561e-19)
(37.798787 -1.793325 -3.049664e-20)
(38.182892 -1.7932184 -1.1891908e-19)
(38.566197 -1.7877115 1.1598632e-19)
(38.948264 -1.7767756 1.5162635e-25)
(39.328621 -1.7604583 0)
(39.706768 -1.7389086 -8.098935e-20)
(40.08216 -1.7123689 1.0556992e-19)
(40.454209 -1.6811555 0)
(40.822297 -1.645677 -2.5275986e-20)
(41.185787 -1.6064445 4.9523732e-20)
(41.54398 -1.5639745 0)
(41.896059 -1.518723 -2.379927e-20)
(42.241436 -1.4712168 1.1678314e-19)
(42.579807 -1.422098 -9.1785317e-20)
(42.910754 -1.3719258 0)
(43.233824 -1.32126 8.8792365e-20)
(43.548672 -1.2707252 -1.7485928e-19)
(43.85508 -1.2209406 6.461274e-20)
(44.152979 -1.1724848 1.0618541e-19)
(44.442448 -1.1258977 -8.3823865e-20)
(44.723705 -1.081668 2.0692282e-20)
(44.9971 -1.0402395 8.1782551e-20)
(45.263102 -1.0019899 -1.0107624e-19)
(45.522298 -0.96722893 1.9999786e-20)
(45.775367 -0.93619355 0)
(46.023066 -0.90902604 3.9220502e-20)
(46.266214 -0.88579083 1.1661047e-19)
(46.505667 -0.86645325 3.8543425e-20)
(46.742319 -0.85088831 -3.824276e-20)
(46.977068 -0.83888012 7.5926018e-20)
(47.210782 -0.83012561 -3.7706848e-20)
(47.444263 -0.82424206 3.7472182e-20)
(47.678189 -0.82076093 3.7260796e-20)