/*--------------------------------*- C++ -*----------------------------------*\
| =========                 |                                                 |
| \\      /  F ield         | OpenFOAM: The Open Source CFD Toolbox           |
|  \\    /   O peration     | Version:  2406                                  |
|   \\  /    A nd           | Website:  www.openfoam.com                      |
|    \\/     M anipulation  |                                                 |
\*---------------------------------------------------------------------------*/
FoamFile
{
    version     2.0;
    format      ascii;
    arch        "LSB;label=32;scalar=64";
    class       volScalarField;
    location    "0.008";
    object      k;
}
// * * * * * * * * * * * * * * * * * * * * * * * * * * * * * * * * * * * * * //

dimensions      [0 2 -2 0 0 0 0];

internalField   nonuniform List<scalar> 
92813
(
997.06914
982.94062
966.23322
947.54355
927.25738
905.65163
882.97735
859.46706
835.34433
810.81273
786.04702
761.21616
736.46575
711.90334
687.63044
663.73653
640.29461
617.36522
594.99635
573.21534
552.0266
531.43871
511.46359
492.10882
473.37671
455.26674
437.77476
420.89235
404.60912
388.91273
373.7885
359.2203
345.19096
331.68222
318.6754
306.15143
294.09079
282.47374
271.28065
260.49207
250.08867
240.05128
230.36099
220.99938
211.94847
203.19076
194.70916
186.48713
178.5087
170.75846
163.22156
155.88373
148.73127
141.75108
134.93071
128.25827
121.7225
115.31279
109.01922
102.83261
96.744567
90.747534
84.834871
79.000878
73.240809
67.550877
61.928263
56.371218
50.87931
45.453965
40.098889
34.820038
29.62691
24.53094
19.547866
14.703297
10.049559
5.6781769
2.1956498
0.8778054
0.66933174
0.62952253
0.60717637
0.58818007
0.57110788
0.55564239
0.54163098
0.52891065
0.51736346
0.50688087
0.49733588
0.48864343
0.48071489
0.47346741
0.46683449
0.46075876
0.45519194
0.45008711
0.44540218
0.44110504
0.43716219
0.43354548
0.4302297
0.42719146
0.42440776
0.42185514
0.41951161
0.41735792
0.41537715
0.41355485
0.41188589
0.41035732
0.40896404
0.40769494
0.40654113
0.40550035
0.40456144
0.40372196
0.40297614
0.40231935
0.40174928
0.40126059
0.40085856
0.40052529
0.40030057
0.40008972
0.40007041
982.94514
967.27418
949.38425
929.96329
909.30042
887.60441
865.07258
841.89519
818.25149
794.30738
770.21008
746.0973
722.09212
698.29381
674.78953
651.65598
628.95773
606.74841
585.0705
563.94922
543.39062
523.4015
503.99323
485.17286
466.94314
449.30377
432.2512
415.77843
399.87663
384.53446
369.73846
355.47377
341.72448
328.47392
315.70494
303.39981
291.54031
280.10797
269.0843
258.45087
248.18938
238.28172
228.70992
219.45629
210.50357
201.8349
193.43385
185.28448
177.3715
169.68012
162.19606
154.90557
147.79545
140.85303
134.06625
127.42365
120.91438
114.5282
108.25553
102.08751
96.016058
90.033925
84.134747
78.31309
72.564461
66.885315
61.273077
55.726263
50.244753
44.830334
39.487178
34.221573
29.043419
23.96497
19.002867
14.184731
9.5668034
5.2454227
1.9503617
0.8326162
0.6624373
0.62689176
0.60519236
0.58646591
0.56960235
0.55431261
0.54045658
0.52787579
0.51645211
0.50608038
0.49663382
0.48802944
0.48017951
0.47300036
0.46642732
0.46040421
0.4548832
0.44981825
0.44516801
0.44090096
0.43698444
0.43339088
0.43009541
0.42707486
0.42430696
0.42176849
0.41943761
0.41729539
0.41532493
0.4135118
0.41185097
0.4103295
0.40894234
0.40767868
0.4065295
0.40549279
0.40455733
0.40372071
0.40297752
0.40232286
0.40175454
0.4012675
0.40086667
0.40053448
0.40031054
0.40010007
0.40008114
965.0216
948.33567
929.88168
910.17986
889.47338
867.94745
845.76952
823.09641
800.07423
776.83835
753.51185
730.2078
707.02839
684.06216
661.38561
639.06507
617.15733
595.71003
574.76151
554.33547
534.43796
515.07566
496.25958
477.99664
460.29017
443.14034
426.54439
410.49695
394.99046
380.01491
365.55833
351.60725
338.14716
325.16313
312.63951
300.56001
288.90778
277.66564
266.81628
256.3424
246.22679
236.45243
227.00241
217.85984
209.00812
200.43103
192.11286
184.03835
176.19283
168.56215
161.13261
153.891
146.82461
139.92125
133.16924
126.55757
120.07578
113.71403
107.46308
101.31442
95.260267
89.29368
83.40858
77.599802
71.863109
66.195202
60.593758
55.057573
49.586855
44.183778
38.852968
33.601097
28.438463
23.378066
18.437462
13.646324
9.0643906
4.7994478
1.725114
0.79287915
0.65620949
0.62426855
0.60314259
0.584691
0.56804629
0.55294061
0.53924648
0.52681111
0.51551555
0.50525832
0.49591345
0.48739985
0.47963074
0.47252167
0.46601005
0.46004093
0.45456679
0.44954267
0.44492797
0.44069174
0.43680215
0.43323232
0.42995763
0.42695513
0.42420331
0.42167923
0.4193612
0.41723067
0.41527073
0.41346699
0.41181449
0.4103003
0.40891942
0.40766134
0.40651691
0.40548439
0.40455247
0.4037188
0.40297833
0.40232585
0.40175935
0.40127401
0.40087439
0.40054333
0.40032017
0.40011008
0.40009156
943.6621
926.44086
907.85293
888.25248
867.82934
846.74328
825.13832
803.14697
780.8912
758.48347
736.02677
713.61551
691.33598
669.26509
647.46994
626.00892
604.93252
584.28364
564.09752
544.39671
525.18722
506.47582
488.27357
470.5877
453.42223
436.77818
420.65393
405.04551
389.94674
375.34914
361.24232
347.61442
334.45258
321.74337
309.47268
297.62568
286.18693
275.14061
264.47066
254.16098
244.19545
234.55813
225.23318
216.20465
207.45666
198.97368
190.74073
182.74324
174.96723
167.39914
160.02588
152.83479
145.81366
138.95078
132.23491
125.65546
119.20238
112.86621
106.63807
100.50979
94.473926
88.523831
82.653718
76.858696
71.134786
65.47894
59.889096
54.364336
48.905212
43.514299
38.196656
32.959369
27.813137
22.77165
17.853413
13.090336
8.5455739
4.3483709
1.5248231
0.76000644
0.65069732
0.62163267
0.60102535
0.58285249
0.56643417
0.55151882
0.53799181
0.52570686
0.51454352
0.50440435
0.49516463
0.48674487
0.47905928
0.4720227
0.46557476
0.45966173
0.4542363
0.4492547
0.44467708
0.44047299
0.43661152
0.43306644
0.42981345
0.42682978
0.4240947
0.42158561
0.41928097
0.41716262
0.41521365
0.41341973
0.4117759
0.41026933
0.40889498
0.4076427
0.40650322
0.40547504
0.40454683
0.4037162
0.40297855
0.40232833
0.4017637
0.40128012
0.40088176
0.40055185
0.40032947
0.40011979
0.40010169
919.78779
902.41175
883.98331
864.74426
844.83491
824.38518
803.51577
782.3385
760.95619
739.46348
717.94731
696.48766
675.15809
654.02507
633.1476
612.57756
592.36033
572.53502
553.13447
534.18024
515.67832
497.63567
480.06361
462.9699
446.35938
430.23412
414.59374
399.43564
384.75507
370.54513
356.79709
343.50077
330.645
318.21788
306.20682
294.59847
283.37885
272.53352
262.04774
251.90661
242.09518
232.59859
223.40199
214.49038
205.84874
197.46235
189.31692
181.39863
173.69413
166.19052
158.8753
151.73635
144.76201
137.94103
131.26265
124.71669
118.29353
111.98407
105.77982
99.672961
93.656367
87.723711
81.8695
76.089119
70.378852
64.735908
59.15849
53.645983
48.199292
42.821402
37.517796
32.295999
27.167126
22.145517
17.250698
12.517094
8.0111787
3.8980135
1.3496693
0.73324159
0.64576243
0.61899349
0.59886323
0.58097154
0.5647851
0.55006473
0.53670859
0.52457769
0.51354936
0.50353063
0.4943984
0.48607446
0.47847402
0.47151136
0.46512851
0.4592729
0.45389723
0.44895916
0.44441957
0.44024843
0.43641577
0.43289606
0.42966532
0.4267009
0.42398293
0.42148916
0.41919819
0.4170923
0.41515458
0.41337074
0.4117358
0.41023705
0.40886939
0.40762306
0.40648866
0.40546492
0.40454051
0.403713
0.40297825
0.40233034
0.40176763
0.40128583
0.40088876
0.40056003
0.40033846
0.40012918
0.40011153
894.0097
876.79835
858.76517
840.08188
820.85282
801.18097
781.16512
760.89838
740.46724
719.95167
699.42566
678.95762
658.61079
638.44299
618.50631
598.8472
579.50685
560.52129
541.92138
523.72792
505.94687
488.58542
471.65524
455.16475
439.11967
423.52319
408.37618
393.67743
379.4236
365.60941
352.22778
339.27027
326.72735
314.5887
302.84323
291.4791
280.48377
269.84421
259.54699
249.57848
239.92491
230.57249
221.50737
212.71553
204.18286
195.89547
187.83985
180.0029
172.37193
164.93468
157.67925
150.5941
143.6681
136.89048
130.25097
123.73982
117.34781
111.06625
104.88703
98.802662
92.806376
86.892158
81.054817
75.290016
69.594309
63.965165
58.401064
52.901702
47.468353
42.104423
36.815801
31.610486
26.500024
21.499381
16.629221
11.926858
7.4620245
3.4555118
1.1997567
0.71165684
0.6413071
0.61636019
0.59667087
0.57906056
0.56310936
0.54858713
0.53540434
0.52343
0.51253856
0.50264184
0.49361882
0.48539207
0.47787788
0.47099016
0.46467345
0.45887624
0.45355113
0.44865738
0.44415659
0.44001904
0.43621576
0.43272193
0.42951387
0.42656907
0.4238685
0.42139029
0.41911324
0.41702003
0.41509377
0.41332024
0.41169437
0.41020361
0.40884279
0.40760251
0.4064733
0.40545408
0.40453356
0.40370924
0.40297743
0.40233188
0.40177113
0.40129116
0.40089539
0.40056786
0.40034712
0.40013825
0.40012106
866.84089
850.04501
832.59456
814.61572
796.18874
777.39528
758.31522
739.02523
719.59759
700.09992
680.5954
661.14297
641.79749
622.60966
603.62577
584.88775
566.43325
548.29577
530.50452
513.07964
496.02712
479.35437
463.07346
447.19346
431.721
416.66038
402.01372
387.78112
373.96071
360.54875
347.53984
334.92718
322.70291
310.85826
299.38364
288.26869
277.50232
267.07289
256.96833
247.17624
237.68404
228.47905
219.54841
210.87909
202.45793
194.27193
186.30835
178.55482
170.99936
163.63033
156.43645
149.40675
142.53063
135.79786
129.19862
122.7236
116.36402
110.11156
103.95851
97.897746
91.922834
86.028086
80.208614
74.46037
68.780176
63.165775
57.61593
52.130661
46.711624
41.362655
36.090042
30.902287
25.811386
20.832925
15.988884
11.319933
6.899429
3.0289838
1.0742907
0.6942445
0.63722103
0.61372548
0.59444905
0.57712022
0.56140717
0.54708617
0.53407915
0.52226381
0.5115111
0.50173799
0.49282592
0.48469768
0.47727076
0.47045898
0.46420946
0.45847162
0.45319786
0.44834922
0.443888
0.43978469
0.43601138
0.43254394
0.42935902
0.4264342
0.42375132
0.42128893
0.41902603
0.41694574
0.41503117
0.41326818
0.41165155
0.41016896
0.40881511
0.407581
0.40645711
0.40544249
0.40452594
0.40370487
0.40297608
0.40233294
0.40177418
0.40129606
0.40090164
0.40057532
0.40035542
0.40014697
0.40013026
838.72556
822.5334
805.80779
788.64421
771.10654
753.26009
735.16929
716.89694
698.50325
680.04539
661.5775
643.15062
624.81274
606.60868
588.57989
570.76445
553.19703
535.90897
518.92804
502.27384
485.9524
469.97131
454.34302
439.07723
424.18144
409.661
395.51921
381.75747
368.3753
355.37047
342.73917
330.47623
318.57538
307.02937
295.83009
284.96864
274.43536
264.21999
254.31179
244.69961
235.37207
226.31754
217.52422
208.98007
200.6729
192.59058
184.72121
177.05317
169.57516
162.27619
155.1456
148.17301
141.34834
134.66188
128.10432
121.66679
115.34091
109.11879
102.9931
96.957074
91.004635
85.130421
79.329855
73.599178
67.935493
62.336817
56.802213
51.332036
45.928338
40.595397
35.339883
30.170849
25.100752
20.145816
15.329585
10.69663
6.3253648
2.6268837
0.97156693
0.6802531
0.63341489
0.61108437
0.59219938
0.57515201
0.55967959
0.54556286
0.53273387
0.52107981
0.51046756
0.50081961
0.49202021
0.48399169
0.47665294
0.46991806
0.46373673
0.4580592
0.45283751
0.44803475
0.44361388
0.43954544
0.43580267
0.43236213
0.42920081
0.42629632
0.42363142
0.42118512
0.41893659
0.41686943
0.41496676
0.41321454
0.41160733
0.41013309
0.40878635
0.40755852
0.40644006
0.40543012
0.40451764
0.40369988
0.40297416
0.40233348
0.40177676
0.40130052
0.40090747
0.40058239
0.40036334
0.40015532
0.4001391
810.04421
794.59257
778.69453
762.42438
745.83441
728.97741
711.90564
694.67067
677.32278
659.91047
642.48031
625.07675
607.74206
590.51611
573.43631
556.53741
539.85152
523.40806
507.23352
491.347
475.75459
460.464
445.48799
430.83684
416.51882
402.54025
388.90556
375.61733
362.67643
350.08206
337.83191
325.92236
314.34865
303.10501
292.1848
281.58052
271.2839
261.28606
251.57753
242.14844
232.98853
224.08732
215.434
207.01753
198.82671
190.85032
183.07728
175.49673
168.09807
160.87099
153.80542
146.89157
140.11992
133.48128
126.96682
120.56813
114.27727
108.08675
101.98962
95.979498
90.050661
84.198079
78.417489
72.705428
67.059283
61.47736
55.959027
50.504993
45.117719
39.801939
34.564684
29.415611
24.367653
19.437715
14.651237
10.057265
5.7423094
2.2571906
0.88914507
0.66899291
0.62981368
0.60843144
0.58992223
0.57315635
0.55792673
0.54401737
0.53136863
0.519878
0.50940792
0.49988669
0.4912017
0.48327406
0.47602432
0.46936728
0.46325515
0.45763882
0.45246993
0.44771382
0.44333405
0.43930114
0.43558951
0.43217639
0.42903913
0.42615537
0.42350874
0.42107878
0.41884486
0.41679105
0.4149005
0.41315928
0.41156166
0.41009593
0.40875646
0.40753502
0.40642211
0.40541693
0.4045086
0.40369422
0.40297164
0.40233348
0.40177884
0.40130452
0.40091286
0.40058904
0.40037086
0.40016328
0.40014756
781.12904
766.51107
751.50811
736.17988
720.57017
704.72228
688.67912
672.48349
656.17766
639.80304
623.39988
607.0071
590.66211
574.40063
558.25651
542.26164
526.44583
510.83679
495.45981
480.33352
465.46398
450.85902
436.5316
422.49247
408.75061
395.31317
382.18559
369.3716
356.87327
344.69115
332.82434
321.27066
310.02678
299.08838
288.45018
278.10606
268.04912
258.27177
248.76583
239.52264
230.5331
221.78779
213.27697
204.99058
196.91838
189.05007
181.37541
173.88431
166.56688
159.41347
152.41463
145.56115
138.84409
132.25476
125.78484
119.42638
113.17186
107.01421
100.94687
94.963856
89.059781
83.229961
77.470451
71.778091
66.15056
60.586457
55.085474
49.648684
44.278979
38.981555
33.763804
28.635997
23.611615
18.708293
13.953802
9.4022087
5.1538956
1.9266355
0.82471081
0.65985041
0.62635919
0.60576256
0.58761819
0.57113388
0.55614897
0.54245015
0.52998378
0.51865858
0.50833235
0.4989394
0.49037056
0.48254485
0.47538489
0.46880664
0.46276469
0.45721042
0.45209503
0.44738632
0.44304844
0.43905171
0.43537183
0.43198664
0.42887393
0.42601128
0.42338323
0.42096987
0.41875079
0.41671057
0.41483235
0.41310236
0.41151451
0.41005745
0.40872539
0.40751045
0.40640323
0.40540288
0.4044988
0.40368788
0.40296849
0.4023329
0.4017804
0.40130802
0.40091778
0.40059525
0.40037795
0.40017083
0.40015562
752.2699
738.5395
724.46712
710.10228
695.48239
680.64363
665.62179
650.45282
635.17264
619.81679
604.42025
589.01724
573.64101
558.32363
543.09589
527.98707
513.02491
498.2355
483.643
469.26554
455.10915
441.18162
427.49607
414.06361
400.89376
387.99444
375.37197
363.03109
350.97499
339.20544
327.72284
316.52635
305.61399
294.98276
284.62874
274.54711
264.73227
255.1779
245.87704
236.82222
228.00548
219.41846
211.05243
202.89834
194.94692
187.18876
179.61446
172.21471
164.98034
157.90235
150.97194
144.18047
137.51955
130.98104
124.5571
118.24025
112.02341
105.89994
99.863661
93.908967
88.030844
82.224949
76.487658
70.81612
65.208313
59.663143
54.180635
48.762248
43.411316
38.133505
32.936589
27.831441
22.832159
17.957253
13.23732
8.7319582
4.5657781
1.639904
0.77553686
0.65229982
0.6230056
0.60307464
0.58528773
0.56908514
0.55434661
0.54086164
0.52857968
0.51742172
0.507241
0.49797789
0.4895269
0.4818041
0.47473463
0.46823613
0.46226529
0.45677389
0.4517127
0.44705214
0.44275691
0.43879703
0.43514952
0.43179282
0.42870512
0.425864
0.42325485
0.42085836
0.41865435
0.41662793
0.41476226
0.41304373
0.41146582
0.41001761
0.40869311
0.40748479
0.40638337
0.40538793
0.40448818
0.40368081
0.40296467
0.40233171
0.40178139
0.401311
0.40092221
0.40060099
0.4003846
0.40017794
0.40016326
723.70117
710.88055
697.7487
684.34719
670.70857
656.86364
642.84281
628.67668
614.396
600.0315
585.61373
571.17284
556.73845
542.33947
528.00387
513.75861
499.62948
485.64105
471.81633
458.17295
444.71682
431.45563
418.40253
405.56888
392.96464
380.59835
368.47708
356.60645
344.99067
333.6326
322.53383
311.69471
301.11455
290.79159
280.72314
270.90565
261.33475
252.00533
242.91162
234.04728
225.40546
216.97884
208.75971
200.74001
192.91138
185.26533
177.79329
170.48674
163.33721
156.33637
149.47604
142.74819
136.14497
129.65879
123.28228
117.00846
110.83066
104.74268
98.738741
92.813621
86.962671
81.181895
75.467998
69.818441
64.231511
58.706431
53.243576
47.844805
42.513913
37.257036
32.082367
27.001374
22.028826
17.184346
12.50194
8.0472272
3.9860629
1.398731
0.73842083
0.64592425
0.61971855
0.60036565
0.58293137
0.56701071
0.55252004
0.53925234
0.52715674
0.51616765
0.50613411
0.49700238
0.48867089
0.48105186
0.47407353
0.46765575
0.46175693
0.45632917
0.45132285
0.44671116
0.44245934
0.438537
0.4349225
0.43159481
0.42853263
0.42571347
0.42312353
0.42074419
0.4185555
0.41654309
0.41469019
0.41298335
0.41141555
0.40997634
0.40865956
0.40745797
0.40636249
0.40537204
0.40447673
0.40367299
0.40296014
0.40232989
0.4017818
0.40131342
0.40092612
0.40060624
0.40039076
0.40018459
0.40017044
695.59854
683.6875
671.48795
659.03459
646.35604
633.47903
620.42981
607.23479
593.92055
580.51385
567.04146
553.53007
540.00612
526.49563
513.02409
499.61628
486.29617
473.08685
460.01019
447.08326
434.31182
421.70335
409.27091
397.02601
384.97891
373.13865
361.51291
350.10808
338.92925
327.98024
317.26369
306.78107
296.53281
286.51832
276.73609
267.18373
257.85802
248.75502
239.87009
231.19798
222.73289
214.46854
206.39821
198.51477
190.81083
183.27874
175.91079
168.6992
161.63624
154.71424
147.92563
141.26299
134.71903
128.28666
121.95905
115.72966
109.59229
103.54114
97.570847
91.676579
85.854054
80.099625
74.410332
68.783956
63.219097
57.715311
52.273337
46.895456
41.58594
36.351391
31.200462
26.145226
21.201183
16.38939
11.747949
7.3491324
3.4254615
1.2020455
0.71054769
0.64040369
0.61647248
0.59763437
0.58054963
0.56491119
0.5506697
0.53762278
0.52571541
0.51489664
0.50501199
0.49601312
0.48780268
0.48028818
0.47340162
0.46706555
0.46123958
0.45587615
0.45092541
0.4463633
0.44215561
0.43827151
0.43469067
0.43139254
0.42835638
0.42555963
0.42298922
0.42062731
0.41845418
0.41645601
0.41461608
0.41292116
0.41136365
0.40993361
0.40862471
0.40742996
0.40634054
0.40535516
0.40446438
0.40366436
0.40295488
0.40232739
0.4017816
0.40131527
0.40092948
0.40061097
0.40039643
0.40019075
0.40017714
668.09262
657.07521
645.78673
634.25568
622.50726
610.56497
598.45181
586.19084
573.80529
561.31861
548.75441
536.13636
523.48811
510.83314
498.19464
485.59537
473.05758
460.60291
448.2521
436.02165
423.91704
411.94548
400.11986
388.45169
376.95144
365.62849
354.49103
343.54607
332.79945
322.25582
311.91875
301.7907
291.87312
282.16649
272.67037
263.38345
254.30362
245.42801
236.75304
228.27453
219.98768
211.8872
203.96733
196.22188
188.64435
181.22797
173.96582
166.85089
159.87617
153.03465
146.31938
139.72352
133.24035
126.8633
120.58605
114.40251
108.30695
102.29399
96.358684
90.496572
84.703753
78.976934
73.313493
67.711534
62.169986
56.688747
51.268942
45.91329
40.626558
35.415801
30.290196
25.262438
20.348837
15.572292
10.975797
6.6395499
2.8969288
1.0466055
0.68958864
0.63549532
0.61324843
0.59488014
0.57814306
0.56278724
0.54879604
0.53597352
0.52425616
0.51360903
0.50387503
0.49501042
0.48692241
0.47951312
0.47271893
0.46646558
0.46071322
0.45541476
0.4505203
0.44600843
0.44184558
0.43800045
0.43445393
0.43118591
0.42817629
0.42540241
0.42285188
0.42050768
0.41835037
0.41636664
0.4145399
0.41285713
0.41131008
0.40988935
0.40858849
0.40740069
0.40631749
0.40533726
0.40445109
0.4036549
0.40294883
0.40232418
0.40178075
0.4013165
0.40093226
0.40061515
0.40040157
0.40019639
0.40018334
641.28302
631.13153
620.72301
610.08038
599.22571
588.17973
576.96278
565.59518
554.09743
542.49021
530.79444
519.03119
507.22165
495.38703
483.5484
471.72667
459.94244
448.21596
436.56681
425.01089
413.55338
402.2011
390.96668
379.86154
368.89623
358.08036
347.42248
336.93011
326.6097
316.46661
306.50521
296.72882
287.13981
277.73962
268.52878
259.50699
250.67315
242.02539
233.56115
225.27722
217.16979
209.23451
201.46654
193.86061
186.41106
179.11199
171.95726
164.94062
158.05575
151.29629
144.65593
138.12841
131.70754
125.38731
119.16187
113.02563
106.97329
100.9999
95.100921
89.272298
83.510498
77.812586
72.176281
66.600021
61.083069
55.625684
50.229395
44.89738
39.634917
34.449496
29.350899
24.352473
19.471445
14.733073
10.186123
5.9217135
2.4143302
0.92746214
0.67364637
0.63101653
0.61003257
0.59210269
0.57571219
0.56063958
0.54689962
0.53430507
0.52277946
0.51230518
0.50272369
0.49399464
0.48603026
0.47872672
0.47202552
0.46585591
0.46017783
0.45494492
0.45010745
0.44564647
0.44152913
0.4377237
0.43421218
0.43097482
0.42799226
0.42524174
0.42271144
0.42038525
0.418244
0.41627495
0.41446159
0.41279118
0.41125479
0.40984352
0.40855086
0.40737014
0.40629327
0.40531828
0.40443683
0.40364456
0.40294197
0.40232023
0.40177922
0.40131709
0.40093444
0.40061876
0.40040616
0.4002015
0.40018901
615.24554
605.92362
596.35663
586.56244
576.56024
566.36831
556.00466
545.4873
534.83439
524.06428
513.19556
502.24705
491.23776
480.18683
469.11345
458.03676
446.97583
435.94953
424.97632
414.07146
403.23977
392.48763
381.82732
371.27006
360.82639
350.50601
340.31774
330.26946
320.36811
310.61965
301.02911
291.60055
282.33716
273.24121
264.31414
255.55654
246.96823
238.5483
230.29511
222.20638
214.27923
206.5102
198.89534
191.43024
184.1101
176.92981
169.88401
162.96719
156.1737
149.49785
142.93393
136.47626
130.11921
123.85727
117.68511
111.5976
105.58989
99.657466
93.7962
88.002424
82.272987
76.605314
70.997469
65.448231
59.957211
54.525043
49.153681
43.846787
38.610165
33.451711
28.381917
23.414831
18.568734
13.8719
9.3797862
5.2011069
1.9902407
0.83904821
0.66140598
0.6268315
0.60681552
0.58930205
0.57325757
0.55846904
0.54498102
0.53261791
0.52128576
0.51098551
0.50155854
0.49296619
0.48512635
0.47792905
0.4713215
0.46523664
0.45963339
0.45446656
0.44968683
0.44527734
0.44120612
0.43744114
0.43396532
0.43075917
0.42780421
0.42507755
0.42256784
0.42025996
0.41813504
0.41618088
0.4143811
0.41272328
0.41119773
0.40979606
0.40851176
0.40733823
0.40626783
0.40529818
0.40442153
0.40363331
0.40293425
0.40231548
0.40177697
0.40131701
0.40093597
0.40062176
0.40041016
0.40020605
0.40019411
590.0364
581.50172
572.7326
563.74251
554.54797
545.16504
535.60965
525.89775
516.04544
506.06901
495.98503
485.81032
475.56194
465.25718
454.91347
444.54834
434.17939
423.82417
413.50003
403.22158
392.99323
382.82087
372.71633
362.6906
352.75406
342.91642
333.18666
323.57289
314.08243
304.7217
295.49628
286.41087
277.46935
268.67473
260.02923
251.53428
243.19053
234.99792
226.95568
219.0624
211.31605
203.71404
196.25326
188.93011
181.74061
174.68043
167.74496
160.92939
154.22875
147.63799
141.152
134.76566
128.47391
122.27174
116.15432
110.11698
104.15533
98.265285
92.443128
86.685587
80.989889
75.353822
69.775801
64.254955
58.791255
53.385728
48.040776
42.760567
37.551444
32.421702
27.382618
22.449055
17.640525
12.989132
8.5579499
4.486599
1.6334412
0.77603534
0.65188866
0.62283636
0.60359069
0.58647853
0.57077974
0.55627656
0.54304092
0.53091243
0.51977549
0.50965047
0.5003802
0.4919255
0.48421083
0.4771202
0.47060696
0.46460787
0.45907988
0.4539796
0.4492584
0.44490094
0.44087643
0.43715267
0.43371324
0.43053886
0.42761203
0.42490977
0.42242103
0.42013176
0.41802345
0.41608439
0.4142984
0.41265336
0.41113884
0.40974692
0.40847114
0.40730492
0.40624113
0.4052769
0.40440515
0.40362109
0.40292562
0.40230992
0.40177398
0.40131621
0.40093683
0.40062414
0.40041356
0.40021
0.40019863
565.69556
557.90173
549.88333
541.65005
533.21604
524.5953
515.80182
506.84966
497.75301
488.52633
479.18435
469.74208
460.21486
450.61827
440.96815
431.28051
421.57156
411.85759
402.15484
392.47726
382.82886
373.21495
363.6469
354.13533
344.69041
335.32179
326.03843
316.84864
307.75997
298.77919
289.91232
281.16459
272.54045
264.04357
255.67684
247.44241
239.34171
231.37544
223.54363
215.84567
208.28034
200.84584
193.53985
186.35957
179.30178
172.36289
165.53901
158.82602
152.21962
145.71537
139.30874
132.9952
126.77019
120.62925
114.56802
108.5823
102.66815
96.821912
91.040284
85.320391
79.65984
74.056784
68.509996
63.01896
57.584024
52.206631
46.889647
41.637774
36.457895
31.358753
26.352431
21.454739
16.686771
12.085373
7.7222923
3.7915712
1.346548
0.7319267
0.64423303
0.61895859
0.60035453
0.58363277
0.56827927
0.55406327
0.54108009
0.52918897
0.51824903
0.50830057
0.49918937
0.49087304
0.48328385
0.47630026
0.46988206
0.4639697
0.45851729
0.453484
0.44882214
0.44451721
0.44053992
0.43685817
0.43345583
0.43031378
0.42741563
0.42473831
0.42227094
0.4200006
0.41790916
0.41598544
0.41421342
0.41258135
0.41107806
0.40969603
0.40842892
0.40727014
0.4062131
0.40525439
0.40438765
0.40360786
0.40291604
0.40230348
0.40177019
0.40131467
0.40093698
0.40062585
0.40041631
0.40021333
0.40020253
542.24758
535.14619
527.82968
520.30457
512.58291
504.6768
496.59836
488.35984
479.97372
471.45274
462.80995
454.05876
445.21289
436.28638
427.29358
418.24911
409.16783
400.06484
390.95527
381.85246
372.75996
363.68246
354.63082
345.61526
336.64565
327.73145
318.88159
310.10441
301.4076
292.79821
284.28257
275.86632
267.5544
259.35101
251.25964
243.28308
235.42342
227.68207
220.05977
212.55664
205.17221
197.90543
190.75471
183.71799
176.79278
169.97621
163.26507
156.6559
150.14503
143.72863
137.40276
131.16342
125.00659
118.92832
112.92472
106.99206
101.12686
95.325873
89.586218
83.905415
78.281452
72.712851
67.198747
61.738993
56.334328
50.98663
45.699261
40.477469
35.328678
30.262156
25.29083
20.431574
15.707599
11.161545
6.8754844
3.1342724
1.1259585
0.70078519
0.63782855
0.61515028
0.59710569
0.58076562
0.56575675
0.55183043
0.53909943
0.52744779
0.51670676
0.5069363
0.49798674
0.4898093
0.48234551
0.47546937
0.46914698
0.46332226
0.45794559
0.4529797
0.44837802
0.44412608
0.44019647
0.43655751
0.43319298
0.43008382
0.4272149
0.42456308
0.4221175
0.4198664
0.41779214
0.41588397
0.41412612
0.41250721
0.41101534
0.40964334
0.40838506
0.40723385
0.40618368
0.4052306
0.40436895
0.40359357
0.40290547
0.40229614
0.40176559
0.40131236
0.4009364
0.40062687
0.4004184
0.40021602
0.40020579
519.705
513.24705
506.58333
499.71759
492.65999
485.42085
478.01056
470.4397
462.71913
454.86002
446.8739
438.77266
430.56856
422.27421
413.90257
405.46694
396.98093
388.45848
379.91364
371.35913
362.79803
354.23441
345.67856
337.14023
328.62894
320.15392
311.72394
303.34729
295.03174
286.78447
278.61205
270.52044
262.51495
254.60023
246.78026
239.0584
231.4373
223.919
216.50489
209.19576
201.9918
194.89265
187.89743
181.00476
174.21284
167.51944
160.92205
154.41781
148.00368
141.67641
135.43262
129.26885
123.18161
117.16742
111.22289
105.34475
99.529943
93.775669
88.079452
82.439209
76.853309
71.320647
65.840728
60.413784
55.040963
49.724604
44.468586
39.278731
34.162982
29.131241
24.197342
19.379376
14.703357
10.218947
6.0221022
2.5364466
0.9636538
0.67834462
0.63226239
0.61138209
0.59384386
0.57787801
0.56321277
0.54957947
0.53709995
0.52568915
0.51514911
0.5055582
0.49677298
0.48873473
0.48139597
0.4746277
0.46840192
0.46266562
0.45736476
0.45246666
0.44792604
0.4437275
0.439846
0.43625058
0.43292456
0.42984888
0.42700973
0.424384
0.42196066
0.41972911
0.41767233
0.41577993
0.41403645
0.41243086
0.41095062
0.4095888
0.40833949
0.40719599
0.40615282
0.40520548
0.40434902
0.40357818
0.40289386
0.40228785
0.40176011
0.40130922
0.40093505
0.40062717
0.40041979
0.40021804
0.40020837
498.0741
492.20956
486.14936
479.89438
473.45275
466.83319
460.04451
453.09574
445.99623
438.75569
431.38423
423.89234
416.29091
408.59122
400.80493
392.94407
385.02108
377.04876
369.04015
361.00732
352.95291
344.88032
336.79925
328.71893
320.64851
312.59686
304.57257
296.5838
288.63829
280.74328
272.90548
265.13108
257.42566
249.79424
242.24122
234.77039
227.38493
220.08741
212.8798
205.76347
198.73925
191.80739
184.96765
178.21929
171.56115
164.99165
158.50886
152.11057
145.79429
139.55735
133.3969
127.31003
121.29373
115.34503
109.46099
103.63881
97.875862
92.169777
86.518485
80.920299
75.373973
69.878779
64.434595
59.04205
53.702721
48.419432
43.196608
38.040661
32.960029
27.965392
23.071583
18.298111
13.674675
9.2593424
5.1701406
2.0193446
0.84961831
0.66237928
0.62723288
0.60763243
0.59056887
0.57497077
0.56064793
0.54731189
0.5350828
0.52391338
0.51357659
0.50416684
0.49554868
0.48764976
0.48043537
0.47377549
0.46764712
0.46199988
0.45677478
0.45194487
0.44746619
0.4433214
0.4394884
0.43593727
0.43265046
0.42960885
0.42680001
0.42420095
0.42180032
0.41958865
0.41754966
0.41567328
0.41394436
0.41235223
0.41088382
0.40953233
0.40829215
0.40715649
0.40612044
0.40517897
0.4043278
0.40356163
0.40288117
0.40227856
0.40175374
0.40130524
0.4009329
0.40062671
0.40042045
0.40021934
0.40021024
477.34971
472.03014
466.52482
460.8329
454.96025
448.91384
442.70115
436.32979
429.80774
423.14333
416.34535
409.42298
402.38583
395.24392
388.00768
380.68798
373.29609
365.84376
358.343
350.8053
343.23281
335.62827
328.00074
320.35894
312.71155
305.06709
297.43385
289.81983
282.23264
274.67952
267.16723
259.70209
252.2899
244.93593
237.64491
230.42102
223.26785
216.18844
209.18526
202.26023
195.41469
188.6495
181.96498
175.36099
168.83695
162.39188
156.02444
149.73297
143.51555
137.37006
131.29417
125.28546
119.34143
113.45959
107.63745
101.87267
96.163055
90.506648
84.901791
79.347192
73.841989
68.385834
62.978994
57.622505
52.318397
47.070006
41.882329
36.762389
31.719092
26.764074
21.913285
17.18794
12.622549
8.2851365
4.3331083
1.5978937
0.77395541
0.65071886
0.62252705
0.60388727
0.58728099
0.57204463
0.55806284
0.5450292
0.53304926
0.52212093
0.51198991
0.50276283
0.49431429
0.48655475
0.47946386
0.47291303
0.46688283
0.46132509
0.45617565
0.45141431
0.44699843
0.44290775
0.43912361
0.43561747
0.43237055
0.42936361
0.4265856
0.42401383
0.42163642
0.41944495
0.4174241
0.41556395
0.41384978
0.41227126
0.41081487
0.40947389
0.40824296
0.40711529
0.40608648
0.40515102
0.40430523
0.40354387
0.40286734
0.40226824
0.40174641
0.40130036
0.40092991
0.40062547
0.40042034
0.40021992
0.40021137
457.51781
452.69727
447.70027
442.52491
437.17563
431.6576
425.97671
420.13942
414.15244
408.02288
401.75829
395.36662
388.85626
382.23608
375.51534
368.70378
361.81161
354.84953
347.82856
340.75962
333.64439
326.48493
319.28966
312.06673
304.82433
297.57057
290.31344
283.06065
275.81968
268.59764
261.40131
254.23705
247.11078
240.02796
232.99358
226.01211
219.0875