/*--------------------------------*- C++ -*----------------------------------*\
| =========                 |                                                 |
| \\      /  F ield         | OpenFOAM: The Open Source CFD Toolbox           |
|  \\    /   O peration     | Version:  2406                                  |
|   \\  /    A nd           | Website:  www.openfoam.com                      |
|    \\/     M anipulation  |                                                 |
\*---------------------------------------------------------------------------*/
FoamFile
{
    version     2.0;
    format      ascii;
    arch        "LSB;label=32;scalar=64";
    class       volVectorField;
    location    "0.007";
    object      U;
}
// * * * * * * * * * * * * * * * * * * * * * * * * * * * * * * * * * * * * * //

dimensions      [0 1 -1 0 0 0 0];

internalField   nonuniform List<vector> 
8950
(
(25.492929 2.1331026 8.7237319e-19)
(26.804 2.6087034 -2.0739799e-18)
(28.02042 2.7474857 -1.1191024e-22)
(29.057777 2.7686877 1.9566714e-18)
(29.933322 2.7579359 -1.4880595e-20)
(30.687508 2.7497881 -2.8996947e-20)
(31.357878 2.7511923 -1.4136982e-20)
(31.966529 2.7599401 0)
(32.522709 2.7759276 -1.3463323e-20)
(33.030241 2.7994821 -8.7164701e-25)
(33.492119 2.8304255 -1.2842561e-20)
(33.911512 2.8682191 -1.6064161e-18)
(34.291164 2.9120919 1.5824863e-18)
(34.633262 2.9610241 -1.1995387e-20)
(34.939113 3.0138275 0)
(35.211102 3.0683971 -1.1477285e-20)
(35.450653 3.1237932 0)
(35.659853 3.1795993 1.0992478e-20)
(35.839256 3.2310895 -1.0760608e-20)
(35.990035 3.280505 -2.1071929e-20)
(36.112603 3.3277733 1.0316867e-20)
(36.209479 3.3691934 1.0103676e-20)
(36.282742 3.4039812 0)
(36.333174 3.4323294 1.9380688e-20)
(36.364331 3.455944 0)
(36.373824 3.4700006 -1.1268321e-18)
(36.363085 3.4700825 2.2204834e-18)
(36.335168 3.4629782 -1.1463916e-18)
(36.293312 3.448816 -1.1177634e-18)
(36.240996 3.4269837 1.1119942e-18)
(36.178576 3.3951547 0)
(36.10687 3.3559216 1.6421288e-20)
(36.027263 3.3086334 0)
(35.941869 3.2529804 0)
(35.852617 3.1900861 -3.0930354e-20)
(35.761238 3.1207319 9.7085203e-19)
(35.669378 3.0455268 1.0837464e-22)
(35.578621 2.9654396 -9.494808e-19)
(35.490272 2.8815867 1.4343421e-20)
(35.405681 2.7950108 0)
(35.325976 2.7068563 4.8997884e-26)
(35.252223 2.618276 0)
(35.185266 2.5303829 6.3722217e-26)
(35.125541 2.4445525 -8.4271646e-19)
(35.074147 2.3615227 8.5526248e-19)
(35.031674 2.2851788 7.9113836e-19)
(34.997102 2.2165959 6.6759849e-23)
(34.971034 2.1544386 -7.9255983e-19)
(34.953747 2.1013726 -1.2207764e-20)
(34.944668 2.0594931 -9.1057632e-26)
(34.943397 2.0308934 0)
(34.948145 2.0173134 7.0163764e-19)
(34.9591 2.0172011 -1.4846314e-18)
(34.974516 2.033624 -1.148402e-20)
(34.993049 2.0669338 7.2242061e-19)
(35.013192 2.1176389 6.9168561e-19)
(35.033257 2.1859985 -7.4988806e-19)
(35.051442 2.2719938 6.9797241e-19)
(35.065822 2.3753686 -6.9030875e-19)
(35.07444 2.4958626 0)
(35.075951 2.6325501 2.1119259e-20)
(35.067604 2.7833871 0)
(35.049768 2.9305808 6.204946e-19)
(35.017724 3.1035647 -6.9119137e-19)
(34.970427 3.281805 0)
(34.9093 3.4570805 -6.6193899e-19)
(34.830786 3.6370225 6.3515187e-19)
(34.734237 3.8136899 1.9643059e-20)
(34.6197 3.9852521 -1.9435496e-20)
(34.486632 4.1494745 1.9227127e-20)
(34.334723 4.3038464 -5.896446e-19)
(34.164053 4.4464167 -1.8918283e-20)
(33.974831 4.5750763 1.1720196e-18)
(33.767689 4.6882335 -1.1590334e-18)
(33.543361 4.7846185 -1.0556502e-22)
(33.302897 4.8629782 1.1514935e-18)
(33.047373 4.9223736 -1.1387961e-18)
(32.777919 4.962535 5.8055694e-19)
(18.12508 1.0228411 3.9585417e-21)
(19.527183 1.5169507 -1.5622929e-20)
(20.96431 1.7592349 1.5163536e-20)
(22.265663 1.8908815 1.885264e-18)
(23.415785 1.9836642 -1.8193721e-18)
(24.44339 2.0664597 1.7996887e-18)
(25.376678 2.1476088 -1.7269389e-18)
(26.230657 2.2280567 1.3263429e-20)
(27.012555 2.3079704 1.6699667e-18)
(27.727664 2.3880072 -1.6306146e-18)
(28.381247 2.4687976 1.2348358e-20)
(28.978265 2.5507114 -1.5324507e-18)
(29.523073 2.6339188 1.5096653e-18)
(30.019307 2.7180929 -1.153136e-20)
(30.469931 2.8022737 -1.4434985e-18)
(30.877594 2.8851661 2.823713e-18)
(31.244626 2.9659136 -1.3811158e-18)
(31.573486 3.04344 1.3619002e-18)
(31.865458 3.1154909 1.0312225e-22)
(32.122197 3.1832691 2.0324874e-20)
(32.346176 3.2459584 -1.2758509e-18)
(32.539668 3.300982 9.6783252e-21)
(32.70414 3.3477457 0)
(32.84137 3.3865785 9.2660943e-21)
(32.954103 3.4171126 1.1605139e-18)
(33.043965 3.4367678 -1.1175562e-18)
(33.110285 3.4455377 0)
(33.156428 3.444375 0)
(33.185448 3.4332685 0)
(33.200396 3.4107483 1.0174807e-18)
(33.202024 3.3797858 -9.5254592e-19)
(33.194165 3.3434006 -9.8169875e-19)
(33.175657 3.2945101 -1.1834443e-22)
(33.149618 3.2376491 9.5598501e-19)
(33.118129 3.1733028 -9.2198111e-19)
(33.082976 3.1020765 1.4233595e-20)
(33.045884 3.0247248 8.9971398e-19)
(33.008548 2.9423398 0)
(32.97248 2.856109 -2.7052674e-20)
(32.939123 2.7672361 -8.4967357e-19)
(32.909732 2.676961 8.2116383e-19)
(32.885368 2.5864309 -1.2805098e-20)
(32.866924 2.4967976 -1.2583813e-20)
(32.854938 2.4094524 7.794372e-19)
(32.85017 2.3257501 -1.5818849e-18)
(32.853543 2.2503566 1.1564647e-20)
(32.864039 2.1847872 -6.0151039e-23)
(32.883226 2.121699 1.1527777e-20)
(32.909678 2.070895 7.4346592e-19)
(32.943417 2.032735 7.3290903e-19)
(32.983939 2.0087971 -1.4232262e-18)
(33.030322 1.9992614 6.910596e-19)
(33.08163 2.005068 1.0826699e-20)
(33.136293 2.0280715 1.0690084e-20)
(33.193229 2.0686283 6.7582842e-19)
(33.250862 2.1271799 -1.3355462e-18)
(33.307492 2.2038994 2.0568805e-20)
(33.361325 2.2986864 6.6280509e-19)
(33.410495 2.4112286 0)
(33.453279 2.5409759 0)
(33.488553 2.6855721 -1.9741231e-20)
(33.514581 2.8390783 1.9534661e-20)
(33.527569 3.0022439 -6.5864786e-25)
(33.526024 3.1835275 6.3131841e-19)
(33.510696 3.3671867 -6.1035833e-19)
(33.481898 3.540359 3.6474497e-20)
(33.432027 3.7298368 1.8460662e-20)
(33.365809 3.9102025 -1.8331769e-20)
(33.280686 4.0845219 1.8131602e-20)
(33.176758 4.250967 0)
(33.053636 4.4063174 -1.7730542e-20)
(32.911442 4.5493536 -8.7448309e-25)
(32.750306 4.677661 5.5455693e-19)
(32.570933 4.7898409 1.7229178e-20)
(32.374043 4.8846172 -5.4177285e-19)
(32.160703 4.9607037 -1.6738008e-20)
(31.931906 5.0173763 0)
(12.246608 -0.081003983 -7.7622767e-21)
(13.623305 0.3950772 1.9604674e-18)
(15.062588 0.69771797 9.839936e-23)
(16.421334 0.91818398 -3.6681152e-18)
(17.673515 1.1048774 3.5651183e-18)
(18.828921 1.2765129 -3.4761141e-18)
(19.899152 1.4376364 3.392669e-18)
(20.890173 1.5895395 -1.6697726e-18)
(21.806347 1.7339417 0)
(22.652322 1.8726279 -1.5833187e-18)
(23.433077 2.0069324 -4.904033e-23)
(24.15331 2.1377726 3.0190284e-18)
(24.817311 2.2657119 -1.4831628e-18)
(25.428768 2.3906159 1.1343361e-20)
(25.990807 2.5117491 1.1105214e-20)
(26.506175 2.6282192 -1.391889e-18)
(26.977411 2.7392958 -9.4546234e-23)
(27.406855 2.8440847 1.3240605e-18)
(27.796269 2.9416101 -1.2966029e-18)
(28.147805 3.0321342 1.2694432e-18)
(28.463984 3.1145206 1.2527686e-18)
(28.7467 3.1871676 -1.2263033e-18)
(28.997561 3.2497885 -1.1911217e-18)
(29.218695 3.3024188 1.1656727e-18)
(29.412596 3.3444956 0)
(29.580958 3.374531 -8.7907066e-21)
(29.724719 3.3917445 1.1012065e-18)
(29.84617 3.3970711 -1.0775507e-18)
(29.947995 3.3912597 1.054696e-18)
(30.032707 3.3745454 -1.0482622e-18)
(30.102247 3.3479119 -7.8933689e-21)
(30.159728 3.3120948 -9.8917547e-19)
(30.206065 3.2649651 9.7603924e-19)
(30.243056 3.2089466 9.4867996e-19)
(30.272994 3.1445784 1.115022e-22)
(30.297813 3.0726314 -9.3930125e-19)
(30.319318 2.9940802 0)
(30.339279 2.9101328 0)
(30.35931 2.8221009 2.685507e-20)
(30.380938 2.7313624 0)
(30.405454 2.6391955 -8.4127303e-19)
(30.433895 2.5467849 2.5349306e-20)
(30.467201 2.4554966 1.2420759e-20)
(30.505907 2.3671088 1.5726777e-18)
(30.550563 2.2843181 6.7815711e-23)
(30.602276 2.2093093 -1.1828963e-20)
(30.661531 2.1401977 -7.4946594e-19)
(30.727546 2.079346 0)
(30.799511 2.031029 -1.1368437e-20)
(30.877754 1.9958683 0)
(30.96182 1.9753079 0)
(31.050786 1.9698696 1.0911247e-20)
(31.143373 1.9807597 0)
(31.238337 2.0095184 -6.8099393e-19)
(31.334553 2.0565465 6.7282355e-19)
(31.430455 2.1222069 0)
(31.5244 2.206593 0)
(31.61467 2.3095156 -1.0162196e-20)
(31.699565 2.4304767 1.0053509e-20)
(31.777681 2.5682746 0)
(31.847879 2.7199291 9.8438138e-21)
(31.907455 2.881743 -1.9483486e-20)
(31.952699 3.0549205 -5.9781796e-19)
(31.984636 3.2412825 1.2404421e-18)
(32.003539 3.4266456 -5.8538437e-19)
(32.004697 3.6148653 -5.9798931e-19)
(31.986227 3.8102829 5.6058662e-19)
(31.953521 3.9868799 0)
(31.898479 4.1683949 -1.7997062e-20)
(31.82564 4.33872 0)
(31.732892 4.496145 1.7675178e-20)
(31.62108 4.6410807 1.7470749e-20)
(31.489866 4.7702454 1.7267499e-20)
(31.340149 4.8828445 -1.7063424e-20)
(31.172574 4.9773758 0)
(30.988226 5.0525722 5.4993639e-19)
(30.788056 5.1079251 -1.0537184e-18)
(8.0049623 -1.0002773 7.4389537e-21)
(9.2472942 -0.59757886 -7.2523331e-21)
(10.565178 -0.28700406 7.054841e-21)
(11.846675 -0.017393445 6.8715669e-21)
(13.061461 0.23361361 -1.3403224e-20)
(14.206765 0.47171717 0)
(15.284938 0.69686023 0)
(16.296946 0.90995146 0)
(17.244314 1.1126937 1.567567e-18)
(18.129874 1.3064495 -1.1944128e-20)
(18.956915 1.4922484 -1.5152108e-18)
(19.728643 1.6709461 1.1508325e-20)
(20.448388 1.8431405 -1.4324039e-18)
(21.118965 2.0086223 1.4259924e-18)
(21.742886 2.166863 1.3653286e-18)
(22.322462 2.3173365 -1.3488529e-18)
(22.859797 2.4595051 1.322224e-18)
(23.356773 2.5928077 -1.3060473e-18)
(23.815116 2.7167427 0)
(24.236704 2.8309487 0)
(24.623474 2.9343826 -1.2386362e-18)
(24.976946 3.0261614 2.3984926e-18)
(25.298691 3.106088 -1.1884095e-18)
(25.590727 3.1739388 -1.1549722e-18)
(25.855086 3.2290873 1.130836e-18)
(26.093217 3.2705457 -1.1073554e-18)
(26.306324 3.2979629 1.0840765e-18)
(26.496441 3.312013 0)
(26.665953 3.3133915 8.1198393e-21)
(26.817102 3.3026486 -7.9507683e-21)
(26.952111 3.2806552 7.7858253e-21)
(27.073728 3.2478195 0)
(27.183408 3.2033146 -1.4939308e-20)
(27.282742 3.1488768 9.368671e-19)
(27.373963 3.0852763 -9.1091868e-19)
(27.459001 3.013445 1.4064552e-20)
(27.539661 2.9345107 0)
(27.617711 2.849794 0)
(27.69478 2.7607709 1.6609875e-25)
(27.772354 2.6689189 1.3038326e-20)
(27.851693 2.5755293 1.2807078e-20)
(27.933845 2.4819892 -1.258564e-20)
(28.019741 2.3899608 -2.4746328e-20)
(28.109877 2.3015459 0)
(28.205054 2.2189255 1.1973197e-20)
(28.306486 2.1435153 2.3574096e-20)
(28.414111 2.0753817 -7.4302946e-19)
(28.52687 2.0169653 7.3212768e-19)
(28.644606 1.9713676 -1.1278596e-20)
(28.767491 1.9396378 -7.2313214e-19)
(28.895018 1.9230821 7.0257288e-19)
(29.026208 1.922499 6.9368788e-19)
(29.159836 1.9392219 -6.744034e-19)
(29.294847 1.9744532 6.7702063e-19)
(29.430062 2.0286131 5.5640462e-23)
(29.563997 2.1020042 -6.6169871e-19)
(29.695113 2.1946306 6.5456356e-19)
(29.82183 2.3061602 -6.4755161e-19)
(29.94265 2.4357946 -1.0012831e-20)
(30.056301 2.5818843 6.3427329e-19)
(30.161252 2.7415349 -6.3754108e-19)
(30.254392 2.9122411 -6.2142788e-19)
(30.33352 3.0945854 6.0541541e-19)
(30.400098 3.2869541 -9.5111302e-21)
(30.452052 3.4800273 0)
(30.485352 3.6755734 -3.7254184e-20)
(30.501885 3.8709634 -6.0813438e-19)
(30.500323 4.0615205 1.1663988e-18)
(30.477745 4.2454407 -1.1120677e-18)
(30.43854 4.413912 5.5717462e-19)
(30.376932 4.5773719 -1.7567172e-20)
(30.297376 4.7247686 -5.569056e-19)
(30.197652 4.8552034 5.3297361e-19)
(30.079405 4.9687837 0)
(29.942917 5.0634619 -1.6782476e-20)
(29.789346 5.1382051 0)
(29.619634 5.1926857 -5.2399286e-19)
(5.0804523 -1.8678593 1.8034191e-18)
(6.1614862 -1.4995264 8.6714906e-23)
(7.3070779 -1.1772774 -1.7293452e-18)
(8.437778 -0.8693601 -1.681128e-18)
(9.5292315 -0.57018144 3.2913156e-18)
(10.574072 -0.28230316 -1.6062238e-18)
(11.571325 -0.0075434536 0)
(12.51999 0.25479715 0)
(13.419701 0.50547844 -1.5154548e-18)
(14.271428 0.74508509 1.49168e-18)
(15.076781 0.97430237 1.1342162e-20)
(15.837426 1.1938934 -1.4353781e-18)
(16.555316 1.4041234 2.7731568e-18)
(17.232447 1.6047472 -1.3820467e-18)
(17.87034 1.795587 2.1026667e-20)
(18.470474 1.976305 -1.0316281e-20)
(19.034255 2.1464789 1.0121856e-20)
(19.562926 2.3057934 0)
(20.057804 2.4538078 1.2565746e-18)
(20.520042 2.5898408 -1.2131705e-18)
(20.950911 2.7131485 9.3674187e-21)
(21.351503 2.8232228 0)
(21.723055 2.9197419 1.1523152e-18)
(22.067062 3.0023171 -1.1292034e-18)
(22.385047 3.0704246 8.6450717e-21)
(22.678181 3.1234652 8.4703655e-21)
(22.947602 3.16136 -8.2986037e-21)
(23.194943 3.184641 -1.0325888e-18)
(23.422192 3.1939288 1.0114985e-18)
(23.631374 3.1898305 7.8037142e-21)
(23.824657 3.1731139 0)
(24.004339 3.1441714 -7.4931617e-21)
(24.171953 3.1029652 7.3442525e-21)
(24.329094 3.0508963 0)
(24.477783 2.988902 -9.1080387e-19)
(24.61982 2.9180656 8.8633998e-19)
(24.756906 2.8396611 0)
(24.890687 2.7551463 0)
(25.02272 2.6661081 -8.5123895e-19)
(25.154351 2.5740668 1.6336058e-18)
(25.286775 2.4804373 -1.6180197e-18)
(25.421038 2.3868506 7.9533629e-19)
(25.558009 2.2951697 1.2223397e-20)
(25.698304 2.2074966 0)
(25.842733 2.125829 0)
(25.992172 2.051472 -2.3322099e-20)
(26.146209 1.9854469 1.1491236e-20)
(26.304157 1.9302829 -7.1378077e-19)
(26.466125 1.8883693 7.2637302e-19)
(26.632058 1.8609677 1.1028765e-20)
(26.801399 1.8493695 0)
(26.973205 1.8545913 0)
(27.146411 1.8779552 -6.8032181e-19)
(27.320055 1.9204155 -5.5187935e-23)
(27.492972 1.9823983 6.5468704e-19)
(27.663798 2.0641353 6.579931e-19)
(27.831127 2.1655158 -6.6121273e-19)
(27.993538 2.2860221 0)
(28.149678 2.4245748 -6.3789632e-19)
(28.298231 2.5792909 6.4129951e-19)
(28.437362 2.7475627 -9.7683087e-21)
(28.564296 2.9274661 6.0928199e-19)
(28.67792 3.1187193 -6.0307212e-19)
(28.778852 3.317861 6.0647772e-19)
(28.864066 3.5184294 -6.0010552e-19)
(28.931398 3.7209879 1.8556009e-20)
(28.982 3.9223255 6.0579136e-19)
(29.013934 4.1169417 -5.8992777e-19)
(29.026407 4.3033539 -8.9741563e-21)
(29.018201 4.4853952 0)
(28.99153 4.6440664 1.6955563e-20)
(28.945529 4.7937511 -5.2958892e-19)
(28.878452 4.9281445 5.4750911e-19)
(28.793433 5.0428986 0)
(28.689611 5.1381799 1.6691951e-20)
(28.56848 5.2128629 0)
(3.1143623 -2.6069901 -6.7118512e-21)
(4.0094954 -2.2559243 0)
(4.9682372 -1.921388 0)
(5.9217591 -1.5875262 6.2604385e-21)
(6.852062 -1.256486 -1.2253567e-20)
(7.7541451 -0.93520548 -6.0001837e-21)
(8.6256309 -0.62610748 1.5056497e-18)
(9.4648678 -0.32873158 -1.4768328e-18)
(10.270485 -0.043497779 1.1323546e-20)
(11.042512 0.22963786 0)
(11.781485 0.49122288 -1.4029977e-18)
(12.488073 0.74163533 1.3672823e-18)
(13.163032 0.98082134 1.0535045e-20)
(13.807447 1.2087086 0)
(14.4221 1.425209 -1.3114804e-18)
(15.007691 1.6300237 1.2780898e-18)
(15.564891 1.8228629 9.8064123e-21)
(16.094254 2.0034692 0)
(16.596494 2.171223 1.191305e-18)
(17.07225 2.3254857 -1.1970823e-18)
(17.521965 2.4657902 1.1657658e-18)
(17.946368 2.5916567 1.2330857e-22)
(18.346214 2.7025752 1.2607051e-22)
(18.722383 2.7981168 -2.2009229e-18)
(19.0759 2.8779193 2.1583123e-18)
(19.40756 2.9416114 -8.1370507e-21)
(19.718282 2.9892381 -1.0292541e-18)
(20.009329 3.0212214 -1.02508e-18)
(20.28224 3.038084 9.970416e-19)
(20.538699 3.0404242 -7.6371965e-21)
(20.780503 3.0289184 9.5853567e-19)
(21.009491 3.0040929 -9.3980992e-19)
(21.227104 2.9664119 -9.2903362e-19)
(21.434857 2.9171072 -1.1277979e-22)
(21.63448 2.8572375 8.8713665e-19)
(21.827553 2.7880195 0)
(22.015592 2.7108504 6.6785307e-21)
(22.200061 2.6273032 0)
(22.382349 2.5390481 -6.4437552e-21)
(22.563665 2.4476756 0)
(22.745109 2.3547503 0)
(22.927612 2.2620893 0)
(23.112001 2.1716865 6.0292729e-21)
(23.298959 2.0856326 0)
(23.489073 2.0058145 0)
(23.682872 1.9337142 1.1525052e-20)
(23.879956 1.8708985 -1.1364337e-20)
(24.080011 1.8198313 -7.2877586e-19)
(24.283135 1.7824943 1.4164486e-18)
(24.489126 1.7602764 -6.9933666e-19)
(24.697425 1.7545048 0)
(24.907186 1.7663327 -1.0670217e-20)
(25.117499 1.79699 -2.1100215e-20)
(25.327465 1.8472821 1.0435325e-20)
(25.535989 1.9176159 1.0324701e-20)
(25.741843 2.0081328 0)
(25.943762 2.1185889 1.0115129e-20)
(26.140464 2.2482797 0)
(26.330672 2.3959149 0)
(26.512992 2.5595407 -9.8191715e-21)
(26.68553 2.7368217 1.9446397e-20)
(26.846067 2.9259907 -3.6375411e-25)
(26.993909 3.1257747 9.5316383e-21)
(27.128733 3.3321086 -9.4345321e-21)
(27.247644 3.5403578 -9.3372157e-21)
(27.349507 3.750096 0)
(27.434444 3.9570945 0)
(27.500878 4.1574777 5.8737179e-19)
(27.547633 4.3495212 -5.6269795e-19)
(27.574731 4.5314804 8.8281591e-21)
(27.582784 4.6976002 5.5828534e-19)
(27.569082 4.8547665 -5.4971746e-19)
(27.538578 4.9846325 0)
(27.487548 5.1023909 0)
(27.417862 5.199675 0)
(27.330643 5.274687 0)
(1.7979446 -3.1847629 1.6534016e-18)
(2.4974949 -2.8437819 -1.5516331e-18)
(3.2402899 -2.5155837 0)
(4.0257815 -2.1622381 -5.9639413e-21)
(4.7911531 -1.8111799 -1.4846663e-18)
(5.5409931 -1.4699475 1.4675252e-18)
(6.2734682 -1.1393069 0)
(6.9864809 -0.81950751 -1.4144099e-18)
(7.6783041 -0.51234045 2.7741423e-18)
(8.3490667 -0.2175308 -1.3661012e-18)
(8.998791 0.065371098 5.2469369e-21)
(9.6274648 0.33628392 5.1595684e-21)
(10.235324 0.59507633 0)
(10.822699 0.8417053 -4.9895195e-21)
(11.389782 1.0760773 0)
(11.936743 1.2979635 0)
(12.463727 1.5071124 1.2043708e-18)
(12.97079 1.7031456 -2.3812121e-18)
(13.457973 1.8854458 1.362754e-20)
(13.925502 2.0535019 -1.1392399e-22)
(14.373298 2.2068485 1.1309074e-18)
(14.8016 2.3448664 -8.6762719e-21)
(15.210819 2.4669358 8.5180327e-21)
(15.601286 2.5727683 8.3607346e-21)
(15.973556 2.6620773 -1.6410497e-20)
(16.328018 2.7345238 0)
(16.665297 2.7902099 0)
(16.986282 2.829469 -7.7506763e-21)
(17.29208 2.8527467 9.6579291e-19)
(17.583984 2.8606236 -9.3997557e-19)
(17.863373 2.8537523 -9.3705186e-19)
(18.131617 2.8327671 9.2658907e-19)
(18.389921 2.7984063 9.0246197e-19)
(18.639576 2.751841 -8.8577894e-19)
(18.881979 2.6942338 0)
(19.118434 2.6269152 -8.4761451e-19)
(19.350202 2.5513958 8.3263e-19)
(19.578534 2.4693386 0)
(19.804621 2.3824673 8.1725944e-19)
(20.029522 2.2924493 -7.9127292e-19)
(20.254173 2.2009956 0)
(20.479362 2.1100651 0)
(20.705835 2.0217297 -5.9442026e-21)
(20.934264 1.9380806 0)
(21.164974 1.8610158 0)
(21.398284 1.7922021 7.3450361e-19)
(21.633944 1.7335254 -7.1909258e-19)
(21.87183 1.6872724 0)
(22.111963 1.6552464 1.0956322e-20)
(22.354077 1.6389245 1.0826313e-20)
(22.597649 1.6396723 0)
(22.841952 1.6586994 6.8798402e-19)
(23.0862 1.6971287 -6.5962378e-19)
(23.329563 1.7556725 -1.0361747e-20)
(23.571047 1.8346929 6.5647711e-19)
(23.809559 1.9342292 -6.4991805e-19)
(24.043963 2.0539033 -1.0056702e-20)
(24.273086 2.1928509 0)
(24.495695 2.3496495 -9.8644665e-21)
(24.710363 2.5223495 6.2530013e-19)
(24.915308 2.7087794 -6.2887561e-19)
(25.10877 2.90706 9.5810672e-21)
(25.290069 3.1151419 3.8673083e-25)
(25.458271 3.3290026 -9.3904366e-21)
(25.610944 3.5450296 -5.8549688e-19)
(25.7473 3.7617337 1.1768305e-18)
(25.866779 3.9747934 -5.8192776e-19)
(25.968054 4.1812303 -5.6648194e-19)
(26.049951 4.378397 5.6872462e-19)
(26.112717 4.5647886 -8.781527e-21)
(26.155814 4.7355532 -5.465902e-19)
(26.178706 4.8923698 5.3116761e-19)
(26.183113 5.0292905 5.415093e-19)
(26.166394 5.1503523 -5.2532783e-19)
(26.133935 5.245124 0)
(26.081376 5.3226996 0)
(0.73619609 -3.6834882 5.1789678e-21)
(1.341571 -3.2970724 -5.9521205e-21)
(1.9568368 -2.9414117 5.7180179e-21)
(2.5423675 -2.5996323 1.4364264e-18)
(3.1585805 -2.2391966 -1.4307545e-18)
(3.7621242 -1.8875463 -1.4017757e-18)
(4.3587426 -1.5458319 1.3721649e-18)
(4.9467016 -1.2138646 0)
(5.5222552 -0.89514467 1.3377605e-18)
(6.0867459 -0.58848438 -2.6224863e-18)
(6.6398101 -0.29382515 2.5811888e-18)
(7.1812424 -0.011628794 -1.2753412e-18)
(7.7111118 0.25817481 4.8849858e-21)
(8.229271 0.51556788 9.6167566e-21)
(8.7355578 0.76040613 0)
(9.2298461 0.99247784 0)
(9.7119622 1.2115206 1.1728781e-18)
(10.181618 1.4171343 -1.1580705e-18)
(10.638479 1.6087113 -4.4314883e-21)
(11.082308 1.7857148 1.1153863e-18)
(11.512836 1.9475788 -1.1004859e-18)
(11.929888 2.0935768 8.4164731e-21)
(12.333527 2.2231798 -1.0667717e-18)
(12.723728 2.3361584 1.0314988e-18)
(13.100579 2.4321046 7.9777219e-21)
(13.464249 2.5107537 0)
(13.814989 2.5722707 0)
(14.153321 2.6168408 3.6677652e-26)
(14.479962 2.6448487 9.5672099e-19)
(14.795813 2.6568767 -9.3926126e-19)
(15.101804 2.6535814 -7.1500722e-21)
(15.398892 2.6356911 0)
(15.687986 2.6040723 2.1896856e-26)
(15.970089 2.559887 -8.6731205e-19)
(16.246257 2.5043896 1.6977353e-18)
(16.5175 2.4390033 -8.4412086e-19)
(16.784814 2.3653135 0)
(17.049201 2.2850339 -8.1006438e-19)
(17.311631 2.19993 1.5939954e-18)
(17.572969 2.1117569 -7.9059641e-19)
(17.833966 2.022358 7.6655459e-19)
(18.095268 1.9337795 -1.5222155e-18)
(18.357484 1.8481476 1.5003567e-18)
(18.621234 1.7675796 -1.4794052e-18)
(18.886649 1.694027 7.2396346e-19)
(19.153924 1.6293183 -7.2587633e-19)
(19.422963 1.5754546 7.1116771e-19)
(19.693704 1.5345723 0)
(19.966104 1.508419 -1.0850524e-20)
(20.239886 1.4985244 -1.07287e-20)
(20.514587 1.5062736 0)
(20.789588 1.5328815 6.6684381e-19)
(21.064212 1.5793746 -6.6518985e-19)
(21.337707 1.6463943 0)
(21.609186 1.7342409 0)
(21.877684 1.8428509 -1.009389e-20)
(22.142177 1.9717248 -6.299404e-19)
(22.401576 2.1198757 6.3387454e-19)
(22.654687 2.285804 9.8117302e-21)
(22.900114 2.467578 0)
(23.136247 2.6630753 -6.1614573e-19)
(23.361627 2.8702064 1.2202738e-18)
(23.575435 3.0864425 -6.1349441e-19)
(23.776416 3.3080008 9.3430263e-21)
(23.962569 3.5317064 0)
(24.133111 3.7552856 -9.1468875e-21)
(24.287117 3.9746656 -5.7897132e-19)
(24.423393 4.1871678 -9.0375089e-21)
(24.540901 4.3897952 5.6560539e-19)
(24.639631 4.5809367 0)
(24.718839 4.7562348 3.8746214e-25)
(24.778487 4.9164954 1.7033275e-20)
(24.818935 5.0568819 8.4080721e-21)
(24.839785 5.1782793 0)
(24.842364 5.2797141 5.0760454e-19)
(24.826622 5.3557487 -5.0949212e-19)
(-0.083088997 -4.0453567 -6.2926173e-19)
(0.38658634 -3.6426088 1.4691186e-18)
(0.89072676 -3.2655108 -5.5510407e-21)
(1.3607973 -2.9039289 5.3937208e-21)
(1.8335479 -2.5431032 0)
(2.2925135 -2.1984181 4.7051799e-26)
(2.7627703 -1.8549471 5.1253923e-21)
(3.2362675 -1.517062 0)
(3.7007099 -1.1947724 -3.649331e-26)
(4.1630148 -0.88418736 -1.2594111e-18)
(4.6211884 -0.58566224 2.47693e-18)
(5.0754398 -0.29987337 -2.4453705e-18)
(5.5254412 -0.026145703 2.3998929e-18)
(5.9706887 0.23526423 -2.3781551e-18)
(6.4109719 0.48412695 2.3379061e-18)
(6.8460986 0.72025599 -2.3023818e-18)
(7.2757577 0.94341816 2.2669034e-18)
(7.6994711 1.153242 -1.1156767e-18)
(8.1166845 1.3490495 -1.098059e-18)
(8.5269561 1.5302314 1.0760218e-18)
(8.9298772 1.6961415 4.1508478e-21)
(9.3250774 1.8460446 0)
(9.7122993 1.9794831 1.0275092e-18)
(10.09127 2.0961578 1.190504e-22)
(10.46171 2.1956369 -1.9893313e-18)
(10.823585 2.2777772 -1.209115e-22)
(11.176844 2.3426198 9.5864669e-19)
(11.521721 2.3902238 9.4948142e-19)
(11.858611 2.4210094 -1.8513689e-18)
(12.188012 2.4355563 9.0246713e-19)
(12.510442 2.4345173 6.9837951e-21)
(12.826502 2.4186855 8.7864983e-19)
(13.136791 2.3889738 -8.6361065e-19)
(13.442022 2.3465621 0)
(13.742925 2.2927803 -8.2864027e-19)
(14.040215 2.2291117 8.2147311e-19)
(14.33463 2.1571832 0)
(14.626928 2.0787363 -7.89615e-19)
(14.917851 1.9955761 7.8361138e-19)
(15.208054 1.9095431 7.7206562e-19)
(15.498101 1.8225781 -7.5489889e-19)
(15.788503 1.7367774 7.5027049e-19)
(16.079733 1.6543094 -1.4801188e-18)
(16.372305 1.5773215 7.3029479e-19)
(16.666268 1.5078331 5.6329182e-21)
(16.961703 1.4477646 7.1221663e-19)
(17.258642 1.3991358 -1.4130562e-18)
(17.557023 1.3639909 1.3860998e-18)
(17.856763 1.3440647 -1.376246e-18)
(18.157604 1.3409069 6.8078624e-19)
(18.459148 1.3559046 -5.2642287e-21)
(18.760876 1.3902503 -6.6190273e-19)
(19.062199 1.4448873 -5.2188338e-21)
(19.36245 1.5203944 6.5939128e-19)
(19.66085 1.6170024 0)
(19.956543 1.7345526 1.003416e-20)
(20.248599 1.8724438 6.3632925e-19)
(20.536003 2.0295994 -6.4027163e-19)
(20.817607 2.2044733 9.7600518e-21)
(21.092091 2.3951377 0)
(21.358007 2.5994469 6.1297168e-19)
(21.614071 2.8151095 -6.0696082e-19)
(21.85931 3.0393379 6.0101678e-19)
(22.092338 3.2685778 -5.94802e-19)
(22.311451 3.4997806 0)
(22.515752 3.73019 1.819423e-20)
(22.704103 3.9560262 0)
(22.875376 4.1746072 -8.8921493e-21)
(23.028607 4.3829111 8.7868826e-21)
(23.163515 4.5789688 8.680072e-21)
(23.279383 4.7591696 -8.5715754e-21)
(23.376089 4.9232629 -8.4625178e-21)
(23.453675 5.0673733 -8.3528614e-21)
(23.512012 5.1918948 0)
(23.552085 5.294317 5.2870043e-19)
(-0.76785528 -4.287655 0)
(-0.41340461 -3.8778557 0)
(-0.029789384 -3.4936084 0)
(0.35389725 -3.1175066 -5.2046633e-21)
(0.71981737 -2.7535526 -5.1030456e-21)
(1.0704777 -2.4045324 4.9898586e-21)
(1.4258172 -2.0643471 0)
(1.7850807 -1.7317963 4.8305754e-21)
(2.1393946 -1.4183097 -4.7615783e-21)
(2.5055393 -1.1098542 0)
(2.8742771 -0.81417209 4.6613917e-21)
(3.2462987 -0.53091558 4.6014343e-21)
(3.6195125 -0.25868711 9.0770045e-21)
(3.9931606 0.0013756994 0)
(4.3672813 0.24899585 -1.1293165e-18)
(4.7417197 0.48407653 -8.5644946e-23)
(5.1161713 0.70644365 1.096475e-18)
(5.4901302 0.91578579 4.2192026e-21)
(5.8629475 1.1112735 0)
(6.2341536 1.2922874 -1.0432111e-18)
(6.6032776 1.4581414 1.0307713e-18)
(6.9698038 1.6081038 -1.018456e-18)
(7.3332788 1.7418091 9.9415547e-19)
(7.6932176 1.8589086 0)
(8.0491793 1.958966 3.7725802e-21)
(8.4008827 2.0418326 0)
(8.7480563 2.1074331 9.3415156e-19)
(9.0906983 2.1557918 3.705408e-21)
(9.428949 2.187358 -9.0327386e-19)
(9.7629633 2.2026856 6.9405764e-21)
(10.092936 2.202468 3.4131268e-21)
(10.419135 2.1875128 6.7147973e-21)
(10.741881 2.1587162 3.6064865e-26)
(11.061633 2.117306 8.3216954e-19)
(11.378817 2.0646699 1.0238671e-22)
(11.693879 2.0023144 -8.1267012e-19)
(12.007319 1.9318797 0)
(12.319671 1.8551236 -6.1133939e-21)
(12.631455 1.7738916 -7.7129444e-19)
(12.943122 1.6900944 7.6040799e-19)
(13.255069 1.6057286 -7.5014919e-19)
(13.567686 1.5229163 7.4018015e-19)
(13.881331 1.443856 0)
(14.196363 1.3707214 0)
(14.512867 1.3055923 0)
(14.830783 1.2504184 0)
(15.150239 1.2072044 7.0250075e-19)
(15.471161 1.177942 5.4488562e-21)
(15.793442 1.1643625 -6.8767125e-19)
(16.116855 1.1680096 6.7552704e-19)
(16.441071 1.1902601 5.2843902e-21)
(16.76565 1.2322715 5.861749e-23)
(17.090086 1.2949135 -6.5115907e-19)
(17.413795 1.3787062 6.4523879e-19)
(17.736094 1.4838113 -6.4435767e-19)
(18.056221 1.6099867 4.9889681e-21)
(18.373329 1.7565501 0)
(18.686466 1.9223598 6.3692219e-19)
(18.994549 2.1058374 -6.3102397e-19)
(19.29634 2.3050412 4.8092686e-21)
(19.59053 2.5177713 0)
(19.875916 2.7415777 0)
(20.151407 2.9735473 9.3404978e-21)
(20.415582 3.2102938 -6.0091359e-19)
(20.666915 3.4487674 5.8530001e-19)
(20.904371 3.6859433 -5.8801578e-19)
(21.126708 3.9182649 5.7232727e-19)
(21.332802 4.1429648 8.8387664e-21)
(21.521669 4.357035 5.5021644e-19)
(21.692793 4.5582595 -5.6058938e-19)
(21.845476 4.7435365 0)
(21.979453 4.9118361 5.4647577e-19)
(22.094652 5.0601446 -5.3091266e-19)
(22.190921 5.1880111 0)
(22.268985 5.2934929 0)
(-1.3764167 -4.4316361 -2.7726163e-21)
(-1.1131621 -4.0189525 2.6534336e-21)
(-0.8301416 -3.6309454 1.3207667e-18)
(-0.55244515 -3.2540625 -1.2897474e-18)
(-0.28053863 -2.8884962 2.4681975e-21)
(-0.0041916451 -2.53659 -1.2354325e-18)
(0.26371507 -2.1989702 1.2162888e-18)
(0.5325935 -1.8739968 -1.2082841e-18)
(0.79956472 -1.5636255 1.1765061e-18)
(1.076382 -1.2665072 4.5243726e-21)
(1.3590533 -0.98118159 -1.1383713e-18)
(1.6465387 -0.70769753 -4.4837596e-21)
(1.9455891 -0.44131312 1.1176194e-18)
(2.2500413 -0.18740645 1.1076461e-18)
(2.5604183 0.054587789 -1.0929386e-18)
(2.8754335 0.28442591 0)
(3.1948148 0.50182076 -4.1509362e-21)
(3.5183559 0.70662962 2.6781135e-26)
(3.8452017 0.89783149 0)
(4.1749506 1.0748796 0)
(4.5071789 1.2370553 -1.005454e-18)
(4.8411556 1.3836583 9.8616471e-19)
(5.1763237 1.5144807 7.5859516e-21)
(5.5120654 1.6290638 0)
(5.8478513 1.726927 9.4092433e-19)
(6.1832435 1.8079467 -9.2957374e-19)
(6.5178626 1.8719345 3.5599501e-21)
(6.8514816 1.9188537 8.9345563e-19)
(7.1840109 1.9492464 -8.8265396e-19)
(7.5153286 1.9636943 0)
(7.8453789 1.9628824 -3.3406458e-21)
(8.1741703 1.9475511 8.354253e-19)
(8.5018279 1.9185961 3.3449339e-21)
(8.8285618 1.8773245 -8.1327747e-19)
(9.1545291 1.8251478 8.0129872e-19)
(9.4799488 1.7635584 -7.864299e-19)
(9.805119 1.6941924 0)
(10.130374 1.6188208 0)
(10.456032 1.5393276 5.9379461e-21)
(10.78236 1.4576692 -5.8596963e-21)
(11.109617 1.3758558 0)
(11.438093 1.296021 5.7130298e-21)
(11.768051 1.220383 -7.1688278e-19)
(12.099696 1.1511469 7.140655e-19)
(12.433156 1.0904144 -7.0608491e-19)
(12.768307 1.0401227 5.3890281e-21)
(13.105283 1.0022653 6.90991e-19)
(13.444027 0.97880269 -6.8936918e-19)
(13.784407 0.97145291 6.8250161e-19)
(14.12624 0.98173441 5.2401923e-21)
(14.469258 1.0110102 0)
(14.813086 1.0603969 0)
(15.157291 1.1306957 6.5243279e-19)
(15.501368 1.2223728 -6.4149463e-19)
(15.844719 1.3355267 6.4086889e-19)
(16.186661 1.4698447 -6.4008478e-19)
(16.526419 1.6245817 -6.2952734e-19)
(16.863106 1.798548 1.2476567e-18)
(17.195701 1.9901391 -6.1809303e-19)
(17.523055 2.1973898 -9.568262e-21)
(17.843957 2.4180402 6.1130507e-19)
(18.15724 2.6495315 -6.0054503e-19)
(18.461734 2.8888979 5.8527381e-19)
(18.756024 3.1328629 -5.7909441e-19)
(19.038671 3.3783334 -5.8204365e-19)
(19.308515 3.6221451 1.1510625e-18)
(19.564251 3.8608924 -1.1289657e-18)
(19.804726 4.0917166 -8.8773357e-21)
(20.028909 4.3116278 5.5530477e-19)
(20.236086 4.5182383 8.569087e-21)
(20.425504 4.7087372 5.4143978e-19)
(20.596748 4.8816324 -5.3427718e-19)
(20.74965 5.0344222 0)
(20.884016 5.1660834 -5.2015688e-19)
(21.0003 5.2751381 5.2095207e-19)
(-1.9038984 -4.4915996 1.3747737e-18)
(-1.732135 -4.0748488 -2.5311608e-21)
(-1.541297 -3.6853277 -1.2755704e-18)
(-1.3550286 -3.310252 -1.2453398e-18)
(-1.1710229 -2.9501776 1.2225869e-18)
(-0.98551161 -2.6051837 -1.2011541e-18)
(-0.79776047 -2.2744608 2.3575758e-18)
(-0.60434063 -1.9581105 -2.3211498e-18)
(-0.40026079 -1.6567808 2.2872138e-18)
(-0.1951067 -1.3694603 -1.1335554e-18)
(0.016960586 -1.0939002 -1.1195638e-18)
(0.23692152 -0.82924582 2.2093243e-18)
(0.46689709 -0.5744232 -4.1804158e-21)
(0.7051176 -0.33179671 -1.0711339e-18)
(0.95251842 -0.10013414 1.0567988e-18)
(1.2106362 0.12019071 -2.0862694e-18)