/*--------------------------------*- C++ -*----------------------------------*\
| =========                 |                                                 |
| \\      /  F ield         | OpenFOAM: The Open Source CFD Toolbox           |
|  \\    /   O peration     | Version:  2406                                  |
|   \\  /    A nd           | Website:  www.openfoam.com                      |
|    \\/     M anipulation  |                                                 |
\*---------------------------------------------------------------------------*/
FoamFile
{
    version     2.0;
    format      ascii;
    arch        "LSB;label=32;scalar=64";
    class       volScalarField;
    location    "0.01";
    object      rho;
}
// * * * * * * * * * * * * * * * * * * * * * * * * * * * * * * * * * * * * * //

dimensions      [1 -3 0 0 0 0 0];

internalField   nonuniform List<scalar> 
2065
(
1.188648
1.1889341
1.1891717
1.1893648
1.1895271
1.1880915
1.1883167
1.1885828
1.1888193
1.189007
1.1883007
1.1883621
1.1884738
1.1886007
1.1886329
1.1886403
1.1886577
1.1887132
1.1887029
1.1886881
1.1887062
1.1886975
1.1887074
1.1887389
1.1887885
1.1890476
1.1890357
1.1890224
1.1890053
1.1890179
1.1889908
1.1890008
1.1889707
1.1889826
1.1889916
1.1888977
1.1889181
1.1889436
1.1889659
1.1886289
1.1886965
1.188779
1.188849
1.1889077
1.1893873
1.1897142
1.1899144
1.1900608
1.1901906
1.1902964
1.1903468
1.190346
1.1903112
1.1895869
1.1899231
1.190134
1.1902895
1.1904135
1.1904987
1.190533
1.1905233
1.1904857
1.1897006
1.1900375
1.1902813
1.19046
1.1905926
1.1906743
1.1907035
1.1906915
1.1906549
1.1898371
1.1901911
1.1904613
1.1906501
1.1907807
1.1908568
1.1908811
1.1908668
1.1908311
1.1899801
1.1903466
1.1906327
1.1908287
1.1909581
1.1910309
1.1910528
1.1900933
1.1902392
1.1901488
1.1900635
1.1900044
1.1900108
1.190164
1.1904163
1.1903368
1.1902635
1.1902152
1.1902308
1.1903883
1.1905909
1.1905192
1.1904545
1.1904141
1.1904323
1.1905801
1.1907718
1.1907057
1.1906462
1.1906096
1.1906269
1.190764
1.2034501
1.2042601
1.2050908
1.2058069
1.2062449
1.2063624
1.2022438
1.2031034
1.2039523
1.2046617
1.2050839
1.2051831
1.20099
1.2018677
1.2027094
1.2034016
1.2038156
1.2038989
1.1996484
1.200515
1.2013245
1.2019815
1.2023759
1.2024786
1.1982353
1.1990781
1.1998546
1.2004923
1.2009143
1.2011034
1.1968026
1.1976244
1.198377
1.1989958
1.1994061
1.1995796
1.1953159
1.1960901
1.1967926
1.1973682
1.1977445
1.1978658
1.1938125
1.194521
1.1951575
1.1956785
1.1960218
1.1961199
1.1923621
1.1929993
1.1935662
1.1940322
1.1943487
1.1944452
1.1910128
1.1915733
1.192067
1.1924752
1.1927636
1.1928702
1.1898264
1.1903136
1.1907408
1.1910948
1.191353
1.1914721
1.1888363
1.1892432
1.1895974
1.1898911
1.1901098
1.1902414
1.1880866
1.1884218
1.1887166
1.1889723
1.1891707
1.1893507
1.1876685
1.1878838
1.1880704
1.1882353
1.1883981
1.1885786
1.1873843
1.1875563
1.1877057
1.1878433
1.1879839
1.1881765
1.1873597
1.1874894
1.1875953
1.187694
1.1878081
1.187988
1.1874826
1.1875599
1.1876202
1.1876799
1.1877694
1.1879478
1.187715
1.1877504
1.1877768
1.1878104
1.1878811
1.1880666
1.1880399
1.1880392
1.1880351
1.1880464
1.1881046
1.1882865
1.1884173
1.1883865
1.1883557
1.1883439
1.188385
1.1885663
1.1888186
1.1887659
1.1887175
1.1886943
1.188731
1.1889051
1.1892112
1.1891427
1.1890786
1.1890378
1.1890563
1.1892304
1.1896007
1.1895204
1.1894483
1.1894054
1.1894267
1.189592
1.1898968
1.1898208
1.1897482
1.1896977
1.1897047
1.1898646
1.2100574
1.2080089
1.2058875
1.2038733
1.2023641
1.2015609
1.2014654
1.2019167
1.202653
1.2072145
1.2052909
1.2032998
1.2015945
1.2004065
1.1998643
1.1999659
1.2005595
1.2013942
1.2039407
1.2024169
1.2007823
1.1994141
1.1985177
1.1982069
1.1984798
1.1991906
1.2000993
1.2006588
1.1995269
1.1982866
1.1972553
1.1966429
1.1965515
1.1969788
1.1977854
1.1987423
1.1973514
1.196601
1.195727
1.1950559
1.1947559
1.1948898
1.1954647
1.1963504
1.1973336
1.1940426
1.1936743
1.1932012
1.192887
1.1928868
1.1932527
1.193965
1.194914
1.1959101
1.1908495
1.1908473
1.1907713
1.1908166
1.1911014
1.1916719
1.1924977
1.193481
1.19446
1.1878761
1.1882139
1.1885096
1.1888945
1.1894421
1.1901845
1.1910926
1.1920797
1.1930148
1.1851843
1.1858377
1.1864719
1.1871675
1.1879476
1.1888299
1.1897906
1.1907575
1.1916325
1.1830107
1.1838535
1.184749
1.1856929
1.18666
1.1876495
1.1886349
1.1895601
1.1903605
1.1803956
1.1815914
1.1830386
1.184359
1.1855525
1.1866626
1.1876613
1.1885314
1.1892517
1.1794964
1.1808482
1.1821009
1.1833769
1.1846802
1.185913
1.186911
1.187714
1.188347
1.1787623
1.1802645
1.18181
1.1833452
1.1846211
1.1856211
1.1864357
1.1871207
1.1876741
1.1785404
1.1800704
1.1816533
1.1831814
1.1845123
1.1855889
1.1864541
1.1870363
1.1874016
1.1787673
1.1802433
1.1817845
1.1832623
1.1845581
1.1855816
1.1863282
1.186832
1.187159
1.1794847
1.1808542
1.1822874
1.1836843
1.1848852
1.1858065
1.1864607
1.1869002
1.1871782
1.1805827
1.1817765
1.1830544
1.1843135
1.1853995
1.1862279
1.1867985
1.1871561
1.1873612
1.1819711
1.1829436
1.1840112
1.1850898
1.1860317
1.1867469
1.1872231
1.1875012
1.1876431
1.1835421
1.1842661
1.1850836
1.1859521
1.1867313
1.1873247
1.187709
1.1879184
1.1880089
1.1851428
1.1856187
1.1861824
1.1868348
1.1874477
1.1879211
1.1882209
1.1883713
1.1884198
1.1865904
1.1868748
1.1872237
1.1876801
1.1881385
1.1885013
1.1887273
1.1888295
1.1888459
1.187763
1.1879221
1.1881187
1.1884257
1.1887606
1.1890328
1.1891982
1.1892624
1.1892556
1.1885809
1.1887809
1.1889126
1.189106
1.1893321
1.1895257
1.1896429
1.1896799
1.189657
1.1887749
1.1889448
1.189132
1.1893695
1.1896034
1.1897991
1.1899202
1.1899641
1.1899491
1.2162847
1.2162915
1.2155778
1.2144596
1.2133074
1.2122651
1.2113102
1.2117552
1.211331
1.2105234
1.209713
1.209012
1.2062044
1.2070759
1.2069063
1.206402
1.2058984
1.2054631
1.2010977
1.2022976
1.202368
1.2021733
1.2019883
1.2018482
1.1960366
1.197536
1.197807
1.1979057
1.19802
1.1981612
1.191107
1.192884
1.1933186
1.1936966
1.1940889
1.1944869
1.1864026
1.18842
1.1890545
1.1896706
1.1903068
1.1909381
1.1820673
1.1842483
1.185077
1.1859186
1.1867779
1.1876269
1.1782301
1.1806073
1.1815543
1.1825676
1.1836092
1.1846247
1.1748359
1.1772939
1.1785495
1.1798103
1.1810631
1.1822342
1.1720205
1.1751699
1.1765508
1.1777252
1.1785949
1.1795556
1.1705307
1.1730764
1.1734569
1.1746262
1.1763285
1.1779997
1.1678223
1.170513
1.1718843
1.1736162
1.1754643
1.1771892
1.1663326
1.170067
1.1719049
1.1735918
1.1752861
1.1769387
1.1668254
1.170665
1.1721906
1.1738008
1.1755226
1.1771791
1.1682578
1.1715829
1.1730154
1.174614
1.1763237
1.1779468
1.169989
1.173033
1.174486
1.1760277
1.17766
1.179191
1.1722536
1.1749124
1.1763743
1.1778864
1.1794001
1.1807998
1.1753264
1.177562
1.1787864
1.1800823
1.1813937
1.182597
1.1786516
1.1802674
1.1813523
1.1824158
1.183481
1.1844515
1.1826612
1.183303
1.1838691
1.1845764
1.185355
1.1861044
1.1848496
1.1856126
1.1860107
1.1863555
1.1868743
1.1874229
1.1872738
1.1867546
1.1869078
1.187336
1.1877025
1.1881811
1.188506
1.187634
1.1871468
1.187419
1.1881083
1.188558
1.1880411
1.1882711
1.1878277
1.1874064
1.1875598
1.1883151
1.1884998
1.1884428
1.1883174
1.1880359
1.1878358
1.1879716
1.1885312
1.1885281
1.1884968
1.188444
1.1883286
1.1883437
1.1885891
1.1886071
1.1885971
1.1886006
1.1886094
1.1886632
1.1886139
1.1886406
1.188651
1.1886641
1.1886874
1.1887315
1.1886578
1.1886786
1.1886868
1.1886954
1.188706
1.1887224
1.1887273
1.1887383
1.1887344
1.1887326
1.1887299
1.1887282
1.1888269
1.1888182
1.1888033
1.188787
1.1887749
1.1887649
1.1889487
1.1889172
1.1888827
1.1888497
1.188824
1.1888095
1.1890742
1.189037
1.188983
1.1889312
1.1888914
1.1888673
1.1892073
1.1891542
1.1890821
1.1890149
1.1889633
1.1889304
1.1893135
1.1892546
1.1891722
1.1890903
1.1890292
1.1889903
1.1893714
1.1893073
1.1892195
1.1891349
1.189073
1.1890345
1.1894113
1.1892929
1.1892183
1.1891469
1.1890929
1.1890594
1.1893651
1.1892987
1.1892268
1.1891568
1.1891052
1.1890736
1.1892864
1.1892401
1.1891816
1.1891286
1.1890892
1.1890662
1.1892
1.1891663
1.1891272
1.1890908
1.1890647
1.1890524
1.1891204
1.1891
1.1890785
1.1890576
1.1890445
1.1890409
1.1890481
1.1890432
1.1890331
1.1890262
1.1890215
1.1890249
1.1889898
1.188997
1.1889953
1.188996
1.1889972
1.189002
1.1889414
1.188973
1.1889709
1.1889729
1.1889781
1.1889841
1.1889134
1.1889533
1.188935
1.1889284
1.18893
1.18893
1.1889085
1.1888977
1.1888502
1.1888137
1.1887407
1.1886455
1.1888625
1.1888457
1.1887751
1.1885943
1.2050122
1.2060293
1.2061567
1.2059117
1.2097399
1.2104033
1.2102981
1.2098088
1.2091326
1.2083101
1.2143821
1.214723
1.2143819
1.2136401
1.2127101
1.2116144
1.2188964
1.2189293
1.2183479
1.2173535
1.2161699
1.2148318
1.2232259
1.2229563
1.2221317
1.2208872
1.219462
1.2178949
1.2273168
1.2267329
1.2256603
1.2241716
1.2225266
1.2207713
1.2310125
1.2301247
1.2288182
1.227115
1.2252883
1.2234137
1.2340825
1.2330353
1.2315503
1.2297033
1.2277263
1.2257488
1.236698
1.2357338
1.2340864
1.2320871
1.229998
1.2278266
1.2390794
1.2380239
1.2362592
1.2341332
1.2318603
1.2295528
1.2410022
1.2398352
1.2379932
1.2357203
1.2333254
1.2309212
1.2424924
1.2412645
1.239324
1.2369336
1.2344356
1.2319446
1.2435117
1.2421271
1.2401129
1.2377022
1.2351761
1.2326418
1.2439982
1.2420546
1.2400365
1.237748
1.2353083
1.2328172
1.2436858
1.2423598
1.2403076
1.2378506
1.2352875
1.2327211
1.2431198
1.2418713
1.2398859
1.2374323
1.2348529
1.2322676
1.2418724
1.2406452
1.2387087
1.2363342
1.233828
1.2313068
1.2402171
1.2390262
1.2371325
1.2348742
1.2324525
1.2299873
1.2381331
1.237037
1.235216
1.2330258
1.2307215
1.2283346
1.2355583
1.2345443
1.2328422
1.230739
1.2285035
1.2262341
1.232699
1.2316004
1.2300369
1.2280837
1.2259552
1.2238126
1.2294153
1.2284102
1.2269969
1.2251888
1.2232193
1.2211761
1.225512
1.2247912
1.223572
1.2219332
1.220122
1.2182802
1.2210784
1.2206269
1.219605
1.2181342
1.2164784
1.21506
1.1888372
1.1888178
1.1888123
1.195717
1.2003227
1.2017007
1.2162079
1.2182944
1.2206102
1.2229094
1.2249227
1.2266537
1.2280187
1.2291155
1.2298808
1.2302701
1.230379
1.230173
1.2295608
1.2286871
1.2275141
1.2260465
1.224275
1.2222369
1.2199797
1.2175175
1.2148875
1.2121121
1.2093474
1.2164773
1.2176919
1.2197785
1.2218042
1.2234657
1.224889
1.2260331
1.2269386
1.2275447
1.2278762
1.2279655
1.2277356
1.2271987
1.2264476
1.2254375
1.2241666
1.2226639
1.2209532
1.2190254
1.2168748
1.214554
1.2120645
1.2095718
1.2163644
1.2172143
1.2190614
1.2207176
1.2220428
1.2231227
1.2240434
1.2247428
1.2251958
1.2254582
1.2255066
1.2252721
1.224817
1.2241912
1.2233576
1.2223188
1.2210992
1.2196781
1.2180877
1.2162823
1.2143274
1.2121923
1.2099756
1.2160529
1.2167152
1.2182474
1.2195208
1.2205219
1.2213511
1.222043
1.2225521
1.2228832
1.2230791
1.2230813
1.2228555
1.2224776
1.2219634
1.2212867
1.2204503
1.2194698
1.2183429
1.2170043
1.2155562
1.21395
1.2121777
1.2103123
1.2156326
1.2161402
1.2172875
1.2182035
1.2189445
1.2195646
1.2200609
1.2204174
1.2206617
1.2207924
1.2207454
1.2205384
1.2202298
1.219812
1.2192696
1.2186027
1.2178136
1.2169018
1.2158797
1.2147303
1.2134352
1.2119825
1.2104743
1.2150851
1.2153458
1.2161779
1.2168297
1.2173693
1.2178139
1.2181562
1.2184005
1.2185687
1.2186322
1.2185519
1.2183703
1.2181191
1.2177824
1.2173536
1.216833
1.2162204
1.215515
1.2147257
1.2138399
1.2128375
1.2116698
1.2104637
1.214437
1.214447
1.2149374
1.215441
1.2158497
1.2161597
1.2163853
1.2165516
1.2166515
1.2166479
1.21655
1.2163948
1.216188
1.215917
1.2155801
1.2151776
1.2147089
1.2141725
1.2135697
1.2128995
1.2121507
1.2112741
1.2103268
1.2136567
1.2135358
1.2138354
1.2142028
1.2144856
1.2146814
1.2148165
1.2149115
1.2149451
1.2148946
1.2147916
1.2146562
1.2144811
1.2142605
1.2139947
1.2136835
1.2133261
1.2129211
1.2124675
1.211964
1.2114029
1.2107631
1.210081
1.2129906
1.2128013
1.2129367
1.2131551
1.2133194
1.2134249
1.2134966
1.213528
1.2134968
1.213419
1.2133193
1.213196
1.2130428
1.2128589
1.2126447
1.2124
1.2121239
1.2118153
1.2114734
1.2110969
1.2106758
1.2101938
1.2097084
1.2123901
1.2121305
1.2121674
1.2122952
1.2123875
1.2124408
1.2124572
1.2124251
1.2123579
1.2122749
1.212177
1.2120591
1.2119205
1.2117615
1.2115822
1.2113821
1.2111602
1.2109158
1.2106483
1.2103566
1.210032
1.2096586
1.209288
1.2118889
1.2116576
1.2116592
1.2117325
1.2117758
1.2117703
1.2117295
1.2116671
1.211593
1.2115078
1.2114089
1.2112953
1.2111672
1.2110244
1.2108666
1.2106932
1.2105037
1.2102972
1.2100729
1.2098291
1.2095589
1.2092558
1.2089657
1.2116526
1.2114857
1.2114732
1.2114844
1.2114798
1.2114484
1.2114001
1.2113396
1.2112686
1.2111879
1.2110954
1.2109899
1.2108711
1.2107385
1.210592
1.2104312
1.2102559
1.2100658
1.2098602
1.2096353
1.2093829
1.2091119
1.2089134
1.2116977
1.2116231
1.2115936
1.211573
1.2115461
1.2115109
1.211468
1.2114159
1.2113535
1.2112807
1.2111969
1.2111023
1.210996
1.2108773
1.2107457
1.210601
1.2104431
1.2102719
1.2100869
1.2098841
1.2096545
1.2094045
1.2117034
1.2117049
1.2116892
1.2116682
1.2116414
1.2116073
1.2115638
1.2115104
1.2114493
1.21138
1.2113033
1.2112208
1.2111306
1.211032
1.2109251
1.2108099
1.2106865
1.2105551
1.2104159
1.2102668
1.2100999
1.2099129
1.2116421
1.2116418
1.2116166
1.2115831
1.2115437
1.2114975
1.2114448
1.211386
1.2113217
1.2112523
1.2111783
1.2110996
1.2110164
1.2109288
1.2108369
1.2107411
1.2106418
1.2105399
1.2104368
1.2103341
1.2102322
1.210131
1.2114582
1.2114159
1.2113608
1.2113058
1.2112501
1.211193
1.2111346
1.2110752
1.211015
1.2109538
1.2108914
1.2108273
1.2107612
1.2106921
1.2106194
1.2105423
1.2104601
1.2103723
1.2102789
1.2101798
1.2100761
1.2099731
1.2110446
1.2109902
1.2109293
1.2108716
1.2108158
1.2107602
1.2107046
1.210649
1.2105937
1.2105388
1.2104845
1.2104309
1.2103783
1.2103268
1.2102764
1.210227
1.2101784
1.2101302
1.2100815
1.210031
1.209977
1.20992
1.210621
1.2105677
1.2105095
1.2104537
1.2103992
1.2103449
1.2102909
1.2102372
1.2101842
1.2101316
1.2100796
1.2100281
1.209977
1.2099262
1.2098757
1.2098256
1.2097757
1.2097266
1.2096786
1.2096323
1.2095879
1.2095462
1.2101747
1.2101253
1.2100721
1.2100215
1.209973
1.2099257
1.2098794
1.2098341
1.20979
1.209747
1.209705
1.2096641
1.2096242
1.2095854
1.2095477
1.209511
1.2094752
1.2094399
1.209405
1.20937
1.2093352
1.2093018
1.2097577
1.2097159
1.2096709
1.2096278
1.2095859
1.2095446
1.2095036
1.209463
1.209423
1.2093836
1.2093448
1.2093067
1.2092694
1.2092328
1.2091969
1.2091617
1.2091275
1.2090942
1.2090623
1.2090316
1.2090022
1.2089745
1.2093676
1.2093334
1.2092966
1.2092614
1.2092274
1.209194
1.2091613
1.2091293
1.209098
1.2090674
1.2090374
1.2090082
1.2089796
1.2089517
1.2089245
1.2088979
1.2088719
1.2088464
1.2088215
1.208797
1.2087732
1.2087507
1.2090215
1.2089952
1.2089667
1.208939
1.2089119
1.2088849
1.208858
1.2088313
1.2088046
1.2087782
1.208752
1.2087261
1.2087004
1.208675
1.20865
1.2086254
1.2086012
1.2085775
1.2085545
1.2085321
1.2085103
1.2084896
1.208733
1.2087133
1.2086919
1.2086709
1.2086504
1.20863
1.2086098
1.2085897
1.2085699
1.2085503
1.2085309
1.2085117
1.2084928
1.2084741
1.2084556
1.2084374
1.2084193
1.2084015
1.2083839
1.2083665
1.2083494
1.208333
1.2084868
1.2084729
1.2084573
1.2084419
1.2084265
1.2084109
1.2083952
1.2083792
1.2083631
1.2083468
1.2083304
1.2083138
1.208297
1.2082803
1.2082634
1.2082466
1.2082299
1.2082132
1.2081967
1.2081804
1.2081643
1.2081487
1.2082944
1.2082838
1.208272
1.2082603
1.2082486
1.2082369
1.2082252
1.2082135
1.2082018
1.2081901
1.2081784
1.2081668
1.2081552
1.2081437
1.2081322
1.2081207
1.2081092
1.2080977
1.2080862
1.2080747
1.2080633
1.2080521
1.208097
1.2080893
1.2080807
1.208072
1.2080631
1.2080541
1.2080449
1.2080356
1.208026
1.2080163
1.2080063
1.2079962
1.207986
1.2079756
1.2079651
1.2079545
1.2079439
1.2079332
1.2079225
1.2079119
1.2079014
1.2078912
1.207931
1.2079233
1.2079157
1.207908
1.2079004
1.2078927
1.2078852
1.2078777
1.2078705
1.2078633
1.2078564
1.2078496
1.207843
1.2078365
1.2078301
1.2078237
1.2078173
1.2078107
1.207804
1.2077971
1.2077902
1.2077834
1.2077011
1.2076966
1.2076915
1.2076865
1.2076814
1.2076763
1.2076712
1.207666
1.2076606
1.2076552
1.2076496
1.2076439
1.207638
1.207632
1.207626
1.2076201
1.2076142
1.2076083
1.2076026
1.2075969
1.2075912
1.2075858
1.2074603
1.2074582
1.2074561
1.2074533
1.2074505
1.2074482
1.2074458
1.2074434
1.2074408
1.2074381
1.2074354
1.2074326
1.2074298
1.2074269
1.2074241
1.2074211
1.2074182
1.2074153
1.2074124
1.2074095
1.2074065
1.2074036
1.2074477
1.2074466
1.2074454
1.2074441
1.2074427
1.2074411
1.2074379
1.2074361
1.2074338
1.2074313
1.2074286
1.2074255
1.2074222
1.2074186
1.2074147
1.2074106
1.2074063
1.2074019
1.2073976
1.2073932
1.2073884
1.2073835
1.2072677
1.2072655
1.2072632
1.2072605
1.2072575
1.2072539
1.2072499
1.2072453
1.2072402
1.2072349
1.2072295
1.207224
1.2072185
1.2072132
1.2072078
1.2072025
1.2071969
1.2071906
1.2071808
1.2071651
1.2071588
1.2071537
1.2035604
1.2028758
1.2024288
1.2024873
1.203211
1.2046051
1.2064416
1.2081552
1.2098431
1.2044458
1.2037981
1.2033739
1.2034326
1.2041353
1.2054979
1.2073518
1.2092165
1.2106989
1.2053446
1.204738
1.204325
1.2043492
1.2049703
1.2062141
1.2079429
1.2097403
1.2110765
1.2062758
1.2057118
1.2053098
1.2052914
1.20581
1.206896
1.2084197
1.2100113
1.2111882
1.2072099
1.206698
1.2063133
1.2062515
1.2066558
1.2075592
1.2088412
1.2101852
1.2111991
1.2081189
1.2076661
1.2073049
1.2072018
1.2074864
1.2081939
1.2092216
1.210313
1.2111752
1.2089793
1.2085873
1.208253
1.2081131
1.2082831
1.2088063
1.2096159
1.2105168
1.211222
1.2097908
1.2094467
1.2091348
1.2089677
1.2090535
1.209454
1.2101445
1.210912
1.2112574
1.2104862
1.2102079
1.2099436
1.2097922
1.2098467
1.2101219
1.2104841
1.2108296
1.2110027
1.2110207
1.2108036
1.2105911
1.210445
1.2103621
1.2103631
1.210552
1.2108598
1.2109691
1.2114308
1.2113053
1.2111145
1.2109021
1.2107615
1.2107606
1.2108685
1.2109975
1.2109882
1.2116517
1.2115549
1.2115145
1.2114837
1.2114283
1.211374
1.2113502
1.2113252
1.2112323
1.2117927
1.2117406
1.2116425
1.2115893
1.2116028
1.211636
1.2116527
1.21165
1.2116141
1.211713
1.2117521
1.2117587
1.2117117
1.2116552
1.2116356
1.2116511
1.211688
1.21172
1.2115472
1.2115467
1.2115887
1.2116438
1.2116696
1.2116611
1.2116482
1.2116488
1.2116583
1.2112891
1.2113129
1.2113267
1.2113408
1.2113736
1.2114163
1.2114499
1.2114711
1.2114783
1.2109711
1.2109742
1.2109904
1.2110123
1.2110281
1.2110377
1.2110486
1.2110622
1.2110691
1.2105885
1.2106004
1.2106088
1.2106149
1.2106245
1.2106352
1.2106436
1.2106502
1.2106502
1.2101948
1.2101952
1.2102007
1.2102077
1.2102109
1.21021
1.2102083
1.2102082
1.2102042
1.2097788
1.2097856
1.2097903
1.2097925
1.209794
1.2097939
1.2097916
1.2097895
1.2097842
1.2094095
1.2094077
1.2094082
1.2094089
1.2094073
1.2094035
1.2093991
1.2093959
1.2093903
1.209044
1.2090491
1.2090529
1.2090545
1.2090539
1.2090513
1.2090475
1.2090442
1.2090392
1.2087771
1.208773
1.20877
1.2087672
1.2087638
1.2087594
1.2087549
1.2087514
1.2087469
1.2084992
1.2085029
1.208506
1.2085074
1.208507
1.208505
1.2085022
1.2084998
1.2084966
1.2083266
1.2083234
1.2083205
1.2083177
1.2083146
1.2083111
1.2083077
1.2083051
1.2083022
1.2081039
1.2081053
1.2081068
1.2081078
1.2081078
1.2081068
1.2081052
1.2081039
1.2081024
1.2079576
1.2079559
1.2079537
1.2079509
1.2079476
1.2079441
1.2079409
1.2079384
1.2079364
1.2076995
1.2077007
1.207702
1.2077033
1.2077041
1.2077045
1.2077045
1.2077046
1.2077044
1.2074725
1.207472
1.2074714
1.2074704
1.2074691
1.2074675
1.2074658
1.2074641
1.2074624
1.2074534
1.207453
1.2074525
1.207452
1.2074515
1.2074511
1.2074506
1.20745
1.2074491
1.2072756
1.2072758
1.2072759
1.2072758
1.2072755
1.207275
1.2072742
1.2072729
1.2072711
1.2043281
1.2051919
1.2060388
1.2069115
1.207776
1.2086087
1.2093913
1.210134
1.2107438
1.2111961
1.2115242
1.2117621
1.2117944
1.2116904
1.2115499
1.2112734
1.2109751
1.2105801
1.2101996
1.2097735
1.2094147
1.2090393
1.208783
1.2084956
1.2083304
1.2081031
1.207959
1.2076985
1.2074729
1.2074537
1.2072748
1.2050838
1.2058932
1.2066852
1.2074964
1.208291
1.2090499
1.2097585
1.2104243
1.2109432
1.2113208
1.2116513
1.2118074
1.2117812
1.2116888
1.2115464
1.2112719
1.2109777
1.2105789
1.2102061
1.2097713
1.2094219
1.209036
1.2087894
1.2084928
1.2083346
1.2081031
1.2079603
1.2076981
1.2074736
1.2074539
1.207274
1.2058836
1.2066373
1.207364
1.2081027
1.2088152
1.2094916
1.2101139
1.2106718
1.2110953
1.2114673
1.2117469
1.2117998
1.2117847
1.211698
1.2115463
1.2112777
1.2109816
1.2105835
1.2102116
1.209773
1.2094271
1.209037
1.2087923
1.2084936
1.2083366
1.2081047
1.2079609
1.2076983
1.2074746
1.2074544
1.207273
1.2065832
1.207289
1.2079558
1.2086291
1.2092583
1.2098536
1.210381
1.2108523
1.2112792
1.2116038
1.2117565
1.2118273
1.2118135
1.2117202
1.2115719
1.2112987
1.2110017
1.2106016
1.2102227
1.2097889
1.209427
1.2090513
1.2087893
1.2085084
1.2083314
1.2081127
1.2079597
1.2077004
1.2074765
1.2074546
1.2072721
1.2070126
1.2076921
1.2083269
1.2089705
1.2095397
1.2100866
1.2106168
1.2111484
1.2115103
1.2117429
1.21189
1.2119431
1.211929
1.2118257
1.2116621
1.2114067
1.2110523
1.2106965
1.2102361
1.2098747
1.2094184
1.209123
1.2087735
1.2085615
1.2083229
1.2081375
1.2079536
1.2077082
1.2074819
1.2074566
1.2072723
1.2071302
1.2078547
1.208512
1.20926
1.2099219
1.2106285
1.2110557
1.2115166
1.2118133
1.2120432
1.2121872
1.212241
1.2122229
1.21211
1.2119283
1.2116421
1.2112844
1.2108732
1.2104355
1.2100078
1.2095835
1.2092205
1.2088903
1.208609
1.2083796
1.2081535
1.2079919
1.2077243
1.2074911
1.2074655
1.2072715
)
;

boundaryField
{
    Side1
    {
        type            empty;
    }
    Inlet
    {
        type            calculated;
        value           uniform 1.2020535;
    }
    Side2
    {
        type            empty;
    }
    Outlet
    {
        type            calculated;
        value           nonuniform List<scalar> 0();
    }
    Botwall
    {
        type            calculated;
        value           nonuniform List<scalar> 
59
(
1.190164
1.1903883
1.1905801
1.190764
1.2063624
1.2051831
1.2038989
1.2024786
1.2011034
1.1995796
1.1978658
1.1961199
1.1944452
1.1928702
1.1914721
1.1902414
1.1893507
1.1885786
1.1881765
1.187988
1.1879478
1.1880666
1.1882865
1.1885663
1.1889051
1.1892304
1.189592
1.1898646
1.2071302
1.2078547
1.208512
1.20926
1.2099219
1.2106285
1.2110557
1.2115166
1.2118133
1.2120432
1.2121872
1.212241
1.2122229
1.21211
1.2119283
1.2116421
1.2112844
1.2108732
1.2104355
1.2100078
1.2095835
1.2092205
1.2088903
1.208609
1.2083796
1.2081535
1.2079919
1.2077243
1.2074911
1.2074655
1.2072715
)
;
    }
    Cyli
    {
        type            calculated;
        value           nonuniform List<scalar> 
76
(
1.2162847
1.2113102
1.2062044
1.2010977
1.1960366
1.191107
1.1864026
1.1820673
1.1782301
1.1748359
1.1720205
1.1705307
1.1678223
1.1663326
1.1668254
1.1682578
1.169989
1.1722536
1.1753264
1.1786516
1.1826612
1.1848496
1.1872738
1.188506
1.1880411
1.1884998
1.1885312
1.1885891
1.1886139
1.1886578
1.1887273
1.1888269
1.1889487
1.1890742
1.1892073
1.1893135
1.1893714
1.1894113
1.1893651
1.1892864
1.1892
1.1891204
1.1890481
1.1889898
1.1889414
1.1889134
1.1889085
1.1888625
1.2050122
1.2097399
1.2143821
1.2188964
1.2232259
1.2273168
1.2310125
1.2340825
1.236698
1.2390794
1.2410022
1.2424924
1.2435117
1.2439982
1.2436858
1.2431198
1.2418724
1.2402171
1.2381331
1.2355583
1.232699
1.2294153
1.225512
1.2210784
1.1888372
1.1888123
1.195717
1.2003227
)
;
    }
    procBoundary0to1
    {
        type            processor;
        value           nonuniform List<scalar> 
44
(
1.1896538
1.1896538
1.1891593
1.1887121
1.1887121
1.188673
1.188673
1.188668
1.1886817
1.1886817
1.1887003
1.1887003
1.1887344
1.1887846
1.188848
1.188848
1.1889126
1.1889696
1.1890139
1.1890401
1.1890525
1.1890525
1.189052
1.1890435
1.1890312
1.1890312
1.1890283
1.1910381
1.1910043
1.1904686
1.1907694
1.190978
1.1911137
1.1911895
1.1910381
1.1912143
1.1904686
1.1901869
1.1909502
1.1908898
1.1908355
1.1908023
1.1908189
1.1909485
)
;
    }
    procBoundary0to2
    {
        type            processor;
        value           nonuniform List<scalar> 
55
(
1.188125
1.1882497
1.1883865
1.188525
1.1886587
1.18828
1.1880907
1.1885236
1.18828
1.1879994
1.2020523
1.2054963
1.2021149
1.2054963
1.2050775
1.1885236
1.1883355
1.1883355
1.1878933
1.191249
1.1974566
1.1974566
1.2020523
1.2068258
1.2077435
1.208473
1.20911
1.2095994
1.2098854
1.2099411
1.2098364
1.2096189
1.2092662
1.2089143
1.2089312
1.2092117
1.2092117
1.2097572
1.2100473
1.2098899
1.209865
1.2095086
1.2092712
1.2089492
1.2087301
1.2084703
1.2083174
1.2081337
1.2080411
1.2078811
1.2077764
1.2075803
1.2074006
1.2073786
1.2071492
)
;
    }
    procBoundary0to3
    {
        type            processor;
        value           nonuniform List<scalar> 7(1.189011 1.189011 1.1890034 1.1890034 1.1889918 1.1889918 1.1889665);
    }
}


// ************************************************************************* //
