/*--------------------------------*- C++ -*----------------------------------*\
| =========                 |                                                 |
| \\      /  F ield         | OpenFOAM: The Open Source CFD Toolbox           |
|  \\    /   O peration     | Version:  2406                                  |
|   \\  /    A nd           | Website:  www.openfoam.com                      |
|    \\/     M anipulation  |                                                 |
\*---------------------------------------------------------------------------*/
FoamFile
{
    version     2.0;
    format      ascii;
    arch        "LSB;label=32;scalar=64";
    class       volScalarField;
    location    "0.023";
    object      omega;
}
// * * * * * * * * * * * * * * * * * * * * * * * * * * * * * * * * * * * * * //

dimensions      [0 0 -1 0 0 0 0];

internalField   nonuniform List<scalar> 
92813
(
19741.684
17906.395
16234.792
14734.908
13393.497
12192.929
11116.472
10149.368
9278.7717
8493.4915
7783.7851
7141.1876
6558.3582
6028.9011
5547.1854
5108.2375
4707.5208
4341.4346
4006.6178
3700.0958
3419.1887
3161.5084
2924.9336
2707.5566
2507.663
2323.7107
2154.3102
1998.2078
1854.2704
1721.4724
1598.8838
1485.659
1381.0272
1284.2836
1194.7804
1111.9175
1035.1369
963.91235
897.72518
836.06432
778.48077
724.46808
673.45365
624.84627
577.99201
532.19719
486.79879
441.65439
397.46138
356.3774
321.19434
293.50504
272.66332
256.72022
243.81915
232.82124
223.07042
214.23605
206.13419
198.66665
191.78495
185.42752
179.5462
174.11324
169.0931
164.42351
160.09129
156.072
152.30606
148.79861
145.53224
142.46207
139.60466
136.95143
134.46074
132.1462
129.998
127.9757
126.09013
124.33616
122.67941
121.13734
119.70771
118.36621
117.11946
115.96158
114.89037
113.88714
112.94355
112.07175
111.2496
110.47076
109.74198
109.05317
108.39372
107.77202
107.18504
106.62424
106.09948
105.59934
105.12831
104.68773
104.2715
103.8785
103.50929
103.16207
102.83155
102.51879
102.22801
101.96056
101.71242
101.48386
101.27004
101.06886
100.88025
100.70518
100.54514
100.39774
100.26553
100.14695
100.04181
99.950561
99.873723
99.808453
99.762749
99.719376
99.714019
17325.859
15792.988
14416.536
13176.662
12057.114
11044.249
10126.42
9293.5544
8536.8337
7848.4727
7221.5673
6649.9845
6128.2713
5651.5642
5215.5036
4816.1854
4450.0932
4114.1636
3805.6374
3522.0609
3261.2188
3021.1102
2799.9561
2596.1432
2408.2055
2234.8113
2074.7505
1926.9231
1790.3281
1664.0535
1547.2671
1439.208
1339.1786
1246.5368
1160.6886
1081.0805
1007.1926
938.53227
874.60529
814.90069
758.98503
706.37717
656.47131
608.66679
562.29385
516.68351
471.32776
426.28896
382.72577
343.18652
310.43502
285.36944
266.62153
252.06155
240.04526
229.60506
220.23487
211.6925
203.83193
196.575
189.88563
183.70089
177.97561
172.68574
167.79449
163.23636
159.00434
155.07524
151.38603
147.94958
144.75042
141.74375
138.94762
136.35033
133.91062
131.64581
129.54284
127.5618
125.71647
123.99946
122.37676
120.86669
119.46559
118.14841
116.92472
115.78517
114.72903
113.7417
112.80943
111.94772
111.13693
110.36693
109.64606
108.96469
108.31174
107.69658
107.11534
106.55984
106.03992
105.54426
105.07714
104.64031
104.22792
103.83836
103.47238
103.12848
102.80113
102.49097
102.20226
101.9367
101.69016
101.46331
101.25105
101.05139
100.86413
100.69019
100.53121
100.38473
100.25336
100.13552
100.03103
99.940351
99.863953
99.799043
99.753504
99.710212
99.704921
15258.204
14003.098
12864.868
11830.313
10887.613
10026.945
9240.0895
8519.9915
7860.4626
7255.9947
6701.6415
6192.9364
5725.8317
5296.647
4902.0295
4538.9297
4204.5763
3896.4759
3612.377
3350.2644
3108.3084
2884.8406
2678.3654
2487.519
2311.0524
2147.8214
1996.7779
1856.9616
1727.4925
1607.5634
1496.433
1393.4192
1297.8925
1209.2699
1127.0082
1050.5973
979.5532
913.41322
851.69668
793.91875
739.65643
688.41811
639.591
592.57336
546.69783
501.35258
456.20108
411.63325
369.31246
332.06129
302.15713
279.58511
262.52926
248.97349
237.54542
227.48178
218.38157
210.05471
202.3748
195.27542
188.72772
182.66699
177.05146
171.85983
167.05452
162.56945
158.40243
154.53083
150.89029
147.49876
144.33969
141.36623
138.60119
136.0332
133.61951
131.38041
129.30296
127.3456
125.5236
123.82865
122.22393
120.73052
119.34427
118.03949
116.82747
115.69671
114.64766
113.66836
112.74137
111.88367
111.07891
110.31246
109.59467
108.91676
108.26665
107.65449
107.0759
106.52277
106.0049
105.51129
105.04564
104.61039
104.20001
103.81218
103.4479
103.10601
102.78071
102.47195
102.18409
101.91931
101.67342
101.44747
101.23611
101.0374
100.85097
100.67767
100.51929
100.37334
100.24243
100.12504
100.02093
99.930578
99.854442
99.789727
99.744271
99.700957
99.695651
13475.285
12449.903
11508.382
10643.282
9847.2598
9113.9523
8437.8957
7814.3101
7238.9323
6707.9081
6217.7204
5765.1388
5347.1835
4961.0969
4604.3258
4274.5106
3969.4773
3687.2344
3425.9641
3184.025
2959.9141
2752.2472
2559.7738
2381.3459
2215.9053
2062.4748
1920.1522
1788.1044
1665.5623
1551.8154
1446.2066
1348.1272
1257.0115
1172.3318
1093.5923
1020.3234
952.07499
888.41215
828.8589
772.96999
720.33271
670.41616
622.62202
576.348
530.94361
485.88095
441.0376
397.2041
356.51651
321.81862
294.65784
274.24753
258.58308
245.84831
234.92081
225.19378
216.34371
208.2222
200.71718
193.77269
187.36701
181.43193
175.92932
170.8407
166.12691
161.72032
157.62433
153.81678
150.23068
146.89035
143.77874
140.8477
138.12399
135.59492
133.21651
131.01249
128.96846
127.0418
125.25001
123.58314
122.00353
120.53356
119.16822
117.88058
116.68505
115.56653
114.52673
113.55881
112.63942
111.78795
110.9916
110.23143
109.51902
108.84646
108.20111
107.5938
107.01954
106.47036
105.95596
105.46578
105.00287
104.57035
104.16297
103.77786
103.41613
103.07694
102.75439
102.44774
102.16143
101.89802
101.6533
101.42865
101.21857
101.02112
100.83581
100.66345
100.50593
100.36075
100.2305
100.11373
100.01015
99.920258
99.844496
99.780062
99.734739
99.691482
99.686196
11934.685
11094.782
10314.354
9589.6114
8916.3225
8290.6474
7709.1637
7168.7801
6666.6607
6200.1788
5766.8844
5364.4811
4990.8082
4643.8296
4321.6275
4022.4
3744.4617
3486.2449
3246.2997
3023.3036
2816.0318
2623.344
2444.2023
2277.6464
2122.7851
1978.7892
1844.8871
1720.3607
1604.5419
1496.8089
1396.5823
1303.3213
1216.5196
1135.7006
1060.4129
990.22412
924.71475
863.47541
806.03732
751.98569
700.91424
652.25314
605.42037
559.81281
514.81514
470.02068
425.58844
382.77812
344.12057
312.20456
287.71448
269.26055
254.81629
242.804
232.33261
222.92617
214.32255
206.40853
199.08216
192.29698
186.03779
180.23146
174.84435
169.86069
165.23941
160.91181
156.88742
153.1443
149.61294
146.32432
143.26036
140.37094
137.6873
135.1959
132.85128
130.68068
128.66864
126.77121
125.00802
123.36757
121.81074
120.36166
119.0146
117.74171
116.56068
115.45312
114.42085
113.4626
112.55036
111.7042
110.91504
110.16022
109.45236
108.78433
108.14304
107.53988
106.96936
106.42358
105.91207
105.42486
104.96418
104.53392
104.12913
103.74643
103.38694
103.05018
102.73016
102.42538
102.14036
101.87808
101.6343
101.41076
101.2018
101.00547
100.82118
100.64964
100.49289
100.3484
100.21871
100.10249
99.999393
99.909891
99.834468
99.770274
99.725062
99.681832
99.676556
10598.567
9908.529
9259.4766
8650.9111
8080.5217
7546.1146
7045.6602
6577.2559
6139.0953
5729.4528
5346.6742
4989.1695
4655.4084
4343.9181
4053.2846
3782.1558
3529.2457
3293.3392
3073.2964
2868.0658
2676.6602
2498.149
2331.6779
2176.4504
2031.721
1896.791
1771.0051
1653.7484
1544.4445
1442.5521
1347.5632
1258.9996
1176.4095
1099.364
1027.4521
960.275
897.44141
838.5632
783.18221
730.90649
681.32402
633.83554
587.87394
542.83982
498.18113
453.66886
409.83106
368.43833
332.24292
303.27237
281.315
264.59324
251.20009
239.81443
229.75459
220.64963
212.28366
204.57359
197.42375
190.79676
184.68362
179.00484
173.73236
168.85306
164.32355
160.07421
156.12127
152.44274
148.96625
145.73004
142.71465
139.86802
137.2261
134.77406
132.46484
130.32939
128.3508
126.48379
124.75034
123.13714
121.6039
120.17669
118.84872
117.59113
116.42531
115.32943
114.3049
113.35665
112.45225
111.61197
110.83031
110.08152
109.37885
108.71577
108.07905
107.48049
106.91417
106.37224
105.86398
105.38015
104.92206
104.49435
104.09241
103.71243
103.35545
103.02131
102.70405
102.40136
102.11785
101.85686
101.61417
101.39183
101.1841
100.98898
100.8058
100.63519
100.47928
100.33556
100.20648
100.09088
99.9883
99.899218
99.824176
99.760244
99.715159
99.671986
99.666728
9435.0339
8866.6328
8324.8654
7812.5948
7328.5987
6871.6988
6440.7699
6034.7144
5652.4467
5292.8896
4954.974
4637.6399
4339.8381
4060.5332
3798.7084
3553.3713
3323.5603
3108.3511
2906.8622
2718.2708
2541.7923
2376.6756
2222.2254
2077.787
1942.7424
1816.5076
1698.53
1588.2872
1485.2848
1389.055
1299.1544
1215.162
1136.6763
1063.3116
994.69366
930.45431
870.22716
813.63794
760.24497
709.67447
661.49265
615.08036
569.88716
525.33189
480.96703
436.81848
393.87465
354.38789
321.04869
295.06082
275.42023
260.19909
247.70574
236.86704
227.18453
218.36757
210.23373
202.72667
195.75348
189.28575
183.32028
177.76962
172.61265
167.83862
163.40136
159.23074
155.35013
151.7372
148.31649
145.13407
142.16861
139.36588
136.76676
134.35506
132.08197
129.98228
128.03764
126.2013
124.49768
122.91158
121.40159
119.99579
118.68625
117.44327
116.29208
115.20777
114.19047
113.25153
112.35522
111.5209
110.74629
110.00347
109.30605
108.64779
108.0156
107.42153
106.85937
106.32127
105.81619
105.33575
104.8802
104.45498
104.05581
103.67856
103.32411
102.99252
102.67803
102.37743
102.09542
101.83568
101.59406
101.37284
101.16633
100.97239
100.79031
100.62063
100.46554
100.32259
100.1941
100.0791
99.977044
99.888364
99.813704
99.750028
99.705064
99.661946
99.656708
8418.4018
7948.1708
7494.6638
7062.5168
6651.2088
6260.2062
5888.9675
5536.9295
5203.5003
4888.0599
4589.9621
4308.5385
4043.1024
3792.9542
3557.387
3335.6934
3127.1725
2931.137
2746.9192
2573.8876
2411.4287
2258.9446
2115.8768
1981.6934
1855.8873
1737.9748
1627.4942
1524.0047
1427.0856
1336.3348
1251.3676
1171.8148
1097.3203
1027.5378
962.12601
900.74395
843.04775
788.66325
737.17897
688.23576
641.35165
595.90717
551.37302
507.21293
463.14275
419.53888
377.9172
340.86946
310.6703
287.56434
269.97303
256.03108
244.30717
233.94953
224.61733
216.07763
208.17097
200.8659
194.06894
187.76084
181.94379
176.52084
171.47945
166.81079
162.46553
158.37348
154.56557
151.01878
147.65437
144.52679
141.61226
138.85437
136.29921
133.92889
131.69281
129.62973
127.7197
125.91445
124.24096
122.68201
121.19523
119.81084
118.5196
117.29109
116.15435
115.08185
114.07186
113.14193
112.2541
111.42621
110.65855
109.92194
109.23015
108.57688
107.94944
107.36
106.80219
106.26815
105.76639
105.28958
104.83673
104.41409
104.01778
103.64344
103.29165
102.96269
102.65107
102.35267
102.07228
101.81385
101.57338
101.35329
101.14804
100.9553
100.77437
100.60568
100.45143
100.30931
100.18142
100.06704
99.965532
99.877257
99.803003
99.739592
99.694755
99.651707
99.646493
7526.9698
7136.3439
6755.7005
6390.4023
6040.3574
5705.4309
5385.4507
5080.2012
4789.4217
4512.8072
4250.0111
4000.6492
3764.3037
3540.5288
3328.8559
3128.8007
2939.8695
2761.5657
2593.3963
2434.8884
2285.5718
2144.9783
2012.6663
1888.2097
1771.1974
1661.2331
1557.9348
1460.9338
1369.8745
1284.4138
1204.2194
1128.9686
1058.3461
992.04058
929.74003
871.12708
815.87901
763.60524
713.93955
666.53393
620.82744
576.23379
532.25024
488.42845
444.7281
401.9795
362.22565
328.11965
301.18192
280.73753
264.9068
252.0447
240.98197
231.05218
222.04981
213.77919
206.09567
198.99219
192.37136
186.22355
180.55584
175.26027
170.33482
165.77189
161.51861
157.50535
153.7709
150.29113
146.98391
143.91254
141.0502
138.33829
135.8283
133.50037
131.30213
129.27637
127.40147
125.62758
123.98427
122.45236
120.98857
119.62534
118.35202
117.13765
116.01486
114.95423
113.95163
113.03022
112.15115
111.33008
110.56914
109.83884
109.15293
108.50473
107.88214
107.29735
106.74397
106.21406
105.71572
105.24265
104.79258
104.37255
103.97908
103.60776
103.25872
102.9324
102.62369
102.32755
102.04883
101.79173
101.55242
101.33343
101.12944
100.93792
100.75815
100.59046
100.43706
100.2958
100.16851
100.05476
99.953807
99.865928
99.79209
99.728949
99.684238
99.641266
99.636081
6742.7525
6417.0609
6096.7717
5787.3838
5489.0537
5201.8843
4925.9294
4661.1937
4407.6327
4165.1532
3933.616
3712.8387
3502.5989
3302.639
3112.6713
2932.3829
2761.4424
2599.5051
2446.219
2301.2406
2164.2189
2034.7945
1912.6247
1797.3737
1688.7134
1586.3231
1489.89
1399.1088
1313.6814
1233.3165
1157.7284
1086.6359
1019.7596
956.81884
897.5266
841.5853
788.68784
738.43352
690.48807
644.49647
599.83888
555.97575
512.44613
468.95609
425.81128
384.38055
347.11187
316.33153
292.59377
274.50744
260.15368
248.20072
237.7118
228.16756
219.47983
211.47181
204.00797
197.10595
190.66118
184.67429
179.15649
173.9877
169.17845
164.72138
160.55982
156.62557
152.96527
149.5533
146.30417
143.29032
140.48128
137.81639
135.35271
133.06804
130.90837
128.92058
127.08118
125.33882
123.72567
122.22062
120.77957
119.43723
118.18153
116.98113
115.8718
114.82314
113.82827
112.91503
112.045
111.23123
110.47694
109.7531
109.07335
108.4304
107.81285
107.23278
106.68394
106.15833
105.66355
105.19439
104.74724
104.32989
103.93932
103.57112
103.22497
102.90132
102.59559
102.30181
102.02485
101.76911
101.53104
101.31311
101.11042
100.92013
100.74156
100.57491
100.42238
100.28201
100.15533
100.04221
99.941839
99.854355
99.780947
99.718088
99.673504
99.630619
99.625468
6050.833
5778.3784
5508.2341
5245.7135
4991.104
4744.6403
4506.5078
4276.8447
4055.7422
3843.2453
3639.3538
3444.0247
3257.1744
3078.6824
2908.3947
2746.1286
2591.6777
2444.8161
2305.3039
2172.9028
2047.3588
1928.403
1815.7758
1709.218
1608.4719
1513.2823
1423.396
1338.5628
1258.5349
1183.0665
1111.9126
1044.8282
981.56537
921.86971
865.47482
812.09887
761.44031
713.09931
666.76618
622.04924
578.30247
535.04895
491.9062
448.8261
406.57405
367.07282
332.89012
305.6225
284.85702
268.78546
255.64972
244.46594
234.48198
225.29038
216.90624
209.1554
201.90833
195.20787
188.93926
183.11397
177.74638
172.7037
168.01093
163.65975
159.58968
155.73487
152.14956
148.80626
145.61634
142.66138
139.90675
137.29001
134.87378
132.63315
130.51273
128.56346
126.75982
125.04906
123.46592
121.98747
120.56885
119.24705
118.00864
116.82204
115.72559
114.68894
113.70226
112.79693
111.93611
111.13005
110.38241
109.66517
108.9918
108.35429
107.74193
107.16665
106.62245
106.10122
105.61017
105.14504
104.70095
104.28635
103.8987
103.53372
103.19057
102.86962
102.56691
102.27559
102.00044
101.74609
101.50931
101.29242
101.09102
100.90199
100.72464
100.55906
100.40739
100.26796
100.14189
100.02941
99.929636
99.842543
99.769576
99.70701
99.662554
99.619761
99.614651
5438.6618
5210.0583
4981.7024
4758.5599
4540.9734
4329.241
4123.6179
3924.3171
3731.5106
3545.3288
3365.8615
3193.1588
3027.233
2868.0603
2715.5841
2569.7183
2430.3506
2297.347
2170.5556
2049.8211
1934.9688
1825.8035
1722.1345
1623.7671
1530.5031
1442.1428
1358.4846
1279.3255
1204.4611
1133.6849
1066.7875
1003.5545
943.76476
887.1859
833.56829
782.64253
734.09271
687.54143
642.7026
599.10719
556.12798
513.37524
470.61241
428.15223
387.31448
350.45176
319.82137
296.01813
277.87812
263.47848
251.33862
240.81342
231.28098
222.41739
214.32881
206.83005
199.79743
193.29872
187.20652
181.54356
176.32597
171.40874
166.83271
162.58719
158.60832
154.83362
151.32413
148.05033
144.9209
142.02618
139.32695
136.75948
134.39172
132.19572
130.11516
128.20485
126.43701
124.75781
123.20444
121.75221
120.35567
119.054
117.83256
116.65969
115.57554
114.55096
113.57306
112.67553
111.82408
111.02607
110.28524
109.57475
108.90794
108.27611
107.66911
107.09874
106.55927
106.04252
105.55539
105.09441
104.65355
104.24179
103.85711
103.49544
103.15541
102.83722
102.53756
102.2488
101.97553
101.7226
101.48718
101.2713
101.0712
100.88345
100.70736
100.54288
100.39208
100.25363
100.12817
100.01634
99.917186
99.830485
99.757967
99.695709
99.651382
99.608689
99.603626
4895.5876
4703.275
4509.8586
4319.8846
4133.7074
3951.6464
3773.9862
3600.9767
3432.8331
3269.735
3111.8273
2959.2195
2811.9872
2670.1734
2533.79
2402.8205
2277.2227
2156.9318
2041.8634
1931.9278
1827.0129
1726.9833
1631.705
1541.0361
1454.8288
1372.9299
1295.1814
1221.4209
1151.4808
1085.1883
1022.3636
962.81835
906.35306
852.75264
801.78065
753.17935
706.59045
661.69125
618.21338
575.5677
533.21976
490.89851
448.61495
407.17
368.45024
334.91815
308.06231
287.45726
271.53786
258.49778
247.17431
237.22216
228.09953
219.54779
211.74829
204.49571
197.67625
191.37929
185.46409
179.96434
174.89578
170.10356
165.64448
161.50403
157.61616
153.92259
150.48979
147.28617
144.21875
141.38559
138.74264
136.2256
133.90722
131.75626
129.7161
127.84506
126.11288
124.46513
122.94117
121.51469
120.13987
118.85789
117.65313
116.49394
115.42157
114.4091
113.44062
112.55094
111.70897
110.91928
110.1855
109.48197
108.82182
108.19591
107.59444
107.02911
106.49447
105.98231
105.49929
105.04255
104.60509
104.1963
103.81463
103.45633
103.11953
102.80415
102.50757
102.22149
101.95017
101.69866
101.46467
101.24978
101.05098
100.86454
100.68973
100.52638
100.37646
100.23902
100.1142
100.003
99.904487
99.818181
99.746115
99.684183
99.639987
99.5974
99.59239
4412.6014
4250.449
4086.3345
3924.3658
3764.8839
3608.2045
3454.6168
3304.3824
3157.7349
3014.8789
2875.9892
2741.2108
2610.6592
2484.4206
2362.5538
2245.091
2132.0405
2023.3883
1919.1012
1819.1397
1723.4408
1631.9167
1544.4789
1461.0291
1381.4608
1305.6596
1233.5041
1164.8657
1099.6081
1037.5862
978.64481
922.61621
869.31738
818.54546
770.07272
723.64712
678.87657
635.48285
593.18077
551.31419
509.49243
467.61565
426.07856
386.26863
350.48096
320.79573
297.63978
279.81557
265.70922
253.76452
243.12347
233.67601
224.92906
216.68424
209.16638
202.15151
195.54583
189.45028
183.71337
178.37812
173.45621
168.78899
164.44705
160.41056
156.61363
153.00264
149.64736
146.51438
143.51077
140.7404
138.1544
135.68902
133.42069
131.31499
129.31573
127.48409
125.7872
124.17069
122.67572
121.27441
119.92095
118.65818
117.4698
116.32434
115.2633
114.26298
113.30464
112.42302
111.59063
110.80945
110.08306
109.38672
108.73334
108.1136
107.51782
106.95769
106.428
105.9205
105.44182
104.98939
104.5555
104.14985
103.77124
103.41636
103.08289
102.7704
102.47691
102.19363
101.92433
101.67425
101.44175
101.22786
101.03034
100.84524
100.67175
100.50954
100.3605
100.22411
100.09994
99.989386
99.891529
99.805627
99.734013
99.672427
99.628365
99.58589
99.580941
3982.0542
3845.0606
3705.588
3567.3168
3430.5621
3295.6216
3162.7742
3032.2778
2904.3685
2779.2588
2657.1366
2538.1653
2422.4825
2310.2013
2201.41
2096.1739
1994.536
1896.5189
1802.1268
1711.3579
1624.187
1540.5635
1460.435
1383.7381
1310.3998
1240.3378
1173.4606
1109.6676
1048.848
990.87932
935.62556
882.93438
832.63391
784.52844
738.39439
693.97312
650.85632
608.80747
567.48403
526.24471
484.90109
443.62606
403.3358
365.98935
333.89805
308.25614
288.46129
272.93912
260.27064
249.21231
239.16796
230.16086
221.75981
213.8344
206.58486
199.79479
193.40749
187.51205
181.95635
176.78767
172.00733
167.46591
163.24154
159.30714
155.60119
152.07483
148.79788
145.73564
142.79801
140.09145
137.56283
135.15042
132.93262
130.87214
128.91427
127.12192
125.45975
123.87425
122.40777
121.03091
119.69848
118.4545
117.28221
116.15058
115.1006
114.11243
113.16492
112.29177
111.46906
110.69653
109.97791
109.28901
108.6425
108.02915
107.43923
106.88447
106.35988
105.85714
105.38299
104.93491
104.5048
104.10246
103.727
103.37554
103.04549
102.73599
102.44558
102.16525
101.89802
101.64936
101.41844
101.20554
101.00928
100.82555
100.6534
100.49237
100.34423
100.2089
100.08542
99.975494
99.878308
99.792824
99.721656
99.660435
99.616514
99.574155
99.569273
3597.4198
3481.4829
3362.7841
3244.6046
3127.2284
3010.9284
2895.9648
2782.5828
2671.0105
2561.4573
2454.113
2349.1465
2246.706
2146.918
2049.8886
1955.7033
1864.4282
1776.1109
1690.7822
1608.4679
1529.171
1452.8691
1379.538
1309.1419
1241.6344
1176.9587
1115.0477
1055.8231
999.19437
945.05663
893.28782
843.74547
796.26322
750.64803
706.67722
664.05774
622.40785
581.53995
540.99673
500.28281
459.48612
419.19706
380.9224
346.95678
319.06404
297.28771
280.3564
266.67858
255.11367
244.78878
235.30333
226.65872
218.58239
211.00978
204.00186
197.42208
191.26414
185.56476
180.19607
175.19646
170.54823
166.13549
162.02962
158.19403
154.57909
151.14037
147.94256
144.95056
142.08165
139.43959
136.96839
134.6104
132.44335
130.42778
128.5118
126.75841
125.13016
123.57543
122.13684
120.78362
119.47195
118.24637
117.08987
115.9723
114.93329
113.95723
113.02121
112.1571
111.34419
110.58048
109.86998
109.18879
108.54928
107.94253
107.35862
106.8094
106.29008
105.79221
105.32278
104.87909
104.45294
104.05415
103.68191
103.33387
103.00732
102.70091
102.41358
102.13633
101.87124
101.62399
101.39471
101.18282
100.98779
100.80547
100.63468
100.47485
100.32762
100.19338
100.07061
99.961319
99.864814
99.779769
99.709039
99.648204
99.604429
99.562194
99.557385
3253.101
3154.8387
3053.6908
2952.576
2851.7462
2751.4473
2651.917
2553.3823
2456.0573
2360.1413
2265.8177
2173.2531
2082.5968
1993.9804
1907.5179
1823.3062
1741.4251
1661.9385
1584.8951
1510.34
1438.2967
1368.7637
1301.7381
1237.2051
1175.139
1115.5029
1058.2486
1003.3151
950.62711
900.09235
851.59752
805.00407
760.14492
716.82552
674.82551
633.77335
593.40153
553.54362
513.59811
473.4177
433.44743
394.83145
359.54971
329.73721
306.11966
287.7251
273.13097
260.9083
250.14775
240.45073
231.52045
223.15318
215.39705
208.2151
201.41259
195.03842
189.12283
183.60952
178.43683
173.60596
169.07686
164.80021
160.81345
157.0712
153.54734
150.20089
147.08281
144.15956
141.36315
138.78563
136.37136
134.06953
131.95316
129.98185
128.10832
126.39329
124.79799
123.27385
121.86242
120.53194
119.24088
118.03337
116.89236
115.78915
114.76133
113.79723
112.8733
112.01897
111.216
110.46132
109.75923
109.08603
108.45373
107.85372
107.276
106.73247
106.21859
105.72576
105.26119
104.82194
104.39995
104.00492
103.636
103.29137
102.96838
102.66518
102.3809
102.10686
101.84399
101.59815
101.37055
101.15972
100.96589
100.785
100.61559
100.45699
100.31069
100.17752
100.05552
99.946859
99.851041
99.766461
99.696156
99.635725
99.592108
99.550003
99.545273
2944.2662
2860.8794
2774.5895
2687.9928
2601.3109
2514.7628
2428.5627
2342.9168
2258.0214
2174.0612
2091.2083
2009.6211
1929.4443
1850.8078
1773.8274
1698.6043
1625.2252
1553.7635
1484.2789
1416.8295
1351.4528
1288.1622
1226.97
1167.8772
1110.8732
1055.9361
1003.0313
952.11047
903.10894
855.94202
810.50005
766.64223
724.19351
682.95238
642.69143
602.9978
563.71943
524.64193
485.22885
445.7884
407.23945
371.28565
339.97065
314.67851
294.97279
279.3328
266.59746
255.4936
245.37579
236.16776
227.65986
219.69686
212.27795
205.34312
198.81421
192.70208
186.99309
181.65102
176.68015
172.01194
167.59379
163.46497
159.59419
155.93841
152.50639
149.25865
146.21986
143.36281
140.64423
138.13032
135.77175
133.52836
131.46222
129.53407
127.70371
126.02619
124.46266
122.96902
121.5839
120.2752
119.00477
117.81507
116.68923
115.60082
114.5847
113.63237
112.72099
111.8773
111.08447
110.33911
109.64566
108.98073
108.35587
107.76272
107.19135
106.65365
106.1454
105.65778
105.19822
104.76349
104.34584
103.95477
103.58929
103.24806
102.92867
102.6288
102.34756
102.07682
101.81627
101.57185
101.34596
101.13623
100.94358
100.76413
100.59611
100.43878
100.29344
100.16134
100.04013
99.932114
99.836982
99.752898
99.683002
99.622993
99.579546
99.53758
99.532933
2666.7326
2595.8956
2522.2072
2447.9819
2373.414
2298.6972
2224.022
2149.5727
2075.526
2002.0493
1929.3004
1857.426
1786.5621
1716.8327
1648.3507
1581.2166
1515.5195
1451.3366
1388.7339
1327.7769
1268.5122
1210.963
1155.1521
1101.0908
1048.7794
998.20599
949.34521
902.15652
856.58109
812.53732
769.91426
728.5632
688.2947
648.89504
610.10125
571.54955
533.20907
494.74834
455.99012
417.79953
381.63677
349.45928
322.76272
301.82382
285.36104
271.98627
260.51786
250.12123
240.68278
231.98031
223.87356
216.27247
209.16167
202.49953
196.23503
190.36148
184.86626
179.72279
174.90614
170.37032
166.1186
162.1419
158.37044
154.79796
151.45905
148.31618
145.35383
142.5607
139.92675
137.47406
135.16931
132.98761
130.97056
129.08387
127.29776
125.65668
124.12346
122.66043
121.30066
120.01275
118.76316
117.59106
116.48009
115.40699
114.40341
113.46269
112.5642
111.73205
110.94961
110.21392
109.52931
108.8729
108.25573
107.66953
107.1047
106.57298
106.07049
105.58831
105.13385
104.70377
104.29065
103.90371
103.54179
103.20398
102.88821
102.59177
102.31358
102.04621
101.78807
101.54509
101.32092
101.11236
100.92086
100.74286
100.57625
100.4202
100.27586
100.14481
100.02445
99.91708
99.822632
99.739077
99.669574
99.61
99.566741
99.524922
99.520363
2416.8713
2356.6432
2293.6598
2229.9931
2165.8132
2101.2895
2036.5891
1971.8742
1907.3008
1843.0182
1779.168
1715.8834
1653.2892
1591.5013
1530.6261
1470.7605
1411.9921
1354.3982
1298.047
1243.0077
1189.3316
1137.0475
1086.1842
1036.7597
988.7804
942.23994
897.11771
853.37626
810.95785
769.77927
729.72394
690.63109
652.29344
614.48128
576.8426
539.26286
501.75909
463.90968
426.25814
390.23633
357.67419
330.13122
308.15265
290.93479
277.05885
265.21402
254.5873
244.97689
236.11241
227.85701
220.12797
212.87009
206.06165
199.67156
193.66499
188.02729
182.7421
177.78607
173.13837
168.76616
164.65053
160.77736
157.12024
153.66704
150.41669
147.37299
144.48379
141.75588
139.21176
136.81643
134.56418
132.44813
130.47781
128.63048
126.89039
125.28416
123.7795
122.34757
121.01209
119.74391
118.51565
117.36099
116.2646
115.20742
114.21741
113.28836
112.403
111.58315
110.81145
110.08583
109.41025
108.76264
108.15335
107.57416
107.01608
106.49048
105.99386
105.51733
105.0681
104.64285
104.23446
103.85172
103.49351
103.15917
102.84703
102.55409
102.27898
102.015
101.75936
101.51791
101.29544
101.08811
100.89776
100.7212
100.55598
100.40126
100.25796
100.12793
100.00846
99.901755
99.807985
99.724994
99.655869
99.59674
99.553688
99.512027
99.507559
2191.522
2140.2747
2086.4033
2031.7652
1976.5085
1920.7793
1864.7213
1808.475
1752.1765
1695.9567
1639.9406
1584.2475
1528.9899
1474.2736
1420.1972
1366.8516
1314.32
1262.6776
1211.9913
1162.331
1113.7495
1066.2773
1019.9459
974.77578
930.77546
887.94003
846.24884
805.66263
766.11963
727.53022
689.76867
652.66178
615.98848
579.46798
542.75527
506.06795
469.32493
432.47453
396.83704
364.25949
336.37344
313.68312
295.99688
281.71374
269.47978
258.70242
248.96849
239.99615
231.62891
223.78728
216.42072
209.49292
202.98217
196.863
191.10877
185.70189
180.62475
175.85611
171.37341
167.151
163.17378
159.42602
155.88254
152.5333
149.3799
146.40777
143.59785
140.96436
138.49787
136.15684
133.95819
131.91015
129.98287
128.17355
126.48154
124.90774
123.42977
122.02997
120.71754
119.46796
118.26197
117.12458
116.04249
115.00198
114.02658
113.10957
112.23764
111.43057
110.67006
109.95493
109.28859
108.65005
108.04875
107.47666
106.92553
106.40622
105.91551
105.44485
105.00099
104.58078
104.17734
103.79881
103.44446
103.1137
102.80516
102.51578
102.24379
101.98317
101.73013
101.49032
101.2695
101.06346
100.87428
100.69914
100.53531
100.38194
100.23975
100.1107
99.99216
99.886136
99.793037
99.710642
99.641884
99.583206
99.540384
99.498892
99.49452
1987.9715
1944.3009
1898.2149
1851.3127
1803.7304
1755.594
1707.0266
1658.1481
1609.0757
1559.9227
1510.7984
1461.8076
1413.0504
1364.6218
1316.6113
1269.1024
1222.1725
1175.892
1130.3245
1085.5381
1041.5841
998.49196
956.29224
915.00441
874.63533
835.17709
796.60429
758.87059
721.90465
685.6053
649.83555
614.41705
579.14486
543.61469
507.70324
471.97962
436.24193
401.29917
369.01257
341.13158
318.3198
300.24145
285.73463
273.2862
262.41441
252.60883
243.57055
235.13579
227.21752
219.76747
212.7522
206.14548
199.92732
194.07619
188.56973
183.38947
178.51709
173.93244
169.61492
165.5431
161.70005
158.07056
154.63865
151.39494
148.33504
145.45279
142.73204
140.16974
137.76145
135.49117
133.36323
131.37142
129.48429
127.71412
126.07067
124.52605
123.07369
121.70724
120.41626
119.18429
118.00195
116.88162
115.81361
114.7908
113.83079
112.92644
112.06852
111.27443
110.52556
109.82133
109.16442
108.53524
107.94198
107.37707
106.83312
106.32027
105.83548
105.37087
104.93256
104.5176
104.11933
103.74501
103.39466
103.06761
102.76264
102.47684
102.20804
101.95071
101.70037
101.46234
101.24309
101.03841
100.85044
100.67669
100.51423
100.36223
100.2212
100.09312
99.975544
99.87022
99.777785
99.696014
99.627617
99.569393
99.526823
99.485514
99.481241
1803.8409
1766.5765
1727.144
1686.876
1645.8954
1604.3132
1562.2351
1519.763
1476.9961
1434.0314
1390.9627
1347.8811
1304.8743
1262.0261
1219.4163
1177.1202
1135.2078
1093.7435
1052.7857
1012.3984
972.62927
933.50362
895.0482
857.278
820.19427
783.78179
748.00553
712.80679
678.09928
643.76587
609.6582
575.6063
541.46179
506.79933
471.81235
437.292
403.37951
371.80279
344.28049
321.66628
303.65182
288.99753
276.52166
265.6447
255.83237
246.78082
238.32329
230.37071
222.87294
215.79898
209.12545
202.83233
196.90182
191.31486
186.05159
181.09352
176.42223
172.01858
167.86332
163.93791
160.22731
156.71808
153.39711
150.25628
147.29116
144.49394
141.85552
139.37376
137.03989
134.83745
132.76411
130.81497
128.97818
127.26011
125.65529
124.13754
122.71204
121.37865
120.1072
118.8927
117.73553
116.63184
115.57794
114.57431
113.63001
112.73893
111.89605
111.11496
110.37813
109.68522
109.03789
108.41833
107.8331
107.27549
106.73894
106.23269
105.75383
105.29543
104.86288
104.45336
104.06049
103.6904
103.34413
103.02096
102.71951
102.43728
102.17174
101.91761
101.67004
101.43399
101.21623
101.01295
100.82624
100.65386
100.49275
100.34214
100.20232
100.0752
99.958605
99.854002
99.762226
99.6811
99.613067
99.555297
99.513003
99.471889
99.467721
1636.9735
1605.1581
1571.3973
1536.8235
1501.5299
1465.6118
1429.1591
1392.2575
1354.9904
1317.4397
1279.6854
1241.8056
1203.876
1165.9696
1128.1563
1090.5023
1053.0696
1015.9152
979.09076
942.65444
906.64812
871.0902