/*--------------------------------*- C++ -*----------------------------------*\
| =========                 |                                                 |
| \\      /  F ield         | OpenFOAM: The Open Source CFD Toolbox           |
|  \\    /   O peration     | Version:  2406                                  |
|   \\  /    A nd           | Website:  www.openfoam.com                      |
|    \\/     M anipulation  |                                                 |
\*---------------------------------------------------------------------------*/
FoamFile
{
    version     2.0;
    format      ascii;
    arch        "LSB;label=32;scalar=64";
    class       volScalarField;
    location    "0.023";
    object      p;
}
// * * * * * * * * * * * * * * * * * * * * * * * * * * * * * * * * * * * * * //

dimensions      [1 -1 -2 0 0 0 0];

internalField   nonuniform List<scalar> 
92813
(
101044.7
100985.68
100960.11
100931.35
100902.82
100878.55
100858.36
100841.92
100828.98
100819.18
100812.1
100807.16
100803.8
100801.63
100800.41
100800.39
100801.93
100805.35
100810.67
100817.84
100826.46
100836.3
100847.11
100858.77
100871.16
100884.15
100897.66
100911.61
100925.92
100940.53
100955.37
100970.38
100985.5
101000.67
101015.81
101030.83
101045.81
101060.12
101073.85
101087.07
101101.05
101115.24
101127.54
101139.03
101149.79
101159.68
101168.66
101176.7
101183.84
101190.26
101196.14
101201.54
101206.56
101211.3
101215.83
101220.2
101224.41
101228.5
101232.46
101236.31
101240.06
101243.72
101247.28
101250.76
101254.16
101257.46
101260.69
101263.83
101266.87
101269.84
101272.71
101275.5
101278.21
101280.84
101283.39
101285.88
101288.3
101290.66
101292.96
101295.2
101297.38
101299.51
101301.58
101303.59
101305.54
101307.43
101309.25
101311.02
101312.72
101314.37
101315.96
101317.51
101319.01
101320.47
101321.89
101323.27
101324.63
101325.94
101327.23
101328.47
101329.67
101330.83
101331.94
101333.02
101334.05
101335.05
101336
101336.9
101337.76
101338.58
101339.35
101340.1
101340.81
101341.49
101342.14
101342.75
101343.33
101343.86
101344.35
101344.78
101345.18
101345.53
101345.85
101346.1
101346.35
101346.48
101346.63
101180.08
101140.44
101104.55
101065.46
101030.14
101000.59
100975.97
100955.55
100938.82
100925.32
100914.57
100906.02
100899.1
100893.29
100888.41
100884.58
100882.01
100880.89
100881.67
100884.34
100888.71
100894.63
100902.05
100910.66
100920.2
100930.48
100941.39
100952.83
100964.69
100976.9
100989.4
101002.12
101014.98
101027.94
101040.93
101053.86
101066.75
101079.34
101091.4
101102.32
101114.91
101127.81
101138.74
101149.09
101158.87
101167.97
101176.32
101183.89
101190.72
101196.95
101202.67
101207.92
101212.75
101217.28
101221.58
101225.71
101229.69
101233.55
101237.29
101240.92
101244.47
101247.93
101251.31
101254.61
101257.84
101260.99
101264.06
101267.05
101269.96
101272.79
101275.54
101278.21
101280.81
101283.33
101285.78
101288.17
101290.49
101292.76
101294.98
101297.14
101299.25
101301.3
101303.3
101305.24
101307.12
101308.94
101310.71
101312.42
101314.07
101315.66
101317.21
101318.71
101320.16
101321.58
101322.96
101324.31
101325.62
101326.9
101328.15
101329.36
101330.53
101331.66
101332.75
101333.8
101334.81
101335.78
101336.71
101337.6
101338.44
101339.23
101339.99
101340.72
101341.41
101342.08
101342.72
101343.32
101343.88
101344.4
101344.88
101345.31
101345.7
101346.04
101346.35
101346.6
101346.84
101346.97
101347.13
101249.57
101219.2
101179.7
101136.55
101098.45
101066.33
101039.08
101015.96
100996.49
100980.22
100966.71
100955.49
100946.13
100938.27
100931.74
100926.42
100922.34
100919.67
100918.73
100919.54
100922.11
100926.45
100932.33
100939.47
100947.64
100956.65
100966.38
100976.72
100987.55
100998.8
101010.38
101022.23
101034.25
101046.4
101058.59
101070.76
101082.86
101094.88
101105.99
101115.9
101128.18
101140.27
101150.42
101160.08
101169.19
101177.65
101185.4
101192.43
101198.8
101204.64
101209.99
101214.87
101219.37
101223.58
101227.6
101231.45
101235.18
101238.78
101242.29
101245.7
101249.04
101252.29
101255.48
101258.6
101261.65
101264.63
101267.54
101270.39
101273.15
101275.85
101278.47
101281.01
101283.49
101285.9
101288.24
101290.53
101292.76
101294.94
101297.06
101299.14
101301.16
101303.14
101305.06
101306.93
101308.74
101310.5
101312.2
101313.86
101315.45
101316.99
101318.49
101319.94
101321.35
101322.72
101324.06
101325.37
101326.65
101327.89
101329.1
101330.28
101331.42
101332.52
101333.58
101334.6
101335.59
101336.54
101337.44
101338.3
101339.12
101339.9
101340.64
101341.35
101342.03
101342.68
101343.31
101343.89
101344.45
101344.96
101345.42
101345.84
101346.23
101346.56
101346.87
101347.11
101347.35
101347.47
101347.63
101306.41
101279.92
101240.98
101196.94
101157.22
101123.03
101093.42
101067.75
101045.64
101026.72
101010.61
100996.95
100985.39
100975.65
100967.54
100960.94
100955.81
100952.24
100950.34
100950.13
100951.59
100954.7
100959.29
100965.14
100972.09
100979.97
100988.66
100998.02
101007.96
101018.39
101029.21
101040.34
101051.7
101063.23
101074.83
101086.43
101098.02
101109.68
101119.71
101129.26
101141.53
101152.79
101162.34
101171.45
101179.99
101187.86
101195.01
101201.46
101207.31
101212.66
101217.54
101222
101226.12
101230.01
101233.73
101237.31
101240.76
101244.12
101247.38
101250.57
101253.69
101256.74
101259.73
101262.66
101265.53
101268.34
101271.09
101273.78
101276.4
101278.96
101281.45
101283.87
101286.22
101288.52
101290.76
101292.94
101295.07
101297.15
101299.19
101301.18
101303.12
101305.01
101306.86
101308.66
101310.4
101312.09
101313.73
101315.32
101316.86
101318.35
101319.8
101321.2
101322.56
101323.89
101325.18
101326.45
101327.69
101328.9
101330.07
101331.22
101332.32
101333.39
101334.43
101335.42
101336.38
101337.3
101338.19
101339.03
101339.82
101340.58
101341.3
101341.99
101342.66
101343.3
101343.91
101344.48
101345.02
101345.52
101345.98
101346.39
101346.77
101347.09
101347.39
101347.63
101347.86
101347.99
101348.14
101358.3
101333.75
101296.03
101252.25
101211.98
101176.71
101145.65
101118.28
101094.3
101073.42
101055.33
101039.74
101026.36
101014.97
101005.37
100997.47
100991.2
100986.57
100983.6
100982.29
100982.61
100984.49
100987.81
100992.41
100998.15
101004.89
101012.48
101020.82
101029.8
101039.32
101049.28
101059.61
101070.21
101081.01
101091.93
101102.86
101113.83
101124.88
101133.91
101143.32
101155.19
101165.57
101174.52
101183.05
101190.98
101198.23
101204.77
101210.64
101215.95
101220.8
101225.21
101229.23
101232.99
101236.55
101239.96
101243.26
101246.44
101249.55
101252.57
101255.52
101258.42
101261.26
101264.05
101266.79
101269.49
101272.12
101274.71
101277.25
101279.72
101282.13
101284.49
101286.78
101289.01
101291.19
101293.32
101295.39
101297.43
101299.41
101301.35
101303.26
101305.11
101306.93
101308.7
101310.42
101312.09
101313.72
101315.29
101316.82
101318.3
101319.73
101321.13
101322.48
101323.79
101325.08
101326.33
101327.55
101328.75
101329.92
101331.06
101332.17
101333.24
101334.28
101335.29
101336.26
101337.19
101338.09
101338.95
101339.76
101340.54
101341.28
101341.98
101342.65
101343.3
101343.92
101344.52
101345.08
101345.61
101346.09
101346.54
101346.94
101347.31
101347.63
101347.93
101348.16
101348.39
101348.51
101348.66
101404.54
101380.39
101343.52
101300.8
101260.95
101225.47
101193.76
101165.43
101140.25
101118.01
101098.47
101081.4
101066.58
101053.82
101042.96
101033.88
101026.53
101020.85
101016.84
101014.47
101013.69
101014.43
101016.6
101020.06
101024.68
101030.33
101036.89
101044.24
101052.28
101060.91
101070.02
101079.54
101089.37
101099.43
101109.62
101119.86
101130.17
101140.46
101148.62
101157.87
101169.15
101178.63
101186.97
101194.86
101202.15
101208.75
101214.65
101219.93
101224.71
101229.04
101232.96
101236.58
101239.97
101243.19
101246.3
101249.31
101252.23
101255.07
101257.84
101260.56
101263.24
101265.86
101268.45
101271
101273.51
101275.97
101278.39
101280.77
101283.09
101285.36
101287.58
101289.74
101291.85
101293.92
101295.93
101297.9
101299.83
101301.71
101303.56
101305.37
101307.14
101308.87
101310.57
101312.21
101313.81
101315.37
101316.88
101318.35
101319.77
101321.15
101322.49
101323.78
101325.05
101326.29
101327.49
101328.68
101329.83
101330.96
101332.07
101333.14
101334.18
101335.19
101336.17
101337.11
101338.01
101338.88
101339.72
101340.51
101341.27
101341.98
101342.67
101343.32
101343.95
101344.56
101345.14
101345.69
101346.21
101346.68
101347.12
101347.51
101347.87
101348.18
101348.47
101348.7
101348.92
101349.04
101349.19
101446.09
101420.79
101384.28
101343.18
101304.45
101269.4
101237.64
101208.9
101183.04
101159.92
101139.36
101121.21
101105.28
101091.42
101079.5
101069.42
101061.09
101054.47
101049.51
101046.17
101044.4
101044.12
101045.24
101047.66
101051.25
101055.9
101061.49
101067.9
101075.05
101082.81
101091.1
101099.83
101108.89
101118.21
101127.69
101137.25
101146.91
101156.32
101163.66
101172.8
101183.36
101191.95
101199.65
101206.88
101213.48
101219.39
101224.65
101229.33
101233.56
101237.37
101240.82
101244.03
101247.06
101249.95
101252.75
101255.47
101258.11
101260.69
101263.21
101265.69
101268.14
101270.55
101272.93
101275.28
101277.61
101279.89
101282.14
101284.36
101286.52
101288.65
101290.73
101292.76
101294.74
101296.69
101298.58
101300.44
101302.27
101304.06
101305.81
101307.53
101309.21
101310.86
101312.47
101314.04
101315.57
101317.06
101318.5
101319.9
101321.26
101322.58
101323.87
101325.12
101326.33
101327.52
101328.68
101329.82
101330.94
101332.03
101333.1
101334.13
101335.14
101336.12
101337.06
101337.97
101338.85
101339.7
101340.51
101341.28
101342.01
101342.7
101343.37
101344
101344.62
101345.21
101345.77
101346.31
101346.81
101347.28
101347.7
101348.09
101348.44
101348.74
101349.03
101349.25
101349.47
101349.59
101349.73
101483.19
101456.19
101419.97
101380.68
101343.42
101309.2
101277.81
101249.09
101222.98
101199.38
101178.19
101159.29
101142.55
101127.85
101115.08
101104.15
101094.99
101087.53
101081.72
101077.51
101074.83
101073.63
101073.81
101075.27
101077.92
101081.63
101086.3
101091.83
101098.11
101105.04
101112.53
101120.48
101128.79
101137.37
101146.13
101155.02
101164.07
101172.36
101178.97
101188.14
101197.81
101205.51
101212.54
101219.06
101224.95
101230.16
101234.75
101238.84
101242.51
101245.8
101248.78
101251.59
101254.26
101256.81
101259.3
101261.73
101264.08
101266.4
101268.67
101270.9
101273.12
101275.31
101277.49
101279.64
101281.78
101283.88
101285.96
101288.02
101290.02
101292
101293.94
101295.83
101297.69
101299.51
101301.29
101303.04
101304.76
101306.44
101308.1
101309.73
101311.32
101312.88
101314.41
101315.9
101317.36
101318.77
101320.14
101321.49
101322.79
101324.05
101325.28
101326.47
101327.64
101328.78
101329.89
101330.99
101332.06
101333.11
101334.14
101335.14
101336.12
101337.06
101337.97
101338.86
101339.71
101340.52
101341.31
101342.05
101342.76
101343.44
101344.08
101344.7
101345.29
101345.87
101346.42
101346.94
101347.43
101347.89
101348.3
101348.68
101349.02
101349.31
101349.59
101349.81
101350.02
101350.14
101350.29
101516.17
101487.55
101451.7
101414.26
101378.58
101345.43
101314.7
101286.32
101260.28
101236.54
101215.03
101195.68
101178.39
101163.09
101149.67
101138.06
101128.21
101120.03
101113.48
101108.49
101105.02
101102.98
101102.31
101102.91
101104.68
101107.52
101111.34
101116.02
101121.48
101127.61
101134.31
101141.49
101149.05
101156.9
101164.94
101173.16
101181.6
101188.42
101194.69
101203.92
101212.46
101219.29
101225.6
101231.38
101236.53
101241.02
101244.95
101248.44
101251.54
101254.31
101256.84
101259.25
101261.56
101263.77
101265.95
101268.08
101270.15
101272.2
101274.21
101276.2
101278.19
101280.15
101282.12
101284.07
101286.02
101287.94
101289.84
101291.73
101293.58
101295.41
101297.21
101298.96
101300.69
101302.39
101304.05
101305.68
101307.3
101308.87
101310.43
101311.97
101313.47
101314.94
101316.39
101317.8
101319.18
101320.52
101321.82
101323.1
101324.34
101325.54
101326.72
101327.85
101328.97
101330.06
101331.13
101332.18
101333.21
101334.22
101335.21
101336.17
101337.11
101338.02
101338.9
101339.76
101340.58
101341.37
101342.13
101342.85
101343.53
101344.19
101344.81
101345.41
101345.99
101346.54
101347.08
101347.59
101348.07
101348.51
101348.91
101349.27
101349.61
101349.9
101350.17
101350.38
101350.59
101350.7
101350.85
101545.02
101515.5
101480.36
101444.66
101410.55
101378.56
101348.66
101320.86
101295.15
101271.53
101249.97
101230.43
101212.83
101197.13
101183.25
101171.13
101160.72
101151.95
101144.76
101139.11
101134.93
101132.16
101130.72
101130.53
101131.5
101133.55
101136.56
101140.45
101145.12
101150.47
101156.41
101162.84
101169.66
101176.77
101184.09
101191.6
101199.23
101204.83
101211.06
101219.85
101227.24
101233.25
101238.81
101243.82
101248.19
101251.96
101255.23
101258.1
101260.64
101262.91
101264.99
101267.02
101268.97
101270.83
101272.7
101274.53
101276.31
101278.09
101279.84
101281.57
101283.34
101285.07
101286.82
101288.58
101290.33
101292.06
101293.79
101295.52
101297.2
101298.88
101300.53
101302.14
101303.74
101305.31
101306.85
101308.38
101309.88
101311.35
101312.81
101314.25
101315.65
101317.04
101318.4
101319.73
101321.03
101322.3
101323.54
101324.75
101325.92
101327.06
101328.18
101329.26
101330.33
101331.37
101332.39
101333.39
101334.38
101335.34
101336.29
101337.22
101338.12
101339
101339.85
101340.67
101341.47
101342.23
101342.96
101343.66
101344.32
101344.95
101345.55
101346.13
101346.69
101347.23
101347.75
101348.25
101348.71
101349.14
101349.53
101349.88
101350.21
101350.49
101350.75
101350.96
101351.17
101351.28
101351.42
101569.85
101540.18
101506.47
101472.44
101439.78
101408.98
101380.05
101352.98
101327.8
101304.52
101283.13
101263.6
101245.9
101229.99
101215.83
101203.35
101192.52
101183.27
101175.57
101169.35
101164.56
101161.14
101159.03
101158.13
101158.38
101159.68
101161.95
101165.09
101169.01
101173.61
101178.81
101184.5
101190.58
101196.96
101203.55
101210.37
101217.03
101221.61
101227.83
101235.88
101242.15
101247.36
101252.13
101256.33
101259.92
101262.97
101265.57
101267.82
101269.81
101271.59
101273.23
101274.88
101276.47
101277.98
101279.54
101281.08
101282.56
101284.07
101285.55
101287.03
101288.56
101290.07
101291.6
101293.16
101294.71
101296.25
101297.8
101299.36
101300.88
101302.4
101303.91
101305.38
101306.85
101308.29
101309.71
101311.11
101312.51
101313.87
101315.23
101316.57
101317.88
101319.18
101320.46
101321.7
101322.92
101324.12
101325.28
101326.42
101327.53
101328.61
101329.67
101330.7
101331.71
101332.7
101333.67
101334.62
101335.57
101336.49
101337.4
101338.29
101339.16
101340
101340.82
101341.61
101342.37
101343.1
101343.81
101344.48
101345.12
101345.72
101346.31
101346.86
101347.41
101347.93
101348.44
101348.91
101349.36
101349.78
101350.16
101350.51
101350.82
101351.09
101351.35
101351.55
101351.75
101351.86
101352
101591.14
101562.04
101529.96
101497.66
101466.5
101436.98
101409.13
101382.94
101358.45
101335.68
101314.63
101295.3
101277.68
101261.73
101247.43
101234.74
101223.62
101214.02
101205.9
101199.22
101193.91
101189.93
101187.22
101185.69
101185.28
101185.9
101187.47
101189.91
101193.12
101197.01
101201.48
101206.45
101211.8
101217.45
101223.34
101229.48
101234.92
101238.64
101244.95
101252.02
101257.18
101261.59
101265.52
101268.89
101271.69
101274.01
101275.95
101277.58
101279.04
101280.35
101281.56
101282.84
101284.07
101285.22
101286.47
101287.71
101288.9
101290.13
101291.34
101292.57
101293.86
101295.14
101296.45
101297.8
101299.16
101300.51
101301.88
101303.27
101304.62
101305.99
101307.35
101308.67
101310
101311.32
101312.61
101313.9
101315.18
101316.44
101317.69
101318.93
101320.14
101321.35
101322.54
101323.7
101324.84
101325.97
101327.05
101328.13
101329.17
101330.19
101331.19
101332.16
101333.11
101334.05
101334.97
101335.88
101336.78
101337.66
101338.53
101339.38
101340.21
101341.02
101341.8
101342.56
101343.29
101344
101344.67
101345.32
101345.93
101346.52
101347.08
101347.61
101348.14
101348.64
101349.13
101349.6
101350.03
101350.44
101350.81
101351.14
101351.45
101351.71
101351.96
101352.15
101352.35
101352.46
101352.6
101609.5
101581.43
101551.09
101520.57
101490.99
101462.85
101436.17
101410.98
101387.31
101365.19
101344.63
101325.66
101308.26
101292.42
101278.12
101265.34
101254.05
101244.2
101235.77
101228.72
101222.98
101218.53
101215.29
101213.2
101212.19
101212.2
101213.13
101214.9
101217.43
101220.63
101224.4
101228.66
101233.29
101238.21
101243.4
101248.87
101252.7
101256.01
101262.43
101268.22
101272.31
101275.87
101278.94
101281.45
101283.47
101285.07
101286.33
101287.37
101288.34
101289.19
101289.95
101290.88
101291.77
101292.54
101293.48
101294.43
101295.32
101296.27
101297.21
101298.18
101299.24
101300.28
101301.38
101302.52
101303.68
101304.83
101306.02
101307.24
101308.42
101309.63
101310.84
101312.02
101313.21
101314.41
101315.56
101316.74
101317.9
101319.04
101320.19
101321.34
101322.45
101323.57
101324.67
101325.74
101326.8
101327.85
101328.86
101329.86
101330.84
101331.79
101332.74
101333.65
101334.55
101335.43
101336.3
101337.16
101338.01
101338.85
101339.68
101340.49
101341.28
101342.05
101342.8
101343.53
101344.23
101344.9
101345.55
101346.17
101346.76
101347.32
101347.86
101348.38
101348.88
101349.37
101349.84
101350.29
101350.71
101351.1
101351.46
101351.78
101352.08
101352.34
101352.58
101352.77
101352.96
101353.06
101353.2
101625.56
101598.8
101570.25
101541.54
101513.59
101486.87
101461.45
101437.34
101414.59
101393.23
101373.29
101354.79
101337.74
101322.13
101307.95
101295.19
101283.84
101273.85
101265.2
101257.86
101251.78
101246.93
101243.24
101240.65
101239.11
101238.55
101238.88
101240.04
101241.92
101244.46
101247.55
101251.1
101255
101259.18
101263.62
101268.21
101270.74
101274.03
101279.91
101284.36
101287.48
101290.16
101292.33
101294
101295.24
101296.12
101296.72
101297.19
101297.7
101298.11
101298.4
101299.01
101299.55
101299.91
101300.56
101301.23
101301.82
101302.49
101303.15
101303.86
101304.69
101305.5
101306.37
101307.31
101308.27
101309.22
101310.23
101311.27
101312.28
101313.33
101314.4
101315.42
101316.48
101317.54
101318.57
101319.62
101320.67
101321.7
101322.74
101323.78
101324.8
101325.82
101326.83
101327.81
101328.79
101329.76
101330.7
101331.63
101332.54
101333.43
101334.31
101335.16
101336.01
101336.84
101337.65
101338.47
101339.27
101340.06
101340.85
101341.62
101342.37
101343.11
101343.82
101344.51
101345.18
101345.83
101346.45
101347.04
101347.61
101348.14
101348.66
101349.15
101349.64
101350.11
101350.57
101351
101351.41
101351.78
101352.13
101352.44
101352.73
101352.98
101353.21
101353.39
101353.58
101353.68
101353.82
101639.95
101614.62
101587.84
101560.91
101534.6
101509.34
101485.22
101462.26
101440.51
101420
101400.77
101382.84
101366.24
101350.96
101337
101324.37
101313.04
101303
101294.22
101286.67
101280.32
101275.14
101271.06
101268.05
101266.03
101264.95
101264.73
101265.3
101266.57
101268.46
101270.88
101273.73
101276.92
101280.35
101284.02
101287.57
101289.08
101292.32
101297.29
101300.45
101302.64
101304.4
101305.66
101306.49
101306.97
101307.14
101307.1
101307.01
101307.13
101307.08
101306.89
101307.22
101307.42
101307.34
101307.72
101308.13
101308.4
101308.8
101309.16
101309.6
101310.21
101310.78
101311.42
101312.16
101312.92
101313.67
101314.49
101315.37
101316.2
101317.09
101318.01
101318.88
101319.79
101320.72
101321.62
101322.55
101323.49
101324.4
101325.33
101326.27
101327.18
101328.11
101329.03
101329.92
101330.82
101331.71
101332.57
101333.43
101334.27
101335.1
101335.91
101336.71
101337.49
101338.27
101339.03
101339.79
101340.55
101341.3
101342.04
101342.77
101343.48
101344.18
101344.86
101345.52
101346.16
101346.77
101347.36
101347.93
101348.47
101348.98
101349.47
101349.95
101350.41
101350.86
101351.3
101351.72
101352.11
101352.48
101352.81
101353.11
101353.39
101353.63
101353.85
101354.03
101354.21
101354.31
101354.45
101653.06
101629.23
101604.17
101578.99
101554.31
101530.54
101507.75
101485.98
101465.28
101445.68
101427.23
101409.96
101393.88
101379.01
101365.36
101352.93
101341.71
101331.69
101322.85
101315.17
101308.62
101303.17
101298.77
101295.38
101292.94
101291.38
101290.64
101290.66
101291.34
101292.61
101294.37
101296.53
101298.99
101301.7
101304.6
101306.84
101307.55
101310.8
101314.56
101316.47
101317.73
101318.54
101318.89
101318.89
101318.64
101318.13
101317.42
101316.82
101316.59
101316.09
101315.47
101315.54
101315.32
101314.85
101314.97
101315.09
101315.06
101315.17
101315.22
101315.4
101315.81
101316.12
101316.54
101317.08
101317.64
101318.18
101318.82
101319.52
101320.17
101320.91
101321.67
101322.39
101323.16
101323.96
101324.72
101325.53
101326.35
101327.14
101327.96
101328.8
101329.61
101330.44
101331.27
101332.07
101332.89
101333.69
101334.47
101335.27
101336.04
101336.79
101337.55
101338.28
101339.01
101339.73
101340.44
101341.15
101341.86
101342.55
101343.25
101343.94
101344.61
101345.28
101345.92
101346.55
101347.15
101347.73
101348.3
101348.83
101349.34
101349.83
101350.3
101350.75
101351.2
101351.63
101352.05
101352.45
101352.83
101353.18
101353.5
101353.79
101354.06
101354.29
101354.51
101354.68
101354.86
101354.95
101355.08
101665.2
101642.89
101619.52
101596.07
101573.01
101550.72
101529.28
101508.73
101489.11
101470.47
101452.85
101436.27
101420.78
101406.39
101393.11
101380.94
101369.9
101359.97
101351.14
101343.39
101336.7
101331.04
101326.37
101322.65
101319.82
101317.83
101316.61
101316.1
101316.21
101316.87
101317.98
101319.45
101321.19
101323.17
101325.29
101325.74
101326.24
101329.43
101331.61
101332.37
101332.67
101332.53
101331.97
101331.18
101330.21
101328.98
101327.66
101326.68
101326.03
101325.19
101324.32
101323.82
101323.21
101322.59
101322.3
101322.03
101321.75
101321.59
101321.34
101321.29
101321.47
101321.52
101321.71
101322.08
101322.43
101322.75
101323.19
101323.74
101324.2
101324.77
101325.39
101325.95
101326.58
101327.25
101327.87
101328.55
101329.25
101329.92
101330.64
101331.37
101332.07
101332.81
101333.55
101334.25
101334.98
101335.71
101336.41
101337.13
101337.83
101338.52
101339.21
101339.87
101340.55
101341.21
101341.86
101342.52
101343.18
101343.83
101344.49
101345.14
101345.77
101346.39
101347
101347.59
101348.16
101348.71
101349.24
101349.75
101350.24
101350.7
101351.14
101351.58
101352
101352.41
101352.82
101353.2
101353.56
101353.9
101354.21
101354.49
101354.74
101354.96
101355.17
101355.34
101355.51
101355.6
101355.73
101676.54
101655.78
101634.12
101612.4
101590.96
101570.15
101550.07
101530.74
101512.22
101494.55
101477.78
101461.95
101447.08
101433.21
101420.34
101408.5
101397.69
101387.9
101379.13
101371.36
101364.58
101358.76
101353.86
101349.85
101346.68
101344.28
101342.61
101341.59
101341.14
101341.2
101341.66
101342.43
101343.43
101344.61
101345.66
101344.8
101345.35
101347.69
101348.38
101348.08
101347.4
101346.32
101344.85
101343.28
101341.58
101339.56
101338.08
101336.85
101335.55
101334.29
101333.1
101332.14
101331.2
101330.32
101329.64
101329.05
101328.49
101328.03
101327.57
101327.31
101327.16
101326.95
101326.95
101327.13
101327.28
101327.36
101327.63
101328.02
101328.28
101328.7
101329.17
101329.56
101330.05
101330.58
101331.06
101331.62
101332.21
101332.75
101333.36
101333.99
101334.58
101335.21
101335.86
101336.47
101337.12
101337.76
101338.38
101339.03
101339.65
101340.27
101340.9
101341.5
101342.11
101342.72
101343.32
101343.93
101344.54
101345.14
101345.75
101346.35
101346.94
101347.53
101348.09
101348.65
101349.19
101349.71
101350.21
101350.69
101351.14
101351.58
101352
101352.41
101352.82
101353.21
101353.59
101353.96
101354.31
101354.63
101354.93
101355.19
101355.44
101355.65
101355.85
101356.01
101356.18
101356.27
101356.4
101687.64
101668.33
101648.33
101628.3
101608.46
101589.12
101570.36
101552.24
101534.8
101518.11
101502.2
101487.12
101472.9
101459.57
101447.16
101435.68
101425.13
101415.53
101406.86
101399.12
101392.29
101386.34
101381.26
101376.99
101373.49
101370.72
101368.61
101367.09
101366.1
101365.55
101365.35
101365.41
101365.69
101366.04
101365.66
101363.92
101364.48
101365.53
101364.82
101363.51
101361.88
101359.85
101357.43
101355.1
101352.67
101350.47
101348.72
101346.81
101345.05
101343.4
101341.87
101340.51
101339.24
101338.06
101337.04
101336.12
101335.28
101334.53
101333.85
101333.32
101332.89
101332.51
101332.29
101332.21
101332.16
101332.04
101332.14
101332.34
101332.41
101332.67
101333
101333.22
101333.57
101333.97
101334.3
101334.74
101335.21
101335.63
101336.12
101336.64
101337.12
101337.66
101338.21
101338.73
101339.29
101339.85
101340.39
101340.95
101341.51
101342.06
101342.62
101343.16
101343.71
101344.26
101344.8
101345.35
101345.91
101346.46
101347.03
101347.59
101348.14
101348.68
101349.21
101349.73
101350.24
101350.72
101351.19
101351.64
101352.07
101352.48
101352.88
101353.26
101353.65
101354.02
101354.39
101354.74
101355.07
101355.38
101355.66
101355.91
101356.15
101356.35
101356.55
101356.7
101356.86
101356.95
101357.07
101698.91
101680.79
101662.4
101644.07
101625.81
101607.88
101590.41
101573.45
101557.06
101541.32
101526.25
101511.92
101498.36
101485.59
101473.65
101462.55
101452.3
101442.91
101434.38
101426.69
101419.84
101413.8
101408.55
101404.05
101400.25
101397.11
101394.57
101392.56
101391.01
101389.85
101388.98
101388.33
101387.91
101387.34
101385.01
101383.11
101383.53
101382.86
101380.89
101378.58
101376
101372.97
101369.61
101366.66
101364.07
101361.57
101359.08
101356.72
101354.55
101352.53
101350.65
101348.92
101347.31
101345.82
101344.48
101343.25
101342.12
101341.1
101340.17
101339.38
101338.7
101338.11
101337.66
101337.34
101337.07
101336.81
101336.72
101336.69
101336.59
101336.71
101336.88
101336.92
101337.14
101337.41
101337.59
101337.9
101338.25
101338.54
101338.92
101339.34
101339.71
101340.14
101340.6
101341.02
101341.49
101341.97
101342.42
101342.92
101343.4
101343.87
101344.37
101344.84
101345.33
101345.82
101346.3
101346.8
101347.31
101347.81
101348.33
101348.85
101349.35
101349.86
101350.35
101350.83
101351.3
101351.76
101352.19
101352.61
101353.01
101353.4
101353.77
101354.13
101354.49
101354.85
101355.19
101355.53
101355.84
101356.14
101356.4
101356.65
101356.87
101357.06
101357.25
101357.4
101357.55
101357.64
101357.76
101710.29
101693.99
101676.87
101660.12
101643.35
101626.76
101610.47
101594.59
101579.19
101564.34
101550.09
101536.48
101523.56
101511.35
101499.89
101489.18
101479.25
101470.09
101461.71
101454.1
101447.25
101441.14
101435.74
101431.02
101426.93
101423.43
101420.45
101417.94
101415.82
101414.02
101412.45
101411.09
101409.91
101408
101404.23
101402.51
101401.9
101399.61
101396.49
101393.17
101389.59
101385.42
101381.82
101378.65
101375.42
101372.3
101369.36
101366.62
101364.06
101361.67
101359.43
101357.35
101355.41
101353.61
101351.94
101350.41
101349
101347.71
101346.53
101345.49
101344.57
101343.76
101343.08
101342.52
101342.04
101341.62
101341.32
101341.09
101340.87
101340.81
101340.78
101340.68
101340.76
101340.89
101340.92
101341.11
101341.35
101341.5
101341.77
101342.08
101342.33
101342.66
101343.03
101343.35
101343.73
101344.13
101344.49
101344.91
101345.32
101345.72
101346.15
101346.55
101346.98
101347.41
101347.84
101348.28
101348.74
101349.19
101349.66
101350.13
101350.59
101351.06
101351.51
101351.96
101352.39
101352.81
101353.21
101353.6
101353.97
101354.33
101354.68
101355.02
101355.35
101355.69
101356.02
101356.33
101356.63
101356.91
101357.16
101357.39
101357.61
101357.79
101357.97
101358.11
101358.26
101358.34
101358.46
101721.79
101709.67
101693.7
101677.67
101661.78
101646.15
101630.83
101615.88
101601.36
101587.33
101573.83
101560.91
101548.61
101536.94
101525.95
101515.64
101506.02
101497.1
101488.89
101481.36
101474.52
101468.35
101462.81
101457.87
101453.49
101449.61
101446.19
101443.15
101440.43
101437.95
101435.65
101433.55
101431.59
101427.85
101423.34
101421.7
101419.52
101415.71
101411.42
101407.11
101402.5
101398.06
101394.24
101390.27
101386.49
101382.94
101379.6
101376.48
101373.54
101370.79
101368.21
101365.79
101363.52
101361.41
101359.44
101357.61
101355.92
101354.36
101352.93
101351.63
101350.48
101349.44
101348.54
101347.76
101347.07
101346.47
101345.98
101345.56
101345.19
101344.93
101344.72
101344.52
101344.44
101344.39
101344.3
101344.37
101344.47
101344.49
101344.65
101344.87
101344.99
101345.22
101345.5
101345.72
101346
101346.32
101346.6
101346.94
101347.27
101347.6
101347.96
101348.29
101348.66
101349.03
101349.39
101349.78
101350.19
101350.59
101351.01
101351.43
101351.85
101352.27
101352.69
101353.1
101353.49
101353.88
101354.25
101354.61
101354.95
101355.28
101355.6
101355.92
101356.23
101356.55
101356.85
101357.15
101357.43
101357.7
101357.94
101358.15
101358.35
101358.53
101358.7
101358.83
101358.98
101359.05
101359.17
101734.48
101725.56
101712.54
101696.57
101681.01
101666.06
101651.52
101637.37
101623.62
101610.34
101597.55
101585.28
101573.57
101562.43
101551.89
101541.96
101532.66
101523.98
101515.93
101508.49
101501.66
101495.41
101489.72
101484.55
101479.86
101475.59
101471.69
101468.09
101464.73
101461.52
101458.4
101455.41
101452.4
101447.4
101442.64
101440.03
101436.04
101430.95
101425.54
101420.42
101415.58
101410.79
101406.11
101401.65
101397.46
101393.51
101389.79
101386.29
101383
101379.89
101376.97
101374.22
101371.64
101369.21
101366.95
101364.83
101362.86
101361.04
101359.35
101357.82
101356.42
101355.16
101354.04
101353.05
101352.16
101351.36
101350.67
101350.07
101349.54
101349.11
101348.73
101348.39
101348.15
101347.94
101347.75
101347.68
101347.62
101347.53
101347.59
101347.68
101347.69
101347.82
101348.01
101348.12
101348.31
101348.55
101348.74
101348.99
101349.25
101349.51
101349.8
101350.06
101350.36
101350.68
101350.98
101351.31
101351.66
101352.01
101352.38
101352.76
101353.14
101353.51
101353.89
101354.26
101354.62
101354.97
101355.31
101355.64
101355.95
101356.25
101356.54
101356.83
101357.13
101357.42
101357.71
101357.99
101358.25
101358.5
101358.72
101358.93
101359.12
101359.28
101359.44
101359.57
101359.71
101359.78
101359.9
101748.86
101741.98
101729.41
101714.48
101700.03
101686.01
101672.32
101658.96
101645.98
101633.41
101621.28
101609.63
101598.48
101587.85
101577.74
101568.19
101559.18
101550.73
101542.83
101535.46
101528.63