/*--------------------------------*- C++ -*----------------------------------*\
| =========                 |                                                 |
| \\      /  F ield         | OpenFOAM: The Open Source CFD Toolbox           |
|  \\    /   O peration     | Version:  2406                                  |
|   \\  /    A nd           | Website:  www.openfoam.com                      |
|    \\/     M anipulation  |                                                 |
\*---------------------------------------------------------------------------*/
FoamFile
{
    version     2.0;
    format      ascii;
    arch        "LSB;label=32;scalar=64";
    class       volScalarField;
    location    "0.023";
    object      pMean;
}
// * * * * * * * * * * * * * * * * * * * * * * * * * * * * * * * * * * * * * //

dimensions      [1 -1 -2 0 0 0 0];

internalField   nonuniform List<scalar> 
92813
(
100982.07
100920.75
100894.26
100864.5
100834.96
100809.82
100788.97
100772.02
100758.69
100748.61
100741.33
100736.27
100732.86
100730.74
100729.72
100730.05
100732.05
100736.02
100741.96
100749.78
100759.11
100769.69
100781.29
100793.78
100807.01
100820.88
100835.28
100850.12
100865.34
100880.84
100896.57
100912.45
100928.39
100944.33
100960.23
100976
100991.63
101006.75
101021.19
101035.01
101049.14
101063.52
101076.26
101087.97
101098.91
101108.95
101118.08
101126.29
101133.62
101140.23
101146.31
101151.96
101157.25
101162.26
101167.07
101171.73
101176.25
101180.63
101184.89
101189.03
101193.04
101196.95
101200.75
101204.45
101208.05
101211.56
101214.97
101218.3
101221.54
101224.69
101227.77
101230.77
101233.69
101236.55
101239.32
101242.03
101244.67
101247.24
101249.75
101252.19
101254.57
101256.89
101259.15
101261.35
101263.49
101265.58
101267.6
101269.58
101271.5
101273.36
101275.18
101276.94
101278.65
101280.31
101281.93
101283.49
101285.01
101286.48
101287.9
101289.28
101290.61
101291.9
101293.15
101294.35
101295.51
101296.62
101297.7
101298.73
101299.72
101300.66
101301.57
101302.43
101303.26
101304.04
101304.77
101305.47
101306.11
101306.72
101307.28
101307.78
101308.25
101308.65
101309.02
101309.3
101309.57
101309.72
101309.88
101121.88
101081.1
101044.29
101004.13
100967.74
100937.25
100911.85
100890.78
100873.52
100859.59
100848.47
100839.63
100832.5
100826.56
100821.67
100817.93
100815.57
100814.8
100815.98
100819.11
100824.02
100830.54
100838.57
100847.83
100858.05
100869.05
100880.71
100892.89
100905.52
100918.5
100931.76
100945.23
100958.8
100972.42
100986.08
100999.68
101013.17
101026.41
101039.17
101050.77
101063.37
101076.45
101087.82
101098.38
101108.34
101117.59
101126.09
101133.82
101140.82
101147.21
101153.12
101158.6
101163.68
101168.47
101173.05
101177.46
101181.73
101185.88
101189.9
101193.81
101197.62
101201.33
101204.94
101208.45
101211.88
101215.22
101218.48
101221.65
101224.75
101227.77
101230.71
101233.59
101236.39
101239.13
101241.8
101244.4
101246.95
101249.42
101251.84
101254.2
101256.5
101258.74
101260.92
101263.05
101265.12
101267.14
101269.11
101271.02
101272.89
101274.7
101276.46
101278.18
101279.84
101281.46
101283.03
101284.55
101286.03
101287.47
101288.85
101290.2
101291.5
101292.76
101293.98
101295.15
101296.28
101297.37
101298.42
101299.43
101300.4
101301.33
101302.22
101303.06
101303.87
101304.63
101305.35
101306.03
101306.67
101307.26
101307.81
101308.31
101308.77
101309.16
101309.52
101309.8
101310.07
101310.21
101310.37
101193.89
101162.63
101122.12
101077.79
101038.55
101005.44
100977.34
100953.48
100933.38
100916.59
100902.64
100891.08
100881.46
100873.42
100866.8
100861.49
100857.54
100855.13
100854.51
100855.74
100858.8
100863.66
100870.1
100877.83
100886.63
100896.31
100906.74
100917.78
100929.34
100941.31
100953.62
100966.17
100978.86
100991.63
101004.46
101017.24
101029.91
101042.47
101054.37
101064.96
101077.07
101089.38
101099.94
101109.79
101119.05
101127.65
101135.54
101142.71
101149.22
101155.2
101160.73
101165.83
101170.56
101175.02
101179.3
101183.43
101187.43
101191.32
101195.1
101198.78
101202.37
101205.86
101209.27
101212.6
101215.84
101219.01
101222.1
101225.12
101228.07
101230.95
101233.76
101236.5
101239.18
101241.8
101244.36
101246.86
101249.29
101251.67
101254
101256.27
101258.48
101260.64
101262.75
101264.8
101266.81
101268.76
101270.66
101272.51
101274.32
101276.08
101277.79
101279.45
101281.06
101282.64
101284.16
101285.65
101287.08
101288.48
101289.83
101291.14
101292.41
101293.64
101294.82
101295.97
101297.07
101298.14
101299.17
101300.15
101301.1
101302.01
101302.87
101303.7
101304.49
101305.24
101305.95
101306.62
101307.24
101307.82
101308.36
101308.85
101309.3
101309.68
101310.04
101310.32
101310.57
101310.72
101310.88
101253.49
101226.05
101186.01
101140.7
101099.77
101064.5
101033.93
101007.43
100984.6
100965.08
100948.48
100934.41
100922.54
100912.57
100904.33
100897.7
100892.66
100889.27
100887.63
100887.77
100889.66
100893.23
100898.32
100904.72
100912.26
100920.76
100930.09
100940.12
100950.74
100961.85
100973.36
100985.16
100997.15
101009.26
101021.46
101033.64
101045.75
101057.85
101068.87
101078.91
101090.84
101102.42
101112.32
101121.58
101130.25
101138.23
101145.5
101152.08
101158.04
101163.53
101168.58
101173.24
101177.59
101181.71
101185.67
101189.51
101193.23
101196.86
101200.39
101203.84
101207.2
101210.48
101213.69
101216.82
101219.88
101222.87
101225.8
101228.65
101231.45
101234.18
101236.86
101239.47
101242.02
101244.52
101246.97
101249.35
101251.69
101253.97
101256.2
101258.38
101260.5
101262.58
101264.61
101266.59
101268.52
101270.4
101272.24
101274.03
101275.78
101277.48
101279.13
101280.74
101282.31
101283.84
101285.32
101286.76
101288.16
101289.51
101290.83
101292.1
101293.34
101294.53
101295.69
101296.8
101297.88
101298.92
101299.92
101300.89
101301.81
101302.7
101303.55
101304.36
101305.13
101305.86
101306.55
101307.21
101307.82
101308.39
101308.92
101309.4
101309.83
101310.22
101310.56
101310.84
101311.09
101311.23
101311.39
101308.11
101282.57
101243.67
101198.55
101157.01
101120.58
101088.5
101060.22
101035.46
101013.9
100995.25
100979.2
100965.46
100953.79
100944.02
100936.04
100929.79
100925.28
100922.51
100921.49
100922.16
100924.44
100928.21
100933.31
100939.58
100946.88
100955.08
100964.03
100973.64
100983.8
100994.41
101005.36
101016.53
101027.88
101039.35
101050.83
101062.27
101073.76
101083.78
101093.41
101105.01
101115.74
101124.96
101133.61
101141.64
101148.99
101155.62
101161.59
101167.01
101171.98
101176.55
101180.77
101184.73
101188.5
101192.15
101195.69
101199.14
101202.5
101205.78
101208.99
101212.12
101215.19
101218.18
101221.12
101223.99
101226.8
101229.56
101232.26
101234.9
101237.48
101240.01
101242.49
101244.92
101247.3
101249.62
101251.9
101254.13
101256.31
101258.44
101260.53
101262.57
101264.56
101266.51
101268.41
101270.27
101272.08
101273.85
101275.58
101277.27
101278.91
101280.51
101282.07
101283.58
101285.06
101286.5
101287.89
101289.25
101290.56
101291.84
101293.08
101294.28
101295.44
101296.57
101297.66
101298.71
101299.72
101300.7
101301.64
101302.54
101303.4
101304.23
101305.02
101305.78
101306.49
101307.17
101307.81
101308.41
101308.97
101309.48
101309.95
101310.38
101310.76
101311.1
101311.37
101311.62
101311.75
101311.91
101356.76
101331.65
101293.58
101249.47
101208.29
101171.6
101138.82
101109.53
101083.51
101060.54
101040.39
101022.81
101007.58
100994.51
100983.43
100974.23
100966.84
100961.22
100957.36
100955.21
100954.72
100955.81
100958.38
100962.28
100967.38
100973.55
100980.66
100988.58
100997.2
101006.42
101016.14
101026.23
101036.57
101047.14
101057.85
101068.58
101079.33
101090.09
101099.13
101108.43
101119.51
101129.34
101137.87
101145.85
101153.21
101159.88
101165.86
101171.23
101176.09
101180.54
101184.62
101188.4
101191.98
101195.41
101198.74
101201.99
101205.15
101208.24
101211.26
101214.22
101217.13
101219.97
101222.76
101225.5
101228.18
101230.81
101233.39
101235.92
101238.4
101240.84
101243.23
101245.57
101247.87
101250.12
101252.33
101254.49
101256.62
101258.69
101260.73
101262.72
101264.67
101266.58
101268.44
101270.27
101272.05
101273.79
101275.5
101277.16
101278.78
101280.36
101281.91
101283.41
101284.88
101286.31
101287.7
101289.05
101290.36
101291.64
101292.88
101294.08
101295.24
101296.37
101297.47
101298.52
101299.55
101300.53
101301.48
101302.4
101303.28
101304.12
101304.93
101305.7
101306.44
101307.14
101307.8
101308.42
101309.01
101309.56
101310.06
101310.52
101310.94
101311.31
101311.64
101311.91
101312.15
101312.29
101312.44
101400.3
101374.18
101336.54
101294.02
101253.93
101217.64
101184.77
101155.04
101128.3
101104.42
101083.22
101064.51
101048.14
101033.93
101021.76
101011.51
101003.1
100996.49
100991.63
100988.46
100986.92
100986.93
100988.4
100991.21
100995.24
101000.35
101006.44
101013.38
101021.06
101029.37
101038.21
101047.46
101056.99
101066.78
101076.73
101086.71
101096.78
101106.7
101114.82
101123.84
101134.27
101143.18
101151
101158.28
101164.94
101170.91
101176.23
101180.98
101185.28
101189.2
101192.79
101196.15
101199.35
101202.44
101205.44
101208.38
101211.26
101214.08
101216.84
101219.55
101222.22
101224.84
101227.42
101229.95
101232.44
101234.89
101237.29
101239.66
101241.98
101244.26
101246.51
101248.71
101250.87
101253
101255.09
101257.14
101259.15
101261.12
101263.05
101264.95
101266.81
101268.63
101270.41
101272.16
101273.87
101275.54
101277.17
101278.77
101280.33
101281.85
101283.34
101284.79
101286.2
101287.58
101288.92
101290.22
101291.5
101292.73
101293.93
101295.1
101296.23
101297.32
101298.38
101299.41
101300.4
101301.36
101302.28
101303.18
101304.03
101304.85
101305.64
101306.39
101307.11
101307.8
101308.44
101309.05
101309.62
101310.16
101310.65
101311.1
101311.51
101311.87
101312.2
101312.46
101312.7
101312.83
101312.98
101439.13
101411.46
101374.17
101333.49
101294.86
101259.41
101226.9
101197.17
101170.16
101145.78
101123.92
101104.44
101087.23
101072.14
101059.09
101047.96
101038.68
101031.18
101025.42
101021.33
101018.85
101017.89
101018.37
101020.17
101023.2
101027.33
101032.46
101038.46
101045.23
101052.66
101060.65
101069.06
101077.79
101086.8
101095.98
101105.23
101114.61
101123.54
101130.81
101139.63
101149.27
101157.25
101164.34
101170.89
101176.81
101182.06
101186.7
101190.84
101194.57
101197.96
101201.07
101204.01
101206.83
101209.57
101212.25
101214.88
101217.47
101220.01
101222.51
101224.97
101227.4
101229.8
101232.16
101234.48
101236.78
101239.03
101241.26
101243.46
101245.62
101247.74
101249.84
101251.9
101253.93
101255.93
101257.9
101259.83
101261.73
101263.59
101265.43
101267.22
101268.99
101270.72
101272.42
101274.08
101275.72
101277.31
101278.88
101280.41
101281.9
101283.36
101284.79
101286.18
101287.55
101288.87
101290.17
101291.43
101292.65
101293.84
101295
101296.13
101297.23
101298.29
101299.31
101300.31
101301.27
101302.2
101303.1
101303.97
101304.8
101305.6
101306.37
101307.1
101307.8
101308.46
101309.09
101309.69
101310.25
101310.77
101311.25
101311.69
101312.09
101312.44
101312.77
101313.02
101313.25
101313.39
101313.54
101473.66
101444.51
101407.67
101368.86
101331.84
101297.46
101265.61
101236.24
101209.3
101184.77
101162.58
101142.64
101124.86
101109.15
101095.41
101083.57
101073.56
101065.31
101058.77
101053.86
101050.53
101048.69
101048.27
101049.16
101051.27
101054.49
101058.71
101063.82
101069.72
101076.3
101083.45
101091.04
101098.97
101107.2
101115.6
101124.12
101132.82
101140.51
101147.13
101155.82
101164.48
101171.51
101177.85
101183.64
101188.8
101193.32
101197.28
101200.79
101203.95
101206.81
101209.45
101211.98
101214.42
101216.81
101219.17
101221.49
101223.78
101226.04
101228.27
101230.48
101232.67
101234.83
101236.97
101239.09
101241.19
101243.25
101245.3
101247.32
101249.32
101251.29
101253.24
101255.15
101257.05
101258.92
101260.76
101262.57
101264.36
101266.11
101267.84
101269.54
101271.21
101272.85
101274.47
101276.05
101277.6
101279.12
101280.61
101282.07
101283.5
101284.9
101286.27
101287.61
101288.92
101290.19
101291.44
101292.65
101293.83
101294.98
101296.1
101297.19
101298.24
101299.27
101300.27
101301.23
101302.16
101303.06
101303.93
101304.77
101305.58
101306.36
101307.1
101307.82
101308.5
101309.15
101309.76
101310.34
101310.88
101311.39
101311.86
101312.29
101312.68
101313.03
101313.34
101313.59
101313.82
101313.95
101314.1
101503.95
101473.95
101437.93
101400.92
101365.49
101332.3
101301.32
101272.53
101245.94
101221.54
101199.29
101179.15
101161.04
101144.92
101130.7
101118.32
101107.72
101098.84
101091.63
101086.02
101081.94
101079.32
101078.09
101078.15
101079.41
101081.78
101085.15
101089.42
101094.49
101100.25
101106.58
101113.36
101120.5
101127.95
101135.56
101143.34
101151.26
101157.71
101163.93
101172.26
101179.83
101185.96
101191.51
101196.5
101200.88
101204.65
101207.93
101210.83
101213.41
101215.75
101217.93
101220.05
101222.12
101224.15
101226.18
101228.19
101230.18
101232.16
101234.12
101236.07
101238.02
101239.95
101241.87
101243.78
101245.67
101247.55
101249.41
101251.26
101253.08
101254.89
101256.69
101258.46
101260.22
101261.95
101263.67
101265.36
101267.03
101268.68
101270.3
101271.9
101273.47
101275.02
101276.55
101278.05
101279.52
101280.97
101282.38
101283.78
101285.14
101286.47
101287.78
101289.06
101290.31
101291.54
101292.73
101293.89
101295.03
101296.14
101297.21
101298.26
101299.28
101300.27
101301.23
101302.17
101303.07
101303.94
101304.78
101305.6
101306.38
101307.13
101307.86
101308.55
101309.21
101309.84
101310.44
101311
101311.53
101312.02
101312.48
101312.9
101313.29
101313.62
101313.93
101314.17
101314.4
101314.52
101314.67
101530.19
101500.05
101465.44
101430.18
101396.28
101364.34
101334.36
101306.34
101280.3
101256.24
101234.17
101214.04
101195.83
101179.48
101164.96
101152.2
101141.15
101131.77
101124
101117.79
101113.06
101109.75
101107.8
101107.11
101107.61
101109.19
101111.77
101115.24
101119.51
101124.48
101130.01
101135.99
101142.35
101149.01
101155.83
101162.86
101169.88
101175.19
101181.14
101188.85
101195.29
101200.54
101205.28
101209.45
101213.02
101216.05
101218.66
101220.93
101222.94
101224.77
101226.5
101228.22
101229.91
101231.6
101233.29
101234.98
101236.68
101238.37
101240.06
101241.75
101243.45
101245.15
101246.84
101248.54
101250.23
101251.91
101253.58
101255.25
101256.91
101258.56
101260.2
101261.83
101263.44
101265.05
101266.63
101268.2
101269.75
101271.29
101272.8
101274.3
101275.78
101277.23
101278.67
101280.08
101281.47
101282.84
101284.19
101285.51
101286.8
101288.07
101289.32
101290.54
101291.74
101292.91
101294.05
101295.16
101296.25
101297.32
101298.35
101299.36
101300.34
101301.29
101302.22
101303.12
101303.99
101304.83
101305.65
101306.43
101307.19
101307.92
101308.62
101309.3
101309.94
101310.55
101311.13
101311.68
101312.19
101312.67
101313.12
101313.53
101313.9
101314.23
101314.53
101314.76
101314.98
101315.11
101315.25
101552.85
101523.24
101490.26
101456.8
101424.48
101393.88
101365.03
101337.92
101312.6
101289.07
101267.35
101247.43
101229.29
101212.89
101198.22
101185.22
101173.86
101164.1
101155.89
101149.17
101143.89
101139.99
101137.4
101136.04
101135.83
101136.7
101138.54
101141.26
101144.77
101148.96
101153.72
101158.91
101164.5
101170.36
101176.4
101182.68
101188.63
101192.93
101198.68
101205.55
101210.86
101215.23
101219.11
101222.44
101225.2
101227.49
101229.42
101231.07
101232.53
101233.87
101235.16
101236.49
101237.81
101239.13
101240.49
101241.87
101243.26
101244.67
101246.08
101247.51
101248.97
101250.42
101251.89
101253.37
101254.85
101256.33
101257.82
101259.32
101260.8
101262.29
101263.78
101265.25
101266.72
101268.19
101269.64
101271.09
101272.52
101273.94
101275.35
101276.74
101278.12
101279.48
101280.83
101282.16
101283.46
101284.75
101286.02
101287.27
101288.5
101289.7
101290.89
101292.05
101293.19
101294.3
101295.39
101296.46
101297.5
101298.52
101299.51
101300.48
101301.42
101302.33
101303.22
101304.09
101304.93
101305.74
101306.53
101307.29
101308.02
101308.73
101309.4
101310.05
101310.68
101311.27
101311.83
101312.36
101312.86
101313.33
101313.76
101314.16
101314.53
101314.85
101315.14
101315.37
101315.58
101315.7
101315.85
101572.52
101543.9
101512.69
101481.08
101450.41
101421.24
101393.61
101367.54
101343.07
101320.21
101299
101279.43
101261.51
101245.22
101230.53
101217.43
101205.88
101195.85
101187.3
101180.18
101174.44
101170.03
101166.88
101164.92
101164.07
101164.27
101165.42
101167.43
101170.22
101173.67
101177.66
101182.09
101186.9
101191.96
101197.24
101202.76
101207.38
101210.91
101216.52
101222.3
101226.49
101229.98
101232.98
101235.44
101237.4
101238.96
101240.21
101241.25
101242.18
101243.05
101243.91
101244.84
101245.79
101246.76
101247.78
101248.84
101249.93
101251.05
101252.18
101253.35
101254.56
101255.77
101257.01
101258.28
101259.55
101260.83
101262.13
101263.45
101264.75
101266.08
101267.41
101268.73
101270.05
101271.38
101272.7
101274.02
101275.34
101276.64
101277.94
101279.23
101280.51
101281.77
101283.03
101284.26
101285.49
101286.7
101287.89
101289.07
101290.22
101291.36
101292.48
101293.58
101294.66
101295.72
101296.76
101297.77
101298.77
101299.74
101300.69
101301.61
101302.51
101303.39
101304.25
101305.08
101305.89
101306.67
101307.43
101308.16
101308.86
101309.55
101310.2
101310.83
101311.43
101312
101312.55
101313.06
101313.55
101314
101314.42
101314.81
101315.16
101315.47
101315.76
101315.98
101316.19
101316.31
101316.45
101589.81
101562.51
101533.12
101503.38
101474.4
101446.71
101420.39
101395.44
101371.92
101349.85
101329.26
101310.18
101292.61
101276.54
101261.96
101248.87
101237.24
101227.05
101218.26
101210.83
101204.71
101199.86
101196.22
101193.73
101192.32
101191.9
101192.41
101193.75
101195.84
101198.58
101201.82
101205.49
101209.52
101213.77
101218.27
101222.95
101226.17
101229.28
101234.52
101239.02
101242.15
101244.73
101246.82
101248.42
101249.59
101250.42
101251.01
101251.46
101251.89
101252.29
101252.72
101253.28
101253.85
101254.46
101255.15
101255.9
101256.69
101257.52
101258.37
101259.26
101260.23
101261.2
101262.2
101263.25
101264.32
101265.4
101266.5
101267.64
101268.77
101269.92
101271.09
101272.26
101273.44
101274.63
101275.82
101277.01
101278.2
101279.39
101280.58
101281.76
101282.93
101284.1
101285.26
101286.41
101287.55
101288.68
101289.79
101290.9
101291.98
101293.05
101294.11
101295.14
101296.16
101297.17
101298.15
101299.11
101300.06
101300.98
101301.89
101302.77
101303.63
101304.47
101305.29
101306.09
101306.86
101307.61
101308.34
101309.04
101309.72
101310.38
101311.01
101311.62
101312.2
101312.75
101313.28
101313.78
101314.25
101314.68
101315.09
101315.47
101315.81
101316.11
101316.39
101316.61
101316.81
101316.93
101317.07
101605.35
101579.52
101551.96
101524.06
101496.77
101470.61
101445.63
101421.87
101399.37
101378.17
101358.31
101339.81
101322.69
101306.95
101292.59
101279.61
101268
101257.73
101248.78
101241.12
101234.71
101229.5
101225.44
101222.48
101220.54
101219.57
101219.48
101220.18
101221.61
101223.64
101226.15
101229.07
101232.31
101235.75
101239.46
101243.12
101245.11
101247.97
101252.47
101255.67
101257.79
101259.44
101260.61
101261.35
101261.74
101261.85
101261.8
101261.69
101261.64
101261.6
101261.6
101261.79
101262
101262.24
101262.59
101263.03
101263.52
101264.07
101264.62
101265.24
101265.97
101266.7
101267.46
101268.3
101269.16
101270.03
101270.94
101271.89
101272.84
101273.83
101274.84
101275.85
101276.88
101277.94
101278.98
101280.05
101281.12
101282.18
101283.26
101284.33
101285.4
101286.47
101287.54
101288.6
101289.65
101290.69
101291.73
101292.76
101293.77
101294.77
101295.76
101296.73
101297.7
101298.64
101299.57
101300.48
101301.38
101302.25
101303.11
101303.95
101304.77
101305.57
101306.35
101307.11
101307.85
101308.57
101309.27
101309.95
101310.6
101311.23
101311.84
101312.42
101312.98
101313.51
101314.02
101314.5
101314.96
101315.38
101315.78
101316.14
101316.47
101316.77
101317.03
101317.24
101317.45
101317.56
101317.7
101619.54
101595.31
101569.54
101543.45
101517.84
101493.2
101469.6
101447.06
101425.64
101405.38
101386.31
101368.47
101351.88
101336.55
101322.49
101309.71
101298.19
101287.93
101278.91
101271.09
101264.45
101258.95
101254.53
101251.15
101248.75
101247.25
101246.6
101246.7
101247.48
101248.82
101250.61
101252.79
101255.22
101257.87
101260.77
101263.19
101264.16
101266.86
101270.3
101272.22
101273.35
101274.05
101274.3
101274.2
101273.84
101273.25
101272.56
101271.91
101271.43
101270.97
101270.56
101270.39
101270.21
101270.09
101270.12
101270.25
101270.44
101270.68
101270.94
101271.29
101271.78
101272.26
101272.79
101273.41
101274.06
101274.72
101275.44
101276.2
101276.98
101277.79
101278.64
101279.5
101280.38
101281.29
101282.2
101283.13
101284.08
101285.02
101285.98
101286.95
101287.91
101288.88
101289.85
101290.82
101291.78
101292.75
101293.7
101294.65
101295.59
101296.52
101297.44
101298.35
101299.25
101300.14
101301.01
101301.87
101302.72
101303.54
101304.36
101305.15
101305.93
101306.69
101307.43
101308.16
101308.87
101309.55
101310.22
101310.86
101311.49
101312.09
101312.68
101313.24
101313.77
101314.29
101314.78
101315.24
101315.68
101316.09
101316.47
101316.82
101317.15
101317.43
101317.69
101317.89
101318.09
101318.2
101318.33
101632.72
101610.15
101586.15
101561.83
101537.89
101514.77
101492.55
101471.26
101450.95
101431.66
101413.43
101396.3
101380.31
101365.45
101351.76
101339.24
101327.89
101317.71
101308.67
101300.76
101293.96
101288.21
101283.49
101279.74
101276.91
101274.93
101273.74
101273.26
101273.42
101274.09
101275.17
101276.59
101278.21
101280.08
101282.15
101282.96
101283.35
101285.85
101287.92
101288.62
101288.77
101288.5
101287.85
101286.94
101285.84
101284.56
101283.27
101282.13
101281.26
101280.44
101279.64
101279.01
101278.47
101278.03
101277.72
101277.51
101277.4
101277.35
101277.32
101277.41
101277.66
101277.89
101278.18
101278.59
101279.03
101279.47
101279.99
101280.58
101281.17
101281.81
101282.5
101283.19
101283.93
101284.69
101285.46
101286.26
101287.08
101287.91
101288.75
101289.61
101290.46
101291.33
101292.21
101293.08
101293.96
101294.83
101295.7
101296.58
101297.44
101298.3
101299.16
101300
101300.84
101301.67
101302.48
101303.29
101304.08
101304.86
101305.62
101306.38
101307.11
101307.83
101308.54
101309.22
101309.9
101310.55
101311.18
101311.8
101312.4
101312.98
101313.53
101314.07
101314.59
101315.08
101315.55
101316
101316.42
101316.81
101317.18
101317.52
101317.83
101318.11
101318.36
101318.56
101318.75
101318.85
101318.99
101645.17
101624.31
101602.08
101579.5
101557.2
101535.58
101514.74
101494.69
101475.5
101457.2
101439.84
101423.46
101408.1
101393.77
101380.5
101368.29
101357.16
101347.1
101338.11
101330.17
101323.24
101317.3
101312.31
101308.24
101305.01
101302.58
101300.88
101299.84
101299.38
101299.38
101299.75
101300.4
101301.21
101302.25
101303.28
101302.68
101302.81
101304.61
101305.24
101304.81
101303.98
101302.75
101301.22
101299.53
101297.69
101295.67
101294
101292.57
101291.2
101289.9
101288.7
101287.69
101286.79
101286.01
101285.36
101284.84
101284.41
101284.07
101283.79
101283.64
101283.6
101283.56
101283.64
101283.84
101284.06
101284.28
101284.61
101285.02
101285.42
101285.89
101286.42
101286.95
101287.53
101288.15
101288.78
101289.44
101290.14
101290.84
101291.56
101292.31
101293.06
101293.82
101294.6
101295.38
101296.16
101296.95
101297.74
101298.54
101299.33
101300.11
101300.9
101301.68
101302.45
101303.22
101303.98
101304.73
101305.47
101306.2
101306.92
101307.62
101308.31
101308.99
101309.66
101310.31
101310.94
101311.56
101312.17
101312.75
101313.32
101313.87
101314.4
101314.92
101315.41
101315.88
101316.33
101316.76
101317.17
101317.55
101317.9
101318.23
101318.53
101318.79
101319.04
101319.23
101319.41
101319.52
101319.65
101657.39
101638.13
101617.63
101596.75
101576.04
101555.9
101536.4
101517.58
101499.49
101482.18
101465.7
101450.08
101435.37
101421.6
101408.78
101396.93
101386.06
101376.17
101367.26
101359.32
101352.32
101346.22
101341.01
101336.63
101333.04
101330.18
101327.98
101326.38
101325.3
101324.63
101324.28
101324.17
101324.15
101324.33
101324.04
101322.35
101322.31
101322.98
101322.21
101320.73
101318.91
101316.77
101314.34
101311.86
101309.27
101306.92
101304.94
101302.94
101301.08
101299.36
101297.79
101296.4
101295.15
101294.03
101293.05
101292.21
101291.48
101290.85
101290.31
101289.89
101289.58
101289.32
101289.18
101289.13
101289.13
101289.15
101289.29
101289.51
101289.72
101290.02
101290.39
101290.75
101291.18
101291.66
101292.14
101292.67
101293.24
101293.82
101294.42
101295.05
101295.69
101296.35
101297.03
101297.71
101298.41
101299.11
101299.82
101300.53
101301.24
101301.96
101302.67
101303.38
101304.09
101304.8
101305.5
101306.19
101306.88
101307.56
101308.23
101308.89
101309.54
101310.17
101310.8
101311.41
101312.01
101312.6
101313.17
101313.72
101314.26
101314.79
101315.29
101315.78
101316.25
101316.7
101317.13
101317.54
101317.93
101318.3
101318.64
101318.95
101319.24
101319.5
101319.73
101319.92
101320.1
101320.2
101320.32
101669.69
101651.83
101633.01
101613.82
101594.68
101575.97
101557.77
101540.14
101523.12
101506.77
101491.15
101476.3
101462.26
101449.05
101436.7
101425.22
101414.64
101404.96
101396.16
101388.25
101381.2
101374.98
101369.56
101364.9
101360.96
101357.68
101354.99
101352.83
101351.13
101349.78
101348.7
101347.79
101346.97
101346.24
101344.25
101341.97
101341.69
101340.87
101338.78
101336.29
101333.54
101330.43
101327.11
101323.91
101321.01
101318.35
101315.73
101313.24
101310.95
101308.84
101306.9
101305.14
101303.54
101302.09
101300.79
101299.63
101298.6
101297.69
101296.89
101296.2
101295.63
101295.14
101294.76
101294.47
101294.25
101294.09
101294.03
101294.04
101294.07
101294.2
101294.41
101294.6
101294.87
101295.21
101295.55
101295.95
101296.39
101296.84
101297.32
101297.84
101298.37
101298.93
101299.5
101300.09
101300.69
101301.3
101301.92
101302.56
101303.19
101303.83
101304.48
101305.12
101305.77
101306.41
101307.05
101307.69
101308.32
101308.95
101309.57
101310.18
101310.78
101311.38
101311.96
101312.54
101313.1
101313.65
101314.19
101314.71
101315.22
101315.72
101316.2
101316.66
101317.11
101317.54
101317.95
101318.34
101318.71
101319.06
101319.39
101319.69
101319.96
101320.21
101320.44
101320.62
101320.79
101320.89
101321.01
101682.02
101666.18
101648.75
101631.1
101613.44
101596.08
101579.1
101562.57
101546.57
101531.14
101516.35
101502.24
101488.85
101476.2
101464.33
101453.24
101442.97
101433.5
101424.84
101416.98
101409.89
101403.56
101397.95
101393.02
101388.74
101385.03
101381.85
101379.12
101376.77
101374.71
101372.87
101371.17
101369.48
101367.62
101364.17
101361.63
101360.51
101358.16
101354.91
101351.42
101347.68
101343.55
101339.69
101336.18
101332.8
101329.52
101326.41
101323.5
101320.81
101318.32
101316.02
101313.9
101311.96
101310.18
101308.56
101307.1
101305.77
101304.58
101303.5
101302.56
101301.73
101301
101300.39
101299.87
101299.44
101299.08
101298.82
101298.63
101298.49
101298.45
101298.47
101298.5
101298.63
101298.82
101299.01
101299.27
101299.58
101299.9
101300.27
101300.67
101301.09
101301.54
101302.01
101302.5
101303.01
101303.53
101304.07
101304.62
101305.17
101305.74
101306.31
101306.88
101307.46
101308.05
101308.63
101309.21
101309.78
101310.36
101310.93
101311.49
101312.05
101312.6
101313.15
101313.68
101314.21
101314.72
101315.22
101315.72
101316.2
101316.66
101317.12
101317.56
101317.98
101318.39
101318.78
101319.15
101319.5
101319.84
101320.15
101320.43
101320.7
101320.94
101321.15
101321.33
101321.49
101321.59
101321.71
101694.45
101682.66
101666.49
101649.6
101632.9
101616.59
101600.63
101585.08
101569.99
101555.41
101541.4
101528
101515.23
101503.14
101491.73
101481.04
101471.07
101461.82
101453.3
101445.5
101438.39
101431.95
101426.15
101420.95
101416.31
101412.17
101408.47
101405.15
101402.13
101399.33
101396.69
101394.16
101391.62
101388.35
101383.79
101380.98
101378.62
101374.83
101370.43
101365.93
101361.19
101356.58
101352.42
101348.29
101344.32
101340.56
101337.03
101333.73
101330.66
101327.79
101325.13
101322.67
101320.39
101318.29
101316.36
101314.59
101312.97
101311.5
101310.16
101308.95
101307.87
101306.91
101306.06
101305.32
101304.67
101304.11
101303.65
101303.27
101302.96
101302.73
101302.58
101302.46
101302.43
101302.46
101302.51
101302.64
101302.82
101303.01
101303.25
101303.54
101303.84
101304.19
101304.56
101304.94
101305.36
101305.79
101306.24
101306.71
101307.19
101307.67
101308.17
101308.68
101309.19
101309.71
101310.23
101310.75
101311.27
101311.79
101312.31
101312.83
101313.34
101313.85
101314.35
101314.84
101315.33
101315.81
101316.28
101316.74
101317.19
101317.63
101318.06
101318.47
101318.87
101319.25
101319.62
101319.97
101320.31
101320.63
101320.92
101321.2
101321.45
101321.68
101321.89
101322.05
101322.21
101322.31
101322.43
101708.02
101699.14
101685.64
101669.16
101653.03
101637.51
101622.42
101607.73
101593.46
101579.67
101566.38
101553.65
101541.48
101529.91
101518.96
101508.65
101498.97
101489.94
101481.56
101473.8
101466.66
101460.1
101454.1
101448.62
101443.61
101439.01
101434.77
101430.82
101427.09
101423.51
101420.01
101416.59
101413.14
101408.32
101403.14
101399.77
101395.82
101390.7
101385.17
101379.79
101374.65
101369.67
101364.8
101360.12
101355.69
101351.52
101347.59
101343.91
101340.46
101337.24
101334.23
101331.43
101328.83
101326.41
101324.17
101322.11
101320.21
101318.46
101316.85
101315.39
101314.06
101312.86
101311.78
101310.82
101309.96
101309.19
101308.53
101307.96
101307.47
101307.07
101306.74
101306.47
101306.28
101306.15
101306.07
101306.05
101306.09
101306.16
101306.28
101306.45
101306.64
101306.88
101307.14
101307.43
101307.75
101308.09
101308.45
101308.84
101309.23
101309.64
101310.07
101310.5
101310.95
101311.4
101311.86
101312.32
101312.79
101313.25
101313.72
101314.19
101314.65
101315.12
101315.58
101316.03
101316.48
101316.92
101317.36
101317.78
101318.2
101318.61
101319.01
101319.4
101319.77
101320.13
101320.48
101320.81
101321.13
101321.43
101321.71
101321.97
101322.22
101322.43
101322.63
101322.79
101322.95
101323.03
101323.15
101722.96
101716.21
101703.59
101688.25
101673.16
101658.56
101644.34
101630.47
101616.98
101603.93
101591.33
101579.22
101567.63
101556.56
101546.04
101536.08
101526.68
101517.85
101509.58
101501.86
101494.66
101487.97