/*--------------------------------*- C++ -*----------------------------------*\
| =========                 |                                                 |
| \\      /  F ield         | OpenFOAM: The Open Source CFD Toolbox           |
|  \\    /   O peration     | Version:  2406                                  |
|   \\  /    A nd           | Website:  www.openfoam.com                      |
|    \\/     M anipulation  |                                                 |
\*---------------------------------------------------------------------------*/
FoamFile
{
    version     2.0;
    format      ascii;
    arch        "LSB;label=32;scalar=64";
    class       volScalarField;
    location    "0.018";
    object      nut;
}
// * * * * * * * * * * * * * * * * * * * * * * * * * * * * * * * * * * * * * //

dimensions      [0 2 -1 0 0 0 0];

internalField   nonuniform List<scalar> 
23204
(
0.0040657985
0.0040641801
0.0040624881
0.0040601755
0.0040635109
0.0040975144
0.0040937372
0.0040902594
0.0040870863
0.0040841988
0.0040815432
0.0040790459
0.0040766866
0.0040745302
0.0040726457
0.0040711148
0.0040696775
0.0040681204
0.0040665267
0.0040649002
0.0040632242
0.0040609533
0.0040644447
0.0040355149
0.0040402174
0.004045851
0.0040510788
0.0040573169
0.0040722089
0.0041010765
0.0041298911
0.0041423006
0.0041423731
0.0041386201
0.0041342009
0.004129744
0.004125283
0.0041207864
0.0041162623
0.0041117461
0.0041072948
0.0041029786
0.0040988805
0.0040950464
0.0040915074
0.0040882716
0.0040853237
0.0040826122
0.0040800646
0.0040776582
0.0040754531
0.0040735183
0.004071939
0.0040704626
0.0040688772
0.0040672655
0.0040656313
0.0040639722
0.004061745
0.0040653944
0.0024472468
0.0025241677
0.0026021945
0.0026811689
0.0027606792
0.0028402635
0.0029200111
0.0029990088
0.0030773485
0.0031541441
0.0032294172
0.0033020129
0.003372355
0.0034399455
0.0035056385
0.003568025
0.0036273883
0.0036822579
0.0037317658
0.0037767461
0.0038171558
0.0038544748
0.0038868199
0.0039154545
0.0039408369
0.0039632221
0.0039810709
0.003995197
0.0040070365
0.0040172546
0.0040256966
0.0040319027
0.0040362605
0.0040400605
0.0040444403
0.0040498277
0.0040549445
0.0040604754
0.0040734263
0.0041004546
0.0041298453
0.0041437194
0.0041443761
0.0041406634
0.0041361602
0.0041316084
0.0041270595
0.0041224812
0.0041178823
0.0041133007
0.0041087921
0.0041044234
0.0041002722
0.0040963796
0.0040927775
0.0040894769
0.0040864665
0.0040836976
0.0040810983
0.0040786437
0.004076389
0.0040744031
0.0040727743
0.0040712583
0.0040696444
0.0040680147
0.0040663734
0.0040647324
0.0040625506
0.0040663592
0.0014012101
0.0013932256
0.0013849585
0.0013770249
0.0013700072
0.001364417
0.0013607214
0.0013592694
0.0013603545
0.001364139
0.0013707505
0.001380234
0.0013926722
0.0014080797
0.0014265386
0.0014481016
0.0014729241
0.0015010106
0.0015323784
0.001567002
0.0016047469
0.0016455932
0.0016895932
0.0017366668
0.0017868102
0.001840021
0.0018960405
0.0019551883
0.0020170027
0.0020816187
0.0021487223
0.0022181781
0.0022899832
0.0023634375
0.0024392884
0.0025161923
0.0025943926
0.0026735059
0.0027533249
0.002833328
0.0029133783
0.0029930882
0.0030717373
0.0031493961
0.0032251958
0.003298714
0.0033699134
0.0034380548
0.003504206
0.0035672097
0.0036273035
0.0036828531
0.0037325397
0.0037788164
0.0038199186
0.0038571862
0.0038898225
0.0039188231
0.0039447852
0.0039674653
0.0039852777
0.0039996516
0.0040115972
0.004021817
0.0040303494
0.0040367061
0.0040411007
0.0040447495
0.0040488038
0.0040539024
0.0040589087
0.00406386
0.0040749979
0.0041000035
0.0041296958
0.0041450606
0.0041463877
0.0041427409
0.0041381563
0.0041335076
0.0041288685
0.0041242069
0.0041195319
0.0041148836
0.004110317
0.004105895
0.0041016893
0.0040977367
0.0040940694
0.0040907019
0.0040876271
0.0040847991
0.0040821468
0.0040796431
0.0040773377
0.0040752997
0.0040736207
0.0040720645
0.0040704221
0.0040687746
0.0040671267
0.0040655047
0.0040633699
0.0040673386
0.0013981714
0.00139008
0.0013817307
0.0013737543
0.0013667213
0.0013611374
0.0013574533
0.0013560104
0.0013570925
0.0013608626
0.0013674651
0.0013769391
0.0013893507
0.001404701
0.0014230673
0.0014445124
0.0014691652
0.0014970402
0.0015281572
0.0015624978
0.0015999593
0.001640533
0.0016842984
0.0017311317
0.0017809971
0.0018339107
0.0018896494
0.0019484705
0.0020099864
0.0020743172
0.0021412464
0.0022105265
0.002282223
0.0023556222
0.0024315569
0.0025084695
0.0025868323
0.0026661024
0.0027461896
0.0028265904
0.0029069477
0.0029872791
0.0030663584
0.0031448336
0.0032212001
0.0032955902
0.0033675194
0.003436457
0.0035030999
0.0035667198
0.0036273567
0.0036836633
0.0037341066
0.0037810474
0.0038228576
0.003859953
0.0038936872
0.0039230926
0.0039492052
0.0039712003
0.0039896934
0.0040046115
0.0040163972
0.0040265829
0.0040351583
0.0040416441
0.0040460837
0.0040495958
0.0040533244
0.004058093
0.0040629727
0.0040674546
0.0040769261
0.0040997719
0.0041294668
0.0041463173
0.0041484045
0.0041448529
0.0041401904
0.0041354428
0.0041307111
0.0041259644
0.0041212117
0.0041164955
0.0041118699
0.0041073935
0.004103132
0.0040991175
0.004095383
0.0040919465
0.0040888054
0.0040859165
0.00408321
0.0040806562
0.0040782993
0.0040762083
0.0040744781
0.0040728814
0.0040712104
0.0040695452
0.0040678911
0.0040662892
0.004064203
0.0040683319
0.0013957435
0.0013874612
0.0013789643
0.0013708885
0.0013637956
0.0013581847
0.0013544885
0.001353038
0.0013541024
0.0013578415
0.0013644042
0.0013738328
0.0013861888
0.0014014783
0.001419773
0.0014411262
0.001465632
0.0014933145
0.0015241954
0.0015582497
0.0015954243
0.0016357308
0.0016792506
0.0017258263
0.0017754208
0.0018280445
0.0018835262
0.0019420414
0.0020032934
0.0020672923
0.0021340307
0.0022031384
0.0022747007
0.0023480568
0.0024239603
0.0025009045
0.0025794011
0.0026588448
0.0027391765
0.0028199492
0.0029006509
0.0029815147
0.0030611261
0.0031403448
0.0032173399
0.0032925463
0.0033651491
0.0034349806
0.0035021718
0.0035663902
0.0036276022
0.0036847274
0.0037362942
0.0037834646
0.0038261356
0.0038634046
0.0038975945
0.0039271204
0.0039529978
0.003975396
0.0039947952
0.0040100816
0.0040215716
0.0040315661
0.0040401454
0.004046736
0.004051225
0.0040546156
0.0040580202
0.0040624204
0.0040671428
0.0040712463
0.004079209
0.0040998056
0.0041291871
0.0041474837
0.0041504226
0.0041470001
0.0041422641
0.0041374155
0.0041325886
0.0041277546
0.0041229226
0.004118137
0.004113451
0.004108919
0.0041046002
0.0041005219
0.0040967181
0.0040932104
0.004090001
0.0040870496
0.0040842877
0.0040816828
0.0040792735
0.0040771288
0.0040753466
0.0040737088
0.0040720092
0.0040703266
0.0040686669
0.004067086
0.0040650497
0.0040693384
0.0013941557
0.0013855789
0.0013768467
0.0013685951
0.0013613786
0.001355689
0.0013519404
0.0013504524
0.0013514769
0.001355167
0.0013616632
0.001371009
0.0013832662
0.0013984619
0.0014166714
0.0014379322
0.0014622963
0.0014897951
0.0015204498
0.0015542225
0.0015911122
0.0016311465
0.0016743916
0.0017206859
0.0017700091
0.0018223505
0.0018775783
0.0019357979
0.0019967889
0.0020605121
0.002126987
0.0021959129
0.0022673139
0.0023406234
0.0024164004
0.0024933779
0.0025719632
0.0026515768
0.0027321405
0.0028132525
0.0028943389
0.0029756624
0.0030558695
0.0031357411
0.0032134217
0.0032894136
0.0033627063
0.0034334105
0.0035011802
0.0035660459
0.0036279178
0.0036858016
0.0037386038
0.0037862367
0.0038294217
0.0038674123
0.0039012116
0.0039314018
0.0039574991
0.0039804236
0.0040002071
0.0040151383
0.0040268547
0.0040366998
0.0040453226
0.0040519973
0.0040565399
0.004059824
0.0040629081
0.0040669068
0.00407143
0.004075226
0.0040818417
0.004100147
0.004128891
0.0041485557
0.0041524374
0.0041491828
0.0041443788
0.0041394272
0.0041345023
0.0041295787
0.0041246654
0.0041198086
0.0041150609
0.0041104718
0.004106094
0.0041019499
0.0040980746
0.0040944936
0.0040912139
0.0040881985
0.0040853799
0.004082723
0.0040802605
0.0040780611
0.0040762261
0.0040745469
0.0040728187
0.0040711189
0.0040694541
0.0040678953
0.0040659099
0.0040703576
0.0014017353
0.0013936259
0.0013846178
0.0013755415
0.0013670193
0.0013595986
0.0013537629
0.0013499083
0.0013483418
0.001349297
0.0013529166
0.0013593244
0.0013685593
0.0013806819
0.0013957433
0.0014138278
0.001434965
0.0014591765
0.001486489
0.0015169194
0.0015504201
0.0015870281
0.0016267745
0.0016697113
0.001715703
0.0017647443
0.0018167913
0.0018717564
0.0019296741
0.0019904037
0.0020538462
0.0021200943
0.0021887704
0.0022599769
0.0023332179
0.0024088084
0.0024857977
0.0025644233
0.0026441811
0.0027249593
0.0028063688
0.0028878534
0.0029695806
0.0030504013
0.0031308348
0.0032092379
0.0032859983
0.0033600255
0.0034315391
0.0034999323
0.0035654934
0.0036280651
0.003686695
0.0037406895
0.0037889612
0.0038325394
0.0038715397
0.0039055518
0.0039362818
0.0039626683
0.0039852466
0.0040051483
0.0040201637
0.004032206
0.0040424228
0.0040507328
0.0040574433
0.0040620374
0.0040652288
0.0040679999
0.0040715719
0.0040758472
0.0040793874
0.004084817
0.0041008343
0.0041286182
0.0041495322
0.0041544441
0.0041514015
0.0041465363
0.0041414795
0.0041364536
0.0041314378
0.004126441
0.0041215112
0.0041166998
0.0041120519
0.0041076132
0.0041034013
0.0040994522
0.0040957958
0.0040924439
0.0040893628
0.0040864864
0.0040837764
0.0040812599
0.0040790052
0.0040771165
0.0040753956
0.0040736389
0.0040719221
0.0040702528
0.0040687169
0.0040667835
0.0040713885
0.0014032194
0.0013943284
0.0013847498
0.0013751992
0.0013662916
0.0013585683
0.0013525026
0.0013484742
0.0013467761
0.0013476229
0.001351144
0.0013574405
0.0013665431
0.0013785074
0.0013934023
0.0014113169
0.001432281
0.0014563073
0.0014834218
0.0015136242
0.0015468622
0.0015831902
0.0016226322
0.0016652338
0.0017109054
0.0017596397
0.001811368
0.0018660539
0.0019236631
0.0019841192
0.0020472683
0.0021132612
0.0021817197
0.0022526708
0.0023257844
0.0024011575
0.0024781267
0.002556752
0.0026366135
0.0027175718
0.002799228
0.0028810892
0.0029631764
0.0030445867
0.0031255057
0.0032046377
0.0032821405
0.0033569374
0.0034292127
0.0034982972
0.0035645765
0.0036278591
0.00368728
0.0037423532
0.0037913614
0.0038356242
0.0038753114
0.0039103665
0.0039406219
0.0039675365
0.0039901746
0.0040101638
0.0040259683
0.0040384332
0.0040485719
0.0040564257
0.0040630717
0.0040677124
0.0040708251
0.0040732954
0.0040764275
0.0040804058
0.0040837248
0.0040881252
0.0041018999
0.0041284129
0.0041504153
0.0041564372
0.004153656
0.004148738
0.0041435741
0.0041384438
0.0041333329
0.0041282502
0.0041232451
0.0041183681
0.0041136595
0.0041091579
0.0041048757
0.0041008507
0.0040971167
0.0040936907
0.0040905425
0.0040876071
0.0040848431
0.0040822719
0.004079961
0.0040780177
0.0040762548
0.0040744698
0.0040727361
0.004071063
0.0040695508
0.00406767
0.0040724302
0.0014062068
0.0013964517
0.0013861456
0.0013759697
0.0013665407
0.0013583962
0.0013519986
0.0013477125
0.001345816
0.0013465031
0.0013498871
0.0013560436
0.0013649924
0.0013767813
0.0013914872
0.0014091958
0.0014299394
0.0014537364
0.0014806242
0.0015105885
0.0015435685
0.0015796155
0.00161874
0.0016609893
0.0017063241
0.0017547253
0.0018061137
0.0018605018
0.0019177894
0.0019779459
0.0020407904
0.002106501
0.0021747205
0.0022454237
0.0023183355
0.0023934641
0.0024703757
0.0025489651
0.002628884
0.0027099752
0.0027918264
0.0028740184
0.002956428
0.0030383721
0.0031197226
0.0031995544
0.0032777577
0.0033533342
0.0034263546
0.0034961948
0.0035631978
0.003627197
0.0036874374
0.0037434814
0.0037933484
0.0038385825
0.0038787156
0.0039147689
0.0039448081
0.0039722888
0.0039956139
0.0040157601
0.0040318332
0.0040445331
0.0040539606
0.0040621445
0.0040687311
0.0040735228
0.0040765837
0.0040787776
0.0040814719
0.0040851103
0.0040882297
0.0040917519
0.0041033686
0.0041283225
0.0041512108
0.0041584111
0.0041559459
0.0041509851
0.0041457124
0.0041404741
0.004135265
0.0041300938
0.004125011
0.0041200661
0.0041152945
0.0041107276
0.0041063729
0.0041022696
0.004098456
0.0040949541
0.0040917373
0.0040887416
0.0040859227
0.0040832959
0.0040809282
0.0040789296
0.0040771245
0.0040753112
0.0040735609
0.0040718845
0.0040703969
0.0040685691
0.0040734818
0.0014109653
0.001400197
0.001388985
0.0013780113
0.0013679027
0.0013591973
0.0013523469
0.001347702
0.0013455242
0.0013459857
0.0013491806
0.0013551582
0.0013639261
0.0013755217
0.0013900208
0.0014074984
0.0014279873
0.0014515162
0.0014781382
0.0015078385
0.0015405545
0.0015763143
0.0016151124
0.0016570017
0.0017019871
0.0017500376
0.0018010738
0.0018551397
0.0019120892
0.0019719189
0.0020344397
0.002099848
0.0021677951
0.0022382229
0.0023109218
0.0023857884
0.0024625763
0.002541095
0.0026210285
0.0027022048
0.002784207
0.002866676
0.0029493706
0.0030317733
0.0031135228
0.0031939958
0.0032728511
0.0033491951
0.0034229589
0.0034935898
0.0035613132
0.003626026
0.0036870821
0.0037440446
0.0037948975
0.0038411506
0.0038818184
0.0039184967
0.0039492832
0.0039769112
0.0040008346
0.0040207473
0.0040369678
0.0040499012
0.004059347
0.0040678493
0.004074799
0.0040794589
0.0040824656
0.0040844109
0.0040866867
0.0040899544
0.0040928876
0.0040956758
0.0041052543
0.0041283952
0.0041519288
0.0041603594
0.0041582701
0.0041532788
0.0041478956
0.0041425455
0.0041372347
0.0041319723
0.0041268092
0.0041217939
0.0041169567
0.004112322
0.0041078924
0.0041037085
0.0040998132
0.0040962336
0.0040929467
0.0040898896
0.0040870148
0.0040843318
0.0040819066
0.0040798519
0.0040780044
0.004076163
0.0040743963
0.0040727172
0.0040712549
0.0040694803
0.0040745419
0.0014177483
0.0014057812
0.0013934629
0.0013814972
0.0013705289
0.0013611007
0.0013536564
0.0013485329
0.0013459738
0.0013461273
0.0013490657
0.0013548126
0.0013633627
0.0013747413
0.0013890148
0.0014062432
0.0014264567
0.0014496919
0.0014760129
0.0015054116
0.001537837
0.0015732951
0.0016117606
0.0016532878
0.0016979163
0.0017456061
0.0017962837
0.0018499988
0.0019065917
0.0019660731
0.0020282547
0.0020933308
0.0021609763
0.0022311046
0.0023035597
0.0023781788
0.0024547867
0.0025331839
0.0026130965
0.0026943154
0.0027764317
0.0028591236
0.002942064
0.0030248467
0.0031069739
0.0031880157
0.0032674783
0.0033445652
0.0034190674
0.0034904886
0.0035589231
0.0036243355
0.0036861935
0.0037440557
0.0037960098
0.0038431427
0.0038845633
0.0039216409
0.0039535514
0.0039812326
0.0040053022
0.0040255595
0.0040421865
0.0040557407
0.0040655051
0.0040742099
0.0040809416
0.0040854075
0.0040883957
0.0040901409
0.0040920358
0.0040949184
0.0040976747
0.0040998667
0.0041075579
0.0041286765
0.0041525827
0.0041622749
0.0041606267
0.0041556196
0.0041501247
0.0041446588
0.0041392428
0.004133886
0.0041286397
0.0041235512
0.0041186458
0.0041139404
0.0041094334
0.0041051668
0.0041011877
0.0040975287
0.0040941703
0.0040910506
0.004088119
0.0040853792
0.0040828958
0.0040807843
0.0040788941
0.0040770249
0.0040752419
0.0040735607
0.0040721244
0.004070403
0.0040756093
0.0014268176
0.0014134402
0.0013997953
0.0013866213
0.0013745897
0.0013642538
0.0013560531
0.0013503112
0.0013472512
0.0013469965
0.0013495944
0.0013550443
0.0013633277
0.0013744562
0.0013884808
0.0014054435
0.0014253685
0.0014482958
0.0014742909
0.0015033526
0.0015354465
0.0015705726
0.0016086959
0.0016498619
0.0016941289
0.00174145
0.001791762
0.0018451024
0.001901323
0.0019604354
0.0020222652
0.0020869788
0.0021542913
0.002224106
0.0022962851
0.0023706422
0.0024470598
0.0025253001
0.0026051398
0.0026863627
0.0027685589
0.0028514213
0.0029345687
0.0030176639
0.0031001485
0.0031816852
0.0032617189
0.0033395176
0.0034147437
0.0034869319
0.0035560654
0.0036221538
0.003684799
0.0037435359
0.00379667
0.0038445169
0.0038868578
0.0039243113
0.0039572303
0.0039851194
0.0040095366
0.0040302416
0.0040477671
0.0040612735
0.0040714137
0.0040800404
0.0040863415
0.0040912672
0.0040942772
0.0040959009
0.0040974689
0.0040999703
0.0041025575
0.0041042842
0.0041102651
0.0041292064
0.0041531888
0.0041641499
0.0041630128
0.0041580077
0.0041524003
0.0041468147
0.0041412895
0.0041358351
0.0041305026
0.004125338
0.0041203613
0.0041155821
0.0041109951
0.0041066436
0.0041025789
0.0040988389
0.0040954076
0.0040922242
0.0040892347
0.0040864373
0.0040838952
0.0040817263
0.0040797934
0.0040778966
0.0040760973
0.0040744148
0.004073005
0.0040713365
0.0040766827
0.0014384532
0.0014234365
0.0014082239
0.0013936001
0.0013802767
0.0013688238
0.0013596803
0.0013531577
0.0013494564
0.0013486736
0.0013508302
0.0013559018
0.0013638566
0.0013746909
0.0013884356
0.0014051135
0.0014247383
0.0014473479
0.0014730012
0.0015016997
0.0015334234
0.0015681777
0.0016059365
0.0016467385
0.0016906389
0.0017375833
0.0017875203
0.0018404696
0.0018963033
0.0019550275
0.002016492
0.0020808146
0.0021477702
0.0022172489
0.0022891339
0.0023632114
0.0024394126
0.0025174953
0.0025972154
0.0026783896
0.0027606327
0.0028436192
0.0029269401
0.0030102945
0.0030931123
0.0031750773
0.00325565
0.0033341249
0.0034100543
0.0034829824
0.0035528031
0.0036195394
0.0036829455
0.003742509
0.0037968417
0.0038453522
0.0038886719
0.0039266146
0.0039603393
0.0039886277
0.0040136591
0.0040345558
0.0040527653
0.0040658443
0.0040766689
0.0040851315
0.0040918218
0.0040972674
0.0041001708
0.0041016425
0.0041029328
0.0041050705
0.0041074956
0.0041088791
0.0041133465
0.0041300156
0.0041537651
0.0041659754
0.0041654243
0.0041604428
0.0041547229
0.0041490133
0.004143375
0.0041378195
0.0041323976
0.0041271536
0.0041221026
0.0041172464
0.0041125769
0.0041081382
0.004103986
0.0041001634
0.0040966579
0.0040934097
0.0040903614
0.0040875058
0.0040849044
0.0040826774
0.0040807018
0.0040787777
0.0040769624
0.004075279
0.0040738964
0.0040722802
0.0040777608
0.0014529682
0.0014360633
0.0014190155
0.0014026764
0.0013878059
0.0013749991
0.0013646994
0.0013572075
0.0013527008
0.001351249
0.0013528462
0.0013574438
0.0013649952
0.001375479
0.0013889035
0.0014052703
0.0014245791
0.00144686
0.0014721588
0.001500477
0.0015318035
0.0015661513
0.0016035143
0.0016439358
0.0016874595
0.0017340191
0.0017835696
0.0018361151
0.0018915477
0.0019498676
0.0020109527
0.0020748645
0.0021414416
0.0022105629
0.002282135
0.0023559225
0.0024318727
0.0025097695
0.0025893726
0.0026704443
0.0027526896
0.0028357596
0.0029192262
0.0030027963
0.0030859205
0.0031682612
0.0032493357
0.0033284487
0.0034050584
0.0034787107
0.0035492079
0.003616567
0.00368069
0.0037410168
0.0037964996
0.0038457603
0.0038900255
0.0039285986
0.003963023
0.0039918373
0.0040174254
0.0040386231
0.0040570703
0.004070485
0.0040817842
0.0040904192
0.004097638
0.0041030142
0.004105822
0.0041072689
0.0041083702
0.0041101773
0.004112446
0.0041135964
0.0041167597
0.0041311247
0.0041543305
0.0041677414
0.0041678557
0.0041629241
0.0041570927
0.0041512549
0.0041454991
0.0041398389
0.0041343243
0.0041289977
0.0041238688
0.0041189322
0.0041141776
0.0041096497
0.0041054083
0.0041015017
0.0040979207
0.0040946065
0.0040914985
0.0040885841
0.0040859228
0.0040836373
0.0040816189
0.0040796678
0.0040778368
0.0040761532
0.0040747982
0.0040732333
0.0040788422
0.0014707059
0.001451642
0.0014324697
0.0014141245
0.0013974203
0.0013829909
0.0013712896
0.0013626097
0.0013571067
0.0013548226
0.001355724
0.0013597382
0.0013667987
0.0013768639
0.0013899162
0.0014059355
0.0014249043
0.0014468395
0.0014717703
0.001499696
0.0015306097
0.0015645289
0.0016014682
0.0016414814
0.0016846062
0.0017307702
0.0017799209
0.0018320508
0.0018870691
0.0019449723
0.0020056646
0.002069156
0.0021353329
0.0022040776
0.0022753167
0.0023487943
0.0024244702
0.0025021486
0.0025816106
0.0026625866
0.0027447705
0.0028278784
0.0029114654
0.0029952127
0.0030786186
0.003161298
0.0032428289
0.0033225392
0.0033998075
0.0034741814
0.0035453477
0.0036133136
0.0036781
0.0037391309
0.0037956639
0.0038458269
0.0038909698
0.003930283
0.0039653845
0.0039948536
0.0040208226
0.0040425242
0.0040612094
0.0040754913
0.0040868762
0.0040953267
0.0041029912
0.004108147
0.00411133
0.0041128782
0.0041137491
0.0041152579
0.0041173703
0.0041183811
0.0041204536
0.0041325435
0.0041549047
0.0041694377
0.0041703002
0.0041654503
0.0041595092
0.0041535392
0.0041476617
0.0041418931
0.0041362822
0.0041308694
0.0041256592
0.0041206388
0.0041157964
0.0041111772
0.004106845
0.004102853
0.0040991954
0.0040958141
0.0040926453
0.0040896715
0.00408695
0.0040846054
0.0040825444
0.0040805666
0.0040787203
0.0040770371
0.00407571
0.0040741953
0.004079926
0.0014920432
0.0014705308
0.0014489235
0.0014282493
0.0014093941
0.0013930381
0.0013796539
0.0013695326
0.001362811
0.0013595055
0.0013595551
0.0013628608
0.0013693303
0.0013788961
0.0013915123
0.001407136
0.0014257301
0.0014472945
0.0014718396
0.001499361
0.0015298529
0.0015633327
0.0015998305
0.0016394082
0.0016821027
0.0017278492
0.0017765846
0.0018282866
0.0018828791
0.0019403564
0.0020006424
0.0020637048
0.0021294657
0.0021978152
0.0022686954
0.0023418455
0.0024172301
0.002494667
0.0025739536
0.0026548018
0.0027369382
0.0028200087
0.0029036891
0.0029875809
0.003071247
0.0031542397
0.0032361767
0.0033164423
0.0033943495
0.0034694454
0.0035412815
0.0036098494
0.003675252
0.0037369463
0.0037944086
0.0038456047
0.0038915815
0.0039317051
0.0039674615
0.0039977153
0.0040239828
0.0040462322
0.0040652572
0.0040803085
0.0040917224
0.0041000631
0.0041079983
0.004113379
0.0041169692
0.0041184508
0.0041190484
0.0041202908
0.0041222405
0.0041231847
0.0041243739
0.0041342731
0.004155509
0.0041710544
0.0041727497
0.0041680192
0.0041619721
0.0041558658
0.0041498623
0.0041439813
0.0041382706
0.0041327681
0.0041274729
0.0041223651
0.0041174324
0.00411272
0.0041082954
0.0041042168
0.0041004815
0.0040970319
0.0040938015
0.0040907676
0.0040879855
0.0040855816
0.004083478
0.004081474
0.0040796128
0.0040779306
0.0040766318
0.0040751659
0.004081011
0.0015173961
0.0014931281
0.0014687512
0.0014453971
0.0014240397
0.0014054135
0.0013900245
0.0013781691
0.0013699716
0.0013654263
0.001364444
0.0013668966
0.0013726596
0.0013816321
0.0013937363
0.0014089046
0.0014270785
0.001448238
0.0014723739
0.0014994762
0.0015295379
0.001562573
0.0015986207
0.0016377438
0.0016799778
0.0017252748
0.0017735704
0.001824831
0.0018789881
0.0019360311
0.0019958973
0.0020585212
0.0021238556
0.0021917977
0.0022622895
0.0023350939
0.0024101784
0.002487344
0.0025664264
0.0026471132
0.0027291711
0.0028122226
0.0028959306
0.0029799407
0.0030638444
0.0031471311
0.0032294265
0.0033102062
0.003388731
0.0034645416
0.0035370572
0.0036062343
0.0036722252
0.0037345613
0.0037928442
0.0038451314
0.0038919464
0.0039329251
0.0039692988
0.0040003963
0.0040270332
0.0040497673
0.0040691406
0.0040847952
0.0040964879
0.0041050602
0.0041128952
0.0041185895
0.0041221422
0.0041236266
0.0041242272
0.0041252552
0.0041270426
0.0041279699
0.0041284698
0.0041363084
0.004156167
0.0041725836
0.0041751945
0.0041706282
0.0041644804
0.0041582342
0.0041521001
0.0041461031
0.004140289
0.0041346929
0.0041293089
0.0041241103
0.0041190848
0.0041142773
0.004109759
0.0041055926
0.0041017786
0.0040982598
0.0040949667
0.0040918721
0.0040890291
0.0040865656
0.0040844197
0.0040823898
0.0040805145
0.0040788338
0.0040775635
0.0040761448
0.0040820966
0.0015472284
0.0015198825
0.0014923756
0.0014659621
0.0014417114
0.0014204312
0.0014026722
0.001388747
0.0013787763
0.0013727372
0.0013705131
0.0013719429
0.0013768636
0.0013851332
0.0013966373
0.0014112796
0.0014289779
0.0014496899
0.0014733866
0.0015000497
0.0015296693
0.0015622548
0.0015978478
0.0016365051
0.0016782567
0.0017230718
0.0017708941
0.001821693
0.0018754049
0.0019320053
0.001991439
0.0020536169
0.0021185164
0.0021860412
0.0022561242
0.0023285607
0.0024033285
0.0024802004
0.002559051
0.0026395541
0.002721503
0.0028045112
0.0028882577
0.0029723336
0.0030564443
0.0031400098
0.0032226273
0.0033038818
0.0033829975
0.003459504
0.0035327126
0.003602519
0.0036690921
0.0037320589
0.0037910866
0.003844449
0.0038921391
0.003934005
0.0039709776
0.0040028906
0.004030028
0.0040532103
0.0040728937
0.0040890724
0.004101148
0.0041102267
0.0041174375
0.004123446
0.0041269723
0.0041287106
0.0041294942
0.0041301891
0.0041317822
0.0041327145
0.0041326982
0.0041386417
0.0041569066
0.0041740212
0.0041776244
0.004173274
0.004167033
0.0041606436
0.0041543747
0.0041482577
0.0041423365
0.0041366432
0.0041311666
0.0041258738
0.004120753
0.0041158487
0.0041112354
0.0041069803
0.0041030865
0.0040994975
0.0040961408
0.0040929849
0.0040900807
0.0040875574
0.0040853695
0.0040833142
0.0040814256
0.0040797471
0.0040785055
0.0040771319
0.0040831824
0.0015820694
0.0015513024
0.0015202787
0.0014903926
0.0014628189
0.0014384578
0.0014179148
0.0014015369
0.001389451
0.0013816229
0.0013779101
0.001378115
0.0013820305
0.0013894677
0.0014002688
0.0014143039
0.0014314627
0.0014516771
0.0014748978
0.0015010956
0.0015302562
0.0015623836
0.0015975168
0.0016357008
0.0016769563
0.0017212647
0.0017685808
0.0018188892
0.0018721387
0.0019282872
0.001987276
0.0020490019
0.0021134586
0.0021805529
0.0022502149
0.0023222676
0.0023966895
0.0024732577
0.0025518519
0.0026321521
0.0027139597
0.002796907
0.0028806712
0.0029648162
0.0030490745
0.0031329065
0.0032158243
0.003297517
0.0033771904
0.0034543649
0.003528278
0.003598743
0.0036659111
0.0037294988
0.0037892313
0.003843608
0.0038922127
0.0039349888
0.0039725836
0.0040052434
0.0040329678
0.0040566085
0.0040765575
0.0040932041
0.0041055912
0.0041151985
0.0041220066
0.0041284035
0.0041321498
0.0041340749
0.0041346849
0.0041350776
0.0041364734
0.0041374122
0.0041370277
0.0041412652
0.0041577606
0.0041753684
0.0041800287
0.0041759527
0.0041696284
0.0041630931
0.0041566853
0.0041504444
0.0041444126
0.0041386183
0.0041330452
0.0041276549
0.0041224365
0.0041174339
0.0041127245
0.0041083798
0.0041044052
0.004100745
0.0040973238
0.0040941061
0.0040911404
0.0040885574
0.0040863278
0.0040842476
0.0040823467
0.0040806707
0.0040794579
0.0040781275
0.004084268
0.0016225374
0.0015879773
0.0015530189
0.0015192079
0.0014878402
0.0014599195
0.001436129
0.0014168638
0.0014022698
0.0013923087
0.0013868152
0.0013855532
0.001388267
0.0013947161
0.0014046931
0.0014180264
0.001434572
0.0014542313
0.0014769326
0.0015026333
0.0015313127
0.0015629688
0.0015976334
0.0016353361
0.0016760867
0.0017198727
0.0017666585
0.0018164474
0.0018692072
0.0019248868
0.0019834172
0.0020446842
0.0021086884
0.0021753381
0.00224457
0.0023162315
0.0023902852
0.0024665327
0.0025448505
0.0026249264
0.0027065685
0.0027894311
0.0028731903
0.00295741
0.0030417733
0.0031258461
0.0032090533
0.0032911497
0.003371345
0.0034491553
0.0035237801
0.0035949344
0.0036627234
0.0037269217
0.0037873403
0.0038426602
0.0038922012
0.0039358987
0.0039741704
0.0040075216
0.0040358531
0.0040599785
0.0040801942
0.0040972521
0.004110033
0.0041199566
0.0041269062
0.0041333142
0.0041373106
0.0041391057
0.0041396204
0.0041399711
0.0041411346
0.0041420683
0.0041414381
0.0041441723
0.0041587667
0.0041766335
0.0041823963
0.0041786597
0.004172265
0.0041655819
0.0041590311
0.0041526628
0.0041465169
0.0041406178
0.0041349444
0.0041294535
0.0041241351
0.0041190327
0.0041142262
0.0041097911
0.004105735
0.0041020025
0.0040985159
0.0040952358
0.0040922085
0.0040895659
0.004087295
0.0040851905
0.0040832782
0.0040816053
0.0040804212
0.0040791316
0.0040853534
0.0016693385
0.0016305785
0.0015912395
0.0015530111
0.0015173324
0.0014853222
0.001457765
0.0014351177
0.0014175642
0.0014050705
0.0013974518
0.0013944333
0.0013957082
0.0014009804
0.0014099868
0.0014225053
0.0014383504
0.0014573877
0.0014795195
0.001504686
0.0015328572
0.0015640236
0.0015982057
0.0016354164
0.0016756549
0.00171891
0.0017651524
0.0018144002
0.0018666397
0.0019218221
0.0019798745
0.0020406723
0.0021042134
0.002170407
0.0022392001
0.0023104643
0.0023841395
0.0024600431
0.002538063
0.002617901
0.0026993577
0.0027821131
0.0028658364
0.0029501135
0.0030345901
0.0031188513
0.0032023391
0.0032848077
0.0033654921
0.0034439046
0.003519242
0.0035911118
0.0036595516
0.003724356
0.003785444
0.0038416494
0.0038921269
0.0039367456
0.0039757538
0.0040097807
0.0040387091
0.0040633388
0.0040838765
0.0041012923
0.0041145476
0.0041246599
0.0041318998
0.0041380173
0.0041421533
0.0041439352
0.0041446779
0.0041451323
0.0041458187
0.004146706
0.0041459204
0.0041473578
0.0041599666
0.0041778322
0.0041847166
0.0041813898
0.0041749411
0.0041681091
0.0041614118
0.0041549124
0.0041486488
0.0041426413
0.0041368639
0.0041312693
0.0041258489
0.0041206451
0.0041157408
0.0041112146
0.0041070761
0.0041032704
0.0040997175
0.0040963743
0.0040932853
0.0040905833
0.0040882716
0.0040861433
0.0040842207
0.0040825512
0.0040813958
0.0040801446
0.0040864387
0.0017232717
0.0016798781
0.0016356832
0.0015925091
0.0015519521
0.0015152683
0.001483359
0.0014567711
0.0014357395
0.0014202471
0.0014100967
0.0014049763
0.0014045269
0.0014083925
0.0014162487
0.0014278138
0.001442852
0.0014611871
0.0014826904
0.0015072797
0.0015349112
0.001565564
0.0015992444
0.0016359492
0.0016756678
0.0017183874
0.001764082
0.001812777
0.0018644708
0.0019191231
0.0019766678
0.0020369801
0.0021000455
0.0021657741
0.0022341205
0.0023049775
0.0023782658
0.0024538109
0.0025315125
0.0026110975
0.0026923535
0.0027749739
0.0028586369
0.0029429421
0.0030275131
0.0031119712
0.0031957003
0.0032785139
0.0033596607
0.003438642
0.0035146842
0.0035872879
0.0036564038
0.0037218208
0.0037835539
0.0038406057
0.0038920066
0.0039375411
0.0039773317
0.0040120538
0.0040415774
0.0040667192
0.0040876492
0.0041053763
0.0041191213
0.0041294112
0.0041369103
0.0041428042
0.0041471526
0.0041493427
0.004150132
0.0041502778
0.0041505941
0.0041513437
0.004150473
0.0041508167
0.0041614033
0.0041789879
0.0041869799
0.004184137
0.0041776548
0.004170674
0.0041638267
0.0041571929
0.0041508084
0.0041446888
0.0041388035
0.0041331024
0.0041275778
0.0041222716
0.0041172685
0.0041126506
0.0041084289
0.0041045491
0.0041009289
0.0040975221
0.0040943713
0.0040916102
0.0040892583
0.0040871069
0.0040851748
0.004083509
0.0040823821
0.0040811667
0.0040875239
0.0017852707
0.0017367755
0.0016872113
0.0016385302
0.0015924766
0.0015504743
0.0015135605
0.0014823974
0.0014572898
0.0014382565
0.0014250952
0.0014174615
0.0014149441
0.0014171239
0.0014236078
0.0014340469
0.0014481462
0.0014656804
0.0014864837
0.0015104447
0.0015374985
0.0015676082
0.0016007626
0.0016369439
0.0016761336
0.0017183143
0.001763461
0.0018115989
0.0018627309
0.001916825