/*--------------------------------*- C++ -*----------------------------------*\
| =========                 |                                                 |
| \\      /  F ield         | OpenFOAM: The Open Source CFD Toolbox           |
|  \\    /   O peration     | Version:  2406                                  |
|   \\  /    A nd           | Website:  www.openfoam.com                      |
|    \\/     M anipulation  |                                                 |
\*---------------------------------------------------------------------------*/
FoamFile
{
    version     2.0;
    format      ascii;
    arch        "LSB;label=32;scalar=64";
    class       volScalarField;
    location    "0.007";
    object      pMean;
}
// * * * * * * * * * * * * * * * * * * * * * * * * * * * * * * * * * * * * * //

dimensions      [1 -1 -2 0 0 0 0];

internalField   nonuniform List<scalar> 
23203
(
100232.64
100244.48
100256.8
100268.83
100281.01
100293.5
100306.28
100319.45
100332.98
100346.83
100361.06
100375.67
100390.66
100405.98
100421.53
100437.33
100453.4
100469.7
100486.17
100502.78
100519.54
100536.5
100553.64
100263.89
100274.99
100286.74
100298.24
100309.88
100321.79
100333.9
100346.36
100359.21
100372.39
100385.92
100399.84
100414.12
100428.75
100443.62
100458.74
100474.13
100489.77
100505.6
100521.59
100537.76
100554.14
100570.7
100294.78
100305.15
100316.35
100327.36
100338.46
100349.78
100361.36
100373.25
100385.42
100397.92
100410.79
100424.02
100437.63
100451.58
100465.79
100480.24
100494.98
100509.97
100525.16
100540.55
100556.15
100571.96
100587.95
100325.18
100334.83
100345.52
100356.1
100366.73
100377.52
100388.58
100399.91
100411.45
100423.31
100435.53
100448.12
100461.07
100474.37
100487.94
100501.76
100515.86
100530.21
100544.79
100559.59
100574.62
100589.88
100605.31
100355.01
100363.98
100374.19
100384.4
100394.61
100404.92
100415.43
100426.19
100437.18
100448.47
100460.09
100472.07
100484.4
100497.07
100510.03
100523.23
100536.71
100550.46
100564.45
100578.68
100593.16
100607.88
100384.2
100392.5
100402.28
100412.12
100421.94
100431.83
100441.9
100452.14
100462.6
100473.35
100484.41
100495.81
100507.55
100519.63
100532
100544.62
100557.51
100570.68
100584.11
100597.79
100611.73
100625.9
100412.69
100420.34
100429.71
100439.25
100448.71
100458.26
100467.92
100477.68
100487.65
100497.89
100508.43
100519.29
100530.47
100541.99
100553.82
100565.88
100578.21
100590.82
100603.71
100616.85
100630.27
100643.9
100440.44
100447.47
100456.47
100465.75
100474.92
100484.11
100493.36
100502.73
100512.27
100522.05
100532.11
100542.46
100553.13
100564.12
100575.43
100586.97
100598.76
100610.85
100623.21
100635.84
100648.74
100661.85
100467.39
100473.81
100482.47
100491.53
100500.45
100509.32
100518.24
100527.25
100536.41
100545.77
100555.39
100565.29
100575.48
100585.98
100596.78
100607.84
100619.14
100630.72
100642.58
100654.71
100667.11
100679.72
100493.42
100499.31
100507.66
100516.53
100525.27
100533.91
100542.54
100551.22
100560.03
100569.02
100578.24
100587.72
100597.46
100607.51
100617.86
100628.45
100639.29
100650.39
100661.78
100673.43
100685.35
100697.48
100518.64
100523.96
100532.06
100540.79
100549.38
100557.81
100566.19
100574.6
100583.11
100591.76
100600.62
100609.72
100619.06
100628.69
100638.6
100648.78
100659.18
100669.83
100680.76
100691.96
100703.42
100715.1
100542.86
100547.71
100555.62
100564.27
100572.72
100580.97
100589.16
100597.34
100605.59
100613.96
100622.5
100631.25
100640.24
100649.48
100658.99
100668.77
100678.77
100689
100699.5
100710.27
100721.3
100732.54
100566.26
100570.51
100578.29
100586.95
100595.3
100603.41
100611.44
100619.44
100627.47
100635.59
100643.85
100652.3
100660.96
100669.85
100678.99
100688.4
100698.03
100707.88
100717.98
100728.34
100738.95
100749.78
100588.92
100592.36
100599.91
100608.65
100617.06
100625.1
100633.01
100640.86
100648.71
100656.62
100664.64
100672.82
100681.19
100689.77
100698.58
100707.64
100716.93
100726.43
100736.14
100746.12
100756.35
100766.78
100610.57
100613.5
100620.83
100629.51
100637.97
100646.04
100653.86
100661.6
100669.3
100677.04
100684.86
100692.81
100700.92
100709.22
100717.73
100726.47
100735.44
100744.61
100753.98
100763.6
100773.46
100783.52
100631.53
100633.89
100640.85
100649.53
100657.99
100666.1
100673.97
100681.63
100689.23
100696.83
100704.48
100712.23
100720.12
100728.17
100736.41
100744.86
100753.52
100762.4
100771.47
100780.74
100790.26
100799.96
100651.45
100653.32
100660.18
100668.85
100677.31
100685.38
100693.26
100700.97
100708.51
100715.98
100723.49
100731.07
100738.77
100746.6
100754.6
100762.78
100771.17
100779.77
100788.55
100797.52
100806.71
100816.09
100670.55
100672.04
100678.73
100687.36
100695.83
100703.91
100711.79
100719.49
100727.05
100734.48
100741.87
100749.32
100756.85
100764.5
100772.28
100780.23
100788.36
100796.7
100805.22
100813.91
100822.8
100831.86
100688.77
100689.81
100696.45
100705.15
100713.64
100721.72
100729.58
100737.3
100744.84
100752.28
100759.63
100766.95
100774.34
100781.83
100789.44
100797.18
100805.08
100813.16
100821.43
100829.88
100838.5
100847.25
100706.16
100706.77
100713.37
100722.13
100730.68
100738.86
100746.71
100754.38
100761.94
100769.35
100776.69
100783.97
100791.25
100798.59
100806.04
100813.6
100821.29
100829.14
100837.17
100845.39
100853.76
100862.26
100722.73
100722.94
100729.49
100738.38
100746.97
100755.14
100763.11
100770.82
100778.34
100785.76
100793.05
100800.31
100807.54
100814.77
100822.07
100829.47
100836.98
100844.63
100852.44
100860.42
100868.57
100876.82
100738.5
100738.31
100744.81
100753.82
100762.53
100770.76
100778.76
100786.54
100794.09
100801.46
100808.76
100815.97
100823.16
100830.34
100837.52
100844.77
100852.13
100859.6
100867.2
100874.96
100882.89
100890.93
100753.49
100752.93
100759.37
100768.49
100777.33
100785.62
100793.68
100801.54
100809.14
100816.54
100823.8
100831
100838.12
100845.24
100852.37
100859.5
100866.71
100874.02
100881.44
100889
100896.71
100904.54
100767.72
100766.8
100773.2
100782.41
100791.36
100799.77
100807.89
100815.83
100823.52
100830.95
100838.19
100845.33
100852.45
100859.51
100866.56
100873.63
100880.71
100887.87
100895.13
100902.5
100910.01
100917.63
100781.22
100779.98
100786.34
100795.64
100804.69
100813.2
100821.39
100829.37
100837.16
100844.66
100851.93
100859.05
100866.09
100873.13
100880.11
100887.1
100894.11
100901.14
100908.24
100915.45
100922.78
100930.2
100794.02
100792.5
100798.81
100808.17
100817.29
100825.9
100834.2
100842.24
100850.06
100857.66
100864.99
100872.12
100879.11
100886.05
100893.01
100899.93
100906.85
100913.8
100920.77
100927.83
100934.99
100942.23
100806.15
100804.42
100810.7
100820.07
100829.24
100837.9
100846.27
100854.41
100862.29
100869.91
100877.32
100884.48
100891.48
100898.37
100905.23
100912.11
100918.95
100925.8
100932.69
100939.61
100946.61
100953.68
100817.62
100815.76
100822.03
100831.37
100840.52
100849.2
100857.63
100865.83
100873.77
100881.46
100888.92
100896.15
100903.16
100910.03
100916.83
100923.6
100930.4
100937.16
100943.95
100950.78
100957.64
100964.55
100828.36
100826.42
100832.69
100841.98
100851.1
100859.78
100868.25
100876.51
100884.53
100892.29
100899.79
100907.07
100914.13
100921
100927.76
100934.46
100941.16
100947.87
100954.56
100961.28
100968.04
100974.82
100838.37
100836.36
100842.63
100851.86
100860.94
100869.62
100878.11
100886.43
100894.52
100902.36
100909.93
100917.24
100924.37
100931.27
100938
100944.65
100951.25
100957.87
100964.52
100971.13
100977.79
100984.46
100847.62
100845.54
100851.81
100860.99
100870.02
100878.69
100887.2
100895.56
100903.72
100911.63
100919.28
100926.68
100933.81
100940.78
100947.55
100954.16
100960.71
100967.22
100973.77
100980.34
100986.88
100993.44
100856.15
100853.99
100860.25
100869.37
100878.34
100886.98
100895.5
100903.9
100912.12
100920.11
100927.84
100935.32
100942.54
100949.52
100956.33
100962.98
100969.49
100975.94
100982.37
100988.84
100995.32
101001.77
100863.95
100861.7
100867.93
100876.98
100885.9
100894.5
100903.01
100911.44
100919.72
100927.79
100935.61
100943.17
100950.48
100957.54
100964.36
100971.04
100977.56
100983.96
100990.33
100996.69
101003.08
101009.45
100871.1
100868.74
100874.91
100883.88
100892.72
100901.27
100909.76
100918.2
100926.51
100934.65
100942.57
100950.22
100957.62
100964.76
100971.66
100978.34
100984.89
100991.29
100997.6
101003.88
101010.17
101016.48
100877.64
100875.17
100881.26
100890.1
100898.83
100907.31
100915.76
100924.18
100932.51
100940.7
100948.7
100956.45
100963.95
100971.19
100978.18
100984.92
100991.47
100997.9
101004.19
101010.42
101016.61
101022.81
100883.57
100880.93
100886.95
100895.66
100904.26
100912.64
100921.02
100929.4
100937.72
100945.94
100954
100961.86
100969.47
100976.81
100983.9
100990.75
100997.34
101003.78
101010.08
101016.25
101022.39
101028.52
100888.91
100886.22
100892.13
100900.65
100909.08
100917.31
100925.57
100933.88
100942.17
100950.4
100958.5
100966.44
100974.15
100981.61
100988.81
100995.76
101002.45
101008.91
101015.23
101021.44
101027.53
101033.58
100893.85
100890.98
100896.68
100905
100913.24
100921.32
100929.45
100937.67
100945.9
100954.09
100962.21
100970.2
100978.01
100985.59
100992.91
100999.98
101006.79
101013.34
101019.69
101025.9
101032.01
101038.03
100898.18
100895.17
100900.73
100908.85
100916.86
100924.74
100932.72
100940.81
100948.94
100957.08
100965.17
100973.19
100981.06
100988.75
100996.2
101003.38
101010.33
101017.01
101023.45
101029.7
101035.82
101041.82
100902.12
100899.02
100904.32
100912.11
100919.91
100927.59
100935.39
100943.33
100951.34
100959.39
100967.43
100975.43
100983.34
100991.11
100998.68
101006.01
101013.07
101019.9
101026.47
101032.79
101038.94
101044.97
100905.6
100902.35
100907.43
100915
100922.56
100930
100937.57
100945.31
100953.16
100961.09
100969.05
100977
100984.9
100992.71
101000.37
101007.83
101015.05
101022.01
101028.72
101035.17
101041.39
101047.47
100908.78
100905.39
100910.29
100917.5
100924.69
100931.91
100939.26
100946.8
100954.48
100962.25
100970.08
100977.95
100985.81
100993.61
101001.33
101008.88
101016.24
101023.34
101030.23
101036.85
101043.2
101049.35
100911.61
100908.05
100912.7
100919.64
100926.57
100933.49
100940.6
100947.9
100955.36
100962.93
100970.61
100978.35
100986.13
100993.89
101001.61
101009.23
101016.69
101023.95
101030.97
101037.76
101044.3
101050.58
100914.21
100910.49
100914.91
100921.58
100928.13
100934.73
100941.62
100948.66
100955.86
100963.22
100970.71
100978.29
100985.94
100993.62
101001.3
101008.93
101016.45
101023.83
101031
101037.96
101044.67
101051.13
100916.6
100912.72
100916.87
100923.25
100929.56
100935.78
100942.26
100949.06
100956.05
100963.2
100970.46
100977.85
100985.34
100992.9
101000.48
101008.07
101015.61
101023.05
101030.34
101037.43
101044.34
101051.02
100918.8
100914.76
100918.63
100924.7
100930.72
100936.65
100942.83
100949.33
100956.04
100962.91
100969.94
100977.11
100984.41
100991.8
100999.26
101006.76
101014.26
101021.72
101029.08
101036.3
101043.34
101050.19
100920.88
100916.69
100920.28
100926.04
100931.75
100937.42
100943.23
100949.37
100955.82
100962.45
100969.23
100976.16
100983.23
100990.43
100997.73
101005.09
101012.5
101019.91
101027.28
101034.56
101041.71
101048.76
100922.87
100918.54
100921.83
100927.28
100932.69
100938.08
100943.66
100949.41
100955.47
100961.84
100968.36
100975.04
100981.87
100988.86
100995.97
101003.17
101010.44
101017.76
101025.09
101032.39
101039.61
101046.73
100924.79
100920.32
100923.33
100928.46
100933.55
100938.64
100943.93
100949.42
100955.13
100961.15
100967.42
100973.86
100980.43
100987.17
100994.06
101001.07
101008.18
101015.36
101022.6
101029.85
101037.08
101044.26
100926.68
100922.08
100924.8
100929.62
100934.42
100939.2
100944.21
100949.44
100954.83
100960.48
100966.46
100972.63
100978.94
100985.43
100992.08
100998.87
101005.79
101012.81
101019.91
101027.07
101034.25
101041.44
100928.56
100923.83
100926.27
100930.79
100935.29
100939.77
100944.48
100949.44
100954.59
100959.89
100965.47
100971.41
100977.5
100983.71
100990.1
100996.66
101003.36
101010.18
101017.11
101024.12
101031.21
101038.34
100930.46
100925.61
100927.77
100932
100936.21
100940.41
100944.82
100949.49
100954.39
100959.46
100964.68
100970.21
100976.05
100982.04
100988.17
100994.47
101000.94
101007.56
101014.29
101021.13
101028.07
101035.11
100932.39
100927.42
100929.31
100933.26
100937.19
100941.11
100945.24
100949.62
100954.24
100959.06
100964.04
100969.2
100974.7
100980.46
100986.34
100992.38
100998.6
101004.99
101011.51
101018.15
101024.91
101031.8
100934.39
100929.28
100930.91
100934.59
100938.26
100941.91
100945.77
100949.87
100954.21
100958.76
100963.51
100968.41
100973.52
100978.97
100984.64
100990.44
100996.4
101002.54
101008.83
101015.27
101021.83
101028.54
100936.46
100931.22
100932.59
100936.01
100939.43
100942.82
100946.42
100950.26
100954.32
100958.6
100963.1
100967.78
100972.59
100977.68
100983.08
100988.64
100994.36
101000.24
101006.3
101012.51
101018.86
101025.37
100938.63
100933.26
100934.37
100937.55
100940.72
100943.87
100947.21
100950.79
100954.59
100958.6
100962.84
100967.27
100971.89
100976.63
100981.69
100987.05
100992.52
100998.15
101003.96
101009.93
101016.06
101022.37
100940.92
100935.41
100936.27
100939.21
100942.15
100945.06
100948.16
100951.5
100955.04
100958.8
100962.78
100966.96
100971.35
100975.9
100980.58
100985.59
100990.9
100996.3
101001.85
101007.58
101013.47
101019.57
100943.35
100937.69
100938.3
100941.01
100943.73
100946.42
100949.29
100952.38
100955.69
100959.2
100962.92
100966.86
100970.99
100975.32
100979.81
100984.45
100989.44
100994.68
101000
101005.48
101011.13
101016.99
100945.93
100940.1
100940.46
100942.95
100945.46
100947.94
100950.59
100953.46
100956.54
100959.82
100963.31
100967
100970.9
100975
100979.29
100983.72
100988.34
100993.23
100998.35
101003.61
101009.04
101014.67
100948.68
100942.66
100942.76
100945.02
100947.35
100949.63
100952.07
100954.73
100957.59
100960.65
100963.91
100967.36
100971.02
100974.88
100978.94
100983.16
100987.52
100992.14
100997.03
101002.06
101007.24
101012.65
100951.6
100945.39
100945.22
100947.28
100949.43
100951.52
100953.77
100956.23
100958.88
100961.72
100964.76
100967.99
100971.42
100975.05
100978.87
100982.89
100987.06
100991.36
100995.94
101000.79
101005.76
101010.93
100954.7
100948.31
100947.9
100949.77
100951.74
100953.65
100955.71
100957.97
100960.42
100963.05
100965.87
100968.89
100972.1
100975.49
100979.09
100982.87
100986.84
100990.97
100995.23
100999.77
101004.57
101009.52
100957.98
100951.44
100950.8
100952.48
100954.28
100956.02
100957.89
100959.96
100962.21
100964.64
100967.26
100970.06
100973.05
100976.23
100979.6
100983.16
100986.91
100990.84
100994.92
100999.14
101003.64
101008.43
100961.47
100954.78
100953.92
100955.43
100957.07
100958.63
100960.32
100962.2
100964.27
100966.5
100968.92
100971.52
100974.3
100977.27
100980.42
100983.76
100987.29
100991
100994.88
100998.9
101003.09
101007.61
100965.16
100958.32
100957.26
100958.6
100960.08
100961.48
100963.01
100964.71
100966.59
100968.64
100970.86
100973.26
100975.84
100978.6
100981.54
100984.67
100987.98
100991.47
100995.14
100998.97
101002.94
101007.16
100969.06
100962.1
100960.84
100962.03
100963.36
100964.6
100965.95
100967.49
100969.19
100971.05
100973.09
100975.3
100977.68
100980.24
100982.97
100985.89
100988.98
100992.26
100995.71
100999.34
101003.12
101007.09
100973.18
100966.11
100964.66
100965.7
100966.88
100967.97
100969.16
100970.53
100972.06
100973.75
100975.6
100977.62
100979.81
100982.17
100984.71
100987.42
100990.31
100993.37
100996.61
101000.02
101003.6
101007.4
100977.5
100970.38
100968.76
100969.64
100970.68
100971.62
100972.65
100973.85
100975.21
100976.73
100978.4
100980.24
100982.24
100984.41
100986.75
100989.26
100991.95
100994.8
100997.83
101001.03
101004.4
101008.01
100982.03
100974.86
100973.1
100973.84
100974.73
100975.52
100976.4
100977.44
100978.64
100979.98
100981.48
100983.14
100984.96
100986.94
100989.09
100991.41
100993.89
100996.55
100999.37
101002.36
101005.53
101008.92
100986.76
100979.57
100977.68
100978.29
100979.04
100979.68
100980.41
100981.29
100982.33
100983.51
100984.84
100986.33
100987.97
100989.77
100991.73
100993.86
100996.15
100998.6
101001.23
101004.01
101006.97
101010.16
100991.67
100984.49
100982.48
100982.96
100983.57
100984.07
100984.65
100985.39
100986.27
100987.29
100988.46
100989.78
100991.25
100992.87
100994.65
100996.59
100998.69
101000.96
101003.39
101005.97
101008.73
101011.72
100996.74
100989.58
100987.48
100987.83
100988.32
100988.68
100989.13
100989.72
100990.46
100991.33
100992.34
100993.49
100994.79
100996.24
100997.85
100999.61
101001.53
101003.61
101005.84
101008.23
101010.79
101013.58
101001.99
100994.85
100992.66
100992.9
100993.26
100993.5
100993.82
100994.27
100994.87
100995.59
100996.45
100997.45
100998.59
100999.88
101001.31
101002.9
101004.64
101006.53
101008.58
101010.79
101013.15
101015.74
101007.38
101000.29
100998.02
100998.14
100998.39
100998.51
100998.7
100999.03
100999.49
101000.07
101000.79
101001.64
101002.62
101003.75
101005.02
101006.44
101008.01
101009.73
101011.6
101013.61
101015.79
101018.19
101012.92
101005.88
101003.54
101003.56
101003.7
101003.7
101003.78
101003.98
101004.31
101004.76
101005.34
101006.04
101006.88
101007.86
101008.97
101010.23
101011.63
101013.18
101014.87
101016.71
101018.7
101020.92
101018.59
101011.61
101009.22
101009.13
101009.16
101009.06
101009.03
101009.11
101009.32
101009.64
101010.09
101010.66
101011.35
101012.18
101013.14
101014.24
101015.48
101016.87
101018.39
101020.06
101021.88
101023.91
101024.39
101017.49
101015.04
101014.85
101014.78
101014.58
101014.44
101014.41
101014.5
101014.7
101015.02
101015.46
101016.02
101016.71
101017.53
101018.48
101019.56
101020.79
101022.15
101023.65
101025.29
101027.15
101030.3
101023.48
101020.98
101020.7
101020.54
101020.24
101019.99
101019.86
101019.84
101019.93
101020.13
101020.44
101020.87
101021.43
101022.1
101022.91
101023.85
101024.92
101026.12
101027.46
101028.94
101030.63
101036.3
101029.57
101027.04
101026.67
101026.41
101026.02
101025.68
101025.45
101025.33
101025.31
101025.39
101025.58
101025.89
101026.32
101026.86
101027.53
101028.32
101029.25
101030.3
101031.48
101032.8
101034.33
101042.38
101035.74
101033.19
101032.74
101032.39
101031.92
101031.49
101031.17
101030.94
101030.82
101030.79
101030.87
101031.06
101031.36
101031.78
101032.32
101032.98
101033.76
101034.67
101035.7
101036.86
101038.23
101048.52
101041.99
101039.42
101038.89
101038.46
101037.91
101037.39
101036.98
101036.67
101036.44
101036.32
101036.29
101036.37
101036.56
101036.85
101037.26
101037.79
101038.44
101039.21
101040.09
101041.11
101042.33
101054.71
101048.28
101045.7
101045.1
101044.6
101043.97
101043.38
101042.89
101042.48
101042.17
101041.95
101041.82
101041.79
101041.87
101042.05
101042.34
101042.75
101043.27
101043.9
101044.65
101045.53
101046.6
101060.95
101054.62
101052.03
101051.36
101050.79
101050.1
101049.44
101048.87
101048.38
101047.98
101047.67
101047.45
101047.32
101047.3
101047.37
101047.55
101047.84
101048.23
101048.74
101049.36
101050.1
101051.03
101067.21
101060.98
101058.39
101057.66
101057.03
101056.27
101055.54
101054.9
101054.34
101053.86
101053.47
101053.16
101052.94
101052.82
101052.79
101052.86
101053.04
101053.32
101053.71
101054.2
101054.81
101055.6
101073.48
101067.36
101064.77
101063.99
101063.29
101062.48
101061.69
101060.98
101060.35
101059.8
101059.33
101058.94
101058.63
101058.42
101058.29
101058.26
101058.34
101058.51
101058.78
101059.16
101059.64
101060.31
101079.76
101073.75
101071.15
101070.32
101069.57
101068.71
101067.86
101067.1
101066.4
101065.78
101065.24
101064.77
101064.38
101064.08
101063.87
101063.75
101063.72
101063.79
101063.95
101064.21
101064.58
101065.13
101086.03
101080.13
101077.54
101076.66
101075.86
101074.95
101074.05
101073.23
101072.48
101071.8
101071.18
101070.64
101070.18
101069.8
101069.5
101069.29
101069.17
101069.14
101069.21
101069.36
101069.62
101070.05
101092.29
101086.49
101083.91
101082.99
101082.14
101081.18
101080.24
101079.37
101078.57
101077.82
101077.15
101076.54
101076.01
101075.56
101075.18
101074.89
101074.68
101074.56
101074.53
101074.58
101074.73
101075.06
101098.53
101092.82
101090.25
101089.29
101088.41
101087.41
101086.43
101085.51
101084.66
101083.86
101083.13
101082.46
101081.87
101081.34
101080.89
101080.52
101080.23
101080.03
101079.91
101079.87
101079.92
101080.14
101104.73
101099.12
101096.56
101095.57
101094.65
101093.62
101092.6
101091.64
101090.74
101089.89
101089.11
101088.39
101087.73
101087.14
101086.62
101086.18
101085.82
101085.53
101085.33
101085.2
101085.16
101085.28
101110.88
101105.38
101102.83
101101.81
101100.86
101099.79
101098.74
101097.74
101096.8
101095.91
101095.08
101094.3
101093.59
101092.95
101092.37
101091.86
101091.42
101091.06
101090.78
101090.57
101090.44
101090.47
101116.99
101111.59
101109.05
101108.01
101107.02
101105.93
101104.84
101103.81
101102.83
101101.9
101101.03
101100.21
101099.45
101098.74
101098.11
101097.54
101097.03
101096.61
101096.25
101095.96
101095.75
101095.69
101123.04
101117.73
101115.21
101114.14
101113.14
101112.02
101110.9
101109.84
101108.83
101107.87
101106.95
101106.09
101105.28
101104.53
101103.84
101103.21
101102.65
101102.15
101101.73
101101.36
101101.08
101100.94
101129.03
101123.82
101121.31
101120.22
101119.19
101118.05
101116.91
101115.83
101114.78
101113.79
101112.83
101111.93
101111.08
101110.28
101109.54
101108.86
101108.25
101107.69
101107.2
101106.77
101106.42
101106.21
101134.94
101129.83
101127.34
101126.23
101125.18
101124.02
101122.86
101121.75
101120.68
101119.66
101118.67
101117.74
101116.85
101116.01
101115.22
101114.5
101113.83
101113.22
101112.67
101112.18
101111.75
101111.47
101140.78
101135.76
101133.3
101132.17
101131.1
101129.93
101128.75
101127.62
101126.53
101125.47
101124.46
101123.49
101122.57
101121.69
101120.87
101120.09
101119.38
101118.72
101118.12
101117.57
101117.08
101116.73
101146.54
101141.61
101139.17
101138.03
101136.95
101135.76
101134.57
101133.42
101132.3
101131.23
101130.19
101129.19
101128.24
101127.33
101126.47
101125.65
101124.89
101124.19
101123.54
101122.93
101122.39
101121.98
101152.21
101147.38
101144.96
101143.81
101142.71
101141.51
101140.31
101139.14
101138.01
101136.91
101135.85
101134.83
101133.85
101132.91
101132.01
101131.16
101130.36
101129.62
101128.92
101128.27
101127.67
101127.21
101157.8
101153.05
101150.66
101149.5
101148.39
101147.18
101145.97
101144.79
101143.64
101142.53
101141.45
101140.4
101139.39
101138.43
101137.5
101136.62
101135.78
101135
101134.26
101133.56
101132.92
101132.4
101163.29
101158.64
101156.27
101155.1
101153.98
101152.76
101151.54
101150.35
101149.19
101148.06
101146.97
101145.9
101144.87
101143.88
101142.93
101142.02
101141.15
101140.33
101139.55
101138.81
101138.12
101137.56
101168.68
101164.12
101161.77
101160.6
101159.48
101158.25
101157.03
101155.83
101154.66
101153.52
101152.4
101151.32
101150.27
101149.26
101148.28
101147.35
101146.45
101145.6
101144.79
101144.01
101143.28
101142.67
101173.98
101169.5
101167.18
101166.01
101164.88
101163.65
101162.42
101161.21
101160.04
101158.88
101157.76
101156.66
101155.6
101154.57
101153.57
101152.61
101151.69
101150.8
101149.96
101149.15
101148.39
101147.74
101179.17
101174.78
101172.49
101171.31
101170.18
101168.95
101167.71
101166.51
101165.32
101164.16
101163.03
101161.92
101160.84
101159.79
101158.78
101157.79
101156.85
101155.94
101155.07
101154.23
101153.43
101152.75
101184.27
101179.96
101177.69
101176.51
101175.38
101174.15
101172.91
101171.7
101170.51
101169.35
101168.21
101167.09
101166
101164.94
101163.9
101162.9
101161.94
101161.01
101160.11
101159.25
101158.42
101157.7
101189.26
101185.03
101182.79
101181.61
101180.48
101179.25
101178.02
101176.8
101175.61
101174.44
101173.29
101172.17
101171.07
101169.99
101168.95
101167.93
101166.95
101166
101165.08
101164.19
101163.33
101162.59
101194.14
101190
101187.79
101186.61
101185.48
101184.25
101183.02
101181.81
101180.61
101179.44
101178.29
101177.16
101176.05
101174.96
101173.91
101172.88
101171.88
101170.91
101169.98
101169.06
101168.18
101167.41
101198.92
101194.86
101192.68
101191.5
101190.37
101189.15
101187.92
101186.71
101185.52
101184.34
101183.19
101182.05
101180.94
101179.85
101178.78
101177.74
101176.73
101175.75
101174.79
101173.86
101172.96
101172.16
101203.6
101199.62
101197.46
101196.29
101195.16
101193.95
101192.72
101191.51
101190.32
101189.15
101187.99
101186.85
101185.73
101184.64
101183.57
101182.52
101181.5
101180.5
101179.53
101178.58
101177.66
101176.84
101208.17
101204.27
101202.14
101200.98
101199.85
101198.64
101197.42
101196.21
101195.03
101193.85
101192.7
101191.56
101190.44
101189.34
101188.26
101187.2
101186.17
101185.17
101184.19
101183.22
101182.29
101181.45
101212.64
101208.82
101206.72
101205.56
101204.44
101203.23
101202.02
101200.82
101199.63
101198.46
101197.31
101196.17
101195.05
101193.95
101192.87
101191.8
101190.77
101189.75
101188.76
101187.79
101186.83
101185.98
101217
101213.26
101211.19
101210.03
101208.92
101207.73
101206.52
101205.32
101204.14
101202.98
101201.83
101200.69
101199.57
101198.46
101197.38
101196.32
101195.27
101194.25
101193.25
101192.27
101191.3
101190.43
101221.26
101217.6
101215.56
101214.41
101213.3
101212.12
101210.92
101209.73
101208.56
101207.39
101206.25
101205.11
101203.99
101202.89
101201.8
101200.74
101199.69
101198.66
101197.66
101196.66
101195.69
101194.8
101225.42
101221.84
101219.83
101218.69
101217.59
101216.41
101215.22
101214.04
101212.87
101211.72
101210.57
101209.44
101208.32
101207.22
101206.14
101205.07
101204.02
101202.99
101201.98
101200.98
101200
101199.1
101229.48
101225.97
101223.99
101222.86
101221.77
101220.6
101219.42
101218.25
101217.09
101215.94
101214.8
101213.67
101212.56
101211.46
101210.38
101209.31
101208.26
101207.23
101206.21
101205.21
101204.22
101203.32
101233.44
101230
101228.05
101226.93
101225.85
101224.69
101223.52
101222.35
101221.2
101220.06
101218.93
101217.81
101216.7
101215.61
101214.53
101213.46
101212.41
101211.38
101210.36
101209.35
101208.36
101207.45
101237.29
101233.93
101232.01
101230.9
101229.83
101228.68
101227.52
101226.37
101225.23
101224.09
101222.97
101221.86
101220.76
101219.67
101218.59
101217.53
101216.48
101215.45
101214.43
101213.42
101212.42
101211.5
101241.05
101237.76
101235.88
101234.77
101233.71
101232.58
101231.43
101230.28
101229.15
101228.03
101226.92
101225.81
101224.71
101223.63
101222.56
101221.5
101220.45
101219.42
101218.41
101217.4
101216.4
101215.48
101244.71
101241.5
101239.64
101238.55
101237.5
101236.38
101235.24
101234.11
101232.99
101231.87
101230.77
101229.67
101228.58
101227.51
101226.44
101225.38
101224.34
101223.32
101222.3
101221.29
101220.29
101219.37
101248.27
101245.14
101243.31
101242.23
101241.19
101240.08
101238.95
101237.83
101236.73
101235.62
101234.53
101233.44
101232.36
101231.29
101230.23
101229.18
101228.15
101227.12
101226.11
101225.1
101224.1
101223.18
101251.74
101248.68
101246.89
101245.81
101244.78
101243.69
101242.57
101241.47
101240.37
101239.28
101238.19
101237.12
101236.05
101234.98
101233.93
101232.89
101231.86
101230.84
101229.83
101228.83
101227.83
101226.91
101255.11
101252.12
101250.36
101249.3
101248.29
101247.2
101246.1
101245.01
101243.92
101242.84
101241.77
101240.7
101239.64
101238.59
101237.55
101236.51
101235.49
101234.48
101233.47
101232.47
101231.48
101230.56
101258.39
101255.47
101253.75
101252.7
101251.69
101250.62
101249.54
101248.46
101247.39
101246.32
101245.26
101244.2
101243.15
101242.11
101241.08
101240.05
101239.03
101238.03
101237.03
101236.04
101235.05
101234.13
101261.57
101258.73
101257.04
101256
101255.01
101253.96
101252.88
101251.82
101250.76
101249.71
101248.66
101247.61
101246.57
101245.54
101244.52
101243.5
101242.49
101241.5
101240.51
101239.52
101238.54
101237.62
101264.66
101261.9
101260.24
101259.22
101258.24
101257.2
101256.14
101255.09
101254.04
101253
101251.96
101250.93
101249.91
101248.89
101247.87
101246.87
101245.87
101244.88
101243.9
101242.92
101241.94
101241.03
101267.66
101264.97
101263.34
101262.34
101261.37
101260.34
101259.3
101258.27
101257.24
101256.21
101255.19
101254.17
101253.15
101252.15
101251.14
101250.15
101249.16
101248.18
101247.21
101246.24
101245.27
101244.36
101270.57
101267.95
101266.36
101265.37
101264.42
101263.41
101262.38
101261.36
101260.34
101259.33
101258.32
101257.32
101256.32
101255.32
101254.33
101253.35
101252.37
101251.4
101250.44
101249.48
101248.52
101247.62
101273.4
101270.85
101269.29
101268.31
101267.37
101266.38
101265.37
101264.37
101263.37
101262.37
101261.37
101260.38
101259.4
101258.41
101257.44
101256.47
101255.5
101254.54
101253.59
101252.64
101251.69
101250.8
101276.14
101273.66
101272.14
101271.17
101270.25
101269.27
101268.28
101267.29
101266.31
101265.32
101264.34
101263.37
101262.4
101261.43
101260.46
101259.51
101258.55
101257.61
101256.67
101255.72
101254.79
101253.9
101278.79
101276.39
101274.9
101273.95
101273.04
101272.08
101271.11
101270.13
101269.16
101268.2
101267.23
101266.27
101265.32
101264.36
101263.41
101262.47
101261.53
101260.59
101259.67
101258.73
101257.81
101256.93
101281.37
101279.03
101277.57
101276.64
101275.75
101274.81
101273.85
101272.89
101271.94
101270.99
101270.05
101269.1
101268.16
101267.22
101266.28
101265.35
101264.43
101263.51
101262.59
101261.67
101260.76
101259.89
101283.86
101281.6
101280.18
101279.26
101278.38
101277.46
101276.52
101275.58
101274.64
101273.71
101272.78
101271.85
101270.92
101270
101269.08
101268.16
101267.25
101266.35
101265.44
101264.54
101263.63
101262.78
101286.28
101284.08
101282.7
101281.8
101280.94
101280.03
101279.11
101278.19
101277.27
101276.35
101275.44
101274.53
101273.62
101272.71
101271.81
101270.9
101270.01
101269.11
101268.22
101267.33
101266.44
101265.6
101288.62
101286.49
101285.15
101284.26
101283.42
101282.53
101281.62
101280.72
101279.82
101278.92
101278.03
101277.13
101276.24
101275.35
101274.46
101273.57
101272.69
101271.81
101270.94
101270.06
101269.18
101268.36
101290.89
101288.83
101287.52
101286.65
101285.82
101284.95
101284.07
101283.18
101282.3
101281.42
101280.54
101279.66
101278.79
101277.91