/*--------------------------------*- C++ -*----------------------------------*\
| =========                 |                                                 |
| \\      /  F ield         | OpenFOAM: The Open Source CFD Toolbox           |
|  \\    /   O peration     | Version:  2406                                  |
|   \\  /    A nd           | Website:  www.openfoam.com                      |
|    \\/     M anipulation  |                                                 |
\*---------------------------------------------------------------------------*/
FoamFile
{
    version     2.0;
    format      ascii;
    arch        "LSB;label=32;scalar=64";
    class       volScalarField;
    location    "0.017";
    object      nut;
}
// * * * * * * * * * * * * * * * * * * * * * * * * * * * * * * * * * * * * * //

dimensions      [0 2 -1 0 0 0 0];

internalField   nonuniform List<scalar> 
23203
(
0.0072977979
0.0072701577
0.0073014297
0.0073951456
0.0075546357
0.0077830878
0.0080836623
0.0084595744
0.0089139088
0.0094493378
0.010067754
0.010769959
0.011555509
0.012422756
0.013369036
0.014390964
0.01548482
0.016647122
0.017875908
0.019174318
0.020540881
0.021963078
0.023432869
0.007350444
0.0073151774
0.0073397656
0.0074278877
0.0075830225
0.0078083581
0.00810696
0.0084818023
0.0089356376
0.0094707675
0.010088754
0.010790175
0.011574504
0.012440148
0.013384621
0.014404821
0.015497414
0.016659396
0.017888953
0.019186133
0.02054802
0.021966082
0.023432272
0.0074064456
0.0073644888
0.0073834151
0.0074669884
0.007618743
0.0078418531
0.0081392684
0.0085137307
0.0089676857
0.0095031016
0.010121245
0.01082249
0.011606233
0.012470928
0.013414246
0.014433329
0.015525135
0.016686874
0.01791644
0.01921223
0.020570696
0.021985191
0.02344861
0.0074679571
0.0074202636
0.0074344581
0.0075143891
0.0076636284
0.0078853144
0.0081822597
0.0085569819
0.0090116408
0.0095479005
0.010166759
0.010868406
0.01165216
0.012516509
0.013459256
0.014477733
0.015569093
0.016730601
0.017959809
0.019254194
0.020609851
0.022020919
0.023481077
0.0075373126
0.0074847114
0.0074949826
0.0075720773
0.0077195628
0.00794052
0.0082376269
0.0086131836
0.0090690792
0.0096066958
0.010226784
0.010929359
0.011713663
0.012578203
0.013520879
0.014539165
0.01563033
0.016791624
0.01802031
0.019313314
0.020666374
0.022073134
0.0076169194
0.0075601064
0.0075671501
0.0076420718
0.0077884393
0.008009268
0.0083070861
0.0086839816
0.0091415854
0.0096810149
0.01030279
0.01100676
0.011792085
0.012657275
0.013600297
0.014618722
0.015709887
0.016871005
0.018099147
0.019390965
0.020742209
0.022147321
0.007709244
0.0076487704
0.0076531338
0.0077264413
0.0078722316
0.0080934186
0.0083924019
0.0087710572
0.0092307651
0.0097723923
0.01039624
0.011101997
0.011888738
0.012754958
0.013698661
0.014717483
0.015808798
0.016969796
0.018197442
0.019488303
0.020838309
0.022242659
0.0078168611
0.007753178
0.0077552945
0.0078273683
0.0079730016
0.0081949282
0.0084954233
0.008876152
0.0093382591
0.0098823757
0.010508594
0.011216447
0.012004912
0.012872453
0.013817091
0.014836498
0.015928075
0.017089005
0.018316219
0.019606303
0.020955414
0.022359294
0.0079423163
0.0078757986
0.0078759804
0.0079472295
0.0080929525
0.0083158463
0.0086180474
0.0090010258
0.0094657091
0.010012503
0.010641296
0.011351459
0.012141866
0.013010932
0.013956676
0.014976788
0.016068693
0.017229581
0.018456399
0.019745808
0.021094174
0.022497611
0.0080877732
0.0080187671
0.008017323
0.0080878885
0.0082338052
0.0084578803
0.0087619432
0.0091472963
0.0096146702
0.010164256
0.010795743
0.011508343
0.012300819
0.013171527
0.014118466
0.015139334
0.016231575
0.017392406
0.018618816
0.01990756
0.02125519
0.022658077
0.0082553674
0.0081841015
0.0081812217
0.0082511973
0.0083975317
0.0086228134
0.0089287902
0.0093165736
0.0097866806
0.010339092
0.010973306
0.011688377
0.012482956
0.01335533
0.014303468
0.015325068
0.016417592
0.017578292
0.018804216
0.02009222
0.021439013
0.022841162
0.0084476362
0.0083743117
0.008370108
0.0084396015
0.0085862953
0.0088126934
0.0091204818
0.0095105934
0.0099833357
0.010538482
0.011175341
0.01189281
0.012689422
0.013563387
0.014512638
0.015534866
0.016627549
0.017787979
0.019013268
0.020300375
0.021646145
0.0230473
0.0086669028
0.0085916716
0.0085861819
0.0086551636
0.0088020873
0.0090294485
0.009338841
0.0097310509
0.0102062
0.010763864
0.011403165
0.012122843
0.012921308
0.013796689
0.014746874
0.01576954
0.016862183
0.018022132
0.019246567
0.020532543
0.021877027
0.023276874
0.0089152541
0.0088382321
0.0088314504
0.0088998066
0.0090467832
0.0092748627
0.0095855607
0.0099795386
0.010456754
0.011016602
0.011658027
0.01237961
0.01317964
0.014056159
0.015007003
0.016029832
0.017122155
0.018281338
0.019504628
0.020789169
0.022132039
0.02353021
0.0091946427
0.0091159529
0.0091078408
0.0091754011
0.0093221612
0.0095506193
0.0098622296
0.010257546
0.010736383
0.011297969
0.011941084
0.012664159
0.013465359
0.014342635
0.01529377
0.016316402
0.017408046
0.018566107
0.019787891
0.021070627
0.022411494
0.023807573
0.0095068413
0.0094266155
0.0094171366
0.0094837288
0.0096298977
0.009858299
0.010170327
0.010566449
0.011046355
0.011609127
0.012253392
0.012977437
0.013779307
0.014656863
0.01560783
0.01662982
0.017720352
0.018876863
0.020096716
0.021377219
0.022715642
0.024109167
0.0098534009
0.0097717378
0.0097608001
0.0098261254
0.0099714248
0.010199305
0.010511186
0.01090749
0.011387814
0.011951116
0.012595884
0.013320275
0.014122217
0.014999483
0.015949736
0.016970561
0.018059476
0.019213945
0.020431385
0.021709172
0.023044665
0.024435136
0.01023567
0.010152659
0.010140079
0.010203934
0.010348037
0.010574883
0.010885984
0.011281763
0.011761759
0.012324836
0.012969363
0.013693379
0.014494703
0.015371021
0.016319936
0.017339
0.018425729
0.019577608
0.020792098
0.022066644
0.023398682
0.024785571
0.01065488
0.010570695
0.010556535
0.010618654
0.010760966
0.010986146
0.011295743
0.011690203
0.01216904
0.012731045
0.013374496
0.014097325
0.014897256
0.01577189
0.01671877
0.017735414
0.018819329
0.019968018
0.021178982
0.022449724
0.023777753
0.025160505
0.011111973
0.01102678
0.011010948
0.01107103
0.011211085
0.011433957
0.011741288
0.012133577
0.012610347
0.013170355
0.01381181
0.014532562
0.015330246
0.016202388
0.017146473
0.018159981
0.019240406
0.020385264
0.02159209
0.022858436
0.02418188
0.025559929
0.011607676
0.011521634
0.011504046
0.011561799
0.011699117
0.011919018
0.012223278
0.01261249
0.013086224
0.013643239
0.014281707
0.014999417
0.015793933
0.016662713
0.017603185
0.018612791
0.01968901
0.020829364
0.022031412
0.023292752
0.024611021
0.025983793
0.012142514
0.012055787
0.012036369
0.012091505
0.012225596
0.01244185
0.012742208
0.013127398
0.013597078
0.014150048
0.014784477
0.015498118
0.016288485
0.017152976
0.018088968
0.019093866
0.020165128
0.021300275
0.022496887
0.0237526
0.025065097
0.026432018
0.01271685
0.012629599
0.012608285
0.012660525
0.012790904
0.013002829
0.013298442
0.013678639
0.014143211
0.014691037
0.015320323
0.016028817
0.016813999
0.017673226
0.018603829
0.019603176
0.020668702
0.021797921
0.022988426
0.02423788
0.025544012
0.026904512
0.013330921
0.0132433
0.013220029
0.013269106
0.013395297
0.013602222
0.013892244
0.014266467
0.014724853
0.015266407
0.015889406
0.016591627
0.017370545
0.018223489
0.019147755
0.020140674
0.021199658
0.02232221
0.023505925
0.024748489
0.026047664
0.027401186
0.013984893
0.013897041
0.013871753
0.013917409
0.014038952
0.014240222
0.014523821
0.014891093
0.015342207
0.015876337
0.016491876
0.017186664
0.017958199
0.018803802
0.019720745
0.02070633
0.021757943
0.02287307
0.024049305
0.025284344
0.026575976
0.027921974
0.01467891
0.014590947
0.01456358
0.014605567
0.014722023
0.014917007
0.015193375
0.015552732
0.015995495
0.016521044
0.017127929
0.017814095
0.018577092
0.01941426
0.020322859
0.021300172
0.022343559
0.023450486
0.024618539
0.025845416
0.027128923
0.028466861
0.015413167
0.015325189
0.015295672
0.015333752
0.015444703
0.0156328
0.015901158
0.016251663
0.01668501
0.017200824
0.017797854
0.018474187
0.019227464
0.020055066
0.020954266
0.021922334
0.022956609
0.024054538
0.02521369
0.02643176
0.027706561
0.029035913
0.016187971
0.016100046
0.016068296
0.016102238
0.016207288
0.01638793
0.016647535
0.016988285
0.017411175
0.017916113
0.018502085
0.019167361
0.019909709
0.020726583
0.02161529
0.022573103
0.023597347
0.024685449
0.025834959
0.027043561
0.028309067
0.029629309
0.017003788
0.016915959
0.016881887
0.016911481
0.017010247
0.017182895
0.017433039
0.017763164
0.018174588
0.01866753
0.01924125
0.019894239
0.020624429
0.021429384
0.022306466
0.023252972
0.024266224
0.025343631
0.026482726
0.027681174
0.028936781
0.030247379
0.017861222
0.017773506
0.017737026
0.017762018
0.017854155
0.01801831
0.018258342
0.018577038
0.018976046
0.019455915
0.020016212
0.020655691
0.021372484
0.022164298
0.023028585
0.023962686
0.024963936
0.026029736
0.027157598
0.028345172
0.029590246
0.030890646
0.018761197
0.018673554
0.01863452
0.01865471
0.018739908
0.018895084
0.019124395
0.019430914
0.019816612
0.020282383
0.020828123
0.021452882
0.022155032
0.022932462
0.023782746
0.024703297
0.02569148
0.026744701
0.02786046
0.029036387
0.030270252
0.03155987
0.019705155
0.019617514
0.019575771
0.019590989
0.019668915
0.019814697
0.0200327
0.020326299
0.020697805
0.021148463
0.021678523
0.022287354
0.022973605
0.023735379
0.024570409
0.025476208
0.026450198
0.027489802
0.02859252
0.029755966
0.03097789
0.032256091
0.020694845
0.020607136
0.020562523
0.020572484
0.020642815
0.020778807
0.020984987
0.021264995
0.02162148
0.022056053
0.022569334
0.02316104
0.023830125
0.024574948
0.02539343
0.02628322
0.02724182
0.028266696
0.029355357
0.03050541
0.03171459
0.032980676
0.021732247
0.021644368
0.021596711
0.021601187
0.021663643
0.021789449
0.02198331
0.022249111
0.022589814
0.023007393
0.023502846
0.024076259
0.024726924
0.025453484
0.026254091
0.02712656
0.028068506
0.029077462
0.030150966
0.031286628
0.032482174
0.033735367
0.022819905
0.022731745
0.02268086
0.02267963
0.022733921
0.022849165
0.023030236
0.023281244
0.023605445
0.024005169
0.02448179
0.025035778
0.025666783
0.026373766
0.027155141
0.028008928
0.028932888
0.029924649
0.030981801
0.032101977
0.033282902
0.034522329
0.023960809
0.023872232
0.023817918
0.023810755
0.023856571
0.023960897
0.02412874
0.024364414
0.024671456
0.025052525
0.025509368
0.026042842
0.026652972
0.027339064
0.02809983
0.028933529
0.029838106
0.030811314
0.031850824
0.032954312
0.034119521
0.035344202
0.025158638
0.025069502
0.025011532
0.024998188
0.025035286
0.025128389
0.025282576
0.025502389
0.025791623
0.026153254
0.026589393
0.02710128
0.02768933
0.028353214
0.029091969
0.02990413
0.030787858
0.03174107
0.032761548
0.033847037
0.034995317
0.036204153
0.026417658
0.026327854
0.026266025
0.026246262
0.026274369
0.026355898
0.026496048
0.02669951
0.026970316
0.027311749
0.027726273
0.028215517
0.028780288
0.02942064
0.030135961
0.030925091
0.031786444
0.032718135
0.033718091
0.034784155
0.035914169
0.037105933
0.027742514
0.027651934
0.027586049
0.02755965
0.027578495
0.027648159
0.027773902
0.027960558
0.028212367
0.028532895
0.02892495
0.029390537
0.029930863
0.030546373
0.03123683
0.032001407
0.032838807
0.033747376
0.034725222
0.035770323
0.036880609
0.038053937
0.029138539
0.029047095
0.028976966
0.028943729
0.028953077
0.029010564
0.029121537
0.029290951
0.029523234
0.029822208
0.030190997
0.030631969
0.031146725
0.031736111
0.032400279
0.033138764
0.033950588
0.034834367
0.035788428
0.036810917
0.037899885
0.039053276
0.030611894
0.030519552
0.030445014
0.030404741
0.030404367
0.030449442
0.030545341
0.030697091
0.030909325
0.031186103
0.031530841
0.031946258
0.032434336
0.032996327
0.033632781
0.034343618
0.035128206
0.035985466
0.036913982
0.037912103
0.03897804
0.040109852
0.03216944
0.032076233
0.031997181
0.031949731
0.031939451
0.03197188
0.032052396
0.032186121
0.032377832
0.0326318
0.032951728
0.033340669
0.033800984
0.034334322
0.034941645
0.035623266
0.036378928
0.037207889
0.038109022
0.039080922
0.040121993
0.041230449
0.033818644
0.03372466
0.033641027
0.033586308
0.033565996
0.033585586
0.033650454
0.033765819
0.033936578
0.034167197
0.034461633
0.034823256
0.035254784
0.035758264
0.036335065
0.036985914
0.037710948
0.038509792
0.039381643
0.040325379
0.041339639
0.042422825
0.035567926
0.035473367
0.035385173
0.035323161
0.035292743
0.035299367
0.035348419
0.035445164
0.035594585
0.035801349
0.03606965
0.036403148
0.036804906
0.037277353
0.03782227
0.038440803
0.039133502
0.03990038
0.040740999
0.041654551
0.042639951
0.043695827
0.037426544
0.03733176
0.037239152
0.037169941
0.037129448
0.037123071
0.037156207
0.037234135
0.037361931
0.037544414
0.037785991
0.038090599
0.038461639
0.038901914
0.039413613
0.039998304
0.040656963
0.041390017
0.042197413
0.043078698
0.0440331
0.045059511
0.039404425
0.039309898
0.039213137
0.039136943
0.039086543
0.03906727
0.039084485
0.039143467
0.03924942
0.039407291
0.039621677
0.039896764
0.040236261
0.040643333
0.041120569
0.041669962
0.042292922
0.042990308
0.043762482
0.044609378
0.045530571
0.046525264
0.041512451
0.041418863
0.04131838
0.041235576
0.041175574
0.041143635
0.041145083
0.041185226
0.041269309
0.041402353
0.041589176
0.0418342
0.042141422
0.042514351
0.042955964
0.043468675
0.044054334
0.044714246
0.04544921
0.046259575
0.047145303
0.048105941
0.043762353
0.043670637
0.043567093
0.043478278
0.043409201
0.043365041
0.043351074
0.043372612
0.043434892
0.043543085
0.04370215
0.043916726
0.044191086
0.044529066
0.044934019
0.045408772
0.045955618
0.046576317
0.047272123
0.048043827
0.04889181
0.049816
0.046166584
0.046077945
0.045972249
0.045878268
0.045800887
0.045745192
0.045716397
0.045719787
0.045760634
0.045844192
0.045975511
0.046159464
0.046400573
0.046702982
0.047070406
0.047506078
0.048012732
0.048592587
0.049247367
0.049978329
0.0507863
0.051671625
0.048738313
0.04865429
0.048547665
0.048449677
0.048365075
0.048298837
0.048256101
0.048242119
0.04826219
0.048321562
0.048425435
0.048578851
0.048786568
0.049053024
0.049382276
0.049777955
0.050243223
0.050780765
0.051392783
0.052081018
0.052846767
0.053690827
0.051491255
0.051413766
0.051307794
0.051207323
0.051116951
0.051041534
0.050986119
0.050955899
0.050956157
0.050992174
0.051069265
0.051192568
0.051367087
0.051597525
0.051888262
0.052243307
0.052666249
0.053160232
0.053727944
0.054371621
0.055093054
0.055893517
0.05443952
0.054370914
0.054267595
0.054166589
0.054072328
0.053989526
0.05392312
0.053878229
0.053860103
0.053874065
0.05392542
0.054019459
0.054161371
0.05435611
0.054608361
0.054922493
0.055302503
0.055751989
0.056274121
0.05687164
0.057546849
0.058301521
0.057597388
0.057540489
0.057442295
0.057343186
0.05724741
0.057159526
0.057084338
0.057026865
0.056992297
0.056985942
0.057013134
0.057079294
0.0571897
0.057349559
0.057563831
0.05783722
0.058174118
0.05857856
0.059054199
0.05960428
0.060231627
0.060938534
0.060979021
0.060937173
0.060847089
0.060752842
0.060658477
0.060568375
0.060487185
0.060419802
0.06037133
0.060347034
0.060352291
0.060392495
0.060473089
0.060599465
0.060776837
0.061010219
0.061304367
0.061663736
0.062092444
0.062594239
0.063172472
0.063829967
0.064598166
0.064575267
0.064496841
0.064411007
0.064321588
0.064232763
0.064149006
0.064075059
0.064015905
0.063976734
0.063962893
0.063979807
0.064033038
0.064128042
0.06427029
0.064465066
0.064717464
0.065032337
0.065414255
0.065867462
0.066395826
0.06700271
0.068467753
0.068468268
0.068405631
0.06833237
0.068252062
0.068168667
0.068086454
0.068009987
0.067944104
0.067893884
0.06786461
0.067861716
0.067890709
0.067957242
0.068066933
0.068225317
0.068437778
0.068709531
0.06904557
0.069450608
0.069929024
0.070484712
0.07259952
0.072628506
0.0725864
0.072530511
0.072464151
0.072391033
0.072315197
0.072241003
0.072173109
0.072116457
0.07207623
0.072057815
0.072066724
0.072108631
0.072189245
0.072314345
0.072489587
0.072720507
0.073012473
0.073370631
0.073799842
0.074304518
0.077003549
0.077066663
0.077050466
0.077017423
0.076970558
0.076913317
0.07684949
0.0767832
0.076718899
0.076661344
0.076615578
0.076586889
0.076580768
0.07660283
0.076658933
0.076754913
0.076896685
0.077090057
0.07734073
0.077654253
0.07803594
0.078490695
0.081687717
0.08179117
0.081806855
0.081802759
0.081781603
0.081746546
0.081701102
0.081649136
0.081594856
0.081542806
0.081497845
0.08146512
0.081450037
0.081458203
0.081495387
0.081567563
0.081680773
0.081841072
0.082054439
0.082326769
0.082663788
0.083070851
0.086657376
0.086807876
0.086861968
0.086893518
0.086904924
0.086899046
0.086879101
0.086848667
0.086811682
0.086772442
0.086735585
0.086706073
0.086689172
0.08669041
0.086715494
0.086770397
0.086861208
0.086994178
0.087175524
0.08741143
0.087707961
0.08807087
0.091915131
0.092119817
0.092219349
0.092293793
0.092345222
0.092376179
0.092389567
0.092388657
0.09237709
0.092358878
0.092338399
0.092320385
0.092309901
0.092312322
0.092333291
0.092378651
0.092454586
0.092567329
0.092723309
0.092928925
0.09319052
0.093514188
0.09746059
0.097726955
0.097879387
0.098004448
0.098103876
0.098179886
0.098235057
0.09827233
0.098295025
0.098306843
0.098311864
0.098314547
0.098319711
0.098332523
0.098358472
0.098403319
0.098473073
0.098574058
0.098712743
0.098895694
0.09912945
0.09942037
0.10329013
0.10362595
0.10383911
0.10402291
0.10417875
0.10430852
0.10441445
0.10449914
0.10456558
0.10461712
0.10465751
0.10469091
0.10472185
0.10475523
0.10479633
0.10485077
0.10492439
0.10502341
0.10515429
0.10532365
0.1055382
0.10580447
0.10939673
0.10980999
0.11009199
0.11034299
0.11056402
0.11075665
0.11092277
0.11106463
0.11118485
0.11128642
0.11137276
0.11144766
0.11151534
0.11158039
0.11164781
0.11172298
0.11181162
0.11191969
0.11205358
0.11221986
0.11242532
0.1126766
0.11576981
0.11626861
0.11662779
0.11695467
0.11724995
0.11751486
0.11775094
0.11796009
0.11814455
0.11830697
0.11845036
0.11857817
0.11869423
0.11880281
0.11890858
0.11901662
0.11913239
0.11926169
0.11941063
0.11958576
0.1197937
0.12004117
0.12239508
0.12298757
0.12343238
0.12384398
0.12422272
0.1245695
0.12488554
0.12517235
0.12543183
0.12566623
0.12587819
0.12607075
0.12624737
0.12641193
0.12656874
0.12672254
0.12687846
0.12704206
0.12721922
0.12741618
0.12763951
0.12789578
0.12925466
0.12994891
0.13048782
0.13099299
0.13146447
0.13190281
0.13230889
0.13268389
0.13302932
0.13334705
0.13363932
0.13390878
0.13415847
0.13439188
0.13461292
0.13482594
0.13503572
0.13524748
0.13546684
0.13569972
0.13595244
0.13623139
0.13632734
0.13713124
0.13777264
0.1383802
0.13895362
0.13949318
0.13999939
0.14047311
0.14091547
0.14132797
0.14171243
0.14207111
0.14240664
0.14272207
0.14302089
0.14330704
0.14358491
0.14385932
0.14413553
0.1444192
0.14471622
0.14503277
0.14358888
0.1445101
0.1452622
0.14598077
0.14666522
0.14731549
0.1479318
0.14851466
0.14906486
0.14958349
0.15007202
0.15053227
0.15096644
0.15137718
0.15176752
0.15214097
0.15250147
0.15285343
0.15320169
0.15355152
0.15390851
0.15427838
0.15101229
0.15205816
0.15292893
0.15376689
0.15457117
0.15534141
0.15607754
0.15677974
0.15744845
0.15808441
0.15868869
0.1592627
0.15980823
0.16032748
0.16082305
0.16129798
0.16175576
0.16220034
0.1626361
0.16306788
0.16350086
0.16394041
0.1585683
0.15974574
0.16074281
0.1617082
0.16264077
0.16353989
0.16440522
0.16523661
0.16603418
0.16679833
0.16752973
0.16822941
0.16889874
0.16953948
0.17015378
0.17074422
0.1713138
0.17186601
0.17240475
0.17293437
0.17345963
0.17398545
0.16622597
0.16754143
0.168672
0.16977244
0.17084133
0.17187781
0.17288126
0.17385127
0.17478762
0.17569037
0.17655986
0.17739671
0.17820189
0.17897673
0.17972293
0.1804426
0.18113828
0.18181294
0.18247
0.18311332
0.18374713
0.18437589
0.1739532
0.17541262
0.17668343
0.17792602
0.17913876
0.18032057
0.18147056
0.18258806
0.18367258
0.18472384
0.18574184
0.18672684
0.18767941
0.18860046
0.18949126
0.19035345
0.19118908
0.19200065
0.19279105
0.19356362
0.19432206
0.19507031
0.18171728
0.18332603
0.18474327
0.1861346
0.18749816
0.18883267
0.19013703
0.19141032
0.19265176
0.1938608
0.19503711
0.1961806
0.19729147
0.19837023
0.1994177
0.20043508
0.20142397
0.20238633
0.20332456
0.20424146
0.20514019
0.20602413
0.18948545
0.19124831
0.19281762
0.19436365
0.19588438
0.19737835
0.19884425
0.20028093
0.20168738
0.20306278
0.20440649
0.20571809
0.20699744
0.20824464
0.20946012
0.21064465
0.21179933
0.21292566
0.21402551
0.21510116
0.2161552
0.21719045
0.19722547
0.19914661
0.20087298
0.20257906
0.20426266
0.20592214
0.20755605
0.20916302
0.21074183
0.2122914
0.21381082
0.21529937
0.21675655
0.21818214
0.21957615
0.22093894
0.22227116
0.22357382
0.2248483
0.22609634
0.22731998
0.22852149
0.20490614
0.20698908
0.20887689
0.21074767
0.21259914
0.21442951
0.21623715
0.21802055
0.21977827
0.22150902
0.22321163
0.2248851
0.22652864
0.22814166
0.22972384
0.2312751
0.23279568
0.23428614
0.23574735
0.23718052
0.23858718
0.23996899
0.21249781
0.21474545
0.21679837
0.21883784
0.22086145
0.22286731
0.22485365
0.22681882
0.2287612
0.23067929
0.2325717
0.23443719
0.23627468
0.23808327
0.23986227
0.24161126
0.24333005
0.24501876
0.24667779
0.24830786
0.24990992
0.2514851
0.21997282
0.22238738
0.22460842
0.22681985
0.22901915
0.23120434
0.23337357
0.23552503
0.23765696
0.2397677
0.24185565
0.24391933
0.24595742
0.24796873
0.24995225
0.2519072
0.25383303
0.25572941
0.25759631
0.25943394
0.26124276
0.26302334
0.22730586
0.22988892
0.2322804
0.23466631
0.23704411
0.23941173
0.24176721
0.24410867
0.24643421
0.24874201
0.25103031
0.25329743
0.25554181
0.257762
0.25995671
0.26212483
0.26426544
0.26637783
0.26846155
0.27051633
0.27254212
0.27453898
0.23447428
0.23722679
0.23979031
0.24235255
0.24491089
0.24746323
0.25000756
0.25254189
0.25506423
0.25757263
0.26006519
0.26254005
0.26499543
0.26742966
0.2698412
0.27222862
0.27459068
0.27692632
0.27923465
0.28151499
0.28376682
0.28598967
0.24145831
0.24438058
0.24711707
0.24985674
0.25259696
0.25533557
0.25807053
0.26079978
0.26352126
0.26623293
0.26893273
0.27161868
0.27428881
0.27694125
0.27957421
0.28218601
0.2847751
0.28734007
0.28987968
0.29239283
0.29487853
0.29733585
0.24824121
0.25133295
0.25424267
0.25716018
0.26008286
0.26300854
0.26593514
0.26886057
0.2717827
0.27469942
0.27760857
0.28050803
0.28339569
0.28626951
0.28912747
0.29196767
0.29478828
0.29758758
0.30036398
0.303116
0.30584225
0.30854131
0.25480933
0.25806967
0.26115221
0.26424731
0.26735234
0.27046515
0.27358365
0.27670572
0.27982921
0.28295192
0.28607164
0.28918615
0.2922932
0.29539059
0.29847615
0.30154773
0.30460328
0.3076408
0.31065838
0.31365419
0.31662644
0.3195733
0.26115208
0.2645796
0.26783395
0.27110572
0.27439232
0.27769163
0.28100156
0.28431999
0.28764475
0.29097361
0.2943043
0.2976345
0.30096188
0.30428412
0.30759888
0.31090384
0.31419672
0.31747528
0.32073733
0.32398071
0.32720327
0.33040279
0.26726191
0.27085465
0.2742792
0.27772611
0.28119288
0.28467739
0.2881776
0.2916914
0.29521661
0.29875098
0.30229221
0.30583793
0.30938574
0.3129332
0.31647784
0.32001721
0.32354881
0.32707021
0.33057894
0.33407258
0.33754863
0.34100452
0.27313407
0.27688962
0.28048219
0.28410217
0.28774709
0.2914149
0.29510358
0.29881108
0.30253521
0.30627374
0.31002435
0.31378463
0.31755213
0.32132433
0.32509866
0.32887253
0.33264331
0.33640834
0.34016497
0.34391048
0.34764212
0.35135695
0.27876651
0.28268201
0.28643994
0.29023036
0.29405087
0.29789949
0.30177426
0.30567315
0.30959404
0.3135347
0.31749281
0.32146595
0.32545164
0.3294473
0.33345029
0.33745791
0.34146739
0.34547594
0.34948069
0.3534787
0.35746696
0.36144224
0.2841596
0.28823178
0.29215196
0.29610971
0.30010276
0.30412919
0.3081871
0.31227454
0.31638942
0.32052955
0.32469263
0.32887625
0.33307792
0.33729502
0.34152485
0.34576465
0.35001155
0.3542626
0.35851478
0.36276497
0.3670099
0.37124611
0.28931587
0.29354114
0.29762003
0.30174161
0.30590369
0.31010445
0.31434209
0.31861469
0.32292025
0.32725663
0.33162156
0.33601267
0.34042744
0.34486328
0.34931745
0.35378711
0.35826933
0.36276106
0.36725914
0.37176028
0.37626103
0.38075767
0.29423976
0.29861422
0.30284794
0.30712945
0.31145668
0.3158279
0.32024138
0.32469533
0.32918779
0.33371669
0.33827982
0.34287485
0.34749929
0.35215054
0.35682587
0.3615224
0.36623715
0.37096698
0.37570864
0.38045869
0.38521352
0.38996921
0.2989373
0.30345682
0.30784119
0.31227843
0.31676658
0.32130401
0.32588912
0.33052018
0.33519533
0.33991259
0.3446698
0.34946469
0.35429483
0.35915762
0.36405035
0.36897015
0.37391397
0.37887865
0.38386085
0.38885702
0.39386341
0.39887595
0.30341588
0.30807609
0.3126067
0.31719521
0.32183977
0.3265389
0.33129107
0.33609468
0.34094797
0.34584902
0.35079579
0.35578606
0.36081746
0.36588744
0.3709933
0.3761322
0.38130108
0.38649674
0.39171578
0.3969546
0.40220932
0.40747573
0.30768389
0.31248031
0.31715255
0.32188765
0.32668391
0.33153995
0.33645438
0.3414257
0.34645226
0.35153225
0.35666371
0.3618445
0.36707232
0.37234471
0.37765899
0.38301235
0.38840175
0.39382398
0.39927562
0.40475299
0.41025215
0.41576878
0.31175057
0.31667858
0.32148769
0.32636457
0.33130763
0.33631563
0.3413873
0.34652127
0.35171599
0.35696978
0.36228077
0.36764693
0.37306603
0.37853568
0.38405328
0.38961605
0.395221
0.40086492
0.40654438
0.41225567
0.41799481
0.4237574
0.31562568
0.3206806
0.32562175
0.33063546
0.33572031
0.34087518
0.34609893
0.35139031
0.35674792
0.36217017
0.36765531
0.37320142
0.37880637
0.38446785
0.39018335
0.39595014
0.40176529
0.4076256
0.41352767
0.4194678
0.42544195
0.43144568
0.31931934
0.32449647
0.32956476
0.33471031
0.33993185
0.34522841
0.35059897
0.35604243
0.36155749
0.36714271
0.37279646
0.37851692
0.38430208
0.39014973
0.39605744
0.40202257
0.40804224
0.41411332
0.42023244
0.42639589
0.43259965
0.43883924
0.32284185
0.32813648
0.33332699
0.33859937
0.34395249
0.3493855
0.35489755
0.36048766
0.36615466
0.37189726
0.37771394
0.38360302
0.38956259
0.39559056
0.40168461
0.40784217
0.41406044
0.42033639
0.42666665
0.43304759
0.43947518
0.44594495
0.32620347
0.33161093
0.33691879
0.34231299
0.34779256
0.35335681
0.359005
0.3647363
0.3705497
0.37644402
0.3824179
0.38846976
0.39459784
0.40080016
0.4070745
0.41341841
0.41982919
0.42630385
0.43283914
0.43943144
0.44607678
0.4527707
0.32941436
0.33493004
0.34035041
0.34586148
0.35146243
0.3571527
0.36293172
0.36879877
0.37475301
0.38079339
0.38691867
0.39312745
0.39941807
0.40578868
0.41223718
0.41876125
0.42535827
0.43202536
0.43875934
0.44555668
0.45241343
0.45932519
0.33248442
0.3381038
0.34363193
0.34925499
0.3549723
0.36078345
0.36668801
0.37268542
0.37877497
0.38495575
0.39122669
0.39758649
0.40403366
0.41056647
0.41718295
0.4238809
0.43065782
0.43751093
0.44443714
0.451433
0.45849465
0.46561772
0.33542321
0.34114188
0.34677312
0.35250338
0.35833213
0.3642591
0.37028401
0.37640645
0.38262584
0.38894143
0.39535229
0.40185727
0.40845501
0.41514393
0.42192219
0.42878771
0.43573813
0.44277077
0.44988266
0.45707043
0.46433031
0.471658
0.33823993
0.34405357
0.34978339
0.35561618
0.36155155
0.3675894
0.37372957
0.37997179
0.38631565
0.39276053
0.39930566
0.40595002
0.41269241
0.41953138
0.42646524
0.43349204
0.44060954
0.44781521
0.45510616
0.46247916
0.46993052
0.47745602
0.34094328
0.34684773
0.35267174
0.35860251
0.36463983
0.37078372
0.37703417
0.38339106
0.38985411
0.39642288
0.4030967
0.40987474
0.41675592
0.42373896
0.43082229
0.43800411
0.44528232
0.45265451
0.46011793
0.46766943
0.47530546
0.4830219
0.34354152
0.34953275
0.35544668
0.36147106
0.36760578
0.37385102
0.38020691
0.38667348
0.39325058
0.39993793
0.406735
0.41364112
0.42065535
0.42777655
0.43500331
0.44233397
0.44976656
0.45729881
0.4649281
0.47265142
0.48046531
0.48836576
0.34604239
0.35211652
0.35811628
0.36423001
0.37045774
0.37679979
0.38325643
0.38982783
0.39651399
0.40331476
0.41022977
0.41725849
0.42440014
0.43165372
0.43901797
0.44649137
0.45407211
0.46175803
0.46954667
0.47743514
0.48542011
0.49349768
0.34845313
0.35460643
0.36068808
0.36688707
0.37320359
0.37963807
0.38619092
0.39286246
0.39965282
0.406562
0.41358979
0.42073579
0.42799937
0.43537967
0.44287559
0.45048576
0.4582085
0.46604182
0.47398337
0.4820304
0.49017972
0.49842754
0.35078048
0.35700937
0.36316913
0.36944947
0.37585069
0.38237338
0.38901807
0.39578522
0.4026751
0.40968785
0.4168234
0.4240815
0.43146166
0.43896318
0.44658511
0.4543262
0.46218494
0.47015948
0.47824761
0.48644672
0.49475374
0.50316504
0.35303067
0.35933172
0.36556598
0.3719239
0.37840593
0.38501277
0.3917451
0.39860349
0.40558837
0.41270001
0.41993848
0.42730366
0.43479523
0.44241262
0.45015503
0.45802136
0.46601024
0.47411996
0.48234847
0.49069329
0.49915149
0.50771957
0.35520944
0.3615794
0.36788469
0.37431659
0.38087569
0.3875628
0.39437873
0.40132418
0.40839971
0.41560573
0.42294244
0.43040987
0.43800784
0.44573592
0.45359345
0.46157948
0.4696928
0.47793183
0.48629466
0.49477896
0.50338194
0.51210023
0.35732209
0.36375782
0.37013085
0.37663331
0.3832659
0.39002956
0.39692522
0.40395371
0.41111572
0.41841178
0.42584224
0.43340725
0.44110678
0.44894054
0.45690801
0.4650084
0.47324061
0.48160324
0.49009449
0.4987122
0.50745371
0.51631578
0.35937344
0.36587198
0.37230961
0.37887935
0.38558202
0.39241868
0.39939038
0.40649806
0.41374255
0.42112449
0.42864437
0.43630248
0.44409891
0.45203353
0.46010594
0.46831549
0.47666124
0.48514192
0.49375588
0.50250109
0.51137503
0.52037461
0.3613679
0.36792642
0.37442567
0.38105958
0.38782908
0.39473535
0.40177956
0.40896275
0.41628588
0.42374972
0.43135488
0.43910178
0.44699065
0.45502147
0.463194
0.47150773
0.47996184
0.4885552
0.49728632
0.5061533
0.51515376
0.52428475
0.36330949
0.36992531
0.37648333
0.38317844
0.39001169
0.39698434
0.40409768
0.41135289
0.418751
0.42629293
0.4339794
0.44181096
0.44978797
0.45791053
0.46617855
0.47459163
0.48314912
0.49185
0.50069292
0.50967613
0.51879737
0.52805384
0.36520184
0.37187241
0.37848651
0.38524002
0.39213406
0.39917003
0.4063493
0.41367316
0.42114277
0.42875915
0.43652314
0.44443541
0.45249644
0.46070647
0.46906552
0.47757335
0.48622939
0.49503281
0.50398237
0.51307644
0.52231293
0.53168915
0.36704824