/*--------------------------------*- C++ -*----------------------------------*\
| =========                 |                                                 |
| \\      /  F ield         | OpenFOAM: The Open Source CFD Toolbox           |
|  \\    /   O peration     | Version:  2406                                  |
|   \\  /    A nd           | Website:  www.openfoam.com                      |
|    \\/     M anipulation  |                                                 |
\*---------------------------------------------------------------------------*/
FoamFile
{
    version     2.0;
    format      ascii;
    arch        "LSB;label=32;scalar=64";
    class       volScalarField;
    location    "0.017";
    object      T;
}
// * * * * * * * * * * * * * * * * * * * * * * * * * * * * * * * * * * * * * //

dimensions      [0 0 0 1 0 0 0];

internalField   nonuniform List<scalar> 
23203
(
293.53365
293.51285
293.4897
293.46432
293.43691
293.40773
293.37714
293.34554
293.31333
293.28094
293.24875
293.21715
293.18647
293.15698
293.12887
293.10228
293.07728
293.05389
293.03209
293.01179
292.99291
292.97539
292.95909
293.54482
293.52384
293.50048
293.4749
293.44729
293.41797
293.38731
293.35571
293.32359
293.29135
293.25938
293.22803
293.1976
293.16834
293.14044
293.11401
293.08912
293.06579
293.04398
293.02363
293.00467
292.98702
292.97056
293.55595
293.5348
293.51124
293.48546
293.45769
293.42825
293.39753
293.36594
293.33391
293.30183
293.27007
293.23896
293.20878
293.17976
293.15206
293.12579
293.10101
293.07772
293.05592
293.03553
293.0165
292.99873
292.98212
293.56697
293.54566
293.52192
293.49598
293.46806
293.43852
293.40777
293.37622
293.34429
293.31237
293.28082
293.24994
293.22
293.19121
293.1637
293.13759
293.11292
293.0897
293.0679
293.04749
293.02838
293.01051
292.99376
293.57784
293.55638
293.5325
293.50641
293.47837
293.44877
293.418
293.3865
293.35469
293.32294
293.2916
293.26095
293.23125
293.20267
293.17536
293.14941
293.12485
293.10169
293.07992
293.05948
293.04031
293.02234
293.58851
293.56694
293.54292
293.51672
293.4886
293.45895
293.4282
293.39677
293.36509
293.33351
293.30238
293.27197
293.2425
293.21414
293.18703
293.16123
293.13678
293.1137
293.09195
293.07149
293.05227
293.03419
293.59895
293.57728
293.55317
293.52688
293.49871
293.46905
293.43833
293.407
293.37546
293.34408
293.31316
293.28298
293.25374
293.2256
293.19868
293.17303
293.1487
293.12569
293.10397
293.08351
293.06423
293.04608
293.60911
293.58737
293.5632
293.53686
293.50867
293.47903
293.44839
293.41717
293.38579
293.3546
293.32391
293.29396
293.26496
293.23703
293.2103
293.18481
293.1606
293.13767
293.11598
293.09551
293.0762
293.05797
293.61896
293.59718
293.57297
293.54665
293.51851
293.48891
293.45835
293.42727
293.39606
293.36508
293.33462
293.3049
293.27613
293.24842
293.22187
293.19654
293.17245
293.1496
293.12796
293.10749
293.08814
293.06985
293.62851
293.60674
293.58253
293.55619
293.52805
293.49857
293.46816
293.43725
293.40625
293.37549
293.34526
293.31578
293.28724
293.25975
293.23339
293.20822
293.18425
293.16148
293.13989
293.11943
293.10006
293.08171
293.63764
293.6159
293.59175
293.56548
293.53745
293.50809
293.47784
293.44712
293.41634
293.38581
293.35582
293.32659
293.29828
293.271
293.24483
293.21982
293.19598
293.17329
293.15175
293.13131
293.11192
293.09352
293.64637
293.62472
293.60066
293.57452
293.54664
293.51745
293.48738
293.45688
293.42632
293.39604
293.3663
293.33731
293.30923
293.28217
293.25619
293.23134
293.20762
293.18503
293.16354
293.14312
293.12372
293.10529
293.65469
293.63317
293.60926
293.58329
293.5556
293.52661
293.49677
293.4665
293.43619
293.40616
293.37668
293.34794
293.32009
293.29324
293.26745
293.24276
293.21916
293.19667
293.17524
293.15485
293.13544
293.11698
293.66257
293.64123
293.61753
293.59177
293.56431
293.53557
293.50598
293.47598
293.44594
293.41617
293.38695
293.35846
293.33085
293.30421
293.27861
293.25407
293.2306
293.2082
293.18684
293.16648
293.14708
293.1286
293.67
293.64888
293.62543
293.59994
293.57276
293.54431
293.51501
293.4853
293.45555
293.42606
293.39711
293.36887
293.34149
293.31507
293.28965
293.26527
293.24193
293.21962
293.19832
293.178
293.15862
293.14012
293.67696
293.65612
293.63296
293.60779
293.58094
293.55282
293.52385
293.49446
293.46501
293.43582
293.40714
293.37916
293.35202
293.3258
293.30057
293.27634
293.25313
293.23092
293.20969
293.18941
293.17004
293.15154
293.68344
293.66291
293.6401
293.61531
293.58884
293.56109
293.53249
293.50345
293.47433
293.44545
293.41705
293.38933
293.36242
293.33641
293.31136
293.28728
293.2642
293.24209
293.22094
293.2007
293.18135
293.16284
293.68942
293.66926
293.64686
293.62248
293.59643
293.5691
293.54091
293.51224
293.48348
293.45492
293.42682
293.39936
293.37269
293.34689
293.32201
293.2981
293.27514
293.25313
293.23205
293.21186
293.19254
293.17403
293.69491
293.67516
293.6532
293.62928
293.60371
293.57685
293.54909
293.52084
293.49246
293.46424
293.43644
293.40926
293.38282
293.35723
293.33254
293.30877
293.28594
293.26403
293.24302
293.22289
293.20359
293.1851
293.6999
293.6806
293.65912
293.63572
293.61066
293.58431
293.55704
293.52923
293.50125
293.47339
293.44592
293.41901
293.39282
293.36744
293.34292
293.31931
293.2966
293.27479
293.25386
293.23378
293.21452
293.19603
293.70437
293.68556
293.66462
293.64177
293.61728
293.59147
293.56472
293.5374
293.50985
293.48237
293.45523
293.42862
293.40267
293.3775
293.35317
293.32971
293.30712
293.28541
293.26455
293.24453
293.2253
293.20684
293.70834
293.69005
293.66967
293.64742
293.62353
293.59832
293.57213
293.54532
293.51823
293.49117
293.46438
293.43807
293.41238
293.38743
293.36328
293.33997
293.3175
293.29589
293.27511
293.25515
293.23596
293.21752
293.71181
293.69406
293.67429
293.65267
293.62942
293.60483
293.57924
293.55299
293.52639
293.49976
293.47335
293.44735
293.42194
293.39721
293.37325
293.35009
293.32775
293.30624
293.28554
293.26563
293.24648
293.22806
293.71478
293.6976
293.67846
293.6575
293.63492
293.611
293.58605
293.56037
293.53431
293.50814
293.48213
293.45647
293.43134
293.40685
293.38307
293.36007
293.33786
293.31645
293.29583
293.27598
293.25687
293.23848
293.71725
293.70067
293.68217
293.6619
293.64003
293.61681
293.59252
293.56747
293.54196
293.51629
293.4907
293.46541
293.44057
293.41633
293.39276
293.36992
293.34784
293.32653
293.30599
293.2862
293.26713
293.24877
293.71924
293.70326
293.68544
293.66588
293.64474
293.62224
293.59865
293.57426
293.54934
293.52419
293.49906
293.47415
293.44963
293.42565
293.4023
293.37963
293.35769
293.33648
293.31602
293.29629
293.27727
293.25894
293.72074
293.70539
293.68825
293.66942
293.64903
293.62729
293.60443
293.58071
293.55643
293.53183
293.50718
293.48268
293.45851
293.43481
293.41168
293.3892
293.3674
293.34631
293.32594
293.30627
293.2873
293.26899
293.72179
293.70706
293.69061
293.67252
293.65291
293.63194
293.60983
293.58683
293.5632
293.53919
293.51505
293.49099
293.46719
293.44379
293.42091
293.39862
293.37698
293.35601
293.33573
293.31613
293.29721
293.27894
293.72237
293.70827
293.69252
293.67519
293.65636
293.63618
293.61484
293.59258
293.56963
293.54624
293.52265
293.49906
293.47566
293.45259
293.42998
293.4079
293.38643
293.36559
293.34541
293.32588
293.30701
293.28878
293.72251
293.70906
293.69401
293.67743
293.65938
293.64
293.61945
293.59795
293.57571
293.55297
293.52996
293.50687
293.4839
293.46118
293.43886
293.41702
293.39573
293.37504
293.35496
293.33552
293.31671
293.29851
293.72225
293.70943
293.69507
293.67921
293.66192
293.64334
293.62361
293.6029
293.58141
293.55936
293.53695
293.5144
293.49189
293.46956
293.44756
293.42597
293.40489
293.38435
293.3644
293.34505
293.3263
293.30816
293.7215
293.7093
293.69564
293.68055
293.66408
293.64632
293.6274
293.60748
293.58674
293.56539
293.54363
293.52164
293.49962
293.47771
293.45605
293.43475
293.41389
293.39353
293.37372
293.35447
293.3358
293.3177
293.72036
293.70879
293.69582
293.68148
293.6658
293.64886
293.63076
293.61164
293.59168
293.57106
293.54996
293.52857
293.50707
293.48561
293.46433
293.44334
293.42273
293.40257
293.38291
293.36378
293.34519
293.32716
293.71882
293.70786
293.69558
293.68198
293.66708
293.65095
293.63367
293.61538
293.59621
293.57634
293.55593
293.53517
293.51422
293.49324
293.47237
293.45172
293.43139
293.41145
293.39197
293.37297
293.35449
293.33653
293.71688
293.70653
293.69492
293.68205
293.66793
293.6526
293.63615
293.61868
293.60032
293.58121
293.56152
293.54141
293.52105
293.50059
293.48015
293.45987
293.43985
293.42016
293.40088
293.38204
293.36367
293.3458
293.71457
293.70482
293.69386
293.6817
293.66833
293.65379
293.63817
293.62152
293.60398
293.58566
293.56671
293.54728
293.52754
293.50762
293.48766
293.46779
293.4481
293.4287
293.40963
293.39097
293.37274
293.35497
293.71185
293.70268
293.69237
293.68091
293.66831
293.65458
293.63976
293.62394
293.60721
293.58968
293.57148
293.55276
293.53366
293.51432
293.49487
293.47544
293.45613
293.43703
293.41822
293.39976
293.38168
293.36403
293.70877
293.70017
293.69049
293.67972
293.66786
293.65491
293.64091
293.62591
293.60999
293.59326
293.57583
293.55784
293.53941
293.52067
293.50176
293.4828
293.4639
293.44514
293.42661
293.40838
293.39049
293.37299
293.70534
293.69729
293.68823
293.67813
293.66699
293.6548
293.64159
293.6274
293.61231
293.59638
293.57974
293.56249
293.54475
293.52665
293.50832
293.48986
293.4714
293.45302
293.4348
293.41683
293.39916
293.38182
293.70154
293.69403
293.68557
293.67613
293.66569
293.65424
293.6418
293.62842
293.61414
293.59903
293.58318
293.56669
293.54966
293.53223
293.5145
293.49659
293.4786
293.46063
293.44277
293.42509
293.40765
293.3905
293.69738
293.69039
293.6825
293.6737
293.66394
293.65324
293.64158
293.62899
293.61552
293.60121
293.58615
293.57043
293.55414
293.53739
293.5203
293.50295
293.48547
293.46795
293.45047
293.43312
293.41596
293.39903
293.69288
293.6864
293.67907
293.67088
293.6618
293.6518
293.6409
293.62909
293.61641
293.60291
293.58865
293.5737
293.55816
293.54212
293.52568
293.50894
293.492
293.47496
293.4579
293.44091
293.42405
293.40739
293.68805
293.68205
293.67528
293.66768
293.65924
293.64993
293.63974
293.62869
293.61679
293.60409
293.59063
293.57647
293.5617
293.54638
293.53062
293.51451
293.49815
293.48163
293.46503
293.44843
293.43192
293.41554
293.68287
293.67734
293.67108
293.66405
293.65623
293.64759
293.63813
293.62783
293.61671
293.6048
293.59212
293.57875
293.56474
293.55016
293.5351
293.51965
293.5039
293.48792
293.47181
293.45565
293.43951
293.42346
293.67737
293.67229
293.66653
293.66005
293.65283
293.64484
293.63607
293.6265
293.61613
293.60499
293.5931
293.58051
293.56727
293.55344
293.5391
293.52433
293.50921
293.49381
293.47823
293.46254
293.44682
293.43112
293.67156
293.66691
293.66163
293.65568
293.64904
293.64167
293.63355
293.62467
293.61502
293.60464
293.59353
293.58172
293.56925
293.55619
293.54258
293.52851
293.51405
293.49927
293.48424
293.46906
293.45379
293.43849
293.66543
293.66119
293.65636
293.65091
293.64481
293.63803
293.63055
293.62236
293.61345
293.60381
293.59345
293.58241
293.57071
293.5584
293.54554
293.53218
293.5184
293.50425
293.48982
293.47518
293.46039
293.44553
293.65903
293.65517
293.65077
293.6458
293.64022
293.63402
293.62715
293.61961
293.61136
293.60243
293.59281
293.58252
293.57159
293.56005
293.54794
293.53531
293.52222
293.50874
293.49493
293.48086
293.46659
293.4522
293.65233
293.64883
293.64484
293.64031
293.63523
293.62956
293.62327
293.61635
293.60878
293.60055
293.59166
293.58211
293.57193
293.56113
293.54977
293.53787
293.52549
293.51269
293.49952
293.48606
293.47235
293.45847
293.64539
293.64223
293.63861
293.63451
293.62989
293.62473
293.619
293.61267
293.60573
293.59816
293.58995
293.58112
293.57167
293.56162
293.551
293.53984
293.52819
293.51608
293.50358
293.49074
293.47762
293.46428
293.6382
293.63535
293.63209
293.62838
293.62419
293.61951
293.61429
293.60852
293.60218
293.59525
293.58773
293.57959
293.57086
293.56154
293.55165
293.54122
293.53029
293.51889
293.50707
293.49488
293.48237
293.4696
293.63081
293.62825
293.62531
293.62196
293.61818
293.61394
293.60922
293.60398
293.59821
293.59188
293.58498
293.5775
293.56946
293.56085
293.55169
293.54198
293.53177
293.52108
293.50995
293.49843
293.48656
293.47439
293.62322
293.62092
293.61828
293.61527
293.61186
293.60804
293.60376
293.59901
293.59377
293.58801
293.58172
293.5749
293.56752
293.5596
293.55113
293.54214
293.53264
293.52265
293.51222
293.50138
293.49016
293.47861
293.61548
293.61342
293.61105
293.60835
293.60529
293.60184
293.59799
293.5937
293.58895
293.58373
293.57801
293.57177
293.56502
293.55775
293.54996
293.54166
293.53286
293.52358
293.51385
293.50369
293.49313
293.48223
293.60761
293.60577
293.60364
293.60121
293.59846
293.59536
293.59189
293.58802
293.58373
293.579
293.57381
293.56816
293.56202
293.55538
293.54824
293.5406
293.53248
293.52388
293.51483
293.50535
293.49546
293.48521
293.59965
293.598
293.5961
293.59392
293.59145
293.58867
293.58555
293.58207
293.5782
293.57393
293.56924
293.5641
293.55851
293.55244
293.54592
293.53893
293.53146
293.52354
293.51516
293.50635
293.49714
293.48754
293.59163
293.59015
293.58844
293.58649
293.58427
293.58177
293.57896
293.57583
293.57235
293.5685
293.56426
293.55961
293.55455
293.54905
293.54309
293.5367
293.52986
293.52258
293.51486
293.50671
293.49815
293.4892
293.58359
293.58226
293.58072
293.57896
293.57696
293.57472
293.57219
293.56937
293.56624
293.56277
293.55894
293.55474
293.55016
293.54517
293.53978
293.53396
293.52771
293.52104
293.51394
293.50643
293.49851
293.49021
293.57556
293.57435
293.57296
293.57137
293.56958
293.56755
293.56528
293.56274
293.55992
293.5568
293.55335
293.54956
293.54542
293.54091
293.536
293.5307
293.52501
293.51892
293.51242
293.50552
293.49823
293.49055
293.56758
293.56647
293.56521
293.56377
293.56214
293.56031
293.55826
293.55597
293.55343
293.55061
293.5475
293.54409
293.54034
293.53626
293.53183
293.52703
293.52184
293.51629
293.51035
293.50404
293.49734
293.49027
293.55967
293.55865
293.55749
293.55618
293.5547
293.55304
293.55118
293.54911
293.54682
293.54427
293.54146
293.53838
293.53499
293.5313
293.52729
293.52294
293.51826
293.51321
293.5078
293.50203
293.49589
293.48939
293.55187
293.55092
293.54985
293.54865
293.54729
293.54578
293.54409
293.54222
293.54014
293.53784
293.5353
293.53251
293.52945
293.52612
293.52249
293.51855
293.51428
293.50969
293.50476
293.4995
293.4939
293.48795
293.5442
293.54332
293.54232
293.5412
293.53996
293.53857
293.53703
293.53532
293.53343
293.53134
293.52903
293.52651
293.52374
293.52072
293.51743
293.51386
293.51
293.50583
293.50135
293.49656
293.49144
293.486
293.53669
293.53586
293.53492
293.53388
293.53273
293.53144
293.53003
293.52846
293.52673
293.52483
293.52273
293.52044
293.51792
293.51518
293.5122
293.50896
293.50545
293.50167
293.4976
293.49323
293.48856
293.48359
293.52936
293.52856
293.52768
293.5267
293.52562
293.52443
293.52312
293.52167
293.52008
293.51834
293.51642
293.51433
293.51204
293.50954
293.50683
293.50388
293.50069
293.49726
293.49356
293.48959
293.48535
293.48081
293.52222
293.52146
293.52061
293.51968
293.51867
293.51755
293.51633
293.51499
293.51352
293.51191
293.51016
293.50824
293.50614
293.50387
293.50139
293.49871
293.49581
293.49268
293.48931
293.48569
293.48181
293.47767
293.51529
293.51454
293.51373
293.51285
293.51188
293.51083
293.50968
293.50843
293.50707
293.50558
293.50395
293.50219
293.50027
293.49818
293.49591
293.49346
293.49081
293.48796
293.48488
293.48159
293.47805
293.47426
293.50857
293.50784
293.50705
293.5062
293.50528
293.50428
293.50319
293.50202
293.50074
293.49935
293.49785
293.49621
293.49444
293.49252
293.49044
293.48819
293.48576
293.48315
293.48034
293.47732
293.47409
293.47064
293.50207
293.50135
293.50058
293.49976
293.49887
293.49791
293.49688
293.49577
293.49456
293.49326
293.49186
293.49033
293.48869
293.48691
293.48499
293.48292
293.48069
293.47829
293.47571
293.47295
293.46999
293.46683
293.49579
293.49508
293.49432
293.49352
293.49265
293.49173
293.49075
293.48969
293.48855
293.48732
293.486
293.48458
293.48305
293.48139
293.47962
293.4777
293.47565
293.47344
293.47107
293.46853
293.46581
293.46291
293.48973
293.48903
293.48828
293.48749
293.48665
293.48575
293.4848
293.48379
293.4827
293.48154
293.48029
293.47896
293.47752
293.47598
293.47432
293.47255
293.47064
293.4686
293.46641
293.46407
293.46156
293.45889
293.4839
293.48319
293.48245
293.48167
293.48085
293.47998
293.47906
293.47808
293.47704
293.47593
293.47475
293.47348
293.47213
293.47068
293.46914
293.46748
293.46571
293.46381
293.46178
293.45962
293.45731
293.45484
293.47828
293.47757
293.47683
293.47606
293.47525
293.4744
293.47351
293.47256
293.47156
293.47049
293.46937
293.46817
293.46689
293.46552
293.46407
293.46252
293.46086
293.45909
293.45721
293.45519
293.45305
293.45077
293.47286
293.47216
293.47142
293.47066
293.46986
293.46902
293.46815
293.46723
293.46626
293.46524
293.46416
293.46301
293.4618
293.4605
293.45913
293.45767
293.45612
293.45446
293.4527
293.45083
293.44884
293.44672
293.46765
293.46695
293.46621
293.46545
293.46466
293.46384
293.46299
293.46209
293.46115
293.46016
293.45912
293.45802
293.45686
293.45563
293.45433
293.45295
293.45149
293.44994
293.44829
293.44653
293.44467
293.4427
293.46264
293.46193
293.4612
293.46044
293.45966
293.45885
293.45801
293.45713
293.45622
293.45526
293.45425
293.4532
293.45208
293.45091
293.44967
293.44836
293.44698
293.44551
293.44396
293.44232
293.44058
293.43873
293.45781
293.4571
293.45637
293.45561
293.45484
293.45404
293.45321
293.45235
293.45146
293.45053
293.44955
293.44853
293.44746
293.44634
293.44516
293.44391
293.4426
293.44121
293.43975
293.4382
293.43656
293.43483
293.45315
293.45244
293.45171
293.45096
293.45019
293.4494
293.44859
293.44774
293.44687
293.44596
293.44501
293.44403
293.443
293.44192
293.44078
293.43959
293.43834
293.43703
293.43564
293.43417
293.43263
293.431
293.44866
293.44795
293.44722
293.44648
293.44571
293.44493
293.44413
293.4433
293.44244
293.44155
293.44063
293.43968
293.43868
293.43764
293.43655
293.43541
293.43421
293.43296
293.43164
293.43025
293.42879
293.42725
293.44433
293.44361
293.44289
293.44215
293.44139
293.44062
293.43982
293.43901
293.43817
293.4373
293.4364
293.43547
293.4345
293.4335
293.43245
293.43135
293.43021
293.42901
293.42775
293.42644
293.42505
293.42359
293.44014
293.43942
293.4387
293.43796
293.43721
293.43645
293.43566
293.43486
293.43404
293.43319
293.43231
293.4314
293.43047
293.42949
293.42848
293.42743
293.42633
293.42518
293.42398
293.42272
293.4214
293.42002
293.43608
293.43537
293.43465
293.43392
293.43317
293.43242
293.43164
293.43085
293.43004
293.42921
293.42835
293.42747
293.42656
293.42561
293.42463
293.42362
293.42256
293.42146
293.42031
293.41911
293.41785
293.41654
293.43215
293.43144
293.43072
293.43
293.42926
293.42851
293.42775
293.42697
293.42618
293.42536
293.42452
293.42366
293.42277
293.42186
293.42091
293.41992
293.41891
293.41785
293.41674
293.41559
293.41439
293.41314
293.42833
293.42763
293.42692
293.4262
293.42547
293.42473
293.42398
293.42321
293.42243
293.42163
293.42081
293.41997
293.4191
293.41821
293.41729
293.41634
293.41536
293.41434
293.41328
293.41217
293.41103
293.40983
293.42462
293.42392
293.42322
293.42251
293.42179
293.42106
293.42032
293.41956
293.41879
293.41801
293.41721
293.41639
293.41554
293.41468
293.41378
293.41286
293.41191
293.41093
293.40991
293.40885
293.40775
293.4066
293.421
293.42031
293.41962
293.41892
293.4182
293.41749
293.41676
293.41602
293.41526
293.41449
293.41371
293.41291
293.41208
293.41124
293.41037
293.40948
293.40856
293.40761
293.40663
293.40561
293.40455
293.40345
293.41748
293.4168
293.41611
293.41542
293.41472
293.41401
293.41329
293.41256
293.41182
293.41107
293.4103
293.40952
293.40872
293.4079
293.40706
293.40619
293.4053
293.40438
293.40343
293.40245
293.40144
293.40039
293.41403
293.41336
293.41269
293.412
293.41132
293.41062
293.40991
293.4092
293.40848
293.40774
293.40699
293.40622
293.40544
293.40464
293.40383
293.40299
293.40212
293.40124
293.40032
293.39938
293.3984
293.39739
293.41067
293.41001
293.40934
293.40867
293.40799
293.40731
293.40662
293.40592
293.40521
293.40449
293.40376
293.40301
293.40225
293.40147
293.40068
293.39986
293.39903
293.39817
293.39729
293.39637
293.39544
293.39446
293.40737
293.40672
293.40607
293.40541
293.40475
293.40407
293.4034
293.40271
293.40202
293.40131
293.4006
293.39987
293.39913
293.39837
293.3976
293.39681
293.396
293.39517
293.39432
293.39344
293.39254
293.3916
293.40414
293.40351
293.40286
293.40222
293.40157
293.40091
293.40025
293.39958
293.3989
293.39821
293.39751
293.3968
293.39608
293.39535
293.3946
293.39383
293.39305
293.39225
293.39142
293.39058
293.3897
293.38881
293.40097
293.40035
293.39972
293.39909
293.39845
293.39781
293.39716
293.3965
293.39584
293.39517
293.39449
293.3938
293.3931
293.39239
293.39166
293.39092
293.39016
293.38938
293.38859
293.38777
293.38693
293.38607
293.39786
293.39724
293.39663
293.39601
293.39539
293.39476
293.39413
293.39349
293.39284
293.39219
293.39153
293.39086
293.39018
293.38949
293.38878
293.38806
293.38733
293.38658
293.38581
293.38502
293.38421
293.38338
293.39479
293.39419
293.39359
293.39299
293.39238
293.39177
293.39115
293.39053
293.3899
293.38927
293.38862
293.38797
293.38731
293.38664
293.38596
293.38526
293.38455
293.38383
293.38309
293.38233
293.38155
293.38075
293.39177
293.39119
293.3906
293.39002
293.38942
293.38883
293.38823
293.38762
293.38701
293.3864
293.38577
293.38514
293.3845
293.38385
293.38319
293.38251
293.38183
293.38113
293.38041
293.37968
293.37893
293.37816
293.3888
293.38823
293.38766
293.38709
293.38651
293.38593
293.38535
293.38476
293.38417
293.38357
293.38297
293.38235
293.38173
293.3811
293.38046
293.37981
293.37915
293.37848
293.37779
293.37708
293.37636
293.37562
293.38586
293.38531
293.38476
293.3842
293.38364
293.38308
293.38252
293.38195
293.38137
293.38079
293.38021
293.37961
293.37901
293.3784
293.37778
293.37716
293.37652
293.37587
293.3752
293.37452
293.37383
293.37312
293.38296
293.38243
293.38189
293.38135
293.38081
293.38027
293.37972
293.37917
293.37861
293.37805
293.37749
293.37691
293.37633
293.37574
293.37515
293.37454
293.37393
293.3733
293.37266
293.37201
293.37134
293.37066
293.3801
293.37958
293.37906
293.37854
293.37802
293.37749
293.37696
293.37643
293.37589
293.37535
293.3748
293.37425
293.37369
293.37312
293.37255
293.37197
293.37137
293.37077
293.37016
293.36953
293.36889
293.36824
293.37727
293.37677
293.37627
293.37576
293.37526
293.37475
293.37424
293.37373
293.37321
293.37268
293.37216
293.37162
293.37108
293.37054
293.36999
293.36942
293.36885
293.36828
293.36769
293.36708
293.36647
293.36584
293.37447
293.37399
293.3735
293.37302
293.37253
293.37204
293.37155
293.37105
293.37055
293.37005
293.36954
293.36903
293.36851
293.36799
293.36745
293.36692
293.36637
293.36581
293.36525
293.36467
293.36408
293.36348
293.37169
293.37123
293.37076
293.3703
293.36983
293.36936
293.36889
293.36841
293.36793
293.36745
293.36696
293.36647
293.36597
293.36546
293.36495
293.36444
293.36391
293.36338
293.36284
293.36229
293.36172
293.36115
293.36894
293.3685
293.36805
293.36761
293.36716
293.3667
293.36625
293.36579
293.36533
293.36487
293.3644
293.36393
293.36345
293.36297
293.36248
293.36199
293.36148
293.36097
293.36046
293.35993
293.35939
293.35884
293.36622
293.36579
293.36537
293.36494
293.36451
293.36408
293.36364
293.3632
293.36276
293.36232
293.36187
293.36142
293.36096
293.3605
293.36003
293.35956
293.35908
293.3586
293.3581
293.3576
293.35708
293.35656
293.36352
293.36311
293.3627
293.36229
293.36188
293.36147
293.36105
293.36064
293.36022
293.35979
293.35936
293.35893
293.3585
293.35806
293.35761
293.35716
293.3567
293.35624
293.35577
293.35529
293.3548
293.3543
293.36084
293.36045
293.36006
293.35967
293.35928
293.35889
293.35849
293.35809
293.35769
293.35729
293.35688
293.35647
293.35605
293.35564
293.35521
293.35478
293.35435
293.35391
293.35346
293.353
293.35254
293.35206
293.35818
293.35781
293.35744
293.35707
293.3567
293.35632
293.35595
293.35557
293.35519
293.3548
293.35442
293.35403
293.35363
293.35323
293.35283
293.35242
293.35201
293.35159
293.35117
293.35073
293.35029
293.34984
293.35554
293.35519
293.35484
293.35449
293.35413
293.35378
293.35342
293.35306
293.3527
293.35234
293.35197
293.3516
293.35123
293.35085
293.35047
293.35008
293.34969
293.3493
293.34889
293.34848
293.34807
293.34764
293.35291
293.35258
293.35225
293.35192
293.35159
293.35125
293.35092
293.35058
293.35024
293.34989
293.34955
293.3492
293.34884
293.34849
293.34813
293.34776
293.34739
293.34702
293.34664
293.34625
293.34586
293.34545
293.35031
293.35
293.34969
293.34937
293.34906
293.34874
293.34843
293.34811
293.34778
293.34746
293.34714
293.34681
293.34647
293.34614
293.3458
293.34546
293.34511
293.34475
293.3444
293.34403
293.34366
293.34328
293.34772
293.34742
293.34713
293.34684
293.34654
293.34625
293.34595
293.34565
293.34535
293.34505
293.34474
293.34443
293.34412
293.34381
293.34349
293.34316
293.34284
293.34251
293.34217
293.34183
293.34148
293.34112
293.34514
293.34487
293.34459
293.34432
293.34404
293.34377
293.34349
293.34321
293.34293
293.34265
293.34236
293.34207
293.34178
293.34149
293.34119
293.34089
293.34058
293.34027
293.33996
293.33964
293.33931
293.33898
293.34257
293.34232
293.34207
293.34181
293.34156
293.3413
293.34104
293.34078
293.34052
293.34026
293.33999
293.33972
293.33945
293.33918
293.3389
293.33862
293.33834
293.33805
293.33775
293.33746
293.33715
293.33684
293.34002
293.33979
293.33956
293.33932
293.33908
293.33885
293.33861
293.33837
293.33813
293.33788
293.33764
293.33739
293.33714
293.33688
293.33663
293.33637
293.3361
293.33583
293.33556
293.33529
293.335
293.33472
293.33748
293.33727
293.33705
293.33684
293.33662
293.3364
293.33618
293.33596
293.33574
293.33552
293.33529
293.33506
293.33483
293.3346
293.33436
293.33412
293.33388
293.33363
293.33338
293.33313
293.33286
293.3326
293.33495
293.33476
293.33456
293.33437
293.33417
293.33397
293.33377
293.33357
293.33337
293.33316
293.33295
293.33275
293.33254
293.33232
293.33211
293.33189
293.33166
293.33144
293.33121
293.33097
293.33073
293.33049
293.33244
293.33226
293.33208
293.33191
293.33173
293.33155
293.33137
293.33118
293.331
293.33082
293.33063
293.33044
293.33025
293.33005
293.32986
293.32966
293.32946
293.32925
293.32904
293.32883
293.32861
293.32839
293.32993
293.32977
293.32961
293.32945
293.32929
293.32913
293.32897
293.32881
293.32864
293.32848
293.32831
293.32814
293.32797
293.32779
293.32762
293.32744
293.32726
293.32707
293.32688
293.32669
293.32649
293.32629
293.32743
293.32729
293.32715
293.32701
293.32687
293.32673
293.32658
293.32644
293.32629
293.32615
293.326
293.32585
293.3257
293.32554
293.32538
293.32522
293.32506
293.3249
293.32473
293.32455
293.32438
293.3242
293.32493
293.32481
293.32469
293.32457
293.32445
293.32433
293.3242
293.32408
293.32395
293.32382
293.32369
293.32356
293.32343
293.32329
293.32316
293.32302
293.32287
293.32273
293.32258
293.32243
293.32227
293.32211
293.32245
293.32235
293.32225
293.32214
293.32204
293.32193
293.32183
293.32172
293.32161
293.3215
293.32139
293.32128
293.32117
293.32105
293.32093
293.32081
293.32069
293.32056
293.32043
293.3203
293.32016
293.32002
293.31997
293.31989
293.3198
293.31972
293.31963
293.31955
293.31946
293.31937
293.31928
293.31919
293.3191
293.31901
293.31891
293.31881
293.31871
293.31861
293.31851
293.3184
293.31829
293.31818
293.31806
293.31794
293.3175
293.31744
293.31737
293.3173
293.31724
293.31717
293.3171
293.31703
293.31696
293.31688
293.31681
293.31674
293.31666
293.31658
293.3165
293.31642
293.31633
293.31624
293.31615
293.31606
293.31596
293.31586
293.31504
293.31499
293.31494
293.31489
293.31484
293.31479
293.31474
293.31469
293.31464
293.31458
293.31453
293.31447
293.31441
293.31435
293.31429
293.31422
293.31416
293.31409
293.31402
293.31394
293.31386
293.31378
293.31258
293.31255
293.31252
293.31249
293.31246
293.31242
293.31239
293.31236
293.31232
293.31228
293.31225
293.31221
293.31217
293.31212
293.31208
293.31203
293.31199
293.31194
293.31188
293.31183
293.31177
293.3117
293.31013
293.31012
293.3101
293.31009
293.31007
293.31006
293.31004
293.31003
293.31001
293.30999
293.30997
293.30995
293.30993
293.3099
293.30988
293.30985
293.30982
293.30978
293.30975
293.30971
293.30967
293.30963
293.30768
293.30769
293.30769
293.30769
293.3077
293.3077
293.3077
293.3077
293.3077
293.3077
293.3077
293.30769
293.30769
293.30768
293.30767
293.30766
293.30765
293.30764
293.30762
293.3076
293.30758
293.30755
293.30524
293.30527
293.30529
293.30531
293.30533
293.30534
293.30536
293.30538
293.3054
293.30541
293.30543
293.30544
293.30545
293.30546
293.30547
293.30548
293.30549
293.30549
293.30549
293.30549
293.30548
293.30548
293.30281
293.30285
293.30289
293.30292
293.30296
293.303
293.30303
293.30307
293.3031
293.30313
293.30316
293.30319
293.30322
293.30325
293.30328
293.3033
293.30332
293.30334
293.30336
293.30338
293.30339
293.3034
293.30039
293.30044
293.3005
293.30055
293.3006
293.30065
293.3007
293.30075
293.3008
293.30085
293.3009
293.30095
293.30099
293.30104
293.30108
293.30112
293.30116
293.3012
293.30124
293.30127
293.3013
293.30133
293.29797
293.29804
293.29811
293.29818
293.29825
293.29831
293.29838
293.29845
293.29852
293.29858
293.29864
293.29871
293.29877
293.29883
293.29889
293.29895
293.299
293.29906
293.29911
293.29916
293.29921
293.29925
293.29556
293.29565
293.29573
293.29582
293.2959
293.29598
293.29607
293.29615
293.29623
293.29631
293.29639
293.29647
293.29655
293.29663
293.2967
293.29678
293.29685
293.29692
293.29699
293.29705
293.29712
293.29718
293.29316
293.29326
293.29336
293.29346
293.29356
293.29366
293.29376
293.29385
293.29395
293.29405
293.29414
293.29424
293.29433
293.29443
293.29452
293.29461
293.2947
293.29478
293.29487
293.29495
293.29503
293.29511
293.29077
293.29089
293.291
293.29111
293.29123
293.29134
293.29145
293.29157
293.29168
293.29179
293.2919
293.29201