/*--------------------------------*- C++ -*----------------------------------*\
| =========                 |                                                 |
| \\      /  F ield         | OpenFOAM: The Open Source CFD Toolbox           |
|  \\    /   O peration     | Version:  2406                                  |
|   \\  /    A nd           | Website:  www.openfoam.com                      |
|    \\/     M anipulation  |                                                 |
\*---------------------------------------------------------------------------*/
FoamFile
{
    version     2.0;
    format      ascii;
    arch        "LSB;label=32;scalar=64";
    class       volScalarField;
    location    "0.04";
    object      Ma;
}
// * * * * * * * * * * * * * * * * * * * * * * * * * * * * * * * * * * * * * //

dimensions      [0 0 0 0 0 0 0];

internalField   nonuniform List<scalar> 
2065
(
0.1164231
0.11779336
0.11899555
0.12001102
0.12080998
0.12137059
0.12169528
0.12165471
0.12136422
0.12067194
0.11953971
0.11804291
0.1161429
0.11397539
0.11160173
0.10916104
0.10675294
0.10447777
0.1024208
0.10063015
0.09918948
0.098025688
0.097141127
0.096549485
0.09619322
0.096041271
0.096086735
0.096266896
0.096616459
0.097077002
0.097677679
0.098383073
0.099193654
0.10009816
0.10109454
0.10217634
0.10334567
0.10460464
0.10593471
0.10735339
0.10881135
0.11034962
0.11188231
0.11349161
0.11503897
0.11667616
0.11817395
0.11980472
0.12124267
0.12282918
0.12419095
0.12585835
0.12717188
0.12887362
0.12999355
0.13182098
0.13266706
0.1349844
0.089954715
0.093321075
0.096274908
0.098820801
0.10099705
0.10283429
0.10435075
0.1054612
0.10617202
0.10639614
0.10617332
0.10549212
0.10428389
0.10281856
0.10109997
0.099320501
0.097575514
0.095971723
0.09459964
0.093491755
0.092708859
0.092159334
0.091869521
0.091826646
0.091960305
0.092275294
0.092744953
0.093324779
0.094035605
0.094835934
0.0957478
0.096746778
0.097830136
0.098999591
0.10024413
0.10156044
0.10294508
0.104398
0.1059006
0.10746783
0.10905073
0.11068862
0.11229976
0.11396439
0.11555303
0.11721136
0.11872501
0.12035297
0.1217869
0.12335812
0.12470556
0.12634311
0.12763618
0.12930558
0.13040533
0.13219942
0.13303
0.13529481
0.049371886
0.054627461
0.05977904
0.064751016
0.069434017
0.07376351
0.077668481
0.081150583
0.084105814
0.086466391
0.088253781
0.089409792
0.089954065
0.089898895
0.089550548
0.088841017
0.088043532
0.087254486
0.08658529
0.086120356
0.085866586
0.08587399
0.086049847
0.086450049
0.087010543
0.087706957
0.088531702
0.089461111
0.090470145
0.091569496
0.092731412
0.093973907
0.095281582
0.096650489
0.098091826
0.099587234
0.10113472
0.10272585
0.1043595
0.10601766
0.10771439
0.10940277
0.11112148
0.11279425
0.11449954
0.11611709
0.11778652
0.11930784
0.12092655
0.12235106
0.12390307
0.12523264
0.12683776
0.12810812
0.12974324
0.13082144
0.13258
0.13339425
0.1356048
0.021112569
0.024591386
0.028531084
0.033088824
0.037840738
0.04270478
0.047613017
0.052401123
0.056959082
0.061147877
0.064841571
0.0680259
0.070568593
0.072478094
0.073790219
0.074713678
0.075313328
0.075749511
0.076157407
0.07663456
0.077247778
0.077980204
0.078874147
0.07988913
0.081035791
0.082251544
0.083550609
0.084918582
0.086337234
0.087797989
0.08930607
0.090844937
0.092430202
0.094053687
0.095711485
0.09742124
0.099159135
0.10092367
0.1027028
0.1044958
0.10628667
0.10808997
0.10986225
0.11164229
0.11335991
0.11509173
0.1167265
0.11839766
0.11991907
0.12152264
0.12293285
0.12446203
0.12577055
0.12734092
0.12858652
0.13018566
0.13124113
0.13296227
0.13375942
0.13591431
0.011380033
0.013023692
0.01506299
0.017582052
0.020479046
0.023927453
0.0277588
0.031832688
0.036020237
0.040207723
0.044267303
0.048107216
0.051550687
0.054561357
0.057124544
0.059335278
0.061301846
0.063086539
0.064810144
0.066544949
0.068330154
0.070130393
0.071985227
0.07388103
0.075807587
0.077713514
0.079638675
0.081569689
0.083494758
0.085419018
0.087345086
0.089265402
0.091193687
0.093127585
0.095064194
0.097025526
0.098984788
0.10094119
0.10288106
0.10480585
0.10670262
0.10858758
0.11042163
0.1122438
0.11399021
0.11573534
0.11737649
0.11904083
0.12055535
0.12213846
0.12352997
0.12503303
0.12631766
0.12785127
0.12907026
0.13063198
0.13166367
0.13334581
0.13412512
0.13622325
0.0072275471
0.0070487707
0.0071210113
0.0074480358
0.0080641039
0.0091464098
0.010792976
0.013017589
0.01583493
0.019039154
0.022587432
0.026338236
0.03018
0.033996598
0.037650977
0.041153051
0.044480807
0.047686972
0.050780879
0.053810196
0.056807144
0.059777727
0.062663134
0.065494891
0.068272798
0.070984285
0.073589734
0.076143991
0.078639608
0.081070907
0.083454232
0.085791025
0.088080612
0.090335088
0.092557177
0.094746275
0.096927999
0.099075224
0.1011892
0.10325633
0.10528167
0.10725589
0.10919741
0.1110717
0.1129179
0.11467818
0.11642451
0.11806219
0.11971198
0.12121332
0.12277122
0.12414009
0.1256141
0.12687237
0.1283675
0.12955823
0.13108133
0.13208835
0.13373017
0.13449101
0.13653156
0.0084616057
0.007698284
0.0069443547
0.0063534035
0.0056507734
0.0047709718
0.0037020013
0.0025441429
0.0019401105
0.0031155898
0.0054127753
0.0083657254
0.011624428
0.015134476
0.019006275
0.022896419
0.026936964
0.031075123
0.035279052
0.039526544
0.043747332
0.047924614
0.052019645
0.055945271
0.059718976
0.063344969
0.066814687
0.070098431
0.073258486
0.076295311
0.079208361
0.082022831
0.084739788
0.087364113
0.08990696
0.092376386
0.09477556
0.097133943
0.09942684
0.10165836
0.10381636
0.10591003
0.10793366
0.10990782
0.1118023
0.11365599
0.11541663
0.11715331
0.11877872
0.1204071
0.12188965
0.12341814
0.12476092
0.12620328
0.12743306
0.12888828
0.13004933
0.13153284
0.13251447
0.13411491
0.13485676
0.13683918
0.010099997
0.0098508982
0.0096998199
0.0096140044
0.009510765
0.0093310706
0.0090301577
0.0085904076
0.007990674
0.0071758663
0.0062676534
0.0055206451
0.0051902564
0.0059410778
0.0081475836
0.011272277
0.015195925
0.019749262
0.024670798
0.029879434
0.035140375
0.040376077
0.045488945
0.050364596
0.055001017
0.059402115
0.063565154
0.067468259
0.071175774
0.074696475
0.078034369
0.081221666
0.084260286
0.087160238
0.089932949
0.092592529
0.095147645
0.097631374
0.10002323
0.10233061
0.10454328
0.1066744
0.10872128
0.11070622
0.11260286
0.11444932
0.11619836
0.1179158
0.1195212
0.12112219
0.12258101
0.12407648
0.12539021
0.12679866
0.12799815
0.12941231
0.1305425
0.13198567
0.13294134
0.13449959
0.13522203
0.13714601
0.011772017
0.012167473
0.012663072
0.013221196
0.013797455
0.014346637
0.01482306
0.015192249
0.01537575
0.015268125
0.01474913
0.013789866
0.012257301
0.010191499
0.0078808251
0.0059168571
0.0068550172
0.010893225
0.016275643
0.022311487
0.028487968
0.034646116
0.040633239
0.046321288
0.051691195
0.056745376
0.061487759
0.065903349
0.070055736
0.073962103
0.077631475
0.081102011
0.084377782
0.087473992
0.090403673
0.093187019
0.095838595
0.098394523
0.10083899
0.10318233
0.10541605
0.10755654
0.10960331
0.11157976
0.11346275
0.11528917
0.11701622
0.11870616
0.12028485
0.12185332
0.1232841
0.12474349
0.12602571
0.12739832
0.12856606
0.12993829
0.13103666
0.13243898
0.13336829
0.13488376
0.13558651
0.1374521
0.012210518
0.013101604
0.014047806
0.015055078
0.016104778
0.017173612
0.01822816
0.019220952
0.020101888
0.020785475
0.021091204
0.020977293
0.020217069
0.018683706
0.016269521
0.012897174
0.0085986784
0.0043220831
0.004781422
0.010484964
0.017348637
0.02432048
0.031220557
0.037877948
0.044175172
0.050084343
0.055608314
0.060758809
0.065528121
0.069978729
0.074135686
0.078013721
0.081655728
0.085068729
0.088272328
0.09128139
0.094121114
0.096811078
0.099389176
0.10184375
0.10418727
0.10641238
0.10853776
0.11056427
0.1125157
0.11437155
0.11616703
0.11786325
0.11951867
0.12106496
0.1225966
0.12399571
0.12541649
0.1266652
0.1280004
0.12913523
0.13046495
0.13153079
0.13289194
0.13379464
0.13526695
0.13594996
0.13775738
0.01255463
0.013869408
0.015177559
0.016509628
0.017866623
0.01923772
0.020595027
0.021886847
0.023056536
0.023964307
0.024468793
0.024533861
0.023821521
0.022254967
0.019672729
0.01595816
0.011046373
0.0055346743
0.0012364619
0.0081434937
0.015624851
0.02312954
0.030471857
0.037505358
0.044130364
0.050317955
0.056072649
0.061414328
0.066342374
0.070917957
0.07517234
0.079124929
0.082821225
0.086270498
0.089494961
0.092510312
0.095344722
0.09802112
0.10057757
0.10300556
0.1053187
0.10751011
0.10959981
0.11158918
0.11350178
0.11531922
0.1170747
0.11873273
0.12034782
0.12185699
0.12334826
0.12471267
0.12609286
0.12730648
0.12860305
0.12970413
0.13099102
0.13202387
0.13334374
0.13421974
0.13564871
0.1363121
0.13806167
0.012478125
0.013972557
0.015429375
0.016885995
0.018353658
0.019825291
0.021272003
0.022635641
0.02383174
0.024768497
0.025246982
0.025251141
0.02439325
0.022669285
0.019826069
0.015837122
0.010669175
0.005279696
0.003600037
0.0099888932
0.017525038
0.025076714
0.032458657
0.039507974
0.046133865
0.052307398
0.058033357
0.063338002
0.068225638
0.072754635
0.076958933
0.080860294
0.084503709
0.087898983
0.091068526
0.094027293
0.096804112
0.099423418
0.10192193
0.10429312
0.10655082
0.10868805
0.11072528
0.11266377
0.11452633
0.11629621
0.11800434
0.1196182
0.12118829
0.12265653
0.12410466
0.12543194
0.12677006
0.12794743
0.12920448
0.1302713
0.13151528
0.1325149
0.1337936
0.13464295
0.13602859
0.13667244
0.13836497
0.011881682
0.013320281
0.014716052
0.016101906
0.017484669
0.018853587
0.020174312
0.021384601
0.022400367
0.023104119
0.023368116
0.023033096
0.021847819
0.019808375
0.016682928
0.01263452
0.0080527688
0.0053822202
0.0089756896
0.015391942
0.022614531
0.029821758
0.036871168
0.043588266
0.049904769
0.05579085
0.06125074
0.06631398
0.070986317
0.075320856
0.079350039
0.083094948
0.086597004
0.08986453
0.092917807
0.095769504
0.098447009
0.10097463
0.1033865
0.10567703
0.10785951
0.10992642
0.11189794
0.11377472
0.11557841
0.11729351
0.11894853
0.12051354
0.12203502
0.12345938
0.12486229
0.12615059
0.12744563
0.12858597
0.12980297
0.13083528
0.13203656
0.13300294
0.13424074
0.13506364
0.13640616
0.13703056
0.13866713
0.01089591
0.01199351
0.013087216
0.014190962
0.015289764
0.016355902
0.017341369
0.018180752
0.018777298
0.019013395
0.018796884
0.017907029
0.016249286
0.013931676
0.010885828
0.0082728574
0.0076122355
0.011226292
0.016951028
0.023460267
0.030179885
0.036786945
0.043209982
0.049308458
0.05505918
0.060433892
0.065435881
0.070094994
0.074414506
0.078439422
0.082196961
0.08570481
0.088998045
0.092081722
0.094972186
0.097678583
0.10022522
0.10263497
0.10493855
0.10713038
0.10922269
0.11120707
0.11310283
0.1149097
0.11664783
0.11830272
0.11990032
0.12141298
0.12288321
0.12426153
0.1256178
0.12686581
0.12811724
0.12922013
0.13039684
0.13139471
0.13255369
0.13348706
0.13468442
0.13548121
0.13678101
0.13738631
0.13896804
0.009618588
0.010124645
0.010695749
0.011317698
0.011940891
0.012509992
0.012957806
0.013174998
0.013124336
0.012653414
0.01168072
0.010123273
0.0083763718
0.0070287067
0.0073908868
0.010719671
0.015564058
0.021460323
0.027532201
0.033657254
0.039643211
0.045404013
0.050958754
0.056214865
0.061204415
0.065900862
0.070304527
0.074442254
0.078310854
0.081944792
0.085362779
0.088576769
0.091613553
0.094473687
0.097168341
0.099702304
0.10209564
0.10436886
0.1065487
0.10862893
0.11062036
0.11251349
0.11432629
0.11605737
0.11772523
0.11931604
0.12085323
0.12231112
0.12372836
0.12505922
0.12636805
0.12757497
0.12878267
0.12984804
0.13098459
0.13194826
0.13306561
0.13396639
0.13512395
0.13589507
0.13715271
0.1377394
0.13926753
0.0079266309
0.0078207143
0.0077913861
0.0077625864
0.0076435173
0.0073231003
0.0066697964
0.0056434257
0.0041366823
0.0025298441
0.003085226
0.006383561
0.011234387
0.016558632
0.022602932
0.028592857
0.034587998
0.040196537
0.045488382
0.050439123
0.055114404
0.059608823
0.06386671
0.06796458
0.071877832
0.075596054
0.079140363
0.082497934
0.085690851
0.088727241
0.091611718
0.094361954
0.096973241
0.099450898
0.10179492
0.1040204
0.10614491
0.10819097
0.11015115
0.11203469
0.11383086
0.11555599
0.11720748
0.11880202
0.12032631
0.12180129
0.12320295
0.12456627
0.12584894
0.12711006
0.12827559
0.12943983
0.13046795
0.13156475
0.13249469
0.13357128
0.1344401
0.13555865
0.13630468
0.1375209
0.13808961
0.13956542
0.0059872623
0.00527952
0.0046706565
0.0041196755
0.0035846633
0.0030962202
0.0030884515
0.0042378498
0.0067267245
0.010273486
0.014611121
0.019891032
0.025996069
0.032282726
0.038572468
0.044372979
0.049633996
0.054189894
0.058255685
0.061918758
0.065342128
0.068662561
0.071852194
0.074998248
0.078084678
0.081081198
0.084001846
0.086822476
0.089551773
0.092186944
0.094724665
0.097173321
0.099522728
0.10177222
0.10391693
0.1059667
0.10793582
0.10984258
0.11167807
0.11344985
0.11514597
0.11678087
0.11835075
0.11987044
0.12132704
0.12273902
0.12408389
0.12539309
0.12662743
0.12784112
0.12896536
0.13008679
0.1310782
0.13213595
0.13303286
0.13406971
0.1349074
0.13598789
0.13670951
0.13788526
0.13843666
0.13986152
0.0056863172
0.0057186982
0.0061267447
0.0069504227
0.0082331898
0.010020209
0.012602992
0.016051722
0.020417669
0.025578926
0.031456652
0.037878589
0.044526274
0.050893646
0.056630016
0.061431777
0.065366529
0.068495984
0.071112774
0.073383052
0.075514415
0.077652559
0.079793368
0.082004554
0.084276719
0.086562295
0.088866492
0.091154138
0.093421203
0.095654833
0.097844109
0.099988749
0.10207345
0.10409193
0.10603473
0.10790646
0.10971807
0.11148384
0.11319315
0.11485199
0.11644715
0.11799114
0.11947893
0.12092354
0.12231234
0.12366148
0.12494975
0.12620528
0.12739172
0.12855868
0.12964216
0.13072175
0.13167728
0.13269692
0.13356166
0.13456002
0.13536757
0.13641108
0.13710909
0.13824547
0.13878034
0.14015564
0.010486717
0.01258174
0.015140506
0.018354522
0.022310135
0.0271517
0.032647234
0.038784248
0.045429596
0.052262358
0.058999108
0.06522155
0.07059595
0.074916611
0.078110737
0.080401011
0.081995346
0.083163791
0.084135417
0.085092557
0.086159119
0.087358075
0.088726181
0.090249112
0.091875753
0.093602936
0.095386521
0.097212337
0.099059691
0.10091136
0.10275969
0.10458508
0.10637639
0.10812014
0.10981601
0.11147174
0.11309793
0.11468221
0.1162291
0.11772426
0.11917815
0.12058469
0.12195509
0.12327693
0.12456416
0.12579672
0.12699959
0.12813904
0.1292604
0.130304
0.13134301
0.13226374
0.13324645
0.13408009
0.13504132
0.13581989
0.13682767
0.13750296
0.13860122
0.13912039
0.14044758
0.12033446
0.12166168
0.12295967
0.12421619
0.12544314
0.12662143
0.12777317
0.12886696
0.12994421
0.13094914
0.13194909
0.13283631
0.13378348
0.13458723
0.13551285
0.13626378
0.13723715
0.13789075
0.13895226
0.13945661
0.14073714
0.17921752
0.18211719
0.14138723
0.15002357
0.15761858
0.16425266
0.16985808
0.17442226
0.17802561
0.18081216
0.13172011
0.14172641
0.15010522
0.15738955
0.16370558
0.16903791
0.17338771
0.17683244
0.17950567
0.13226213
0.14195962
0.15009248
0.15710985
0.16312611
0.16819662
0.17233884
0.17562897
0.17819098
0.13269222
0.1420895
0.14999723
0.15673255
0.16247882
0.1673108
0.17125954
0.17440318
0.17685892
0.13296983
0.14205661
0.1497513
0.15623326
0.16174053
0.16635843
0.17013139
0.17313967
0.17549583
0.1330257
0.14187001
0.1493166
0.15558962
0.16088978
0.16531797
0.16893407
0.17182041
0.17408479
0.13288076
0.14142057
0.14866945
0.15476947
0.15989645
0.16416346
0.16764429
0.17042402
0.17260582
0.13242378
0.14067754
0.14777179
0.15373665
0.15872814
0.16286604
0.1662348
0.16892461
0.17103501
0.13163372
0.13963969
0.14659947
0.15246298
0.15735666
0.1613985
0.16467994
0.16729681
0.16934751
0.13052082
0.13828155
0.14512512
0.15092132
0.15575552
0.15973519
0.16295538
0.16551721
0.16752017
0.12898998
0.13653736
0.14330617
0.14908148
0.1538998
0.15785359
0.16103966
0.16356509
0.16553259
0.12709707
0.13443879
0.14115411
0.14694373
0.1517843
0.1557454
0.15892296
0.16143009
0.16337439
0.12484793
0.13201158
0.13869624
0.14452898
0.14942292
0.15341912
0.15661003
0.15911454
0.16104638
0.12233617
0.12932944
0.13599086
0.14188271
0.14685051
0.15090189
0.15412338
0.15663829
0.15856725
0.11963095
0.12646286
0.1331039
0.13906249
0.14411632
0.14823565
0.15149954
0.15403425
0.15596746
0.11684476
0.12350679
0.13011704
0.13613828
0.14128157
0.14547564
0.14878936
0.15135064
0.15329403
0.11407728
0.12055167
0.12710974
0.13317958
0.1384072
0.14267809
0.14604526
0.14863645
0.15059256
0.11142162
0.11768414
0.12415774
0.13025223
0.13555427
0.13990095
0.14332438
0.14594965
0.14792339
0.10895357
0.11497018
0.12131928
0.12740868
0.13277274
0.13719547
0.14068149
0.14334947
0.1453501
0.10672418
0.11245786
0.11863651
0.12468419
0.13009387
0.13459335
0.13815151
0.14087496
0.1429155
0.10482989
0.11024314
0.11619514
0.1221462
0.12756637
0.13212961
0.1357607
0.1385457
0.14063238
0.10322004
0.10829533
0.11398235
0.11979018
0.1251848
0.12979473
0.13349647
0.1363481
0.13848816
0.10188995
0.1066121
0.11200091
0.11762137
0.12295174
0.12758601
0.13135164
0.13427185
0.13646983
0.10086538
0.10522489
0.11028448
0.11566901
0.12088479
0.12550647
0.12931593
0.13229715
0.1345523
0.1001093
0.10411738
0.1088379
0.11395368
0.11900964
0.12357754
0.12740318
0.13043137
0.13273895
0.099570969
0.10323114
0.10760402
0.11242616
0.11728545
0.12176161
0.12557408
0.12863103
0.13098148
0.09925657
0.10258093
0.10660433
0.11111245
0.11573875
0.12008088
0.12384284
0.12690133
0.12927717
0.099100249
0.10210329
0.1057833
0.10996881
0.11433756
0.11851129
0.12218834
0.12522075
0.12760308
0.099131291
0.10182436
0.10516518
0.10902048
0.11311037
0.11708451
0.12064346
0.12362153
0.12598993
0.09929128
0.10169802
0.10471543
0.10824533
0.11204682
0.1157996
0.11921314
0.12211102
0.12444506
0.099617261
0.10174689
0.10445355
0.10766421
0.11117311
0.11468926
0.11793477
0.12072819
0.12300635
0.10006027
0.10192565
0.10433759
0.10723667
0.11045238
0.1137225
0.11678409
0.1194546
0.12165933
0.10062736
0.10224774
0.10437152
0.10696625
0.10988867
0.1129043
0.11576718
0.11829722
0.12041141
0.10129174
0.10266673
0.10450151
0.10679343
0.10942081
0.11217632
0.1148308
0.11720811
0.11921906
0.10206188
0.10320572
0.10476912
0.10676236
0.10908475
0.11156516
0.11399333
0.11619961
0.11809066
0.1029262
0.10384492
0.10513828
0.10683224
0.10886244
0.11107445
0.1132772
0.11530858
0.11707296
0.10389234
0.10459887
0.10563443
0.10704077
0.10878752
0.11072989
0.11270419
0.11455616
0.11618842
0.10496437
0.10547308
0.1062639
0.1073928
0.10884646
0.11052274
0.1122702
0.11394265
0.11544128
0.1061241
0.10644971
0.10700827
0.10786686
0.10903606
0.11045397
0.11196969
0.1134571
0.11481692
0.10739184
0.1075521
0.10789464
0.10849396
0.10938332
0.11052178
0.11180164
0.11310008
0.11431747
0.10871974
0.10873532
0.10888338
0.1092416
0.10986222
0.11073421
0.11178887
0.1128872
0.11395241
0.11015101
0.11004503
0.11002374
0.11016224
0.11052528
0.11112884
0.11192424
0.11283559
0.1137452
0.11159777
0.11139338
0.11123141
0.11118169
0.11131583
0.11167334
0.11223603
0.1129401
0.1137004
0.11314391
0.11286552
0.11259347
0.11238885
0.11232295
0.1124485
0.11277308
0.11325514
0.11383668
0.11464341
0.11430907
0.11395189
0.11362424
0.11339419
0.11332334
0.11344022
0.11372972
0.11414323
0.11625302
0.11588488
0.11547259
0.11505979
0.11470787
0.11447868
0.11441159
0.11450921
0.11474178
0.11773036
0.11733805
0.11688555
0.1164094
0.11596504
0.11561339
0.11540094
0.1153448
0.11543073
0.11935899
0.11896206
0.11849593
0.11799089
0.11749587
0.11706756
0.11675356
0.11657812
0.11653821
0.12079729
0.12039952
0.11992642
0.11940394
0.11887627
0.11839669
0.11801263
0.11775255
0.11762106
0.12239546
0.12200915
0.12154647
0.12102973
0.12049849
0.12000205
0.11958586
0.11927915
0.11908964
0.12376872
0.12339472
0.12294412
0.12243656
0.12190858
0.12140676
0.12097524
0.12064386
0.12042275
0.12546148
0.12511287
0.1246916
0.12421482
0.12371497
0.12323407
0.12281274
0.12247935
0.12224467
0.12679274
0.12646272
0.12606278
0.12560839
0.12512966
0.12466616
0.12425675
0.12392923
0.12369476
0.12852215
0.12821935
0.12785175
0.12743303
0.12699014
0.12655859
0.12617323
0.1258593
0.12562763
0.1296601
0.12937649
0.12903169
0.12863811
0.12822059
0.12781225
0.12744613
0.12714659
0.12692447
0.13151538
0.13125851
0.13094549
0.1305872
0.13020596
0.12983176
0.12949452
0.12921623
0.12900675
0.1323755
0.13213464
0.13184086
0.13150398
0.13114444
0.13079022
0.13046993
0.13020508
0.13000581
0.13473785
0.13453561
0.1342891
0.1340065
0.13370486
0.13340769
0.13313881
0.13291634
0.13274865
0.18452318
0.18677525
0.18892869
0.19102289
0.1930104
0.19371849
0.18312862
0.18529909
0.18737879
0.1894052
0.19133434
0.19203573
0.18173288
0.18382198
0.18582716
0.18778434
0.18965231
0.19034524
0.18033076
0.18234044
0.18427228
0.18615986
0.18796536
0.18864629
0.17891474
0.18084756
0.18270747
0.18452602
0.18626777
0.18693276
0.17747239
0.17933201
0.18112228
0.18287271
0.18455004
0.18519553
0.17598777
0.17777894
0.17950287
0.1811871
0.18279993
0.1834224
0.1744416
0.17616951
0.17783089
0.1794514
0.18100064
0.18159804
0.1728113
0.17448204
0.17608548
0.1776457
0.17913321
0.17970483
0.17107258
0.17269267
0.17424304
0.1757466
0.17717521
0.17772452
0.16920268
0.1707792
0.17228225
0.17373395
0.17510799
0.17564089
0.16718113
0.16872088
0.17018215
0.1715868
0.17291204
0.17344193
0.16499765
0.16650772
0.16793359
0.1692974
0.17058162
0.17112464
0.16265164
0.16413761
0.16553307
0.16686131
0.16811426
0.16869722
0.16016153
0.16162946
0.16300116
0.1643023
0.16553502
0.16618381
0.15755578
0.15900979
0.16036235
0.16164229
0.16286425
0.16361608
0.15488125
0.15632616
0.15766578
0.1589334
0.16016245
0.16111811
0.15218001
0.15361651
0.15494499
0.15620698
0.15747301
0.15882615
0.14951656
0.15095218
0.15228291
0.15356488
0.15491902
0.15669986
0.14695827
0.14840285
0.14974624
0.15105457
0.1524711
0.15435121
0.1445513
0.14601746
0.14738473
0.14872405
0.15018356
0.15206589
0.14230061
0.14379089
0.14517965
0.14653901
0.14801721
0.14991403
0.14019687
0.14172024
0.14314053
0.1445333
0.14605635
0.14810246
0.13822371
0.13978383
0.14123605
0.14265708
0.14421007
0.14633584
0.13635439
0.13795762
0.13945244
0.14092184
0.14255258
0.14492056
0.13458994
0.13624044
0.1377835
0.1393047
0.14099743
0.14341163
0.13287713
0.13457388
0.13616554
0.13773943
0.13949825
0.14204019
0.13120675
0.1329435
0.1345814
0.1362114
0.13805569
0.14084
0.12955454
0.13132447
0.13300726
0.13469971
0.13665182
0.13974982
0.12794944
0.12974378
0.13146783
0.13322547
0.13529707
0.13872599
0.12639739
0.12820491
0.1299631
0.13178352
0.13397858
0.13774742
0.12493348
0.12673861
0.12851771
0.1303905
0.13270133
0.13680135
0.12354551
0.12533347
0.12711949
0.12903167
0.13144738
0.1358777
0.12224098
0.12399679
0.12577513
0.12771293
0.13022087
0.13497232
0.12097984
0.12269133
0.1244499
0.12640192
0.12899417
0.13407991
0.11976761
0.12142038
0.12314552
0.12509976
0.12776788
0.13319984
0.11865749
0.12024096
0.12192007
0.12386135
0.12658697
0.1323446
0.11767438
0.11918126
0.12080538
0.12272257
0.12548962
0.13154118
0.11682603
0.11825237
0.11981603
0.12170127
0.12449849
0.13082028
0.11609567
0.11743695
0.11893576
0.12078554
0.12361063
0.13020084
0.11548647
0.11673845
0.11816787
0.11997711
0.12282641
0.12968722
0.11500337
0.11615881
0.11751265
0.11927718
0.12214902
0.12927923
0.11467303
0.1157254
0.11699624
0.11870727
0.12159272
0.12897651
0.1144985
0.11544115
0.11662314
0.11827573
0.12116709
0.12876837
0.11450723
0.11532785
0.11640238
0.11797837
0.12086548
0.12870033
0.11466487
0.115372
0.11634596
0.11783628
0.12070245
0.1287525
0.11509108
0.11562707
0.11646246
0.11786439
0.12070261
0.12888724
0.1156421
0.11603679
0.11672727
0.1179932
0.12076026
0.12905862
0.11661542
0.11685276
0.11735242
0.11839451
0.12095448
0.1292763
0.11759954
0.11772147
0.11808781
0.11896772
0.12132399
0.1295258
0.11899693
0.11902265
0.11925293
0.1199265
0.12194635
0.12980207
0.12029062
0.12026261
0.12041727
0.12097016
0.12277265
0.13014755
0.12208715
0.12201455
0.12209213
0.12249724
0.12394672
0.13062437
0.12353192
0.12344648
0.12349978
0.12385381
0.12517527
0.13123309
0.12545718
0.12534897
0.12535396
0.12560324
0.12663654
0.13204649
0.12675957
0.12665368
0.126658
0.12690255
0.12792812
0.13295494
0.12884635
0.12873377
0.12871219
0.12888743
0.12970433
0.13411261
0.12985354
0.12974886
0.12973841
0.12993546
0.13082846
0.13512349
0.13261828
0.1325265
0.13250809
0.13264582
0.13327201
0.13685977
)
;

boundaryField
{
    Side1
    {
        type            empty;
    }
    Inlet
    {
        type            calculated;
        value           nonuniform List<scalar> 0();
    }
    Side2
    {
        type            empty;
    }
    Outlet
    {
        type            calculated;
        value           nonuniform List<scalar> 
35
(
0.1349844
0.13529481
0.1356048
0.13591431
0.13622325
0.13653156
0.13683918
0.13714601
0.1374521
0.13775738
0.13806167
0.13836497
0.13866713
0.13896804
0.13926753
0.13956542
0.13986152
0.14015564
0.14044758
0.14073714
0.13473785
0.13453561
0.1342891
0.1340065
0.13370486
0.13340769
0.13313881
0.13291634
0.13274865
0.13261828
0.1325265
0.13250809
0.13264582
0.13327201
0.13685977
)
;
    }
    Botwall
    {
        type            calculated;
        value           nonuniform List<scalar> 
59
(
0.15005636
0.15004484
0.15003337
0.15002197
0.1500106
0.14999922
0.14998778
0.14997619
0.14996437
0.14995222
0.14993968
0.14992667
0.14991321
0.14989932
0.14988519
0.14987086
0.14985689
0.14984386
0.14983196
0.14981818
0.14980623
0.14979506
0.14978547
0.1497759
0.14976816
0.14975989
0.14975201
0.1497447
0.14973777
0.14973083
0.14972359
0.14971575
0.14970745
0.14969923
0.14969168
0.14968517
0.14967937
0.1496738
0.14966841
0.14966379
0.14966039
0.14965803
0.14965674
0.1496561
0.14965636
0.14965771
0.14966035
0.14966382
0.14966897
0.1496755
0.14968439
0.14969471
0.14970773
0.14972025
0.14973411
0.14974525
0.14975738
0.14976496
0.14977421
)
;
    }
    Cyli
    {
        type            calculated;
        value           nonuniform List<scalar> 0();
    }
    procBoundary1to0
    {
        type            processor;
        value           nonuniform List<scalar> 
44
(
0.11486674
0.13109939
0.086090044
0.086090044
0.044033084
0.044033084
0.018029441
0.010009995
0.010009995
0.007594856
0.007594856
0.0092954067
0.010458919
0.011479482
0.011479482
0.011503569
0.011301232
0.010991287
0.010469896
0.0099365374
0.008145331
0.0093850104
0.008145331
0.0068197702
0.0060434849
0.0087599944
0.0087599944
0.18041584
0.18342591
0.1409882
0.14989405
0.1578314
0.16479346
0.170676
0.17545563
0.17545563
0.13109939
0.13109939
0.18591952
0.188251
0.19047496
0.19263147
0.19466958
0.19538495
)
;
    }
    procBoundary1to3
    {
        type            processor;
        value           nonuniform List<scalar> 
62
(
0.022231261
0.026441389
0.031273002
0.0369934
0.043233417
0.0497949
0.056534244
0.063285182
0.069819154
0.075821539
0.08115896
0.085591293
0.08900153
0.09137395
0.09276314
0.093509969
0.093733531
0.093709298
0.093646682
0.093685467
0.093880152
0.0943096
0.094972912
0.095850548
0.096898767
0.098111119
0.099437592
0.10085751
0.10234542
0.10387974
0.10544718
0.107025
0.10859817
0.11014999
0.11167571
0.11318013
0.11467063
0.11613313
0.11757089
0.11896849
0.11896849
0.12145363
0.12270435
0.12393251
0.12512601
0.12629486
0.12742083
0.12852338
0.12957323
0.13060817
0.13157592
0.13253858
0.13339378
0.134307
0.13508223
0.13597387
0.13669862
0.13763907
0.13827207
0.1392983
0.13978875
0.14102408
)
;
    }
}


// ************************************************************************* //
