/*--------------------------------*- C++ -*----------------------------------*\
| =========                 |                                                 |
| \\      /  F ield         | OpenFOAM: The Open Source CFD Toolbox           |
|  \\    /   O peration     | Version:  2406                                  |
|   \\  /    A nd           | Website:  www.openfoam.com                      |
|    \\/     M anipulation  |                                                 |
\*---------------------------------------------------------------------------*/
FoamFile
{
    version     2.0;
    format      ascii;
    arch        "LSB;label=32;scalar=64";
    class       volScalarField;
    location    "0.11";
    object      omega;
}
// * * * * * * * * * * * * * * * * * * * * * * * * * * * * * * * * * * * * * //

dimensions      [0 0 -1 0 0 0 0];

internalField   nonuniform List<scalar> 
2065
(
80267.926
74705.426
69748.101
65304.672
61325.323
57752.873
54550.935
51676.01
49077.572
46700.305
44465.458
42294.701
40103
37835.922
35418.654
32858.912
30249.41
27731.884
25466.032
23537.819
21945.445
20631.581
19525.026
18538.309
17541.045
16476.958
15434.759
14457.38
13532.304
12707.453
12016.087
11311.435
10345.808
9225.295
8250.5397
7605.1618
7177.3316
6747.6003
6230.8925
5717.7502
5284.6358
4926.9139
4624.8749
4354.6495
4118.5242
3905.8082
3724.3217
3555.4945
3414.385
3278.296
3172.0456
3065.6449
2989.922
2895.4614
2838.0557
2743.8279
2697.1579
2559.7452
91578.33
85466.017
79631.06
74245.342
69339.667
64841.52
60754.554
57026.95
53624.505
50484.8
47537.682
44743.808
42046.508
39378.592
36691.579
33912.358
31089.795
28368.343
25900.281
23808.445
22096.055
20703.736
19540.636
18492.613
17407.136
16247.724
15136.647
14122.236
13206.191
12418.775
11745.59
11025.785
10046.533
8943.0799
8008.8526
7391.6812
6969.8252
6543.6872
6048.4475
5569.2921
5167.9367
4835.0952
4550.2603
4292.7517
4066.1612
3859.6067
3680.8915
3512.1164
3368.6577
3228.5338
3116.5757
3002.9755
2920.2154
2817.945
2754.7482
2653.4391
2602.969
2460.2034
86562.278
83605.14
80039.957
76231.768
72709.227
68774.456
64755.562
60896.965
57209.862
53723.175
50451.328
47394.822
44555.357
41924.776
39422.841
36959.217
34370.715
31605.507
28835.706
26273.49
24057.273
22238.599
20767.88
19532.519
18395.673
17190.524
15931.742
14757.575
13719.758
12832.661
12093.814
11446.641
10719.983
9738.3546
8663.7318
7775.479
7188.2752
6776.4817
6359.0211
5889.2193
5444.2166
5073.35
4763.3227
4493.6382
4246.37
4026.895
3824.5311
3647.2955
3477.882
3331.8861
3187.967
3070.9337
2950.9891
2862.1573
2753.134
2685.0113
2577.6775
2524.2302
2377.1697
47637.035
49886.28
52553.554
54757.402
56032.316
56229.628
55727.015
54460.668
52595.872
50401.779
48071.377
45726.973
43494.178
41451.148
39621.094
37914.402
36148.089
34090.696
31648.508
29014.732
26478.674
24216.794
22315.391
20773.165
19466.014
18206.784
16870.674
15516.997
14293.87
13253.477
12415.237
11734.594
11120.636
10396.163
9424.4381
8390.2775
7553.991
7000.9775
6604.0559
6199.3795
5756.1287
5343.0899
4999.812
4709.5984
4452.5216
4213.0328
3998.4265
3798.521
3621.6413
3450.9972
3302.2966
3154.7592
3033.1459
2907.5509
2813.3966
2698.4589
2626.0492
2513.4846
2457.6062
2307.0477
25434.768
27373.407
29757.035
32393.637
34897.89
36971.907
38508.645
39411.532
39673.927
39477.401
38943.776
38170.155
37350.194
36568.303
35863.105
35188.406
34352.645
33137.603
31253.077
28871.921
26436.437
24205.754
22273.503
20690.946
19291.465
17889.956
16430.555
15000.002
13751.692
12735.531
11962.746
11347.024
10771.939
10058.975
9111.102
8128.1974
7349.8745
6836.097
6458.1953
6068.9184
5650.7322
5265.559
4945.6734
4671.669
4424.451
4190.4535
3978.7243
3779.8057
3602.3345
3429.9728
3278.4369
3127.4277
3001.6375
2870.9766
2772.1013
2651.9378
2575.7329
2458.5586
2400.6267
2247.1836
16406.391
17214.493
18451.7
20021.212
21843.62
23785.399
25688.792
27408.298
28825.49
29892.005
30633.598
31106.472
31387.283
31583.53
31758.96
31946.448
32106.774
32028.054
31564.706
30367.924
28397.972
26164.5
24015.342
22098.461
20470.595
18955.946
17427.459
15868.423
14392.152
13151.276
12189.354
11491.523
10942.839
10409.349
9716.5873
8806.1522
7884.5383
7169.4322
6698.7967
6342.619
5969.5246
5572.9106
5210.2772
4908.8075
4647.1593
4407.087
4176.5503
3966.0009
3766.858
3588.0232
3413.5603
3259.1025
3104.7619
2975.1369
2839.9184
2736.8214
2612.0153
2532.4117
2411.1317
2351.4185
2195.5747
13177.581
13351.1
13874.278
14690.626
15745.096
16987.584
18356.547
19780.638
21182.081
22487.76
23647.699
24649.193
25506.996
26263.245
26968.339
27675.48
28400.496
29101.245
29579.848
29571.151
28994.502
27492.105
25550.95
23561.441
21710.47
20046.261
18444.556
16820.378
15200.413
13722.319
12529.814
11648.63
11026.61
10540.312
10046.614
9380.839
8519.4312
7667.138
7018.4867
6592.0586
6258.3514
5900.5568
5520.9555
5175.0586
4886.7971
4633.7266
4398.2916
4169.4715
3958.6908
3758.3572
3577.5537
3400.7046
3243.2865
3085.763
2952.6059
2813.2827
2706.3934
2577.4512
2494.783
2369.8217
2308.5327
2150.6803
11926.654
11988.764
12343.384
12923.972
13682.152
14578.947
15579.498
16646.094
17737.379
18817.366
19852.88
20826.49
21743.443
22611.42
23472.596
24364.459
25311.745
26272.23
27071.997
27419.084
27204.233
26202.917
24571.83
22799.155
21069.287
19414.778
17766.643
16091.248
14462.707
13038.217
11938.543
11153.893
10600.503
10163.724
9702.1847
9066.7434
8262.1501
7483.5804
6901.151
6516.3753
6203.672
5859.25
5491.9703
5157.1437
4877.1338
4629.0952
4396.0438
4167.5196
3955.4383
3753.1601
3569.9368
3390.5112
3230.1428
3069.5984
2933.1892
2790.1737
2679.8725
2547.2444
2461.8042
2333.5303
2270.8295
2111.2937
11350.275
11339.595
11585.182
12020.424
12598.22
13284
14050.777
14875.718
15737.11
16614.427
17486.071
18341.025
19182.2
20009.463
20846.688
21723.432
22672.217
23664.066
24577.147
25158.149
25191.762
24602.424
23312.16
21793.236
20208.963
18603.94
16955.372
15286.224
13714.009
12402.109
11431.262
10745.592
10247.252
9840.2918
9397.5213
8791.0133
8045.5115
7339.8829
6818.9746
6470.0063
6175.0192
5841.5038
5482.2414
5153.4488
4877.2073
4631.0901
4398.5551
4169.2037
3955.0203
3750.2773
3564.3236
3382.2192
3218.9576
3055.5713
2916.1774
2769.8516
2656.4845
2520.5782
2432.6298
2301.3733
2237.3993
2076.4778
11447.457
11084.357
11026.437
11195.578
11534.476
11993.783
12539.997
13149.221
13804.308
14491.599
15198.657
15910.675
16622.482
17337.402
18062.515
18797.767
19576.16
20428.216
21336.367
22219.897
22892.38
23118.859
22808.67
21868.45
20603.563
19184.233
17665.997
16070.154
14473.558
13027.032
11877.607
11050.575
10454.758
9994.0654
9594.6175
9153.5892
8569.3765
7878.695
7239.4132
6770.7798
6449.5711
6167.3461
5841.909
5487.5982
5160.8383
4884.6525
4637.8418
4404.2857
4173.2592
3956.4092
3748.8561
3559.9872
3375.1813
3209.1282
3043.0964
2900.9791
2751.7025
2635.5899
2496.7806
2406.5679
2272.631
2207.5056
2045.4636
11350.132
10977.447
10881.335
10996.028
11269.676
11648.946
12099.316
12598.642
13132.864
13692.005
14266.184
14845.077
15427.001
16015.09
16612.423
17218.97
17862.151
18574.341
19355.056
20134.228
20787.342
21117.31
20994.082
20348.077
19320.071
18076.307
16680.575
15193.91
13737.593
12474.32
11510.247
10818.728
10296.595
9856.2109
9443.0085
8986.0347
8413.3432
7767.1624
7182.3177
6753.2004
6450.1182
6175.4725
5855.7323
5504.0837
5176.3353
4897.2491
4647.6468
4411.873
4178.5739
3958.7176
3748.1658
3556.3082
3368.8489
3200.1461
3031.6826
2887.1009
2735.215
2616.6578
2475.2951
2383.0481
2246.7117
2180.5461
2017.6006
11329.311
10935.867
10822.53
10904.794
11139.036
11469.972
11862.628
12295.793
12757.035
13238.396
13732.828
14231.279
14734.13
15238.62
15742.831
16242.88
16742.396
17269.781
17852.164
18466.272
19012.872
19349.256
19322.417
18882.925
18059.804
16992.369
15749.688
14423.968
13161.402
12107.661
11316.828
10731.803
10256.037
9822.0179
9386.9618
8901.2782
8327.6397
7711.5991
7165.5907
6761.425
6466.8356
6194.6783
5878.3451
5527.9157
5197.1772
4913.0064
4659.018
4420.1487
4184.1975
3961.1845
3747.5853
3552.7633
3362.7601
3191.5852
3020.9191
2874.131
2719.9629
2599.2464
2455.6584
2361.5964
2223.1253
2156.0231
1992.3487
11341.047
10936.184
10815.876
10885.818
11105.446
11418.212
11789.162
12198.078
12634.041
13090.986
13563.414
14039.97
14528.198
15008.715
15475.93
15927.984
16333.584
16714.773
17075.268
17426.577
17748.384
17982.371
17961.571
17625.501
16961.048
16057.196
14985.539
13853.826
12805.384
11945.747
11285.732
10763.205
10308.268
9870.1143
9409.8995
8893.4409
8309.1666
7707.7953
7183.4296
6790.0783
6494.8811
6220.5793
5905.6905
5555.7135
5220.8868
4930.1844
4670.6831
4428.1285
4189.3304
3963.1591
3746.5945
3548.9164
3356.5311
3183.0914
3010.4647
2861.7275
2705.5915
2582.9872
2437.4836
2341.8168
2201.4629
2133.5223
1969.2468
11363.483
10963.136
10846.768
10927.336
11158.967
11485.489
11872.616
12301.291
12762.294
13251.344
13765.918
14299.299
14841.773
15361.622
15840.934
16265.77
16593.678
16832.288
17005.182
17126.246
17188.675
17199.337
17071.333
16737.078
16167.122
15395.675
14489.879
13550.125
12693.196
11974.393
11387.326
10884.642
10426.47
9976.3302
9493.7575
8948.7052
8347.5871
7746.7734
7229.5708
6833.7011
6529.8702
6249.4187
5934.3588
5584.5677
5245.3042
4947.2964
4681.58
4434.9996
4193.3068
3964.1256
3744.7668
3544.4107
3349.8482
3174.3748
3000.039
2849.6085
2691.8066
2567.5734
2420.4474
2323.377
2181.3816
2112.6965
1947.9008
11395.908
11015.563
10915.188
11025.101
11292.786
11663.538
12104.071
12596.846
13134.909
13716.361
14338.454
14993.638
15660.336
16297.795
16863.056
17323.253
17612.693
17737.056
17719.805
17572.566
17350.027
17103.61
16778.751
16355.013
15797.733
15105.437
14328.865
13539.273
12803.686
12159.866
11585.609
11063.86
10582.37
10114.51
9614.8636
9048.1313
8429.7909
7820.3333
7296.3094
6887.1532
6568.0274
6278.1094
5961.5831
5612.0629
5268.6039
4963.103
4690.8493
4440.0981
4195.5808
3963.6757
3741.7621
3538.9628
3342.4613
3165.2032
2989.4159
2837.5444
2678.3662
2552.7506
2404.2793
2305.9984
2162.5929
2093.2531
1927.9742
11094.838
11024.092
11182.235
11509.453
11953.513
12482.326
13079.74
13741.13
14467.351
15257.31
16100.63
16966.638
17793.01
18507.664
19040.618
19313.631
19374.507
19178.973
18782.119
18269.647
17728.593
17141.648
16542.746
15910.399
15221.098
14498.989
13786.183
13111.277
12463.735
11845.9
11272.593
10751.986
10262.356
9751.1391
9171.7748
8539.608
7916.4263
7376.1129
6945.7971
6606.2287
6304.2204
5985.2224
5636.2717
5289.2957
4976.604
4697.8196
4442.8996
4195.8008
3961.4763
3737.3203
3532.3565
3334.1789
3155.3966
2978.417
2825.3516
2665.074
2538.3092
2388.7537
2289.4473
2144.8531
2074.9442
1909.1998
11224.869
11189.253
11405.288
11808.294
12349.098
12996.658
13735.968
14564.666
15486.414
16501.482
17595.805
18727.836
19804.987
20716.422
21339.585
21623.152
21611.225
21248.626
20636.449
19845.334
19000.611
18124.02
17296.757
16501.909
15737.147
14999.103
14280.599
13564.841
12843.631
12138.305
11488.279
10916.625
10402.511
9884.3931
9301.5646
8661.6582
8024.1914
7462.2178
7005.5836
6641.986
6325.9324
6003.7112
5655.7357
5306.2165
4987.0269
4701.9513
4443.1037
4193.6577
3957.2979
3731.256
3524.4378
3324.8625
3144.8219
2966.907
2812.8876
2651.773
2524.0784
2373.6834
2273.5275
2127.9557
2057.5594
1891.3931
11489.874
11471.427
11738.295
12224.309
12878.931
13671.255
14586.473
15623.41
16789.579
18085.79
19490.768
20947.641
22325.28
23458.023
24183.803
24491.913
24356.035
23796.43
22948.076
21880.493
20742.036
19588.053
18514.427
17520.499
16609.617
15760.237
14939.525
14110.354
13263.325
12438.473
11693.98
11062.748
10522.501
10001.022
9422.7432
8782.4162
8133.7333
7548.6752
7063.1164
6673.4054
6341.9759
6015.9096
5669.4074
5318.511
4993.7691
4702.9965
4440.4439
4188.9711
3950.9963
3723.4529
3515.1094
3314.4219
3133.3885
2954.7889
2800.0458
2638.341
2509.9214
2358.914
2258.0748
2111.7259
2040.9189
1874.3947
12007.509
12302.898
12866.735
13641.139
14595.47
15714.943
17001.11
18463.184
20101.519
21884.352
23725.044
25444.784
26804.154
27606.628
27832.554
27453.589
26599.142
25449.864
24115.515
22716.629
21322.095
20010.319
18800.493
17700.796
16679.787
15693.374
14698.051
13690.782
12726.908
11877.604
11181.42
10614.198
10091.865
9524.3876
8891.0294
8236.6272
7630.4092
7115.6874
6699.1362
6351.3845
6021.2657
5676.5939
5325.5439
4996.5204
4700.7394
4434.8059
4181.6623
3942.5066
3713.8584
3504.3265
3302.8112
3121.0444
2942.0002
2786.7516
2624.6863
2495.731
2344.3201
2242.9517
2096.0156
2024.8689
1858.0669
6019.7097
5677.2441
5327.168
4995.1381
4695.1053
4426.1876
4171.7417
3931.8356
3702.4773
3492.0913
3290.0244
3107.7717
2928.5088
2772.9584
2610.7438
2481.4261
2329.8015
2228.0436
2080.6993
2009.277
1842.291
31071.465
33836.003
55341.083
45738.431
38244.206
33093.925
30536.095
29991.099
31233.246
34053.935
63210.872
52807.022
44144.652
37350.192
32673.91
30384.043
30005.565
31355.823
34220.601
59695.09
50435.082
42626.195
36472.321
32244.348
30211.962
29984.234
31437.691
34333.288
56458.487
48207.995
41172.811
35610.115
31806.481
30024.77
29928.048
31454.299
34362.364
53486.954
46124.606
39782.249
34760.683
31353.837
29819.135
29836.893
31430.574
34338.348
50773.261
44179.806
38456.972
33930.579
30908.466
29628.836
29713.423
31362.129
34258.571
48304.73
42375.435
37199.628
33119.905
30431.883
29309.754
29535.189
31218.749
34083.971
46072.084
40711.908
36010.594
32324.316
29929.734
28968.458
29333.241
31014.585
33828.468
44052.997
39182.935
34887.695
31542.583
29408.603
28604.994
29088.475
30753.304
33498.716
42214.228
37774.131
33825.32
30772.825
28866.403
28198.945
28739.327
30415.434
33091.203
40505.381
36459.699
32812.111
30010.145
28300.256
27749.922
28338.012
30007.545
32608.829
38849.643
35186.694
31820.581
29242.352
27706.12
27259.201
27888.762
29538.979
32061.61
37165.82
33897.6
30819.407
28455.168
27080.098
26727.632
27391.909
29015.83
31457.555
35388.307
32527.155
29762.33
27624.353
26414.357
26155.495
26853.418
28451.392
30816.26
33423.194
30987.67
28588.828
26717.403
25699.586
25544.722
26281.441
27856.843
30149.294
31280.327
29275.563
27285.866
25734.343
24944.739
24902.953
25687.006
27247.673
29477.651
29047.999
27468.32
25905.636
24710.932
24159.235
24249.256
25092.239
26649.465
28827.903
26871.462
25686.693
24530.911
23692.905
23364.79
23595.285
24496.558
26044.642
28160.579
24887.949
24042.272
23238.096
22719.319
22581.77
22944.889
23901.236
25442.587
27505.691
23172.369
22597.897
22084.637
21814.276
21829.755
22305.122
23304.431
24830.542
26832.066
21735.77
21361.264
21064.27
20945.97
21090.109
21638.233
22649.179
24130.035
26037.799
20523.669
20281.27
20120.405
20093.263
20317.766
20898.145
21890.831
23307.259
25113.576
19471.4
19307.517
19210.795
19227.187
19478.373
20051.297
20997.347
22327.387
24011.82
18523.863
18409.206
18333.487
18347.184
18564.41
19073.808
19926.726
21132.301
22662.252
17580.363
17516.589
17457.062
17452.351
17598.15
17993.754
18704.421
19749.016
21106.2
16580.82
16580.757
16562.822
16561.804
16654.528
16942.099
17507.956
18391.993
19589.219
15599.314
15666.814
15710.805
15746.713
15832.779
16063.105
16532.356
17302.139
18387.684
14666.044
14789.033
14894.032
14983.696
15100.173
15327.114
15762.056
16480.813
17512.925
13751.782
13901.551
14044.773
14179.446
14337.557
14592.352
15037.63
15752.963
16776.175
12910.167
13060.476
13218.136
13386.199
13594.584
13906.37
14404.704
15163.724
16220.098
12217.662
12380.003
12565.56
12778.6
13044.434
13418.148
13971.426
14766.819
15834.024
11532.967
11714.515
11930.873
12189.059
12511.607
12939.91
13526.861
14320.219
15343.628
10585.526
10785.739
11033.854
11335.266
11703.974
12168.948
12772.152
13556.127
14547.289
9458.8589
9660.7802
9915.8158
10230.158
10615.867
11097.618
11714.068
12509.192
13515.334
8458.3987
8649.6431
8896.5815
9207.7808
9597.0689
10089.929
10725.744
11550.508
12599.317
7795.5934
7981.6454
8224.6252
8534.2073
8926.1574
9429.2849
10086.27
10943.554
12033.649
7367.8003
7559.8689
7811.5612
8130.9242
8531.7746
9042.7869
9708.752
10578.11
11682.555
6938.4489
7132.6812
7390.5798
7720.4303
8133.4158
8651.9964
9313.0962
10161.256
11229.795
6406.6519
6588.3769
6837.7232
7167.6855
7591.134
8126.2227
8802.025
9653.8738
10708.361
5865.4365
6021.5343
6243.474
6549.2803
6958.3863
7494.7126
8188.9151
9074.9448
10177.251
5405.2641
5536.5813
5730.3542
6008.1525
6393.6192
6914.2484
7602.6676
8493.6988
9613.2539
5025.3781
5135.7046
5304.729
5557.2604
5920.6181
6422.3314
7092.9305
7966.3338
9069.0491
4707.1913
4801.2083
4949.1853
5177.1572
5515.7352
5996.4088
6649.5584
7504.1518
8582.1663
4423.8376
4503.4039
4630.7297
4831.523
5138.6794
5588.6415
6216.9852
7055.3273
8125.2348
4177.2114
4244.6154
4353.2578
4526.8035
4797.7174
5205.8191
5793.5759
6598.7038
7645.9656
3957.2516
4015.9204
4110.3327
4261.6598
4500.1954
4865.0556
5401.2979
6154.408
7158.81
3772.0876
3825.9792
3911.9878
4049.0985
4265.0601
4597.2564
5090.8241
5792.6348
6741.2918
3602.4803
3654.8009
3737.2331
3867.1086
4069.8088
4379.9018
4840.3687
5498.1734
6393.6965
3463.0996
3516.5413
3599.5083
3728.3004
3926.5325
4226.0802
4666.2657
5290.1247
6136.0882
3330.5371
3387.0048
3473.4888
3605.8229
3806.6108
4105.9003
4540.0454
5147.6308
5961.1544
3229.5338
3290.7485
3383.4249
3523.4188
3732.9869
4041.1651
4482.1786
5090.8285
5893.8887
3129.6988
3196.7399
3297.0621
3446.5969
3667.1757
3986.4974
4436.0423
5045.8918
5836.0015
3060.3589
3132.8135
3240.2972
3398.871
3630.1314
3960.8113
4420.2362
5035.5587
5822.7576
2972.8183
3050.8722
3165.5732
3332.8922
3573.8615
3914.0334
4380.807
4997.0915
5772.7447
2920.3535
3001.8572
3120.914
3293.3723
3539.8074
3884.785
4353.9918
4968.6569
5737.0036
2832.1452
2917.853
3042.2163
3220.9343
3474.0404
3824.9847
4297.646
4910.5932
5669.1295
2788.5728
2875.6052
3001.5851
3182.0552
3436.6896
3788.3092
4259.8533
4868.7153
5618.6874
2655.4134
2744.5986
2873.1552
3056.2081
3312.5617
3663.7205
4130.9968
4730.0223
5463.0798
38121.006
44795.929
55948.893
76758.23
127062.49
345959.65
38349.729
44977.18
55947.164
76360.227
125468.76
339170.84
38511.616
45070.868
55863.618
75738.936
123301.99
332183.16
38595.797
45054.419
55643.71
74960.554
121184.18
325048.24
38586.014
44960.482
55263.475
73994.912
118629.02
317834.64
38518.011
44743.61
54751.388
72877.202
116112.43
310585.82
38354.311
44411.919
54107.138
71605.771
113311.18
303350.63
38086.447
43970.12
53339.216
70212.044
110534.29
296159.85
37725.235
43421.461
52455.622
68705.441
107628.8
289036.35
37275.832
42774.33
51470.985
67113.96
104736.6
281998.83
36742.068
42037.295
50398.051
65452.772
101821.61
275032.58
36130.522
41222.661
49256.376
63750.73
98944.531
268136.02
35453.917
40346.772
48065.251
62027.593
96114.395
261229.16
34722.457
39423.582
46844.71
60311.553
93363.26
254263.81
33961.268
38482.936
45626.329
58628.65
90698.192
247078.83
33180.898
37533.925
44418.47
56987.791
88108.878
239526.99
32408.731
36610.715
43258.177
55407.945
85512.686
231488.74
31667.393
35722.702
42122.486
53805.552
82789.941
222895.29
30892.77
34780.117
40907.857
52115.621
80057.023
214138.98
30149.07
33899.979
39805.926
50603.046
77470.882
204375.38
29374.513
32967.881
38609.126
48912.795
74641.754
194866.23
28442.641
31830.973
37143.004
46870.67
71409.8
187260.29
27384.944
30587.755
35618.004
44867.522
68349.207
180814.59
26126.177
29109.852
33805.464
42498.222
64961.976
176178.02
24588.806
27318.477
31637.935
39722.4
61089.65
172874.92
22845.082
25345.752
29367.567
37040.458
57715.363
170895.06
21168.548
23492.522
27312.827
34745.31
55089.017
169993.56
19861.805
22081.412
25807.014
33173.837
53521.208
169681.86
18936.567
21109.55
24801.53
32163.455
52538.955
169081.91
18189.584
20353.728
24038.947
31385.583
51661.951
167511.53
17656.732
19836.303
23517.394
30799.09
50765.078
164780.73
17254.077
19383.446
22951.326
29993.51
49471.014
160584.36
16677.256
18660.679
21981.472
28626.596
47709.734
155976.95
15832.984
17753.76
21002.11
27611.263
46837.76
153541.78
14830.112
16813.642
20209.756
27196.756
47421.972
153834.43
13976.269
16062.62
19652.737
27056.473
48258.83
155900.42
13460.597
15614.512
19302.795
26860.908
48350.146
158593.91
13124.487
15293.1
18980.509
26474.405
47687.572
159932.29
12624.434
14733.038
18341.669
25733.855
46829.058
159201.49
12068.725
14114.934
17617.592
24861.853
45832.016
156640.05
11603.009
13751.441
17423.566
24969.501
46529.425
155587.31
11075.293
13303.866
17155.215
25137.703
47884.698
155953.31
10517.67
12745.734
16637.754
24826.898
47998.713
156577.48
9998.4287
12183.506
16017.327
24142.511
47478.663
156453.25
9541.8226
11743.036
15620.048
23851.856
47428.483
155885.77
9054.6354
11280.279
15251.178
23740.799
47810.456
155403.64
8538.2368
10760.386
14788.068
23500.139
48083.608
154904.53
8067.4011
10255.131
14302.717
23170.633
48151.365
154396.58
7656.8934
9771.0569
13755.902
22682.303
47988.06
153901.09
7332.9633
9358.8996
13230.831
22064.635
47501.226
153431.47
7101.3755
9021.4411
12689.344
21190.088
46415.521
152885.23
7005.7711
8856.3494
12337.818
20359.74
44643.52
152334.06
6912.9414
8675.9355
11915.828
19240.857
41836.62
151471.86
6885.391
8607.4061
11714.138
18605.005
39864.944
150700.4
6806.6637
8463.7199
11406.42
17839.864
37883.193
149640.13
6758.8248
8396.5095
11287.401
17566.989
37091.716
148572.85
6672.4034
8275.4508
11081.108
17132.307
36102.496
147212.48
6610.6491
8201.1839
10981.648
16970.217
35659.481
146002.3
6432.5772
7995.8316
10738.148
16720.076
35812.455
144098.58
)
;

boundaryField
{
    Side1
    {
        type            empty;
    }
    Inlet
    {
        type            inletOutlet;
        inletValue      nonuniform List<scalar> 0();
        value           nonuniform List<scalar> 0();
    }
    Side2
    {
        type            empty;
    }
    Outlet
    {
        type            zeroGradient;
    }
    Botwall
    {
        type            omegaWallFunction;
        blending        binomial;
        n               2;
        value           nonuniform List<scalar> 
59
(
345959.65
339170.84
332183.16
325048.24
317834.64
310585.82
303350.63
296159.85
289036.35
281998.83
275032.58
268136.02
261229.16
254263.81
247078.83
239526.99
231488.74
222895.29
214138.98
204375.38
194866.23
187260.29
180814.59
176178.02
172874.92
170895.06
169993.56
169681.86
169081.91
167511.53
164780.73
160584.36
155976.95
153541.78
153834.43
155900.42
158593.91
159932.29
159201.49
156640.05
155587.31
155953.31
156577.48
156453.25
155885.77
155403.64
154904.53
154396.58
153901.09
153431.47
152885.23
152334.06
151471.86
150700.4
149640.13
148572.85
147212.48
146002.3
144098.58
)
;
    }
    Cyli
    {
        type            omegaWallFunction;
        blending        binomial;
        n               2;
        value           nonuniform List<scalar> 0();
    }
    procBoundary1to0
    {
        type            processor;
        value           nonuniform List<scalar> 
44
(
86509.425
67013.875
97892.31
97892.31
88839.571
88839.571
46531.745
24203.864
24203.864
16086.17
16086.17
13449.47
12239.336
11689.615
11689.615
12324.238
12251.743
12245.133
12270.38
12293.866
11462.527
12316.57
11462.527
11603.084
11891.513
12028.719
12028.719
30880.634
33575.185
58020.435
47393.257
39145.611
33503.254
30651.962
29934.218
29934.218
67013.875
67013.875
37831.764
44521.543
55779.936
76970.482
128737.14
352441.92
)
;
    }
    procBoundary1to3
    {
        type            processor;
        value           nonuniform List<scalar> 
62
(
13116.525
13400.178
14036.479
14944.065
16076.4
17417.598
18978.146
20767.554
22782.082
24971.809
27197.942
29235.253
30741.744
31489.251
31438.554
30687.212
29424.161
27932.667
26325.025
24696.422
23102.112
21584.85
20170.225
18871.244
17652.228
16468.381
15282.39
14101.762
12991.909
12031.563
11263.295
10664.124
10144.574
9597.1255
8980.8311
8329.0841
7706.0296
7162.6757
6718.162
6353.0551
6353.0551
6010.2175
5670.9765
5323.4782
4989.837
4686.2113
4414.6074
4159.2375
3919.0387
3689.3709
3478.4503
3276.0899
3093.5745
2914.2943
2758.6283
2596.4515
2466.939
2315.2795
2213.2633
2065.6807
1994.0325
1826.9575
)
;
    }
}


// ************************************************************************* //
