/*--------------------------------*- C++ -*----------------------------------*\
| =========                 |                                                 |
| \\      /  F ield         | OpenFOAM: The Open Source CFD Toolbox           |
|  \\    /   O peration     | Version:  2406                                  |
|   \\  /    A nd           | Website:  www.openfoam.com                      |
|    \\/     M anipulation  |                                                 |
\*---------------------------------------------------------------------------*/
FoamFile
{
    version     2.0;
    format      ascii;
    arch        "LSB;label=32;scalar=64";
    class       volScalarField;
    location    "0.11";
    object      rho;
}
// * * * * * * * * * * * * * * * * * * * * * * * * * * * * * * * * * * * * * //

dimensions      [1 -3 0 0 0 0 0];

internalField   nonuniform List<scalar> 
2065
(
1.1897495
1.1899261
1.1900987
1.1902746
1.1904632
1.1906548
1.19085
1.1910346
1.1912062
1.1913591
1.1914644
1.1915217
1.1915415
1.1915326
1.1915399
1.1916264
1.1918625
1.1923504
1.1930114
1.1937636
1.1945397
1.1952713
1.1958919
1.1963705
1.1966775
1.196812
1.1968297
1.1967908
1.1967055
1.1966579
1.1967502
1.1970119
1.1974832
1.1978409
1.1980989
1.1982263
1.1982978
1.1983339
1.1984965
1.1987707
1.1990295
1.1992221
1.1993907
1.1995699
1.1997489
1.1999197
1.2000777
1.2002443
1.2004
1.2005559
1.2006803
1.200819
1.2009203
1.2010771
1.2012456
1.2014202
1.2013381
1.2014761
1.1892458
1.1894505
1.1896522
1.1898601
1.1900788
1.1903063
1.1905356
1.1907544
1.1909491
1.1911163
1.1912404
1.1913033
1.1913229
1.1913148
1.1913338
1.1914711
1.1917423
1.1922504
1.192977
1.1937743
1.1945757
1.1953181
1.1959393
1.1964109
1.1967074
1.1968385
1.1968525
1.1968276
1.196758
1.1967288
1.1968405
1.1971195
1.1975708
1.1979249
1.1981751
1.1983195
1.1984139
1.1984664
1.1986304
1.1988883
1.1991323
1.1993229
1.199493
1.1996667
1.1998343
1.1999938
1.2001434
1.2003018
1.2004493
1.2005969
1.2007139
1.2008457
1.2009421
1.2010933
1.2012596
1.2014248
1.2013446
1.2014775
1.1886703
1.188857
1.1890575
1.1892734
1.1895036
1.1897463
1.1899991
1.19025
1.1904938
1.1907094
1.1908836
1.1910181
1.1910907
1.1911133
1.191116
1.1911629
1.1913333
1.1916739
1.1922158
1.1929646
1.1938055
1.1946287
1.1953751
1.1959913
1.1964515
1.1967355
1.1968643
1.1968731
1.1968815
1.1968243
1.1968172
1.1969453
1.1972359
1.1976664
1.1980145
1.1982509
1.1984225
1.1985348
1.1986033
1.1987666
1.1990058
1.1992334
1.1994205
1.1995906
1.1997586
1.1999153
1.2000641
1.2002054
1.2003561
1.200496
1.2006356
1.2007456
1.200871
1.2009625
1.2011082
1.2012728
1.2014283
1.2013507
1.2014789
1.1885176
1.1886121
1.1887306
1.1888839
1.1890714
1.1892859
1.1895204
1.1897696
1.1900224
1.1902667
1.1904855
1.1906662
1.1908044
1.190886
1.1909228
1.1909495
1.1910302
1.1912356
1.1916235
1.1922207
1.1929826
1.1938366
1.194679
1.195427
1.1960354
1.196484
1.196758
1.1968889
1.1969002
1.1969471
1.1969049
1.1969219
1.1970634
1.1973565
1.1977693
1.1981057
1.1983324
1.1985261
1.1986563
1.1987415
1.198902
1.1991212
1.1993313
1.1995135
1.1996826
1.1998451
1.1999916
1.2001303
1.2002639
1.2004073
1.2005399
1.2006722
1.2007756
1.2008948
1.2009816
1.2011221
1.2012852
1.2014308
1.2013563
1.2014801
1.1885165
1.1885806
1.1886691
1.1887907
1.1889492
1.1891399
1.189353
1.1895841
1.1898233
1.1900573
1.1902725
1.1904572
1.1906024
1.1907004
1.1907621
1.1908221
1.1909417
1.1911854
1.1916125
1.1922449
1.1930342
1.1938868
1.1947316
1.1954777
1.1960749
1.196512
1.1967783
1.1969141
1.1969377
1.1970247
1.1969999
1.197042
1.1971932
1.1974834
1.1978773
1.1981959
1.1984202
1.1986261
1.198776
1.1988779
1.1990344
1.1992331
1.1994252
1.1996014
1.1997687
1.1999261
1.2000632
1.2001925
1.2003188
1.2004553
1.2005813
1.2007066
1.2008038
1.2009172
1.2009996
1.2011351
1.2012968
1.2014325
1.2013615
1.2014811
1.1884782
1.1885147
1.1885654
1.1886394
1.1887423
1.1888765
1.1890377
1.189225
1.1894337
1.1896544
1.189875
1.1900848
1.1902731
1.1904292
1.1905479
1.1906404
1.1907398
1.1909023
1.1911859
1.1916476
1.1923029
1.1931046
1.1939617
1.1947928
1.1955321
1.1961118
1.1965361
1.1967936
1.1969328
1.1969978
1.1971102
1.1971085
1.1971755
1.1973332
1.1976166
1.1979879
1.1982863
1.1985089
1.1987225
1.1988912
1.1990094
1.1991616
1.1993401
1.1995143
1.1996837
1.1998487
1.2000015
1.2001301
1.2002509
1.2003703
1.2005003
1.2006202
1.2007391
1.2008304
1.2009384
1.2010165
1.2011471
1.2013075
1.2014337
1.2013663
1.2014817
1.1884581
1.188481
1.1885135
1.1885626
1.1886299
1.1887191
1.1888333
1.1889729
1.1891368
1.1893216
1.1895224
1.1897281
1.1899323
1.1901242
1.1902933
1.190435
1.1905617
1.190704
1.1909114
1.1912355
1.1917271
1.1923952
1.1931962
1.1940454
1.1948599
1.1955818
1.1961489
1.1965533
1.1968054
1.1969458
1.1970748
1.1971984
1.1972284
1.1973202
1.1974818
1.1977545
1.1980998
1.1983764
1.1985947
1.1988144
1.1989991
1.1991333
1.1992819
1.1994415
1.1995981
1.1997601
1.1999224
1.2000712
1.2001925
1.2003054
1.2004184
1.2005425
1.2006566
1.2007696
1.2008555
1.2009583
1.2010323
1.2011583
1.2013172
1.2014344
1.2013709
1.2014822
1.1884669
1.1884885
1.1885201
1.1885652
1.1886254
1.1887041
1.1888038
1.188925
1.1890693
1.1892353
1.1894183
1.1896124
1.1898124
1.190007
1.1901927
1.1903625
1.190526
1.1907117
1.1909636
1.1913266
1.1918434
1.1925152
1.1933063
1.194134
1.1949279
1.1956202
1.1961678
1.1965589
1.1968178
1.1969772
1.1971441
1.1972863
1.1973556
1.1974723
1.1976367
1.1978953
1.1982115
1.1984645
1.1986759
1.1988999
1.1990978
1.1992477
1.1993941
1.1995364
1.1996763
1.1998307
1.1999901
1.2001354
1.2002503
1.2003561
1.2004632
1.2005819
1.2006908
1.2007983
1.2008792
1.2009771
1.2010471
1.2011687
1.201326
1.2014345
1.2013752
1.2014825
1.1884758
1.1884951
1.188524
1.1885648
1.1886187
1.1886883
1.1887763
1.1888837
1.1890126
1.1891632
1.1893332
1.1895178
1.1897125
1.1899137
1.1901202
1.19032
1.1905252
1.1907575
1.1910485
1.1914486
1.1919853
1.1926537
1.1934282
1.1942276
1.1949931
1.195653
1.1961715
1.1965546
1.1968245
1.1970146
1.1971978
1.1973716
1.1974837
1.1976271
1.1977946
1.1980367
1.1983213
1.198549
1.1987513
1.1989775
1.1991866
1.1993515
1.1994975
1.1996246
1.1997488
1.1998955
1.2000517
1.2001942
1.2003037
1.2004033
1.2005049
1.2006185
1.2007227
1.2008252
1.2009015
1.2009949
1.2010611
1.2011784
1.2013335
1.2014342
1.2013793
1.2014826
1.1884738
1.1884816
1.1884969
1.1885217
1.1885574
1.188605
1.1886661
1.188743
1.1888379
1.1889539
1.1890929
1.1892525
1.1894298
1.1896243
1.1898369
1.1900651
1.1902959
1.1905407
1.19082
1.1911575
1.1915928
1.1921395
1.1928012
1.1935543
1.1943209
1.195052
1.1956777
1.1961753
1.1965447
1.1968207
1.1970322
1.1972405
1.1974506
1.1976072
1.1977792
1.1979516
1.1981761
1.1984276
1.1986293
1.1988197
1.1990464
1.1992652
1.1994442
1.1995917
1.1997061
1.1998158
1.1999546
1.2001076
1.2002478
1.200353
1.2004469
1.2005436
1.2006526
1.2007524
1.2008504
1.2009224
1.2010115
1.2010741
1.2011874
1.2013398
1.2014336
1.2013832
1.2014826
1.1884795
1.18848
1.1884902
1.18851
1.1885399
1.1885805
1.188633
1.1886996
1.1887829
1.1888864
1.1890133
1.1891673
1.1893421
1.1895351
1.1897579
1.1900105
1.190275
1.190564
1.1908928
1.1912778
1.1917429
1.1922983
1.1929499
1.1936792
1.1944081
1.1951015
1.1956933
1.1961682
1.1965249
1.1968038
1.1970351
1.1972736
1.1975203
1.1977214
1.1979236
1.1981035
1.198311
1.1985298
1.1987047
1.198881
1.1991065
1.1993336
1.1995258
1.1996767
1.1997809
1.1998773
1.2000083
1.2001581
1.2002964
1.2003981
1.2004873
1.2005794
1.2006841
1.2007801
1.2008739
1.2009421
1.2010272
1.2010863
1.2011958
1.2013449
1.2014326
1.201387
1.2014824
1.1884702
1.188466
1.1884719
1.1884867
1.1885106
1.1885439
1.1885878
1.1886444
1.1887166
1.1888079
1.1889222
1.1890689
1.1892443
1.189442
1.1896704
1.1899484
1.1902496
1.1905846
1.1909622
1.1913946
1.1918895
1.1924574
1.1930922
1.1937984
1.1944859
1.1951406
1.1956976
1.1961478
1.1964919
1.1967732
1.1970258
1.1972952
1.197577
1.1978211
1.198055
1.1982459
1.1984393
1.1986272
1.1987741
1.1989353
1.199158
1.1993922
1.1995967
1.1997526
1.1998492
1.1999337
1.200057
1.2002034
1.2003404
1.2004394
1.2005244
1.2006125
1.2007134
1.2008058
1.2008959
1.2009606
1.201042
1.2010977
1.2012037
1.2013487
1.2014313
1.2013906
1.201482
1.1884491
1.1884405
1.1884423
1.1884526
1.1884705
1.1884961
1.1885308
1.1885768
1.1886375
1.1887174
1.1888221
1.1889568
1.189131
1.1893379
1.1895732
1.1898752
1.1902162
1.1905959
1.1910216
1.1914969
1.1920242
1.1926053
1.1932268
1.1939058
1.1945525
1.1951686
1.1956899
1.1961141
1.1964441
1.1967318
1.197005
1.1973039
1.1976185
1.1979031
1.1981694
1.1983753
1.1985593
1.1987183
1.1988378
1.1989833
1.1992016
1.1994416
1.1996575
1.1998197
1.1999113
1.1999852
1.200101
1.200244
1.20038
1.2004771
1.2005586
1.200643
1.2007403
1.2008297
1.2009163
1.200978
1.2010558
1.2011084
1.201211
1.2013515
1.2014298
1.201394
1.2014816
1.1884126
1.1884041
1.188403
1.1884083
1.1884198
1.1884378
1.1884633
1.1884988
1.1885477
1.1886156
1.188709
1.18883
1.1889995
1.1892202
1.1894728
1.1897949
1.1901741
1.1905992
1.1910719
1.1915837
1.192146
1.1927339
1.1933508
1.1939972
1.1946071
1.195184
1.19567
1.1960656
1.1963877
1.1966834
1.1969745
1.197301
1.197646
1.1979678
1.1982655
1.1984896
1.1986689
1.1988029
1.1988962
1.1990256
1.1992382
1.1994828
1.199709
1.1998786
1.1999675
1.2000322
1.2001406
1.2002802
1.2004155
1.2005113
1.2005899
1.200671
1.2007652
1.2008518
1.2009354
1.2009943
1.2010688
1.2011184
1.2012178
1.2013535
1.2014281
1.2013973
1.2014811
1.1883665
1.1883583
1.188353
1.188353
1.1883586
1.1883695
1.1883865
1.1884116
1.1884489
1.1885039
1.1885841
1.1886927
1.1888547
1.1890861
1.189364
1.1897065
1.1901206
1.1905906
1.1911114
1.1916628
1.1922494
1.1928431
1.1934574
1.1940734
1.1946456
1.1951837
1.1956365
1.1960111
1.196329
1.1966293
1.1969372
1.1972882
1.1976616
1.1980166
1.1983434
1.1985878
1.1987673
1.1988814
1.1989506
1.1990632
1.1992686
1.1995164
1.1997524
1.1999298
1.200018
1.2000751
1.2001763
1.2003123
1.2004471
1.2005423
1.2006186
1.2006967
1.2007881
1.2008722
1.2009532
1.2010095
1.2010811
1.2011278
1.2012242
1.2013547
1.2014264
1.2014006
1.2014806
1.1883041
1.1882973
1.1882935
1.1882936
1.1882975
1.1883059
1.1883209
1.1883465
1.1883885
1.188454
1.1885534
1.1887058
1.1889341
1.1892385
1.1896044
1.1900504
1.1905608
1.1911256
1.1917204
1.1923349
1.192931
1.1935479
1.1941388
1.1946754
1.1951782
1.1956003
1.1959582
1.196268
1.1965725
1.1968959
1.197268
1.1976669
1.1980516
1.1984043
1.1986699
1.1988543
1.1989541
1.1990018
1.1990966
1.1992938
1.1995435
1.1997882
1.1999738
1.2000633
1.2001141
1.2002083
1.2003408
1.2004753
1.2005703
1.2006448
1.2007204
1.2008091
1.2008911
1.2009696
1.2010238
1.2010925
1.2011366
1.2012301
1.2013552
1.2014245
1.2014037
1.2014801
1.1882581
1.1882481
1.1882386
1.1882319
1.1882287
1.1882283
1.1882326
1.1882467
1.1882759
1.1883287
1.1884134
1.1885572
1.1887801
1.1890966
1.1894869
1.1899694
1.1905145
1.1911212
1.1917501
1.1923917
1.1929999
1.193625
1.1941936
1.194705
1.195177
1.1955688
1.195905
1.196207
1.1965168
1.1968532
1.1972425
1.1976633
1.1980746
1.1984498
1.1987366
1.1989301
1.1990214
1.1990492
1.1991268
1.1993148
1.1995648
1.1998172
1.2000112
1.2001036
1.2001496
1.2002372
1.200366
1.2005002
1.2005955
1.2006686
1.200742
1.2008284
1.2009085
1.2009849
1.2010371
1.2011033
1.2011449
1.2012357
1.2013552
1.2014229
1.2014067
1.2014795
1.1882239
1.1882085
1.1881916
1.1881781
1.1881678
1.1881581
1.1881528
1.1881558
1.1881721
1.18821
1.188283
1.188417
1.1886339
1.1889533
1.1893657
1.1898788
1.1904541
1.1910892
1.1917564
1.192429
1.1930538
1.1936854
1.1942346
1.1947287
1.1951743
1.1955381
1.195854
1.1961503
1.1964647
1.1968116
1.197214
1.1976523
1.1980869
1.1984818
1.198789
1.198995
1.1990832
1.1990928
1.1991545
1.1993323
1.1995812
1.1998403
1.2000428
1.2001393
1.200182
1.2002633
1.2003882
1.2005222
1.2006181
1.2006904
1.2007618
1.2008461
1.2009246
1.2009992
1.2010497
1.2011135
1.2011527
1.2012409
1.2013546
1.2014216
1.2014097
1.2014789
1.1881846
1.18816
1.188138
1.1881199
1.1881023
1.188088
1.1880797
1.1880834
1.1881082
1.1881734
1.1882933
1.1884986
1.1888119
1.1892281
1.189761
1.1903839
1.1910544
1.191752
1.1924487
1.1930947
1.193725
1.1942657
1.1947464
1.1951696
1.1955108
1.1958099
1.1961007
1.1964181
1.1967732
1.1971848
1.1976362
1.1980902
1.1985024
1.1988286
1.1990495
1.1991394
1.1991345
1.1991808
1.1993473
1.1995935
1.1998583
1.2000689
1.2001708
1.2002114
1.2002868
1.2004079
1.2005415
1.2006384
1.2007101
1.2007799
1.2008623
1.2009394
1.2010124
1.2010614
1.201123
1.2011601
1.2012459
1.2013535
1.2014206
1.2014126
1.2014782
1.1998719
1.2000905
1.2001984
1.2002382
1.2003081
1.2004252
1.2005585
1.2006565
1.200728
1.2007965
1.2008772
1.200953
1.2010246
1.2010724
1.201132
1.2011671
1.2012505
1.2013519
1.2014202
1.2014154
1.2014775
1.1911597
1.1911218
1.1906102
1.1909341
1.1911496
1.191276
1.1913386
1.1913502
1.1913289
1.1912928
1.1903667
1.1907701
1.1910882
1.1912992
1.191433
1.1914975
1.1915097
1.1914906
1.191458
1.1905176
1.1909151
1.1912395
1.1914493
1.1915834
1.1916479
1.1916615
1.1916458
1.1916176
1.1906772
1.1910611
1.1913716
1.1915902
1.191726
1.1917911
1.1918069
1.1917952
1.1917719
1.19084
1.1911976
1.1915025
1.1917246
1.1918613
1.1919275
1.1919464
1.1919392
1.1919207
1.1909998
1.1913382
1.1916376
1.1918559
1.1919907
1.1920584
1.1920807
1.1920781
1.1920643
1.1911684
1.1914858
1.191772
1.1919825
1.1921144
1.1921834
1.1922095
1.1922114
1.1922024
1.1913327
1.1916285
1.191899
1.1921012
1.1922308
1.1923017
1.1923317
1.1923385
1.1923344
1.1914822
1.191756
1.192012
1.1922077
1.1923371
1.1924112
1.1924465
1.1924592
1.1924601
1.1916136
1.1918644
1.1921063
1.1922981
1.1924302
1.1925105
1.1925533
1.1925731
1.1925799
1.1917028
1.1919377
1.192172
1.1923662
1.192507
1.1925982
1.1926518
1.1926806
1.1926942
1.1917473
1.1919726
1.1922067
1.1924112
1.1925681
1.1926763
1.1927447
1.192785
1.1928068
1.1917529
1.1919739
1.1922152
1.192438
1.1926186
1.1927499
1.1928373
1.1928916
1.1929226
1.1917363
1.1919623
1.192218
1.192465
1.1926746
1.1928332
1.1929425
1.1930123
1.1930534
1.1917313
1.1919649
1.1922399
1.1925159
1.1927573
1.1929449
1.1930766
1.1931618
1.1932124
1.1917785
1.1920285
1.1923301
1.1926327
1.192901
1.1931128
1.1932631
1.1933608
1.1934187
1.1920243
1.1922805
1.1925797
1.1928823
1.1931558
1.1933753
1.1935324
1.1936346
1.1936946
1.1924796
1.1927119
1.19299
1.1932731
1.1935314
1.1937404
1.1938909
1.193989
1.1940464
1.1930993
1.1932987
1.1935422
1.1937899
1.1940168
1.1942021
1.1943368
1.1944262
1.1944801
1.1938253
1.1939869
1.1941866
1.1943897
1.1945767
1.1947304
1.1948431
1.1949186
1.1949644
1.1945805
1.1947013
1.1948541
1.1950103
1.1951545
1.1952733
1.1953607
1.1954197
1.1954557
1.1952983
1.1953818
1.1954919
1.1956062
1.1957133
1.195803
1.195871
1.1959188
1.19595
1.1959115
1.1959639
1.1960385
1.196119
1.1961971
1.1962656
1.1963201
1.196361
1.1963896
1.1963889
1.1964167
1.1964627
1.1965169
1.1965738
1.1966277
1.1966736
1.1967101
1.1967369
1.1966987
1.1967082
1.1967321
1.1967663
1.1968084
1.1968548
1.1969004
1.1969411
1.1969745
1.1968279
1.1968216
1.1968266
1.1968435
1.1968735
1.1969161
1.1969673
1.1970211
1.1970717
1.1968331
1.1968184
1.1968136
1.1968233
1.1968519
1.1969001
1.1969664
1.19704
1.1971081
1.1967806
1.1967597
1.196746
1.1967456
1.1967642
1.1968042
1.196858
1.1969184
1.19698
1.1966662
1.1966278
1.1965951
1.1965773
1.1965827
1.1966131
1.1966636
1.1967249
1.1967878
1.1965978
1.1965515
1.1965061
1.196468
1.196438
1.1964327
1.1964542
1.1964933
1.1965392
1.1966653
1.1965964
1.1965247
1.1964631
1.1964291
1.1964264
1.1964459
1.1964793
1.1965186
1.1969312
1.1968879
1.1968483
1.1968151
1.1967936
1.1967855
1.1967905
1.1968068
1.1968289
1.1974173
1.1973703
1.1973177
1.1972637
1.1972163
1.1971825
1.1971646
1.1971616
1.1971678
1.1977803
1.1977272
1.1976675
1.1976047
1.1975456
1.197497
1.1974632
1.1974442
1.1974379
1.1980399
1.197981
1.1979138
1.1978422
1.197773
1.1977133
1.1976678
1.1976376
1.1976209
1.198157
1.1980867
1.1980053
1.1979182
1.1978338
1.1977606
1.197704
1.197665
1.1976422
1.1981999
1.1981021
1.1979876
1.1978648
1.1977455
1.1976407
1.1975569
1.1974956
1.1974534
1.1982186
1.198107
1.1979757
1.1978324
1.1976885
1.1975568
1.1974484
1.1973657
1.1973059
1.1983798
1.1982695
1.1981377
1.1979907
1.1978421
1.1977061
1.1975905
1.1974985
1.1974299
1.1986685
1.1985718
1.1984547
1.1983227
1.1981858
1.1980539
1.1979365
1.1978392
1.1977628
1.1989396
1.1988519
1.1987432
1.1986179
1.1984843
1.1983521
1.1982317
1.19813
1.1980487
1.1991319
1.1990415
1.1989264
1.1987879
1.1986352
1.1984841
1.1983474
1.1982325
1.1981413
1.1992972
1.1992029
1.199081
1.1989324
1.198765
1.1985934
1.1984341
1.1982982
1.1981896
1.1994811
1.1993921
1.1992762
1.1991331
1.1989686
1.1987951
1.198628
1.1984799
1.1983574
1.1996708
1.199593
1.1994913
1.1993646
1.1992164
1.1990554
1.1988942
1.1987451
1.1986167
1.199852
1.1997849
1.1996967
1.1995856
1.1994534
1.1993061
1.1991537
1.1990071
1.1988755
1.2000179
1.199959
1.1998814
1.1997832
1.1996649
1.1995308
1.1993884
1.1992472
1.1991159
1.2001921
1.2001413
1.2000743
1.1999894
1.1998868
1.1997694
1.1996427
1.1995138
1.19939
1.2003555
1.2003128
1.2002566
1.2001854
1.2000996
1.2000013
1.1998947
1.1997848
1.1996771
1.2005192
1.2004843
1.2004385
1.2003808
1.2003112
1.2002314
1.2001445
1.2000544
1.1999651
1.2006504
1.2006223
1.2005855
1.200539
1.200483
1.2004187
1.2003484
1.2002752
1.2002023
1.2007952
1.2007732
1.2007444
1.200708
1.2006639
1.2006131
1.2005575
1.2004992
1.200441
1.200901
1.2008835
1.2008605
1.2008314
1.2007963
1.2007558
1.2007116
1.2006654
1.2006193
1.2010628
1.2010499
1.2010328
1.2010108
1.200984
1.2009529
1.2009185
1.2008823
1.2008461
1.2012332
1.2012224
1.2012083
1.2011905
1.201169
1.2011444
1.2011176
1.2010899
1.2010626
1.201417
1.2014145
1.2014092
1.2014009
1.2013897
1.2013758
1.2013596
1.2013419
1.2013237
1.2013325
1.2013276
1.201321
1.2013126
1.2013025
1.2012907
1.2012778
1.2012643
1.201251
1.2014755
1.2014748
1.2014734
1.2014713
1.2014689
1.2014665
1.2014642
1.2014623
1.2014606
1.1910648
1.1910036
1.1909495
1.1909172
1.1909348
1.1910662
1.1912411
1.1911861
1.1911381
1.1911103
1.1911284
1.1912531
1.1914123
1.191364
1.1913222
1.1912988
1.1913171
1.1914344
1.1915782
1.1915364
1.1915004
1.191481
1.191499
1.1916082
1.1917386
1.1917028
1.1916722
1.1916563
1.1916737
1.1917742
1.1918932
1.1918631
1.1918376
1.1918246
1.1918409
1.1919324
1.1920422
1.1920174
1.1919962
1.1919858
1.1920007
1.1920829
1.1921853
1.1921654
1.1921481
1.1921398
1.1921532
1.1922259
1.1923222
1.1923068
1.1922931
1.1922866
1.1922984
1.1923616
1.1924529
1.1924417
1.1924313
1.1924265
1.1924366
1.1924907
1.1925777
1.1925709
1.1925637
1.1925604
1.192569
1.1926141
1.1926976
1.1926951
1.1926911
1.1926892
1.1926962
1.1927333
1.1928165
1.1928186
1.1928177
1.1928172
1.1928228
1.1928522
1.1929388
1.1929453
1.1929472
1.1929477
1.1929517
1.1929753
1.1930764
1.1930871
1.1930915
1.1930927
1.1930952
1.193113
1.193241
1.1932546
1.1932601
1.1932609
1.1932618
1.1932787
1.1934514
1.1934664
1.1934718
1.1934711
1.193468
1.1934743
1.193727
1.19374
1.1937425
1.1937391
1.193736
1.1937557
1.1940767
1.1940881
1.1940906
1.1940905
1.1940981
1.1941516
1.1945097
1.1945232
1.1945311
1.1945397
1.1945584
1.1946085
1.1949884
1.1949977
1.1950007
1.1950012
1.1950028
1.1950095
1.1954744
1.1954817
1.1954856
1.1954904
1.1955033
1.195531
1.1959677
1.195977
1.1959852
1.1959977
1.1960264
1.1960849
1.1964075
1.196419
1.196429
1.1964404
1.1964598
1.1965053
1.1967551
1.1967686
1.1967816
1.1967982
1.1968291
1.1969033
1.1970013
1.1970257
1.1970512
1.1970827
1.1971318
1.1972266
1.1971184
1.1971651
1.1972145
1.1972698
1.1973374
1.1974228
1.1971704
1.1972322
1.1972947
1.1973604
1.1974366
1.1975325
1.1970414
1.1971065
1.1971767
1.1972549
1.1973518
1.197492
1.1968514
1.1969202
1.1969958
1.1970821
1.1971912
1.197357
1.1965882
1.1966427
1.1967047
1.19678
1.1968867
1.19709
1.1965601
1.1966061
1.1966604
1.1967285
1.1968297
1.1970285
1.1968536
1.1968827
1.1969203
1.1969727
1.1970582
1.1972384
1.1971791
1.1971971
1.1972256
1.1972713
1.1973526
1.1975238
1.19744
1.1974491
1.1974687
1.1975041
1.1975711
1.1977073
1.1976138
1.1976157
1.1976283
1.1976558
1.197709
1.1978106
1.1976296
1.1976249
1.1976291
1.1976455
1.1976841
1.1977731
1.197425
1.1974067
1.1973978
1.1974018
1.1974291
1.1975065
1.1972607
1.1972243
1.197196
1.1971773
1.1971805
1.1972472
1.1973766
1.1973318
1.1972955
1.197269
1.1972549
1.1972715
1.1977003
1.1976444
1.1975948
1.1975512
1.1975152
1.1975036
1.1979806
1.1979181
1.1978599
1.1978056
1.1977562
1.1977283
1.1980657
1.1979971
1.1979337
1.1978737
1.1978171
1.1977728
1.1980989
1.1980162
1.1979393
1.1978669
1.1977981
1.1977335
1.1982517
1.1981517
1.1980556
1.1979612
1.1978684
1.1977951
1.1985017
1.1983887
1.1982759
1.1981605
1.1980418
1.1979301
1.1987535
1.1986297
1.1985026
1.19837
1.1982313
1.1980978
1.1989892
1.1988545
1.1987104
1.198554
1.1983886
1.1982341
1.1992661
1.1991282
1.1989716
1.1987912
1.1985884
1.198391
1.199566
1.1994367
1.1992813
1.1990879
1.1988517
1.1986066
1.1998715
1.1997592
1.1996185
1.1994302
1.1991754
1.1988815
1.2001251
1.2000309
1.19991
1.199741
1.1994921
1.1991764
1.2003791
1.2003028
1.2002043
1.2000634
1.1998391
1.1995112
1.2005704
1.2005101
1.2004326
1.2003212
1.2001381
1.1998401
1.2008076
1.2007603
1.2006995
1.2006128
1.2004643
1.2001998
1.2010339
1.2009989
1.2009546
1.2008929
1.2007857
1.2005795
1.2013033
1.2012764
1.2012407
1.2011877
1.2010999
1.2009466
1.2012366
1.2012178
1.201194
1.2011578
1.2010982
1.2009878
1.201458
1.2014541
1.2014468
1.2014357
1.2014094
1.2013433
)
;

boundaryField
{
    Side1
    {
        type            empty;
    }
    Inlet
    {
        type            calculated;
        value           nonuniform List<scalar> 0();
    }
    Side2
    {
        type            empty;
    }
    Outlet
    {
        type            calculated;
        value           nonuniform List<scalar> 
35
(
1.201307
1.2013085
1.2013099
1.2013111
1.201312
1.2013127
1.2013134
1.2013139
1.2013143
1.2013147
1.201315
1.2013153
1.2013156
1.2013158
1.2013161
1.2013164
1.2013167
1.201317
1.2013174
1.2013179
1.2013058
1.2013046
1.2013029
1.2013002
1.2012962
1.2012909
1.2012841
1.2012765
1.2012685
1.2012596
1.2012489
1.2012348
1.2012168
1.2011834
1.2011128
)
;
    }
    Botwall
    {
        type            calculated;
        value           nonuniform List<scalar> 
59
(
1.1910662
1.1912531
1.1914344
1.1916082
1.1917742
1.1919324
1.1920829
1.1922259
1.1923616
1.1924907
1.1926141
1.1927333
1.1928522
1.1929753
1.193113
1.1932787
1.1934743
1.1937557
1.1941516
1.1946085
1.1950095
1.195531
1.1960849
1.1965053
1.1969033
1.1972266
1.1974228
1.1975325
1.197492
1.197357
1.19709
1.1970285
1.1972384
1.1975238
1.1977073
1.1978106
1.1977731
1.1975065
1.1972472
1.1972715
1.1975036
1.1977283
1.1977728
1.1977335
1.1977951
1.1979301
1.1980978
1.1982341
1.198391
1.1986066
1.1988815
1.1991764
1.1995112
1.1998401
1.2001998
1.2005795
1.2009466
1.2009878
1.2013433
)
;
    }
    Cyli
    {
        type            calculated;
        value           nonuniform List<scalar> 0();
    }
    procBoundary1to0
    {
        type            processor;
        value           nonuniform List<scalar> 
44
(
1.1895678
1.1902045
1.1890313
1.1890313
1.1884964
1.1884964
1.1884442
1.1884692
1.1884692
1.1884486
1.1884486
1.1884325
1.1884487
1.1884615
1.1884615
1.1884864
1.1884971
1.1884897
1.1884734
1.1884395
1.1883143
1.1883924
1.1883143
1.1882682
1.1882345
1.1882035
1.1882035
1.1909815
1.1909438
1.1904333
1.1907571
1.19098
1.1911018
1.191166
1.1911803
1.1911803
1.1902045
1.1902045
1.1908828
1.190816
1.1907566
1.1907203
1.190738
1.1908765
)
;
    }
    procBoundary1to3
    {
        type            processor;
        value           nonuniform List<scalar> 
62
(
1.1881809
1.1881562
1.1881274
1.1880959
1.188067
1.1880416
1.1880216
1.1880115
1.1880206
1.1880693
1.188179
1.1883729
1.1886802
1.1891045
1.1896513
1.1903009
1.1910065
1.1917361
1.1924539
1.1931226
1.1937471
1.1942886
1.1947615
1.1951664
1.19549
1.1957739
1.1960586
1.1963773
1.1967389
1.1971569
1.1976175
1.1980872
1.1985145
1.1988573
1.1990939
1.1991902
1.1991748
1.1992064
1.1993604
1.1996027
1.1996027
1.1998819
1.2001079
1.2002228
1.2002625
1.2003275
1.2004405
1.2005733
1.2006726
1.2007442
1.2008116
1.2008908
1.2009655
1.201036
1.2010827
1.2011404
1.2011737
1.2012548
1.2013499
1.2014201
1.2014182
1.2014768
)
;
    }
}


// ************************************************************************* //
