/*--------------------------------*- C++ -*----------------------------------*\
| =========                 |                                                 |
| \\      /  F ield         | OpenFOAM: The Open Source CFD Toolbox           |
|  \\    /   O peration     | Version:  2406                                  |
|   \\  /    A nd           | Website:  www.openfoam.com                      |
|    \\/     M anipulation  |                                                 |
\*---------------------------------------------------------------------------*/
FoamFile
{
    version     2.0;
    format      ascii;
    arch        "LSB;label=32;scalar=64";
    class       volScalarField;
    location    "0.007";
    object      p;
}
// * * * * * * * * * * * * * * * * * * * * * * * * * * * * * * * * * * * * * //

dimensions      [1 -1 -2 0 0 0 0];

internalField   nonuniform List<scalar> 
92813
(
100917.19
100830.55
100788.31
100741.8
100694.49
100651.71
100614.61
100583.05
100556.61
100534.9
100517.59
100504.35
100494.86
100488.45
100484.74
100483.5
100485.32
100490.75
100500.26
100513.53
100530.16
100549.8
100572.27
100597.31
100624.64
100653.99
100685.04
100716.93
100748.58
100781.93
100812.76
100843.84
100873.92
100899.5
100921.97
100941.5
100958.29
100972.86
100985.75
100997.44
101008.33
101018.63
101028.48
101037.97
101047.13
101055.99
101064.57
101072.9
101080.98
101088.84
101096.48
101103.93
101111.19
101118.26
101125.15
101131.88
101138.44
101144.83
101151.07
101157.16
101163.11
101168.92
101174.59
101180.12
101185.53
101190.82
101195.98
101201.04
101205.98
101210.82
101215.53
101220.14
101224.62
101228.99
101233.23
101237.36
101241.36
101245.24
101249.01
101252.65
101256.17
101259.57
101262.86
101266.03
101269.08
101272.02
101274.83
101277.53
101280.09
101282.54
101284.86
101287.06
101289.13
101291.09
101292.93
101294.65
101296.26
101297.76
101299.15
101300.43
101301.59
101302.64
101303.58
101304.4
101305.12
101305.74
101306.25
101306.66
101306.98
101307.19
101307.31
101307.33
101307.26
101307.1
101306.84
101306.51
101306.09
101305.6
101305.06
101304.49
101303.92
101303.36
101302.86
101302.42
101302.1
101301.85
101301.78
101076.03
101016.4
100960.6
100900.54
100844.86
100795.96
100753.41
100716.89
100685.89
100660.09
100639.08
100622.5
100609.87
100600.49
100593.5
100588.47
100585.73
100586.09
100589.97
100597.38
100608.47
100623.04
100640.57
100660.71
100683.14
100707.59
100733.71
100760.96
100788.88
100816.94
100843.04
100871.36
100898.75
100921.79
100942.29
100960.27
100975.85
100989.39
101001.37
101012.23
101022.32
101031.88
101041.03
101049.85
101058.38
101066.65
101074.68
101082.48
101090.06
101097.45
101104.66
101111.68
101118.54
101125.24
101131.78
101138.17
101144.41
101150.5
101156.46
101162.28
101167.97
101173.53
101178.97
101184.28
101189.48
101194.57
101199.55
101204.43
101209.2
101213.87
101218.44
101222.9
101227.24
101231.48
101235.6
101239.61
101243.5
101247.28
101250.94
101254.49
101257.92
101261.24
101264.45
101267.54
101270.52
101273.39
101276.14
101278.77
101281.28
101283.67
101285.94
101288.09
101290.12
101292.03
101293.83
101295.51
101297.09
101298.55
101299.91
101301.16
101302.29
101303.32
101304.23
101305.03
101305.73
101306.33
101306.82
101307.22
101307.51
101307.72
101307.82
101307.83
101307.75
101307.57
101307.31
101306.96
101306.54
101306.04
101305.5
101304.92
101304.34
101303.78
101303.28
101302.83
101302.51
101302.26
101302.19
101154.05
101105.12
101044.94
100979.64
100920.32
100868.5
100823.15
100783.75
100750.07
100721.65
100698.04
100678.83
100663.58
100651.77
100642.84
100636.37
100632.36
100631.26
100633.51
100639.53
100649.41
100662.76
100679.12
100698.15
100719.54
100742.95
100767.99
100794.24
100821.38
100847.22
100871.53
100899
100924.69
100945.91
100964.7
100981.07
100995.18
101007.4
101018.21
101028.02
101037.18
101045.9
101054.28
101062.39
101070.25
101077.89
101085.33
101092.57
101099.64
101106.53
101113.27
101119.85
101126.29
101132.6
101138.76
101144.8
101150.7
101156.48
101162.13
101167.67
101173.08
101178.39
101183.58
101188.66
101193.64
101198.52
101203.3
101207.99
101212.59
101217.09
101221.49
101225.8
101230
101234.1
101238.09
101241.98
101245.75
101249.42
101252.98
101256.42
101259.76
101262.99
101266.11
101269.12
101272.03
101274.82
101277.5
101280.07
101282.51
101284.85
101287.06
101289.16
101291.14
101293.01
101294.76
101296.41
101297.95
101299.38
101300.7
101301.91
101303.02
101304.02
101304.9
101305.68
101306.36
101306.93
101307.41
101307.79
101308.07
101308.25
101308.34
101308.34
101308.25
101308.06
101307.79
101307.43
101306.99
101306.49
101305.94
101305.36
101304.78
101304.21
101303.7
101303.25
101302.93
101302.68
101302.61
101219.93
101173.82
101112.74
101047.14
100986.9
100933.49
100886.16
100844.45
100808.16
100776.96
100750.52
100728.5
100710.52
100696.21
100685.22
100677.28
100672.34
100670.55
100672.15
100677.39
100686.32
100698.68
100714.11
100732.31
100752.96
100775.68
100800.07
100825.73
100852.38
100876.51
100899.9
100926.7
100950.69
100970.23
100987.35
101002.1
101014.7
101025.59
101035.22
101044
101052.24
101060.11
101067.72
101075.11
101082.3
101089.31
101096.15
101102.83
101109.36
101115.76
101122.02
101128.16
101134.18
101140.08
101145.87
101151.54
101157.1
101162.56
101167.91
101173.15
101178.29
101183.33
101188.28
101193.12
101197.88
101202.54
101207.13
101211.62
101216.04
101220.37
101224.61
101228.76
101232.82
101236.77
101240.63
101244.39
101248.05
101251.6
101255.05
101258.4
101261.64
101264.77
101267.81
101270.74
101273.56
101276.28
101278.89
101281.39
101283.78
101286.05
101288.21
101290.25
101292.19
101294.01
101295.72
101297.32
101298.82
101300.21
101301.5
101302.68
101303.76
101304.73
101305.59
101306.35
101307
101307.55
101308.01
101308.37
101308.63
101308.8
101308.88
101308.86
101308.75
101308.55
101308.27
101307.9
101307.46
101306.95
101306.39
101305.81
101305.22
101304.65
101304.14
101303.69
101303.36
101303.11
101303.04
101281.44
101233.83
101172.91
101108.65
101048.87
100995.02
100946.67
100903.54
100865.5
100832.35
100803.83
100779.7
100759.66
100743.43
100730.76
100721.45
100715.45
100712.78
100713.52
100717.82
100725.73
100737.05
100751.47
100768.7
100788.42
100810.25
100833.74
100858.51
100884.18
100906.79
100929.25
100954.73
100976.88
100994.69
101010.11
101023.23
101034.36
101043.93
101052.41
101060.17
101067.49
101074.53
101081.36
101088.03
101094.54
101100.91
101107.15
101113.26
101119.26
101125.15
101130.93
101136.62
101142.21
101147.7
101153.11
101158.42
101163.64
101168.76
101173.8
101178.75
101183.61
101188.39
101193.08
101197.68
101202.21
101206.66
101211.03
101215.34
101219.57
101223.72
101227.8
101231.79
101235.69
101239.51
101243.23
101246.86
101250.4
101253.83
101257.17
101260.41
101263.55
101266.6
101269.54
101272.39
101275.13
101277.78
101280.31
101282.74
101285.07
101287.28
101289.38
101291.37
101293.25
101295.03
101296.7
101298.26
101299.72
101301.07
101302.32
101303.47
101304.52
101305.46
101306.29
101307.02
101307.65
101308.18
101308.62
101308.96
101309.21
101309.36
101309.42
101309.39
101309.27
101309.06
101308.77
101308.39
101307.94
101307.42
101306.86
101306.26
101305.67
101305.09
101304.58
101304.13
101303.8
101303.54
101303.47
101335.29
101285.61
101224.64
101162.24
101103.72
101050.25
101001.69
100957.93
100918.92
100884.55
100854.66
100829.06
100807.56
100789.93
100775.99
100765.6
100758.67
100755.17
100755.12
100758.6
100765.67
100776.13
100789.69
100806.07
100824.94
100845.89
100868.47
100892.26
100916.77
100937.93
100959.31
100983.17
101003.32
101019.35
101033.02
101044.5
101054.16
101062.43
101069.77
101076.52
101082.93
101089.14
101095.19
101101.13
101106.96
101112.69
101118.32
101123.86
101129.32
101134.69
101139.99
101145.22
101150.38
101155.47
101160.48
101165.42
101170.29
101175.08
101179.81
101184.46
101189.03
101193.54
101197.97
101202.33
101206.62
101210.85
101215.02
101219.13
101223.17
101227.14
101231.05
101234.88
101238.63
101242.3
101245.88
101249.38
101252.79
101256.11
101259.34
101262.47
101265.51
101268.46
101271.31
101274.07
101276.74
101279.3
101281.77
101284.13
101286.38
101288.54
101290.58
101292.52
101294.35
101296.07
101297.69
101299.21
101300.63
101301.95
101303.16
101304.28
101305.29
101306.2
101307.01
101307.72
101308.32
101308.83
101309.24
101309.56
101309.79
101309.93
101309.98
101309.93
101309.8
101309.58
101309.27
101308.88
101308.42
101307.9
101307.33
101306.73
101306.13
101305.55
101305.03
101304.57
101304.24
101303.99
101303.92
101381.36
101329.71
101269.51
101209.09
101152.09
101099.5
101051.33
101007.55
100968.2
100933.21
100902.52
100876.01
100853.53
100834.93
100820.09
100808.9
100801.26
100797.1
100796.41
100799.24
100805.65
100815.43
100828.3
100843.96
100862.08
100882.22
100903.91
100926.7
100949.98
100969.67
100989.89
101011.97
101030
101044.18
101056.06
101065.91
101074.1
101081.08
101087.29
101093.04
101098.55
101103.92
101109.2
101114.41
101119.55
101124.63
101129.66
101134.62
101139.53
101144.39
101149.2
101153.97
101158.69
101163.36
101167.98
101172.55
101177.06
101181.52
101185.92
101190.27
101194.56
101198.78
101202.96
101207.07
101211.13
101215.13
101219.09
101222.99
101226.84
101230.64
101234.37
101238.03
101241.63
101245.15
101248.59
101251.96
101255.24
101258.44
101261.55
101264.58
101267.51
101270.36
101273.12
101275.79
101278.37
101280.86
101283.25
101285.54
101287.73
101289.82
101291.8
101293.68
101295.46
101297.14
101298.71
101300.19
101301.56
101302.84
101304.02
101305.1
101306.08
101306.96
101307.74
101308.42
101309
101309.49
101309.88
101310.18
101310.39
101310.52
101310.55
101310.49
101310.34
101310.1
101309.79
101309.39
101308.92
101308.39
101307.81
101307.2
101306.6
101306.01
101305.49
101305.03
101304.7
101304.44
101304.37
101419.56
101366.73
101308.26
101250.03
101194.76
101143.43
101096.12
101052.86
101013.7
100978.64
100947.68
100920.73
100897.74
100878.59
100863.2
100851.48
100843.36
100838.74
100837.58
100839.94
100845.84
100855.1
100867.4
100882.44
100899.88
100919.25
100940.06
100961.82
100983.76
101001.94
101020.9
101041.04
101056.85
101069.12
101079.2
101087.4
101094.13
101099.84
101104.94
101109.72
101114.33
101118.87
101123.38
101127.85
101132.31
101136.74
101141.15
101145.53
101149.89
101154.23
101158.55
101162.86
101167.13
101171.39
101175.61
101179.8
101183.96
101188.07
101192.15
101196.19
101200.18
101204.13
101208.04
101211.9
101215.72
101219.5
101223.23
101226.93
101230.59
101234.2
101237.75
101241.25
101244.69
101248.06
101251.36
101254.59
101257.74
101260.82
101263.81
101266.73
101269.56
101272.31
101274.97
101277.55
101280.05
101282.45
101284.77
101286.98
101289.11
101291.13
101293.05
101294.88
101296.6
101298.22
101299.75
101301.18
101302.51
101303.75
101304.9
101305.94
101306.89
101307.74
101308.49
101309.14
101309.7
101310.16
101310.53
101310.81
101311.01
101311.11
101311.12
101311.05
101310.89
101310.64
101310.31
101309.91
101309.43
101308.88
101308.3
101307.69
101307.08
101306.49
101305.96
101305.5
101305.16
101304.9
101304.83
101450.24
101397.29
101341.03
101285.32
101232.14
101182.46
101136.45
101094.15
101055.66
101021.01
100990.24
100963.32
100940.23
100920.91
100905.31
100893.36
100885
100880.14
100878.69
100880.74
100886.31
100895.18
100907.03
100921.56
100938.37
100957
100976.93
100997.6
101018.05
101034.62
101052.25
101070.29
101083.78
101094.1
101102.37
101108.93
101114.22
101118.69
101122.71
101126.52
101130.24
101133.96
101137.7
101141.44
101145.21
101148.99
101152.79
101156.59
101160.4
101164.22
101168.05
101171.88
101175.71
101179.54
101183.36
101187.17
101190.96
101194.74
101198.49
101202.21
101205.91
101209.57
101213.21
101216.82
101220.39
101223.94
101227.46
101230.95
101234.41
101237.83
101241.2
101244.53
101247.81
101251.02
101254.18
101257.27
101260.29
101263.24
101266.12
101268.92
101271.64
101274.29
101276.86
101279.35
101281.75
101284.08
101286.31
101288.46
101290.51
101292.47
101294.33
101296.09
101297.76
101299.33
101300.81
101302.2
101303.49
101304.68
101305.79
101306.8
101307.72
101308.53
101309.25
101309.88
101310.41
101310.85
101311.19
101311.46
101311.63
101311.72
101311.71
101311.62
101311.45
101311.19
101310.85
101310.43
101309.94
101309.39
101308.8
101308.18
101307.56
101306.97
101306.44
101305.98
101305.64
101305.37
101305.3
101474.26
101422.07
101368.43
101315.52
101264.75
101217.08
101172.73
101131.79
101094.37
101060.54
101030.37
101003.88
100981.07
100961.93
100946.44
100934.55
100926.21
100921.31
100919.78
100921.7
100927.08
100935.7
100947.22
100961.31
100977.56
100995.47
101014.49
101034.02
101052.71
101067.58
101083.82
101099.6
101110.71
101119.05
101125.5
101130.44
101134.33
101137.6
101140.57
101143.42
101146.28
101149.18
101152.15
101155.17
101158.25
101161.38
101164.56
101167.78
101171.04
101174.34
101177.67
101181.03
101184.41
101187.82
101191.24
101194.66
101198.09
101201.51
101204.93
101208.34
101211.73
101215.11
101218.48
101221.82
101225.15
101228.47
101231.77
101235.04
101238.3
101241.53
101244.72
101247.88
101250.99
101254.05
101257.06
101260.01
101262.9
101265.72
101268.47
101271.16
101273.77
101276.31
101278.78
101281.18
101283.5
101285.74
101287.89
101289.96
101291.94
101293.83
101295.63
101297.34
101298.95
101300.47
101301.9
101303.23
101304.48
101305.64
101306.7
101307.68
101308.56
101309.34
101310.03
101310.63
101311.13
101311.55
101311.87
101312.11
101312.27
101312.34
101312.32
101312.21
101312.02
101311.75
101311.4
101310.97
101310.47
101309.91
101309.31
101308.68
101308.06
101307.46
101306.93
101306.46
101306.12
101305.85
101305.78
101492.83
101442.08
101391.28
101341.39
101293.26
101247.87
101205.47
101166.2
101130.18
101097.53
101068.31
101042.6
101020.42
101001.79
100986.7
100975.14
100967.05
100962.33
100960.91
100962.86
100968.21
100976.71
100987.99
101001.71
101017.42
101034.61
101052.71
101071.01
101087.56
101100.65
101115.54
101128.84
101137.54
101143.88
101148.52
101151.88
101154.43
101156.53
101158.48
101160.41
101162.4
101164.5
101166.71
101169.01
101171.41
101173.9
101176.46
101179.1
101181.8
101184.58
101187.41
101190.3
101193.24
101196.21
101199.22
101202.26
101205.32
101208.39
101211.47
101214.56
101217.65
101220.75
101223.84
101226.92
101230
101233.08
101236.15
101239.21
101242.27
101245.3
101248.31
101251.29
101254.23
101257.13
101259.99
101262.8
101265.55
101268.24
101270.87
101273.44
101275.94
101278.38
101280.75
101283.05
101285.28
101287.43
101289.51
101291.5
101293.41
101295.23
101296.96
101298.6
101300.16
101301.63
101303
101304.29
101305.49
101306.61
101307.63
101308.57
101309.42
101310.17
101310.83
101311.39
101311.87
101312.26
101312.56
101312.78
101312.92
101312.97
101312.93
101312.81
101312.6
101312.32
101311.95
101311.51
101311
101310.44
101309.83
101309.2
101308.57
101307.97
101307.43
101306.96
101306.61
101306.35
101306.27
101507.2
101458.3
101410.48
101363.68
101318.35
101275.41
101235.19
101197.85
101163.51
101132.32
101104.36
101079.73
101058.48
101040.64
101026.24
101015.25
101007.64
101003.31
101002.18
101004.34
101009.79
101018.27
101029.39
101042.78
101057.96
101074.37
101091.49
101108.51
101122.12
101133.88
101147.44
101157.84
101164.16
101168.51
101171.38
101173.22
101174.47
101175.47
101176.44
101177.46
101178.6
101179.91
101181.36
101182.95
101184.68
101186.52
101188.47
101190.53
101192.68
101194.93
101197.27
101199.69
101202.17
101204.72
101207.32
101209.97
101212.65
101215.37
101218.11
101220.88
101223.67
101226.47
101229.28
101232.1
101234.93
101237.77
101240.61
101243.46
101246.3
101249.14
101251.96
101254.76
101257.54
101260.28
101262.98
101265.64
101268.26
101270.82
101273.32
101275.77
101278.16
101280.49
101282.75
101284.96
101287.09
101289.16
101291.15
101293.07
101294.9
101296.65
101298.32
101299.9
101301.4
101302.81
101304.13
101305.37
101306.53
101307.6
101308.58
101309.48
101310.29
101311.01
101311.64
101312.18
101312.63
101312.99
101313.27
101313.47
101313.58
101313.61
101313.56
101313.42
101313.2
101312.9
101312.52
101312.07
101311.55
101310.98
101310.36
101309.72
101309.09
101308.48
101307.94
101307.46
101307.11
101306.85
101306.77
101518.37
101471.81
101426.97
101383.23
101340.72
101300.35
101262.47
101227.23
101194.8
101165.3
101138.87
101115.58
101095.52
101078.73
101065.24
101055.05
101048.13
101044.38
101043.71
101046.21
101051.89
101060.44
101071.46
101084.53
101099.14
101114.69
101130.6
101145.86
101156.97
101167.59
101178.91
101186.35
101190.44
101192.85
101194.02
101194.4
101194.45
101194.38
101194.4
101194.54
101194.83
101195.38
101196.09
101196.98
101198.03
101199.24
101200.59
101202.06
101203.67
101205.4
101207.24
101209.18
101211.22
101213.33
101215.53
101217.78
101220.09
101222.45
101224.85
101227.3
101229.78
101232.28
101234.81
101237.37
101239.94
101242.54
101245.15
101247.78
101250.41
101253.05
101255.68
101258.3
101260.9
101263.48
101266.03
101268.54
101271.02
101273.44
101275.82
101278.14
101280.42
101282.63
101284.8
101286.9
101288.94
101290.92
101292.83
101294.67
101296.42
101298.1
101299.7
101301.22
101302.66
101304.01
101305.28
101306.47
101307.58
101308.61
101309.55
101310.41
101311.19
101311.87
101312.47
101312.97
101313.4
101313.73
101313.99
101314.17
101314.26
101314.27
101314.2
101314.04
101313.81
101313.49
101313.1
101312.64
101312.11
101311.52
101310.9
101310.25
101309.61
101309
101308.45
101307.97
101307.62
101307.36
101307.28
101527.72
101484
101441.87
101400.9
101361.12
101323.33
101287.85
101254.86
101224.5
101196.9
101172.19
101150.47
101131.82
101116.3
101103.94
101094.76
101088.71
101085.7
101085.65
101088.62
101094.61
101103.29
101114.22
101126.95
101140.92
101155.51
101170
101183.15
101191.93
101201.05
101209.76
101214.32
101216.28
101216.82
101216.37
101215.38
101214.31
101213.24
101212.36
101211.62
101211.08
101210.88
101210.87
101211.07
101211.45
101212.04
101212.78
101213.68
101214.75
101215.96
101217.3
101218.77
101220.36
101222.05
101223.83
101225.69
101227.62
101229.62
101231.69
101233.81
101235.97
101238.18
101240.43
101242.72
101245.03
101247.39
101249.76
101252.17
101254.59
101257.03
101259.47
101261.9
101264.33
101266.74
101269.13
101271.5
101273.83
101276.12
101278.36
101280.56
101282.72
101284.82
101286.88
101288.89
101290.83
101292.72
101294.54
101296.3
101297.98
101299.59
101301.12
101302.57
101303.95
101305.24
101306.46
101307.6
101308.66
101309.64
101310.54
101311.37
101312.1
101312.75
101313.31
101313.79
101314.18
101314.49
101314.72
101314.88
101314.95
101314.94
101314.85
101314.68
101314.43
101314.1
101313.69
101313.22
101312.68
101312.08
101311.45
101310.8
101310.15
101309.53
101308.98
101308.5
101308.15
101307.88
101307.8
101535.94
101495.43
101455.71
101417.24
101380.07
101344.87
101311.88
101281.24
101253.09
101227.55
101204.75
101184.78
101167.74
101153.67
101142.62
101134.61
101129.59
101127.47
101128.15
101131.69
101138.05
101146.88
101157.71
101170.02
101183.24
101196.71
101209.59
101220.08
101226.53
101234.02
101239.87
101241.68
101241.59
101240.36
101238.38
101236.11
101234.05
101232.03
101230.3
101228.67
101227.29
101226.38
101225.68
101225.2
101224.93
101224.9
101225.05
101225.37
101225.91
101226.6
101227.46
101228.46
101229.6
101230.85
101232.22
101233.69
101235.24
101236.89
101238.61
101240.4
101242.25
101244.17
101246.13
101248.15
101250.2
101252.31
101254.45
101256.63
101258.84
101261.07
101263.32
101265.57
101267.82
101270.06
101272.3
101274.51
101276.69
101278.84
101280.95
101283.03
101285.06
101287.06
101289.01
101290.91
101292.76
101294.55
101296.29
101297.96
101299.57
101301.1
101302.56
101303.95
101305.26
101306.5
101307.66
101308.75
101309.76
101310.7
101311.56
101312.33
101313.03
101313.65
101314.17
101314.62
101314.98
101315.27
101315.47
101315.6
101315.66
101315.63
101315.52
101315.33
101315.06
101314.72
101314.3
101313.81
101313.26
101312.65
101312.01
101311.35
101310.7
101310.08
101309.52
101309.03
101308.68
101308.41
101308.33
101542.56
101505.46
101468.26
101432.4
101397.95
101365.42
101335.02
101306.85
101281.04
101257.71
101236.97
101218.91
101203.62
101191.16
101181.57
101174.87
101171.01
101169.88
101171.38
101175.54
101182.29
101191.25
101201.9
101213.67
101225.95
101238.1
101249.13
101256.02
101260.71
101266.45
101269.06
101268.37
101266.28
101263.43
101260
101256.53
101253.66
101250.76
101248.2
101245.65
101243.43
101241.87
101240.51
101239.37
101238.43
101237.81
101237.38
101237.13
101237.13
101237.32
101237.69
101238.22
101238.91
101239.74
101240.7
101241.77
101242.95
101244.24
101245.61
101247.08
101248.62
101250.23
101251.91
101253.65
101255.45
101257.31
101259.21
101261.17
101263.16
101265.18
101267.23
101269.3
101271.37
101273.44
101275.51
101277.57
101279.6
101281.61
101283.59
101285.54
101287.45
101289.33
101291.17
101292.97
101294.72
101296.42
101298.07
101299.66
101301.18
101302.64
101304.03
101305.35
101306.6
101307.78
101308.89
101309.92
101310.88
101311.77
101312.59
101313.32
101313.98
101314.56
101315.05
101315.47
101315.8
101316.06
101316.24
101316.35
101316.38
101316.33
101316.2
101315.99
101315.71
101315.35
101314.91
101314.41
101313.85
101313.24
101312.59
101311.92
101311.26
101310.63
101310.07
101309.58
101309.22
101308.95
101308.87
101547.57
101514.22
101479.82
101446.77
101415.19
101385.48
101357.79
101332.21
101308.86
101287.86
101269.29
101253.27
101239.86
101229.13
101221.12
101215.82
101213.2
101213.13
101215.5
101220.29
101227.4
101236.41
101246.72
101257.75
101268.82
101279.23
101287.76
101291.46
101294.62
101297.73
101297.09
101294.21
101290.16
101285.91
101281.18
101276.75
101273.13
101269.36
101265.98
101262.54
101259.55
101257.27
101255.31
101253.57
101251.94
101250.75
101249.76
101248.94
101248.41
101248.1
101247.98
101248.05
101248.31
101248.71
101249.26
101249.93
101250.74
101251.66
101252.7
101253.83
101255.06
101256.38
101257.77
101259.24
101260.77
101262.38
101264.04
101265.77
101267.54
101269.36
101271.21
101273.09
101274.98
101276.88
101278.79
101280.69
101282.57
101284.44
101286.28
101288.1
101289.89
101291.65
101293.38
101295.07
101296.72
101298.33
101299.89
101301.39
101302.83
101304.21
101305.53
101306.78
101307.97
101309.08
101310.13
101311.11
101312.03
101312.87
101313.64
101314.33
101314.95
101315.49
101315.95
101316.33
101316.63
101316.86
101317.02
101317.1
101317.11
101317.04
101316.89
101316.67
101316.36
101315.99
101315.54
101315.03
101314.46
101313.83
101313.17
101312.49
101311.83
101311.2
101310.63
101310.14
101309.77
101309.5
101309.42
101552.29
101522.51
101490.99
101460.91
101432.36
101405.61
101380.75
101357.87
101337.09
101318.5
101302.21
101288.3
101276.87
101267.95
101261.58
101257.75
101256.42
101257.43
101260.64
101266.02
101273.4
101282.28
101292.05
101302.04
101311.58
101319.91
101325.32
101326.04
101327.43
101327.6
101323.9
101319.02
101313.08
101307.66
101302.4
101297.14
101292.2
101287.59
101283.4
101279.51
101275.76
101272.5
101270.12
101267.75
101265.37
101263.7
101262.18
101260.76
101259.73
101258.93
101258.33
101257.94
101257.76
101257.74
101257.88
101258.17
101258.6
101259.17
101259.85
101260.67
101261.58
101262.59
101263.7
101264.89
101266.16
101267.52
101268.94
101270.44
101272
101273.6
101275.25
101276.94
101278.65
101280.38
101282.12
101283.86
101285.59
101287.31
101289.02
101290.7
101292.37
101294.01
101295.63
101297.21
101298.76
101300.27
101301.74
101303.15
101304.51
101305.82
101307.06
101308.24
101309.36
101310.42
101311.41
101312.33
101313.19
101313.99
101314.71
101315.36
101315.94
101316.44
101316.87
101317.21
101317.49
101317.69
101317.82
101317.87
101317.86
101317.77
101317.6
101317.35
101317.03
101316.64
101316.18
101315.66
101315.07
101314.44
101313.77
101313.08
101312.41
101311.77
101311.2
101310.7
101310.34
101310.06
101309.98
101557.53
101530.9
101502.32
101475.37
101450.04
101426.42
101404.52
101384.44
101366.28
101350.17
101336.21
101324.48
101315.06
101307.99
101303.29
101300.94
101300.88
101302.93
101306.92
101312.76
101320.22
101328.74
101337.62
101346.19
101353.8
101359.66
101361.14
101359.51
101358.89
101355.68
101349.44
101342.46
101335.76
101329.69
101323.08
101316.79
101310.98
101305.62
101300.69
101296.09
101291.8
101288.05
101284.91
101281.71
101278.77
101276.68
101274.57
101272.58
101271.05
101269.8
101268.73
101267.88
101267.27
101266.83
101266.57
101266.47
101266.52
101266.73
101267.08
101267.57
101268.17
101268.88
101269.7
101270.61
101271.63
101272.73
101273.91
101275.18
101276.51
101277.91
101279.36
101280.85
101282.38
101283.93
101285.5
101287.08
101288.66
101290.23
101291.8
101293.35
101294.89
101296.41
101297.92
101299.39
101300.84
101302.25
101303.62
101304.95
101306.23
101307.45
101308.62
101309.73
101310.78
101311.77
101312.7
101313.57
101314.38
101315.13
101315.8
101316.41
101316.95
101317.41
101317.8
101318.11
101318.35
101318.52
101318.63
101318.66
101318.62
101318.51
101318.32
101318.06
101317.72
101317.31
101316.84
101316.3
101315.7
101315.05
101314.37
101313.68
101313
101312.36
101311.78
101311.28
101310.91
101310.63
101310.55
101562.81
101541.11
101515.47
101491.36
101469.18
101448.74
101429.86
101412.58
101397.06
101383.43
101371.8
101362.24
101354.83
101349.6
101346.55
101345.64
101346.77
101349.75
101354.37
101360.46
101367.71
101375.5
101383.05
101389.64
101394.62
101397.28
101395.59
101392.12
101388.36
101381.48
101373.61
101365.97
101358.28
101350.56
101343.08
101336.05
101329.5
101323.43
101317.8
101312.56
101307.7
101303.32
101299.4
101295.7
101292.45
101289.57
101286.83
101284.41
101282.35
101280.68
101279.15
101277.85
101276.83
101275.97
101275.31
101274.82
101274.51
101274.37
101274.37
101274.53
101274.82
101275.23
101275.77
101276.4
101277.15
101278
101278.94
101279.98
101281.09
101282.28
101283.52
101284.82
101286.16
101287.54
101288.94
101290.36
101291.78
101293.21
101294.63
101296.05
101297.46
101298.86
101300.24
101301.61
101302.95
101304.27
101305.54
101306.78
101307.97
101309.11
101310.21
101311.24
101312.23
101313.16
101314.03
101314.84
101315.59
101316.29
101316.92
101317.48
101317.98
101318.4
101318.75
101319.03
101319.24
101319.38
101319.46
101319.46
101319.4
101319.26
101319.06
101318.77
101318.42
101317.99
101317.5
101316.95
101316.34
101315.68
101314.99
101314.29
101313.61
101312.96
101312.37
101311.87
101311.5
101311.22
101311.13
101567.94
101553.92
101533.73
101512.11
101491.73
101473.83
101457.68
101443.06
101430.07
101418.83
101409.46
101402.03
101396.57
101393.11
101391.61
101392.02
101394.2
101397.91
101402.9
101408.92
101415.57
101422.13
101427.79
101431.81
101433.57
101432.6
101428.55
101422.73
101414.97
101406.21
101397.53
101388.39
101379.44
101370.84
101362.65
101354.93
101347.71
101340.97
101334.69
101328.84
101323.4
101318.42
101313.86
101309.64
101305.81
101302.38
101299.28
101296.27
101293.64
101291.55
101289.55
101287.84
101286.41
101285.15
101284.09
101283.22
101282.54
101282.05
101281.72
101281.55
101281.53
101281.65
101281.89
101282.25
101282.74
101283.34
101284.04
101284.84
101285.73
101286.7
101287.75
101288.85
101290
101291.2
101292.43
101293.68
101294.95
101296.22
101297.51
101298.79
101300.07
101301.35
101302.62
101303.87
101305.11
101306.32
101307.5
101308.65
101309.75
101310.81
101311.82
101312.79
101313.7
101314.57
101315.38
101316.13
101316.83
101317.47
101318.06
101318.57
101319.03
101319.41
101319.72
101319.97
101320.14
101320.25
101320.3
101320.28
101320.19
101320.04
101319.81
101319.5
101319.13
101318.69
101318.18
101317.61
101316.99
101316.32
101315.62
101314.92
101314.22
101313.57
101312.98
101312.47
101312.09
101311.81
101311.73
101580.26
101568.24
101552.15
101535.93
101518.59
101502.44
101488.61
101476.43
101465.8
101456.84
101449.62
101444.19
101440.57
101438.74
101438.65
101440.17
101443.15
101447.29
101452.26
101457.76
101463.26
101467.99
101471.13
101472.04
101470.29
101465.79
101458.82
101450.14
101440.27
101430.1
101419.83
101409.69
101399.92
101390.6
101381.75
101373.4
101365.55
101358.2
101351.32
101344.88
101338.88
101333.33
101328.2
101323.46
101319.1
101315.14
101311.49
101308.1
101305.14
101302.39
101299.89
101297.85
101295.99
101294.35
101292.9
101291.67
101290.62
101289.79
101289.11
101288.63
101288.3
101288.11
101288.08
101288.16
101288.39
101288.73
101289.19
101289.76
101290.43
101291.19
101292.03
101292.93
101293.9
101294.92
101295.97
101297.06
101298.17
101299.29
101300.43
101301.57
101302.73
101303.88
101305.03
101306.17
101307.3
101308.41
101309.49
101310.54
101311.56
101312.54
101313.47
101314.36
101315.21
101316
101316.75
101317.45
101318.09
101318.68
101319.21
101319.69
101320.1
101320.44
101320.71
101320.92
101321.06
101321.14
101321.16
101321.12
101321
101320.82
101320.57
101320.25
101319.85
101319.4
101318.87
101318.29
101317.66
101316.98
101316.27
101315.55
101314.85
101314.19
101313.6
101313.08
101312.7
101312.42
101312.33
101595.28
101589.92
101577.28
101563.21
101548.81
101534.73
101523.06
101513.08
101504.64
101497.79
101492.58
101489
101487.04
101486.63
101487.67
101490.02
101493.42
101497.54
101501.98
101506.33
101509.98
101512.15
101512.1
101509.42
101503.99
101496.09
101486.3
101475.35
101463.88
101452.39
101441.11
101430.2
101419.76
101409.81
101400.36
101391.43
101383.01
101375.09
101367.64
101360.66
101354.13
101348.04
101342.39
101337.13
101332.28
101327.8
101323.68
101319.87
101316.41
101313.24
101310.44
101307.85
101305.54
101303.54
101301.71
101300.13
101298.73
101297.56
101296.55
101295.75
101295.11
101294.63
101294.32
101294.13
101294.09
101294.18
101294.4
101294.74
101295.19
101295.73
101296.36
101297.07
101297.85
101298.69
101299.57
101300.49
101301.43
101302.41
101303.4
101304.4
101305.42
101306.45
101307.48
101308.51
101309.52
101310.53
101311.52
101312.48
101313.4
101314.3
101315.15
101315.96
101316.74
101317.47
101318.15
101318.79
101319.37
101319.91
101320.4
101320.82
101321.19
101321.49
101321.72
101321.89
101322
101322.05
101322.04
101321.97
101321.83
101321.62
101321.35
101321.01
101320.59
101320.12
101319.58
101318.98
101318.33
101317.64
101316.92
101316.2
101315.49
101314.82
101314.22
101313.71
101313.32
101313.04
101312.95
101614.34
101615.81
101607.38
101593.67
101581.4
101571.24
101561.5
101553.33
101546.84
101541.91
101538.5
101536.55
101535.98
101536.69
101538.51
101541.23
101544.54
101548.02
101551.22
101553.63
101554.62
101553.45
101549.65
101543.1
101534.08