/*--------------------------------*- C++ -*----------------------------------*\
| =========                 |                                                 |
| \\      /  F ield         | OpenFOAM: The Open Source CFD Toolbox           |
|  \\    /   O peration     | Version:  2406                                  |
|   \\  /    A nd           | Website:  www.openfoam.com                      |
|    \\/     M anipulation  |                                                 |
\*---------------------------------------------------------------------------*/
FoamFile
{
    version     2.0;
    format      ascii;
    arch        "LSB;label=32;scalar=64";
    class       volScalarField;
    location    "0.007";
    object      rho;
}
// * * * * * * * * * * * * * * * * * * * * * * * * * * * * * * * * * * * * * //

dimensions      [1 -3 0 0 0 0 0];

internalField   nonuniform List<scalar> 
92813
(
1.1971877
1.196226
1.1957936
1.1953052
1.1948028
1.1943511
1.1939649
1.1936431
1.1933813
1.1931753
1.1930216
1.1929167
1.1928568
1.1928343
1.1928448
1.1928862
1.1929655
1.1930894
1.1932633
1.1934834
1.1937444
1.1940424
1.1943746
1.1947377
1.1951279
1.195541
1.1959723
1.1964103
1.1968408
1.1972835
1.1976857
1.1980774
1.1984354
1.1987139
1.198927
1.1990776
1.1991763
1.199243
1.1992982
1.1993554
1.1994192
1.1994888
1.1995616
1.1996352
1.1997082
1.1997797
1.1998495
1.1999174
1.1999834
1.2000477
1.2001103
1.2001713
1.2002308
1.2002889
1.2003456
1.2004009
1.2004548
1.2005076
1.2005591
1.2006095
1.2006587
1.2007069
1.200754
1.2008001
1.2008452
1.2008893
1.2009324
1.2009747
1.2010161
1.2010565
1.2010961
1.2011347
1.2011724
1.201209
1.2012447
1.2012794
1.2013131
1.2013458
1.2013775
1.2014082
1.2014379
1.2014666
1.2014943
1.201521
1.2015468
1.2015715
1.2015953
1.201618
1.2016397
1.2016603
1.2016799
1.2016984
1.201716
1.2017326
1.2017481
1.2017627
1.2017764
1.2017891
1.201801
1.2018118
1.2018217
1.2018307
1.2018387
1.2018458
1.201852
1.2018573
1.2018617
1.2018653
1.201868
1.20187
1.2018711
1.2018714
1.2018709
1.2018696
1.2018675
1.2018647
1.2018613
1.2018572
1.2018528
1.201848
1.2018433
1.2018386
1.2018345
1.2018308
1.2018282
1.201826
1.2018255
1.1989018
1.1982757
1.1976884
1.1970442
1.1964486
1.1959312
1.1954873
1.1951136
1.1948043
1.1945562
1.1943646
1.1942258
1.1941342
1.1940817
1.1940582
1.1940587
1.1940876
1.1941546
1.1942645
1.1944175
1.1946152
1.194855
1.1951305
1.1954368
1.1957699
1.1961255
1.1964986
1.1968815
1.1972669
1.1976444
1.1979885
1.1983447
1.1986661
1.1989093
1.1990944
1.1992236
1.1993079
1.1993662
1.1994169
1.1994709
1.1995314
1.1995969
1.199665
1.1997336
1.1998015
1.1998682
1.1999332
1.1999967
1.2000585
1.2001189
1.2001777
1.2002352
1.2002914
1.2003464
1.2004001
1.2004526
1.200504
1.2005542
1.2006034
1.2006515
1.2006987
1.2007448
1.20079
1.2008342
1.2008776
1.2009201
1.2009617
1.2010025
1.2010425
1.2010817
1.20112
1.2011574
1.2011939
1.2012295
1.2012642
1.2012979
1.2013307
1.2013626
1.2013934
1.2014233
1.2014523
1.2014803
1.2015073
1.2015334
1.2015586
1.2015828
1.201606
1.2016282
1.2016494
1.2016695
1.2016887
1.2017069
1.201724
1.2017402
1.2017555
1.2017698
1.2017832
1.2017956
1.2018072
1.2018178
1.2018275
1.2018362
1.2018441
1.2018509
1.2018569
1.2018621
1.2018663
1.2018698
1.2018724
1.2018742
1.2018752
1.2018754
1.2018748
1.2018734
1.2018713
1.2018684
1.2018649
1.2018608
1.2018563
1.2018515
1.2018467
1.201842
1.2018379
1.2018341
1.2018315
1.2018294
1.2018289
1.1996445
1.1991508
1.1985174
1.1978176
1.1971858
1.1966408
1.1961707
1.1957697
1.1954355
1.1951627
1.1949465
1.1947824
1.1946651
1.194589
1.1945473
1.1945357
1.1945538
1.1946075
1.1947017
1.1948415
1.1950281
1.1952562
1.1955203
1.1958159
1.1961384
1.1964833
1.1968448
1.1972163
1.1975925
1.1979432
1.1982651
1.1986082
1.1989055
1.1991231
1.199284
1.199392
1.19946
1.1995074
1.1995508
1.1995993
1.1996545
1.1997145
1.1997769
1.1998399
1.1999023
1.1999637
1.2000238
1.2000825
1.2001398
1.2001959
1.2002508
1.2003046
1.2003572
1.2004088
1.2004594
1.2005089
1.2005574
1.200605
1.2006516
1.2006973
1.2007422
1.2007862
1.2008293
1.2008716
1.200913
1.2009537
1.2009937
1.2010329
1.2010714
1.2011091
1.201146
1.2011821
1.2012174
1.2012519
1.2012854
1.2013181
1.2013499
1.2013808
1.2014107
1.2014398
1.2014679
1.2014951
1.2015214
1.2015468
1.2015713
1.2015949
1.2016175
1.2016392
1.2016599
1.2016795
1.2016982
1.201716
1.2017327
1.2017485
1.2017634
1.2017773
1.2017904
1.2018025
1.2018138
1.2018241
1.2018336
1.2018421
1.2018497
1.2018564
1.2018622
1.2018671
1.2018712
1.2018745
1.201877
1.2018787
1.2018795
1.2018796
1.2018789
1.2018774
1.2018752
1.2018723
1.2018687
1.2018645
1.20186
1.2018551
1.2018503
1.2018456
1.2018414
1.2018376
1.201835
1.2018328
1.2018323
1.2002512
1.1997952
1.1991561
1.1984588
1.1978221
1.1972644
1.1967768
1.1963543
1.1959948
1.1956948
1.1954505
1.1952581
1.1951135
1.1950125
1.1949511
1.1949264
1.1949378
1.1949872
1.1950774
1.1952115
1.1953898
1.1956089
1.1958645
1.1961523
1.1964679
1.1968062
1.197161
1.1975262
1.1978964
1.1982265
1.1985357
1.1988677
1.199141
1.1993343
1.1994717
1.199559
1.1996116
1.1996488
1.1996856
1.1997287
1.1997786
1.1998331
1.1998898
1.1999471
1.200004
1.20006
1.2001151
1.200169
1.2002219
1.2002737
1.2003246
1.2003746
1.2004236
1.2004719
1.2005192
1.2005657
1.2006114
1.2006562
1.2007003
1.2007436
1.2007861
1.2008279
1.2008689
1.2009092
1.2009488
1.2009877
1.2010259
1.2010635
1.2011005
1.2011367
1.2011723
1.2012071
1.2012411
1.2012744
1.2013068
1.2013384
1.2013692
1.2013991
1.2014282
1.2014564
1.2014837
1.2015101
1.2015357
1.2015604
1.2015842
1.2016072
1.2016292
1.2016503
1.2016704
1.2016896
1.2017078
1.2017251
1.2017415
1.2017569
1.2017714
1.201785
1.2017977
1.2018095
1.2018205
1.2018306
1.2018397
1.201848
1.2018554
1.2018619
1.2018675
1.2018722
1.2018762
1.2018793
1.2018817
1.2018832
1.2018839
1.2018839
1.2018831
1.2018815
1.2018792
1.2018762
1.2018725
1.2018683
1.2018637
1.2018588
1.2018539
1.2018492
1.2018449
1.2018412
1.2018385
1.2018363
1.2018358
1.2008173
1.2003464
1.1997131
1.1990364
1.1984103
1.1978524
1.1973578
1.1969237
1.1965486
1.1962303
1.1959663
1.1957537
1.1955893
1.1954701
1.195393
1.1953562
1.1953588
1.1954014
1.1954849
1.195611
1.1957801
1.1959895
1.1962354
1.1965138
1.1968202
1.1971491
1.1974942
1.1978492
1.1982074
1.1985184
1.1988145
1.1991273
1.1993744
1.1995426
1.1996563
1.199724
1.1997626
1.199791
1.1998219
1.1998599
1.1999045
1.1999534
1.2000043
1.2000558
1.2001071
1.2001578
1.2002077
1.2002569
1.2003052
1.2003528
1.2003996
1.2004458
1.2004913
1.2005361
1.2005802
1.2006237
1.2006664
1.2007085
1.20075
1.2007908
1.200831
1.2008705
1.2009094
1.2009477
1.2009853
1.2010224
1.2010589
1.2010949
1.2011303
1.201165
1.2011992
1.2012327
1.2012654
1.2012975
1.2013287
1.2013593
1.201389
1.201418
1.2014461
1.2014734
1.2014999
1.2015255
1.2015503
1.2015743
1.2015975
1.2016198
1.2016412
1.2016617
1.2016813
1.2017
1.2017177
1.2017345
1.2017504
1.2017654
1.2017795
1.2017928
1.2018051
1.2018167
1.2018273
1.2018371
1.2018461
1.2018541
1.2018612
1.2018675
1.2018729
1.2018775
1.2018812
1.2018842
1.2018864
1.2018878
1.2018884
1.2018883
1.2018874
1.2018857
1.2018833
1.2018802
1.2018765
1.2018722
1.2018675
1.2018625
1.2018576
1.2018528
1.2018486
1.2018448
1.2018421
1.2018399
1.2018394
1.2013031
1.2008095
1.2001784
1.1995274
1.1989202
1.198371
1.1978783
1.1974411
1.1970589
1.1967306
1.1964546
1.196229
1.1960514
1.1959197
1.1958316
1.1957857
1.195781
1.1958172
1.1958944
1.1960137
1.1961754
1.1963772
1.1966152
1.1968854
1.1971833
1.197503
1.1978379
1.1981813
1.1985251
1.1988174
1.1990981
1.1993879
1.1996065
1.1997489
1.1998389
1.1998879
1.1999139
1.1999346
1.19996
1.1999929
1.2000321
1.2000752
1.2001202
1.2001659
1.2002115
1.2002568
1.2003017
1.200346
1.2003898
1.200433
1.2004758
1.2005181
1.20056
1.2006014
1.2006422
1.2006826
1.2007225
1.2007618
1.2008006
1.2008389
1.2008767
1.2009139
1.2009506
1.2009869
1.2010226
1.2010578
1.2010926
1.2011268
1.2011606
1.2011939
1.2012266
1.2012587
1.2012902
1.201321
1.2013511
1.2013805
1.2014092
1.2014372
1.2014643
1.2014907
1.2015163
1.2015412
1.2015652
1.2015885
1.201611
1.2016326
1.2016534
1.2016733
1.2016924
1.2017105
1.2017278
1.2017441
1.2017596
1.2017742
1.2017879
1.2018007
1.2018128
1.201824
1.2018343
1.2018438
1.2018525
1.2018603
1.2018672
1.2018732
1.2018784
1.2018828
1.2018864
1.2018892
1.2018913
1.2018925
1.201893
1.2018927
1.2018917
1.2018899
1.2018874
1.2018843
1.2018805
1.2018761
1.2018713
1.2018664
1.2018614
1.2018565
1.2018523
1.2018484
1.2018457
1.2018435
1.201843
1.2017071
1.2011915
1.2005713
1.1999465
1.1993604
1.1988248
1.1983401
1.1979063
1.1975237
1.197192
1.1969104
1.1966776
1.1964922
1.1963527
1.1962575
1.1962054
1.1961956
1.1962271
1.1962997
1.1964141
1.1965705
1.1967666
1.1969983
1.1972618
1.1975521
1.1978632
1.198188
1.1985194
1.1988476
1.1991205
1.1993844
1.1996487
1.199837
1.199953
1.2000197
1.2000512
1.2000661
1.2000798
1.2001
1.2001278
1.2001614
1.2001986
1.2002376
1.2002774
1.2003174
1.2003573
1.200397
1.2004364
1.2004756
1.2005146
1.2005533
1.2005917
1.2006299
1.2006678
1.2007054
1.2007426
1.2007795
1.200816
1.2008522
1.2008879
1.2009232
1.2009582
1.2009927
1.2010268
1.2010606
1.2010939
1.2011269
1.2011594
1.2011916
1.2012234
1.2012546
1.2012853
1.2013155
1.201345
1.2013739
1.2014022
1.2014299
1.2014568
1.201483
1.2015085
1.2015332
1.2015572
1.2015805
1.201603
1.2016247
1.2016457
1.2016659
1.2016852
1.2017037
1.2017213
1.201738
1.2017539
1.2017689
1.2017831
1.2017964
1.2018089
1.2018206
1.2018314
1.2018415
1.2018507
1.2018591
1.2018666
1.2018733
1.2018791
1.2018841
1.2018883
1.2018917
1.2018943
1.2018962
1.2018973
1.2018977
1.2018973
1.2018961
1.2018943
1.2018917
1.2018884
1.2018845
1.2018801
1.2018753
1.2018702
1.2018652
1.2018604
1.201856
1.2018522
1.2018495
1.2018472
1.2018467
1.2020283
1.2014991
1.2009008
1.2003036
1.1997402
1.1992221
1.1987503
1.1983255
1.1979482
1.1976188
1.1973371
1.1971026
1.1969143
1.1967714
1.1966729
1.1966178
1.1966052
1.1966341
1.1967037
1.1968149
1.1969677
1.1971596
1.1973864
1.1976441
1.1979275
1.1982303
1.1985449
1.1988635
1.1991742
1.1994266
1.1996722
1.1999085
1.200065
1.2001541
1.2001984
1.2002141
1.2002192
1.2002267
1.2002417
1.2002643
1.2002922
1.2003234
1.2003563
1.2003902
1.2004245
1.200459
1.2004935
1.2005281
1.2005627
1.2005973
1.2006319
1.2006664
1.2007009
1.2007353
1.2007696
1.2008037
1.2008375
1.2008712
1.2009046
1.2009378
1.2009707
1.2010033
1.2010356
1.2010676
1.2010993
1.2011307
1.2011618
1.2011927
1.2012232
1.2012534
1.2012832
1.2013125
1.2013413
1.2013695
1.2013973
1.2014244
1.2014509
1.2014768
1.201502
1.2015266
1.2015504
1.2015735
1.201596
1.2016178
1.2016388
1.2016591
1.2016786
1.2016973
1.2017152
1.2017323
1.2017485
1.2017639
1.2017785
1.2017922
1.2018051
1.2018172
1.2018285
1.201839
1.2018488
1.2018577
1.2018658
1.2018731
1.2018795
1.2018851
1.2018898
1.2018938
1.2018971
1.2018995
1.2019013
1.2019022
1.2019025
1.2019019
1.2019007
1.2018987
1.201896
1.2018926
1.2018887
1.2018842
1.2018793
1.2018742
1.2018691
1.2018642
1.2018599
1.201856
1.2018533
1.201851
1.2018505
1.2022706
1.2017397
1.2011684
1.2006021
1.2000648
1.1995681
1.1991137
1.1987025
1.1983356
1.1980136
1.1977369
1.1975054
1.1973188
1.1971766
1.1970783
1.1970232
1.1970104
1.1970388
1.1971075
1.1972172
1.197368
1.1975571
1.1977803
1.1980331
1.1983101
1.1986046
1.1989085
1.1992133
1.199504
1.1997344
1.19996
1.2001658
1.2002893
1.2003516
1.2003749
1.2003765
1.2003732
1.2003751
1.2003852
1.2004023
1.2004243
1.2004494
1.2004762
1.2005042
1.2005328
1.2005618
1.2005913
1.200621
1.200651
1.2006812
1.2007116
1.2007423
1.200773
1.2008039
1.2008348
1.2008657
1.2008966
1.2009274
1.200958
1.2009886
1.2010189
1.2010492
1.2010792
1.201109
1.2011387
1.2011682
1.2011975
1.2012266
1.2012555
1.201284
1.2013123
1.2013401
1.2013676
1.2013946
1.201421
1.201447
1.2014724
1.2014972
1.2015214
1.201545
1.201568
1.2015902
1.2016119
1.2016329
1.2016532
1.2016728
1.2016916
1.2017097
1.201727
1.2017435
1.2017592
1.2017741
1.2017882
1.2018015
1.201814
1.2018257
1.2018366
1.2018468
1.2018562
1.2018648
1.2018726
1.2018796
1.2018858
1.2018912
1.2018957
1.2018995
1.2019026
1.2019049
1.2019064
1.2019073
1.2019073
1.2019067
1.2019053
1.2019032
1.2019004
1.2018969
1.2018929
1.2018883
1.2018834
1.2018783
1.2018731
1.2018682
1.2018638
1.2018599
1.2018571
1.2018549
1.2018543
1.2024436
1.2019213
1.201381
1.2008486
1.2003406
1.1998687
1.1994355
1.199042
1.1986896
1.1983793
1.1981119
1.1978877
1.1977068
1.1975692
1.1974745
1.1974223
1.197412
1.1974421
1.1975119
1.1976219
1.1977723
1.19796
1.1981804
1.1984291
1.1987
1.198986
1.1992788
1.1995684
1.1998354
1.2000419
1.2002465
1.2004191
1.2005088
1.2005451
1.2005491
1.2005387
1.2005283
1.200525
1.20053
1.2005415
1.2005575
1.2005765
1.2005972
1.2006192
1.2006421
1.2006658
1.2006901
1.2007149
1.2007403
1.2007662
1.2007925
1.2008192
1.2008462
1.2008735
1.2009011
1.2009288
1.2009565
1.2009844
1.2010123
1.2010402
1.2010681
1.2010959
1.2011236
1.2011513
1.2011789
1.2012064
1.2012338
1.2012611
1.2012883
1.2013153
1.201342
1.2013684
1.2013944
1.2014201
1.2014453
1.2014701
1.2014944
1.2015181
1.2015413
1.2015639
1.2015859
1.2016073
1.2016281
1.2016483
1.2016678
1.2016867
1.2017049
1.2017224
1.2017391
1.201755
1.2017702
1.2017845
1.2017981
1.201811
1.2018231
1.2018344
1.2018449
1.2018548
1.2018638
1.2018721
1.2018796
1.2018864
1.2018923
1.2018974
1.2019017
1.2019053
1.2019082
1.2019103
1.2019117
1.2019124
1.2019123
1.2019115
1.20191
1.2019078
1.2019049
1.2019013
1.2018972
1.2018926
1.2018876
1.2018824
1.2018772
1.2018722
1.2018678
1.2018639
1.2018611
1.2018588
1.2018583
1.2025616
1.2020555
1.2015484
1.2010516
1.2005753
1.2001309
1.1997217
1.1993492
1.1990148
1.1987198
1.1984654
1.1982522
1.1980806
1.1979508
1.1978629
1.1978165
1.197811
1.1978451
1.1979179
1.1980299
1.1981813
1.1983688
1.1985875
1.1988323
1.1990972
1.1993742
1.1996549
1.1999281
1.2001658
1.2003472
1.2005303
1.2006663
1.2007224
1.200734
1.2007213
1.2007008
1.2006844
1.2006762
1.200676
1.2006818
1.2006916
1.2007045
1.2007191
1.2007351
1.2007525
1.2007708
1.2007899
1.2008099
1.2008307
1.2008522
1.2008744
1.2008971
1.2009204
1.2009442
1.2009683
1.2009927
1.2010175
1.2010424
1.2010675
1.2010927
1.201118
1.2011434
1.2011688
1.2011943
1.2012198
1.2012453
1.2012708
1.2012963
1.2013217
1.2013471
1.2013722
1.2013971
1.2014218
1.2014461
1.20147
1.2014936
1.2015167
1.2015394
1.2015615
1.2015831
1.2016042
1.2016247
1.2016446
1.201664
1.2016828
1.201701
1.2017184
1.2017353
1.2017514
1.2017667
1.2017813
1.2017952
1.2018083
1.2018207
1.2018323
1.2018432
1.2018534
1.2018629
1.2018716
1.2018796
1.2018868
1.2018932
1.2018989
1.2019038
1.2019079
1.2019112
1.2019139
1.2019158
1.2019171
1.2019176
1.2019174
1.2019164
1.2019148
1.2019125
1.2019095
1.2019058
1.2019016
1.2018969
1.2018918
1.2018866
1.2018814
1.2018763
1.2018719
1.2018679
1.2018651
1.2018628
1.2018623
1.202639
1.2021536
1.2016809
1.2012203
1.2007769
1.2003618
1.1999788
1.1996297
1.199316
1.1990394
1.1988011
1.198602
1.1984428
1.1983239
1.1982455
1.1982075
1.1982092
1.1982494
1.1983269
1.1984426
1.1985964
1.1987845
1.199002
1.1992432
1.1995015
1.1997686
1.2000358
1.2002907
1.2004898
1.2006505
1.2008106
1.2009051
1.2009292
1.2009186
1.2008916
1.2008631
1.2008415
1.2008285
1.200823
1.2008228
1.2008264
1.2008331
1.2008417
1.2008519
1.2008636
1.2008766
1.2008907
1.2009058
1.200922
1.2009392
1.2009572
1.200976
1.2009956
1.2010157
1.2010365
1.2010576
1.2010792
1.2011012
1.2011235
1.201146
1.2011687
1.2011917
1.2012147
1.201238
1.2012613
1.2012848
1.2013084
1.2013321
1.2013558
1.2013795
1.201403
1.2014264
1.2014496
1.2014726
1.2014953
1.2015176
1.2015395
1.2015611
1.2015821
1.2016027
1.2016228
1.2016424
1.2016615
1.2016801
1.2016981
1.2017155
1.2017323
1.2017484
1.2017639
1.2017787
1.2017927
1.2018061
1.2018187
1.2018306
1.2018418
1.2018523
1.2018621
1.2018711
1.2018795
1.2018872
1.2018941
1.2019002
1.2019056
1.2019102
1.2019141
1.2019173
1.2019197
1.2019215
1.2019225
1.2019229
1.2019225
1.2019215
1.2019197
1.2019172
1.2019141
1.2019104
1.2019061
1.2019013
1.2018962
1.2018909
1.2018856
1.2018805
1.201876
1.201872
1.2018692
1.2018669
1.2018663
1.2026872
1.2022278
1.2017894
1.2013641
1.2009537
1.2005687
1.2002133
1.1998894
1.1995987
1.1993428
1.1991232
1.1989409
1.1987968
1.1986914
1.198625
1.1985976
1.1986086
1.1986567
1.1987408
1.1988615
1.1990186
1.1992081
1.1994245
1.1996619
1.1999127
1.2001681
1.2004185
1.2006487
1.2008134
1.2009543
1.2010798
1.2011328
1.2011286
1.2010988
1.2010605
1.2010255
1.2009993
1.2009815
1.2009706
1.2009643
1.2009615
1.2009623
1.2009649
1.2009692
1.2009754
1.2009832
1.2009922
1.2010025
1.2010142
1.201027
1.2010409
1.2010558
1.2010716
1.2010882
1.2011055
1.2011234
1.2011419
1.2011608
1.2011803
1.2012001
1.2012202
1.2012407
1.2012614
1.2012824
1.2013036
1.2013251
1.2013467
1.2013685
1.2013905
1.2014124
1.2014344
1.2014563
1.201478
1.2014996
1.201521
1.2015421
1.2015628
1.2015832
1.2016032
1.2016227
1.2016418
1.2016605
1.2016787
1.2016964
1.2017136
1.2017303
1.2017464
1.2017619
1.2017767
1.2017909
1.2018044
1.2018171
1.2018293
1.2018407
1.2018514
1.2018615
1.2018709
1.2018796
1.2018876
1.2018949
1.2019015
1.2019074
1.2019125
1.2019169
1.2019205
1.2019234
1.2019257
1.2019272
1.2019281
1.2019283
1.2019278
1.2019266
1.2019247
1.2019221
1.2019189
1.2019151
1.2019107
1.2019058
1.2019006
1.2018952
1.2018899
1.2018848
1.2018803
1.2018763
1.2018734
1.2018711
1.2018705
1.202722
1.2022946
1.2018868
1.2014933
1.2011142
1.2007592
1.2004319
1.2001344
1.1998682
1.199635
1.1994362
1.199273
1.1991462
1.1990564
1.1990042
1.1989894
1.1990116
1.1990692
1.1991612
1.199288
1.1994491
1.1996404
1.1998556
1.2000882
1.2003302
1.2005719
1.2008022
1.2010022
1.2011333
1.2012493
1.2013357
1.2013495
1.2013206
1.2012753
1.2012283
1.2011881
1.2011578
1.201135
1.2011187
1.201106
1.2010967
1.2010918
1.2010885
1.2010871
1.2010878
1.2010904
1.2010945
1.2011
1.2011072
1.2011157
1.2011255
1.2011364
1.2011485
1.2011615
1.2011754
1.20119
1.2012053
1.2012213
1.2012378
1.2012549
1.2012725
1.2012904
1.2013088
1.2013275
1.2013466
1.201366
1.2013856
1.2014056
1.2014257
1.201446
1.2014663
1.2014867
1.201507
1.2015271
1.2015471
1.201567
1.2015865
1.2016057
1.2016246
1.2016431
1.2016612
1.2016789
1.2016962
1.2017131
1.2017295
1.2017454
1.2017608
1.2017756
1.2017898
1.2018033
1.2018162
1.2018285
1.2018401
1.201851
1.2018613
1.2018709
1.2018799
1.2018882
1.2018959
1.2019029
1.2019091
1.2019147
1.2019195
1.2019236
1.201927
1.2019297
1.2019318
1.2019331
1.2019338
1.2019338
1.2019332
1.2019318
1.2019298
1.2019271
1.2019237
1.2019198
1.2019153
1.2019104
1.2019051
1.2018997
1.2018943
1.2018892
1.2018846
1.2018805
1.2018776
1.2018753
1.2018747
1.2027514
1.2023601
1.2019791
1.2016138
1.2012646
1.2009393
1.2006407
1.2003705
1.2001302
1.1999212
1.199745
1.1996026
1.199495
1.1994228
1.1993865
1.199386
1.1994207
1.1994892
1.1995902
1.1997238
1.1998893
1.200082
1.2002952
1.2005217
1.2007527
1.2009781
1.2011848
1.201347
1.2014435
1.2015322
1.2015769
1.2015554
1.201506
1.2014489
1.2013952
1.2013505
1.2013167
1.2012888
1.2012671
1.2012477
1.2012316
1.2012213
1.2012124
1.2012053
1.2012005
1.2011982
1.2011974
1.2011981
1.2012009
1.2012051
1.2012108
1.2012178
1.2012262
1.2012356
1.201246
1.2012573
1.2012696
1.2012825
1.2012962
1.2013105
1.2013254
1.2013409
1.2013569
1.2013733
1.2013902
1.2014075
1.2014252
1.2014432
1.2014616
1.2014801
1.2014988
1.2015176
1.2015364
1.2015551
1.2015738
1.2015923
1.2016106
1.2016287
1.2016464
1.2016639
1.201681
1.2016977
1.2017141
1.2017301
1.2017457
1.2017609
1.2017755
1.2017896
1.2018031
1.201816
1.2018283
1.20184
1.2018511
1.2018615
1.2018713
1.2018805
1.2018891
1.201897
1.2019043
1.2019109
1.2019169
1.2019221
1.2019267
1.2019305
1.2019336
1.2019361
1.201938
1.2019391
1.2019396
1.2019395
1.2019387
1.2019371
1.201935
1.2019321
1.2019287
1.2019247
1.2019201
1.2019151
1.2019097
1.2019042
1.2018988
1.2018936
1.201889
1.2018849
1.201882
1.2018797
1.2018791
1.202769
1.2024161
1.2020633
1.2017273
1.2014088
1.201114
1.2008451
1.2006033
1.2003901
1.2002067
1.2000545
1.1999345
1.1998476
1.1997944
1.1997754
1.1997904
1.1998389
1.1999191
1.2000296
1.2001703
1.20034
1.2005334
1.2007431
1.2009612
1.2011781
1.2013836
1.2015626
1.2016747
1.2017425
1.2018018
1.2018019
1.2017514
1.2016857
1.2016204
1.2015611
1.201512
1.201476
1.2014429
1.2014157
1.2013888
1.2013658
1.2013506
1.2013363
1.2013238
1.2013135
1.2013064
1.2013008
1.2012967
1.2012951
1.2012951
1.2012967
1.2012999
1.2013045
1.2013103
1.2013174
1.2013254
1.2013345
1.2013444
1.2013552
1.2013668
1.2013791
1.2013921
1.2014056
1.2014198
1.2014344
1.2014497
1.2014654
1.2014815
1.201498
1.2015148
1.2015319
1.2015491
1.2015663
1.2015837
1.2016009
1.2016182
1.2016352
1.2016521
1.2016687
1.201685
1.2017011
1.2017169
1.2017324
1.2017475
1.2017622
1.2017766
1.2017905
1.2018038
1.2018167
1.201829
1.2018407
1.2018518
1.2018623
1.2018722
1.2018816
1.2018903
1.2018984
1.201906
1.2019129
1.2019192
1.2019248
1.2019297
1.201934
1.2019375
1.2019404
1.2019427
1.2019443
1.2019453
1.2019456
1.2019453
1.2019443
1.2019426
1.2019403
1.2019373
1.2019338
1.2019296
1.201925
1.2019198
1.2019144
1.2019089
1.2019034
1.2018981
1.2018935
1.2018894
1.2018864
1.2018841
1.2018835
1.2027743
1.2024639
1.2021422
1.2018377
1.2015517
1.2012889
1.2010508
1.2008387
1.2006537
1.2004971
1.20037
1.2002735
1.2002085
1.2001754
1.2001746
1.200206
1.2002688
1.2003612
1.2004814
1.2006288
1.2008018
1.2009942
1.201198
1.2014044
1.2016029
1.2017824
1.2019243
1.2019903
1.202031
1.2020509
1.2020096
1.2019379
1.2018594
1.2017899
1.2017262
1.201674
1.2016352
1.2015964
1.2015633
1.2015292
1.2015002
1.2014789
1.2014599
1.2014427
1.2014264
1.2014148
1.2014047
1.2013957
1.2013897
1.2013856
1.2013832
1.2013825
1.2013835
1.2013858
1.2013894
1.2013942
1.2014001
1.201407
1.2014149
1.2014238
1.2014334
1.2014439
1.2014551
1.2014669
1.2014793
1.2014925
1.2015061
1.2015203
1.201535
1.2015501
1.2015654
1.201581
1.2015968
1.2016127
1.2016286
1.2016444
1.2016602
1.2016759
1.2016913
1.2017066
1.2017216
1.2017364
1.2017509
1.2017652
1.2017791
1.2017926
1.2018057
1.2018184
1.2018306
1.2018422
1.2018533
1.2018638
1.2018738
1.2018832
1.201892
1.2019003
1.201908
1.2019151
1.2019217
1.2019276
1.2019329
1.2019375
1.2019414
1.2019447
1.2019473
1.2019493
1.2019507
1.2019515
1.2019516
1.2019511
1.20195
1.2019481
1.2019457
1.2019426
1.2019389
1.2019347
1.2019299
1.2019247
1.2019192
1.2019136
1.201908
1.2019027
1.201898
1.2018939
1.2018909
1.2018886
1.2018879
1.2027824
1.2025122
1.2022227
1.2019515
1.2016997
1.2014704
1.2012645
1.201083
1.2009272
1.2007982
1.2006971
1.2006249
1.2005824
1.20057
1.200588
1.2006362
1.2007134
1.2008178
1.200947
1.2011002
1.2012745
1.2014634
1.2016578
1.2018479
1.2020231
1.2021707
1.2022668
1.2022881
1.2022988
1.2022778
1.202202
1.2021159
1.2020272
1.2019559
1.2018959
1.2018406
1.201791
1.2017465
1.2017071
1.2016712
1.2016362
1.2016053
1.2015837
1.2015615
1.2015386
1.2015234
1.2015089
1.2014947
1.2014847
1.2014765
1.2014702
1.2014656
1.2014631
1.2014618
1.201462
1.2014635
1.2014663
1.2014702
1.2014753
1.2014814
1.2014884
1.2014963
1.2015051
1.2015146
1.2015248
1.2015358
1.2015475
1.2015598
1.2015726
1.2015859
1.2015995
1.2016135
1.2016277
1.2016421
1.2016566
1.2016712
1.2016857
1.2017001
1.2017144
1.2017285
1.2017425
1.2017563
1.2017699
1.2017832
1.2017962
1.2018089
1.2018213
1.2018332
1.2018447
1.2018557
1.2018661
1.2018761
1.2018855
1.2018944
1.2019027
1.2019105
1.2019178
1.2019245
1.2019306
1.2019362
1.2019411
1.2019454
1.201949
1.201952
1.2019544
1.2019562
1.2019573
1.2019579
1.2019578
1.2019571
1.2019558
1.2019538
1.2019512
1.201948
1.2019442
1.2019398
1.2019349
1.2019297
1.2019241
1.2019184
1.2019128
1.2019075
1.2019027
1.2018986
1.2018955
1.2018932
1.2018925
1.2028026
1.2025675
1.2023108
1.2020748
1.2018593
1.2016653
1.2014929
1.2013431
1.201217
1.2011161
1.2010413
1.2009938
1.200974
1.2009825
1.2010193
1.2010839
1.2011751
1.2012905
1.2014275
1.2015842
1.2017572
1.2019386
1.2021185
1.2022864
1.2024317
1.2025414
1.2025805
1.2025644
1.2025441
1.2024812
1.2023821
1.202284
1.2021994
1.2021307
1.2020618
1.2020001
1.2019452
1.2018956
1.2018505
1.2018088
1.2017699
1.2017361
1.2017079
1.2016779
1.2016504
1.2016324
1.2016127
1.2015937
1.2015796
1.2015678
1.2015576
1.2015492
1.2015431
1.2015382
1.2015351
1.2015334
1.201533
1.201534
1.2015362
1.2015396
1.2015439
1.2015493
1.2015557
1.2015628
1.2015709
1.2015798
1.2015894
1.2015997
1.2016107
1.2016222
1.2016342
1.2016465
1.2016592
1.2016721
1.2016852
1.2016984
1.2017115
1.2017247
1.2017378
1.2017508
1.2017637
1.2017765
1.2017891
1.2018015
1.2018137
1.2018256
1.2018371
1.2018483
1.2018591
1.2018694
1.2018792
1.2018885
1.2018974
1.2019057
1.2019136
1.2019209
1.2019277
1.201934
1.2019397
1.2019449
1.2019495
1.2019535
1.2019568
1.2019595
1.2019616
1.2019631
1.201964
1.2019644
1.2019641
1.2019632
1.2019617
1.2019596
1.2019568
1.2019535
1.2019495
1.2019451
1.2019401
1.2019347
1.2019291
1.2019233
1.2019176
1.2019123
1.2019075
1.2019033
1.2019002
1.2018979
1.2018972
1.2028283
1.2026498
1.2024258
1.2022214
1.2020414
1.2018833
1.2017448
1.2016266
1.2015302
1.201457
1.2014085
1.2013852
1.201388
1.2014169
1.2014718
1.2015519
1.2016557
1.2017803
1.2019226
1.2020797
1.2022471
1.2024156
1.2025743
1.2027117
1.2028169
1.2028782
1.2028691
1.202823
1.2027617
1.2026594
1.2025533
1.2024608
1.202375
1.2022955
1.2022232
1.2021577
1.202098
1.2020433
1.2019928
1.201946
1.2019027
1.2018635
1.2018283
1.201795
1.2017662
1.2017403
1.2017149
1.2016932
1.2016743
1.2016593
1.2016453
1.2016329
1.2016234
1.2016151
1.2016087
1.2016037
1.2016003
1.2015983
1.2015976
1.2015983
1.2016
1.2016029
1.2016069
1.2016117
1.2016175
1.2016243
1.2016318
1.2016402
1.2016494
1.201659
1.2016693
1.20168
1.2016911
1.2017025
1.2017142
1.201726
1.2017378
1.2017498
1.2017617
1.2017735
1.2017854
1.2017971
1.2018087
1.2018202
1.2018315
1.2018425
1.2018533
1.2018637
1.2018738
1.2018834
1.2018925
1.2019013
1.2019095
1.2019173
1.2019247
1.2019315
1.2019379
1.2019437
1.2019491
1.2019538
1.2019581
1.2019617
1.2019647
1.2019671
1.2019689
1.2019702
1.2019709
1.201971
1.2019706
1.2019695
1.2019678
1.2019655
1.2019626
1.2019591
1.201955
1.2019504
1.2019453
1.2019399
1.2019341
1.2019283
1.2019226
1.2019172
1.2019123
1.2019081
1.201905
1.2019026
1.201902
1.202857
1.2027678
1.2026066
1.2024296
1.2022688
1.2021388
1.2020308
1.2019421
1.2018738
1.2018274
1.2018039
1.2018041
1.2018283
1.2018765
1.2019481
1.2020419
1.202156
1.2022869
1.2024307
1.2025836
1.2027394
1.2028879
1.203017
1.2031149
1.2031709
1.2031776
1.2031314
1.2030523
1.2029462
1.2028328
1.2027302
1.2026309
1.2025404
1.2024582
1.2023828
1.2023131
1.2022487
1.2021889
1.2021334
1.2020816
1.2020336
1.2019896
1.2019492
1.2019118
1.2018778
1.2018472
1.2018199
1.2017929
1.2017688
1.2017508
1.2017326
1.2017168
1.2017039
1.2016924
1.2016826
1.2016745
1.201668
1.2016631
1.2016595
1.2016575
1.2016566
1.201657
1.2016586
1.201661
1.2016646
1.2016693
1.2016748
1.2016812
1.2016885
1.2016964
1.2017049
1.201714
1.2017235
1.2017334
1.2017436
1.201754
1.2017646
1.2017752
1.2017859
1.2017966
1.2018074
1.2018181
1.2018287
1.2018392
1.2018496
1.2018598
1.2018697
1.2018794
1.2018887
1.2018976
1.2019061
1.2019143
1.2019219
1.2019292
1.201936
1.2019423
1.2019482
1.2019536
1.2019585
1.201963
1.2019668
1.2019701
1.2019728
1.2019749
1.2019764
1.2019774
1.2019779
1.2019778
1.2019771
1.2019759
1.201974
1.2019715
1.2019684
1.2019648
1.2019606
1.2019559
1.2019507
1.2019451
1.2019393
1.2019334
1.2019276
1.2019222
1.2019173
1.201913
1.2019099
1.2019075
1.2019068
1.2029756
1.2029079
1.2027933
1.2026785
1.2025516
1.2024401
1.2023574
1.2022956
1.2022535
1.202232
1.2022321
1.2022542
1.2022982
1.2023637
1.2024496
1.2025543
1.2026752
1.202808
1.2029479
1.20309
1.2032263
1.2033457
1.2034356
1.2034855
1.2034879
1.2034419
1.2033551
1.2032438
1.2031222
1.2030055
1.2028966
1.202796
1.2027038
1.2026188
1.2025396
1.2024657
1.2023967
1.2023321
1.2022717
1.2022153
1.2021628
1.2021141
1.202069
1.2020274
1.2019891
1.2019541
1.201922
1.201892
1.2018663
1.2018417
1.2018191
1.201801
1.2017844
1.2017698
1.2017567
1.2017456
1.201736
1.2017283
1.2017219
1.2017172
1.2017137
1.2017115
1.2017108
1.2017109
1.2017123
1.2017149
1.2017183
1.2017228
1.2017282
1.2017342
1.2017411
1.2017485
1.2017564
1.2017648
1.2017735
1.2017825
1.2017917
1.2018011
1.2018106
1.2018201
1.2018297
1.2018394
1.201849
1.2018586
1.201868
1.2018774
1.2018865
1.2018954
1.2019039
1.2019121
1.20192
1.2019275
1.2019346
1.2019412
1.2019475
1.2019533
1.2019587
1.2019637
1.2019682
1.2019722
1.2019757
1.2019786
1.201981
1.2019828
1.2019841
1.2019848
1.201985
1.2019847
1.2019838
1.2019823
1.2019803
1.2019776
1.2019744
1.2019706
1.2019663
1.2019614
1.2019561
1.2019505
1.2019446
1.2019386
1.2019328
1.2019272
1.2019223
1.201918
1.2019149
1.2019125
1.2019118
1.2031302
1.2031394
1.2030636
1.2029719
1.2028777
1.2027886
1.2027294
1.2026915
1.2026731
1.2026745
1.2026962
1.202738
1.2027993
1.2028792
1.2029759
1.2030873
1.2032097
1.2033382
1.2034668
1.2035891
1.2036958
1.2037751
1.2038157
1.2038103
1.2037577
1.2036648
1.2035456
1.2034165
1.2032892
1.2031702
1.2030603
1.2029587
1.2028643
1.202776
1.2026931
1.202615
1.2025415
1.2024725
1.2024077
1.2023469
1.20229
1.202237
1.2021877
1.2021418
1.2020994
1.2020603
1.2020242
1.2019909
1.2019605
1.2019326
1.2019084
1.2018851
1.2018647
1.2018471
1.2018309
1.2018169
1.2018043
1.2017938
1.2017845
1.2017772
1.2017711
1.2017665
1.2017634
1.2017612
1.2017604
1.2017608
1.2017622
1.2017647
1.2017683
1.2017725
1.2017776
1.2017834
1.2017898
1.2017966
1.2018038
1.2018114
1.2018193
1.2018273
1.2018356
1.201844
1.2018525
1.2018611
1.2018697
1.2018783
1.2018868
1.2018952
1.2019035
1.2019116
1.2019194
1.2019269
1.2019341
1.2019409
1.2019474
1.2019535
1.2019592
1.2019646
1.2019695
1.201974
1.2019781
1.2019817
1.2019848
1.2019874
1.2019894
1.2019909
1.2019919
1.2019923
1.2019923
1.2019917
1.2019906
1.201989
1.2019867
1.2019839
1.2019805
1.2019765
1.2019721
1.2019671
1.2019617
1.201956
1.20195
1.2019439
1.201938
1.2019324
1.2019275
1.2019231
1.20192
1.2019175
1.2019168
1.2033361
1.2034239
1.2033957
1.2033059
1.2032347
1.2031898
1.2031512
1.2031326
1.203135
1.2031569
1.2031976
1.203256
1.2033312
1.2034212
1.2035238
1.2036358
1.2037526
1.2038681