/*--------------------------------*- C++ -*----------------------------------*\
| =========                 |                                                 |
| \\      /  F ield         | OpenFOAM: The Open Source CFD Toolbox           |
|  \\    /   O peration     | Version:  2406                                  |
|   \\  /    A nd           | Website:  www.openfoam.com                      |
|    \\/     M anipulation  |                                                 |
\*---------------------------------------------------------------------------*/
FoamFile
{
    version     2.0;
    format      ascii;
    arch        "LSB;label=32;scalar=64";
    class       volScalarField;
    location    "0.034";
    object      rho;
}
// * * * * * * * * * * * * * * * * * * * * * * * * * * * * * * * * * * * * * //

dimensions      [1 -3 0 0 0 0 0];

internalField   nonuniform List<scalar> 
92813
(
1.199563
1.1988671
1.198566
1.1982223
1.1978756
1.1975762
1.1973229
1.1971124
1.1969429
1.1968111
1.1967123
1.1966401
1.1965877
1.1965511
1.1965269
1.1965184
1.1965299
1.1965655
1.1966255
1.1967095
1.1968128
1.1969324
1.1970654
1.1972106
1.1973662
1.197531
1.1977037
1.1978835
1.1980693
1.1982604
1.1984559
1.1986548
1.1988564
1.1990595
1.1992632
1.199466
1.1996686
1.1998632
1.2000496
1.2002282
1.2004136
1.2005988
1.2007567
1.2008981
1.2010222
1.2011245
1.2012014
1.2012496
1.2012689
1.2012649
1.2012496
1.2012367
1.2012351
1.2012465
1.2012679
1.2012953
1.2013256
1.201357
1.2013884
1.2014195
1.20145
1.2014799
1.2015092
1.2015377
1.2015654
1.2015924
1.2016186
1.2016441
1.201669
1.2016932
1.2017169
1.2017401
1.2017629
1.2017852
1.2018071
1.2018287
1.2018498
1.2018704
1.2018905
1.2019101
1.2019292
1.2019478
1.2019658
1.2019834
1.2020006
1.2020175
1.2020339
1.20205
1.2020657
1.2020809
1.2020957
1.20211
1.202124
1.2021376
1.2021507
1.2021635
1.202176
1.2021881
1.2021998
1.2022111
1.202222
1.2022326
1.2022428
1.2022527
1.2022623
1.2022715
1.2022803
1.2022888
1.2022969
1.2023046
1.202312
1.202319
1.2023256
1.2023319
1.2023378
1.2023434
1.2023486
1.2023535
1.2023579
1.2023619
1.2023655
1.2023686
1.2023715
1.2023736
1.2023758
1.2023768
1.2023782
1.200971
1.2005205
1.2001073
1.19965
1.1992327
1.1988804
1.1985839
1.1983355
1.1981301
1.1979628
1.1978283
1.1977207
1.1976334
1.1975601
1.1974987
1.1974508
1.1974188
1.1974054
1.1974155
1.1974498
1.1975058
1.197582
1.1976776
1.1977891
1.1979134
1.1980483
1.1981923
1.1983442
1.1985027
1.1986671
1.1988362
1.1990092
1.1991852
1.1993632
1.1995422
1.199721
1.1998992
1.2000737
1.2002404
1.2003914
1.2005596
1.2007285
1.2008686
1.2009941
1.2011034
1.2011921
1.2012565
1.2012936
1.2013044
1.2012963
1.2012817
1.2012729
1.2012757
1.2012902
1.2013128
1.2013399
1.2013691
1.201399
1.2014287
1.2014581
1.201487
1.2015153
1.201543
1.2015701
1.2015965
1.2016222
1.2016471
1.2016714
1.2016951
1.2017183
1.2017409
1.2017631
1.2017849
1.2018064
1.2018274
1.2018481
1.2018685
1.2018883
1.2019077
1.2019267
1.2019451
1.201963
1.2019805
1.2019975
1.2020142
1.2020305
1.2020464
1.202062
1.2020773
1.202092
1.2021065
1.2021204
1.202134
1.2021472
1.20216
1.2021725
1.2021846
1.2021964
1.2022079
1.2022189
1.2022296
1.2022399
1.2022499
1.2022596
1.2022689
1.2022779
1.2022866
1.2022949
1.2023028
1.2023104
1.2023176
1.2023244
1.2023309
1.2023371
1.2023429
1.2023484
1.2023535
1.2023583
1.2023626
1.2023665
1.2023701
1.2023731
1.202376
1.202378
1.2023802
1.2023812
1.2023826
1.2016035
1.2012711
1.200824
1.2003273
1.1998861
1.1995124
1.1991938
1.1989223
1.198693
1.198501
1.1983414
1.1982092
1.1980995
1.198008
1.1979329
1.1978729
1.1978283
1.1978014
1.1977956
1.197812
1.1978504
1.1979112
1.1979918
1.1980889
1.1981995
1.1983218
1.1984541
1.1985951
1.1987434
1.1988981
1.199058
1.1992222
1.1993895
1.1995591
1.1997297
1.1999002
1.2000699
1.2002378
1.2003935
1.2005322
1.2006964
1.2008546
1.2009836
1.2010985
1.2011965
1.2012732
1.2013252
1.2013505
1.2013519
1.2013387
1.2013238
1.2013172
1.2013225
1.2013383
1.2013608
1.201387
1.2014146
1.2014427
1.2014707
1.2014983
1.2015255
1.2015521
1.2015783
1.2016039
1.2016288
1.2016531
1.2016767
1.2016998
1.2017223
1.2017443
1.2017659
1.2017871
1.2018079
1.2018284
1.2018485
1.2018684
1.2018879
1.201907
1.2019257
1.2019439
1.2019616
1.2019789
1.2019957
1.2020121
1.2020282
1.202044
1.2020594
1.2020746
1.2020893
1.2021036
1.2021176
1.2021312
1.2021443
1.2021572
1.2021696
1.2021818
1.2021936
1.2022051
1.2022162
1.202227
1.2022374
1.2022475
1.2022572
1.2022666
1.2022757
1.2022845
1.202293
1.2023011
1.2023089
1.2023163
1.2023233
1.20233
1.2023364
1.2023424
1.2023481
1.2023535
1.2023585
1.2023631
1.2023674
1.2023713
1.2023748
1.2023778
1.2023805
1.2023826
1.2023847
1.2023856
1.2023871
1.2020979
1.2018174
1.2013839
1.200884
1.2004314
1.200041
1.1997022
1.1994083
1.1991552
1.198939
1.1987556
1.198601
1.1984713
1.1983632
1.1982749
1.1982048
1.1981528
1.1981198
1.1981073
1.1981156
1.1981448
1.1981946
1.1982632
1.1983481
1.1984471
1.1985586
1.1986809
1.1988125
1.1989524
1.1990991
1.1992517
1.199409
1.19957
1.1997334
1.1998981
1.2000629
1.200227
1.2003911
1.2005342
1.2006683
1.2008318
1.2009791
1.2010989
1.2012046
1.201292
1.201357
1.2013964
1.2014097
1.2014021
1.2013846
1.2013696
1.2013649
1.2013719
1.2013883
1.2014102
1.201435
1.201461
1.2014872
1.2015133
1.2015391
1.2015646
1.2015895
1.2016141
1.2016382
1.2016617
1.2016846
1.2017069
1.2017287
1.20175
1.2017709
1.2017914
1.2018114
1.2018312
1.2018508
1.20187
1.201889
1.2019077
1.201926
1.2019439
1.2019614
1.2019784
1.201995
1.2020112
1.202027
1.2020425
1.2020578
1.2020726
1.2020873
1.2021015
1.2021154
1.202129
1.2021421
1.2021549
1.2021673
1.2021794
1.2021912
1.2022027
1.2022138
1.2022247
1.2022351
1.2022453
1.2022551
1.2022646
1.2022738
1.2022827
1.2022913
1.2022995
1.2023074
1.202315
1.2023223
1.2023291
1.2023357
1.2023419
1.2023478
1.2023534
1.2023587
1.2023636
1.2023681
1.2023723
1.2023761
1.2023795
1.2023825
1.2023852
1.2023872
1.2023892
1.2023902
1.2023916
1.2025435
1.2022903
1.2018765
1.2013861
1.2009338
1.2005375
1.2001886
1.1998815
1.199613
1.1993802
1.1991797
1.1990082
1.1988628
1.1987406
1.1986399
1.1985593
1.1984985
1.1984574
1.1984366
1.198436
1.1984554
1.1984943
1.1985511
1.1986242
1.1987118
1.1988123
1.1989242
1.199046
1.1991765
1.1993145
1.1994587
1.1996081
1.1997614
1.1999176
1.2000752
1.2002329
1.2003903
1.2005475
1.2006787
1.2008107
1.200969
1.2011042
1.2012146
1.2013102
1.2013862
1.2014388
1.2014654
1.2014673
1.201452
1.2014317
1.2014175
1.2014149
1.2014233
1.2014398
1.2014608
1.2014841
1.2015082
1.2015325
1.2015567
1.2015806
1.2016043
1.2016276
1.2016506
1.2016731
1.2016951
1.2017166
1.2017376
1.2017581
1.2017781
1.2017979
1.2018172
1.2018362
1.201855
1.2018736
1.2018919
1.20191
1.2019278
1.2019453
1.2019625
1.2019792
1.2019955
1.2020115
1.202027
1.2020422
1.2020571
1.2020718
1.2020861
1.2021002
1.202114
1.2021274
1.2021405
1.2021532
1.2021656
1.2021777
1.2021894
1.2022008
1.2022119
1.2022228
1.2022333
1.2022435
1.2022534
1.2022629
1.2022722
1.2022811
1.2022898
1.2022981
1.2023062
1.2023139
1.2023213
1.2023284
1.2023351
1.2023415
1.2023476
1.2023533
1.2023588
1.2023639
1.2023688
1.2023732
1.2023773
1.202381
1.2023844
1.2023872
1.2023899
1.2023919
1.2023939
1.2023948
1.2023962
1.2029303
1.2026849
1.2022854
1.2018131
1.2013717
1.2009792
1.2006289
1.2003166
1.2000402
1.1997972
1.1995854
1.1994022
1.199245
1.1991119
1.1990011
1.1989115
1.1988422
1.1987931
1.1987641
1.1987549
1.198765
1.1987939
1.1988404
1.198903
1.1989803
1.1990706
1.1991727
1.1992852
1.1994067
1.1995361
1.1996721
1.1998135
1.1999591
1.2001076
1.2002578
1.2004082
1.2005583
1.2007068
1.2008274
1.2009571
1.2011073
1.20123
1.2013305
1.201415
1.2014787
1.201518
1.2015317
1.2015231
1.2015019
1.2014804
1.2014679
1.2014673
1.2014766
1.2014928
1.2015126
1.2015341
1.2015563
1.2015787
1.2016009
1.2016229
1.2016448
1.2016664
1.2016877
1.2017087
1.2017292
1.2017492
1.2017688
1.2017881
1.2018068
1.2018253
1.2018436
1.2018615
1.2018792
1.2018968
1.2019141
1.2019313
1.2019484
1.201965
1.2019814
1.2019974
1.2020129
1.2020282
1.2020431
1.2020576
1.202072
1.2020861
1.2020998
1.2021134
1.2021267
1.2021397
1.2021523
1.2021646
1.2021765
1.2021882
1.2021995
1.2022106
1.2022214
1.2022319
1.2022421
1.202252
1.2022616
1.2022709
1.2022798
1.2022886
1.202297
1.2023051
1.202313
1.2023205
1.2023277
1.2023346
1.2023412
1.2023474
1.2023533
1.202359
1.2023643
1.2023693
1.202374
1.2023784
1.2023824
1.202386
1.2023893
1.2023921
1.2023947
1.2023966
1.2023986
1.2023995
1.2024009
1.2032682
1.2030124
1.2026208
1.2021725
1.2017496
1.2013675
1.2010221
1.2007106
1.2004317
1.2001839
1.1999655
1.1997745
1.1996093
1.1994681
1.1993494
1.1992523
1.199176
1.1991198
1.1990835
1.1990667
1.1990687
1.1990889
1.1991263
1.1991796
1.1992476
1.1993287
1.1994218
1.1995256
1.1996386
1.1997598
1.1998878
1.2000215
1.2001595
1.2003006
1.2004434
1.2005863
1.2007293
1.2008675
1.200978
1.2011059
1.2012462
1.2013562
1.2014459
1.2015184
1.2015689
1.2015945
1.2015955
1.2015777
1.2015525
1.2015313
1.2015208
1.201522
1.2015318
1.2015472
1.2015655
1.2015852
1.2016053
1.2016256
1.2016458
1.2016659
1.2016861
1.2017058
1.2017255
1.2017449
1.2017639
1.2017824
1.2018006
1.2018186
1.201836
1.2018533
1.2018704
1.2018872
1.2019039
1.2019205
1.2019368
1.2019531
1.2019693
1.2019851
1.2020006
1.2020159
1.2020307
1.2020453
1.2020595
1.2020734
1.2020871
1.2021006
1.2021138
1.2021269
1.2021397
1.2021521
1.2021643
1.2021761
1.2021877
1.2021989
1.2022099
1.2022206
1.202231
1.2022412
1.2022511
1.2022607
1.20227
1.202279
1.2022877
1.2022961
1.2023043
1.2023122
1.2023199
1.2023272
1.2023342
1.202341
1.2023473
1.2023534
1.2023592
1.2023647
1.2023699
1.2023748
1.2023794
1.2023837
1.2023876
1.2023911
1.2023943
1.2023971
1.2023996
1.2024015
1.2024035
1.2024044
1.2024057
1.2035608
1.2032877
1.2029029
1.2024801
1.2020788
1.2017112
1.201375
1.2010687
1.2007917
1.2005433
1.2003222
1.2001273
1.1999571
1.1998104
1.1996861
1.1995833
1.1995011
1.199439
1.1993965
1.199373
1.1993679
1.1993805
1.1994099
1.1994549
1.1995145
1.1995873
1.199672
1.1997676
1.1998726
1.1999859
1.2001063
1.2002323
1.2003629
1.2004965
1.2006317
1.2007674
1.2009036
1.2010285
1.2011297
1.2012572
1.2013853
1.2014821
1.2015603
1.2016198
1.2016563
1.2016679
1.2016571
1.201632
1.2016047
1.2015847
1.2015765
1.2015789
1.2015886
1.2016029
1.2016195
1.2016371
1.2016552
1.2016734
1.2016915
1.2017097
1.201728
1.201746
1.2017639
1.2017817
1.2017992
1.2018162
1.201833
1.2018496
1.2018657
1.2018818
1.2018978
1.2019134
1.201929
1.2019446
1.2019599
1.2019753
1.2019906
1.2020055
1.2020203
1.2020347
1.2020488
1.2020627
1.2020762
1.2020894
1.2021026
1.2021154
1.2021281
1.2021406
1.2021528
1.2021648
1.2021765
1.2021879
1.202199
1.2022099
1.2022204
1.2022308
1.2022408
1.2022507
1.2022603
1.2022695
1.2022785
1.2022873
1.2022957
1.2023039
1.2023118
1.2023195
1.2023269
1.202334
1.2023409
1.2023474
1.2023536
1.2023595
1.2023652
1.2023705
1.2023756
1.2023804
1.2023849
1.202389
1.2023929
1.2023963
1.2023995
1.2024021
1.2024046
1.2024065
1.2024084
1.2024093
1.2024106
1.2038121
1.2035227
1.2031453
1.2027475
1.2023685
1.2020173
1.201693
1.201395
1.2011233
1.2008776
1.2006572
1.2004613
1.200289
1.2001393
1.2000114
1.1999046
1.199818
1.1997512
1.1997035
1.1996743
1.1996631
1.1996691
1.1996915
1.1997293
1.1997813
1.1998464
1.1999235
1.2000114
1.2001088
1.2002146
1.2003274
1.200446
1.2005691
1.2006952
1.2008228
1.2009513
1.2010804
1.2011877
1.201284
1.2014112
1.2015239
1.2016071
1.2016728
1.2017185
1.2017404
1.2017383
1.2017169
1.2016867
1.2016589
1.2016409
1.2016347
1.2016379
1.201647
1.2016598
1.2016745
1.20169
1.2017058
1.2017219
1.201738
1.2017541
1.2017706
1.2017868
1.201803
1.2018192
1.2018351
1.2018506
1.2018659
1.2018812
1.201896
1.2019108
1.2019256
1.20194
1.2019545
1.2019691
1.2019835
1.2019979
1.2020123
1.2020263
1.2020403
1.2020539
1.2020672
1.2020804
1.2020932
1.2021058
1.2021183
1.2021305
1.2021426
1.2021546
1.2021663
1.2021778
1.202189
1.2021999
1.2022106
1.202221
1.2022311
1.2022411
1.2022508
1.2022603
1.2022696
1.2022785
1.2022872
1.2022957
1.2023038
1.2023118
1.2023195
1.2023269
1.2023341
1.202341
1.2023477
1.202354
1.20236
1.2023658
1.2023713
1.2023765
1.2023814
1.2023861
1.2023905
1.2023945
1.2023983
1.2024016
1.2024047
1.2024073
1.2024097
1.2024115
1.2024134
1.2024142
1.2024156
1.2040222
1.2037244
1.2033585
1.2029838
1.202626
1.2022917
1.2019808
1.2016933
1.2014293
1.201189
1.2009719
1.2007776
1.2006055
1.2004549
1.2003254
1.2002161
1.2001266
1.2000563
1.2000045
1.1999708
1.1999545
1.1999549
1.1999712
1.2000025
1.2000477
1.200106
1.200176
1.2002568
1.200347
1.2004455
1.2005511
1.2006624
1.200778
1.2008965
1.2010163
1.2011369
1.2012566
1.2013487
1.2014437
1.2015642
1.2016607
1.2017305
1.2017828
1.2018136
1.2018207
1.2018056
1.2017758
1.2017425
1.2017158
1.2017
1.2016954
1.2016988
1.2017068
1.2017178
1.2017305
1.2017437
1.2017573
1.2017713
1.2017852
1.2017993
1.2018139
1.2018282
1.2018427
1.2018573
1.2018716
1.2018856
1.2018994
1.2019134
1.2019267
1.2019403
1.2019539
1.2019671
1.2019806
1.2019941
1.2020074
1.2020209
1.2020344
1.2020475
1.2020606
1.2020735
1.202086
1.2020984
1.2021105
1.2021224
1.2021343
1.2021459
1.2021574
1.2021688
1.20218
1.202191
1.2022017
1.2022121
1.2022224
1.2022323
1.2022421
1.2022517
1.202261
1.2022701
1.2022791
1.2022877
1.2022961
1.2023042
1.2023121
1.2023198
1.2023272
1.2023344
1.2023414
1.2023481
1.2023545
1.2023607
1.2023666
1.2023722
1.2023775
1.2023825
1.2023873
1.2023919
1.2023961
1.2024001
1.2024037
1.202407
1.20241
1.2024125
1.2024149
1.2024166
1.2024185
1.2024193
1.2024207
1.2041928
1.2038951
1.2035479
1.203195
1.2028567
1.2025392
1.2022426
1.201967
1.2017126
1.2014796
1.2012679
1.2010773
1.2009074
1.200758
1.2006284
1.2005183
1.2004272
1.2003546
1.2002999
1.2002626
1.2002421
1.2002378
1.2002489
1.2002746
1.2003139
1.2003659
1.2004294
1.2005035
1.200587
1.2006785
1.200777
1.2008811
1.2009892
1.2011
1.2012119
1.2013245
1.2014326
1.201512
1.2016056
1.2017153
1.2017953
1.2018516
1.2018892
1.2019046
1.201897
1.2018705
1.2018345
1.2018003
1.2017756
1.201762
1.2017583
1.2017614
1.2017678
1.2017767
1.2017873
1.2017982
1.2018095
1.2018213
1.2018331
1.2018452
1.201858
1.2018703
1.2018831
1.201896
1.2019087
1.2019211
1.2019335
1.201946
1.201958
1.2019703
1.2019827
1.2019947
1.202007
1.2020196
1.2020318
1.2020443
1.2020568
1.2020691
1.2020813
1.2020934
1.2021051
1.2021168
1.2021282
1.2021393
1.2021506
1.2021616
1.2021725
1.2021833
1.2021939
1.2022044
1.2022146
1.2022246
1.2022344
1.2022439
1.2022532
1.2022624
1.2022714
1.2022801
1.2022887
1.202297
1.2023051
1.202313
1.2023206
1.202328
1.2023351
1.2023421
1.2023489
1.2023553
1.2023616
1.2023675
1.2023732
1.2023786
1.2023838
1.2023887
1.2023934
1.2023978
1.2024019
1.2024058
1.2024093
1.2024125
1.2024154
1.2024179
1.2024202
1.2024219
1.2024237
1.2024245
1.2024258
1.2043291
1.2040395
1.2037129
1.2033819
1.2030633
1.2027632
1.2024819
1.2022193
1.2019759
1.2017518
1.2015471
1.2013619
1.201196
1.2010492
1.2009212
1.2008117
1.2007202
1.2006464
1.2005898
1.2005499
1.2005262
1.2005181
1.2005248
1.2005456
1.2005797
1.200626
1.2006837
1.2007515
1.2008285
1.2009134
1.201005
1.2011018
1.2012025
1.2013055
1.2014095
1.2015142
1.2016075
1.2016754
1.2017686
1.2018642
1.2019273
1.2019692
1.2019912
1.2019909
1.2019694
1.2019337
1.2018941
1.2018608
1.2018385
1.2018266
1.2018233
1.2018254
1.20183
1.2018366
1.201845
1.2018535
1.2018625
1.2018721
1.2018816
1.2018917
1.2019026
1.2019131
1.201924
1.2019353
1.2019464
1.2019572
1.201968
1.2019792
1.2019898
1.2020008
1.202012
1.2020227
1.2020339
1.2020454
1.2020566
1.2020681
1.2020797
1.202091
1.2021024
1.2021137
1.2021246
1.2021354
1.2021461
1.2021566
1.2021672
1.2021775
1.2021878
1.2021981
1.2022081
1.2022181
1.2022278
1.2022372
1.2022466
1.2022557
1.2022646
1.2022734
1.2022819
1.2022903
1.2022986
1.2023065
1.2023143
1.2023219
1.2023292
1.2023363
1.2023432
1.2023499
1.2023565
1.2023627
1.2023687
1.2023745
1.20238
1.2023852
1.2023902
1.202395
1.2023995
1.2024038
1.2024078
1.2024115
1.202415
1.2024181
1.2024209
1.2024233
1.2024256
1.2024272
1.202429
1.2024298
1.2024311
1.204438
1.2041617
1.2038565
1.2035477
1.2032493
1.2029672
1.2027018
1.2024532
1.2022217
1.2020078
1.2018116
1.2016332
1.2014726
1.2013298
1.2012046
1.2010968
1.2010062
1.2009323
1.2008748
1.2008332
1.2008071
1.200796
1.2007991
1.2008157
1.2008452
1.2008864
1.2009386
1.2010007
1.2010715
1.20115
1.2012347
1.2013244
1.2014175
1.2015125
1.2016086
1.2017053
1.2017785
1.20184
1.2019326
1.2020099
1.2020558
1.2020822
1.202088
1.2020721
1.2020387
1.2019964
1.2019557
1.2019244
1.2019044
1.2018935
1.2018901
1.2018908
1.2018931
1.2018972
1.2019034
1.2019096
1.2019162
1.2019237
1.2019309
1.2019388
1.201948
1.2019564
1.2019656
1.2019752
1.2019847
1.2019938
1.2020032
1.202013
1.2020221
1.2020318
1.2020417
1.2020512
1.2020613
1.2020717
1.2020818
1.2020923
1.202103
1.2021133
1.2021238
1.2021343
1.2021443
1.2021544
1.2021644
1.2021741
1.202184
1.2021937
1.2022034
1.2022131
1.2022226
1.202232
1.2022412
1.2022502
1.202259
1.2022677
1.2022761
1.2022845
1.2022927
1.2023007
1.2023086
1.2023162
1.2023237
1.2023309
1.2023379
1.2023448
1.2023514
1.2023579
1.2023642
1.2023702
1.202376
1.2023816
1.2023869
1.202392
1.2023968
1.2024014
1.2024058
1.2024099
1.2024138
1.2024174
1.2024208
1.2024238
1.2024265
1.2024289
1.202431
1.2024327
1.2024344
1.2024351
1.2024364
1.2045268
1.2042664
1.2039828
1.2036963
1.2034183
1.2031545
1.2029055
1.2026715
1.2024528
1.20225
1.2020632
1.2018927
1.2017386
1.2016009
1.2014797
1.2013747
1.2012858
1.2012128
1.2011552
1.2011128
1.2010851
1.2010717
1.2010719
1.201085
1.2011104
1.2011471
1.2011943
1.2012509
1.2013158
1.2013879
1.2014659
1.2015484
1.2016337
1.2017203
1.2018076
1.2018933
1.2019498
1.2020093
1.2020929
1.2021503
1.2021795
1.2021896
1.2021788
1.2021486
1.2021058
1.20206
1.2020201
1.2019914
1.2019732
1.2019624
1.2019583
1.2019572
1.2019571
1.2019585
1.2019627
1.2019664
1.2019706
1.2019759
1.2019808
1.2019866
1.201994
1.2020004
1.2020078
1.2020158
1.2020236
1.202031
1.2020388
1.2020472
1.2020549
1.2020633
1.202072
1.2020802
1.2020891
1.2020985
1.2021074
1.202117
1.2021267
1.202136
1.2021457
1.2021552
1.2021645
1.2021738
1.202183
1.202192
1.2022012
1.2022102
1.2022193
1.2022284
1.2022373
1.2022462
1.2022549
1.2022633
1.2022717
1.2022799
1.2022879
1.2022959
1.2023036
1.2023113
1.2023188
1.2023261
1.2023332
1.2023402
1.2023469
1.2023534
1.2023598
1.202366
1.2023721
1.2023779
1.2023835
1.2023888
1.2023939
1.2023988
1.2024035
1.2024079
1.2024122
1.2024162
1.2024199
1.2024234
1.2024267
1.2024296
1.2024322
1.2024345
1.2024366
1.2024382
1.2024399
1.2024406
1.2024419
1.2046018
1.2043583
1.2040961
1.2038313
1.2035736
1.2033283
1.203096
1.202877
1.2026718
1.2024806
1.2023041
1.2021423
1.2019955
1.2018639
1.2017475
1.2016462
1.2015599
1.2014885
1.2014317
1.2013892
1.2013607
1.2013456
1.2013434
1.2013536
1.2013754
1.201408
1.2014504
1.2015019
1.2015611
1.201627
1.2016983
1.2017734
1.2018507
1.2019286
1.2020064
1.2020788
1.2021216
1.2021782
1.2022477
1.2022848
1.2022974
1.2022904
1.2022635
1.2022212
1.2021723
1.2021258
1.2020876
1.2020615
1.202044
1.2020331
1.2020279
1.2020245
1.2020221
1.2020203
1.2020226
1.2020241
1.2020257
1.2020288
1.2020312
1.2020348
1.2020406
1.2020449
1.2020505
1.2020569
1.202063
1.2020687
1.202075
1.202082
1.2020881
1.2020952
1.2021027
1.2021096
1.2021174
1.2021256
1.2021334
1.202142
1.2021507
1.2021591
1.2021678
1.2021765
1.202185
1.2021935
1.2022019
1.2022102
1.2022187
1.2022271
1.2022355
1.202244
1.2022523
1.2022606
1.2022688
1.2022767
1.2022846
1.2022923
1.2022998
1.2023074
1.2023148
1.202322
1.2023292
1.2023361
1.2023429
1.2023495
1.2023559
1.2023622
1.2023683
1.2023743
1.2023801
1.2023856
1.202391
1.2023962
1.2024011
1.2024058
1.2024103
1.2024146
1.2024187
1.2024225
1.2024262
1.2024295
1.2024327
1.2024355
1.2024381
1.2024403
1.2024423
1.2024438
1.2024454
1.2024462
1.2024474
1.2046672
1.2044414
1.2041999
1.2039564
1.2037188
1.2034918
1.2032763
1.2030726
1.202881
1.2027021
1.2025362
1.2023838
1.202245
1.2021201
1.2020092
1.2019123
1.2018293
1.2017603
1.2017049
1.2016629
1.2016341
1.2016179
1.2016139
1.2016216
1.2016402
1.201669
1.2017071
1.2017535
1.2018072
1.2018669
1.2019313
1.2019988
1.2020678
1.202137
1.202205
1.2022603
1.2022912
1.2023451
1.2023959
1.2024128
1.202408
1.2023839
1.2023425
1.2022914
1.2022399
1.2021945
1.2021581
1.2021339
1.2021164
1.2021064
1.2020985
1.2020926
1.2020878
1.202083
1.2020831
1.2020823
1.2020814
1.2020823
1.202082
1.2020837
1.2020879
1.2020899
1.2020937
1.2020986
1.202103
1.2021069
1.2021116
1.2021173
1.2021219
1.2021276
1.2021339
1.2021395
1.2021461
1.2021532
1.2021599
1.2021674
1.2021752
1.2021826
1.2021903
1.2021982
1.2022058
1.2022135
1.2022211
1.2022287
1.2022365
1.2022441
1.2022519
1.2022598
1.2022675
1.2022753
1.2022829
1.2022903
1.2022977
1.202305
1.202312
1.2023192
1.2023261
1.202333
1.2023398
1.2023463
1.2023528
1.2023591
1.2023652
1.2023712
1.202377
1.2023827
1.2023882
1.2023936
1.2023987
1.2024037
1.2024084
1.2024129
1.2024172
1.2024213
1.2024253
1.202429
1.2024325
1.2024358
1.2024388
1.2024415
1.202444
1.2024461
1.2024481
1.2024496
1.2024511
1.2024519
1.2024531
1.2047269
1.204519
1.2042976
1.2040749
1.2038569
1.2036481
1.2034494
1.2032609
1.2030831
1.2029166
1.2027617
1.202619
1.2024886
1.2023709
1.202266
1.202174
1.202095
1.2020288
1.2019754
1.2019344
1.2019058
1.201889
1.2018836
1.2018892
1.2019049
1.2019302
1.2019641
1.2020056
1.2020537
1.2021071
1.2021645
1.2022241
1.2022845
1.2023445
1.202402
1.202434
1.2024593
1.2025089
1.2025359
1.2025327
1.2025104
1.2024703
1.2024172
1.2023611
1.2023097
1.2022655
1.2022309
1.2022083
1.202193
1.2021813
1.2021697
1.2021614
1.2021537
1.2021476
1.2021438
1.2021403
1.2021375
1.2021361
1.2021335
1.2021336
1.2021356
1.2021353
1.2021375
1.2021409
1.2021436
1.2021456
1.2021487
1.202153
1.2021561
1.2021605
1.2021656
1.2021697
1.2021752
1.2021813
1.2021867
1.2021932
1.2022
1.2022064
1.2022132
1.2022202
1.202227
1.2022338
1.2022407
1.2022474
1.2022546
1.2022615
1.2022687
1.2022759
1.202283
1.2022902
1.2022973
1.2023042
1.2023111
1.2023178
1.2023244
1.2023312
1.2023377
1.2023441
1.2023506
1.2023567
1.2023629
1.2023689
1.2023746
1.2023803
1.2023858
1.2023913
1.2023966
1.2024016
1.2024066
1.2024113
1.2024158
1.2024201
1.2024243
1.2024282
1.202432
1.2024356
1.202439
1.2024421
1.202445
1.2024476
1.20245
1.2024521
1.202454
1.2024554
1.2024569
1.2024576
1.2024588
1.2047829
1.2045931
1.2043919
1.2041897
1.2039912
1.2038003
1.203618
1.2034445
1.2032805
1.2031264
1.2029826
1.2028497
1.202728
1.2026178
1.2025193
1.2024326
1.2023578
1.2022949
1.2022438
1.2022043
1.2021762
1.2021591
1.2021527
1.2021564
1.2021695
1.2021914
1.2022211
1.2022578
1.2023002
1.2023471
1.2023971
1.2024484
1.2024995
1.202549
1.2025917
1.2026053
1.2026278
1.2026625
1.2026656
1.2026435
1.2026043
1.2025507
1.2024894
1.2024316
1.2023816
1.2023377
1.2023093
1.2022891
1.2022705
1.202255
1.2022415
1.2022304
1.2022204
1.2022119
1.202205
1.202199
1.2021939
1.2021899
1.2021861
1.2021845
1.2021833
1.2021812
1.202182
1.2021836
1.2021846
1.2021847
1.2021863
1.2021893
1.2021907
1.2021939
1.2021977
1.2022005
1.2022047
1.2022097
1.202214
1.2022195
1.2022252
1.2022306
1.2022365
1.2022425
1.2022485
1.2022545
1.2022605
1.2022665
1.202273
1.2022792
1.2022857
1.2022924
1.2022988
1.2023054
1.202312
1.2023183
1.2023247
1.2023309
1.2023371
1.2023433
1.2023494
1.2023555
1.2023615
1.2023673
1.2023731
1.2023788
1.2023842
1.2023896
1.2023949
1.2024
1.202405
1.2024099
1.2024146
1.202419
1.2024234
1.2024275
1.2024315
1.2024352
1.2024389
1.2024423
1.2024455
1.2024486
1.2024514
1.2024539
1.2024562
1.2024582
1.20246
1.2024614
1.2024628
1.2024635
1.2024647
1.204842
1.2046686
1.2044866
1.2043045
1.2041249
1.2039515
1.2037851
1.2036263
1.2034757
1.2033337
1.2032009
1.2030778
1.2029648
1.2028621
1.2027701
1.2026889
1.2026186
1.2025593
1.2025108
1.202473
1.2024457
1.2024286
1.2024213
1.2024233
1.2024339
1.2024524
1.2024779
1.2025096
1.2025461
1.2025862
1.2026283
1.2026708
1.2027122
1.2027499
1.2027732
1.2027725
1.2027908
1.2028044
1.2027844
1.2027444
1.2026904
1.2026268
1.2025606
1.2025037
1.2024554
1.2024183
1.2023928
1.2023684
1.2023475
1.2023296
1.2023138
1.2022999
1.2022874
1.2022763
1.2022667
1.2022583
1.2022509
1.2022446
1.202239
1.2022349
1.2022316
1.2022286
1.2022271
1.2022264
1.2022259
1.2022244
1.2022246
1.2022259
1.2022257
1.2022277
1.2022303
1.2022316
1.2022347
1.2022386
1.2022416
1.2022461
1.2022509
1.2022552
1.2022601
1.2022652
1.2022703
1.2022756
1.2022807
1.202286
1.2022917
1.2022972
1.202303
1.202309
1.2023149
1.2023209
1.2023269
1.2023326
1.2023385
1.2023443
1.2023499
1.2023557
1.2023614
1.202367
1.2023727
1.2023781
1.2023836
1.2023889
1.202394
1.2023991
1.202404
1.2024089
1.2024137
1.2024182
1.2024227
1.202427
1.2024311
1.202435
1.2024388
1.2024424
1.2024458
1.2024491
1.2024522
1.2024551
1.2024578
1.2024602
1.2024624
1.2024643
1.2024661
1.2024674
1.2024689
1.2024695
1.2024707
1.2049084
1.204748
1.2045846
1.2044223
1.2042613
1.2041046
1.2039536
1.2038088
1.2036709
1.2035406
1.2034184
1.2033049
1.2032003
1.2031052
1.2030197
1.2029441
1.2028784
1.2028227
1.2027769
1.202741
1.2027146
1.2026976
1.2026895
1.2026898
1.2026978
1.2027129
1.202734
1.2027603
1.2027905
1.2028232
1.2028569
1.2028899
1.2029213
1.2029457
1.2029418
1.2029346
1.2029461
1.2029329
1.2028915
1.2028355
1.2027704
1.2026999
1.2026321
1.2025788
1.202538
1.2025042
1.2024742
1.202448
1.2024252
1.2024048
1.2023864
1.2023698
1.2023547
1.2023411
1.2023289
1.202318
1.2023083
1.2022998
1.2022923
1.202286
1.2022806
1.202276
1.2022725
1.2022697
1.2022673
1.2022648
1.2022637
1.2022627
1.2022612
1.2022621
1.2022632
1.202263
1.2022651
1.2022679
1.2022696
1.2022731
1.2022769
1.2022801
1.2022841
1.2022883
1.2022926
1.2022969
1.2023012
1.2023057
1.2023107
1.2023155
1.2023206
1.202326
1.2023312
1.2023366
1.202342
1.2023473
1.2023526
1.2023578
1.202363
1.2023684
1.2023736
1.2023788
1.2023841
1.2023891
1.2023942
1.2023991
1.202404
1.2024087
1.2024133
1.202418
1.2024224
1.2024268
1.202431
1.202435
1.2024389
1.2024426
1.2024462
1.2024497
1.202453
1.2024561
1.2024591
1.2024618
1.2024644
1.2024667
1.2024688
1.2024706
1.2024723
1.2024736
1.202475
1.2024756
1.2024768
1.2049807
1.2048415
1.204692
1.204548
1.2044045
1.2042634
1.2041264
1.2039945
1.2038685
1.2037491
1.2036369
1.2035324
1.2034361
1.2033482
1.2032691
1.2031989
1.2031378
1.2030857
1.2030427
1.2030086
1.2029832
1.2029662
1.2029572
1.2029557
1.202961
1.2029723
1.2029887
1.2030091
1.2030324
1.2030569
1.2030812
1.203104
1.2031239
1.2031287
1.2031029
1.2030928
1.203086
1.2030467
1.2029868
1.2029181
1.2028454
1.2027702
1.202711
1.2026649
1.2026236
1.2025876
1.2025562
1.2025284
1.2025033
1.2024803
1.2024593
1.2024399
1.2024222
1.202406
1.2023913
1.2023781
1.2023661
1.2023554
1.2023458
1.2023375
1.2023301
1.2023237
1.2023183
1.2023136
1.2023094
1.2023055
1.2023025
1.2023
1.2022977
1.2022968
1.2022962
1.2022951
1.202296
1.2022975
1.202298
1.2023005
1.2023033
1.2023054
1.2023084
1.2023117
1.2023151
1.2023187
1.2023221
1.2023257
1.20233
1.202334
1.2023385
1.2023432
1.2023478
1.2023526
1.2023574
1.2023621
1.2023669
1.2023716
1.2023763
1.2023812
1.2023859
1.2023908
1.2023956
1.2024003
1.202405
1.2024096
1.2024141
1.2024185
1.2024228
1.2024272
1.2024314
1.2024355
1.2024394
1.2024432
1.2024469
1.2024504
1.2024538
1.2024571
1.2024602
1.2024632
1.202466
1.2024686
1.2024711
1.2024733
1.2024753
1.2024771
1.2024787
1.2024799
1.2024812
1.2024818
1.2024829
1.2050588
1.2049682
1.204833
1.2046963
1.2045624
1.2044326
1.2043069
1.204186
1.2040704
1.2039608
1.2038578
1.2037618
1.2036731
1.2035922
1.2035191
1.2034542
1.2033974
1.2033489
1.2033085
1.2032761
1.2032515
1.2032344
1.2032243
1.2032207
1.2032228
1.2032299
1.2032409
1.2032548
1.2032702
1.2032855
1.2032992
1.2033106
1.2033179
1.2032962
1.2032558
1.2032408
1.2032088
1.2031463
1.203071
1.202994
1.2029177
1.2028506
1.2027988
1.2027506
1.2027087
1.202672
1.2026391
1.2026092
1.2025815
1.2025559
1.2025321
1.2025102
1.2024899
1.2024712
1.202454
1.2024384
1.2024242
1.2024113
1.2023997
1.2023893
1.2023801
1.2023717
1.2023644
1.2023579
1.202352
1.2023466
1.202342
1.2023379
1.2023343
1.2023317
1.2023296
1.2023278
1.2023273
1.2023272
1.2023269
1.2023284
1.20233
1.202331
1.2023331
1.2023354
1.202338
1.2023407
1.2023432
1.2023461
1.2023496
1.2023529
1.2023567
1.2023608
1.2023646
1.2023688
1.2023731
1.2023772
1.2023815
1.2023856
1.2023898
1.2023943
1.2023985
1.2024029
1.2024074
1.2024117
1.202416
1.2024202
1.2024244
1.2024285
1.2024325
1.2024366
1.2024405
1.2024443
1.202448
1.2024516
1.202455
1.2024583
1.2024615
1.2024646
1.2024676
1.2024704
1.2024731
1.2024756
1.2024779
1.20248
1.2024819
1.2024836
1.2024851
1.2024863
1.2024876
1.2024881
1.2024892
1.2051575
1.2051036
1.2050004
1.2048627
1.204733
1.2046115
1.2044952
1.2043836
1.2042773
1.2041766
1.204082
1.2039938
1.2039123
1.2038378
1.2037705
1.2037105
1.2036578
1.2036125
1.2035745
1.2035435
1.2035194
1.2035018
1.2034902
1.203484
1.2034824
1.2034846
1.2034894
1.2034957
1.203502
1.2035066
1.2035078
1.203505
1.2034952
1.2034529
1.2034034
1.2033705
1.2033114
1.2032318
1.2031466
1.2030684
1.2030001
1.2029391
1.202885
1.2028373
1.2027952
1.2027572
1.2027223
1.2026899
1.2026596
1.2026314
1.202605
1.2025804
1.2025575
1.2025364
1.2025169
1.202499
1.2024826
1.2024676
1.2024539
1.2024415
1.2024303
1.2024201
1.202411
1.2024026
1.202395
1.202388
1.2023818
1.2023762
1.2023712
1.2023671
1.2023637
1.2023607
1.2023588
1.2023574
1.2023564
1.2023566
1.2023568
1.2023571
1.2023581
1.2023594
1.2023612
1.2023631
1.2023647
1.2023667
1.2023695
1.2023721
1.2023752
1.2023786
1.2023818
1.2023853
1.202389
1.2023925
1.2023963
1.2023999
1.2024035
1.2024075
1.2024114
1.2024153
1.2024194
1.2024232
1.2024272
1.2024311
1.2024349
1.2024386
1.2024424
1.2024461
1.2024498
1.2024533
1.2024568
1.2024601
1.2024633
1.2024664
1.2024694
1.2024723
1.2024751
1.2024778
1.2024803
1.2024826
1.2024849
1.2024869
1.2024887
1.2024902
1.2024917
1.2024928
1.202494
1.2024946
1.2024957
1.2052794
1.2052479
1.2051478
1.2050221
1.2049059
1.2047954
1.204689
1.2045867
1.2044891
1.2043968
1.20431
1.204229
1.2041542
1.2040857
1.2040236
1.203968
1.2039191
1.2038766
1.2038405
1.2038106
1.2037865
1.2037679
1.2037542
1.2037447
1.2037386