/*--------------------------------*- C++ -*----------------------------------*\
| =========                 |                                                 |
| \\      /  F ield         | OpenFOAM: The Open Source CFD Toolbox           |
|  \\    /   O peration     | Version:  2406                                  |
|   \\  /    A nd           | Website:  www.openfoam.com                      |
|    \\/     M anipulation  |                                                 |
\*---------------------------------------------------------------------------*/
FoamFile
{
    version     2.0;
    format      ascii;
    arch        "LSB;label=32;scalar=64";
    class       volScalarField;
    location    "0.02";
    object      rho;
}
// * * * * * * * * * * * * * * * * * * * * * * * * * * * * * * * * * * * * * //

dimensions      [1 -3 0 0 0 0 0];

internalField   nonuniform List<scalar> 
2065
(
1.1904363
1.1905828
1.190696
1.190785
1.1908639
1.190939
1.191026
1.1911236
1.19128
1.1914999
1.1918152
1.1922132
1.1926863
1.1932134
1.193764
1.1942909
1.1947829
1.1952126
1.1955711
1.195849
1.1960747
1.1962649
1.1964147
1.196557
1.1966907
1.1968176
1.1969316
1.197036
1.1971269
1.1972058
1.1972749
1.1973296
1.1973721
1.1974033
1.1974307
1.1974683
1.1975163
1.1975708
1.1976251
1.1976885
1.1977651
1.1978683
1.1979876
1.1981427
1.1983101
1.1985275
1.1987105
1.1990291
1.1993046
1.1996314
1.1999411
1.2003579
1.2006917
1.2010726
1.2012657
1.2015333
1.201537
1.2019559
1.1896715
1.1898397
1.1899743
1.1900841
1.1901869
1.1902949
1.1904199
1.1905775
1.1907871
1.1910725
1.1914497
1.1919183
1.1924639
1.1930466
1.1936418
1.1941961
1.1947103
1.1951524
1.195519
1.1957995
1.1960329
1.1962309
1.1963883
1.1965398
1.1966823
1.1968161
1.1969396
1.19705
1.1971475
1.1972321
1.1973042
1.1973658
1.197412
1.1974488
1.1974831
1.1975273
1.1975788
1.1976353
1.197692
1.1977575
1.1978338
1.1979343
1.1980497
1.1982
1.1983625
1.1985715
1.1987518
1.1990617
1.1993338
1.199658
1.1999663
1.2003812
1.2007134
1.2010914
1.2012836
1.2015464
1.2015465
1.2019532
1.1887221
1.188883
1.1890378
1.1891887
1.1893363
1.1894835
1.189639
1.189817
1.1900377
1.1903161
1.1906823
1.1911257
1.1916609
1.1922677
1.1929019
1.193535
1.1941136
1.1946459
1.1950966
1.1954698
1.1957552
1.1959966
1.1961989
1.1963718
1.1965307
1.196681
1.1968214
1.1969536
1.1970693
1.1971723
1.1972615
1.1973378
1.1974036
1.1974544
1.1974973
1.1975382
1.1975879
1.1976414
1.1976991
1.1977572
1.1978238
1.197899
1.1979959
1.1981072
1.1982526
1.1984103
1.1986114
1.1987906
1.1990914
1.1993606
1.1996827
1.1999902
1.2004032
1.2007343
1.2011093
1.2013008
1.2015589
1.2015555
1.2019506
1.188158
1.1882462
1.1883496
1.1884734
1.1886135
1.188764
1.1889282
1.1891135
1.1893325
1.1896027
1.1899383
1.1903607
1.1908636
1.1914565
1.1921047
1.1927759
1.1934303
1.1940374
1.1945783
1.1950348
1.1954091
1.1957143
1.1959627
1.1961681
1.196358
1.196525
1.1966834
1.1968314
1.1969697
1.1970909
1.1971989
1.1972922
1.1973725
1.1974422
1.197498
1.1975471
1.1975941
1.1976482
1.1977025
1.1977605
1.1978194
1.1978864
1.1979597
1.1980529
1.1981599
1.1983005
1.1984537
1.1986471
1.1988271
1.1991181
1.199385
1.1997055
1.2000124
1.2004239
1.200754
1.2011263
1.2013172
1.2015709
1.2015641
1.201948
1.1879572
1.1880057
1.1880734
1.1881639
1.1882774
1.1884106
1.1885695
1.1887638
1.1890048
1.1893056
1.1896777
1.1901364
1.1906802
1.1913066
1.1919817
1.1926759
1.1933402
1.1939677
1.1945106
1.1949711
1.1953466
1.1956725
1.1959288
1.1961429
1.1963438
1.1965208
1.1966882
1.1968437
1.1969875
1.1971136
1.1972257
1.1973228
1.1974068
1.1974804
1.1975415
1.1975967
1.197649
1.1977065
1.1977607
1.1978184
1.1978774
1.1979442
1.1980154
1.1981049
1.1982076
1.1983436
1.1984926
1.1986788
1.1988611
1.1991421
1.1994071
1.1997263
1.200033
1.2004433
1.2007725
1.2011424
1.2013328
1.2015824
1.2015723
1.2019452
1.1878321
1.1878527
1.1878878
1.1879393
1.1880117
1.1881061
1.1882238
1.1883732
1.1885647
1.1888125
1.1891281
1.1895194
1.1899973
1.1905631
1.1912048
1.1918904
1.192592
1.1932631
1.1938933
1.1944372
1.1949028
1.1952883
1.195623
1.1958895
1.1961171
1.1963286
1.1965168
1.1966932
1.1968559
1.1970049
1.1971352
1.197251
1.1973514
1.197439
1.1975167
1.197583
1.197644
1.197701
1.1977609
1.1978146
1.1978715
1.1979303
1.1979966
1.1980657
1.1981516
1.1982504
1.1983821
1.1985274
1.1987069
1.1988923
1.1991634
1.1994271
1.1997454
1.2000521
1.2004614
1.2007901
1.2011576
1.2013477
1.2015933
1.2015802
1.2019423
1.1877636
1.1877788
1.1878029
1.1878373
1.1878837
1.1879466
1.1880295
1.1881399
1.1882842
1.1884709
1.1887155
1.1890329
1.189427
1.1899105
1.1904842
1.1911294
1.1918133
1.1925116
1.193182
1.1938079
1.1943524
1.1948247
1.1952213
1.1955638
1.1958432
1.1960859
1.1963095
1.1965094
1.1966953
1.196865
1.197019
1.1971532
1.1972723
1.1973758
1.197467
1.197549
1.1976207
1.1976872
1.1977485
1.1978101
1.1978632
1.1979191
1.1979777
1.1980434
1.1981106
1.1981932
1.1982885
1.1984163
1.1985582
1.1987316
1.1989206
1.1991823
1.199445
1.1997628
1.2000698
1.2004782
1.2008066
1.2011719
1.2013619
1.2016037
1.2015878
1.2019392
1.1877463
1.1877629
1.1877866
1.1878196
1.1878637
1.1879221
1.1879996
1.1881041
1.1882398
1.1884231
1.188666
1.1889754
1.1893658
1.1898489
1.1904204
1.1910569
1.1917326
1.1924219
1.1930853
1.1937056
1.1942508
1.1947307
1.1951382
1.1954913
1.1957859
1.1960451
1.1962824
1.196495
1.1966907
1.1968677
1.1970268
1.1971648
1.1972873
1.197394
1.1974891
1.1975757
1.1976529
1.1977249
1.1977902
1.1978533
1.1979061
1.197961
1.1980193
1.1980846
1.1981502
1.19823
1.1983221
1.1984464
1.1985852
1.1987532
1.1989457
1.1991989
1.1994611
1.1997787
1.2000862
1.2004939
1.2008221
1.2011855
1.2013755
1.2016137
1.2015952
1.2019361
1.1877449
1.1877594
1.1877812
1.1878125
1.1878547
1.1879102
1.1879828
1.1880804
1.18821
1.1883874
1.1886211
1.1889218
1.1893114
1.1897943
1.1903543
1.1909719
1.1916406
1.1923152
1.1929673
1.1935815
1.1941276
1.1946159
1.1950353
1.1954018
1.1957137
1.1959908
1.1962434
1.19647
1.1966762
1.196861
1.1970258
1.197168
1.1972941
1.1974046
1.1975041
1.1975959
1.1976788
1.1977563
1.1978255
1.1978902
1.1979428
1.1979971
1.1980553
1.1981204
1.1981847
1.1982622
1.1983516
1.1984728
1.1986089
1.1987724
1.1989677
1.1992134
1.1994754
1.199793
1.2001012
1.2005085
1.2008368
1.2011983
1.2013886
1.2016232
1.2016025
1.2019329
1.1877445
1.1877482
1.1877589
1.1877779
1.1878061
1.1878444
1.1878956
1.1879639
1.1880544
1.1881761
1.1883429
1.1885733
1.1888674
1.1892475
1.1897162
1.1902638
1.1908765
1.1915339
1.1921876
1.1928267
1.1934343
1.1939805
1.1944784
1.1949111
1.1952931
1.1956241
1.1959208
1.1961903
1.1964318
1.1966495
1.1968431
1.1970143
1.1971613
1.1972921
1.1974071
1.1975118
1.1976091
1.1976981
1.1977811
1.1978544
1.1979209
1.1979738
1.1980279
1.1980862
1.1981513
1.1982148
1.1982903
1.1983774
1.1984958
1.1986295
1.1987893
1.1989867
1.199226
1.1994881
1.199806
1.2001151
1.200522
1.2008505
1.2012104
1.201401
1.2016324
1.2016096
1.2019295
1.1877492
1.1877498
1.1877566
1.1877712
1.187794
1.1878264
1.1878709
1.1879324
1.188017
1.1881312
1.1882839
1.1885056
1.1887951
1.1891632
1.1896205
1.1901561
1.1907547
1.1914001
1.1920409
1.1926627
1.1932667
1.1938115
1.1943201
1.1947674
1.1951666
1.1955182
1.1958355
1.1961228
1.1963803
1.1966106
1.1968139
1.1969924
1.1971455
1.1972817
1.1974022
1.1975127
1.197616
1.1977112
1.1977998
1.1978772
1.1979459
1.1979996
1.1980538
1.1981125
1.1981777
1.1982407
1.1983147
1.1983998
1.1985158
1.1986474
1.1988043
1.199003
1.1992369
1.1994992
1.1998176
1.2001278
1.2005344
1.2008634
1.2012218
1.2014129
1.2016411
1.2016166
1.2019261
1.1877419
1.1877373
1.1877403
1.1877501
1.1877672
1.1877928
1.1878299
1.1878836
1.1879613
1.1880694
1.1882142
1.1884182
1.1886949
1.1890529
1.1895012
1.190025
1.1906106
1.1912456
1.1918708
1.1924812
1.1930828
1.1936291
1.1941481
1.1946109
1.1950283
1.1954006
1.1957388
1.1960442
1.1963181
1.1965613
1.196775
1.1969619
1.1971221
1.1972645
1.1973911
1.1975079
1.1976175
1.1977189
1.1978131
1.1978948
1.1979659
1.1980208
1.1980755
1.1981348
1.1982003
1.1982631
1.1983359
1.1984193
1.1985331
1.1986628
1.1988176
1.1990169
1.1992463
1.199509
1.199828
1.2001393
1.2005459
1.2008755
1.2012325
1.2014242
1.2016495
1.2016236
1.2019225
1.1877243
1.187714
1.1877112
1.1877153
1.1877259
1.1877441
1.1877729
1.1878174
1.1878848
1.1879807
1.1881159
1.1883125
1.1885808
1.1889307
1.1893646
1.1898777
1.1904535
1.1910722
1.1916875
1.192294
1.192894
1.1934452
1.1939741
1.194452
1.1948874
1.1952793
1.1956371
1.1959599
1.1962494
1.1965055
1.1967299
1.1969256
1.1970933
1.1972425
1.1973756
1.1974989
1.1976148
1.1977223
1.197822
1.197908
1.1979817
1.1980383
1.1980938
1.1981536
1.1982196
1.1982824
1.1983543
1.1984362
1.1985481
1.198676
1.1988294
1.1990284
1.1992543
1.1995175
1.1998373
1.2001498
1.2005565
1.2008868
1.2012425
1.2014351
1.2016576
1.2016305
1.2019189
1.1876963
1.1876831
1.1876754
1.1876733
1.1876769
1.1876869
1.1877064
1.1877401
1.1877939
1.1878715
1.1879988
1.1881941
1.1884583
1.1888008
1.1892191
1.1897227
1.190293
1.1908989
1.1915058
1.1921153
1.192714
1.1932738
1.1938104
1.1943018
1.1947535
1.1951627
1.1955377
1.1958758
1.1961797
1.1964477
1.1966822
1.1968867
1.1970619
1.1972181
1.1973577
1.1974873
1.1976094
1.1977227
1.1978275
1.1979178
1.1979943
1.1980527
1.1981091
1.1981696
1.1982362
1.1982991
1.1983703
1.198451
1.1985611
1.1986875
1.1988398
1.1990381
1.1992612
1.1995248
1.1998455
1.2001593
1.2005662
1.2008973
1.201252
1.2014456
1.2016654
1.2016375
1.2019152
1.1876586
1.1876453
1.1876338
1.1876259
1.1876224
1.1876244
1.1876347
1.187658
1.1876995
1.1877709
1.1878933
1.1880729
1.1883271
1.188664
1.1890757
1.1895744
1.1901374
1.1907338
1.191344
1.1919558
1.1925573
1.1931243
1.1936672
1.1941697
1.1946349
1.1950581
1.195447
1.1957977
1.1961137
1.196392
1.1966356
1.1968483
1.1970305
1.1971933
1.1973391
1.1974746
1.1976024
1.197721
1.1978307
1.1979251
1.1980044
1.1980649
1.1981222
1.1981834
1.1982505
1.1983136
1.1983844
1.198464
1.1985724
1.1986974
1.1988492
1.1990461
1.199267
1.1995311
1.1998528
1.2001679
1.200575
1.2009072
1.2012608
1.2014556
1.2016728
1.2016445
1.2019115
1.1876121
1.1875956
1.1875809
1.1875697
1.1875632
1.1875636
1.187576
1.1876104
1.1876758
1.1877852
1.1879573
1.1882079
1.188543
1.1889505
1.1894354
1.1899961
1.1905966
1.1912092
1.1918262
1.192431
1.1930039
1.1935519
1.1940624
1.1945374
1.1949707
1.1953699
1.1957298
1.1960553
1.1963418
1.196593
1.1968129
1.1970014
1.1971701
1.1973213
1.1974621
1.1975949
1.1977184
1.1978325
1.1979306
1.1980128
1.1980753
1.1981337
1.1981954
1.1982631
1.1983265
1.1983969
1.1984755
1.1985823
1.198706
1.1988576
1.1990527
1.1992718
1.1995365
1.1998591
1.2001757
1.2005831
1.2009163
1.2012691
1.2014652
1.20168
1.2016516
1.2019077
1.1875906
1.1875684
1.1875462
1.1875264
1.1875105
1.1875013
1.1875044
1.1875338
1.187595
1.1876999
1.1878624
1.1880991
1.1884313
1.188848
1.1893338
1.1898891
1.1904925
1.1911104
1.1917317
1.1923408
1.192918
1.1934693
1.1939843
1.1944648
1.194904
1.1953096
1.195675
1.196007
1.1962996
1.1965566
1.1967823
1.196976
1.1971496
1.1973056
1.1974509
1.197588
1.1977156
1.1978335
1.1979351
1.19802
1.1980846
1.198144
1.1982062
1.1982743
1.198338
1.198408
1.1984857
1.1985911
1.1987135
1.1988653
1.1990582
1.199276
1.199541
1.1998646
1.2001826
1.2005904
1.2009248
1.2012769
1.2014744
1.2016868
1.2016587
1.2019039
1.1875833
1.1875548
1.1875248
1.1874968
1.1874728
1.1874575
1.1874562
1.1874762
1.18753
1.1876327
1.1877956
1.1880291
1.1883549
1.1887732
1.1892659
1.1898233
1.1904307
1.1910543
1.1916775
1.192291
1.1928706
1.1934225
1.1939381
1.1944192
1.1948601
1.1952682
1.1956353
1.1959708
1.1962669
1.1965278
1.1967579
1.1969556
1.1971331
1.1972929
1.1974417
1.1975823
1.1977133
1.1978345
1.1979392
1.1980265
1.1980931
1.1981535
1.1982161
1.1982845
1.1983484
1.1984182
1.198495
1.198599
1.1987201
1.1988723
1.1990628
1.1992794
1.1995447
1.1998694
1.2001888
1.200597
1.2009327
1.2012842
1.201483
1.2016935
1.2016657
1.2019003
1.18756
1.1875224
1.1874883
1.18746
1.1874413
1.1874378
1.1874552
1.1875059
1.1876062
1.1877691
1.1880036
1.1883277
1.1887466
1.1892477
1.1898114
1.1904233
1.1910498
1.1916736
1.1922847
1.1928637
1.1934124
1.1939243
1.1944011
1.1948389
1.1952464
1.1956114
1.1959473
1.1962446
1.1965074
1.1967405
1.1969407
1.1971211
1.1972836
1.1974351
1.1975784
1.197712
1.197836
1.1979433
1.1980329
1.1981014
1.1981625
1.1982253
1.1982939
1.1983581
1.1984276
1.1985036
1.1986062
1.1987261
1.1988785
1.1990666
1.1992824
1.1995478
1.1998734
1.2001944
1.200603
1.20094
1.201291
1.2014913
1.2016999
1.2016728
1.2018969
1.1981714
1.1982343
1.198303
1.1983673
1.1984365
1.1985116
1.1986128
1.1987315
1.1988842
1.1990698
1.1992848
1.1995503
1.1998769
1.2001993
1.2006083
1.2009467
1.2012973
1.201499
1.201706
1.2016798
1.2018937
1.1924331
1.1924268
1.1915426
1.1919402
1.1922176
1.1924024
1.1925164
1.1925743
1.1925924
1.1925886
1.1911677
1.1916608
1.1920625
1.1923505
1.1925422
1.1926598
1.1927208
1.1927432
1.1927443
1.1912647
1.1917498
1.1921619
1.1924668
1.1926664
1.1927912
1.1928591
1.1928884
1.1928957
1.191343
1.1918276
1.1922414
1.1925548
1.1927738
1.1929135
1.1929923
1.1930304
1.1930447
1.1914088
1.1918904
1.1923072
1.1926353
1.1928749
1.1930319
1.1931238
1.1931718
1.1931937
1.1914649
1.1919417
1.192371
1.1927203
1.1929789
1.1931525
1.193258
1.1933164
1.1933459
1.1915204
1.1919921
1.1924429
1.1928134
1.1930906
1.1932808
1.1934
1.1934688
1.1935056
1.1915897
1.1920768
1.1925386
1.1929236
1.1932177
1.1934237
1.1935557
1.193634
1.1936772
1.1917302
1.1922072
1.1926687
1.193063
1.1933703
1.193589
1.1937313
1.1938173
1.1938655
1.1919186
1.1923804
1.1928405
1.1932403
1.193556
1.193783
1.1939323
1.1940234
1.1940752
1.1921846
1.1926219
1.1930709
1.1934667
1.1937822
1.1940114
1.1941632
1.1942567
1.19431
1.1925355
1.1929405
1.1933665
1.1937464
1.1940523
1.1942764
1.194426
1.1945187
1.1945718
1.1929631
1.1933291
1.1937216
1.1940754
1.1943632
1.194576
1.1947189
1.194808
1.1948595
1.1934481
1.1937689
1.1941205
1.1944414
1.1947053
1.1949021
1.1950353
1.1951191
1.1951679
1.1939619
1.1942359
1.1945427
1.1948271
1.1950642
1.195243
1.1953652
1.1954432
1.1954893
1.1944598
1.1946916
1.1949571
1.1952079
1.1954203
1.1955825
1.195695
1.1957682
1.1958127
1.1949264
1.1951189
1.1953458
1.1955661
1.195757
1.1959058
1.1960117
1.1960828
1.1961279
1.195336
1.1954954
1.1956893
1.1958841
1.1960584
1.1961986
1.1963019
1.1963742
1.1964225
1.1956775
1.1958098
1.1959762
1.1961504
1.1963129
1.196449
1.1965536
1.1966298
1.1966832
1.195942
1.1960541
1.1961994
1.1963583
1.1965134
1.1966493
1.1967581
1.1968403
1.1968999
1.1961534
1.1962479
1.1963743
1.196519
1.1966676
1.1968043
1.1969186
1.1970082
1.197075
1.1963286
1.1964068
1.1965151
1.1966449
1.1967854
1.1969212
1.1970398
1.1971359
1.1972094
1.196466
1.1965316
1.1966248
1.1967411
1.1968727
1.1970059
1.197127
1.1972283
1.1973077
1.1965952
1.1966481
1.1967258
1.1968269
1.1969466
1.1970733
1.197193
1.1972964
1.1973794
1.1967174
1.1967581
1.1968205
1.1969052
1.1970101
1.1971261
1.1972401
1.1973415
1.197425
1.1968341
1.1968629
1.1969102
1.1969779
1.1970662
1.1971686
1.1972736
1.1973704
1.1974523
1.1969394
1.1969575
1.1969902
1.1970407
1.197111
1.1971973
1.1972902
1.1973794
1.1974575
1.1970355
1.1970427
1.197061
1.1970938
1.1971448
1.1972124
1.1972899
1.1973681
1.1974395
1.1971186
1.1971157
1.1971202
1.1971359
1.1971672
1.1972149
1.1972746
1.1973389
1.1974004
1.1971908
1.1971792
1.1971716
1.1971719
1.197185
1.1972133
1.1972547
1.1973034
1.1973532
1.1972554
1.1972366
1.1972186
1.1972057
1.197203
1.1972141
1.1972385
1.1972723
1.1973098
1.1973035
1.1972795
1.1972538
1.1972307
1.1972159
1.1972134
1.1972241
1.1972453
1.1972723
1.1973399
1.1973093
1.1972766
1.1972447
1.1972193
1.1972056
1.197205
1.1972157
1.1972338
1.1973654
1.1973279
1.1972859
1.1972441
1.197208
1.1971828
1.197171
1.1971717
1.1971812
1.1973861
1.1973424
1.1972919
1.1972392
1.1971906
1.1971522
1.1971276
1.1971166
1.1971162
1.1974173
1.1973668
1.1973073
1.197243
1.1971808
1.1971274
1.1970874
1.197062
1.1970492
1.1974617
1.197407
1.1973417
1.1972688
1.1971944
1.1971268
1.1970719
1.1970319
1.1970056
1.1975136
1.1974556
1.1973839
1.1973034
1.1972208
1.1971434
1.1970779
1.1970275
1.1969917
1.1975649
1.197504
1.1974281
1.1973404
1.1972484
1.1971612
1.1970856
1.1970255
1.1969809
1.1976256
1.1975616
1.197481
1.1973866
1.1972855
1.1971871
1.1970996
1.197028
1.1969732
1.197702
1.1976377
1.1975553
1.1974569
1.1973489
1.1972409
1.1971424
1.1970596
1.1969944
1.1978073
1.1977452
1.1976644
1.1975658
1.1974548
1.1973414
1.1972357
1.1971445
1.1970708
1.1979299
1.1978714
1.1977941
1.197698
1.1975872
1.1974703
1.1973583
1.1972596
1.197178
1.1980893
1.1980353
1.1979632
1.1978716
1.1977632
1.1976454
1.1975289
1.1974231
1.1973336
1.1982614
1.1982128
1.1981472
1.1980628
1.1979609
1.1978472
1.197731
1.197622
1.197527
1.1984862
1.1984453
1.1983897
1.1983174
1.1982281
1.1981254
1.1980164
1.1979104
1.1978148
1.1986725
1.1986359
1.1985879
1.1985263
1.19845
1.1983614
1.1982655
1.1981698
1.1980803
1.1989994
1.1989717
1.1989339
1.1988838
1.198821
1.1987463
1.1986637
1.1985784
1.1984963
1.1992783
1.1992542
1.1992217
1.1991789
1.1991253
1.1990618
1.1989912
1.1989178
1.198846
1.1996077
1.1995866
1.1995584
1.1995216
1.1994758
1.199422
1.1993622
1.1992996
1.1992375
1.1999188
1.1998996
1.1998742
1.1998414
1.1998012
1.1997546
1.1997034
1.1996502
1.1995977
1.2003375
1.2003203
1.2002976
1.2002686
1.2002332
1.2001924
1.2001477
1.2001013
1.2000554
1.2006726
1.2006566
1.2006358
1.2006092
1.2005774
1.2005412
1.2005022
1.2004623
1.2004233
1.201056
1.2010421
1.2010239
1.2010009
1.2009732
1.2009418
1.2009077
1.2008726
1.2008381
1.2012501
1.2012369
1.2012198
1.2011984
1.2011733
1.2011453
1.2011157
1.201086
1.2010577
1.2015219
1.2015122
1.2014996
1.2014838
1.201465
1.2014437
1.2014207
1.2013969
1.2013737
1.2015285
1.2015217
1.2015128
1.2015014
1.2014876
1.2014718
1.2014546
1.2014371
1.2014198
1.2019597
1.2019629
1.2019652
1.2019667
1.2019677
1.2019681
1.2019679
1.2019668
1.2019649
1.1923978
1.1923642
1.1923395
1.1923416
1.1924072
1.1926175
1.1925652
1.1925377
1.1925186
1.1925245
1.1925893
1.1927898
1.1927276
1.1927066
1.1926932
1.1927027
1.1927662
1.1929564
1.192886
1.1928714
1.1928635
1.1928759
1.1929373
1.1931164
1.1930421
1.1930336
1.1930304
1.193045
1.1931038
1.1932712
1.193198
1.1931951
1.1931959
1.193212
1.1932674
1.1934228
1.1933567
1.1933586
1.1933626
1.1933794
1.1934311
1.1935742
1.193522
1.1935278
1.1935342
1.193551
1.1935983
1.1937293
1.1936982
1.193707
1.1937148
1.1937309
1.1937737
1.1938929
1.19389
1.1939008
1.1939093
1.1939241
1.1939623
1.1940706
1.1941019
1.1941138
1.1941223
1.1941355
1.1941693
1.1942677
1.1943377
1.1943499
1.1943579
1.1943695
1.1943993
1.1944892
1.1945993
1.1946112
1.1946184
1.1946285
1.1946551
1.194738
1.194886
1.1948972
1.1949038
1.1949128
1.1949372
1.1950145
1.1951932
1.195204
1.1952106
1.1952195
1.1952429
1.1953167
1.1955137
1.1955247
1.1955318
1.1955411
1.1955635
1.195631
1.1958371
1.1958496
1.1958585
1.1958702
1.1958958
1.1959727
1.1961548
1.196171
1.1961848
1.1962025
1.1962368
1.1963318
1.196454
1.1964764
1.1964972
1.1965224
1.1965633
1.19665
1.1967207
1.1967498
1.1967772
1.1968076
1.1968488
1.1969195
1.1969437
1.1969794
1.1970127
1.1970475
1.1970911
1.1971625
1.1971259
1.1971687
1.1972083
1.1972486
1.197297
1.1973739
1.1972668
1.1973162
1.1973621
1.1974082
1.1974623
1.197544
1.1973715
1.1974278
1.197481
1.1975352
1.1975997
1.197702
1.1974475
1.1975087
1.1975669
1.1976259
1.1976945
1.1977976
1.1974949
1.1975588
1.1976204
1.1976835
1.1977577
1.19787
1.1975226
1.1975886
1.1976537
1.1977221
1.1978052
1.1979349
1.1975265
1.1975933
1.1976611
1.1977343
1.1978259
1.1979708
1.1975048
1.1975701
1.1976383
1.1977143
1.1978119
1.1979694
1.1974591
1.1975199
1.1975858
1.1976616
1.1977618
1.1979267
1.1974028
1.1974564
1.1975166
1.1975884
1.1976869
1.1978548
1.1973495
1.1973945
1.1974472
1.1975127
1.1976061
1.1977708
1.1973031
1.1973399
1.197385
1.1974433
1.1975301
1.1976893
1.197257
1.1972867
1.1973252
1.1973773
1.1974582
1.1976129
1.197197
1.19722
1.1972521
1.1972983
1.1973738
1.1975254
1.1971234
1.1971384
1.1971628
1.1972015
1.1972699
1.1974159
1.1970454
1.1970497
1.1970636
1.1970919
1.1971492
1.1972829
1.1969892
1.1969814
1.1969826
1.1969968
1.1970365
1.1971451
1.1969663
1.1969475
1.1969363
1.1969357
1.1969551
1.197028
1.196947
1.1969199
1.1968995
1.1968878
1.1968916
1.1969361
1.1969298
1.1968931
1.1968625
1.1968388
1.1968263
1.1968548
1.1969411
1.1968941
1.1968526
1.1968178
1.1967947
1.1967935
1.1970089
1.1969521
1.1968995
1.1968499
1.1968039
1.1967787
1.197108
1.1970425
1.1969797
1.1969187
1.1968566
1.1968019
1.1972549
1.1971786
1.1971036
1.1970268
1.1969456
1.1968679
1.1974413
1.1973565
1.1972704
1.1971808
1.1970797
1.196968
1.1977257
1.1976343
1.1975392
1.1974343
1.197314
1.1971829
1.1979941
1.1979036
1.1978041
1.1976962
1.1975641
1.1974046
1.1984143
1.1983222
1.1982195
1.1980952
1.1979479
1.1977914
1.198773
1.1986898
1.1985927
1.1984729
1.1983184
1.1981349
1.1991727
1.1990961
1.1990024
1.1988809
1.1987152
1.1985175
1.1995432
1.1994786
1.1993992
1.1992926
1.1991317
1.1989011
1.2000071
1.1999487
1.1998754
1.1997737
1.1996142
1.1993787
1.200383
1.2003354
1.2002761
1.200196
1.200061
1.1998125
1.2008019
1.2007576
1.2007026
1.2006248
1.2004991
1.2002818
1.2010286
1.2009938
1.2009508
1.200891
1.2007927
1.2006038
1.2013492
1.2013196
1.2012825
1.2012321
1.2011486
1.200985
1.2014017
1.2013796
1.2013526
1.2013161
1.2012558
1.2011471
1.2019618
1.2019562
1.2019477
1.2019334
1.2019054
1.2018318
)
;

boundaryField
{
    Side1
    {
        type            empty;
    }
    Inlet
    {
        type            calculated;
        value           nonuniform List<scalar> 0();
    }
    Side2
    {
        type            empty;
    }
    Outlet
    {
        type            calculated;
        value           nonuniform List<scalar> 
35
(
1.2016752
1.201677
1.2016786
1.2016801
1.2016815
1.2016828
1.2016841
1.2016854
1.2016866
1.2016878
1.2016889
1.20169
1.2016911
1.2016921
1.2016931
1.201694
1.2016949
1.2016957
1.2016966
1.2016976
1.2016735
1.201672
1.20167
1.2016675
1.2016644
1.2016607
1.2016563
1.2016513
1.201646
1.2016401
1.2016323
1.201622
1.2016061
1.2015764
1.2015017
)
;
    }
    Botwall
    {
        type            calculated;
        value           nonuniform List<scalar> 
59
(
1.1926175
1.1927898
1.1929564
1.1931164
1.1932712
1.1934228
1.1935742
1.1937293
1.1938929
1.1940706
1.1942677
1.1944892
1.194738
1.1950145
1.1953167
1.195631
1.1959727
1.1963318
1.19665
1.1969195
1.1971625
1.1973739
1.197544
1.197702
1.1977976
1.19787
1.1979349
1.1979708
1.1979694
1.1979267
1.1978548
1.1977708
1.1976893
1.1976129
1.1975254
1.1974159
1.1972829
1.1971451
1.197028
1.1969361
1.1968548
1.1967935
1.1967787
1.1968019
1.1968679
1.196968
1.1971829
1.1974046
1.1977914
1.1981349
1.1985175
1.1989011
1.1993787
1.1998125
1.2002818
1.2006038
1.200985
1.2011471
1.2018318
)
;
    }
    Cyli
    {
        type            calculated;
        value           nonuniform List<scalar> 0();
    }
    procBoundary1to0
    {
        type            processor;
        value           nonuniform List<scalar> 
44
(
1.190267
1.1910401
1.1894788
1.1894788
1.1885528
1.1885528
1.1880831
1.1879232
1.1879232
1.1878138
1.1878138
1.1877485
1.1877324
1.1877341
1.1877341
1.1877572
1.1877636
1.1877603
1.1877478
1.1877253
1.1876268
1.18769
1.1876268
1.1876087
1.1876064
1.1875956
1.1875956
1.1922636
1.1922573
1.1913934
1.1917855
1.1920566
1.1922402
1.1923564
1.1924158
1.1924158
1.1910401
1.1910401
1.1922244
1.192186
1.1921567
1.1921558
1.192223
1.1924435
)
;
    }
    procBoundary1to3
    {
        type            processor;
        value           nonuniform List<scalar> 
62
(
1.1875457
1.187515
1.1874878
1.187468
1.1874582
1.187463
1.1874858
1.1875354
1.1876339
1.1877992
1.1880393
1.1883706
1.1887942
1.1893022
1.1898687
1.1904794
1.1911016
1.1917201
1.192323
1.1928952
1.1934362
1.1939404
1.1944088
1.1948391
1.1952435
1.1956031
1.1959366
1.196233
1.1964957
1.1967302
1.1969319
1.1971139
1.1972782
1.1974313
1.1975765
1.1977121
1.1978382
1.1979477
1.1980393
1.1981095
1.1981095
1.1981803
1.1982431
1.1983117
1.198376
1.1984449
1.1985192
1.1986191
1.1987364
1.1988892
1.1990726
1.1992869
1.1995523
1.1998798
1.2002036
1.2006131
1.2009529
1.2013032
1.2015064
1.201712
1.2016866
1.2018909
)
;
    }
}


// ************************************************************************* //
