/*--------------------------------*- C++ -*----------------------------------*\
| =========                 |                                                 |
| \\      /  F ield         | OpenFOAM: The Open Source CFD Toolbox           |
|  \\    /   O peration     | Version:  2406                                  |
|   \\  /    A nd           | Website:  www.openfoam.com                      |
|    \\/     M anipulation  |                                                 |
\*---------------------------------------------------------------------------*/
FoamFile
{
    version     2.0;
    format      ascii;
    arch        "LSB;label=32;scalar=64";
    class       volScalarField;
    location    "0.001";
    object      k;
}
// * * * * * * * * * * * * * * * * * * * * * * * * * * * * * * * * * * * * * //

dimensions      [0 2 -2 0 0 0 0];

internalField   nonuniform List<scalar> 
8260
(
801.87476
777.39712
743.39931
701.24656
651.7713
595.83389
534.80994
470.54945
405.04043
340.03247
277.10513
217.66234
162.81969
113.4892
70.486894
34.682289
11.519738
3.110036
1.4607472
0.99445277
0.76392083
0.62673873
0.54086462
0.48551228
0.45247153
0.43184399
0.41680387
0.40715841
0.40152807
0.39827542
0.39465425
782.58289
754.82686
719.11452
676.63083
627.90106
573.56573
514.73662
452.97206
390.0453
327.58621
266.95839
209.50773
156.33938
108.40996
66.554987
32.048578
10.010203
2.8346679
1.3904046
0.96839657
0.75161058
0.62069798
0.53767824
0.48392378
0.45164518
0.43144848
0.41665766
0.40711104
0.40149609
0.39829344
0.39467546
754.38506
725.2188
689.28043
647.43554
600.13289
547.9392
491.78341
432.97015
373.02634
313.41652
255.39994
200.22546
148.97414
102.64545
62.126187
29.046058
8.6363732
2.584267
1.3442073
0.95506043
0.74531961
0.6176555
0.53607696
0.48314663
0.45123726
0.43126171
0.41659759
0.40709661
0.40148133
0.39833798
0.39470057
716.03602
686.88238
651.99603
611.97968
567.12627
517.91504
465.12953
409.86625
353.42933
297.11781
242.10857
189.55945
140.52234
96.039808
57.086865
25.616112
7.3181213
2.3481343
1.294788
0.93247819
0.73384103
0.61186561
0.5329796
0.48165327
0.45044987
0.43088359
0.4164656
0.40706083
0.40144626
0.39837386
0.39473001
668.12253
640.19338
607.35958
570.11812
528.60384
483.17061
434.44931
383.34471
330.9589
278.43681
226.8665
177.32387
130.83037
88.469786
51.341828
21.799153
6.1096745
2.1244096
1.2444918
0.91288862
0.72421862
0.60715151
0.5304589
0.48044477
0.44981806
0.43057306
0.41635578
0.40703753
0.40142892
0.39843118
0.39476473
611.20518
585.57951
555.6966
522.02277
484.58508
443.61315
399.58133
353.20863
305.40548
257.16529
209.47934
163.34314
119.74921
79.817573
44.812142
17.682493
4.9819638
1.9140066
1.1916625
0.8879311
0.71120202
0.60049102
0.52685797
0.4787007
0.44890615
0.43011418
0.41618728
0.4069972
0.40142471
0.39848939
0.39480588
546.47438
523.96452
497.73663
468.2353
435.42321
399.42659
360.57521
319.41194
276.66175
233.16096
189.79072
147.46192
107.14292
69.97912
37.453694
13.447558
3.9620761
1.7201625
1.1383315
0.863542
0.6987315
0.59422671
0.52347944
0.4770649
0.44806389
0.42967299
0.41601849
0.40695836
0.40142626
0.3985617
0.3948549
475.85207
456.89082
434.71488
409.7293
381.85291
351.12903
317.76196
282.13291
244.78826
206.40046
167.72375
129.57651
92.914894
58.888998
29.309616
9.4026601
3.0941307
1.549903
1.0826139
0.83503736
0.68354944
0.5863329
0.51920179
0.47493134
0.4469658
0.42909053
0.41579108
0.40690093
0.40143036
0.39862774
0.39491362
401.58587
386.28382
368.25804
347.85647
324.97217
299.58306
271.78786
241.82406
210.07043
177.03394
143.32941
109.67598
77.043868
46.566479
20.64535
6.4342607
2.4314859
1.4197462
1.0262199
0.80622511
0.66829797
0.57845026
0.51499959
0.47280386
0.4458848
0.42848907
0.41554486
0.40683332
0.40143102
0.39869241
0.39498439
326.16979
314.36167
300.31629
284.30948
266.22456
245.99289
223.62684
199.23927
173.05775
145.43255
116.8389
87.897019
59.63
33.219016
12.248588
4.192262
1.9368169
1.2890462
0.96601022
0.77388772
0.65069931
0.56904522
0.51003839
0.47017379
0.44453125
0.42773486
0.41523125
0.4067546
0.40142538
0.39873354
0.39507031
252.18398
243.47097
233.04641
221.04808
207.35587
191.87943
174.56879
155.43606
134.58194
112.22472
88.722286
64.608505
41.027079
19.458208
6.7925104
2.7688173
1.6062054
1.1757646
0.90493791
0.74082458
0.63286932
0.55943156
0.50512675
0.46750994
0.44313577
0.4269203
0.41487532
0.40666328
0.40142932
0.3987651
0.39517551
182.01643
175.87966
168.53247
160.00756
150.16676
138.89434
126.09427
111.70224
95.726504
78.310794
59.766552
40.553924
22.072511
9.0302
3.6607549
1.9639038
1.4106912
1.070109
0.84249578
0.70440149
0.61292083
0.54845864
0.49962897
0.46440637
0.44144816
0.42595372
0.41444974
0.40655353
0.40144994
0.39879085
0.39530562
117.65423
113.60512
108.75192
103.06647
96.4311
88.718446
79.795809
69.504236
57.793301
44.903817
31.34182
18.623463
9.204765
4.0424388
2.2013438
1.5706344
1.2124454
0.96354561
0.78196282
0.66883301
0.59231618
0.53724626
0.49418064
0.4613111
0.43960616
0.42487944
0.41396663
0.40640193
0.40146566
0.39882388
0.39546794
61.185792
58.747892
55.809195
52.338726
48.257019
43.495433
38.012121
31.903783
25.332782
18.612321
12.200368
6.978517
3.7851396
2.2069928
1.6121975
1.2843181
1.0403965
0.85814814
0.72426222
0.63336286
0.57023031
0.52468015
0.48822964
0.45808622
0.43746655
0.42367677
0.41342362
0.40622926
0.40149407
0.39884656
0.39567104
23.311711
22.2768
21.050843
19.606917
17.896062
15.902016
13.631005
11.146774
8.7581572
6.4941122
4.4549344
2.8927936
1.9770633
1.5437771
1.3034477
1.0983322
0.90125714
0.77416138
0.67895653
0.59973786
0.54838103
0.51182491
0.48195454
0.45517091
0.43514137
0.42231073
0.41282391
0.40599667
0.40153106
0.3988674
0.39606693
7.379446
7.1141974
6.7641751
6.3353336
5.8432212
5.2661107
4.5956052
3.869476
3.1790793
2.5388007
1.9786723
1.5805407
1.375705
1.2287814
1.040767
0.89669397
0.7872929
0.69914584
0.62743677
0.57323052
0.52681696
0.49781666
0.47476026
0.4522879
0.43282928
0.42081756
0.41217144
0.40573714
0.40153821
0.39889225
0.39678215
2.5066687
2.4580384
2.3795353
2.2743878
2.1488153
2.0086943
1.8479985
1.6733586
1.5066974
1.349632
1.2033188
1.1318046
1.1055317
1.0086302
0.90093567
0.79494706
0.70142528
0.64292186
0.58746513
0.54095743
0.51285153
0.48434823
0.46664723
0.44906096
0.43082991
0.41925482
0.41146474
0.40546148
0.40153477
0.39895856
0.39700411
1.1730595
1.166335
1.1532624
1.1343269
1.1110139
1.0823167
1.0522706
1.022935
0.99355186
0.97128952
0.93670223
0.89180455
0.8504822
0.84530675
0.80312619
0.72486917
0.6493796
0.5933357
0.55497802
0.51726
0.49314772
0.47503833
0.45807238
0.4439712
0.42910638
0.41784022
0.41074196
0.40519494
0.4015204
0.39901207
0.39728026
0.79907694
0.79742523
0.7953692
0.79247927
0.78983496
0.78954397
0.79347264
0.80553625
0.8168945
0.81153482
0.79298025
0.75827693
0.71834143
0.68148011
0.67457208
0.65172156
0.59596775
0.56015922
0.5229252
0.50110491
0.47679135
0.46396528
0.45162353
0.43821198
0.42691655
0.4167239
0.41004454
0.40495938
0.40151667
0.39901955
0.39779248
0.65882837
0.6601933
0.66271657
0.66576448
0.66929781
0.67277746
0.67400711
0.67149794
0.66886494
0.67092303
0.66550508
0.65582227
0.63061988
0.59387707
0.5728751
0.56309588
0.55388969
0.52017318
0.50197068
0.47951713
0.46175706
0.45399622
0.44302166
0.43287351
0.42433196
0.41551716
0.40932997
0.40472101
0.40151914
0.39898111
0.39804893
0.56561613
0.56623361
0.56600839
0.56513179
0.56455202
0.56451292
0.56481744
0.56497517
0.56407176
0.56134897
0.56014725
0.55241216
0.54462188
0.53228963
0.5187115
0.50984284
0.49800008
0.49333819
0.47355968
0.4652735
0.45244174
0.44059831
0.43564583
0.42776458
0.42149042
0.41416513
0.40845994
0.40445225
0.40149405
0.39882234
0.39816775
0.5082856
0.50879354
0.50954565
0.51032298
0.51145095
0.51305695
0.51482744
0.51570245
0.51434691
0.50866143
0.50024428
0.49745735
0.48981011
0.49022828
0.48608185
0.47814892
0.46819014
0.4599422
0.45725519
0.44459349
0.43701041
0.43191363
0.42623929
0.42340387
0.41850428
0.4127887
0.40754034
0.40420379
0.40137603
0.39862181
0.39832534
0.47170788
0.47260784
0.47337487
0.47377415
0.47393635
0.47389285
0.473539
0.47275978
0.47138321
0.46928706
0.46518577
0.45951974
0.45815781
0.45279656
0.4518657
0.4468679
0.44251494
0.44092026
0.43700497
0.43342897
0.42642816
0.42160087
0.41998591
0.41780711
0.41514885
0.4114383
0.40682041
0.40387444
0.40108278
0.39840061
0.39835276
0.44154949
0.44202148
0.44251392
0.4428238
0.44303384
0.44320471
0.44326097
0.44310884
0.44255019
0.44150432
0.44092485
0.43906044
0.43524791
0.43374928
0.4296681
0.42803609
0.42494239
0.42250712
0.42381547
0.42272791
0.42047085
0.41601453
0.4140784
0.41230581
0.41085337
0.40940256
0.40614165
0.4033053
0.40040206
0.39819099
0.39819676
0.42682923
0.42711931
0.42747407
0.42772258
0.42787785
0.42796032
0.42789686
0.42759857
0.42705324
0.42631277
0.42511406
0.42422603
0.42319332
0.42019115
0.41870526
0.41656384
0.41592641
0.4145275
0.41314916
0.41265276
0.41327514
0.41233968
0.41087853
0.40979358
0.4081913
0.40663072
0.40479014
0.40208241
0.39930947
0.39804973
0.39796217
0.41830425
0.41853366
0.41877109
0.418881
0.41887663
0.41876148
0.41843952
0.41780275
0.41683893
0.41565265
0.41447752
0.41349607
0.41232781
0.4114897
0.40961703
0.40876965
0.40777082
0.40799679
0.40806963
0.40774877
0.40799434
0.40923177
0.40934341
0.40866803
0.40693583
0.40514845
0.40291857
0.40041267
0.39864499
0.39791276
0.39768225
0.41340343
0.41351438
0.4135751
0.41347484
0.41321745
0.41280048
0.41211633
0.41113941
0.40995384
0.40867086
0.40724321
0.40564798
0.40413934
0.40274875
0.40238424
0.40220076
0.40236148
0.40303765
0.4042071
0.40503206
0.40547268
0.40673352
0.40830209
0.40813217
0.40619045
0.40420086
0.40198879
0.39964713
0.39828092
0.39779923
0.39673654
0.40596435
0.40571784
0.40535111
0.40482848
0.40418441
0.40346268
0.40273425
0.40201815
0.40133529
0.40067975
0.40001711
0.39944216
0.39903714
0.39864543
0.39854019
0.39885375
0.39942961
0.40042154
0.4009687
0.40161754
0.40245826
0.403723
0.40556907
0.40678966
0.40508347
0.40270394
0.40108166
0.39916274
0.39804074
0.39773769
0.39626519
0.39926298
0.39917531
0.39906693
0.39891825
0.39873622
0.39853968
0.39833989
0.39814452
0.39795877
0.39777634
0.39759206
0.39742013
0.39734494
0.39726372
0.39721395
0.39737199
0.39774303
0.3983188
0.39931453
0.39961004
0.39991097
0.39991238
0.40051131
0.4036398
0.40337297
0.40049642
0.40010645
0.39855727
0.39788783
0.39755561
0.39601062
0.39726286
0.39722531
0.39718981
0.39714473
0.39708782
0.39703017
0.39698072
0.39693949
0.39690269
0.39685789
0.39681292
0.39675812
0.39674352
0.39682428
0.3968178
0.39688852
0.39710917
0.3975964
0.39833863
0.39875308
0.3990301
0.39846938
0.39840795
0.40014009
0.40101204
0.39949421
0.39899422
0.39773273
0.39756682
0.39714985
0.3961045
0.39681072
0.3967976
0.39678331
0.39676897
0.39675757
0.39675317
0.39675784
0.39677011
0.39678682
0.39680425
0.39682285
0.39684781
0.39687384
0.39687393
0.39683335
0.39684872
0.39697655
0.39728363
0.39770147
0.39813718
0.39839417
0.39767399
0.39767271
0.39862127
0.39937325
0.39864631
0.39800224
0.39744316
0.39734706
0.39702051
0.39690994
209.43753
300.7004
391.67939
464.14113
512.4952
535.81236
536.45504
519.76406
481.84899
432.63482
375.89871
315.10638
253.88547
195.1589
141.13186
93.135386
52.91355
23.626309
7.6301458
2.3712725
1.1283758
0.77028679
0.60905866
0.52240455
0.46866261
0.43662922
0.41782478
0.40722567
0.40002549
0.39714417
0.39435659
340.75965
423.23507
484.29032
526.06286
548.18158
551.83711
540.92663
512.68149
469.48131
417.48889
359.91391
299.84763
240.24835
183.57286
131.68559
85.702726
47.54341
20.228009
6.1849392
2.0538601
1.0439385
0.74395737
0.59780027
0.51714942
0.46632319
0.4356942
0.41743103
0.40710418
0.40004293
0.39716535
0.3943768
412.25234
474.30796
521.73278
551.7829
563.25164
558.48377
539.63835
503.46115
456.87059
403.22788
345.38753
286.1447
228.04359
173.2028
123.22373
79.043782
42.808454
17.47046
5.2342317
1.8006849
0.99886677
0.73243221
0.59268441
0.51472049
0.46526367
0.43528412
0.4172599
0.40704861
0.40009632
0.39718537
0.39439857
474.07192
524.14599
557.92256
574.61126
575.36198
562.49222
534.09831
493.64627
444.66527
389.92647
332.10714
273.73282
217.03083
163.84991
115.58191
73.0363
38.581654
15.098073
4.4543367
1.6412897
0.95888296
0.71597468
0.58473436
0.51080659
0.46358022
0.43465466
0.41700808
0.40696711
0.40014132
0.39721005
0.39441768
522.1174
560.17904
582.42491
588.97532
582.62734
561.91051
527.64195
483.85938
432.99201
377.52859
319.92325
262.44169
207.05186
155.38203
108.66643
67.609115
34.783635
13.048022
3.8432898
1.4915721
0.92789442
0.70535088
0.57979365
0.50833734
0.46253212
0.43427714
0.41685397
0.40692495
0.40020871
0.39723902
0.39443487
560.18855
588.42411
601.22223
600.02802
586.28378
558.79146
520.65189
474.28241
421.97421
366.06088
308.78589
252.18612
198.01445
147.71718
102.40883
62.691124
31.354273
11.28334
3.3360662
1.3903393
0.9003131
0.69305447
0.57363722
0.50517115
0.46118028
0.43378988
0.41666183
0.40685744
0.40027608
0.39726968
0.39445163
590.60161
610.38432
615.3401
608.45961
587.49467
555.1464
513.69144
465.1786
411.75237
355.56981
298.67779
242.91583
189.8566
140.79374
96.73955
58.232784
28.257232
9.7780265
2.9364733
1.3024001
0.87801155
0.68385668
0.56921072
0.50283094
0.4602055
0.43345976
0.41653621
0.40680691
0.40036555
0.39730643
0.39446609
615.1977
627.79573
626.577
613.65581
587.3086
551.16327
506.99322
456.73961
402.43706
346.09359
289.58842
234.59353
182.52899
134.55844
91.607715
54.200063
25.471612
8.5070841
2.6134163
1.2375149
0.8580213
0.6743235
0.5643848
0.5002172
0.45910715
0.43308766
0.41639491
0.40675452
0.40045613
0.39734856
0.39446854
635.72696
642.12359
635.98881
616.96092
586.5681
547.29
500.8411
449.13291
394.11205
337.65793
281.5066
227.18727
175.98934
128.96634
86.994627
50.551847
22.98906
7.4495503
2.3593071
1.1861995
0.8413423
0.66664049
0.5606196
0.49810528
0.4582374
0.43281309
0.41630304
0.40670592
0.40055455
0.39740071
0.39446712
653.38815
654.48164
643.5238
619.5649
585.82635
543.85842
495.44118
442.47811
386.83494
330.27773
274.42012
220.66916
170.20219
123.98983
82.858079
47.257228
20.776246
6.5776805
2.1595855
1.1448489
0.82644393
0.65917621
0.55684652
0.49594071
0.45733906
0.43253363
0.41621135
0.40667433
0.4006573
0.39745947
0.39446816
668.68395
665.45476
649.69443
622.06861
585.44783
541.08593
490.94072
436.85956
380.64422
323.96078
268.31759
215.01568
165.14789
119.63091
79.163539
44.308147
18.822974
5.8664675
2.0048839
1.1111183
0.81380562
0.65294868
0.5537785
0.49411424
0.45658684
0.43231763
0.41615582
0.40666181
0.40075791
0.39752437
0.39446928
682.48429
675.39216
655.52869
624.77077
585.5856
539.12817
487.44541
432.33574
375.56475
318.71042
263.19397
210.21795
160.83391
115.85207
75.926341
41.687129
17.116257
5.2968077
1.8866939
1.0838017
0.80265681
0.64716357
0.55087837
0.49235084
0.45585224
0.43211399
0.41610789
0.40666745
0.40085395
0.39759171
0.39446992
695.36733
684.66744
661.41612
627.95376
586.30267
538.11059
485.02913
428.96398
371.63871
314.55538
259.07656
206.29525
157.2219
112.61258
73.131205
39.369897
15.642191
4.8490919
1.7983593
1.0613882
0.79320528
0.6422937
0.54848549
0.49084386
0.45521941
0.43195476
0.41608551
0.40669405
0.40094015
0.39765998
0.39447072
707.97631
693.87145
667.7972
631.92412
588.02389
538.26371
483.88742
426.89224
368.95822
311.56609
255.94858
203.2082
154.26886
109.91606
70.763122
37.338255
14.386934
4.5049603
1.7346469
1.0432483
0.78503278
0.63794652
0.54633065
0.48946043
0.45462715
0.43181492
0.4160722
0.40673219
0.40101991
0.39772538
0.39447227
721.19008
703.90578
675.28484
637.16218
591.31992
539.6245
484.14893
426.26197
367.58406
309.6886
253.7643
200.90466
151.98389
107.75688
68.813047
35.579464
13.337062
4.2504538
1.6918982
1.0283453
0.77822435
0.63433488
0.5445685
0.48829331
0.45411635
0.43170907
0.41607414
0.40675141
0.4010874
0.39778625
0.39447507
734.73331
714.96815
683.95523
643.58705
595.82844
542.5285
485.57642
426.74916
367.36735
308.83552
252.51715
199.40677
150.36967
106.13279
67.277477
34.102742
12.497413
4.0384636
1.6486515
1.0157428
0.77254968
0.63126468
0.54306271
0.48727945
0.45365935
0.43162498
0.41609205
0.40676218
0.40114287
0.39784174
0.39447984
743.66981
723.00491
690.8861
649.46082
600.62836
546.24408
488.16811
428.20938
368.0356
308.97681
252.20418
198.72226
149.4332
105.04626
66.156977
32.928105
11.838876
3.8654467
1.6134968
1.0057011
0.7680128
0.62882157
0.54187571
0.48645918
0.45327499
0.43156839
0.4161263
0.40677389
0.40118923
0.39789132
0.39448725
751.00596
729.24744
696.67311
654.88379
605.55828
550.55494
491.75588
430.99477
369.96575
310.1375
252.73795
198.833
149.18462
104.50539
65.455242
32.070562
11.34209
3.7235468
1.5823981
0.99779579
0.7644792
0.62690338
0.540936
0.48580154
0.45295068
0.43153319
0.41617312
0.40679242
0.40123278
0.39793671
0.39449777
760.79074
737.24731
703.49491
661.00581
611.20305
555.71388
496.32696
434.87086
373.06763
312.46659
254.36724
199.81807
149.60862
104.52052
65.179229
31.544503
10.994748
3.6078363
1.5565769
0.99205206
0.76192592
0.62554019
0.54026958
0.48532509
0.45269664
0.43152327
0.41623709
0.40681947
0.40127049
0.39797911
0.39451157
770.42866
745.82587
711.22738
668.12783
617.851
561.9037
501.98582
439.85902
377.2816
315.85723
256.95996
201.66231
150.79856
105.12371
65.310445
31.364325
10.791999
3.5106582
1.5344357
0.98832488
0.76031577
0.62469835
0.5398549
0.48502169
0.452513
0.43153085
0.41631668
0.40686397
0.40131695
0.39802052
0.39452846
779.65113
754.52308
719.5364
676.13727
625.55481
569.24287
508.83395
446.05127
382.66023
320.3493
260.54898
204.38088
152.72447
106.33465
65.947791
31.552663
10.739065
3.4221516
1.5156971
0.98671634
0.75971398
0.62442572
0.53972527
0.48490599
0.45241048
0.43156924
0.41641179
0.40692551
0.40136535
0.39806409
0.3945481
788.2758
763.14506
728.24753
684.93259
634.30789
577.76563
516.9317
453.49248
389.26354
325.98852
265.1712
208.00057
155.41095
108.17182
67.061689
32.136934
10.835002
3.3388376
1.5002381
0.98706998
0.75997935
0.62459529
0.53981143
0.48493961
0.45238673
0.43163208
0.41651877
0.40699315
0.40141365
0.39811106
0.39457036
795.61084
770.71638
736.43076
693.82621
643.79033
587.41242
526.26233
462.20285
397.11952
332.80654
270.85978
212.55109
158.88309
110.65842
68.679866
33.152948
11.089244
3.2687438
1.4880382
0.98891935
0.76116786
0.6252758
0.54013267
0.48507112
0.45240733
0.43170578
0.41663015
0.40705763
0.40146888
0.39816347
0.39459536
800.9326
776.47774
742.97233
701.20624
651.88459
595.91995
534.79605
470.40948
404.73956
339.58689
276.63422
217.25132
162.52168
113.30829
70.43393
34.297654
11.417019
3.2040222
1.4769851
0.99241562
0.76280177
0.62614007
0.54056604
0.48530084
0.45245154
0.43178015
0.41673033
0.40711363
0.40150712
0.39822333
0.39462322
207.86239
290.15683
376.09415
447.39762
497.51593
523.91756
528.85734
515.49021
481.18946
434.28001
379.04554
319.32259
258.48717
199.5981
145.07773
96.46438
55.451709
25.226878
8.2039876
2.4647249
1.1479718
0.7772778
0.6123143
0.52396603
0.46922104
0.43678909
0.4178578
0.40722383
0.39997986
0.3971229
0.39433899
209.32361
289.21526
370.91904
439.38406
488.14537
514.3253
520.31544
507.93108
476.58051
431.33834
377.26367
318.45336
258.30404
199.91259
145.68522
97.212942
56.203843
25.868145
8.4708731
2.5179228
1.1590196
0.78156781
0.61444857
0.52483082
0.46945928
0.4368038
0.41784442
0.40722121
0.39992282
0.39709905
0.39431713
212.59279
288.58677
365.73774
431.13226
478.41662
504.39439
511.25617
499.99242
470.55536
427.24596
374.77886
317.20398
257.95939
200.15419
146.26078
97.953948
56.965539
26.528591
8.7579609
2.5771693
1.1705511
0.78582628
0.61653754
0.52579231
0.46971384
0.43680774
0.41782315
0.40721706
0.39986857
0.39707243
0.39428977
215.76447
287.992
360.65325
422.82731
468.49581
494.16419
501.7156
491.63782
464.09033
422.75251
371.97568
315.72493
257.45908
200.29877
146.78796
98.67788
57.72825
27.193166
9.0636425
2.6364548
1.1833375
0.79059386
0.61889886
0.52665643
0.46992084
0.4368142
0.4177851
0.40718215
0.39980912
0.39703975
0.39425779
218.93896
287.5483
355.7567
414.56758
458.438
483.65825
491.72823
482.85583
457.17083
417.83283
368.82386
313.98624
256.77682
200.32161
147.24928
99.371692
58.484619
27.8587
9.3883789
2.706197
1.1965833
0.79573806
0.62151871
0.52774448
0.47020024
0.43686464
0.4177938
0.40715206
0.3997609
0.39700413
0.39422676
222.69513
287.57567
351.25395
406.49924
448.27546
472.91056
481.34276
473.65903
449.79972
412.47538
365.3009
311.95975
255.8854
200.2317
147.62305
100.01897
59.300512
28.585534
9.7550567
2.7777691
1.2113744
0.80049551
0.62376096
0.5287407
0.4704841
0.43685854
0.41778102
0.40712201
0.39970008
0.3969613
0.39419574
226.60566
287.80727
346.8984
398.4938
438.0877
461.96977
470.61977
464.08058
442.00392
406.70088
361.4213
309.66343
254.81281
200.0222
147.95722
100.67413
60.095225
29.290204
10.115871
2.8567167
1.2279255
0.8076815
0.62752638
0.52987469
0.47074103
0.43686191
0.41773819
0.4070946
0.39963413
0.39691643
0.39416613
232.08852
288.87575
343.54093
391.27773
428.38821
451.153
459.77104
454.21448
433.80906
400.48683
357.1301
307.02406
253.47603
199.6199
148.16085
101.24837
60.86596
29.988109
10.492658
2.936116
1.2422933
0.8117672
0.62942341
0.53114482
0.47110622
0.4368024
0.41772711
0.40701371
0.39956121
0.39686742
0.39413966
238.68626
291.17181
341.12241
384.86567
419.10635
440.47891
448.84756
444.11189
425.26215
393.86708
352.44614
304.04973
251.87824
199.03077
148.23527
101.75115
61.603934
30.674401
10.885895
3.0236639
1.2610984
0.81740323
0.63226248
0.53172156
0.47113277
0.43675487
0.41776048
0.40688368
0.39948032
0.39681123
0.39411684
248.02878
295.41645
340.1186
379.29546
410.39342
430.12408
437.98327
433.86352
416.42062
386.86867
347.3713
300.7259
249.99717
198.23254
148.1831
102.16699
62.295831
31.343326
11.316737
3.1201857
1.2860015
0.82959358
0.63802387
0.53303385
0.47151264
0.43706194
0.41772795
0.4068274
0.39938913
0.3967554
0.39409814
259.38374
300.9532
340.28539
374.77319
402.50151
420.23382
427.333
423.58246
407.35898
379.53247
341.91849
297.04339
247.81264
197.20313
147.98621
102.47838
62.925679
31.97677
11.725641
3.2204919
1.2998324
0.83478139
0.64119551
0.53579226
0.47245097
0.43725289
0.41734994
0.40681751
0.39929525
0.39670481
0.39408368
272.10929
307.59053
341.27181
371.29708
395.46964
410.93939
417.05153
413.39074
398.16308
371.9098
336.10716
292.9991
245.30898
195.91911
147.57979
102.66224
63.477664
32.557112
12.081669
3.3051285
1.3137168
0.83937254
0.64513294
0.53583625
0.47222979
0.43693338
0.41700686
0.40678099
0.39919498
0.39666206
0.39407392
286.11671
315.41283
343.55156
368.85534
389.34473
402.34259
407.26452
403.40083
388.91992
364.05735
329.96369
288.59563
242.47299
194.3591
146.96527
102.68488
63.937416
33.074329
12.449482
3.3928567
1.3294516
0.84424681
0.64628963
0.53541449
0.47183319
0.43637163
0.41698872
0.4066488
0.39908351
0.39661987
0.39406808
300.14148
323.70294
346.5872
367.26715
384.06436
394.4591
398.03477
393.69392
379.70406
356.02969
323.51761
283.83958
239.29211
192.50135
146.12277
102.58933
64.291155
33.531574
12.82184
3.4871459
1.3460446
0.84978172
0.64753571
0.53594994
0.47180075
0.43615483
0.41698817
0.40646221
0.39895475
0.39656777
0.39406481
313.25285
331.74214
349.81517
366.19458
379.43428
387.20408
389.34356
384.30264
370.56422
347.87001
316.79468
278.73494
235.75479
190.32649
145.02887
102.31289
64.519669
33.936884
13.173455
3.5858032
1.3630307
0.85675688
0.65009092
0.53764913
0.47168011
0.43598046
0.41691463
0.40626406
0.39882018
0.39649748
0.39406285
324.88487
339.00253
352.83662
365.34774
375.16841
380.41559
381.10554
375.20829
361.51511
339.60237
309.81196
273.28423
231.85103
187.81371
143.65569
101.80117
64.584492
34.275633
13.48962
3.6865237
1.3808573
0.86466625
0.65376612
0.53834254
0.47120583
0.43584422
0.41671732
0.4060489
0.3987023
0.39642747
0.39406116
334.78404
345.15223
355.29191
364.34764
371.0286
374.09368
373.17708
366.3406
352.53395
331.22666
302.57327
267.48454
227.56733
184.93947
141.97655
101.05785
64.519139
34.573603
13.755528
3.7875255
1.3997229
0.8719215
0.65748469
0.53839907
0.47077315
0.43572097
0.41647696
0.40586139
0.39862565
0.39636282
0.39405931
342.83861
350.00159
356.94853
362.96218
366.83222
367.99875
365.40957
357.60029
343.56573
322.71733
295.06593
261.32332
222.88383
181.68034
139.96508
100.05524
64.293046
34.743406
13.957574
3.8806507
1.4189861
0.87745151
0.66003903
0.53827507
0.4704948
0.43544027
0.4161765
0.40563237
0.39859629
0.39627877
0.39405768
348.94024
353.36183
357.53791
360.88344
362.47857
361.81365
357.64171
348.8626
334.52747
314.02458
287.25991
254.77788
217.77794
178.01118
137.59059
98.75924
63.807017
34.729858
14.084934
3.9695524
1.4373245
0.88245765
0.66093153
0.53782767
0.47015313
0.43494899
0.41584637
0.40542327
0.39858594
0.39618342
0.39405683
353.07631
355.23589
357.09948
358.11578
357.80769
355.30586
349.68689
339.98058
325.31288
305.07734
279.10887
247.81519
212.22099
173.90155
134.82485
97.141102
63.07533
34.601378
14.089223
4.0420142
1.4534496
0.88726954
0.66090412
0.53692652
0.46937933
0.43441328
0.41553723
0.40529732
0.39856766
0.39612994
0.39405928
354.86329
355.14288
355.24649
354.43149
352.31894
348.21719
341.32187
330.77676
315.79074
295.78469
270.55208
240.39336
206.18031
169.322
131.6392
95.171227
62.068592
34.269048
14.037963
4.1040142
1.4682249
0.88967373
0.6604765
0.53605106
0.46774879
0.43369176
0.41519879
0.40519707
0.39851716
0.39612729
0.39406827
354.08232
353.394
351.91194
349.53097
345.86158
340.36579
332.35674
321.07985
305.82369
286.04615
261.52063
232.46572
199.62189
164.24387
128.00479
92.824693
60.760255
33.683319
13.888312
4.1389392
1.4826059
0.88965225
0.6595662
0.53498435
0.46607732
0.43286596
0.41488977
0.40515595
0.39839974
0.39616329
0.39409285
351.11779
349.2255
346.64278
343.10685
338.24719
331.60858
322.65048
310.75532
295.29495
275.77025
251.94926
223.98828
192.51544
158.64342
123.89988
90.078969
59.13106
32.855022
13.585564
4.1288474
1.4864905
0.88833527
0.6580042
0.53299342
0.46504404
0.43232646
0.41473022
0.4051175
0.39830043
0.39630155
0.39413564
345.02218
342.49064
339.16213
334.8033
329.10641
321.67415
312.03347
299.67883
284.10638
264.88315
241.78607
214.92767
184.84041
152.50653
119.31189
86.920167
57.167758
31.775997
13.156531
4.0920098
1.4835414
0.88390609
0.65444218
0.52972823
0.46437584
0.43204283
0.41467715
0.40495886
0.3982315
0.39666252
0.39419978
336.39104
333.43127
329.59528
324.66758
318.37548
310.38758
300.31454
287.717
272.16982
253.33082
231.00144
205.27061
176.5933
145.83406
114.24189
83.347604
54.868539
30.448899
12.608457
4.0186362
1.4757299
0.87493295
0.6486616
0.52598894
0.46302013
0.43159595
0.41458103
0.40478714
0.3981631
0.39702288
0.39429326
325.6754
322.37117
318.15457
312.82496
306.13521
297.79396
287.46883
274.80279
259.43677
241.07802
219.58356
195.02332
167.79035
138.64545
108.70783
79.375823
52.246189
28.889623
11.954936
3.8992628
1.4610876
0.86419172
0.6412039
0.52175516
0.4610782
0.43037597
0.41419814
0.40477983
0.39814534
0.39724145
0.39441798
313.29591
309.68433
305.15426
299.51936
292.5548
284.00331
273.57934
260.98177
245.92173
228.15548
207.56541
184.22308
158.4734
130.98275
102.74744
75.036177
49.326919
27.122123
11.203628
3.7310079
1.4376797
0.84935981
0.63278747
0.51781589
0.45921901
0.42906427
0.41369966
0.40487249
0.39813757
0.39729742
0.3945421
299.58787
295.70108
290.9086
285.03957
277.89073
269.23493
258.82653
246.41246
231.75305
214.65883
195.03591
172.95693
148.72349
122.91775
96.421487
70.378197
46.151195
25.180855
10.3718
3.5239531
1.4025162
0.83092391
0.62372985
0.51479697
0.4580751
0.42856944
0.41356448
0.40506206
0.39812398
0.39724974
0.39464378
284.73113
280.62411
275.63564
269.61132
262.36868
253.70778
243.41725
231.28482
217.11508
200.75883
182.14892
161.36124
138.65902
114.55075
89.812328
65.468018
42.77283
23.111704
9.4883365
3.2899437
1.3512303
0.81426138
0.61622901
0.51251817
0.4575202
0.42861503
0.41363032
0.40513943
0.39805601
0.39695993
0.39472085
268.6819
264.4488
259.36711
253.29913
246.08147
237.53794
227.48607
215.74741
202.16272
186.61434
169.06257
149.582
128.41068
105.99245
83.008166
60.372599
39.242431
20.954672
8.5723978
3.0394481
1.2956321
0.79985686
0.61110596
0.51095848
0.45719068
0.42882513
0.41372125
0.40513811
0.39792386
0.39647872
0.39477072
251.12338
246.90211
241.87441
235.91948
228.89064
220.63141
210.98226
199.79051
186.92481
172.29245
155.85537
137.71175
118.07161
97.326918
76.07785
55.143897
35.597903
18.738017
7.6331056
2.7666749
1.2277448
0.78045364
0.60362599
0.50839942
0.45659355
0.42880152
0.41363123
0.40501397
0.39770902
0.39607623
0.39479004
231.42657
227.39107
222.60307
216.95895
210.32598
202.56289
193.52627
183.08044
171.1088
157.53901
142.36608
125.64415
107.57699
88.514391
68.994361
49.760495
31.82195
16.447469
6.6504491
2.4631144
1.1413207
0.7503198
0.58999837
0.50250281
0.45490244
0.42842746
0.413073
0.40456225
0.39740792
0.39577531
0.39477782
208.70881
205.04992
200.7076
195.59625
189.59573
182.57728
174.40932
164.96544
154.14204
141.86497
128.12104
112.96949
96.584955
79.281525
61.543323
44.049719
27.767903
13.979707
5.5647011
2.1186027
1.0413972
0.71612708
0.57427415
0.49491977
0.45106086
0.4270431
0.41224033
0.40416953
0.39729654
0.39565626
0.39473896
182.14237
179.03563
175.32941
170.95716
165.81118
159.77445
152.72517
144.54442
135.12768
124.39995
112.335
98.977802
84.4722
69.091004
53.266053
37.618986
23.084163
11.177638
4.352735
1.7450816
0.93769263
0.68114285
0.55638719
0.4855443
0.44707902
0.42555967
0.41162533
0.40386759
0.39732098
0.3956659
0.39469282
151.22387
148.78716
145.84872
142.36077
138.2287
133.34795
127.60743
120.89577
113.11093
104.17357
94.045268
82.747595
70.38953
57.196213
43.543918
30.007475
17.514582
8.0555197
3.1223956
1.3798807
0.83951286
0.64285418
0.5369404
0.47669735
0.44378694
0.42408247
0.4110584
0.40362696
0.39743595
0.39571867
0.39466609
116.8947
115.14768
113.00327
110.43066
107.34984
103.67083
99.296044
94.125108
88.063178
81.034103
72.996273
63.960708
54.013814
43.347931
32.30167
21.422034
11.653559
5.1065563
2.0952316
1.0803094
0.74874769
0.60340838
0.51824836
0.46886182