/*--------------------------------*- C++ -*----------------------------------*\
| =========                 |                                                 |
| \\      /  F ield         | OpenFOAM: The Open Source CFD Toolbox           |
|  \\    /   O peration     | Version:  2406                                  |
|   \\  /    A nd           | Website:  www.openfoam.com                      |
|    \\/     M anipulation  |                                                 |
\*---------------------------------------------------------------------------*/
FoamFile
{
    version     2.0;
    format      ascii;
    arch        "LSB;label=32;scalar=64";
    class       volScalarField;
    location    "0.001";
    object      Ma;
}
// * * * * * * * * * * * * * * * * * * * * * * * * * * * * * * * * * * * * * //

dimensions      [0 0 0 0 0 0 0];

internalField   nonuniform List<scalar> 
8260
(
0.15666479
0.15817229
0.15966546
0.16124531
0.16280519
0.16430438
0.16575295
0.16719666
0.16875619
0.17053281
0.17230864
0.17413159
0.17595551
0.17755243
0.17829561
0.17724689
0.17332763
0.16875921
0.16599795
0.16397342
0.1622491
0.16073093
0.15939441
0.1582009
0.15714556
0.15625019
0.15554187
0.15492671
0.15441306
0.15384853
0.15410286
0.15257546
0.15439318
0.15631747
0.15825854
0.16017727
0.16204723
0.16387048
0.16567883
0.16754321
0.16950905
0.17147693
0.17344968
0.1753728
0.1770086
0.1777094
0.1765094
0.17248598
0.16814497
0.16562643
0.16371522
0.16206176
0.16059468
0.1592949
0.15812897
0.15709352
0.15621205
0.15551491
0.15490783
0.15440137
0.15383625
0.15409507
0.1477881
0.14995108
0.1523343
0.15471834
0.15706146
0.15934866
0.16157786
0.16376779
0.16596376
0.1681886
0.17038576
0.17254057
0.1745912
0.17628881
0.17697607
0.17564393
0.17156922
0.1675392
0.16524848
0.16343946
0.16185495
0.16043879
0.15917957
0.15804456
0.15703041
0.15616268
0.15547776
0.15488078
0.15438453
0.15381948
0.15408387
0.14319813
0.14565341
0.14837724
0.15112914
0.15385078
0.15652161
0.15913157
0.1616842
0.16420367
0.16670326
0.16913865
0.17148511
0.17366991
0.17542542
0.17608533
0.17460858
0.17050449
0.16684668
0.1647984
0.16310828
0.16160637
0.16025248
0.15904127
0.157943
0.15695496
0.15610505
0.15543493
0.15485007
0.15436462
0.15379952
0.15407121
0.13895035
0.14161622
0.14457129
0.14759819
0.15062847
0.15362896
0.15657842
0.15946515
0.16229252
0.16506143
0.16773422
0.1702746
0.17259483
0.17439947
0.1750064
0.17336128
0.16928009
0.16609451
0.16429324
0.16273357
0.16132409
0.16004012
0.15888345
0.15782702
0.15686837
0.15603825
0.1553846
0.15481408
0.15434127
0.15377639
0.15405746
0.13513166
0.13795333
0.14104696
0.1442478
0.14749448
0.15074587
0.15397022
0.15714176
0.16024463
0.16326398
0.16616215
0.16888943
0.17133905
0.17317671
0.17369327
0.17185886
0.16789932
0.16527078
0.16371821
0.16230287
0.16099835
0.15979499
0.15870071
0.15769247
0.15676809
0.15596147
0.15532658
0.15477283
0.15431386
0.15375047
0.15404264
0.13199147
0.1348376
0.13795432
0.14121541
0.14456887
0.14797121
0.15138317
0.15476735
0.15809135
0.1613239
0.1644196
0.16731283
0.16987321
0.17171348
0.17208592
0.17004399
0.16638343
0.16436967
0.16307005
0.16181232
0.16062582
0.15951471
0.15849122
0.15753773
0.15665264
0.15587312
0.15525919
0.15472481
0.15428122
0.15372027
0.15402684
0.12959857
0.13236685
0.13540213
0.13861468
0.14196368
0.14540785
0.14890496
0.15241038
0.15587942
0.15926572
0.16251094
0.16553001
0.16816276
0.16995319
0.17010809
0.1678419
0.16478099
0.16337818
0.16233952
0.16125386
0.16019796
0.15919273
0.15824984
0.15735833
0.15651872
0.15577122
0.155181
0.15466868
0.1542414
0.15368249
0.15401
0.12798703
0.1305959
0.13346432
0.13653099
0.13976988
0.14314572
0.14661784
0.15013949
0.15365885
0.15711744
0.16044147
0.16352185
0.16615868
0.1678188
0.16766288
0.16526597
0.16315111
0.16229006
0.16152051
0.16062338
0.15970933
0.15882373
0.15797297
0.15715125
0.15636353
0.15565347
0.15509019
0.15460315
0.15419267
0.15363806
0.15399164
0.12713108
0.12952155
0.13216133
0.13500665
0.1380418
0.14124454
0.14458096
0.14800719
0.15146916
0.15489964
0.15820851
0.1612564
0.16378722
0.16518484
0.16458088
0.16252543
0.16150562
0.16109918
0.16060486
0.15991576
0.159155
0.15840037
0.15765475
0.15691212
0.15618328
0.15551691
0.15498457
0.15452707
0.15413273
0.15359038
0.15397077
0.12691817
0.12904995
0.13141935
0.13399207
0.13675465
0.1396981
0.14280016
0.1460242
0.1493174
0.15260579
0.15578095
0.1586625
0.16091122
0.16181226
0.16089766
0.15993492
0.15982104
0.15980511
0.15958546
0.1591256
0.15853412
0.15791855
0.15729026
0.15663744
0.15597517
0.15535906
0.15486218
0.15443888
0.15405965
0.15353251
0.15394589
0.12731444
0.12911089
0.13113169
0.13335983
0.13579006
0.13840933
0.14120002
0.14412973
0.14714551
0.15016373
0.15304936
0.15555609
0.15723876
0.15754331
0.1573199
0.15762063
0.15810422
0.15842072
0.15845407
0.15824775
0.15784404
0.15737584
0.15687385
0.15632142
0.15573506
0.15517687
0.15472055
0.15433683
0.15397284
0.15346476
0.1539148
0.12793122
0.12941069
0.13108134
0.13293536
0.13498286
0.13721708
0.13961806
0.14214972
0.14475175
0.14732258
0.14970444
0.15162665
0.15268547
0.15318464
0.15432691
0.15549855
0.15636479
0.15695235
0.15725619
0.15726568
0.15707846
0.1567711
0.15640345
0.1559603
0.15545953
0.15496853
0.15455839
0.15421865
0.15387235
0.15338299
0.15387464
0.12834767
0.1295345
0.13089361
0.13239952
0.13404791
0.13583879
0.13776812
0.13980272
0.1418737
0.14386265
0.14562645
0.14705829
0.14838113
0.1501118
0.15192017
0.15341609
0.15458131
0.15542909
0.15598565
0.15622146
0.15621827
0.15609568
0.15587504
0.15555202
0.15514424
0.15472989
0.15437325
0.15408033
0.15375679
0.15328421
0.15382175
0.12797285
0.12876317
0.12974962
0.13094181
0.13227262
0.13372266
0.13532496
0.13698963
0.13867107
0.14033446
0.1420699
0.14390905
0.14586614
0.14788671
0.14977361
0.15146471
0.15283832
0.15389625
0.15465281
0.15511054
0.15529881
0.15533658
0.15528075
0.15509762
0.15479052
0.15445694
0.15416218
0.15391975
0.15362525
0.15316714
0.15375332
0.12846874
0.12899961
0.12961985
0.13035884
0.13128309
0.13239176
0.13368044
0.13505107
0.13652527
0.13818924
0.14009849
0.14225176
0.14425621
0.14613653
0.14797625
0.14968778
0.15118106
0.15238774
0.15330816
0.15393246
0.15433242
0.15452013
0.15460765
0.15458397
0.15439974
0.15414578
0.15391906
0.15373496
0.15347549
0.15303549
0.15367243
0.13018707
0.1306907
0.13122849
0.13179721
0.13237252
0.13295614
0.13365314
0.13462353
0.13580895
0.13728126
0.13886701
0.14072685
0.1428214
0.14481172
0.14655683
0.14817738
0.14964489
0.15094227
0.15197894
0.15274319
0.15330055
0.15366054
0.15388071
0.15399634
0.15396086
0.15379869
0.15364032
0.15352362
0.15330736
0.15289261
0.15356517
0.13120642
0.13159225
0.13205447
0.13262163
0.1333262
0.13416227
0.13499668
0.13581189
0.13663956
0.13740353
0.13847481
0.13992161
0.1415732
0.14338563
0.14524537
0.14687301
0.14829926
0.14957287
0.15069776
0.15156918
0.15223617
0.15274949
0.15310681
0.15334834
0.15345862
0.15341322
0.15332808
0.15328167
0.15311891
0.15273345
0.15341514
0.13306941
0.13337587
0.13372145
0.13410465
0.13452574
0.13499446
0.13555186
0.13626034
0.1371725
0.1381554
0.13902431
0.1398379
0.14109192
0.14251876
0.1440955
0.1457084
0.14713978
0.14836982
0.14948281
0.15044176
0.15119221
0.15180608
0.15228741
0.15265231
0.15289833
0.15298075
0.15298551
0.15300461
0.15290534
0.15255428
0.15324582
0.13444695
0.13467261
0.13493616
0.13524413
0.13560729
0.13603744
0.13653943
0.13710718
0.13774214
0.13850733
0.13945514
0.14038814
0.14112375
0.14222635
0.14347199
0.14479975
0.14612414
0.14733393
0.1483916
0.1493765
0.15021887
0.15087407
0.15144847
0.1519224
0.15228303
0.15249931
0.1526041
0.15269156
0.1526603
0.15235287
0.15304997
0.13602789
0.13621084
0.13642227
0.13666545
0.13694498
0.13726492
0.13763143
0.13805655
0.13855351
0.13912692
0.139803
0.14064199
0.14152505
0.14223646
0.14317078
0.14425645
0.14537919
0.14646426
0.1474599
0.1484047
0.14928992
0.15000764
0.15063416
0.15118721
0.15162485
0.15197344
0.15217793
0.15235389
0.15237674
0.15213567
0.15283325
0.13746584
0.13759899
0.13775391
0.13793417
0.13814537
0.13839468
0.13869031
0.13903945
0.13944667
0.13991303
0.14042971
0.14100554
0.1417001
0.14244508
0.14309148
0.14391454
0.14491072
0.14585388
0.14676648
0.14761559
0.14845093
0.14920384
0.14988071
0.15047032
0.15096292
0.15141906
0.15172858
0.15200046
0.15206857
0.15190346
0.15257361
0.13887882
0.13898582
0.13911002
0.13925383
0.13942058
0.13961396
0.13983799
0.14009717
0.14039614
0.14073809
0.14112497
0.14155469
0.14202269
0.14259781
0.14320673
0.14382988
0.14456398
0.14536881
0.14626735
0.14709649
0.14782023
0.14850201
0.14917132
0.14978783
0.15031904
0.15084983
0.1512724
0.15161978
0.15174559
0.15167217
0.15223469
0.14013251
0.14021084
0.14030288
0.14041039
0.14053577
0.14068256
0.14085501
0.1410578
0.14129234
0.14155302
0.14184242
0.14218031
0.14255493
0.14295288
0.14343699
0.14394961
0.14447244
0.1450394
0.14575196
0.14651264
0.14732832
0.14792852
0.1485116
0.14912039
0.14967575
0.15024936
0.15077512
0.15120669
0.15142445
0.15143354
0.1518738
0.14132797
0.14138495
0.14145103
0.14152882
0.14162165
0.1417322
0.14186206
0.14201291
0.14218652
0.14238477
0.14261436
0.14287966
0.14317517
0.14350108
0.14384034
0.14420796
0.14457184
0.14499413
0.1455453
0.14608529
0.14667529
0.14732124
0.14790468
0.14848739
0.14906027
0.14964001
0.15023336
0.15074509
0.15106528
0.15113481
0.15159127
0.14240504
0.14244928
0.14250223
0.14256505
0.14263874
0.14272442
0.14282335
0.1429371
0.14306644
0.14321169
0.14337355
0.14355393
0.14375785
0.14398514
0.14423796
0.14454144
0.1448727
0.14517502
0.14549909
0.14590021
0.14628497
0.14674171
0.14732829
0.14791726
0.14852902
0.14913279
0.14974395
0.15030031
0.15067061
0.15079431
0.15123582
0.14355835
0.14359679
0.14364151
0.14369303
0.14375198
0.14381907
0.14389463
0.14397788
0.14406673
0.14415868
0.1442533
0.14435143
0.14445052
0.1445524
0.1446549
0.14478737
0.14495257
0.14514501
0.14541004
0.14571382
0.14602289
0.14643423
0.14688209
0.14746607
0.14814064
0.14877306
0.14945531
0.15004584
0.15037967
0.15055821
0.15075654
0.14489264
0.14491333
0.14493478
0.1449561
0.14497638
0.1449947
0.14501011
0.14502122
0.14502555
0.1450199
0.14500037
0.14496626
0.1449226
0.14488371
0.14486508
0.14487839
0.14493418
0.14503438
0.14517424
0.14538217
0.14562107
0.14592762
0.14630181
0.14692768
0.14777858
0.14848508
0.14924955
0.14988996
0.15023245
0.15040275
0.15040593
0.14574161
0.14573381
0.14572381
0.14571132
0.14569583
0.14567664
0.14565293
0.14562418
0.14558969
0.14554802
0.14549756
0.14543305
0.14534763
0.145247
0.14515076
0.1450701
0.14501492
0.14502036
0.14513049
0.14530071
0.14549162
0.14575362
0.14600597
0.14645558
0.14739043
0.14819262
0.149062
0.14972044
0.15007255
0.1501388
0.15028225
0.14632656
0.14631243
0.14629492
0.14627375
0.14624856
0.1462188
0.14618371
0.14614256
0.14609445
0.14603912
0.14597843
0.14590945
0.14582619
0.14571824
0.14559939
0.1455113
0.14545537
0.14543914
0.14550009
0.14562266
0.14578692
0.14601663
0.14610437
0.14642267
0.14728287
0.14801207
0.14874346
0.14932108
0.14962743
0.14987085
0.15022296
0.14658891
0.14657414
0.14655644
0.14653552
0.14651092
0.14648201
0.14644781
0.14640748
0.14636034
0.14630555
0.14624284
0.1461722
0.14609433
0.1460099
0.14592429
0.14584958
0.14580042
0.14579104
0.14584879
0.14596093
0.14615973
0.14638405
0.1464392
0.14665129
0.14728629
0.14790439
0.14852721
0.14906798
0.14937388
0.14974937
0.15011521
0.11110647
0.11932415
0.12691438
0.13388468
0.1405023
0.14663997
0.15192609
0.15695766
0.16163181
0.16592296
0.16984755
0.17343567
0.1766962
0.17958737
0.18199103
0.18342519
0.18349638
0.18101148
0.17521317
0.16995782
0.16654548
0.1639938
0.16185741
0.16006807
0.15856737
0.15736278
0.15636687
0.15552347
0.15473851
0.15419532
0.15403549
0.12108662
0.12801786
0.13432605
0.14024816
0.14588194
0.15111816
0.15591431
0.16039631
0.16452337
0.16830876
0.17178746
0.17499056
0.1779162
0.18050959
0.18260174
0.18370208
0.1834293
0.18041449
0.17443461
0.16945417
0.16625516
0.16379925
0.16172001
0.15997019
0.15849966
0.15731619
0.15633572
0.15550256
0.15472863
0.15418846
0.15403866
0.12688745
0.13322115
0.13917506
0.14475764
0.14996218
0.15474381
0.15910673
0.16312057
0.1668019
0.17018701
0.17331485
0.1762125
0.17886934
0.18122133
0.18305155
0.18388054
0.18326839
0.17982836
0.17378998
0.16908654
0.16603225
0.16363588
0.16159766
0.15987735
0.1584319
0.15726624
0.15630069
0.15547898
0.15471928
0.15418126
0.15404999
0.13414044
0.1397976
0.14500765
0.14984064
0.15432706
0.15845044
0.16222789
0.16571322
0.16893014
0.17191536
0.1747026
0.17730976
0.17971476
0.18184418
0.18342637
0.18397202
0.18305228
0.17920613
0.17315311
0.16871255
0.1657908
0.16346013
0.16146831
0.15978163
0.1583636
0.15721738
0.15626735
0.1554568
0.15470945
0.15417358
0.15406113
0.14158643
0.14628972
0.15064824
0.15470638
0.1584736
0.1619434
0.16514214
0.16811122
0.1708806
0.17348578
0.17595286
0.17828888
0.18045939
0.1823785
0.18370335
0.18401163
0.18278949
0.17853962
0.17254693
0.16837184
0.16556838
0.16329558
0.16134574
0.15968935
0.15829643
0.15716811
0.1562331
0.15543413
0.15469933
0.15416496
0.15406856
0.14920256
0.1528632
0.15627234
0.1594655
0.16245152
0.16523739
0.16784539
0.17030559
0.17264494
0.1748917
0.17706041
0.17914529
0.18109773
0.1828101
0.18389814
0.18400319
0.18246901
0.17785977
0.17197638
0.16805052
0.16534945
0.16313181
0.16122349
0.15959744
0.15822949
0.15711903
0.15619902
0.15541084
0.15468861
0.15415542
0.15407978
0.15678348
0.15929763
0.1616783
0.16396821
0.16616972
0.16827945
0.17031067
0.17228359
0.17421741
0.17613049
0.17802383
0.17987807
0.18162871
0.18313851
0.18402031
0.18395548
0.18209959
0.17717428
0.17144307
0.16774949
0.1651398
0.16297384
0.16110515
0.15950794
0.15816364
0.15707016
0.15616475
0.15538707
0.15467751
0.154145
0.15410143
0.16399059
0.16535489
0.16672498
0.16813869
0.16958413
0.17104284
0.17252518
0.17404019
0.17559699
0.17720311
0.17884514
0.18049016
0.18205632
0.18337185
0.18407794
0.18387198
0.1816843
0.17648743
0.17094717
0.16746474
0.16493607
0.16281906
0.16098877
0.15941972
0.15809832
0.15702137
0.15613031
0.15536285
0.15466578
0.15413371
0.15412969
0.17057982
0.17086393
0.17132034
0.17191848
0.17265187
0.17350257
0.17447722
0.17557054
0.17678244
0.17811042
0.17952666
0.18098527
0.18238515
0.18352004
0.18409397
0.18374182
0.18121978
0.17581409
0.1704875
0.16719421
0.16473891
0.16266854
0.16087535
0.15933351
0.15803397
0.15697287
0.15609582
0.15533872
0.15465373
0.15412158
0.15414308
0.1764489
0.1757875
0.17540367
0.17525227
0.17533273
0.17563861
0.17615741
0.17687053
0.17777271
0.17885288
0.18006997
0.18136523
0.18261395
0.18359129
0.18407377
0.18355597
0.18071341
0.17515704
0.17006176
0.16693561
0.16454742
0.1625216
0.16076429
0.15924891
0.15797035
0.1569245
0.15606114
0.15531437
0.15464116
0.1541086
0.15415075
0.18149609
0.1800217
0.17889825
0.17809507
0.1776107
0.17743998
0.17755446
0.17793568
0.1785662
0.1794287
0.18047305
0.18162462
0.18272943
0.18360358
0.18401084
0.18330974
0.18017468
0.17452436
0.16966747
0.16668742
0.16436145
0.16237842
0.16065587
0.15916621
0.15790769
0.15687641
0.15602641
0.15528964
0.15462831
0.15409477
0.15415434
0.18557192
0.18345852
0.18175
0.18042428
0.17947482
0.17889173
0.17866237
0.1787615
0.17915688
0.17982859
0.18072329
0.18174901
0.18275491
0.18357156
0.18389549
0.18301452
0.17961466
0.17392098
0.1693014
0.16644833
0.16418067
0.1622388
0.1605499
0.15908527
0.15784589
0.15682856
0.15599154
0.15526454
0.15461506
0.15408018
0.15415633
0.18861089
0.18606504
0.18394102
0.18222083
0.18090415
0.17998921
0.17946869
0.17931827
0.17951605
0.1800283
0.18081812
0.18177405
0.18273071
0.18348374
0.18371629
0.18267578
0.17904771
0.17334954
0.16896022
0.16621756
0.16400492
0.16210277
0.1604465
0.15900624
0.15778511
0.15678108
0.15595661
0.15523934
0.1546015
0.15406494
0.15415731
0.19070334
0.18782912
0.18540808
0.18340927
0.18182702
0.18065946
0.17990857
0.17957944
0.17965197
0.18008146
0.18082041
0.18172756
0.18263874
0.18332102
0.18347793
0.18230115
0.17848201
0.17281095
0.16864097
0.16599466
0.16383409
0.16197034
0.16034566
0.15892914
0.15772542
0.15673401
0.15592166
0.15521411
0.15458749
0.15404917
0.15415717
0.19201482
0.18889957
0.18624772
0.18404353
0.18228083
0.18095244
0.18005863
0.17964206
0.17966612
0.18005119
0.18073
0.18158506
0.18245442
0.18308777
0.18318542
0.18189741
0.17792432
0.17230625
0.16834176
0.16577941
0.1636682
0.16184158
0.1602475
0.15885409
0.15766695
0.15668746
0.15588678
0.15518882
0.15457327
0.15403289
0.15415594
0.1926876
0.18947338
0.18668386
0.18434343
0.18246271
0.18104121
0.18007481
0.17959345
0.17955784
0.17988494
0.18050431
0.18133143
0.1821824
0.18278902
0.18284374
0.18147104
0.17737925
0.17183497
0.16805938
0.16557152
0.16350719
0.16171647
0.16015198
0.15878104
0.15760968
0.15664142
0.15585198
0.15516333
0.15455866
0.15401617
0.15415391
0.19209651
0.18912348
0.18645982
0.18416215
0.18227684
0.18083483
0.17985435
0.17933403
0.17924009
0.17953109
0.18013659
0.18096494
0.18182501
0.18242932
0.18245853
0.1810267
0.17685096
0.17139569
0.16779163
0.16537089
0.1633509
0.16159484
0.16005895
0.15870986
0.15755354
0.15659583
0.15581722
0.15513773
0.15454377
0.15399905
0.15415109
0.19021852
0.18759973
0.18524289
0.18318708
0.18147212
0.18014014
0.17922973
0.17875621
0.17868751
0.17899561
0.1796258
0.18048444
0.18138274
0.18201188
0.18203518
0.18056887
0.17634271
0.1709876
0.16753684
0.16517693
0.16319895
0.16147635
0.15996816
0.15864037
0.15749846
0.15655066
0.15578247
0.15511199
0.15452852
0.15398155
0.15414713
0.18765934
0.185383
0.18334952
0.18158969
0.18012539
0.17899259
0.17823954
0.17788601
0.17790299
0.17828221
0.17897259
0.17988952
0.18085452
0.18153909
0.18157936
0.18010119
0.1758565
0.17060845
0.1672929
0.16498926
0.16305125
0.16136107
0.15987978
0.1585728
0.15744473
0.15650621
0.155748
0.1550863
0.15451312
0.15396368
0.15414188
0.18426341
0.18245551
0.18083946
0.17945186
0.17830839
0.17744568
0.17692127
0.17673856
0.17689541
0.1773937
0.17817869
0.17918077
0.1802392
0.18101215
0.18109552
0.17962808
0.17539299
0.17025594
0.16705924
0.16480867
0.16290902
0.16125022
0.15979499
0.15850817
0.15739324
0.1564632
0.15571434
0.15506107
0.15449791
0.15394546
0.15413598
0.18004374
0.17880934
0.17771632
0.17679333
0.17604917
0.17553282
0.17528881
0.17532365
0.17567508
0.17633366
0.17724688
0.17836031
0.17953632
0.1804305
0.18058754
0.17915747
0.17495343
0.16992975
0.16683848
0.16463857
0.16277549
0.16114648
0.15971587
0.15844803
0.1573451
0.15642239
0.1556819
0.15503641
0.1544829
0.15392687
0.15412991
0.17501539
0.1744447
0.17398695
0.17362975
0.17337337
0.17326391
0.17333687
0.17365006
0.17424524
0.17510254
0.17617655
0.17742753
0.17874302
0.17979063
0.18005849
0.17869976
0.17454367
0.16963647
0.1666374
0.16448344
0.16265381
0.1610518
0.15964335
0.1583926
0.15730013
0.15638332
0.15565001
0.15501154
0.15446711
0.15390785
0.15412349
0.16910423
0.16922867
0.16953051
0.1698854
0.17021682
0.17058032
0.17104044
0.17168928
0.17258122
0.17368338
0.17495465
0.17637248
0.17784951
0.17908239
0.17950648
0.17825596
0.17417662
0.16938675
0.16645803
0.16434061
0.16254031
0.16096208
0.15957332
0.15833806
0.15725503
0.1563432
0.15561643
0.15498446
0.15444885
0.15388827
0.15411721
0.16248386
0.16298369
0.16391644
0.16508102
0.16615853
0.1671637
0.16815201
0.16922788
0.17051952
0.17196158
0.1734958
0.17512875
0.17680155
0.1782607
0.17890528
0.17782176
0.17386945
0.16916824
0.1662787
0.16418929
0.16241718
0.16086249
0.15949394
0.15827514
0.15720277
0.15629699
0.15557786
0.15495321
0.15442752
0.15386815
0.15411197
0.10920684
0.11745899
0.12475744
0.13165989
0.13828724
0.14434299
0.14992149
0.15515049
0.16003139
0.16454577
0.16869383
0.17249323
0.17594844
0.17901671
0.18160233
0.18322906
0.18350032
0.1812728
0.17560818
0.17023601
0.16673242
0.16413699
0.16196858
0.16015558
0.15863375
0.15741377
0.15640448
0.1555508
0.15474882
0.15420251
0.1540307
0.10956464
0.11827895
0.12540009
0.13201425
0.13828583
0.14407697
0.14949444
0.15461045
0.15944011
0.16396343
0.16816287
0.17203612
0.1755728
0.17871765
0.18137549
0.18306117
0.1834156
0.18127674
0.1757008
0.17030488
0.1667804
0.16417787
0.16200165
0.16018274
0.15865419
0.15742912
0.15641411
0.15555544
0.15474785
0.15420268
0.15402322
0.11068809
0.11955793
0.12632522
0.13245806
0.13826998
0.14376721
0.14897907
0.15396614
0.15874158
0.16327434
0.16752943
0.1714848
0.17511438
0.17835007
0.1810923
0.18286939
0.18330385
0.18129296
0.1758162
0.17037623
0.16681581
0.16420476
0.16202229
0.16019968
0.1586665
0.15743826
0.15641921
0.15555771
0.15474523
0.15420232
0.15402664
0.11209653
0.12062204
0.1270787
0.13284091
0.13827974
0.14347332
0.1484743
0.15332382
0.15803114
0.16255974
0.16686058
0.17089305
0.17461459
0.17794407
0.18077125
0.18264985
0.18318167
0.18130115
0.17593775
0.17046094
0.16685939
0.16423748
0.16204753
0.16022052
0.158682
0.15745045
0.15642739
0.15556226
0.15474356
0.1542019
0.15403019
0.11378862
0.12181886
0.12791299
0.13328608
0.13834618
0.14324568
0.1480157
0.15270817
0.15732866
0.16183576
0.1661689
0.17027006
0.17407945
0.17750275
0.18041479
0.18239876
0.18303924
0.18129258
0.17605445
0.17055058
0.16690892
0.16427637
0.16207842
0.16024653
0.1587018
0.15746665
0.15643892
0.15556953
0.15474322
0.15420221
0.15402328
0.11580833
0.12320039
0.12884264
0.13378633
0.1384913
0.14308317
0.14759339
0.15211001
0.15662902
0.16110086
0.16545447
0.16961574
0.17350815
0.17702399
0.18002152
0.18211261
0.18287041
0.18126332
0.17616487
0.17063718
0.16695751
0.16431579
0.16211049
0.16027394
0.15872316
0.15748385
0.15645092
0.15557636
0.15474235
0.15420247
0.15401101
0.11809507
0.12467552
0.12978319
0.13432503
0.13865145
0.1428883
0.14715172
0.15149839
0.15591448
0.16034547
0.16471242
0.16892752
0.17289903
0.17650612
0.17959076
0.1817876
0.1826515
0.18120517
0.17626391
0.17071651
0.16699942
0.16435148
0.16214071
0.16030044
0.15874303
0.15750015
0.15646214
0.15558195
0.15473971
0.15420146
0.15400218
0.12025278
0.12602517
0.13067763
0.13482609
0.13866312
0.14256619
0.14662969
0.15083628
0.15516263
0.1595563
0.16393464
0.1682001
0.1722477
0.17594476
0.17911857
0.18142167
0.18240214
0.18111392
0.17634558
0.1707874
0.16703497
0.16437985
0.1621643
0.16032197
0.15876083
0.15751546
0.15647255
0.15558662
0.15473608
0.15419583
0.15399422
0.12241615
0.12738916
0.13133344
0.13486176
0.13842339
0.14208847
0.14599311
0.15009091
0.15435066
0.15871972
0.16311397
0.16742993
0.17155244
0.1753388
0.17860412
0.18101436
0.18210898
0.18098628
0.17640672
0.17084574
0.16705896
0.16440502
0.16218735
0.16034259
0.15877554
0.15752794
0.1564812
0.15558996
0.15473093
0.15418973
0.1539831
0.12370965
0.12768061
0.13115926
0.13445554
0.1377994
0.141387
0.14519837
0.14923012
0.15345584
0.15782098
0.1622416
0.16661183
0.17080959
0.17468496
0.17804365
0.18056214
0.1817718
0.1808205
0.17644238
0.17089538
0.16707989
0.16441707
0.1622006
0.16035847
0.15878813
0.15753984
0.15648908
0.1555913
0.15472395
0.15418278
0.15396909
0.12343729
0.12702798
0.13022419
0.13344069
0.13682304
0.14039984
0.14419431
0.14822176
0.15245688
0.15684646
0.16130961
0.1657416
0.1700171
0.17398199
0.17743578
0.18006342
0.18139065
0.1806186
0.1764499
0.17092349
0.16708067
0.16441457
0.16220084
0.16036598
0.158798
0.15754967
0.15649336
0.15559012
0.15471492
0.15417777
0.15395307
0.12195804
0.12534307
0.12860847
0.13195374
0.13542886
0.13908129
0.14294999
0.14704333
0.15133761
0.1557851
0.16031101
0.16481489
0.1691723
0.17322777
0.17677794
0.17951567
0.18096576
0.18037456
0.17642777
0.17092253
0.16706542
0.16440607
0.16220136
0.16036728
0.15879983
0.15755232
0.15649385
0.15558577
0.15470348
0.15416723
0.15393475
0.11937208
0.12294859
0.1264247
0.12995606
0.13361467
0.13744395
0.14146931
0.14569253
0.15009386
0.1546329
0.15924283
0.1638301
0.16827429
0.17242132
0.17606841
0.17891659
0.18049257
0.18007312
0.17635259
0.17090592
0.1670249
0.16439337
0.16219995
0.16036402
0.15879674
0.1575516
0.15649133
0.15558075
0.15468888
0.15415502
0.15391199
0.11630532
0.12005933
0.12378905
0.12758362
0.13149842
0.13556472
0.13979731
0.14419416
0.1487385
0.1533961
0.15810809
0.16278876
0.16732373
0.1715627
0.17530609
0.17826379
0.17996392
0.17970422
0.17620235
0.17085806
0.16696955
0.16436581
0.16218701
0.16035269
0.15878607
0.15754639
0.15648788
0.15557275
0.15467045
0.15414161
0.15388437
0.11316934
0.11708
0.12104317
0.12509206
0.12926022
0.13356622
0.13801519
0.14259976
0.14730286
0.15209312
0.15691739
0.16169698
0.16632393
0.17065357
0.1744908
0.17755503
0.17937422
0.17926772
0.17599344
0.17077057
0.16689363
0.16431502
0.16215134
0.1603264
0.15876804
0.15753749
0.15648095
0.15555971
0.15464759
0.15412522
0.15384979
0.11033711
0.11434352
0.11846699
0.12270615
0.12707585
0.13158263
0.13622167
0.14097852
0.14583324
0.15075367
0.15568927
0.16056614
0.16528189
0.16969764
0.17362319
0.17678767
0.1787158
0.17878133
0.17572881
0.17064173
0.16678415
0.16423684
0.16209982
0.16029357
0.15874374
0.15752229
0.15646771
0.15554084
0.15461949
0.15410558
0.15381003
0.10799536
0.11203218
0.11623504
0.12058602
0.12508679
0.12973345
0.13451296
0.13940458
0.14438384
0.14941559
0.15444908
0.15941268
0.16420785
0.16870049
0.17270554
0.17595948
0.17798379
0.17821732
0.17541091
0.17046285
0.16663619
0.16412955
0.16203166
0.16025107
0.15870736
0.15749784
0.15644762
0.15551509
0.15458543
0.15408232
0.15376486
0.10621663
0.11022704
0.11443889
0.11882828
0.12338888
0.12810905
0.13296948
0.13794581
0.14300886
0.1481199
0.15322641
0.15825705
0.16311532
0.16767052
0.17174252
0.17507309
0.17718437
0.1775537
0.17502689
0.17022622
0.16644751
0.16399306
0.16194279
0.1601899
0.15865484
0.15746382
0.15641966
0.15548143
0.15454464
0.1540554
0.15371389
0.10502115
0.10895645
0.11311885
0.11748371
0.12203915
0.12676882
0.13165029
0.13665693
0.14175603
0.14690582
0.15205172
0.15712169
0.16202005
0.1666184
0.17074054
0.1741336
0.17632714
0.176839
0.17456347
0.1699253
0.16621454
0.16382398
0.16182763
0.16010429
0.1585882
0.1574185
0.15638189
0.15543888
0.15449612
0.15402448
0.15365617
0.10440715
0.10822462
0.11228368
0.11656681
0.12106023
0.12574305
0.13059107
0.13557563
0.14066196
0.14580639
0.1509529
0.15602877
0.16093865
0.16555574
0.16970703
0.17314558
0.17541048
0.17604993
0.17401369
0.16955297
0.16593092
0.16361627
0.16168227
0.15999446
0.15850611
0.15735897
0.15633191
0.15538604
0.15443931
0.15398806
0.15359181
0.10430625
0.10800128
0.11193164
0.11608867
0.12046573
0.12504823
0.12981169
0.13472491
0.13975135
0.14484615
0.14995257
0.1549977
0.1598867
0.16449423
0.16865018
0.17211301
0.17443421
0.17518304
0.17337163
0.16910282
0.16559112
0.16336488
0.16150106
0.1598574
0.15840349
0.15728259
0.1562688
0.15532102
0.15437312
0.15394388
0.15351953
0.10462745
0.10816375
0.1119632
0.11599357
0.12023505
0.12468028
0.12931536
0.13411286
0.13903621
0.14403958
0.14906605
0.15404317
0.1588771
0.16344424
0.1675775
0.17104048
0.17339958
0.17423904
0.172635
0.16856916
0.16519085
0.16306461
0.16128115
0.15968665
0.15827532
0.15718823
0.15619074
0.15524283
0.15429651
0.15389003
0.15344139
0.10550258
0.10878774
0.11235516
0.11619996
0.12029451
0.12459727
0.12907824
0.13372884
0.13851414
0.14338973
0.14829987
0.15317345
0.15791843
0.16241355
0.16649517
0.16993253
0.17230768
0.17321722
0.17180045
0.16794618
0.16472515
0.16271113
0.16101257
0.15947547
0.15812106
0.15707448
0.15609498
0.15514903
0.15420819
0.15382622
0.15334987
0.10688159
0.10992477
0.1132395
0.11682119
0.12066713
0.12476632
0.12908269
0.13355602
0.13817253
0.14288995
0.14765215
0.15238999
0.15701408
0.1614063
0.1654071
0.16879204
0.17115943
0.17211575
0.17086368
0.16722968
0.16418846
0.16229853
0.16069424
0.15922086
0.15793647
0.15693647
0.15598044
0.15503855
0.15410639
0.15375053
0.15324899
0.1086379
0.11142773
0.11448597
0.11781328
0.12140296
0.12523925
0.12930546
0.13358258
0.13799788
0.14252743
0.1471134
0.15168723
0.15616174
0.16042222
0.16431399
0.16761977
0.16995444
0.17093369
0.16982308
0.1664172
0.16357622
0.16181939
0.16031519
0.15892224
0.15772053
0.15677186
0.15584222
0.15490977
0.15399107
0.1536613
0.15313585
0.11070833
0.11324057
0.11603175
0.11908776
0.12240694
0.12597949
0.12978637
0.13379767
0.13799331
0.14229666
0.14667508
0.15105702
0.15535501
0.15945695
0.16321307
0.16641382
0.1686904
0.16966925
0.16867725
0.1655055
0.1628819
0.16127155
0.15986783
0.15856922
0.15746936
0.15657815
0.1556764
0.15475879
0.15386398
0.15355793
0.15300519
0.11301294
0.11529085
0.11781402
0.12059237
0.12362843
0.12691713
0.13044444
0.13418643
0.13810715
0.14217621
0.14632631
0.15049031
0.15458528
0.15850292
0.16209831
0.1651696
0.16736347
0.16832001
0.16742571
0.1644939
0.16210315
0.16064544
0.15935561
0.15817002
0.15718334
0.15635329
0.15548285
0.15458723
0.15372393
0.15343746
0.15285451
0.11548026
0.11751226
0.11977282
0.12227493
0.12502487
0.12802211
0.13125759
0.13471279
0.13835864
0.14215507
0.14604457
0.14996635
0.15383581
0.15754698
0.1609596
0.16387963
0.16596839
0.16688365
0.16606981
0.16338235
0.16123169
0.15992863
0.1587707
0.15771383
0.15685832
0.15609087
0.1552599
0.1543926
0.1535696
0.1533004
0.15268131
0.11804209
0.11983875
0.12184513
0.1240762
0.12654118
0.12924347
0.13217861
0.13533288
0.13868147
0.14218561
0.14579938
0.14945977
0.15308533
0.15657175
0.15978323
0.1625336
0.16449801
0.16535627
0.16460756
0.16216447
0.16025937
0.15911808
0.15811885
0.15721512
0.15648832
0.15578627
0.15500767
0.15417949
0.15340086
0.15314408
0.1524832
0.12063453
0.12220673
0.12396842
0.12593559
0.12811948
0.13052663
0.13315677
0.13600122
0.13904122
0.14224748
0.14557087
0.14895182
0.1523145
0.1555588
0.15855331
0.16111899
0.16294341
0.16373201
0.16303408
0.16083209
0.15918416
0.15822696
0.15740712
0.15668172
0.15606968
0.15543584
0.15471827
0.15394151
0.15321374
0.15296811
0.1522581
0.12320327
0.12456222
0.12608991
0.12780258
0.12971278
0.1318296
0.13415652
0.13668962
0.13941429
0.14230202
0.14531454
0.14840744
0.15149614
0.1544861
0.15725195
0.1596223
0.16129589
0.16200617
0.16134801
0.1593939
0.15802919
0.15728334
0.15665173
0.15608943
0.15559026
0.15504222
0.15439371
0.15367801
0.15300322
0.15276808
0.15200791
0.12569192
0.12684839
0.12815275
0.12962064
0.13126505