/*--------------------------------*- C++ -*----------------------------------*\
| =========                 |                                                 |
| \\      /  F ield         | OpenFOAM: The Open Source CFD Toolbox           |
|  \\    /   O peration     | Version:  2406                                  |
|   \\  /    A nd           | Website:  www.openfoam.com                      |
|    \\/     M anipulation  |                                                 |
\*---------------------------------------------------------------------------*/
FoamFile
{
    version     2.0;
    format      ascii;
    arch        "LSB;label=32;scalar=64";
    class       volScalarField;
    location    "0.001";
    object      p;
}
// * * * * * * * * * * * * * * * * * * * * * * * * * * * * * * * * * * * * * //

dimensions      [1 -1 -2 0 0 0 0];

internalField   nonuniform List<scalar> 
8260
(
100691.33
100585.38
100518.74
100442.36
100370.33
100316.65
100283.47
100270.32
100275.57
100298.71
100341.46
100402.76
100476.41
100563.01
100652.55
100755.06
100815.06
100866.15
100912.36
100955.75
100996.51
101035.97
101074.29
101112
101149.55
101186.91
101223.09
101259.14
101293.17
101328.23
101355.76
100879.33
100787.21
100695.37
100597.39
100510.84
100443.44
100396.77
100370.56
100362.33
100372.69
100403.44
100454.01
100518.24
100596.79
100676.16
100771.84
100823.89
100875.28
100919.44
100961.25
101000.84
101039.43
101077.1
101114.32
101151.53
101188.64
101224.58
101260.4
101294.16
101329.03
101357.55
101000.5
100916.88
100818.83
100714.16
100620.92
100545.1
100488.6
100452.51
100435.11
100433.96
100455.32
100497.27
100554.71
100628.43
100702.05
100790.09
100836.23
100886.6
100927.94
100967.82
101005.99
101043.54
101080.44
101117.09
101153.87
101190.66
101226.31
101261.86
101295.29
101329.92
101359.45
101096.46
101018.96
100923.17
100818.18
100721.82
100640.28
100575.76
100530.11
100503.35
100494.12
100506.99
100540.87
100592.14
100661.45
100730.46
100809.43
100851.66
100899.36
100937.65
100975.33
101011.9
101048.26
101084.28
101120.26
101156.55
101192.97
101228.3
101263.51
101296.57
101330.91
101361.41
101177.33
101105.2
101015.06
100913.88
100818.08
100734.03
100664.3
100611.22
100576.19
100559.6
100564.29
100590.16
100635.03
100698.99
100762.54
100830.27
100870.33
100913.69
100948.69
100983.91
101018.67
101053.67
101088.66
101123.87
101159.6
101195.59
101230.54
101265.37
101297.99
101332
101363.41
101242.68
101174.61
101091.28
100997.66
100906.38
100823.46
100751.84
100694.28
100653.12
100629.97
100627.21
100645.48
100684.05
100741.81
100798.6
100853.3
100892.24
100929.74
100961.22
100993.68
101026.38
101059.82
101093.66
101127.98
101163.06
101198.54
101233.07
101267.46
101299.58
101333.17
101365.43
101289
101226.98
101153.1
101069.08
100984.97
100906.24
100835.91
100776.92
100732.13
100704
100695.04
100706.6
100739.4
100790.12
100838.39
100879.56
100917.12
100947.8
100975.38
101004.79
101035.19
101066.84
101099.35
101132.66
101166.99
101201.89
101235.94
101269.81
101301.35
101334.37
101367.4
101320.68
101265.09
101201.39
101128.37
101053.54
100981.63
100915.46
100857.93
100812.13
100781.06
100767.53
100773.68
100801.61
100843.86
100881.41
100911.24
100944.56
100968.14
100991.31
101017.37
101045.23
101074.83
101105.82
101138
101171.45
101205.66
101239.17
101272.46
101303.35
101335.66
101369.29
101342.81
101292.61
101238.35
101176.95
101113.02
101050.04
100990.44
100936.95
100892.67
100860.85
100844.62
100847
100871.07
100902.48
100927.63
100949.65
100974.25
100990.88
101009.17
101031.52
101056.61
101083.92
101113.19
101144.07
101176.52
101209.93
101242.81
101275.42
101305.6
101337.13
101371.02
101356.64
101317.56
101270.91
101219.27
101166.6
101113.72
101062.26
101014.69
100974.02
100943.48
100926.51
100926.83
100947.05
100966.48
100978.63
100992.81
101006.01
101015.92
101029.1
101047.33
101069.42
101094.24
101121.54
101150.97
101182.28
101214.75
101246.91
101278.74
101308.15
101338.76
101372.53
101362.49
101342.88
101309.45
101266.51
101222.33
101177.95
101134.33
101093.32
101057.48
101029.91
101014.24
101014.13
101029.34
101035.33
101034.47
101037.41
101039.72
101043.18
101051.27
101064.91
101083.69
101105.88
101131.01
101158.78
101188.79
101220.19
101251.51
101282.43
101311
101340.48
101373.78
101386.88
101371.73
101348.45
101318.1
101282.31
101245.61
101209.59
101175.61
101145.74
101122.85
101110.4
101110.01
101114.76
101105.39
101091.08
101081.38
101074.7
101072.46
101075.64
101084.4
101099.45
101118.86
101141.66
101167.6
101196.12
101226.3
101256.65
101286.5
101314.16
101342.29
101374.7
101422.04
101410.19
101391.85
101368.81
101343.43
101317.29
101291.23
101266.48
101244.6
101227.48
101216.35
101207.88
101193.26
101169.16
101144.17
101124.25
101110.53
101102.88
101101.49
101106.12
101116.88
101133.24
101153.53
101177.5
101204.36
101233.12
101262.37
101290.99
101317.58
101344.18
101375.24
101485.01
101480.23
101463.6
101440.05
101419.49
101401.2
101382.75
101364.39
101346.51
101328.85
101310.14
101286.22
101255.43
101222.34
101191.24
101165.61
101146.73
101134.53
101128.66
101129.16
101136.37
101149.15
101166.69
101188.49
101213.56
101240.74
101268.7
101295.95
101321.25
101346.15
101375.38
101564.45
101569.31
101564.14
101546.09
101521.47
101496.12
101470.54
101444.59
101418.97
101391.25
101361.92
101331.46
101298.64
101264.77
101232.7
101204.64
101182.2
101166.35
101156.9
101153.66
101157.21
101166.71
101181.25
101200.56
101223.7
101249.23
101275.71
101301.4
101325.12
101348.13
101375
101552.6
101544.74
101537.54
101533.4
101529.01
101523.35
101510.69
101488.51
101461.59
101431.84
101398.02
101362.36
101328.46
101296.66
101266.79
101239.39
101215.88
101197.57
101185.31
101179.24
101179.18
101185.48
101197.31
101213.89
101234.8
101258.63
101283.47
101307.37
101329.18
101350
101373.78
101549.16
101542.16
101533.43
101522.43
101508.82
101493.11
101479.46
101468.4
101456.19
101443.04
101422.53
101389.66
101353.42
101320.92
101293.21
101268.44
101246.07
101227.28
101213.29
101204.83
101202.22
101205.45
101214.46
101228.54
101247.03
101268.94
101292.01
101313.86
101333.39
101351.64
101371.83
101523.12
101517.84
101511.35
101503.8
101494.99
101484.8
101473.99
101462.77
101448.64
101429.74
101412.97
101398.47
101374.09
101344.05
101315.29
101291.94
101271.93
101254.28
101239.85
101230.04
101225.43
101226.36
101232.74
101244.27
101260.44
101280.24
101301.26
101320.9
101337.74
101353.05
101369.94
101492.06
101487.86
101482.73
101476.91
101470.27
101462.7
101454.05
101444.02
101432.43
101419.57
101403.89
101387.62
101377.69
101362
101336.2
101312.93
101293.55
101277.41
101263.96
101253.8
101248.19
101247.47
101251.83
101261.12
101274.92
101292.5
101311.2
101328.47
101342.24
101354.28
101368.07
101461.36
101458.31
101454.58
101450.35
101445.53
101439.99
101433.61
101426.32
101418.05
101408.76
101398.55
101387.4
101372.16
101359.83
101348.76
101328.7
101311.2
101296.64
101284.86
101275.56
101269.64
101268.12
101271.13
101278.69
101290.43
101305.62
101321.82
101336.4
101346.86
101355.37
101365.56
101433.31
101431.1
101428.39
101425.32
101421.85
101417.86
101413.29
101408.06
101402.09
101395.32
101387.7
101379.56
101371.6
101362.5
101353.05
101340.33
101324.91
101312.61
101302.53
101294.87
101289.59
101287.71
101290
101296.38
101306.54
101319.43
101333
101344.42
101351.43
101356.19
101362.3
101409.03
101407.54
101405.72
101403.67
101401.34
101398.67
101395.6
101392.09
101388.07
101383.51
101378.36
101372.51
101366.21
101358.84
101352.79
101348.47
101337.49
101325.65
101317.1
101311.18
101307.65
101306.29
101308.06
101313.65
101322.55
101333.48
101344.4
101352.3
101355.59
101356.53
101358.66
101389.82
101388.88
101387.72
101386.4
101384.91
101383.2
101381.22
101378.95
101376.33
101373.35
101369.93
101366.1
101361.78
101357.09
101351.4
101347.46
101346.37
101339.09
101330.54
101325.29
101323.38
101323.43
101325.49
101330.34
101338.11
101347.33
101355.72
101360.03
101359.07
101356.2
101354.67
101376.61
101376
101375.26
101374.42
101373.45
101372.34
101371.06
101369.62
101367.99
101366.16
101364.1
101361.81
101359.26
101356.43
101353.7
101350.53
101348.41
101347.84
101343.92
101340.38
101338.37
101338.96
101341.71
101346.48
101353.15
101360.75
101366.84
101367.74
101362.11
101355.34
101349.38
101371.69
101371.37
101370.97
101370.49
101369.93
101369.27
101368.51
101367.65
101366.66
101365.54
101364.29
101362.91
101361.43
101359.92
101358.35
101356.74
101353.91
101350.16
101350.07
101352.17
101352.4
101353.03
101355.74
101360.62
101366.56
101372.67
101376.77
101375
101365.67
101354.66
101343.13
101373.64
101373.38
101373.08
101372.74
101372.34
101371.9
101371.39
101370.83
101370.2
101369.5
101368.71
101367.86
101366.93
101365.91
101364.74
101363.19
101361.12
101360.93
101361.71
101360.86
101361.67
101363.24
101365.95
101370.3
101375.5
101380.53
101383.27
101380.02
101369.1
101354.06
101338.84
101382.55
101382.2
101381.81
101381.37
101380.88
101380.34
101379.74
101379.08
101378.36
101377.56
101376.69
101375.75
101374.76
101373.77
101372.97
101372.77
101372.9
101372.49
101371.33
101369.71
101369.16
101369.89
101371.42
101373.91
101377.95
101382.25
101384.15
101380.11
101369.07
101351.44
101338.04
101390.38
101390.03
101389.63
101389.2
101388.73
101388.22
101387.65
101387.01
101386.28
101385.43
101384.44
101383.29
101382.01
101380.63
101379.12
101377.46
101377.02
101377.21
101376.41
101376.28
101376.32
101376.81
101376.81
101376.3
101377.56
101379.41
101379.83
101375.14
101364.05
101345.61
101335.1
101394.4
101394
101393.56
101393.08
101392.58
101392.04
101391.46
101390.81
101390.09
101389.27
101388.34
101387.25
101385.97
101384.51
101382.73
101380.66
101378.36
101376.74
101376.22
101375.84
101375.77
101376.22
101376.97
101376.89
101376.05
101374.82
101372.99
101367.62
101357.34
101341.06
101329.65
101394.51
101394.27
101393.98
101393.64
101393.26
101392.84
101392.36
101391.82
101391.18
101390.45
101389.59
101388.55
101387.27
101385.64
101383.72
101381.57
101379.26
101376.85
101374.69
101373.08
101371.87
101370.53
101369.32
101369.88
101370.89
101369.91
101366.56
101359.98
101351.15
101338.19
101327.16
101390.27
101390.17
101390.05
101389.91
101389.75
101389.57
101389.37
101389.13
101388.86
101388.52
101388.13
101387.67
101387.1
101386.42
101385.69
101384.96
101384.21
101383.5
101382.8
101382.02
101381.24
101380.33
101378.62
101376.45
101372.91
101367.73
101361.14
101353.12
101345.15
101334.44
101326.6
99808.109
99776.005
99745.125
99721.144
99706.25
99706.511
99723.305
99754.563
99803.738
99869.785
99950.472
100043.18
100145.66
100253.02
100369.91
100478.78
100598.25
100687.77
100750.4
100820.73
100882.55
100938.55
100989.62
101036.75
101081.21
101123.76
101164.81
101205.68
101244.73
101283.2
101305.95
99775.851
99746.429
99715.568
99694.354
99686.463
99694.702
99719.802
99761.477
99819.185
99891.405
99976.175
100071.11
100173.79
100279.57
100393.41
100498.62
100613.62
100691.09
100756.3
100827.34
100888.48
100943.72
100994.14
101040.77
101084.86
101127.12
101167.93
101208.61
101247.46
101285.91
101308.84
99694.248
99663.089
99638.524
99629.266
99635.311
99657.509
99696.379
99749.759
99817.109
99897.037
99987.472
100086.17
100190.69
100296.81
100410.34
100516.53
100626.56
100696.32
100764.32
100834.66
100894.67
100949.01
100998.72
101044.83
101088.53
101130.48
101171.03
101211.5
101250.14
101288.54
101311.29
99593.842
99572.817
99561.185
99566.203
99586.655
99622.293
99672.999
99736.858
99812.979
99899.806
99995.26
100097.36
100203.67
100310.73
100424.72
100533.2
100638.93
100702.11
100772.72
100841.83
100900.76
100954.24
101003.27
101048.87
101092.17
101133.81
101174.1
101214.34
101252.76
101291.11
101313.46
99472.167
99467.003
99473.719
99497.487
99535.611
99586.885
99650.683
99725.574
99810.486
99903.9
100003.97
100109.08
100217
100325.86
100438.76
100548.75
100650.28
100708.62
100781.25
100848.9
100906.77
100959.4
101007.76
101052.86
101095.77
101137.11
101177.13
101217.14
101255.34
101293.6
101315.44
99336.903
99354.711
99384.748
99429.82
99486.671
99553.899
99630.886
99716.587
99809.877
99909.447
100013.73
100121.5
100230.91
100342.16
100453.88
100562.76
100660.13
100716.23
100789.77
100855.81
100912.67
100964.47
101012.19
101056.8
101099.33
101140.37
101180.12
101219.89
101257.86
101296.03
101317.01
99199.691
99243.854
99298.843
99365.701
99441.295
99524.187
99614.008
99709.939
99810.974
99916.145
100024.15
100134.19
100244.96
100358.75
100469.54
100575.23
100668.88
100724.52
100798.19
100862.58
100918.46
100969.45
101016.53
101060.67
101102.83
101143.58
101183.06
101222.6
101260.33
101298.4
101318.29
99071.134
99142.119
99220.403
99308.068
99401.574
99499.111
99600.794
99706.006
99813.947
99924.042
100035.17
100147
100259.02
100375.07
100484.81
100586.01
100676.97
100733.25
100806.46
100869.2
100924.12
100974.33
101020.79
101064.47
101106.26
101146.72
101185.95
101225.25
101262.74
101300.72
101319.7
98956.884
99053.173
99151.956
99259.384
99369.416
99479.746
99591.851
99705.132
99818.975
99933.228
100046.8
100159.95
100273.29
100390.36
100497.79
100596.59
100685.06
100742.22
100814.53
100875.68
100929.65
100979.09
101024.96
101068.19
101109.62
101149.81
101188.78
101227.84
101265.09
101302.99
101321.49
98860.183
98978.206
99098.579
99222.757
99346.296
99466.935
99587.817
99707.623
99826.189
99943.814
100059.17
100173.49
100288.63
100403.49
100508.49
100608.72
100693.19
100751.23
100822.38
100882.01
100935.04
100983.74
101029.02
101071.81
101112.91
101152.82
101191.54
101230.36
101267.37
101305.2
101323.65
98790.339
98926.266
99062.45
99198.141
99331.241
99461.618
99589.542
99713.891
99835.88
99956.228
100072.94
100188.73
100304.89
100414.62
100518.63
100620.97
100701.3
100760.29
100829.97
100888.19
100940.29
100988.26
101032.98
101075.34
101116.11
101155.76
101194.23
101232.81
101269.59
101307.37
101325.95
98751.898
98899.227
99044.786
99188.008
99327.803
99463.854
99596.481
99724.753
99849.031
99971.489
100089.03
100205.14
100316.67
100423.83
100530.32
100632.74
100709.62
100769.34
100837.32
100894.22
100945.38
100992.65
101036.82
101078.76
101119.21
101158.61
101196.84
101235.19
101271.73
101309.46
101328.23
98746.058
98898.286
99047.007
99193.01
99335.739
99474.778
99610.824
99741.776
99866.856
99988.892
100104.11
100216.26
100325.92
100435.4
100542.1
100643.86
100718.21
100778.37
100844.42
100900.07
100950.31
100996.9
101040.53
101082.07
101122.22
101161.38
101199.38
101237.5
101273.81
101311.47
101330.51
98762.274
98919.559
99069.053
99214.47
99356.814
99496.157
99632.607
99761.686
99883.93
99999.71
100113.35
100228.5
100338.89
100447.06
100553.52
100654.47
100726.92
100787.33
100851.26
100905.74
100955.08
101001
101044.12
101085.27
101125.12
101164.06
101201.84
101239.73
101275.81
101313.39
101332.78
98782.584
98945.403
99098.256
99244.732
99385.878
99521.738
99653.52
99776.63
99893.369
100009.87
100128.22
100242.74
100352.19
100458.18
100564.54
100664.68
100735.6
100796.15
100857.84
100911.21
100959.69
101004.95
101047.56
101088.34
101127.92
101166.64
101204.21
101241.88
101277.75
101315.22
101335.04
98856.967
99001.574
99140.804
99278.584
99413.941
99544.359
99667.49
99789.832
99913.092
100030.21
100145.33
100257.65
100365.18
100468.87
100575.16
100674.5
100744.19
100804.71
100864.15
100916.48
100964.11
101008.74
101050.86
101091.28
101130.6
101169.12
101206.49
101243.95
101279.61
101316.94
101337.27
99023.106
99139.482
99249.688
99362.63
99478.664
99594.999
99708.833
99823.865
99940.422
100053.1
100163.48
100273.01
100378.03
100479.31
100585.34
100683.9
100752.62
100812.95
100870.21
100921.55
100968.37
101012.38
101054.03
101094.09
101133.16
101171.51
101208.69
101245.95
101281.4
101318.56
101339.49
99176.232
99277.259
99368.112
99461.196
99558.747
99659.062
99759.896
99863.796
99971.677
100077.49
100182.64
100288.89
100390.92
100489.59
100594.97
100692.83
100760.88
100820.84
100876.05
100926.42
100972.45
101015.86
101057.05
101096.78
101135.62
101173.79
101210.8
101247.86
101283.12
101320.08
101341.68
99353.502
99432.103
99499.141
99570.176
99647.797
99730.28
99815.721
99907.909
100006.24
100103.68
100202.91
100305.23
100403.93
100499.77
100603.99
100701.29
100768.94
100828.37
100881.71
100931.1
100976.37
101019.18
101059.93
101099.32
101137.95
101175.96
101212.82
101249.7
101284.77
101321.51
101343.85
99554.914
99607.485
99647.074
99692.725
99747.345
99809.036
99877.644
99956.978
100043.42
100132.01
100224.23
100321.84
100416.96
100509.95
100612.36
100709.17
100776.83
100835.52
100887.16
100935.55
100980.07
101022.3
101062.62
101101.71
101140.13
101178.01
101214.73
101251.44
101286.34
101322.84
101345.98
99778.268
99801.296
99810.607
99828.159
99856.731
99895.029
99947.024
100010.79
100083.15
100162.4
100246.64
100338.65
100429.94
100520.22
100619.96
100716.09
100784.43
100842.12
100892.28
100939.67
100983.48
101025.16
101065.08
101103.89
101142.14
101179.92
101216.53
101253.1
101287.83
101324.1
101348.06
100023.34
100012.99
99989.529
99976.266
99976.299
99992.959
100026.01
100069.77
100127.67
100196.35
100271.45
100356.62
100443.5
100530.95
100626.74
100721.5
100791.33
100847.79
100896.9
100943.37
100986.53
101027.72
101067.3
101105.88
101144
101181.71
101218.24
101254.69
101289.28
101325.28
101350.07
100299.61
100256.4
100201.47
100153.94
100124.52
100114.85
100122.24
100145.32
100184.37
100239.02
100302.71
100378.98
100459.96
100543.66
100633.41
100726.3
100796.88
100852.33
100901.09
100946.83
100989.39
101030.14
101069.42
101107.8
101145.8
101183.46
101219.92
101256.27
101290.72
101326.4
101351.97
100581.44
100521.7
100461.61
100390.31
100322.65
100275.54
100250.5
100247.26
100263.01
100295.64
100343.93
100408.41
100481.38
100560.33
100642.61
100734.72
100802.12
100857.14
100905.82
100950.76
100992.62
101032.85
101071.75
101109.87
101147.71
101185.28
101221.64
101257.87
101292.14
101327.45
101353.81
99856.229
99836.074
99813.621
99794.47
99779.406
99774.632
99785.321
99809.824
99851.48
99909.853
99983.167
100068.93
100164.95
100265.93
100374.89
100477.46
100581.81
100676.51
100741.2
100814.19
100877.35
100934.09
100985.73
101033.28
101078.07
101120.86
101162.12
101203.14
101242.39
101280.87
101302.88
99858.182
99840.166
99822.297
99807.239
99796.307
99795.532
99804.675
99827.581
99866.775
99922.037
99992.05
100074.65
100167.93
100267.05
100373.65
100478.33
100578.35
100676.58
100740.51
100812.21
100875.07
100931.84
100983.57
101031.22
101076.1
101118.97
101160.31
101201.4
101240.76
101279.16
101300.16
99850.229
99833.805
99821.83
99813.456
99809.029
99811.614
99823.19
99847.025
99885.215
99938.181
100005.23
100084.64
100174.81
100271.56
100375.06
100480.01
100578.91
100676.38
100740.25
100810.99
100873.53
100930.16
100981.84
101029.46
101074.33
101117.19
101158.56
101199.66
101239.03
101277.3
101297.28
99841.517
99831.996
99825.835
99822.687
99823.232
99829.449
99844.022
99869.219
99906.853
99957.792
100021.89
100097.95
100184.62
100278.45
100378.45
100481.97
100579.48
100675.25
100739.2
100809.38
100871.77
100928.31
100979.95
101027.54
101072.39
101115.24
101156.62
101197.71
101237.09
101275.25
101294.39
99831.172
99828.883
99828.641
99830.735
99836.371
99847.096
99864.724
99891.607
99929.205
99978.586
100040.03
100112.82
100195.96
100286.59
100383.17
100483.81
100578.85
100673.97
100738.04
100807.47
100869.71
100926.17
100977.77
101025.35
101070.2
101113.05
101154.45
101195.55
101234.95
101272.98
101291.63
99817.128
99821.851
99828.119
99836.518
99847.386
99862.347
99884.142
99913.407
99951.535
99999.85
100058.98
100128.71
100208.35
100295.67
100388.9
100485.91
100579.01
100672.93
100736.95
100805.56
100867.53
100923.86
100975.41
101022.96
101067.81
101110.64
101152.07
101193.18
101232.6
101270.47
101288.88
99800.849
99812.889
99826.115
99841.443
99857.053
99875.721
99902.97
99935.18
99974.235
100021.84
100078.94
100145.76
100221.95
100305.85
100395.72
100489.54
100580.29
100672.1
100736
100803.78
100865.36
100921.49
100972.95
101020.44
101065.26
101108.07
101149.51
101190.63
101230.05
101267.72
101285.92
99785.275
99804.781
99824.401
99844.832
99866.269
99892.763
99923.602
99958.03
99997.983
100045.01
100100.23
100164.2
100236.95
100317.31
100403.7
100494.39
100582.17
100671.76
100735.28
100802.17
100863.27
100919.11
100970.41
101017.8
101062.58
101105.33
101146.77
101187.88
101227.27
101264.75
101282.74
99775.942
99803.685
99827.668
99848.338
99878.006
99914.05
99947.104
99982.949
100023.46
100069.78
100123.09
100184.21
100253.48
100330.17
100412.9
100500.26
100585.12
100672.07
100734.82
100800.74
100861.2
100916.71
100967.82
101015.06
101059.74
101102.42
101143.83
101184.91
101224.25
101261.49
101279.36
99775.496
99800.688
99830.047
99867.374
99905.362
99939.995
99973.993
100010.81
100051.33
100096.57
100147.79
100205.96
100271.64
100344.51
100423.4
100507.17
100589.21
100673.21
100734.75
100799.7
100859.31
100914.33
100965.13
101012.16
101056.74
101099.32
101140.66
101181.68
101220.96
101257.87
101275.79
99787.533
99827.188
99866.768
99903.874
99938.076
99971.313
100005.8
100042.57
100082.23
100125.83
100174.61
100229.61
100291.54
100360.4
100435.24
100515.18
100594.45
100674.91
100735.31
100798.75
100857.21
100912.06
100962.55
101009.21
101053.55
101096.02
101137.24
101178.18
101217.37
101253.85
101271.93
99846.534
99882.907
99916.259
99947.371
99978.428
100010.42
100043.8
100079.03
100116.78
100157.99
100203.84
100255.35
100313.32
100377.96
100448.54
100524.4
100600.6
100675.45
100735.52
100798.07
100855.57
100909.99
100959.91
101006.1
101050.15
101092.45
101133.57
101174.42
101213.44
101249.44
101267.73
99922.061
99948.356
99975.478
100002.07
100029.48
100058.22
100088.48
100120.67
100155.36
100193.38
100235.7
100283.34
100337.08
100397.28
100463.38
100534.91
100607.37
100676.51
100736.65
100797.7
100854.36
100907.68
100956.89
101002.86
101046.61
101088.71
101129.66
101170.32
101209.12
101244.58
101263.12
100007.87
100026.3
100047.19
100068.09
100090.12
100113.84
100139.49
100167.42
100198.06
100232.07
100270.32
100313.67
100362.91
100418.42
100479.81
100546.77
100615.06
100679.46
100739.16
100797.89
100853.26
100905.29
100953.84
100999.6
101042.93
101084.69
101125.44
101165.85
101204.39
101239.19
101258
100099.71
100111.34
100125.96
100140.89
100157.08
100175.21
100195.59
100218.56
100244.47
100273.9
100307.58
100346.31
100390.78
100441.4
100497.89
100560.05
100623.75
100683.99
100742.75
100798.64
100852.25
100903.12
100950.98
100996.2
101039.04
101080.37
101120.84
101160.98
101199.2
101233.24
101252.2
100190.27
100196.61
100206
100215.81
100226.81
100239.71
100254.93
100272.83
100293.79
100318.36
100347.22
100381.08
100420.61
100466.2
100517.62
100574.79
100633.61
100690.91
100747.13
100799.92
100851.59
100901.22
100948.17
100992.61
101034.88
101075.74
101115.88
101155.68
101193.51
101226.7
101245.62
100275.29
100278.04
100283.56
100289.46
100296.31
100304.83
100315.51
100328.72
100344.93
100364.71
100388.74
100417.69
100452.22
100492.71
100539
100591.08
100645.28
100700.25
100752.1
100801.81
100851.39
100899.57
100945.38
100988.88
101030.49
101070.82
101110.54
101149.92
101187.26
101219.5
101238.17
100353.02
100353.52
100356.4
100359.54
100363.37
100368.53
100375.51
100384.72
100396.7
100412.07
100431.51
100455.71
100485.32
100520.77
100561.94
100608.95
100658.8
100710.14
100757.66
100804.41
100851.69
100898.16
100942.63
100985.08
101025.92
101065.57
101104.77
101143.63
101180.38
101211.55
101229.78
100422.88
100422.17
100423.42
100424.8
100426.59
100429.36
100433.53
100439.57
100448.02
100459.54
100474.83
100494.61
100519.56
100550.12
100586.29
100628.25
100673.58
100720.25
100764.02
100807.78
100852.51
100897.03
100939.99
100981.26
101021.13
101059.98
101098.54
101136.77
101172.81
101202.81
101220.39
100485.81
100484.43
100484.58
100484.84
100485.32
100486.45
100488.62
100492.28
100497.96
100506.3
100518.02
100533.86
100554.51
100580.47
100611.84
100648.82
100689.48
100731.3
100771.34
100811.93
100853.89
100896.25
100937.51
100977.4
101016.09
101054.02
101091.82
101129.29
101164.48
101193.21
101209.92
100539.41
100539.09
100540
100540.08
100539.61
100539.57
100540.34
100542.27
100545.86
100551.7
100560.49
100572.94
100589.76
100611.5
100638.33
100670.51
100706.52
100743.57
100779.67
100816.89
100855.89
100895.88
100935.2
100973.48
101010.83
101047.69
101084.57
101121.12
101155.27
101182.68
101198.29
100591.46
100589.36
100588.5
100588.21
100588.37
100588.3
100588.31
100589.15
100591.29
100595.28
100601.74
100611.39
100624.92
100642.87
100665.51
100693.14
100724.63
100756.98
100788.98
100822.68
100858.54
100895.95
100933.09
100969.55
101005.37
101040.96
101076.71
101112.2
101145.13
101171.09
101185.44
100638.3
100636.77
100635.79
100634.54
100633.34
100632.68
100632.59
100632.95
100634.14
100636.8
100641.5
100648.9
100659.65
100674.29
100693.14
100716.53
100743.66
100771.39
100799.24
100829.33
100861.88
100896.48
100931.21
100965.64
100999.68
101033.79
101068.22
101102.45
101133.99
101158.32
101171.26
100679.86
100678.51
100677.83
100676.99
100675.96
100674.94
100674.19
100673.87
100674.43
100676.23
100679.65
100685.27
100693.72
100705.51
100720.97
100740.45
100763.44
100786.7
100810.4
100836.78
100865.9
100897.49
100929.6
100961.74
100993.76
101026.16
101059.04
101091.8
101121.76
101144.25
101155.59
100718.7
100717.51
100716.76
100715.81
100714.79
100713.9
100713.2
100712.71
100712.78
100713.85
100716.23
100720.44
100726.99
100736.34
100748.79
100764.72
100783.8
100802.76
100822.35
100844.99
100870.59
100899.01
100928.27
100957.87
100987.63
101018.06
101049.12
101080.18
101108.36
101128.77
101138.38
100755.01
100754.07
100753.42
100752.54
100751.55
100750.58
100749.83
100749.52
100749.31
100749.63
100751.31
100754.42
100759.39
100766.64
100776.43
100789.13
100804.55
100819.41
100834.98
100853.9
100875.93
100900.99
100927.26
100954.03
100981.27
101009.44
101038.39
101067.5
101093.7
101111.82
101119.58
100789.24
100788.51
100787.97
100787.18
100786.27
100785.35
100784.5
100783.89
100783.86
100784.25
100785.2
100787.29
100790.91
100796.32
100803.76
100813.53
100825.51
100836.5
100848.21
100863.44
100881.89
100903.43
100926.45
100950.2
100974.66
101000.26
101026.81
101053.71
101077.69
101093.35
101099.12
100822.01
100821.49
100821.09
100820.41
100819.63
100818.84
100818.11
100817.53
100817.2
100817
100817.35
100818.85
100821.43
100825.3
100830.64
100837.74
100846.52
100853.86
100861.89
100873.51
100888.38
100906.31
100925.82
100946.4
100967.79
100990.5
101014.33
101038.72
101060.27
101073.3
101076.94
100853.47
100853.1
100852.78
100852.19
100851.47
100850.74
100850.01
100849.32
100848.78
100848.75
100849.12
100849.79
100851.22
100853.59
100856.99
100861.64
100867.4
100871.32
100875.84
100883.99
100895.32
100909.58
100925.45
100942.6
100960.62
100980.13
101000.88
101022.46
101041.37
101051.65
101053.03
100884.21
100883.94
100883.7
100883.19
100882.56
100881.89
100881.21
100880.55
100879.96
100879.56
100879.39
100879.48
100880.01
100881.07
100882.69
100885.05
100887.98
100888.7
100889.94
100894.75
100902.61
100913.2
100925.34
100938.73
100953.14
100969.1
100986.45
101004.84
101020.93
101028.4
101027.46
100914.39
100914.14
100913.92
100913.45
100912.86
100912.21
100911.54
100910.84
100910.1
100909.34
100908.67
100908.18
100907.85
100907.67
100907.62
100907.84
100908.11
100905.88
100904.06
100905.76
100910.2
100917.06
100925.37
100934.79
100945.31
100957.37
100971
100985.85
100998.92
101003.57
101000.39
100944.03
100943.7
100943.44
100942.95
100942.34
100941.64
100940.86
100940.02
100939.06
100938.09
100937.12
100935.98
100934.71
100933.3
100931.65
100929.84
100927.6
100922.68
100918.09
100916.84
100917.99
100921.07
100925.43
100930.73
100937.1
100944.94
100954.54
100965.49
100975.33
100977.19
100972.11
100973.36
100972.84
100972.49
100971.97
100971.31
100970.53
100969.64
100968.61
100967.37
100965.82
100964.11
100962.29
100960.18
100957.63
100954.48
100950.78
100946.21
100938.86
100931.95
100927.83
100925.76
100925.18
100925.51
100926.49
100928.48
100931.85
100937.16
100943.86
100950.26
100949.44
100943.05
101001.85
101001.03
101000.51
100999.93
100999.19
100998.27
100997.16
100995.83
100994.25
100992.34
100990.09
100987.47
100984.36
100980.58
100975.93
100970.38
100963.62
100954.01
100945.19
100938.6
100933.41
100929.13
100925.51
100922.1
100919.46
100918.17
100918.98
100921.17
100923.99
100920.62
100913.72
101028.92
101027.65
101026.89
101026.2
101025.31
101024.19
101022.81
101021.13
101019.1
101016.67
101013.78
101010.34
101006.23
101001.22
100995.07
100987.73
100979.02
100967.68
100957.37
100948.94
100940.69
100932.8
100925.35
100917.57
100910.11
100904.1
100900.23
100897.88
100896.98
100891.14
100884.67
101052.29
101050.6
101049.63
101048.85
101047.89
101046.63
101045.05
101043.13
101040.78
101037.92
101034.47
101030.35
101025.42
101019.42
101011.94
101002.9
100992.4
100980.43
100968.63
100957.74
100947.2
100936.33
100924.87
100912.83
100900.68
100889.83
100881.26
100874.57
100870.11
100862.01
100856.4
101070.53
101068.43
101067.21
101066.34
101065.3
101063.96
101062.28
101060.24
101057.76
101054.78
101051.12
101046.63
101041.08
101034.14
101025.44
101014.8
101002.61
100990.25
100978.25
100966.07
100953.24
100939.22
100924.05
100907.89
100891.23
100875.66
100862.53
100851.99
100844.5
100834.7
100829.47
101085.1
101082.52
101080.73
101079.24
101077.57
101075.61
101073.37
101070.84
101067.92
101064.53
101060.54
101055.69
101049.62
101042.1
101033.09
101022.62
101011.09
100999.22
100986.89
100973.43
100958.31
100941.38
100922.92
100902.86
100881.94
100861.95
100844.67
100830.88
100821.06
100810.39
100804.83
101089.47
101087.1
101085.23
101083.51
101081.53
101079.12
101076.17
101072.69
101069.34
101067.61
101066.91
101063.11
101055.97
101047.77
101038.71
101028.82
101018.18
101006.55
100993.37
100978.79
100961.97
100942.62
100921.35
100897.96
100873.22
100849.28
100828.45
100812.04
100800.73
100789.94
100783.9
101092.23
101090.27
101088.5
101086.92
101085.16
101083.1
101080.81
101078.33
101075.19
101070.09
101063.79
101059.72
101055.26
101048.21
101040.1
101031.1
101021.13
101009.84
100997.17
100982.03
100963.63
100942.78
100919.37
100893.28
100865.55
100838.46
100814.78
100796.49
100784.53
100774.22
100768.22