/*--------------------------------*- C++ -*----------------------------------*\
| =========                 |                                                 |
| \\      /  F ield         | OpenFOAM: The Open Source CFD Toolbox           |
|  \\    /   O peration     | Version:  2406                                  |
|   \\  /    A nd           | Website:  www.openfoam.com                      |
|    \\/     M anipulation  |                                                 |
\*---------------------------------------------------------------------------*/
FoamFile
{
    version     2.0;
    format      ascii;
    arch        "LSB;label=32;scalar=64";
    class       volScalarField;
    location    "0.001";
    object      rho;
}
// * * * * * * * * * * * * * * * * * * * * * * * * * * * * * * * * * * * * * //

dimensions      [1 -3 0 0 0 0 0];

internalField   nonuniform List<scalar> 
8260
(
1.1970724
1.1958053
1.1949973
1.1940476
1.1931282
1.192415
1.1919421
1.1917122
1.1917141
1.1919483
1.1924408
1.1931848
1.1941068
1.1952145
1.1963744
1.1976586
1.1981733
1.1983154
1.1985763
1.1989157
1.1992467
1.1995706
1.1998878
1.2001992
1.2005122
1.20083
1.2011417
1.2014513
1.2017351
1.2020421
1.202256
1.1989775
1.1979051
1.19682
1.1956401
1.1945807
1.1937385
1.1931376
1.1927815
1.1926479
1.1927511
1.193118
1.1937478
1.1945683
1.1955878
1.1966281
1.1978214
1.1982143
1.1983687
1.19863
1.1989609
1.1992829
1.1996
1.1999118
1.2002192
1.2005292
1.2008447
1.2011545
1.2014622
1.2017437
1.2020493
1.2022734
1.2000645
1.1991144
1.1979806
1.196751
1.1956449
1.1947365
1.1940517
1.1936092
1.1933945
1.1933841
1.1936591
1.1942025
1.1949553
1.1959272
1.1969027
1.1979936
1.1982857
1.1984468
1.1987004
1.1990174
1.1993275
1.1996357
1.1999409
1.2002433
1.2005494
1.2008619
1.2011692
1.2014745
1.2017534
1.202057
1.2022911
1.2008457
1.1999869
1.1989031
1.1976971
1.1965841
1.1956391
1.1948909
1.1943654
1.1940677
1.1939869
1.1941831
1.1946488
1.1953431
1.1962738
1.1971991
1.1981666
1.1983799
1.1985363
1.1987803
1.1990809
1.1993778
1.199676
1.1999737
1.2002705
1.2005723
1.2008813
1.2011859
1.2014885
1.2017642
1.2020656
1.202309
1.2014519
1.2006717
1.1996739
1.1985368
1.1974571
1.1965114
1.1957313
1.1951472
1.1947796
1.1946378
1.1947603
1.1951506
1.1957856
1.1966649
1.1975294
1.1983405
1.1984961
1.1986396
1.198872
1.1991536
1.1994354
1.1997221
1.2000112
1.2003015
1.2005982
1.2009034
1.2012047
1.2015042
1.2017763
1.2020749
1.202327
1.2018831
1.2011615
1.2002588
1.1992307
1.1982277
1.197321
1.1965461
1.1959372
1.1955247
1.1953315
1.1953898
1.1957112
1.1962894
1.1971078
1.1978946
1.1985186
1.1986334
1.198759
1.1989764
1.1992363
1.199501
1.1997744
1.2000538
1.2003367
1.2006277
1.2009283
1.201226
1.2015218
1.2017898
1.2020847
1.202345
1.2021028
1.2014597
1.2006793
1.1997799
1.19888
1.1980447
1.1973092
1.196709
1.1962799
1.1960536
1.1960628
1.1963267
1.1968556
1.1976031
1.1982869
1.198706
1.19879
1.1988982
1.1990951
1.1993305
1.1995759
1.199834
1.2001023
1.2003768
1.2006612
1.2009564
1.2012501
1.2015417
1.201805
1.2020946
1.2023623
1.2021705
1.2016067
1.2009531
1.2001937
1.1994172
1.1986793
1.198013
1.1974524
1.1970352
1.1967982
1.1967769
1.196999
1.1974897
1.1981474
1.1986928
1.1989179
1.1989671
1.19906
1.1992292
1.1994369
1.1996611
1.1999018
1.2001574
1.2004224
1.2006993
1.2009883
1.2012773
1.2015641
1.2018223
1.2021052
1.2023785
1.2021529
1.2016527
1.201113
1.2004966
1.1998577
1.1992373
1.1986637
1.1981688
1.1977896
1.1975649
1.1975334
1.1977318
1.1981952
1.1987301
1.1990992
1.1991631
1.1991707
1.1992453
1.1993798
1.1995565
1.1997576
1.199979
1.2002199
1.2004742
1.2007425
1.2010244
1.2013079
1.2015893
1.2018418
1.2021175
1.2023932
1.2020698
1.2016996
1.201249
1.2007492
1.2002476
1.1997536
1.199286
1.1988738
1.1985523
1.19836
1.1983379
1.1985298
1.1989622
1.1993504
1.1995011
1.1994301
1.199405
1.1994523
1.199548
1.19969
1.1998658
1.2000664
1.2002907
1.2005329
1.2007915
1.2010652
1.2013424
1.2016175
1.2018641
1.2021316
1.2024058
1.201929
1.2017875
1.2014918
1.2010936
1.2006923
1.2003005
1.1999297
1.1996016
1.1993465
1.1992009
1.199207
1.1994063
1.1997836
1.1999783
1.1998745
1.1997171
1.1996691
1.1996794
1.1997353
1.1998385
1.1999859
1.2001646
1.2003708
1.2005993
1.2008469
1.2011112
1.2013811
1.2016488
1.2018891
1.202146
1.2024159
1.202055
1.2019604
1.2017803
1.2015276
1.2012224
1.2009192
1.2006376
1.2003939
1.2002126
1.2001272
1.200177
1.200372
1.2005958
1.200516
1.2002193
1.2000332
1.1999528
1.1999249
1.1999405
1.2000029
1.2001185
1.2002738
1.2004607
1.2006741
1.2009092
1.201163
1.2014244
1.2016835
1.2019167
1.2021614
1.2024231
1.2023588
1.2022959
1.2021669
1.201994
1.2018062
1.201623
1.201455
1.2013165
1.2012257
1.2012024
1.2012538
1.2013156
1.201218
1.2008843
1.2005714
1.2003731
1.2002488
1.2001783
1.200158
1.2001858
1.2002652
1.2003947
1.2005605
1.2007578
1.2009789
1.2012208
1.2014725
1.2017219
1.2019469
1.2021775
1.2024271
1.2030542
1.203068
1.2029504
1.2027605
1.2026184
1.2025159
1.2024241
1.2023446
1.2022786
1.2022142
1.2021174
1.2019088
1.2015631
1.2012133
1.2009337
1.2007108
1.2005478
1.2004417
1.2003859
1.2003792
1.2004288
1.2005284
1.2006709
1.2008501
1.2010563
1.2012853
1.2015257
1.2017643
1.2019791
1.2021943
1.2024279
1.203977
1.2040989
1.2041089
1.2039709
1.2037595
1.2035454
1.2033353
1.2031261
1.2029214
1.2026807
1.2024044
1.2021113
1.2018167
1.2015374
1.2012713
1.2010343
1.2008418
1.2007063
1.2006217
1.2005846
1.2006033
1.2006753
1.2007928
1.2009514
1.2011413
1.201357
1.2015847
1.2018107
1.202013
1.202211
1.2024254
1.2037519
1.2036925
1.2036495
1.203656
1.2036746
1.2036908
1.2036305
1.2034548
1.203223
1.2029577
1.2026481
1.2023374
1.2020528
1.2017913
1.2015484
1.2013211
1.2011233
1.2009654
1.2008569
1.2007978
1.2007877
1.2008311
1.2009263
1.2010631
1.2012343
1.201436
1.20165
1.2018613
1.2020483
1.2022264
1.202416
1.2038264
1.2037704
1.2036935
1.203587
1.2034456
1.2032789
1.2031506
1.2030804
1.2030234
1.2029815
1.2028548
1.2025807
1.2022691
1.201997
1.2017686
1.2015626
1.2013711
1.2012114
1.2010878
1.2010088
1.2009805
1.2009977
1.2010673
1.2011847
1.201337
1.2015223
1.2017216
1.2019161
1.2020846
1.2022398
1.2023977
1.2035721
1.2035339
1.2034863
1.2034332
1.2033738
1.2033041
1.2032225
1.2031267
1.202986
1.2027919
1.2026716
1.2026178
1.2024416
1.202188
1.2019489
1.2017528
1.2015814
1.2014303
1.201306
1.201217
1.2011712
1.201172
1.2012183
1.2013133
1.2014489
1.201617
1.2017989
1.2019751
1.2021221
1.2022509
1.2023782
1.2033326
1.2032991
1.2032564
1.2032075
1.2031516
1.2030882
1.2030181
1.2029412
1.2028569
1.2027577
1.2026055
1.2024502
1.2024206
1.2023237
1.2021136
1.2019222
1.2017561
1.2016159
1.2015011
1.2014116
1.2013572
1.2013452
1.2013759
1.2014518
1.2015687
1.2017195
1.2018819
1.2020381
1.2021606
1.2022602
1.2023613
1.2030585
1.2030344
1.2030041
1.2029704
1.2029328
1.2028901
1.2028409
1.2027842
1.2027202
1.2026516
1.2025817
1.2024865
1.2023328
1.2022568
1.2021922
1.2020334
1.2018931
1.2017693
1.2016681
1.2015882
1.2015332
1.2015133
1.2015345
1.2015973
1.2016979
1.2018292
1.2019716
1.2021036
1.2021991
1.2022679
1.2023412
1.2028326
1.2028151
1.2027929
1.2027682
1.2027404
1.2027085
1.2026718
1.20263
1.2025828
1.2025302
1.2024736
1.2024221
1.2023678
1.2022839
1.2022181
1.2021185
1.2019926
1.2018935
1.2018067
1.2017424
1.2016963
1.2016751
1.2016915
1.2017461
1.2018339
1.2019474
1.2020676
1.2021706
1.2022359
1.2022746
1.2023181
1.2026421
1.20263
1.2026148
1.202598
1.2025794
1.2025585
1.202535
1.2025086
1.2024789
1.2024455
1.2024079
1.2023648
1.2023242
1.2022736
1.2022272
1.2022055
1.202107
1.2019989
1.2019243
1.2018726
1.2018451
1.2018332
1.2018474
1.2018959
1.2019742
1.2020726
1.2021698
1.2022404
1.2022698
1.2022793
1.2022963
1.2025103
1.2025029
1.2024934
1.2024828
1.202471
1.2024576
1.2024421
1.2024242
1.2024038
1.2023808
1.2023546
1.2023255
1.2022922
1.2022607
1.2022166
1.2021883
1.2021997
1.2021308
1.2020508
1.2020016
1.2019827
1.201984
1.2020036
1.202047
1.2021175
1.2022029
1.2022784
1.2023144
1.2023004
1.2022824
1.2022683
1.2024064
1.2024007
1.2023937
1.2023859
1.2023772
1.2023675
1.2023569
1.2023453
1.2023331
1.2023194
1.2023041
1.2022879
1.2022692
1.2022453
1.2022265
1.2022055
1.2021987
1.2022114
1.2021788
1.2021405
1.2021221
1.2021231
1.2021477
1.2021939
1.2022568
1.2023295
1.2023862
1.2023921
1.2023324
1.2022827
1.2022166
1.2023578
1.2023547
1.2023507
1.2023459
1.2023405
1.2023345
1.2023278
1.2023203
1.202312
1.2023028
1.2022933
1.2022834
1.2022726
1.2022623
1.2022505
1.2022364
1.2022059
1.2021737
1.2021909
1.2022175
1.2022236
1.2022318
1.2022588
1.2023093
1.202368
1.202428
1.2024694
1.2024591
1.2023684
1.2022784
1.2021455
1.202316
1.2023133
1.20231
1.2023062
1.2023021
1.2022975
1.2022925
1.2022871
1.2022815
1.2022758
1.20227
1.202264
1.2022578
1.2022511
1.2022451
1.202238
1.2022232
1.2022199
1.2022248
1.2022283
1.2022489
1.2022738
1.2023114
1.2023581
1.2024105
1.2024645
1.2024975
1.2024881
1.202394
1.2022521
1.2020874
1.2023307
1.202328
1.2023249
1.2023213
1.2023172
1.2023127
1.2023075
1.2023017
1.2022951
1.2022879
1.2022798
1.2022709
1.2022616
1.2022527
1.2022465
1.202249
1.2022589
1.2022677
1.2022732
1.2022695
1.2022658
1.2022805
1.202302
1.2023324
1.2023757
1.2024305
1.2024694
1.2024679
1.2023797
1.2021981
1.2020835
1.2023972
1.2023956
1.2023937
1.2023914
1.2023885
1.2023848
1.2023801
1.202374
1.2023661
1.202356
1.2023433
1.2023283
1.202312
1.2022963
1.2022822
1.2022692
1.2022731
1.2022844
1.2022814
1.2022837
1.2022863
1.2022936
1.2022948
1.2022973
1.2023299
1.2023751
1.2024184
1.2024212
1.2023381
1.2021485
1.202092
1.2025305
1.2025266
1.2025222
1.2025171
1.2025113
1.2025046
1.2024969
1.2024877
1.2024766
1.2024632
1.202447
1.2024279
1.2024058
1.2023811
1.2023524
1.2023171
1.2022804
1.2022599
1.2022553
1.2022526
1.2022564
1.2022695
1.2022802
1.2022799
1.2023155
1.2023521
1.2023945
1.2023888
1.2023166
1.2021592
1.202101
1.2026491
1.2026454
1.2026409
1.2026355
1.2026292
1.202622
1.2026138
1.2026043
1.2025933
1.2025804
1.2025652
1.2025464
1.2025214
1.202488
1.2024513
1.2024121
1.2023699
1.2023272
1.2022911
1.2022643
1.2022431
1.2022242
1.2022083
1.2022424
1.2023211
1.2023635
1.2023838
1.202347
1.2022824
1.202175
1.2021317
1.2026224
1.2026211
1.2026193
1.2026171
1.2026146
1.2026116
1.2026082
1.2026042
1.2025996
1.2025941
1.2025877
1.2025802
1.2025714
1.2025613
1.2025462
1.2025296
1.2025106
1.2024891
1.2024738
1.2024646
1.2024615
1.2024563
1.2024303
1.2024165
1.2024158
1.2023842
1.2023389
1.2022761
1.2022121
1.2021197
1.2021085
1.181189
1.1813604
1.181537
1.1817607
1.1820591
1.1825011
1.1831002
1.1838407
1.1847601
1.1858458
1.1870731
1.1884155
1.1898538
1.1913368
1.1929344
1.1944302
1.1960457
1.1971249
1.1975719
1.1979282
1.1983298
1.1987693
1.1991898
1.1995843
1.1999618
1.2003259
1.200676
1.2010243
1.201347
1.201659
1.2018761
1.1814179
1.1815994
1.1817035
1.1818891
1.1822113
1.1826999
1.1833572
1.1841828
1.1851666
1.1862903
1.1875341
1.1888755
1.1902934
1.1917391
1.1932843
1.1947226
1.1962574
1.1971622
1.1975826
1.1979517
1.1983679
1.1988089
1.1992257
1.1996167
1.1999914
1.2003534
1.2007017
1.2010485
1.2013696
1.2016828
1.2019007
1.1808323
1.1809556
1.1811166
1.1814334
1.1819051
1.182537
1.1833325
1.1842663
1.1853325
1.1865173
1.187801
1.1891638
1.1905839
1.192018
1.1935454
1.1949836
1.1964334
1.1972144
1.1976177
1.1979929
1.1984158
1.1988533
1.1992644
1.1996508
1.2000221
1.2003816
1.2007277
1.2010728
1.2013925
1.2017066
1.2019219
1.1800896
1.1803013
1.1805843
1.1810378
1.1816457
1.1824006
1.1833
1.1843222
1.1854587
1.1866951
1.1880122
1.1893935
1.1908171
1.1922485
1.1937683
1.1952229
1.196597
1.1972638
1.1976552
1.1980345
1.1984624
1.198896
1.199302
1.1996842
1.2000523
1.2004093
1.2007534
1.2010967
1.2014147
1.2017297
1.2019403
1.1791276
1.1794812
1.179942
1.1805791
1.1813563
1.1822558
1.1832707
1.1843861
1.1855928
1.1868774
1.188224
1.1896203
1.1910464
1.1924873
1.1939814
1.1954415
1.1967418
1.1973119
1.1976934
1.1980785
1.1985098
1.1989386
1.1993393
1.1997173
1.2000821
1.2004367
1.2007786
1.2011201
1.2014365
1.2017519
1.2019561
1.178041
1.178613
1.1793011
1.1801414
1.1810913
1.1821332
1.1832611
1.1844657
1.1857375
1.187066
1.1884384
1.1898468
1.1912753
1.1927337
1.1942018
1.195634
1.1968632
1.1973648
1.1977329
1.1981239
1.1985568
1.1989804
1.1993759
1.1997498
1.2001114
1.2004636
1.2008034
1.2011431
1.2014577
1.2017734
1.2019669
1.1769675
1.1777846
1.1787063
1.1797452
1.1808616
1.1820387
1.1832737
1.1845602
1.1858901
1.187257
1.1886506
1.1900676
1.1914982
1.1929763
1.1944219
1.1958014
1.1969682
1.1974198
1.1977738
1.1981707
1.1986034
1.1990215
1.199412
1.1997817
1.2001401
1.2004899
1.2008276
1.2011655
1.2014783
1.2017943
1.2019742
1.1760148
1.1770724
1.1781977
1.1794172
1.1806871
1.1819856
1.1833157
1.1846733
1.1860524
1.1874509
1.1888601
1.1902812
1.1917136
1.1932085
1.1946301
1.1959436
1.1970616
1.1974744
1.1978158
1.1982185
1.1986494
1.1990618
1.1994472
1.1998129
1.2001681
1.2005155
1.2008513
1.2011873
1.2014984
1.2018147
1.2019827
1.1752263
1.1765004
1.1777929
1.1791799
1.1805866
1.1819842
1.1833929
1.1848084
1.1862264
1.1876489
1.1890669
1.190488
1.1919243
1.1934212
1.1948045
1.1960795
1.1971504
1.1975269
1.1978591
1.1982669
1.1986945
1.1991011
1.1994816
1.1998433
1.2001954
1.2005405
1.2008743
1.2012084
1.2015177
1.2018345
1.2019945
1.1746222
1.1760703
1.1775464
1.1790656
1.1805733
1.1820419
1.1835117
1.1849686
1.1864134
1.1878524
1.189273
1.1906939
1.192141
1.1936008
1.1949466
1.1962309
1.1972347
1.1975764
1.1979037
1.1983155
1.1987386
1.1991395
1.1995152
1.1998729
1.200222
1.2005647
1.2008965
1.2012287
1.2015364
1.2018539
1.2020101
1.1743055
1.1758855
1.1774762
1.1790665
1.1806308
1.182168
1.1836814
1.1851587
1.1866169
1.1880666
1.1894865
1.1909123
1.1923614
1.1937496
1.1950782
1.1963801
1.197313
1.1976245
1.1979495
1.1983639
1.1987816
1.1991769
1.1995478
1.1999017
1.2002477
1.2005882
1.2009181
1.2012483
1.2015543
1.2018729
1.2020269
1.1743121
1.1759531
1.1775879
1.1792084
1.1808009
1.1823616
1.1838942
1.1853882
1.1868488
1.1883039
1.1897183
1.1911362
1.1925187
1.1938699
1.1952251
1.1965197
1.1973874
1.1976727
1.1979965
1.1984118
1.1988235
1.1992131
1.1995794
1.1999295
1.2002725
1.2006108
1.2009388
1.2012672
1.2015715
1.2018912
1.202044
1.1746368
1.1762764
1.1778927
1.1794954
1.1810781
1.1826358
1.1841768
1.1856756
1.187123
1.1885544
1.1899273
1.1912862
1.1926386
1.1940145
1.1953689
1.1966466
1.1974594
1.1977223
1.1980444
1.1984589
1.1988641
1.1992483
1.1996101
1.1999564
1.2002966
1.2006327
1.2009588
1.2012852
1.2015879
1.2019087
1.2020613
1.1751409
1.1767982
1.1783823
1.1799384
1.1814798
1.1830085
1.1845261
1.1859778
1.1873712
1.1887125
1.1900544
1.191441
1.1927984
1.1941546
1.1955037
1.1967635
1.1975281
1.1977738
1.1980926
1.1985047
1.1989035
1.1992822
1.1996396
1.1999824
1.2003196
1.2006537
1.2009781
1.2013025
1.2016036
1.2019254
1.2020788
1.1756155
1.1773029
1.1788973
1.1804384
1.1819386
1.1833997
1.1848381
1.1861988
1.1875109
1.1888508
1.1902419
1.1916149
1.1929563
1.1942832
1.1956288
1.1968723
1.1975933
1.1978272
1.1981408
1.1985493
1.1989415
1.1993148
1.1996679
1.2000072
1.2003418
1.2006739
1.2009965
1.201319
1.2016185
1.2019409
1.2020965
1.1767276
1.1781478
1.1795397
1.1809463
1.182353
1.1837287
1.1850453
1.1863842
1.1877662
1.1891047
1.1904493
1.1917907
1.1931042
1.1944009
1.1957445
1.196973
1.1976558
1.1978814
1.1981879
1.1985922
1.1989781
1.1993461
1.1996951
1.200031
1.2003629
1.2006932
1.2010142
1.2013349
1.2016327
1.2019553
1.2021142
1.1788862
1.1799523
1.1809697
1.1820503
1.1832004
1.184387
1.1855765
1.1868139
1.1881035
1.1893799
1.1906611
1.1919646
1.1932442
1.1945099
1.1958499
1.1970648
1.1977163
1.1979351
1.1982338
1.1986334
1.1990132
1.199376
1.199721
1.2000537
1.2003832
1.2007116
1.2010311
1.2013501
1.2016462
1.2019685
1.2021318
1.1807201
1.1816275
1.1824261
1.1832706
1.1841939
1.1851797
1.1862038
1.1872983
1.1884754
1.1896625
1.1908764
1.1921372
1.1933785
1.1946114
1.1959436
1.1971473
1.197775
1.1979881
1.1982788
1.1986731
1.1990469
1.1994047
1.1997458
1.2000754
1.2004025
1.2007293
1.2010474
1.2013647
1.2016591
1.2019806
1.2021491
1.1827859
1.1834407
1.1839692
1.184561
1.1852518
1.1860256
1.1868635
1.1878145
1.1888733
1.1899562
1.1910961
1.1923082
1.1935082
1.1947062
1.1960249
1.1972208
1.197832
1.1980402
1.1983231
1.1987113
1.1990791
1.1994319
1.1997693
1.2000959
1.2004207
1.2007459
1.2010629
1.2013787
1.2016714
1.2019916
1.2021659
1.1850786
1.1854455
1.1856654
1.18597
1.1863982
1.1869315
1.1875727
1.188372
1.1892884
1.1902645
1.1913196
1.192475
1.1936322
1.194796
1.1960937
1.1972842
1.1978879
1.1980906
1.1983662
1.1987473
1.1991094
1.1994573
1.1997911
1.200115
1.2004376
1.2007616
1.2010775
1.201392
1.2016832
1.2020017
1.202182
1.1875699
1.1876172
1.1875026
1.1874939
1.1876289
1.1878964
1.1883496
1.188969
1.1897203
1.1905868
1.1915476
1.1926371
1.19375
1.1948822
1.1961493
1.1973332
1.1979418
1.198137
1.1984068
1.1987804
1.1991369
1.1994803
1.1998109
1.2001324
1.2004532
1.200776
1.2010912
1.2014046
1.2016944
1.2020111
1.2021973
1.1902619
1.1899538
1.189483
1.189135
1.1889525
1.1889811
1.1892224
1.1896121
1.1901974
1.1909422
1.1917964
1.1928065
1.1938693
1.1949699
1.1961914
1.1973619
1.1979885
1.1981749
1.198443
1.1988098
1.1991614
1.1995009
1.1998288
1.2001483
1.2004677
1.2007897
1.2011043
1.201417
1.2017055
1.2020199
1.2022121
1.1932691
1.1926247
1.1918256
1.1911048
1.1905994
1.1903358
1.1902871
1.1904425
1.190811
1.191394
1.192116
1.193023
1.1940187
1.1950776
1.1962294
1.1973827
1.1980213
1.1982032
1.1984769
1.1988381
1.1991851
1.199521
1.1998465
1.2001641
1.2004821
1.2008033
1.2011175
1.2014294
1.2017167
1.2020283
1.2022262
1.1962596
1.1954777
1.1946818
1.193732
1.1928097
1.1921279
1.1917137
1.1915716
1.1916745
1.1920021
1.1925461
1.1933167
1.1942212
1.1952285
1.1962954
1.1974493
1.1980566
1.1982408
1.1985199
1.1988733
1.199214
1.1995449
1.1998669
1.2001819
1.2004978
1.2008177
1.201131
1.201442
1.2017278
1.2020363
1.2022402
1.1817206
1.1820572
1.1823138
1.1825767
1.1828521
1.1832153
1.1837408
1.1843998
1.1852322
1.1862333
1.1873822
1.1886523
1.1900239
1.1914402
1.1929504
1.1943774
1.1958213
1.1969808
1.1974854
1.1978724
1.1982817
1.1987271
1.1991529
1.1995517
1.1999323
1.2002987
1.2006507
1.2010002
1.2013242
1.2016348
1.2018471
1.1818228
1.182208
1.1825024
1.182781
1.1830724
1.1834604
1.183945
1.18457
1.1853646
1.1863258
1.1874371
1.1886739
1.1900187
1.1914196
1.192907
1.1943646
1.1957593
1.1969748
1.1974872
1.1978575
1.1982597
1.1987051
1.1991322
1.1995325
1.1999144
1.2002817
1.2006346
1.2009846
1.2013098
1.2016183
1.2018226
1.1818374
1.1822185
1.1825593
1.1828869
1.1832288
1.1836343
1.18413
1.184754
1.1855298
1.1864614
1.1875391
1.1887427
1.1900566
1.1914361
1.1928921
1.1943595
1.1957453
1.1969667
1.1974974
1.197855
1.198248
1.1986909
1.1991175
1.1995177
1.1998996
1.2002667
1.2006198
1.2009698
1.2012948
1.2016008
1.2017966
1.1818601
1.1822758
1.1826617
1.1830281
1.1834057
1.1838327
1.184347
1.1849745
1.1857356
1.1866394
1.1876826
1.18885
1.1901278
1.1914788
1.1928985
1.1943554
1.1957297
1.1969454
1.1974975
1.1978493
1.1982353
1.1986761
1.199102
1.1995021
1.1998838
1.2002504
1.2006036
1.2009532
1.2012778
1.2015813
1.2017711
1.181882
1.182333
1.1827578
1.1831603
1.1835751
1.1840349
1.1845666
1.1852
1.1859512
1.1868318
1.1878427
1.1889742
1.1902149
1.1915339
1.1929181
1.194347
1.1956962
1.1969203
1.1974953
1.1978403
1.1982195
1.1986585
1.1990839
1.199484
1.1998657
1.2002318
1.2005849
1.2009342
1.2012587
1.2015601
1.2017483
1.181871
1.1823527
1.1828176
1.1832672
1.1837214
1.1842096
1.1847715
1.1854187
1.1861665
1.187029
1.1880112
1.1891083
1.190312
1.1915975
1.192947
1.1943386
1.1956693
1.1968962
1.1974927
1.1978309
1.1982022
1.1986387
1.1990635
1.1994636
1.1998453
1.2002116
1.2005649
1.2009138
1.2012381
1.2015364
1.2017265
1.1818349
1.1823502
1.1828587
1.183364
1.1838476
1.1843548
1.1849656
1.1856351
1.1863849
1.1872336
1.18819
1.1892541
1.1904208
1.1916713
1.1929864
1.1943456
1.1956534
1.1968711
1.1974905
1.1978233
1.1981851
1.1986187
1.1990426
1.1994424
1.1998241
1.20019
1.2005433
1.2008917
1.2012157
1.2015107
1.2017034
1.1817866
1.1823462
1.1828962
1.1834284
1.1839504
1.1845351
1.1851753
1.1858604
1.1866129
1.1874499
1.1883822
1.1894139
1.1905434
1.191757
1.1930365
1.1943642
1.1956425
1.1968489
1.1974893
1.1978175
1.1981689
1.1985984
1.1990207
1.1994201
1.1998017
1.2001671
1.2005202
1.2008679
1.2011913
1.2014832
1.2016785
1.1818026
1.1824129
1.1829605
1.1834564
1.1840678
1.1847569
1.1854121
1.1861051
1.1868579
1.1876825
1.1885908
1.1895898
1.1906813
1.1918563
1.1930981
1.1943921
1.1956413
1.1968316
1.197489
1.1978132
1.1981525
1.1985782
1.1989988
1.1993972
1.1997779
1.2001427
1.2004955
1.2008423
1.2011648
1.2014534
1.2016522
1.1818237
1.1823559
1.1829511
1.1836513
1.1843566
1.1850198
1.185679
1.1863778
1.1871264
1.1879356
1.1888182
1.1897834
1.1908357
1.19197
1.1931721
1.1944294
1.195651
1.1968213
1.1974909
1.1978135
1.1981392
1.1985577
1.1989752
1.1993723
1.1997527
1.200117
1.200469
1.2008146
1.2011362
1.2014201
1.2016243
1.1819237
1.1826377
1.1833531
1.1840384
1.1846888
1.1853305
1.1859929
1.1866888
1.1874252
1.1882138
1.1890675
1.1899967
1.1910078
1.1920991
1.1932588
1.1944767
1.1956721
1.1968164
1.1974978
1.1978135
1.1981215
1.198538
1.1989528
1.1993471
1.1997259
1.2000893
1.2004402
1.200785
1.2011052
1.2013834
1.2015945
1.1825696
1.1832381
1.1838729
1.1844816
1.1850923
1.1857194
1.1863694
1.1870475
1.1877613
1.188522
1.189342
1.1902319
1.1911991
1.1922449
1.1933597
1.1945354
1.1957018
1.1967941
1.1974947
1.1978147
1.1981085
1.1985211
1.1989304
1.1993203
1.1996966
1.2000591
1.2004095
1.2007535
1.2010711
1.2013432
1.2015625
1.1833753
1.1839234
1.1844836
1.1850397
1.1856097
1.1862011
1.1868166
1.1874608
1.1881402
1.1888645
1.1896445
1.1904908
1.1914112
1.1924087
1.1934758
1.1946064
1.195736
1.1967732
1.1974978
1.197819
1.1981002
1.1985019
1.1989037
1.199292
1.1996665
1.2000281
1.2003774
1.2007195
1.2010338
1.2012994
1.201528
1.1843035
1.1847537
1.1852388
1.1857285
1.1862367
1.186771
1.1873344
1.1879305
1.1885642
1.1892431
1.1899768
1.1907749
1.1916452
1.1925914
1.193608
1.1946905
1.195778
1.19677
1.1975133
1.197828
1.1980928
1.1984814
1.1988767
1.199264
1.1996353
1.1999951
1.2003427
1.2006823
1.2009928
1.2012513
1.2014901
1.1853219
1.185683
1.1860885
1.1865046
1.1869427
1.1874108
1.1879127
1.1884514
1.1890307
1.1896572
1.1903389
1.1910844
1.1919013
1.1927936
1.193757
1.1947884
1.1958286
1.1967812
1.1975383
1.1978411
1.1980855
1.1984626
1.1988513
1.1992351
1.1996025
1.1999597
1.2003048
1.2006418
1.2009478
1.2011989
1.2014471
1.1863497
1.1866361
1.1869702
1.187319
1.1876911
1.1880945
1.1885338
1.189012
1.1895329
1.1901026
1.1907285
1.1914183
1.1921793
1.1930154
1.1939233
1.1949008
1.1958892
1.1968174
1.1975694
1.1978576
1.1980807
1.1984462
1.1988271
1.1992053
1.1995676
1.1999215
1.200264
1.2005976
1.2008983
1.2011426
1.2013972
1.1873369
1.1875658
1.1878417
1.1881344
1.1884499
1.1887959
1.1891772
1.1895971
1.1900602
1.1905726
1.1911414
1.1917742
1.1924778
1.1932563
1.1941072
1.1950292
1.1959683
1.1968784
1.1976043
1.1978782
1.1980799
1.1984321
1.1988038
1.1991745
1.1995308
1.1998809
1.2002201
1.2005494
1.2008438
1.2010824
1.2013389
1.188263
1.1884481
1.1886778
1.1889254
1.1891948
1.1894928
1.1898238
1.1901914
1.1906008
1.1910586
1.1915718
1.1921481
1.1927944
1.1935152
1.1943086
1.1951746
1.1960681
1.1969449
1.1976426
1.1979036
1.1980832
1.1984203
1.1987819
1.1991433
1.1994926
1.1998377
1.2001726
1.2004965
1.2007838
1.2010176
1.2012711
1.1891228
1.1892744
1.1894674
1.1896788
1.1899112
1.1901699
1.1904587
1.1907815
1.1911436
1.1915517
1.1920131
1.1925355
1.1931261
1.19379
1.1945265
1.1953362
1.1961817
1.197013
1.1976857
1.197934
1.1980909
1.1984111
1.1987615
1.199112
1.1994526
1.1997915
1.200121
1.2004385
1.2007178
1.2009466
1.2011926
1.1899251
1.1900486
1.1902093
1.1903902
1.1905918
1.190818
1.1910719
1.1913572
1.191679
1.1920436
1.1924584
1.1929311
1.1934693
1.1940785
1.1947593
1.1955129
1.1963081
1.1970901
1.1977344
1.1979695
1.1981033
1.198405
1.1987428
1.1990805
1.1994104
1.199742
1.200065
1.2003748
1.2006453
1.2008683
1.2011023
1.1906422
1.1907575
1.1909076
1.1910675
1.19124
1.1914365
1.1916601
1.1919136
1.1922011
1.1925283
1.1929021
1.1933302
1.1938202
1.194378
1.1950052
1.1957038
1.196448
1.1971803
1.1977907
1.1980099
1.1981208
1.1984026
1.1987251
1.1990483
1.1993659
1.199689
1.200004
1.2003048
1.2005653
1.2007813
1.2009995
1.1913724
1.1914431
1.1915486
1.1916825
1.1918432
1.1920216
1.1922202
1.1924469
1.1927057
1.1930013
1.19334
1.1937289
1.1941755
1.1946857
1.1952623
1.1959078
1.1966011
1.1972828
1.1978546
1.1980556
1.1981437
1.1984038
1.1987085
1.1990153
1.199319
1.1996322
1.1999374
1.2002282
1.2004774
1.2006839
1.2008854
1.1920683
1.1921239
1.1922049
1.1923036
1.1924249
1.1925754
1.1927546
1.1929595
1.1931932
1.1934615
1.1937698
1.1941245
1.1945324
1.1949994
1.1955287
1.1961233
1.1967665
1.1973965
1.1979264
1.1981062
1.198172
1.1984089
1.1986928
1.1989814
1.1992696
1.1995711
1.1998646
1.2001441
1.2003811
1.2005758
1.2007599
1.1927265
1.1927639
1.1928264
1.1929065
1.1930059
1.1931289
1.1932785
1.1934561
1.1936657
1.1939098
1.1941915
1.1945159
1.1948893
1.1953171
1.1958026
1.1963489
1.1969427
1.1975206
1.1980056
1.1981612
1.1982052
1.1984176
1.1986784
1.1989466
1.1992175
1.1995055
1.1997856
1.2000523
1.2002762
1.2004574
1.2006236
1.1933766
1.1933968
1.1934373
1.1934933
1.1935692
1.1936692
1.1937957
1.1939497
1.1941335
1.1943519
1.1946074
1.1949039
1.1952458
1.1956376
1.1960823
1.1965828
1.1971281
1.1976537
1.1980911
1.1982199
1.1982429
1.1984294
1.1986652
1.198911
1.1991635
1.1994354
1.1996998
1.1999522
1.2001628
1.2003295
1.2004776
1.1940193
1.194025
1.194047
1.194082
1.1941344
1.1942088
1.1943099
1.1944415
1.1946006
1.1947912
1.1950212
1.1952905
1.1956025
1.1959604
1.1963666
1.1968235
1.1973209
1.197794
1.198182
1.1982817
1.1982842
1.1984441
1.1986531
1.198874
1.1991074
1.1993609
1.1996073
1.1998436
1.200041
1.2001928
1.2003219
1.1946583
1.1946511
1.1946563
1.1946717
1.1947023
1.1947529
1.1948273
1.1949301
1.1950668
1.195236
1.195438
1.1956786
1.1959606
1.1962856
1.1966547
1.1970693
1.1975194
1.1979401
1.1982773
1.1983459
1.1983286
1.1984603
1.1986406
1.1988364
1.1990497
1.199282
1.1995084
1.199727
1.1999105
1.2000469
1.2001546
1.1952994
1.1952813
1.1952719
1.19527
1.1952809
1.1953094
1.19536
1.195437
1.1955441
1.1956809
1.195853
1.1960669
1.1963201
1.1966129
1.1969455
1.1973186
1.1977215
1.1980897
1.1983751
1.1984108
1.198374
1.1984765
1.1986265
1.1987981
1.1989906
1.1991993
1.1994037
1.1996024
1.1997706
1.1998906
1.1999718
1.1959414
1.1959137
1.1958917
1.1958742
1.1958666
1.1958736
1.1958996
1.1959488
1.1960261
1.1961381
1.1962852
1.1964662
1.1966856
1.1969437
1.1972388
1.1975698
1.197925
1.1982405
1.1984729
1.1984743
1.198418
1.1984928
1.1986151
1.1987619
1.1989313
1.1991134
1.1992936
1.1994695
1.19962
1.1997208
1.19977
1.1965855
1.1965502
1.196518
1.1964879
1.1964645
1.1964526
1.1964564
1.1964805
1.1965299
1.1966097
1.1967228
1.1968709
1.197056
1.1972777
1.1975336
1.1978215
1.1981279
1.1983906
1.1985697
1.1985364
1.1984621
1.1985136
1.1986097
1.1987301
1.1988727
1.1990241
1.1991765
1.1993263
1.1994574
1.1995349
1.1995482
1.1972257
1.1971848
1.197145
1.1971049
1.1970688
1.1970407
1.1970246
1.1970253
1.1970469
1.197094
1.197172
1.1972848
1.1974328
1.1976151
1.1978293
1.1980721
1.1983288
1.1985391
1.198666
1.1986012
1.1985151
1.1985433
1.1986119
1.1987022
1.1988128
1.1989301
1.1990505
1.1991713
1.1992814
1.1993308
1.1993093
1.1978502
1.1978053
1.1977605
1.1977137
1.1976682
1.1976271
1.1975941
1.1975736
1.1975694
1.1975879
1.197634
1.1977092
1.1978163
1.1979558
1.198125
1.1983203
1.198526
1.1986851
1.1987626
1.1986704
1.1985789
1.1985812
1.19862
1.1986769
1.1987483
1.1988284
1.1989143
1.1990035
1.1990901
1.1991103
1.1990591
1.1984462
1.1983994
1.1983524
1.1983027
1.1982519
1.1982023
1.1981572
1.1981199
1.198094
1.1980831
1.1980941
1.1981324
1.1981992
1.1982949
1.1984173
1.1985634
1.1987173
1.1988264
1.1988584
1.1987413
1.1986444
1.1986231
1.1986289
1.1986474
1.1986784
1.1987184
1.198768
1.1988237
1.1988842
1.1988759
1.1988036
1.1989878
1.1989403
1.1988939
1.1988448
1.1987928
1.1987394
1.1986867
1.1986376
1.1985953
1.1985637
1.1985472
1.1985505
1.1985768
1.1986275
1.1987012
1.1987959
1.1988969
1.1989546
1.1989407
1.1988087
1.1987066
1.1986601
1.1986325
1.1986131
1.198603
1.1986023
1.1986148
1.1986344
1.1986648
1.1986306
1.1985477
1.1994498
1.1994026
1.1993587
1.199313
1.1992632
1.1992096
1.1991539
1.1990979
1.1990443
1.1989961
1.1989569
1.1989307
1.1989211
1.1989298
1.1989561
1.1989994
1.1990491
1.1990597
1.1990037
1.1988688
1.1987603
1.1986905
1.1986336
1.1985779
1.1985249
1.1984825
1.1984577
1.1984395
1.1984372
1.1983779
1.1982962
1.1997885
1.1997433
1.1997041
1.1996649
1.1996213
1.1995728
1.1995204
1.1994654
1.1994095
1.1993541
1.1993016
1.1992554
1.1992189
1.1991938
1.1991791
1.1991758
1.1991778
1.1991509
1.1990514
1.1989132
1.1988081
1.1987188
1.1986322
1.1985416
1.1984472
1.1983628
1.1982994
1.1982438
1.1982081
1.1981288
1.1980531
1.1999884
1.1999462
1.1999126
1.199881
1.1998454
1.1998048
1.1997592
1.1997093
1.1996558
1.1996007
1.1995456
1.1994916
1.1994397
1.1993899
1.1993414
1.1992945
1.1992506
1.1991965
1.1990947
1.1989715
1.1988594
1.1987458
1.1986287
1.1985045
1.1983703
1.1982455
1.1981425
1.1980526
1.1979877
1.1978965
1.1978241
1.2000714
1.200031
1.1999988
1.1999689
1.1999354
1.1998972
1.1998545
1.1998078
1.199757
1.1997031
1.1996478
1.1995926
1.1995368
1.1994808
1.1994265
1.1993755
1.1993252
1.1992611
1.1991608
1.1990394
1.1989106
1.1987731
1.1986267
1.1984654
1.1982936
1.1981324
1.1979915
1.1978731
1.1977851
1.1976912
1.1976179
1.2000017
1.19997
1.199944
1.1999196
1.1998918
1.199859
1.1998203
1.1997768
1.1997385
1.199724
1.1997262
1.1996972
1.1996387
1.1995836
1.1995346
1.1994887
1.1994288
1.1993342
1.1992092
1.199084
1.1989512
1.1987944
1.1986214
1.1984276
1.198221
1.1980264
1.1978535
1.1977125
1.1976095
1.197517
1.1974449
1.1999989
1.1999777
1.1999592
1.1999431
1.1999253
1.1999045
1.1998818
1.1998585
1.199829
1.1997795
1.1997226
1.1997003
1.19968
1.1996363
1.1995904
1.1995366
1.199462
1.1993604
1.1992526
1.1991301
1.1989759
1.1988063
1.1986135
1.1983936
1.1981596
1.197935
1.1977361