/*--------------------------------*- C++ -*----------------------------------*\
| =========                 |                                                 |
| \\      /  F ield         | OpenFOAM: The Open Source CFD Toolbox           |
|  \\    /   O peration     | Version:  2406                                  |
|   \\  /    A nd           | Website:  www.openfoam.com                      |
|    \\/     M anipulation  |                                                 |
\*---------------------------------------------------------------------------*/
FoamFile
{
    version     2.0;
    format      ascii;
    arch        "LSB;label=32;scalar=64";
    class       volVectorField;
    location    "0.001";
    object      U;
}
// * * * * * * * * * * * * * * * * * * * * * * * * * * * * * * * * * * * * * //

dimensions      [0 1 -1 0 0 0 0];

internalField   nonuniform List<vector> 
8260
(
(43.894164 31.077904 0)
(45.47184 29.678244 -2.1952769e-20)
(46.974881 28.245669 1.8916294e-20)
(48.439926 26.793444 -3.2262445e-20)
(49.853031 25.273116 1.3636064e-20)
(51.187127 23.705151 -2.2929806e-20)
(52.427373 22.135854 -9.2747385e-21)
(53.580384 20.606637 -1.453071e-23)
(54.689883 19.142697 3.6701751e-21)
(55.801324 17.743171 0)
(56.838569 16.42587 3.957515e-20)
(57.827771 15.191853 0)
(58.765795 14.020082 0)
(59.58446 12.883408 -6.0576657e-20)
(60.08148 11.721009 1.9617379e-23)
(59.953662 10.419683 0)
(58.902734 8.4920894 0)
(57.572081 6.6461435 6.6156729e-19)
(56.75568 5.4108521 5.5152323e-21)
(56.147835 4.4235532 -6.6950108e-19)
(55.616476 3.6036496 -1.2152206e-18)
(55.138418 2.9057418 -1.0897559e-18)
(54.709759 2.320573 -1.9561099e-18)
(54.320909 1.838488 1.7291043e-18)
(53.973063 1.4456098 1.5228954e-18)
(53.676115 1.1102288 0)
(53.440677 0.8113021 2.3925783e-18)
(53.234924 0.57903226 2.1092263e-18)
(53.063048 0.35170104 3.6940168e-18)
(52.872007 0.25218759 0)
(52.962466 -0.053746245 1.0116932e-18)
(42.795871 30.212061 2.1545126e-20)
(44.423513 28.922851 -1.9359473e-23)
(45.975598 27.689171 -1.668337e-20)
(47.490567 26.402834 4.3769762e-20)
(48.966945 25.036072 0)
(50.382228 23.607972 2.1640864e-20)
(51.720557 22.155482 3.6975898e-20)
(52.982381 20.715397 2.3582443e-20)
(54.190363 19.313445 -2.6827616e-20)
(55.366124 17.954796 1.1494735e-20)
(56.47621 16.653287 -4.4871942e-20)
(57.526579 15.418475 0)
(58.509277 14.234426 0)
(59.352238 13.075117 1.2473179e-19)
(59.851496 11.8511 -1.3167899e-19)
(59.683946 10.497587 1.6865038e-19)
(58.612725 8.4894942 3.9280809e-24)
(57.360996 6.6467994 -2.0641208e-20)
(56.62613 5.4327257 2.1411653e-20)
(56.057553 4.4461919 -6.3914738e-19)
(55.550981 3.6245188 -9.1022652e-21)
(55.090838 2.9242867 1.0513619e-18)
(54.675003 2.3381996 1.8837814e-18)
(54.295803 1.8546746 -3.2807902e-21)
(53.95494 1.4598023 5.8560293e-21)
(53.662897 1.1217133 -2.5785304e-21)
(53.431376 0.82053966 -2.3361464e-18)
(53.22845 0.58590663 -2.0631315e-18)
(53.059056 0.35803884 -3.6453386e-18)
(52.867827 0.2538973 2.1664689e-18)
(52.959876 -0.050870655 -9.5525084e-19)
(41.636742 29.015226 -1.806629e-20)
(43.231722 27.970768 1.618411e-20)
(44.824844 26.9621 0)
(46.403039 25.870062 -2.6620733e-20)
(47.953097 24.680676 2.3706674e-20)
(49.455321 23.412733 0)
(50.893247 22.096399 -3.6408009e-20)
(52.26167 20.763862 -7.9121288e-21)
(53.571041 19.4413 3.4325921e-20)
(54.831526 18.137721 0)
(56.023904 16.865661 4.2071935e-20)
(57.144855 15.639428 0)
(58.181669 14.447815 0)
(59.057365 13.266791 -6.3872125e-20)
(59.568765 11.985604 -4.5386947e-21)
(59.371614 10.563855 -1.8653839e-19)
(58.297983 8.4794107 2.6351735e-19)
(57.149529 6.6759537 -1.3003986e-18)
(56.491027 5.4888167 0)
(55.95881 4.4991409 6.000771e-19)
(55.477158 3.670383 0)
(55.035464 2.9625428 -7.6262814e-21)
(54.634259 2.3689792 1.3618696e-20)
(54.266151 1.8788319 -1.2114702e-20)
(53.9329 1.4788415 -1.3694617e-18)
(53.645763 1.1368662 0)
(53.418559 0.83228563 0)
(53.219167 0.59445786 1.8555435e-21)
(53.053308 0.36482044 -1.6372511e-21)
(52.862118 0.25578519 -2.0468705e-18)
(52.956137 -0.047692394 -1.7080829e-23)
(40.668349 27.655299 6.0072851e-20)
(42.203472 26.853723 -4.1395623e-20)
(43.783077 26.069983 2.5952236e-20)
(45.379336 25.187984 2.4007223e-20)
(46.96975 24.194667 -6.5805625e-20)
(48.532402 23.105205 -1.9791927e-20)
(50.04815 21.94401 1.7696908e-20)
(51.505557 20.73808 -1.5696602e-20)
(52.905007 19.512161 1.388705e-20)
(54.249452 18.279055 0)
(55.522049 17.051631 4.3951668e-20)
(56.713811 15.845046 0)
(57.805655 14.652413 -7.4851403e-20)
(58.712582 13.451853 0)
(59.230923 12.117915 -1.5919463e-19)
(59.003695 10.610025 6.1999479e-21)
(57.93477 8.4516806 5.0157599e-23)
(56.907338 6.7119093 6.2452036e-19)
(56.331361 5.5417904 -6.1056135e-19)
(55.841365 4.5475582 0)
(55.389272 3.7119814 -1.002507e-18)
(54.96984 2.9974569 -7.0074981e-21)
(54.58572 2.3981629 6.2392609e-21)
(54.230635 1.9029003 -1.4185284e-18)
(53.906627 1.4985021 0)
(53.625796 1.1526807 0)
(53.403796 0.84481077 0)
(53.208636 0.60372189 -1.7332273e-18)
(53.046506 0.37244411 0)
(52.855316 0.25807049 1.9191095e-18)
(52.951907 -0.043986254 8.3501343e-19)
(39.904809 26.18472 -1.2370652e-20)
(41.359228 25.603662 0)
(42.886061 25.030921 -2.2482961e-20)
(44.459142 24.358573 2.1411487e-20)
(46.053424 23.569392 2.0061226e-20)
(47.644748 22.671126 3.705311e-20)
(49.211171 21.6811 1.6936664e-20)
(50.735758 20.62007 -1.5362622e-20)
(52.209817 19.509313 -1.3853316e-20)
(53.628418 18.363759 7.4991835e-20)
(54.974722 17.196918 -1.1316195e-20)
(56.233916 16.022698 0)
(57.378884 14.837656 1.4911075e-19)
(58.313292 13.621004 -6.2973555e-24)
(58.829431 12.23693 1.8379246e-19)
(58.567285 10.627156 1.3439343e-20)
(57.519562 8.4030801 -2.9795549e-19)
(56.644351 6.7495034 5.8360369e-19)
(56.152512 5.5966084 6.0032507e-19)
(55.70858 4.6002865 5.5360054e-24)
(55.289449 3.7588508 9.0186989e-19)
(54.89498 3.0377324 8.1705546e-19)
(54.530289 2.4318333 5.6738742e-21)
(54.190056 1.930502 1.2824998e-18)
(53.876467 1.5208336 1.1392175e-18)
(53.602649 1.1707169 0)
(53.386446 0.85909002 -3.4737543e-21)
(53.196288 0.61428407 1.5728298e-18)
(53.038532 0.38042274 -2.7704238e-18)
(52.847434 0.26092342 -1.7871258e-18)
(52.94731 -0.039633152 9.2690773e-23)
(39.358057 24.619172 1.8670625e-20)
(40.71757 24.24915 -1.9527621e-20)
(42.164044 23.871043 -1.930616e-20)
(43.678476 23.396876 3.7656021e-20)
(45.239312 22.808354 -3.6139917e-20)
(46.82336 22.104944 0)
(48.407577 21.295628 0)
(49.971132 20.393807 0)
(51.497986 19.415455 2.7308039e-20)
(52.975271 18.374684 3.5942033e-23)
(54.384007 17.28445 -4.6328153e-20)
(55.703016 16.156304 9.7747875e-20)
(56.895705 14.989045 -1.7800908e-19)
(57.850828 13.760095 -9.558791e-20)
(58.351768 12.325739 2.3308783e-20)
(58.051596 10.592809 -1.4333222e-20)
(57.053041 8.3368516 1.7349193e-20)
(56.356679 6.7865494 -5.8016939e-19)
(55.949671 5.6502926 -1.61783e-20)
(55.556525 4.6529451 -4.6533291e-19)
(55.174643 3.8062797 -8.1802105e-19)
(54.808808 3.0791143 -1.4782132e-18)
(54.466245 2.466957 -1.3217343e-18)
(54.143049 1.9599094 -3.1111518e-24)
(53.841573 1.544898 8.0570188e-21)
(53.576058 1.1903162 1.8137514e-18)
(53.366446 0.87479491 0)
(53.182133 0.62602315 1.4161159e-18)
(53.029164 0.38920232 2.491614e-18)
(52.838598 0.26453478 0)
(52.942352 -0.034523636 0)
(39.058819 23.046355 7.7242421e-21)
(40.303899 22.843158 -3.2548838e-20)
(41.645051 22.629356 3.2955417e-20)
(43.069713 22.330836 -1.6413713e-20)
(44.5619 21.927454 -1.6136892e-20)
(46.101852 21.411357 0)
(47.667576 20.783056 0)
(49.236552 20.047735 0)
(50.787837 19.214382 -2.6574912e-20)
(52.301944 18.293213 -4.979925e-20)
(53.755824 17.294404 0)
(55.1214 16.225835 -8.9296286e-20)
(56.351165 15.087078 1.093752e-19)
(57.315153 13.847672 -3.4348674e-23)
(57.782412 12.359404 1.4943155e-19)
(57.441948 10.479286 2.9967189e-20)
(56.541655 8.2590259 -3.3480713e-20)
(56.042776 6.8190494 5.507384e-19)
(55.721894 5.7010557 0)
(55.383864 4.7055564 4.2059921e-19)
(55.043644 3.8552853 7.4890622e-19)
(54.710413 3.1231931 1.3295648e-18)
(54.3929 2.5048908 -9.2745048e-21)
(54.089026 1.9921054 8.1393621e-21)
(53.801419 1.5713344 3.8031331e-23)
(53.545463 1.2120385 -1.6258572e-18)
(53.343215 0.89231675 0)
(53.165653 0.63917819 3.1115207e-23)
(53.018005 0.39884188 0)
(52.828288 0.26949694 0)
(52.937058 -0.028557955 2.8740503e-19)
(39.005209 21.492565 -2.8313896e-23)
(40.123904 21.421451 -2.0368864e-20)
(41.341953 21.340846 7.0046148e-21)
(42.653342 21.189881 1.4257515e-20)
(44.047794 20.948051 1.4300098e-20)
(45.510119 20.602244 0)
(47.021311 20.145579 0)
(48.559648 19.575151 0)
(50.102106 18.892038 0)
(51.624697 18.100117 -2.4513359e-20)
(53.099698 17.204219 2.3494093e-20)
(54.491644 16.206679 0)
(55.740404 15.105886 -2.2710243e-20)
(56.694778 13.850518 2.3638129e-20)
(57.102663 12.302443 -4.2138033e-19)
(56.717653 10.25789 3.044247e-20)
(56.000891 8.1778575 -3.1570322e-20)
(55.698771 6.8419824 -4.7193716e-19)
(55.466341 5.745614 0)
(55.188048 4.7555088 0)
(54.89368 3.903425 0)
(54.597656 3.1680069 1.865214e-20)
(54.30855 2.5442033 1.0451636e-18)
(54.026475 2.0262576 2.3574495e-24)
(53.754883 1.5996538 -1.6512066e-18)
(53.51019 1.2355942 1.4461849e-18)
(53.316267 0.91156136 1.2862609e-18)
(53.146383 0.65379303 -2.2609139e-18)
(53.004378 0.41000977 0)
(52.81537 0.27662509 0)
(52.93141 -0.021644546 -2.3730542e-19)
(39.181977 19.988542 -5.4848278e-21)
(40.171348 20.013795 2.2695982e-20)
(41.256653 20.036252 -2.9854744e-20)
(42.438723 20.002298 -1.2373859e-20)
(43.713131 19.893267 1.2667106e-20)
(45.069567 19.693256 -2.5571925e-20)
(46.493234 19.389788 2.5520873e-20)
(47.965261 18.972961 0)
(49.463178 18.436074 0)
(50.960878 17.775283 0)
(52.426485 16.987823 0)
(53.816604 16.068268 9.2700764e-20)
(55.055997 15.01074 -1.1741343e-19)
(55.976547 13.713508 2.4590414e-20)
(56.288463 12.111126 2.1844248e-19)
(55.885382 9.9155728 0)
(55.449952 8.1006928 0)
(55.323386 6.8483693 4.2601756e-19)
(55.181389 5.7795179 2.3788256e-20)
(54.967851 4.8007739 -2.1140078e-20)
(54.72297 3.9496216 0)
(54.46873 3.2131935 -5.1429977e-19)
(54.211964 2.5848954 4.3564278e-24)
(53.954359 2.0625494 -8.2945157e-19)
(53.701003 1.6300403 -3.5296648e-23)
(53.469442 1.2612406 -1.3024847e-18)
(53.284968 0.93277197 -1.1403442e-18)
(53.123882 0.67003485 1.006048e-18)
(52.987687 0.42297084 -1.7336721e-21)
(52.800169 0.28489806 7.6414845e-22)
(52.92523 -0.013698158 9.1693947e-23)
(39.556408 18.56502 0)
(40.422351 18.647486 -3.820302e-20)
(41.375577 18.739839 4.0984544e-20)
(42.420879 18.793017 0)
(43.5604 18.784273 -6.7619527e-20)
(44.789104 18.699334 2.3948329e-23)
(46.097353 18.522289 4.715416e-20)
(47.470508 18.237959 2.3718347e-20)
(48.88856 17.832863 0)
(50.325293 17.295101 -2.2557568e-23)
(51.745532 16.612827 -4.1146653e-24)
(53.09691 15.770877 -1.4138151e-19)
(54.285316 14.753159 4.8517649e-20)
(55.127506 13.391224 5.1493825e-20)
(55.304687 11.672598 5.5919614e-20)
(55.007134 9.5074914 2.2757263e-19)
(54.895287 8.0104419 -5.3148647e-20)
(54.915744 6.8286121 9.8648383e-23)
(54.864893 5.7967148 0)
(54.721822 4.8378244 -3.2047026e-19)
(54.530006 3.991335 -5.1739346e-19)
(54.321238 3.2566901 0)
(54.101197 2.6254626 0)
(53.87121 2.1000358 7.2537647e-19)
(53.638496 1.6619112 6.6054233e-19)
(53.422219 1.2886549 1.1477687e-18)
(53.248574 0.95582638 -7.9119264e-21)
(53.097753 0.68802593 3.4876327e-21)
(52.967145 0.43725489 1.5790244e-18)
(52.783852 0.29332186 0)
(52.918177 -0.0046565486 1.4026648e-19)
(40.089672 17.20844 -2.1192359e-20)
(40.827911 17.341278 2.9096862e-20)
(41.656245 17.468267 -3.579281e-20)
(42.567535 17.574438 -3.856971e-20)
(43.567494 17.631184 1.0208797e-20)
(44.656357 17.625272 4.2642098e-20)
(45.829959 17.54017 0)
(47.078423 17.357808 -2.257445e-20)
(48.385103 17.059291 0)
(49.724727 16.624797 -4.1189004e-23)
(51.058913 16.032491 0)
(52.323815 15.254835 -4.8422662e-20)
(53.401094 14.251744 5.0595125e-20)
(54.094187 12.75136 5.3411513e-20)
(54.172197 10.934846 -2.1970637e-19)
(54.167536 9.171649 -4.7437705e-19)
(54.330617 7.8941773 4.7830597e-20)
(54.476977 6.7727096 -3.824048e-19)
(54.515203 5.7900675 -2.6417682e-19)
(54.448523 4.8622159 -3.356326e-20)
(54.314674 4.0263633 4.4461004e-19)
(54.153875 3.2970127 4.4531006e-19)
(53.974616 2.6649172 2.3135535e-20)
(53.775854 2.1381176 6.3304056e-19)
(53.566406 1.695047 0)
(53.367659 1.317817 -2.034694e-18)
(53.206407 0.98078016 -7.0123341e-21)
(53.067457 0.70780431 6.1837178e-21)
(52.942111 0.45101056 4.1286557e-23)
(52.764039 0.30308844 1.2032413e-21)
(52.90973 0.0055097412 -9.5099374e-20)
(40.779416 15.890727 0)
(41.389826 16.020495 0)
(42.072717 16.175336 0)
(42.843162 16.299178 0)
(43.698866 16.391195 0)
(44.641484 16.431523 -9.0940124e-20)
(45.669014 16.40374 8.4932475e-20)
(46.774176 16.28869 0)
(47.942395 16.063513 -9.1480375e-20)
(49.148064 15.700864 9.4328882e-20)
(50.346983 15.168043 4.8786746e-20)
(51.457111 14.418402 0)
(52.336187 13.355019 1.5941355e-19)
(52.834917 11.710685 -5.3814123e-20)
(53.097306 10.067419 1.5386066e-19)
(53.419131 8.8557205 4.7327833e-20)
(53.762413 7.7234553 -1.708599e-19)
(54.008568 6.7044121 -3.4138678e-19)
(54.133722 5.71987 5.6957495e-19)
(54.146902 4.8662705 4.7440396e-19)
(54.076339 4.0510587 0)
(53.965966 3.3315816 -2.3157938e-20)
(53.830382 2.7013426 2.0483231e-20)
(53.666371 2.1750887 -5.7848695e-19)
(53.483342 1.7285015 0)
(53.304739 1.3482008 1.8009254e-18)
(53.157627 1.0073197 0)
(53.032392 0.72944813 -5.4741628e-21)
(52.912361 0.46602846 -2.4671153e-18)
(52.740829 0.31302849 0)
(52.899124 0.016790596 0)
(41.531119 14.471636 0)
(42.028079 14.586683 0)
(42.583824 14.731906 0)
(43.211768 14.860104 7.0311372e-20)
(43.919246 14.959757 -1.4261927e-19)
(44.708364 15.01579 1.7336096e-19)
(45.576512 15.011477 -1.0849063e-19)
(46.516035 14.925617 2.2918094e-20)
(47.511375 14.731141 1.2027652e-19)
(48.533052 14.393282 -6.5491294e-23)
(49.532925 13.865129 -5.2426854e-20)
(50.428101 13.067971 -2.1624175e-19)
(51.08731 11.904247 1.0843419e-19)
(51.56468 10.527995 0)
(52.180257 9.4061445 0)
(52.757009 8.4088832 8.5488138e-20)
(53.19449 7.4934096 3.0385976e-19)
(53.518612 6.5758995 6.7324004e-19)
(53.728847 5.6544016 -2.9789157e-19)
(53.815048 4.8083654 -5.2497151e-20)
(53.81318 4.0610699 4.6414496e-20)
(53.75731 3.3574833 -3.4900622e-19)
(53.667858 2.733351 1.8117243e-20)
(53.541551 2.2091629 0)
(53.388173 1.7612953 0)
(53.232843 1.3793301 -7.9609391e-19)
(53.101796 1.0351986 0)
(52.991777 0.75281032 0)
(52.87788 0.48558304 1.0926062e-18)
(52.712813 0.32218353 -9.6378154e-19)
(52.885369 0.029131929 -1.2055274e-20)
(42.208276 12.861559 -1.9091527e-23)
(42.613134 12.928131 -1.3050286e-19)
(43.072791 13.017197 6.7975155e-20)
(43.583105 13.112122 0)
(44.151607 13.182214 9.4489727e-24)
(44.783086 13.210296 1.0533415e-19)
(45.478935 13.184569 -4.0211511e-23)
(46.232744 13.0824 -2.6288764e-20)
(47.027346 12.8709 -2.7323753e-20)
(47.828188 12.510852 -5.5990319e-20)
(48.591952 11.954731 -5.6148524e-20)
(49.283737 11.159338 0)
(49.943343 10.255811 0)
(50.699925 9.4834382 0)
(51.456335 8.7718805 0)
(52.09605 8.0272683 -1.5209851e-19)
(52.619952 7.1970673 -1.3476271e-19)
(53.022154 6.3435281 -2.3854317e-19)
(53.300769 5.5715915 0)
(53.461253 4.7570572 -1.8587017e-19)
(53.520803 4.0283082 0)
(53.525285 3.3694162 2.8994534e-19)
(53.485794 2.7586805 0)
(53.400808 2.237686 0)
(53.279472 1.791605 0)
(53.15058 1.4100543 0)
(53.038081 1.0637542 0)
(52.944246 0.77746789 -8.5492574e-21)
(52.838262 0.5018168 7.5389388e-21)
(52.678962 0.3293478 1.7042468e-18)
(52.867201 0.042397424 0)
(42.677943 10.687698 1.9839129e-23)
(42.944383 10.737347 0)
(43.284744 10.768576 1.4916372e-21)
(43.694855 10.811673 1.4627089e-19)
(44.159587 10.831402 -1.9716907e-19)
(44.6748 10.81549 -2.4531573e-20)
(45.251675 10.76413 -1.7634198e-19)
(45.859718 10.669686 4.8128745e-19)
(46.491514 10.491179 -2.4032013e-19)
(47.136649 10.213391 -5.8694643e-20)
(47.811381 9.8992844 -2.4693713e-23)
(48.534359 9.5037952 5.2269975e-20)
(49.300604 9.0629526 0)
(50.081524 8.6231636 0)
(50.823959 8.0939811 0)
(51.504443 7.4707223 2.6953792e-19)
(52.070556 6.8085196 0)
(52.520937 6.118528 -2.1107798e-19)
(52.864847 5.3558552 0)
(53.085872 4.6906236 0)
(53.208644 3.9882454 0)
(53.2668 3.3459736 -2.2404924e-19)
(53.281687 2.7735748 -2.8232232e-20)
(53.244605 2.2581728 -4.239248e-19)
(53.157761 1.8175788 2.1996243e-20)
(53.056619 1.4389608 0)
(52.965484 1.0922375 0)
(52.88908 0.80271125 4.829619e-19)
(52.793116 0.52270354 8.586241e-19)
(52.638847 0.33407256 -2.920081e-21)
(52.843626 0.056215489 -1.2213196e-22)
(43.358169 8.4184476 0)
(43.528425 8.4957563 -8.2357902e-21)
(43.718933 8.6282174 4.3358605e-21)
(43.951419 8.7566365 -8.6263078e-21)
(44.252819 8.8631168 -1.737962e-20)
(44.62428 8.9411709 1.7219374e-20)
(45.082704 8.8984461 -3.2594523e-20)
(45.573805 8.8333127 -3.1462274e-20)
(46.10748 8.7317557 0)
(46.720173 8.5563545 -2.2100652e-19)
(47.413707 8.3975498 4.6869635e-19)
(48.178698 8.3058619 -4.7791617e-20)
(48.910893 8.0927727 -8.5496952e-20)
(49.614339 7.7738142 1.5188709e-19)
(50.311303 7.3788307 -2.6946149e-19)
(50.96816 6.9183896 9.9231284e-24)
(51.553743 6.3792976 -1.0554447e-19)
(52.04035 5.7791834 3.7300316e-19)
(52.419832 5.1856649 0)
(52.697579 4.506592 0)
(52.881997 3.9263532 6.4144232e-20)
(52.988222 3.3298658 4.9726911e-24)
(53.051984 2.7617117 -2.4925801e-20)
(53.068674 2.2654249 -2.2026796e-20)
(53.023595 1.8367952 -3.1047571e-19)
(52.949681 1.4642054 0)
(52.881946 1.1191798 0)
(52.825637 0.82718071 -4.1945774e-19)
(52.741725 0.54274953 -1.5034188e-18)
(52.593722 0.33820235 -6.6822497e-19)
(52.815697 0.069456312 0)
(44.289041 6.451723 0)
(44.452274 6.5285748 1.0981786e-20)
(44.623271 6.632724 -3.5645473e-19)
(44.804268 6.7412875 4.1995039e-23)
(44.985145 6.8652004 3.4175752e-19)
(45.169429 6.9844954 -1.8956214e-20)
(45.372009 7.2348319 3.3934178e-20)
(45.689957 7.3516114 3.1090955e-20)
(46.075978 7.5063714 0)
(46.580004 7.5460204 5.1508639e-20)
(47.161161 7.3471386 -4.5450035e-20)
(47.828908 7.194234 1.6546872e-19)
(48.562431 7.1393512 -2.9959398e-19)
(49.272177 6.9940686 1.3453802e-19)
(49.917165 6.6918453 0)
(50.526612 6.3072089 1.0543947e-19)
(51.08282 5.8916638 1.9257194e-23)
(51.582751 5.4121434 -1.6464215e-19)
(51.992182 4.8852878 2.1810224e-19)
(52.301799 4.3613711 6.4151346e-20)
(52.539132 3.7778659 -2.8301274e-19)
(52.697955 3.2639605 -1.9971502e-19)
(52.803149 2.7634425 0)
(52.868085 2.257033 3.1041666e-19)
(52.873456 1.8417983 2.3949775e-19)
(52.830601 1.4840863 3.0192317e-20)
(52.786285 1.1427513 0)
(52.75314 0.84897234 0)
(52.684029 0.56301441 -5.2084104e-21)
(52.54474 0.33972646 4.5685761e-21)
(52.778705 0.084471669 0)
(44.780018 5.4123375 -8.2033806e-19)
(44.905198 5.4780028 7.7727733e-19)
(45.055316 5.5547757 7.259832e-19)
(45.241242 5.6341964 -6.7022805e-19)
(45.474468 5.7141763 -6.3145669e-19)
(45.753509 5.7907297 5.9771883e-19)
(46.029118 5.8899455 -5.5561299e-19)
(46.29769 5.9928137 4.7109059e-19)
(46.578663 6.0343272 -4.2713984e-19)
(46.816879 6.2326531 -4.7402696e-20)
(47.149733 6.5068873 3.709371e-19)
(47.673617 6.3263401 3.2137625e-19)
(48.264696 6.1655519 -3.8558129e-19)
(48.902147 6.07234 0)
(49.552876 5.9994493 2.1004657e-19)
(50.145153 5.7380802 -3.7244782e-19)
(50.675457 5.3882386 8.2312667e-20)
(51.152379 5.01396 0)
(51.580453 4.5762337 -1.9239369e-19)
(51.919545 4.1092448 4.1212357e-24)
(52.183284 3.6517346 3.9938899e-19)
(52.392884 3.1503015 2.2014699e-19)
(52.541674 2.6986988 3.8836181e-20)
(52.64631 2.2611275 -3.4249471e-19)
(52.702123 1.8325908 2.7169138e-19)
(52.698673 1.4939321 1.8636611e-19)
(52.67928 1.1607722 1.174078e-20)
(52.670243 0.86581717 3.4179558e-19)
(52.619391 0.57955318 5.9376249e-19)
(52.490148 0.34143948 5.0765735e-19)
(52.727041 0.10474551 0)
(45.523307 4.4872326 -6.2141482e-21)
(45.62237 4.5526583 -2.2767395e-20)
(45.733904 4.6274226 -6.8019067e-19)
(45.858146 4.7037688 1.2566057e-18)
(45.995162 4.7818686 -1.150199e-18)
(46.148363 4.8610853 5.3888325e-19)
(46.332182 4.938705 0)
(46.568297 5.0132326 0)
(46.87541 5.0799493 -2.3723138e-20)
(47.205598 5.1589429 4.2113379e-20)
(47.506201 5.1511214 2.6376006e-19)
(47.745844 5.5171324 -5.5036793e-19)
(48.186549 5.4411921 2.8815694e-19)
(48.702052 5.2234735 0)
(49.24746 5.2005703 0)
(49.813502 5.0993947 0)
(50.327564 4.8881944 -1.4519707e-19)
(50.781649 4.5604069 1.923237e-19)
(51.193776 4.2212986 0)
(51.553386 3.8424131 -9.9833791e-20)
(51.840789 3.4278532 8.8091741e-20)
(52.076696 3.0342574 -3.1065202e-19)
(52.265931 2.6063134 1.3697418e-19)
(52.410358 2.2118754 -9.0632848e-20)
(52.510595 1.8330111 -1.863941e-19)
(52.551127 1.4872037 -1.8785767e-19)
(52.562041 1.1717284 3.1065587e-19)
(52.575428 0.87630415 -2.7390753e-19)
(52.54622 0.58801332 0)
(52.428716 0.33716848 -4.5466766e-19)
(52.66868 0.12700951 0)
(46.069018 3.6797074 7.2054037e-19)
(46.142562 3.7300381 2.8616231e-24)
(46.228536 3.7871547 9.4937484e-21)
(46.329601 3.8458383 0)
(46.449281 3.9081458 -1.5985097e-20)
(46.591501 3.975645 4.6422972e-19)
(46.757946 4.0480619 -4.1883324e-19)
(46.946772 4.1224098 0)
(47.158779 4.195089 2.1017613e-20)
(47.416518 4.2565805 3.1848388e-19)
(47.736624 4.3227849 3.329596e-20)
(48.062706 4.2685867 -4.7146404e-19)
(48.291477 4.5374157 5.2124881e-20)
(48.670161 4.5427577 1.8079914e-19)
(49.113446 4.3809768 0)
(49.571471 4.3633999 0)
(50.035127 4.2686587 -6.4050565e-20)
(50.46598 4.0920253 9.8802074e-24)
(50.851373 3.8147861 9.9772918e-20)
(51.212298 3.5045348 -1.4351906e-23)
(51.521505 3.2069033 -2.329085e-19)
(51.76852 2.8408615 6.8455624e-20)
(51.984114 2.4982338 6.0381032e-20)
(52.163617 2.1415173 2.6621707e-19)
(52.301442 1.7977586 6.1896085e-24)
(52.386995 1.4736299 -2.0698318e-20)
(52.431678 1.1739618 -5.8423578e-19)
(52.468356 0.88208814 -1.6097654e-20)
(52.462356 0.58751291 0)
(52.359617 0.33529477 0)
(52.601102 0.14887365 0)
(46.661871 2.9828224 1.2896359e-18)
(46.721871 3.0270363 1.1841324e-18)
(46.791236 3.0770828 -1.0988382e-18)
(46.871339 3.129027 1.0019623e-18)
(46.96365 3.1844225 -8.9887791e-19)
(47.069518 3.2437768 8.1352298e-19)
(47.191104 3.306412 -7.4400383e-19)
(47.332593 3.3714538 0)
(47.49864 3.4374388 0)
(47.690982 3.5021762 5.1388974e-19)
(47.919405 3.5551176 -4.4195365e-19)
(48.202196 3.6283201 0)
(48.509884 3.5725063 -4.6031001e-20)
(48.7376 3.7969112 0)
(49.066189 3.6993194 0)
(49.447263 3.5913461 -6.3132991e-20)
(49.830556 3.6243591 2.8243063e-19)
(50.210596 3.5240054 -3.9884297e-19)
(50.563128 3.3741366 -8.7968651e-20)
(50.902578 3.1460425 2.3282881e-19)
(51.222036 2.8911065 -1.537277e-23)
(51.482245 2.6457461 -6.0365933e-20)
(51.712568 2.3452034 0)
(51.915753 2.0505089 0)
(52.078197 1.7424489 0)
(52.208053 1.4430251 0)
(52.286241 1.1621826 2.8968529e-19)
(52.352935 0.88006078 -1.4191577e-20)
(52.365336 0.58245179 -1.2516845e-20)
(52.285086 0.32757675 -5.5205e-21)
(52.526228 0.16547444 3.165307e-19)
(47.188978 2.3900063 1.1415642e-18)
(47.232895 2.4252787 -1.0460604e-18)
(47.284021 2.465258 7.5672004e-21)
(47.343717 2.5070927 8.9562369e-19)
(47.413833 2.5520833 -8.089496e-19)
(47.496782 2.60104 7.3158443e-19)
(47.595365 2.6540331 -1.3162973e-18)
(47.712063 2.7107022 -1.8400442e-20)
(47.848474 2.7704143 5.0987101e-19)
(48.005024 2.8320069 0)
(48.178781 2.8936511 -4.4225923e-19)
(48.374223 2.9317369 2.3090575e-20)
(48.608421 3.00163 3.4727878e-19)
(48.867996 2.939125 -2.890889e-19)
(49.074048 3.1949783 2.1891289e-19)
(49.370495 2.97758 -2.0780601e-24)
(49.714537 2.9487302 1.971051e-19)
(50.038765 2.9453454 -2.1980776e-19)
(50.357076 2.8638659 3.1026654e-19)
(50.656335 2.7302999 -6.8421531e-20)
(50.951947 2.5682382 6.0339251e-20)
(51.220317 2.3736177 7.5599119e-24)
(51.462146 2.1739795 9.3851952e-20)
(51.675042 1.9295346 0)
(51.85424 1.6639984 -1.4596202e-19)
(52.019684 1.3942805 1.287104e-19)
(52.133108 1.1339623 2.8375019e-20)
(52.232164 0.86840779 -2.5021918e-20)
(52.259879 0.57113625 1.1033728e-20)
(52.205334 0.31590641 2.9682453e-19)
(52.436497 0.17536634 -2.7042981e-19)
(47.698403 1.8229161 2.0485266e-18)
(47.734065 1.8506488 -1.8589691e-18)
(47.775462 1.8823479 -1.3429657e-20)
(47.823491 1.9160529 -6.1537274e-21)
(47.879252 1.9526403 -5.5954834e-21)
(47.943989 1.9926417 1.3046351e-18)
(48.019079 2.035996 -2.4273524e-23)
(48.106077 2.0822194 -1.0337876e-18)
(48.206601 2.1305519 1.4540906e-24)
(48.321791 2.1799545 0)
(48.452415 2.2280891 -2.2958302e-20)
(48.597589 2.2786217 -4.0707572e-20)
(48.756649 2.3125433 -1.8020234e-20)
(48.950827 2.3796149 2.5498571e-19)
(49.164321 2.2857966 -2.2534583e-19)
(49.365981 2.5387166 2.0470653e-20)
(49.625797 2.3836288 0)
(49.904992 2.3275917 -3.8218716e-20)
(50.211824 2.3673013 -6.8006522e-20)
(50.499008 2.320057 -6.0314819e-20)
(50.752469 2.2181968 0)
(50.992403 2.0898576 -9.3816093e-20)
(51.228261 1.9493032 0)
(51.446985 1.7724666 0)
(51.636862 1.5638535 1.2864562e-19)
(51.826604 1.3224498 -2.2689726e-19)
(51.9779 1.0847677 1.0004927e-19)
(52.102185 0.83866267 0)
(52.1493 0.55275197 -1.6534118e-19)
(52.125764 0.30352297 -2.6592773e-19)
(52.319572 0.18187576 0)
(48.142388 1.4112252 -1.8208403e-18)
(48.168669 1.4322513 3.2216658e-21)
(48.199557 1.4564382 1.1847712e-20)
(48.235684 1.4825399 1.3342001e-18)
(48.277856 1.5111167 -1.1484725e-18)
(48.327267 1.5426179 -5.4064221e-25)
(48.385357 1.5772971 0)
(48.453722 1.6154988 2.7976262e-25)
(48.532754 1.6593291 5.953962e-19)
(48.620521 1.708913 -7.1865415e-19)
(48.718261 1.7539734 2.0254504e-20)
(48.832362 1.8055502 1.7952468e-20)
(48.958922 1.8601698 0)
(49.094409 1.8911036 0)
(49.257598 1.9686312 4.4706208e-19)
(49.433237 1.9771979 2.1924597e-20)
(49.607036 2.1141843 -3.0466798e-19)
(49.806099 2.0068733 2.6849108e-19)
(50.053414 1.9430986 -2.0770141e-19)
(50.315504 1.9288704 -5.2938652e-20)
(50.59649 1.9138947 0)
(50.806649 1.8154773 -8.2711369e-20)
(51.011202 1.7034095 7.2931816e-20)
(51.224717 1.5800714 -2.2211062e-24)
(51.420429 1.4294327 -5.6704145e-20)
(51.623129 1.2309346 9.9998851e-20)
(51.808986 1.0100267 -8.818314e-20)
(51.961476 0.77517932 -1.5554846e-19)
(52.039361 0.51901031 1.7142725e-20)
(52.043543 0.29990781 -2.2686647e-20)
(52.195329 0.17296588 6.670379e-21)
(48.562499 1.0452336 -6.0529593e-19)
(48.581723 1.0612104 -2.9984629e-21)
(48.604011 1.0800747 9.9256045e-19)
(48.63025 1.1016894 0)
(48.661606 1.1250751 -1.1192645e-18)
(48.698964 1.1511416 -7.8867065e-21)
(48.74287 1.1801405 7.2434466e-24)
(48.793885 1.2123859 1.6301693e-18)
(48.852606 1.2479604 -7.6054773e-24)
(48.919692 1.2861497 -6.5406004e-19)
(48.997416 1.3275113 0)
(49.087366 1.368773 0)
(49.187586 1.4129073 0)
(49.297733 1.4727012 0)
(49.413288 1.50457 -2.1898842e-20)
(49.537478 1.5724098 3.0942277e-19)
(49.662398 1.5769468 -2.3738169e-19)
(49.802686 1.71796 -1.9466069e-19)
(49.992551 1.6974424 1.8423017e-19)
(50.178752 1.6811902 -4.7628658e-24)
(50.383759 1.6142374 0)
(50.607402 1.5649716 1.4564004e-19)
(50.810454 1.4874965 -1.2858898e-19)
(51.013988 1.3799364 5.6688688e-20)
(51.214282 1.2601781 0)
(51.417389 1.1068383 -1.3224392e-19)
(51.625404 0.90781577 3.8869837e-20)
(51.80464 0.6743689 1.7138757e-19)
(51.916465 0.47530821 9.0692129e-20)
(51.940748 0.30797133 0)
(52.098289 0.13067544 -1.8815236e-19)
(48.939087 0.77666412 0)
(48.954071 0.79030983 1.9488592e-21)
(48.971998 0.80666695 0)
(48.99328 0.82517288 0)
(49.018244 0.84605673 -3.5303845e-21)
(49.047267 0.8697215 -1.7489995e-18)
(49.080777 0.89628539 1.6014442e-18)
(49.119308 0.92577504 5.5959614e-21)
(49.16311 0.95825572 9.9788075e-21)
(49.212287 0.99355264 -1.1271447e-18)
(49.267092 1.0310085 2.0166538e-18)
(49.328149 1.0716973 -8.9356911e-19)
(49.39717 1.1160662 0)
(49.474394 1.1511495 0)
(49.559966 1.2012038 0)
(49.663564 1.2219055 0)
(49.776711 1.2436316 -1.4767552e-20)
(49.879837 1.2766079 2.3595785e-19)
(49.989813 1.3352849 -2.3432809e-20)
(50.125883 1.392487 -1.4467015e-19)
(50.258579 1.3694544 1.4580486e-19)
(50.416796 1.3202647 -2.5684176e-19)
(50.619804 1.2634614 2.2673869e-19)
(50.824406 1.17984 -9.99609e-20)
(51.037287 1.0722332 1.3221734e-19)
(51.247564 0.94008483 7.7722039e-20)
(51.460383 0.77541174 0)
(51.653559 0.5802044 2.8724544e-20)
(51.781581 0.42512007 -3.3731617e-24)
(51.824236 0.29111964 -1.1753696e-19)
(51.976383 0.081901753 3.2609409e-20)
(49.339929 0.59493244 -2.5240828e-18)
(49.352956 0.6078007 2.2748733e-18)
(49.3681 0.62340578 0)
(49.385549 0.6412878 0)
(49.405514 0.66126176 6.8087309e-21)
(49.428234 0.68351335 0)
(49.453822 0.70821017 0)
(49.482003 0.73530276 -1.2684426e-18)
(49.512058 0.76458521 1.1265562e-18)
(49.543127 0.79593331 6.1554644e-25)
(49.575063 0.8291667 6.9474108e-21)
(49.608163 0.8635525 0)
(49.641557 0.89857253 0)
(49.675888 0.93291407 0)
(49.710465 0.96390126 0)
(49.755116 1.0038433 0)
(49.811317 1.0243089 -1.2971172e-20)
(49.876328 1.0656525 -1.1610923e-20)
(49.966858 1.0741947 -2.8701311e-19)
(50.071232 1.0618404 5.7940926e-19)
(50.177086 1.0777023 -2.8787728e-19)
(50.31883 1.0562357 -2.8219664e-20)
(50.473625 1.0122744 -9.9890967e-20)
(50.676057 0.92361491 8.8135131e-20)
(50.909639 0.83083761 -3.8856708e-20)
(51.128425 0.7348215 -6.8525454e-20)
(51.364196 0.61249115 0)
(51.567598 0.47848456 5.3287658e-20)
(51.682454 0.34882538 2.3468053e-20)
(51.743924 0.22216152 1.036299e-19)
(51.811587 0.049153762 6.023974e-20)
(49.800449 0.47147149 -2.2307984e-18)
(49.807412 0.48113227 2.0078056e-18)
(49.814611 0.49336106 -1.8097166e-21)
(49.821737 0.50746241 1.6946209e-18)
(49.828495 0.52295302 -1.5413871e-18)
(49.834564 0.53969898 -1.3908303e-18)
(49.839624 0.55727068 7.4215005e-24)
(49.843209 0.57510871 2.2293574e-18)
(49.844465 0.59363687 -9.9163141e-19)
(49.842295 0.61248626 -3.4423584e-21)
(49.835356 0.63208625 3.5929128e-25)
(49.823408 0.65197784 5.4292999e-21)
(49.80816 0.67149473 0)
(49.794515 0.69054841 8.4971498e-21)
(49.787721 0.71270399 -4.7993769e-19)
(49.791984 0.72487924 4.1707229e-19)
(49.810527 0.75482421 0)
(49.84532 0.71861774 0)
(49.893131 0.72761368 1.6557683e-19)
(49.964534 0.72715758 1.2185611e-21)
(50.046762 0.71679915 3.805517e-21)
(50.152116 0.71600977 0)
(50.281332 0.67161735 0)
(50.496656 0.64343651 1.5406245e-19)
(50.789527 0.58100685 -1.7046207e-19)
(51.032482 0.52515875 -3.0210253e-20)
(51.295181 0.44601882 -5.3280252e-20)
(51.514821 0.34547238 0)
(51.632013 0.25619304 -2.3753341e-24)
(51.69042 0.11754514 -7.3091181e-20)