/*--------------------------------*- C++ -*----------------------------------*\
| =========                 |                                                 |
| \\      /  F ield         | OpenFOAM: The Open Source CFD Toolbox           |
|  \\    /   O peration     | Version:  2406                                  |
|   \\  /    A nd           | Website:  www.openfoam.com                      |
|    \\/     M anipulation  |                                                 |
\*---------------------------------------------------------------------------*/
FoamFile
{
    version     2.0;
    format      ascii;
    arch        "LSB;label=32;scalar=64";
    class       volScalarField;
    location    "0.035";
    object      omega;
}
// * * * * * * * * * * * * * * * * * * * * * * * * * * * * * * * * * * * * * //

dimensions      [0 0 -1 0 0 0 0];

internalField   nonuniform List<scalar> 
35803
(
21842.109
19391.435
16969.747
14662.506
12512.837
10545.496
8774.7348
7206.3641
5839.6184
4669.6094
3685.5991
2872.2764
2211.6271
1684.1378
1269.7431
948.76132
700.68839
496.79324
324.31538
223.23374
176.05132
153.7088
138.2106
124.47148
115.52499
109.66011
106.17151
101.80141
100.51066
98.260318
97.120211
19090.029
17059.234
15072.866
13159.392
11346.028
9656.1007
8108.0864
6714.8048
5483.6676
4416.4024
3508.54
2750.2687
2128.7461
1628.5974
1233.0011
924.67297
684.552
484.72639
315.11292
218.82834
174.23003
152.86271
137.60995
124.03696
115.23131
109.50231
106.11006
101.76394
100.47716
98.254083
97.122995
16470.243
14855.003
13253.143
11687.277
10178.988
8749.0802
7416.6341
6197.6889
5104.3417
4143.379
3315.5487
2616.175
2037.0551
1566.829
1191.9645
897.64976
666.36339
471.07726
305.70944
215.73884
173.1848
152.38005
137.26865
123.77041
115.02074
109.38501
106.07716
101.73764
100.44803
98.251405
97.126315
14007.761
12761.551
11502.073
10248.122
9018.2368
7831.1753
6705.3401
5657.7512
4702.8233
3850.7592
3106.3956
2469.4863
1935.9752
1498.2976
1146.185
867.31727
645.76711
455.24662
295.52642
211.96714
171.60868
151.60515
136.70659
123.34717
114.72502
109.20865
106.02705
101.71048
100.41382
98.247525
97.130367
11741.196
10803.888
9838.2571
8858.1125
7878.154
6914.2767
5983.0446
5100.8236
4282.5836
3540.3469
2881.839
2310.3235
1825.3091
1422.6881
1095.3328
833.34358
622.34846
436.77498
284.28648
208.03427
170.04826
150.84675
136.16814
122.93798
114.42923
109.0179
105.97779
101.67989
100.38954
98.243561
97.135318
9694.3348
9007.1512
8284.866
7537.7875
6776.3492
6012.7864
5260.7742
4534.7195
3848.7152
3215.1684
2643.4478
2139.3233
1705.1574
1339.8358
1039.1397
795.39678
595.60346
415.31546
272.04402
203.8026
168.21209
149.91491
135.46983
122.39924
114.05301
108.78622
105.91081
101.6456
100.36628
98.238177
97.141349
7879.3385
7389.2523
6862.2248
6307.4574
5731.4422
5142.6263
4551.2626
3968.944
3407.8139
2879.459
2393.6865
1957.7259
1575.9858
1249.7652
977.413
753.13901
564.89419
390.52424
259.01477
199.36951
166.25223
148.90977
134.70678
121.79564
113.65715
108.53589
105.83652
101.61337
100.34202
98.231496
97.148632
6300.0834
5959.1639
5584.9559
5184.4138
4761.0408
4320.0311
3868.3265
3414.4311
2967.9364
2538.7356
2136.0346
1767.5001
1438.7289
1152.7601
910.06626
706.22561
529.37653
362.07097
245.62974
194.71124
164.05313
147.72955
133.81383
121.05785
113.23886
108.2503
105.74681
101.57839
100.31137
98.222671
97.157336
4951.8863
4720.9699
4462.8369
4182.1559
3880.3794
3560.2236
3225.85
2882.8932
2538.2639
2199.6851
1874.9966
1571.4091
1294.8672
1049.423
837.12832
654.26891
487.96315
330.17052
232.51085
189.85014
161.68145
146.41756
132.83359
120.22716
112.78632
107.9324
105.64855
101.54093
100.27891
98.211321
97.167658
3824.5155
3672.4994
3499.7263
3309.0663
3100.7406
2875.8081
2636.3771
2385.7433
2128.3834
1869.7589
1615.9176
1372.956
1146.4305
940.68862
758.75086
596.59539
439.19731
296.32707
220.15967
184.76789
159.07256
144.89928
131.69524
119.33582
112.21492
107.57157
105.53337
101.49856
100.24044
98.196274
97.179858
2901.1214
2804.1329
2692.1318
2566.7881
2427.7243
2275.0472
2109.5256
1932.7581
1747.2644
1556.4709
1364.5561
1176.146
995.86901
827.7276
675.01116
531.69272
381.7142
263.46231
208.79128
179.46166
156.25911
143.20727
130.43121
118.35125
111.56779
107.19839
105.40943
101.45014
100.19545
98.176504
97.194185
2159.938
2100.2628
2030.2092
1950.6953
1861.1482
1761.2414
1651
1530.9306
1402.1474
1266.4581
1126.3704
984.97677
845.68359
711.62543
585.24901
455.95822
319.06574
236.17575
198.26328
173.88249
153.17681
141.3073
128.94323
117.11673
110.81228
106.79404
105.22697
101.3919
100.14773
98.150799
97.21022
1576.3851
1540.8414
1498.6994
1450.2837
1394.9646
1332.2184
1261.7016
1183.306
1097.2577
1004.2245
905.39015
802.45679
697.56774
592.50374
485.97466
365.97488
264.43761
216.04982
188.10631
167.9901
149.85501
139.22763
127.19453
115.75072
109.9749
106.33512
104.98088
101.3116
100.10268
98.123381
97.229064
1122.5426
1102.2081
1077.9038
1049.6817
1017.0345
979.42767
936.33468
887.29041
831.96668
770.24607
702.26346
628.46843
550.1151
466.9844
373.47369
281.08264
229.95819
200.2541
178.13972
162.2635
146.17336
136.74573
125.13404
114.26187
109.01139
105.79651
104.64266
101.1974
100.04953
98.112055
97.250768
769.67253
758.49313
745.07416
729.34081
710.85227
689.13017
663.68235
633.91038
599.18286
558.80402
512.20973
459.23097
401.83306
338.46376
278.47672
233.66521
206.89552
186.34674
170.23872
155.75295
142.20618
133.71795
122.74816
112.6726
107.96028
105.22188
104.19922
101.01746
99.95161
98.109596
97.275191
495.97886
489.72116
482.49772
474.26424
464.50188
452.54372
437.85966
419.89234
398.2449
372.61754
343.93989
315.28925
285.91194
255.89163
228.28978
207.10293
189.66834
174.54055
160.15511
149.5171
137.72052
129.94997
120.21045
110.86136
106.88288
104.57267
103.66194
100.76965
99.842131
98.111596
97.301525
319.47498
316.33131
312.58846
308.30674
303.35152
297.45695
290.55164
282.32451
271.97408
260.39841
248.01404
236.50431
222.97536
211.82328
201.79549
186.499
171.66538
160.70924
152.23531
141.93692
132.67113
125.69617
117.25416
108.98067
105.77362
103.97176
103.03418
100.48238
99.682007
98.127404
97.32949
223.18285
222.18152
221.02538
219.50843
217.57115
214.91692
211.26637
207.48782
202.96027
198.51189
195.79645
192.72757
186.35016
179.62737
177.29614
167.57811
157.52652
148.73806
140.00443
133.3944
126.25471
120.7339
114.41686
106.98282
104.69388
103.38815
102.44548
100.15285
99.479726
98.170043
97.358154
175.1532
174.58054
173.945
173.21325
172.37149
171.53324
170.48742
168.21099
165.54106
162.07155
160.12564
157.53714
154.3902
149.35614
146.50077
147.28549
142.5745
133.46629
129.20367
123.60456
119.79524
115.48457
110.98886
105.37518
103.71136
102.68167
102.09723
99.837063
99.249551
98.251098
97.384405
151.19509
150.67908
150.02606
149.02719
147.57308
145.7891
144.41201
143.28361
142.36742
141.72476
141.39525
139.42687
135.64552
134.22823
129.4516
126.85427
126.42061
124.95833
119.58717
115.69493
112.77187
110.81755
108.44883
104.02336
102.79453
101.97251
101.5253
99.536974
99.02928
98.37647
97.42085
131.34438
131.12742
130.9563
130.93455
131.09426
131.30521
131.33624
131.09982
130.29147
128.61748
125.63813
124.3891
122.77664
121.84626
120.27444
117.09831
115.46961
114.29782
114.33685
111.59183
109.19159
107.44401
105.99692
102.82008
101.95603
101.33169
100.83652
99.254416
98.837746
98.458503
97.460027
120.56037
120.36029
120.06964
119.56615
118.88192
118.32266
117.89356
117.50723
117.12374
116.69077
116.68244
116.56162
116.38936
113.84026
112.79948
111.94979
110.1063
108.69194
107.95832
108.50659
107.0776
105.54266
104.23291
101.90068
101.00066
100.71225
100.30883
99.012417
98.69367
98.483254
97.484724
111.29203
111.26481
111.26852
111.34042
111.51281
111.64079
111.7195
111.71734
111.58599
111.16556
110.1502
109.11031
108.42943
108.6152
107.58757
107.15859
107.0581
105.55585
104.42766
104.75332
105.26188
104.43899
102.68475
101.04563
100.31236
100.28022
99.855464
98.780855
98.517425
98.32194
97.528859
106.22859
106.18146
106.08927
105.92044
105.70568
105.57794
105.50159
105.44276
105.36107
105.24576
105.09426
105.21145
105.04872
104.23237
104.16826
103.64131
103.28552
103.50911
102.62286
102.02872
102.15132
103.15966
101.87081
100.36521
99.710875
99.783183
99.398171
98.578781
98.383625
98.255023
97.575913
102.25875
102.2652
102.27465
102.30912
102.39137
102.50255
102.62413
102.72712
102.739
102.65149
102.38825
101.8522
101.45435
101.33609
101.23231
101.38269
101.3641
101.03382
101.30068
100.71076
100.37739
100.7293
101.02474
99.493403
99.275834
99.32285
99.114319
98.420248
98.315265
98.168775
97.638446
100.15425
100.14588
100.12417
100.09156
100.05422
100.01198
99.964398
99.916587
99.897011
99.875691
99.824709
99.761307
99.725506
99.728481
99.831146
99.762861
99.773489
99.76104
99.61884
99.626903
99.278798
99.123664
99.808033
98.924067
98.745191
98.96389
98.764696
98.279607
98.285959
98.030711
97.718683
98.968708
98.966966
98.959762
98.947825
98.936134
98.927457
98.924232
98.928516
98.941685
98.955628
98.95726
98.935832
98.889321
98.846841
98.858685
98.916198
98.926035
98.915161
98.878407
98.781359
98.638974
98.564504
98.751741
98.621788
98.474115
98.721286
98.568007
98.180881
98.245245
97.988841
97.897799
98.444688
98.442045
98.435925
98.427312
98.419804
98.415421
98.415341
98.419521
98.428123
98.439303
98.447236
98.448942
98.447209
98.462183
98.48413
98.505391
98.525714
98.519699
98.486073
98.484526
98.352828
98.381
98.395344
98.406777
98.330977
98.537329
98.399924
98.128951
98.176579
97.986735
97.997594
98.223538
98.221598
98.218469
98.215097
98.213325
98.214795
98.220893
98.232698
98.248944
98.26676
98.283417
98.289715
98.292588
98.297731
98.307573
98.323479
98.336404
98.345213
98.350614
98.373744
98.288974
98.317071
98.296407
98.297556
98.278675
98.398577
98.333784
98.134824
98.140543
98.070184
98.133445
98.241462
98.24227
98.243034
98.243666
98.243679
98.24302
98.241601
98.239541
98.238151
98.238398
98.239295
98.240559
98.242139
98.245201
98.25183
98.263633
98.276915
98.287908
98.306441
98.343296
98.339433
98.325281
98.401269
98.295638
98.32102
98.373134
98.32423
98.248921
98.208888
98.234495
98.200836
98.363648
98.363028
98.362076
98.360837
98.359756
98.358858
98.358102
98.35746
98.357012
98.356814
98.356686
98.356545
98.356454
98.356746
98.357751
98.35976
98.362221
98.364535
98.362647
98.346538
98.361262
98.37709
98.443318
98.3805
98.368369
98.371278
98.370402
98.354846
98.344674
98.352174
98.342031
58349.337
84625.564
103564.44
100188.8
84584.6
59920.48
42713.729
31242.16
23082.317
17003.031
12414.427
8956.8488
6379.4819
4488.296
3122.1174
2149.8999
1467.3086
990.21858
656.89539
425.8824
272.18484
193.32315
157.37464
135.92706
123.71324
114.39226
108.87105
103.65312
101.7154
98.348547
96.959415
78025.574
106662.2
109716.97
98989.794
71346.628
50555.562
37395.694
28164.417
21171.458
15765.848
11600.809
8421.6396
6031.5335
4265.4116
2981.5657
2062.6861
1413.9716
957.80631
637.34428
413.80981
265.26848
190.16994
156.06583
135.28686
123.34804
114.15803
108.73001
103.59378
101.68611
98.338328
96.96132
103103.77
118180.37
111344.71
87778.573
61975.055
45374.26
34228.245
26020.15
19678.03
14732.52
10894.054
7945.7253
5717.2602
4061.7448
2851.9588
1981.6648
1364.1199
927.34178
618.9108
402.43646
259.13325
187.80653
155.19957
134.87554
123.10012
113.98487
108.61706
103.54877
101.66012
98.328374
96.963262
125133.82
122223.64
105903.76
75241.197
54606.304
41184.007
31566.583
24185.238
18383.587
13823.858
10263.642
7516.4018
5431.0149
3874.6777
2732.0475
1906.2296
1317.45
898.65984
601.50036
391.68139
253.43663
185.50491
154.25998
134.40093
122.82071
113.79353
108.49066
103.49739
101.6326
98.31896
96.965248
134747.37
122468.57
90240.99
65109.023
49001.355
37782.227
29277.931
22568.159
17232.086
13008.997
9693.914
7125.7887
5168.8094
3702.1949
2620.8126
1835.8644
1273.6969
871.62346
585.0498
381.45997
248.03994
183.33971
153.39655
133.96912
122.56869
113.61923
108.37029
103.44953
101.60592
98.310209
96.967307
137659.27
106729.32
77044.49
57737.916
44649.652
34920.481
27266.89
21123.63
16195.915
12271.037
9175.3116
6768.5046
4927.6869
3542.7122
2517.4182
1770.1333
1232.6317
846.11239
569.49162
371.71329
242.9122
181.30103
152.56383
133.54149
122.32181
113.44828
108.24767
103.40012
101.57888
98.302119
96.969452
124887.32
90339.651
67364.977
52142.01
41075.704
32440.884
25478.902
19825.017
15257.921
11599.133
8701.2352
6440.5546
4705.3335
3394.938
2421.1612
1708.6603
1194.0536
822.02193
554.75805
362.4033
238.04442
179.38359
151.77244
133.13115
122.08905
113.28813
108.12761
103.35154
101.55221
98.294682
96.971693
103815.83
77599.423
60202.437
47712.079
38052.633
30262.646
23879.794
18653.19
14405.563
10985.387
8266.6711
6138.7873
4499.8667
3257.7916
2331.4393
1651.1173
1157.7849
799.25158
540.78723
353.50441
233.43066
177.58104
151.01577
132.73192
121.86639
113.13675
108.00883
103.30239
101.52558
98.287903
96.974036
89047.717
69015.112
54844.394
44072.183
35436.72
28329.932
22443.436
17592.452
13628.802
10423.617
7867.5613
5860.6094
4309.7098
3130.3509
2247.7295
1597.2152
1123.6678
777.70968
527.51467
344.99871
229.06513
175.88688
150.29286
132.34506
121.65473
112.99623
107.89292
103.25315
101.49921
98.281775
96.976484
78074.766
62263.146
50413.159
40953.133
33137.867
26604.098
21148.955
16629.629
12919.52
9908.6947
7500.4829
5603.8233
4133.5132
3011.816
2169.5722
1546.6971
1091.5611
757.33231
514.8814
336.87084
224.94245
174.29476
149.60111
131.96905
121.45226
112.86655
107.78006
103.20328
101.47295
98.276293
96.979039
69977.077
57068.756
46786.809
38271.502
31104.913
25056.384
19979.019
15753.652
12270.922
9436.1769
7162.474
5366.5288
3970.1026
2901.484
2096.5596
1499.333
1061.3381
738.06295
502.84033
329.10371
221.05739
172.79845
148.93871
131.60365
121.25765
112.74837
107.671
103.15277
101.44681
98.271434
96.981704
63979.998
52893.831
43695.828
35913.838
29289.723
23662.812
18918.961
14955.093
11677.123
9002.1459
6850.9369
5147.0603
3818.4433
2798.7314
2028.3271
1454.916
1032.8875
719.84063
491.34032
321.67998
217.40385
171.39181
148.30381
131.24828
121.06857
112.64158
107.56615
103.10138
101.42067
98.26716
96.984484
59218.586
49376.093
41002.809
33822.278
27662.197
22404.932
17956.255
14225.948
11133.019
8603.132
6563.5739
4943.9433
3677.6155
2703
1964.546
1413.2589
1006.1128
702.61977
480.33792
314.58532
213.97464
170.06887
147.6948
130.90273
120.88239
112.54573
107.46616
103.04908
101.39444
98.263402
96.987386
55292.419
46352.116
38633.219
31956.858
26198.442
21266.819
17080.173
13559.482
10634.064
8236.039
6298.3398
4755.8631
3546.7954
2613.7879
1904.9193
1374.1912
980.92026
686.35406
469.82901
307.80876
210.76189
168.82417
147.11024
130.56686
120.69605
112.45953
107.3715
102.99597
101.368
98.260095
96.99042
51947.857
43709.272
36531.097
30285.764
24878.54
20234.85
16281.644
12949.795
10176.177
7898.1003
6053.4073
4581.6414
3425.242
2530.6409
1849.1766
1337.5571
957.22303
671.00046
459.79891
301.34159
207.75711
167.6526
146.54884
130.24065
120.50647
112.38079
107.28254
102.94236
101.34125
98.257192
96.993594
49048.148
41379.382
34657.132
28784.112
23685.813
19297.352
15552.892
12391.624
9755.71
7586.8419
5827.1385
4420.2182
3312.2855
2453.1469
1797.0714
1303.2134
934.947
656.51978
450.23205
295.17711
204.95135
166.54943
146.00949
129.92418
120.31088
112.30646
107.19961
102.8888
101.31411
98.254632
96.996919
46508.275
39313.373
32980.165
27431.442
22605.83
18444.229
14887.231
11880.276
9369.4016
7300.0496
5618.0616
4270.637
3207.3191
2380.9309
1748.3783
1271.0277
914.02353
642.87567
441.11131
289.31055
202.3353
165.51034
145.49124
129.61752
120.10728
112.23317
107.12291
102.83599
101.2865
98.252386
97.000404
44269.474
37473.39
31474.815
26210.352
21626.147
17666.871
14278.781
11411.578
9014.3418
7035.7382
5424.8515
4132.0329
3109.7918
2313.6509
1702.8906
1240.8819
894.38746
630.03612
432.41818
283.7389
199.89957
164.53138
144.9933
129.32075
119.89476
112.15762
107.05224
102.78472
101.25835
98.250467
97.004053
42286.405
35828.487
30119.89
25105.933
20736.029
16957.877
13722.338
10981.811
8687.9286
6792.1251
5246.3129
4003.6225
3019.2023
2250.9942
1660.4184
1212.6699
875.97731
617.97237
424.1338
278.45958
197.63492
163.60899
144.51502
129.0339
119.67371
112.07653
106.98684
102.73562
101.22957
98.248834
97.007869
40520.494
34352.709
28897.639
24105.255
19926.192
16310.861
13213.258
10587.655
8387.8316
6567.6073
5081.3665
3884.6954
2935.0941
2192.6751
1620.7868
1186.2803
858.72392
606.65666
416.23966
273.46913
195.5322
162.73995
144.05591
128.75693
119.44565
111.98735
106.92578
102.68905
101.20006
98.247464
97.011851
38941.577
33024.736
27792.848
23197.184
19188.695
15720.156
12747.408
10226.144
8111.9615
6360.7418
4929.0364
3774.6066
2857.0514
2138.432
1583.8344
1161.6094
842.55769
596.05967
408.71808
268.7627
193.58245
161.92134
143.61561
128.48978
119.21303
111.88905
106.86815
102.645
101.16976
98.246381
97.015992
37523.799
31826.451
26792.387
22372.071
18516.647
15180.73
12321.103
9894.6267
7858.4433
6170.2283
4788.44
3672.7708
2784.6947
2088.0259
1549.4239
1138.5736
827.42357
586.15033
401.55159
264.33464
191.77698
161.15057
143.19387
128.23238
118.97898
111.78223
106.81316
102.60332
101.13875
98.245593
97.020285
36246.143
30742.674
25884.87
21621.519
17904.036
14688.1
11931.056
9590.7288
7625.5921
5994.8939
4658.7781
3578.656
2717.6782
2041.2368
1517.4177
1117.0955
813.26842
576.90359
394.72298
260.17932
190.10744
160.42532
142.79059
127.98465
118.74723
111.66875
106.76022
102.56384
101.10729
98.245093
97.024718
35090.617
29760.324
25060.441
20938.266
17345.505
14238.281
11574.333
9312.3224
7411.8933
5833.6807
4539.3272
3491.7794
2655.6864
1997.8704
1487.6793
1097.1003
800.05522
568.27726
388.21885
256.29038
188.56584
159.7435
142.40573
127.74651
118.52209
111.55114
106.70896
102.52637
101.07588
98.244888
97.029275
34042.108
28868.137
24310.526
20315.946
16836.282
13827.729
11248.307
9057.4984
7215.9843
5685.6336
4429.432
3411.7028
2598.4321
1957.7421
1460.0997
1078.519
787.75101
560.23851
382.03169
252.66069
187.14465
159.10324
142.03935
127.51788
118.30825
111.43226
106.6592
102.49095
101.04517
98.244871
97.033938
33087.918
28055.845
23627.635
19749.001
16372.148
13453.246
10950.624
8824.5467
7036.6393
5549.8907
4328.4996
3338.0278
2545.6727
1920.6764
1434.5759
1061.2883
776.32214
552.75996
376.15815
249.28336
185.83682
158.50286
141.69155
127.29871
118.11035
111.31538
106.61076
102.45757
101.01571
98.245171
97.038687
32216.894
27315.178
23005.32
19232.552
15949.358
13111.972
10679.172
8611.9353
6872.7563
5425.6749
4235.9916
3270.4089
2497.1661
1886.5281
1411.0126
1045.3501
765.73452
545.81418
370.59603
246.1516
184.63577
157.94086
141.36243
127.08909
117.93183
111.20407
106.56353
102.42601
100.98773
98.245393
97.043499
31419.637
26638.767
22437.862
18762.191
15564.538
12801.401
10432.07
8418.2817
6723.3445
5312.2853
4151.4367
3208.5116
2452.6761
1855.1579
1389.323
1030.6508
755.95475
539.37405
365.3427
243.25826
183.53545
157.41589
141.05209
126.88922
117.77365
111.10093
106.51727
102.39603
100.96105
98.245462
97.048321
30687.908
26020.115
21920.196
18333.984
15214.684
12519.27
10207.659
8242.334
6587.5118
5209.1149
4074.4414
3152.0238
2412.0136
1826.438
1369.4276
1017.1414
746.95105
533.41434
360.39526
240.5956
182.53042
156.92674
140.76061
126.69935
117.6338
111.00635
106.47147
102.36673
100.93519
98.245346
97.053113
30014.456
25453.475
21447.841
17944.434
14897.121
12263.558
10004.435
8082.962
6464.489
5115.668
4004.5934
3100.6984
2375.0025
1800.2532
1351.2547
1004.7773
738.69373
527.91209
355.75144
238.15547
181.61568
156.47223
140.48805
126.51969
117.50821
110.91896
106.42609
102.33697
100.90964
98.244968
97.057846
29392.929
24933.81
21016.871
17590.461
14609.46
12032.447
9821.0874
7939.3995
6353.6893
5031.3982
3941.5038
3054.2919
2341.4831
1776.5
1334.7391
993.51783
731.15556
522.84656
351.40976
235.93226
180.78398
156.0513
140.2344
126.35027
117.3927
110.8371
106.38304
102.30607
100.88422
98.244395
97.062487
28817.849
24456.803
20623.905
17269.483
14349.756
11824.515
9656.6042
7810.9605
6254.4575
4955.8054
3884.87
3012.5826
2311.3118
1755.0854
1319.8223
983.32642
724.31201
518.19925
347.38025
233.91441
180.02134
155.66315
139.99938
126.19074
117.28395
110.75948
106.3434
102.27486
100.85896
98.243724
97.067012
28288.77
24021.369
20267.675
16980.257
14116.984
11638.911
9510.1596
7696.5691
6166.109
4888.5137
3834.4043
2975.3747
2284.3598
1735.9257
1306.4519
974.17235
718.1415
513.95449
343.67249
232.0832
179.32809
155.30709
139.78263
126.04039
117.17898
110.68521
106.30715
102.24417
100.83396
98.242958
97.071404
27811.609
23630.449
19949.307
16722.744
13910.356
11474.773
9380.6892
7595.4473
6088.1389
4829.1414
3789.8533
2942.4962
2260.5128
1718.9468
1294.581
966.02769
712.62552
510.09987
340.28699
230.42983
178.70125
154.98254
139.58359
125.89813
117.07497
110.61345
106.2744
102.21362
100.80923
98.242248
97.075659
27384.2
23282.744
19667.474
16495.564
13728.462
11330.385
9267.0776
7507.0153
6020.0582
4777.3547
3750.9912
2913.7957
2239.6701
1704.083
1284.1681
958.86536
707.74985
506.62632
337.22114
228.94681
178.13896
154.68902
139.40148
125.76262
116.97025
110.5434
106.24523
102.1828
100.78474
98.241622
97.07976
26985.767
22964.713
19413.58
16293.456
13568.305
11204.066
9168.4625
7430.6241
5961.4459
4732.8626
3717.623
2889.141
2221.7442
1691.2772
1275.1772
952.66351
703.50341
503.52743
334.47128
227.62761
177.63916
154.42622
139.23534
125.63246
116.86429
110.47457
106.21952
102.15132
100.76035
98.241173
97.083686
26598.679
22663.122
19178.605
16110.733
13426.557
11094.407
9083.8786
7365.7003
5911.9348
4695.4162
3689.5813
2868.4201
2206.6592
1680.4802
1267.5778
947.40434
699.87666
500.79974
332.03337
226.46635
177.20002
154.19387
139.08403
125.50647
116.75717
110.40697
106.19712
102.11911
100.73595
98.240984
97.087414
26230.228
22381.235
18963.418
15947.013
13302.303
11000.265
9012.5743
7311.7528
5871.2069
4664.8032
3666.7245
2851.5397
2194.3531
1671.6504
1261.3435
943.07293
696.86275
498.44203
329.90318
225.45784
176.81973
153.99183
138.94634
125.38393
116.64933
110.34114
106.17816
102.08673
100.71181
98.24102
97.090925
25886.192
22121.429
18768.617
15802.008
13194.918
10920.963
8953.9828
7268.3775
5838.9941
4640.8463
3648.9369
2838.4231
2184.776
1664.7542
1256.4534
939.65747
694.4574
496.45534
328.0765
224.59745
176.4966
153.81995
138.82105
125.26474
116.54129
110.27749
106.16275
102.05499
100.68844
98.241322
97.094199
25567.129
21884.24
18594.316
15675.472
13103.978
10856.037
8907.6801
7235.2508
5815.0781
4623.402
3636.127
2829.0114
2177.8888
1659.7662
1252.8907
937.14913
692.65882
494.84298
326.54929
223.88105
176.229
153.67809
138.70713
125.14951
116.43505
110.21621
106.15102
102.02407
100.66604
98.241933
97.097228
25270.781
21668.471
18439.855
15566.939
13029.087
10805.133
8873.3487
7212.1223
5799.288
4612.3601
3628.2277
2823.2625
2173.6639
1656.6675
1250.6431
935.54164
691.46772
493.61068
325.31785
223.30503
176.01538
153.5661
138.60384
125.0394
116.3315
110.15789
106.14252
101.99358
100.64448
98.242839
97.100007
24993.884
21472.111
18304.071
15475.746
12969.83
10767.963
8850.7585
7198.8055
5791.4964
4607.6436
3625.195
2821.1515
2172.0859
1655.4471
1249.703
934.83169
690.88701
492.76672
324.37898
222.8663
175.85429
153.48375
138.51086
124.93592
116.2302
110.10212
106.13577
101.96322
100.62388
98.244001
97.102545
24733.187
21293.061
18185.677
15401.159
12925.798
10744.301
8839.7627
7195.1684
5791.6126
4609.0624
3626.8366
2822.5284
2173.0528
1656.0408
1250.0317
934.99859
690.91619
492.32189
323.72997
222.56236
175.74428
153.43065
138.42841
124.84074
116.13236
110.04689
106.1292
101.93308
100.60471
98.245413
97.104865
24485.904
21129.51
18083.533
15342.512
12896.616
10733.992
8840.2837
7200.5577
5798.7796
4616.5581
3633.4559
2827.7072
2176.7845
1658.5841
1251.7066
936.08689
691.57191
492.29075
323.36842
222.39106
175.68386
153.4063
138.35724
124.75538
116.03873
109.99
106.12306
101.90411
100.5873
98.247025
97.10701
24249.944
20980.041
17996.755
15299.28
12881.991
10736.711
8851.2398
7215.2101
5814.4912
4630.7017
3645.0064
2836.5437
2183.1859
1663.0192
1254.6925
938.07603
692.85847
492.69138
323.29189
222.35035
175.67148
153.4087
138.29876
124.68115
115.9487
109.93113
106.12166
101.87801
100.57171
98.248792
97.10904
24023.305
20843.397
17924.69
15271.063
12881.933
10751.65
8873.5909
7240.4915
5838.2357
4651.1687
3661.4847
2849.087
2192.2912
1669.369
1259.0013
940.9712
694.78621
493.54633
323.47667
222.41682
175.69315
153.43956
138.25539
124.61949
115.86257
109.87363
106.12579
101.85584
100.55804
98.250697
97.111021
23802.335
20717.72
17866.679
15257.574
12895.111
10778.937
8908.4364
7275.5429
5869.9867
4678.0557
3682.9615
2865.3973
2204.1459
1677.6639
1264.6494
944.77895
697.36566
494.88405
323.98343
222.65471
175.77657
153.49728
138.23053
124.57226
115.78281
109.81976
106.13732
101.83736
100.54586
98.252761
97.113026
23578.342
20599.172
17821.401
15258.717
12921.878
10819.749
8954.4864
7320.3752
5909.8376
4711.4581
3709.5218
2885.5453
2218.804
1687.9413
1271.6571
949.50647
700.60693
496.74111
324.76478
222.99648
175.90116
153.57886
138.22715
124.54068
115.70947
109.76779
106.15263
101.82181
100.5348
98.254974
97.115131
23332.906
20479.178
17784.176
15270.811
12960.441
10869.827
9006.4804
7369.4496
5953.1138
4747.7615
3738.479
2907.5854
2234.884
1699.2274
1279.3261
954.62484
704.06837
498.75118
325.60296
223.36838
176.03775
153.65663
138.23736
124.52254
115.63738
109.7171
106.16418
101.80834
100.52376
98.257442
97.117424
50767.448
74754.726
98855.338
98075.723
84233.461
60999.227
43790.492
32002.841
23641.849
17427.279
12735.769
9194.0926
6548.523
4604.7323
3199.8513
2200.2949
1499.083
1009.8629
668.71823
433.10211
275.9386
194.78991
157.88683
136.16236
123.87978
114.52233
108.95618
103.68474
101.7355
98.356271
96.957057
48998.863
70163.199
93529.013
95963.668
82979.744
60776.029
43808.431
32103.174
23752.529
17535.304
12834.107
9277.4885
6614.2373
4653.6026
3234.5299
2223.9167
1514.5579
1019.7406
674.84449
437.16193
278.33757
195.81518
158.24065
136.32655
124.0077
114.62122
109.01754
103.70491
101.74758
98.360423
96.9546
47492.016
66510.944
88549.502
93140.627
81398.155
60369.2
43798.568
32188.902
23855.923
17639.061
12929.808
9359.4224
6679.3836
4702.372
3269.3047
2247.6901
1530.177
1029.7235
681.05709
441.26074
280.79383
196.87281
158.60183
136.4955
124.14115
114.72128
109.07769
103.72502
101.75949
98.365014
96.952064
46112.316
63431.002
84044.811
90296.327
79830.236
59922.538
43765.521
32259.422
23951.318
17738.121
13022.631
9439.7604
6743.8634
4750.9819
3304.1455
2271.6013
1545.9345
1039.8116
687.35393
445.38479
283.29221
197.96162
158.97231
136.67076
124.28042
114.82216
109.1373
103.74526
101.77132
98.370098
96.949626
44875.918
60775.075
79960.164
87424.027
78257.966
59438.974
43697.237
32313.527
24038.021
17832.115
13112.38
9518.382
6807.5935
4799.3831
3339.0264
2295.6378
1561.8251
1050.0031
693.73412
449.52294
285.82641
199.07674
159.34963
136.85079
124.42379
114.92224
109.19594
103.76529
101.78271
98.375592
96.947313
43777.928
58446.867
76256.417
84550.761
76674.82
58915.811
43598.429
32350.627
24115.505
17920.734
13198.9
9595.1891
6870.5043
4847.5326
3373.9241
2319.7885
1577.8439
1060.2979
700.19706
453.6576
288.39537
200.21603
159.73214
137.03443
124.56981
115.02024
109.25337
103.78484
101.79341
98.381383
96.944945
42806.555
56383.619
72897.798
81708.97
75051.616
58370.725
43471.268
32369.852
24183.34
18003.744
13282.051
9670.091
6932.5303
4895.3894
3408.8162
2344.0424
1593.9864
1070.6942
706.74226
457.78519
290.99965
201.3795
160.11961
137.22145
124.71759
115.11538
109.30973
103.80377
101.80327
98.387397
96.942396
41952.065
54543.921
69851.57
78925.408
73390.942
57801.795
43316.74
32368.814
24241.104
18080.964
13361.694
9742.9959
6993.6057
4942.9121
3443.6797
2368.3881
1610.2473
1081.1907
713.36927
461.90289
293.63937
202.56746
160.5123
137.41194
124.86643
115.20718
109.36533
103.822
101.81223
98.393634
96.939683
41205.89
52899.465
67090.452
76226.25
71709.399
57205.268
43136.153
32356.315
24288.755
18152.124
13437.683
9813.8093
7053.6631
4990.0581
3478.4908
2392.8138
1626.6216
1091.7858
720.07791
466.00824
296.31434
203.77997
160.9103
137.60585
125.01559
115.29526
109.42044
103.83939
101.82022
98.400087
96.936892
40556.501
51426.121
64582.643
73611.327
69969.527
56601.717
42931.531
32325.85
24325.932
18216.957
13509.868
9882.4353
7112.6348
5036.7832
3513.2247
2417.3068
1643.1036
1102.4778
726.86839
470.09825
299.02405
205.01686
161.31357
137.80299
125.16428
115.37932
109.47528
103.85575
101.82721
98.40675
96.934099
39992.765
50103.112
62299.574
71094.5
68230.775
55985.747
42704.468
32275.902
24352.277
18275.248
13578.102
9948.777
7170.4535
5083.0428
3547.8556
2441.8541
1659.6873
1113.265
733.74149
474.17529
301.76758
206.2779
161.72198
138.00309
125.3117
115.45922
109.52999
103.87085
101.83324
98.413625
96.931347
39503.762
48911.723
60214.017
68672.899
66419.451
55302.022
42452.859
32208.926
24367.445
18326.791
13642.242
10012.736
7227.0512
5128.7924
3582.3575
2466.4422
1676.3666
1124.145
740.69906
478.24753
304.5437
207.56279
162.13535
138.20587
125.45709
115.53496
109.58469
103.88446
101.83846
98.420727
96.928638
39078.463
47835.415
58302.947
66356.066
64638.607
54557.057
42175.269
32124.839
24369.963
18371.391
13702.151
10074.215
7282.3594
5173.9865
3616.7034
2491.0571
1693.1347
1135.1154
747.74375
482.32577
307.35076
208.8712
162.55354
138.41107
125.59979
115.6067
109.63941
103.89634
101.84315
98.428084
96.92596
38706.988
46860.584
56551.13
64175.871
63042.333
53772.839
41871.934
32023.968
24364.212
18409.042
13757.708
10133.119
7336.3086
5218.5789
3650.866
2515.6841
1709.9848
1146.1729
754.86144
486.42784
310.18745
210.20269
162.97637
138.61849
125.73918
115.67477
109.69412
103.90636
101.84771
98.435707
96.923301
38380.962
45975.425
54945.365
62137.855
61552.625
52961.682
41543.89
31906.554
24348.104
18439.624
13808.798
10189.353
7388.8289
5262.5234
3684.8173
2540.3084
1726.9098
1157.3153
762.0405
490.59773
313.0524
211.55675
163.4037
138.82794
125.87479
115.73963
109.74874
103.91445