/*--------------------------------*- C++ -*----------------------------------*\
| =========                 |                                                 |
| \\      /  F ield         | OpenFOAM: The Open Source CFD Toolbox           |
|  \\    /   O peration     | Version:  2406                                  |
|   \\  /    A nd           | Website:  www.openfoam.com                      |
|    \\/     M anipulation  |                                                 |
\*---------------------------------------------------------------------------*/
FoamFile
{
    version     2.0;
    format      ascii;
    arch        "LSB;label=32;scalar=64";
    class       volScalarField;
    location    "0.035";
    object      p;
}
// * * * * * * * * * * * * * * * * * * * * * * * * * * * * * * * * * * * * * //

dimensions      [1 -1 -2 0 0 0 0];

internalField   nonuniform List<scalar> 
35803
(
101167.27
101091.47
101048.25
100992.31
100935.51
100887.09
100850.45
100827.24
100817.45
100818.08
100829.48
100858.16
100897.9
100950.61
101006.76
101075.88
101142.61
101213.33
101248.59
101285.7
101315.06
101332.91
101350.92
101359.1
101384.11
101385.09
101404.63
101402.43
101417.91
101426.75
101401.71
101338.92
101270.86
101203.03
101128.2
101058
100997.71
100949.8
100916.16
100898.08
100888.43
100889.9
100909.52
100941.81
100987.24
101037.09
101098.86
101157.45
101223.02
101255.67
101292.03
101319.93
101336.87
101354.17
101362.06
101388.53
101387.38
101406.79
101404.62
101420.54
101427.39
101405.39
101448.85
101388.73
101314.29
101231.94
101154.79
101087.11
101031.32
100990.43
100963.22
100945.89
100937.44
100949.49
100975.47
101015.1
101061.29
101119.45
101173.89
101234.13
101264.9
101299.56
101325.65
101341.52
101358
101365.73
101393.18
101389.97
101408.66
101406.89
101423.42
101427.97
101409.62
101543.31
101486.81
101412.64
101327.6
101245.85
101172.32
101109.28
101059.55
101023.02
100998.21
100984.07
100989.14
101008.97
101043
101085.99
101141.08
101192.33
101246.35
101276.03
101308.16
101332.24
101346.89
101362.36
101370.01
101398.02
101393.14
101410.22
101409.17
101426.23
101428.52
101414.25
101629.76
101576.8
101505.48
101420.81
101336.93
101259.47
101190.76
101133.38
101088.59
101056.37
101036.67
101034.63
101047.96
101075.9
101115.14
101166.14
101213.44
101259.88
101289.09
101317.97
101339.81
101353.1
101367.28
101374.93
101403.25
101397.11
101411.67
101411.45
101428.79
101429.05
101419.11
101705.85
101656.73
101589.61
101507.77
101424.56
101345.77
101273.79
101211.11
101159.77
101120.87
101095.19
101086.08
101092.68
101114.21
101149.32
101195.14
101237.5
101275.33
101304.21
101329.15
101348.5
101360.25
101372.84
101380.5
101409.11
101401.85
101413.2
101413.74
101431.1
101429.6
101424.05
101769.72
101723.76
101661.76
101585.06
101505.36
101428.08
101355.54
101290.16
101234.38
101190.08
101158.79
101143.03
101142.97
101158.03
101188.82
101228.29
101264.69
101293.55
101321.42
101341.93
101358.49
101368.48
101379.15
101386.74
101415.36
101407.3
101415.06
101416.1
101433.28
101430.21
101429.04
101821.03
101775.05
101718.04
101649.57
101576.87
101504.25
101434.05
101368.7
101310.86
101262.94
101227.02
101205.41
101199.04
101207.81
101234.16
101265.82
101295.18
101315.92
101340.66
101356.54
101369.97
101377.9
101386.31
101393.6
101421.44
101413.38
101417.49
101418.66
101435.49
101430.95
101434.09
101858.03
101815.33
101764.27
101704.3
101639.75
101573.72
101508.22
101445.46
101388.02
101338.53
101299.45
101273.14
101261.12
101264.05
101285.51
101308.69
101328.86
101343.41
101361.89
101373.21
101383.16
101388.63
101394.44
101400.9
101427.01
101420.01
101420.64
101421.62
101437.94
101431.98
101439.29
101888.27
101847.98
101803.03
101751.21
101695.14
101636.86
101577.79
101519.74
101464.99
101416.07
101375.57
101346.01
101329.37
101327.17
101343.48
101357.25
101365.92
101375.63
101385.35
101392.13
101398.29
101400.8
101403.64
101408.84
101432.38
101427.05
101424.78
101425.26
101440.82
101433.43
101444.84
101910.86
101874.87
101835.15
101790.65
101743.63
101694.47
101643.43
101591.83
101541.66
101495.25
101455.12
101423.86
101403.89
101397.63
101408.44
101411.14
101408.36
101411.11
101411.52
101413.46
101415.55
101414.61
101414.12
101417.99
101438.33
101434.47
101430.48
101429.87
101444.12
101435.47
101451.27
101920.04
101904.8
101875.7
101836.51
101795.35
101753.27
101709.35
101664.22
101619.36
101576.65
101538.32
101506.88
101485.12
101475.96
101479.79
101469.98
101456.41
101448.45
101440.67
101437.28
101435.09
101430.29
101426.1
101428.29
101445.32
101442.44
101438.36
101435.54
101447.88
101438.3
101456.62
101942.88
101931.86
101913.7
101887.96
101854.96
101817.89
101779.18
101739.62
101700.01
101661.64
101626.34
101596.36
101574.45
101562.55
101555.15
101532.15
101506.68
101487.31
101472.34
101463.5
101457.05
101448.08
101439.72
101439.55
101453.22
101451.28
101448.21
101442.35
101452.29
101442.13
101461.33
101983.27
101973.21
101952.9
101927.55
101902.39
101875.49
101846.49
101815.64
101783.62
101751.76
101721.84
101695.38
101673.44
101653.58
101627.96
101592.23
101556.4
101527.02
101505.68
101492.1
101481.36
101467.85
101455.1
101451.9
101461.7
101460.76
101459.28
101450.28
101457.6
101447.13
101466.12
102031.05
102028.04
102017.22
101995.63
101968.57
101944.04
101922.55
101900.28
101875.48
101848.84
101821.75
101794.52
101765.97
101731.94
101690.31
101645.62
101602.94
101567.01
101540.64
101522.74
101507.48
101489.16
101472.32
101465.49
101470.65
101470.07
101471.04
101459.1
101464.09
101453.39
101471.37
102103.89
102106.8
102106.53
102101.06
102086.13
102060.34
102030.17
101999.6
101968.18
101935.96
101902.85
101866.75
101826.99
101784.29
101738.48
101691.64
101646.82
101607.09
101576.56
101554.77
101534.84
101511.69
101491.06
101480.46
101480.42
101479.02
101482.66
101468.33
101471.79
101460.99
101477.43
102106.86
102100.97
102090.46
102076.87
102066.26
102059.59
102052.43
102043.14
102024.04
101992.47
101955.54
101914.12
101868.33
101822.36
101775.86
101729.93
101686.39
101646.36
101613.48
101587.68
101562.58
101534.94
101511.07
101496.93
101491.94
101488.26
101492.71
101477.52
101480.24
101469.9
101484.72
102102.13
102094.97
102085.88
102074.67
102062
102047.18
102029.4
102008.7
101990.25
101975.31
101959.43
101935.03
101897.85
101853.95
101806.95
101760.73
101719.73
101683
101650.27
101620.85
101590.15
101558.4
101532.04
101515.08
101505.75
101498.57
101500.9
101486.59
101488.62
101479.79
101494.17
102062.96
102057.7
102051.22
102043.58
102034.67
102024.25
102011.95
101997.6
101981.92
101964.76
101942.45
101919.9
101901.88
101875.32
101836.36
101791.85
101749.94
101715.28
101684.2
101652.11
101616.66
101581.65
101553.96
101535.25
101521.8
101510.3
101508.82
101495.67
101497.3
101489.97
101508.68
102024.15
102020.16
102015.31
102009.66
102003.09
101995.46
101986.59
101976.32
101964.39
101950.43
101934.55
101916.2
101893.49
101871.28
101850.97
101821.21
101784.04
101746.26
101712.28
101677.48
101640.07
101604.39
101576.42
101556.63
101539.9
101523.46
101517.37
101505.04
101508.25
101500.05
101519.72
101994.76
101991.76
101988.12
101983.85
101978.85
101973.01
101966.16
101958.12
101948.7
101937.69
101924.81
101909.72
101892.86
101872.69
101851.16
101834.86
101812.96
101777.19
101735.51
101695.22
101658.36
101625.3
101598.27
101577.51
101558.5
101538.45
101527.38
101517.07
101522.44
101511
101529.26
101969.05
101966.55
101963.52
101959.99
101955.9
101951.15
101945.62
101939.18
101931.69
101922.98
101912.86
101901.15
101887.36
101871.88
101854.7
101832.09
101809.62
101788.34
101753.58
101712.37
101674.15
101643.79
101618.46
101596.68
101575.95
101555.68
101543.38
101534.63
101537.89
101523.97
101545.23
101931.54
101929.61
101927.26
101924.55
101921.4
101917.74
101913.46
101908.45
101902.58
101895.7
101887.64
101878.15
101867.09
101853.94
101838.7
101821.95
101800.45
101778.2
101759.57
101730.83
101696.34
101663.79
101637.51
101613.16
101589.88
101571.37
101561.67
101553.58
101551.99
101534.4
101556.52
101888.94
101887.49
101885.71
101883.67
101881.31
101878.55
101875.31
101871.52
101867.07
101861.84
101855.69
101848.48
101840
101830.12
101818.46
101804.93
101790.13
101771.78
101752.79
101740.63
101720.66
101689.13
101658.81
101631.93
101605.54
101586.29
101576.57
101566.91
101565.93
101550.87
101578
101853.45
101852.35
101851.02
101849.48
101847.7
101845.62
101843.19
101840.34
101837.02
101833.13
101828.58
101823.28
101817.1
101809.92
101801.71
101792.22
101781.24
101769.43
101755.45
101737.13
101722.02
101702.75
101676.33
101650.94
101627.72
101608.38
101594.14
101581.56
101581.14
101570.93
101606.2
101819.93
101819.14
101818.18
101817.08
101815.82
101814.35
101812.62
101810.61
101808.25
101805.49
101802.24
101798.43
101793.96
101788.72
101782.58
101775.44
101767.06
101757.01
101745.52
101733.55
101716.49
101699.54
101682.5
101662.76
101647.59
101631.73
101615.49
101601.64
101598.58
101588.06
101612.45
101785.62
101785
101784.24
101783.39
101782.4
101781.26
101779.95
101778.42
101776.66
101774.63
101772.32
101769.68
101766.61
101762.98
101758.68
101753.61
101747.64
101740.46
101731.29
101720.84
101708.92
101700.38
101691.24
101673.01
101659.27
101645.23
101630.12
101617.62
101612.82
101601.59
101620.5
101765.52
101765.03
101764.44
101763.77
101763
101762.11
101761.07
101759.87
101758.47
101756.82
101754.85
101752.43
101749.49
101746.02
101742.03
101737.51
101732.47
101727.12
101721.92
101716.56
101710.05
101701.87
101692.74
101681.49
101666.28
101652.59
101639.19
101626.01
101620.9
101607.86
101624.33
101750.4
101750.16
101749.87
101749.53
101749.13
101748.66
101748.08
101747.37
101746.51
101745.47
101744.21
101742.74
101741.04
101739.07
101736.74
101733.94
101730.67
101726.65
101721.84
101715.88
101708.91
101699.79
101691.96
101684.58
101669.68
101656.72
101645.54
101636.09
101630.07
101618.97
101629.9
101741.06
101740.95
101740.81
101740.66
101740.47
101740.24
101739.96
101739.61
101739.19
101738.66
101738
101737.16
101736.1
101734.75
101733.02
101730.85
101728.06
101724.6
101720.38
101714.66
101710.45
101704.91
101694.28
101684.76
101675.82
101666.62
101656.75
101648
101640.38
101630.05
101629.1
101730.15
101729.74
101729.31
101728.86
101728.38
101727.85
101727.27
101726.61
101725.84
101724.94
101723.88
101722.67
101721.29
101719.7
101717.86
101715.75
101713.42
101710.85
101707.92
101705.46
101701.26
101697.85
101692.53
101680.75
101673.31
101655.08
101648.15
101645.06
101635.24
101628.64
101620.65
100134.16
100138.25
100150.29
100161.07
100174.2
100189.1
100207.1
100225.7
100249.02
100280.81
100323.21
100377.09
100442.16
100517.38
100602.6
100692.95
100790.55
100888.11
100987.52
101073.34
101127.33
101178.87
101221.97
101254.74
101283.75
101300.57
101329.48
101344.2
101365.16
101379.77
101362.78
100144.06
100158.06
100178.93
100191.06
100204.15
100215.66
100226.28
100240.35
100262.8
100295.49
100339.6
100394.91
100461
100536.64
100621.46
100710.17
100805.78
100897.02
100996.78
101075.15
101130.44
101181.98
101224.52
101256.73
101285.35
101302.05
101330.8
101345.15
101366.07
101380.73
101363.19
100156.36
100175.09
100185.22
100190.07
100199.13
100210.9
100223.45
100240.41
100265.65
100300.77
100347.03
100403.91
100471.11
100547.32
100632.19
100720.32
100815.96
100905.28
101005.04
101078.18
101134.37
101185.36
101227.2
101258.82
101287.03
101303.58
101332.13
101346.09
101366.98
101381.62
101363.57
100166.14
100182.87
100184.42
100188.18
100196.86
100207.43
100220.16
100238.75
100265.96
100303.15
100351.28
100409.65
100478
100554.96
100640.18
100728.24
100824.56
100913.92
101012.52
101081.53
101138.57
101188.74
101229.89
101260.91
101288.72
101305.13
101333.46
101347.02
101367.9
101382.5
101364.03
100169.46
100180.11
100180.02
100183.81
100192.19
100202.46
100216.33
100236.95
100266.27
100305.69
100355.72
100415.67
100485.22
100563
100648.58
100736.6
100833.42
100923.13
101019.06
101084.85
101142.84
101192.1
101232.57
101263.01
101290.43
101306.7
101334.79
101347.94
101368.81
101383.41
101364.53
100166.73
100171.69
100172.99
100178.15
100186.32
100196.96
100212.46
100235.24
100266.84
100308.6
100360.55
100422.11
100492.87
100571.41
100657.28
100745.24
100842.38
100932.18
101024.99
101088.16
101147.17
101195.45
101235.26
101265.12
101292.16
101308.29
101336.12
101348.85
101369.73
101384.36
101365.07
100161.7
100162.55
100164.95
100170.92
100179.13
100190.78
100208.25
100233.35
100267.44
100311.57
100365.47
100428.66
100500.57
100579.84
100665.95
100753.86
100851.12
100940.96
101031.17
101091.5
101151.54
101198.78
101237.95
101267.23
101293.9
101309.9
101337.44
101349.75
101370.66
101385.35
101365.62
100154.95
100153.96
100156.09
100162.01
100170.76
100183.99
100203.7
100231.29
100268.04
100314.54
100370.42
100435.24
100508.28
100588.24
100674.56
100762.41
100859.49
100949.73
101038.1
101094.85
101155.95
101202.1
101240.64
101269.34
101295.65
101311.53
101338.75
101350.63
101371.59
101386.38
101366.16
100144.54
100142.78
100144.93
100151.34
100161.37
100176.63
100198.83
100229.13
100268.65
100317.53
100375.45
100441.89
100516.02
100596.66
100683.14
100770.91
100867.77
100958.4
101045.27
101098.33
101160.38
101205.41
101243.34
101271.47
101297.42
101313.17
101340.04
101351.5
101372.52
101387.45
101366.69
100131.09
100129.24
100131.87
100139.3
100151.1
100168.76
100193.69
100226.93
100269.27
100320.6
100380.59
100448.61
100523.82
100605.09
100691.7
100779.36
100876.19
100966.35
101051.97
101102.16
101164.81
101208.7
101246.04
101273.59
101299.21
101314.83
101341.32
101352.35
101373.46
101388.56
101367.21
100114.54
100113.21
100116.92
100125.94
100139.99
100160.39
100188.33
100224.71
100269.93
100323.76
100385.83
100455.43
100531.66
100613.53
100700.22
100787.81
100884.6
100973.61
101058.18
101106.4
101169.22
101211.99
101248.74
101275.73
101301.01
101316.5
101342.58
101353.18
101374.4
101389.68
101367.72
100094.95
100094.82
100100.16
100111.31
100128.06
100151.57
100182.81
100222.49
100270.66
100327.06
100391.2
100462.33
100539.55
100621.99
100708.71
100796.32
100892.83
100980.8
101063.92
101110.95
101173.61
101215.27
101251.44
101277.86
101302.81
101318.17
101343.83
101353.99
101375.35
101390.83
101368.22
100072.39
100074.02
100081.58
100095.43
100115.37
100142.37
100177.21
100220.31
100271.52
100330.51
100396.71
100469.33
100547.49
100630.46
100717.18
100804.92
100900.55
100988.08
101069.21
101115.67
101177.97
101218.54
101254.15
101280.01
101304.63
101319.84
101345.05
101354.78
101376.29
101391.98
101368.72
100046.79
100050.81
100061.24
100078.39
100102.03
100132.88
100171.59
100218.22
100272.54
100334.15
100402.37
100476.44
100555.49
100638.95
100725.61
100813.52
100907.88
100995.41
101074.2
101120.51
101182.29
101221.8
101256.86
101282.15
101306.46
101321.52
101346.24
101355.55
101377.25
101393.13
101369.21
100018.13
100025.23
100039.23
100060.33
100088.15
100123.23
100166
100216.28
100273.78
100337.99
100408.19
100483.66
100563.56
100647.45
100734.03
100822.26
100914.95
101002.63
101078.99
101125.48
101186.58
101225.06
101259.57
101284.3
101308.29
101323.2
101347.41
101356.3
101378.2
101394.28
101369.71
99986.427
99997.395
100015.73
100041.39
100073.87
100113.53
100160.53
100214.57
100275.28
100342.06
100414.2
100491
100571.68
100655.96
100742.45
100831.13
100921.79
101009.7
101083.64
101130.53
101190.83
101228.31
101262.27
101286.46
101310.14
101324.87
101348.56
101357.02
101379.16
101395.42
101370.22
99951.81
99967.525
99990.963
100021.81
100059.39
100103.92
100155.29
100213.17
100277.09
100346.4
100420.41
100498.46
100579.88
100664.48
100750.94
100840.17
100928.88
101016.67
101088.21
101135.64
101195.04
101231.57
101264.98
101288.61
101311.98
101326.54
101349.68
101357.73
101380.12
101396.53
101370.73
99914.531
99935.931
99965.241
100001.84
100044.93
100094.54
100150.4
100212.16
100279.26
100351.02
100426.83
100506.07
100588.14
100673.03
100759.56
100849.13
100936.41
101023.57
101092.76
101140.78
101199.21
101234.81
101267.69
101290.77
101313.83
101328.2
101350.79
101358.41
101381.08
101397.64
101371.27
99875.047
99903.082
99938.976
99981.823
100030.74
100085.57
100146.01
100211.63
100281.83
100355.96
100433.48
100513.82
100596.47
100681.58
100768.21
100857.43
100943.82
101030.39
101097.29
101145.94
101203.34
101238.06
101270.4
101292.93
101315.68
101329.85
101351.89
101359.08
101382.05
101398.72
101371.83
99834.073
99869.612
99912.673
99962.136
100017.08
100077.23
100142.24
100211.64
100284.85
100361.26
100440.38
100521.72
100604.87
100690.17
100776.74
100865.24
100951.42
101036.97
101101.81
101151.11
101207.43
101241.3
101273.1
101295.09
101317.53
101331.5
101352.99
101359.75
101383.01
101399.79
101372.42
99792.594
99836.319
99886.921
99943.209
100004.25
100069.73
100139.22
100212.3
100288.39
100366.93
100447.53
100529.77
100613.34
100698.9
100785.47
100872.99
100959.43
101043.14
101106.37
101156.3
101211.49
101244.54
101275.81
101297.25
101319.38
101333.13
101354.1
101360.42
101383.98
101400.82
101373.04
99751.8
99804.147
99862.353
99925.485
99992.582
100063.29
100137.1
100213.68
100292.48
100373
100454.97
100537.98
100621.91
100707.94
100793.76
100880.41
100967.14
101049.22
101110.98
101161.49
101215.5
101247.78
101278.51
101299.41
101321.23
101334.75
101355.22
101361.09
101384.95
101401.82
101373.69
99713.034
99774.149
99839.599
99909.407
99982.415
100058.17
100136.02
100215.87
100297.2
100379.52
100462.68
100546.37
100630.69
100716.81
100801.66
100887.98
100974.11
101055.57
101115.67
101166.68
101219.48
101251.01
101281.21
101301.57
101323.07
101336.36
101356.37
101361.79
101385.92
101402.78
101374.37
99677.611
99747.179
99819.309
99895.468
99974.102
100054.6
100136.12
100218.97
100302.57
100386.48
100470.69
100555.02
100639.92
100725.37
100809.74
100895.51
100980.69
101062.3
101120.42
101171.86
101223.42
101254.24
101283.91
101303.73
101324.92
101337.95
101357.56
101362.52
101386.89
101403.7
101375.07
99646.014
99723.272
99802.631
99884.299
99967.976
100052.72
100137.58
100223.07
100308.65
100393.9
100479.06
100564.21
100649.32
100733.57
100818.04
100902.96
100987.3
101069.26
101125.25
101177.02
101227.33
101257.46
101286.6
101305.89
101326.76
101339.54
101358.8
101363.3
101387.86
101404.59
101375.8
99619.983
99704.364
99789.7
99876.34
99964.18
100052.55
100140.57
100228.27
100315.49
100401.85
100488.05
100574.21
100657.94
100741.69
100826.29
100910.34
100993.96
101076.17
101130.17
101182.15
101231.21
101260.68
101289.29
101308.04
101328.61
101341.11
101360.14
101364.13
101388.83
101405.44
101376.54
99600.427
99690.941
99781.045
99871.801
99963.175
100054.53
100144.96
100234.58
100323.24
100410.65
100498.14
100583.25
100665.87
100750.45
100834.5
100917.64
101000.64
101082.91
101135.2
101187.23
101235.05
101263.88
101291.98
101310.19
101330.46
101342.68
101361.6
101365.04
101389.8
101406.28
101377.27
99587.977
99683.502
99777.179
99871.044
99965.149
100058.78
100150.95
100242.08
100332.28
100421.06
100508.32
100591.55
100674.98
100759.28
100842.68
100924.86
101007.31
101089.47
101140.33
101192.28
101238.87
101267.08
101294.66
101312.33
101332.31
101344.24
101363.21
101366.07
101390.78
101407.1
101378
99583.149
99682.494
99778.484
99874.346
99970.276
100065.45
100158.9
100251.49
100343.39
100432.74
100516.91
100600.11
100684.26
100768.1
100850.86
100932.01
101013.96
101095.88
101145.54
101197.28
101242.65
101270.27
101297.34
101314.47
101334.16
101345.81
101365
101367.24
101391.75
101407.92
101378.71
99586.447
99688.384
99785.335
99882.005
99978.896
100075.23
100169.98
100264.13
100355.82
100441.79
100524.81
100609.97
100693.59
100776.95
100859.02
100939.09
101020.56
101102.18
101150.8
101202.22
101246.41
101273.44
101300.01
101316.61
101336
101347.37
101366.87
101368.55
101392.72
101408.75
101379.41
99598.638
99702.01
99798.509
99894.856
99992.014
100089.59
100185.93
100278.15
100364
100449.75
100535.36
100620.11
100703.02
100785.86
100867.19
100946.14
101027.11
101108.37
101156.08
101207.12
101250.13
101276.6
101302.67
101318.74
101337.84
101348.94
101368.78
101369.95
101393.68
101409.58
101380.11
99620.404
99724.325
99819.378
99914.779
100011.5
100108.23
100201.57
100287.59
100372.72
100461.28
100546.53
100630.41
100712.58
100794.84
100875.37
100953.22
101033.59
101114.48
101161.37
101211.94
101253.82
101279.75
101305.33
101320.88
101339.68
101350.51
101370.7
101371.4
101394.65
101410.42
101380.8
99648.512
99752.738
99845.838
99939.255
100033.66
100125.98
100211.79
100297.3
100386.11
100473.95
100557.97
100640.94
100722.28
100803.87
100883.55
100960.12
101040.05
101120.52
101166.64
101216.7
101257.48
101282.88
101307.98
101323.02
101341.51
101352.08
101372.65
101372.9
101395.62
101411.26
101381.49
99680.185
99783.195
99872.926
99962.277
100052.48
100138.32
100223.87
100312.99
100400.88
100487.21
100569.84
100651.74
100732.1
100812.97
100891.66
100966.75
101046.59
101126.48
101171.88
101221.37
101261.11
101286
101310.61
101325.15
101343.34
101353.65
101374.59
101374.44
101396.6
101412.1
101382.19
99718.01
99816.669
99900.339
99984.731
100069.1
100154.44
100243.85
100330.74
100416.51
100501.22
100582.23
100662.82
100742.06
100822.11
100899.7
100973.47
101053.14
101132.36
101177.07
101225.95
101264.7
101289.09
101313.24
101327.28
101345.16
101355.23
101376.54
101376.01
101397.58
101412.95
101382.9
99777.464
99868.396
99943.431
100020.29
100099.81
100182.5
100267.09
100349.96
100433.25
100516.07
100595.16
100674.18
100752.15
100831.31
100907.71
100980.3
101059.56
101138.17
101182.22
101230.46
101268.27
101292.17
101315.86
101329.41
101346.99
101356.81
101378.48
101377.61
101398.57
101413.78
101383.61
99852.118
99932.473
99996.87
100064.99
100137.8
100214.28
100292.77
100370.94
100451.29
100531.81
100608.66
100685.83
100762.37
100840.56
100915.69
100987.11
101065.84
101143.89
101187.32
101234.87
101271.8
101295.22
101318.46
101331.54
101348.81
101358.4
101380.41
101379.24
101399.59
101414.63
101384.33
99926.458
99998.525
100053.41
100113.16
100178.83
100248.63
100320.94
100393.81
100470.69
100548.42
100622.74
100697.79
100772.74
100849.84
100923.64
100993.91
101071.99
101149.52
101192.37
101239.2
101275.3
101298.25
101321.05
101333.66
101350.64
101359.99
101382.32
101380.89
101400.63
101415.48
101385.06
100000.95
100066.79
100113.23
100164.98
100223.27
100286.1
100351.69
100418.57
100491.51
100565.89
100637.44
100710.06
100783.23
100859.15
100931.54
101000.72
101077.99
101155.06
101197.35
101243.43
101278.77
101301.26
101323.62
101335.78
101352.48
101361.58
101384.22
101382.56
101401.71
101416.34
101385.81
100078.05
100139.16
100177.77
100221.47
100271.88
100327.04
100385.06
100445.21
100513.82
100584.23
100652.76
100722.66
100793.87
100868.49
100939.39
101007.56
101083.84
101160.49
101202.27
101247.57
101282.2
101304.24
101326.18
101337.9
101354.35
101363.18
101386.09
101384.24
101402.82
101417.23
101386.57
100162.27
100218.47
100248.78
100283.62
100325.14
100371.64
100421.02
100473.78
100537.7
100603.41
100668.71
100735.61
100804.64
100877.83
100947.18
101014.42
101089.53
101165.81
101207.12
101251.62
101285.59
101307.19
101328.72
101340.02
101356.27
101364.8
101387.93
101385.95
101403.97
101418.15
101387.37
100258.69
100307.78
100327.95
100352.21
100383.38
100419.95
100459.51
100504.45
100563.09
100623.42
100685.31
100748.92
100815.56
100887.16
100954.89
101021.34
101095.07
101171
101211.89
101255.57
101288.94
101310.11
101331.25
101342.13
101358.3
101366.47
101389.76
101387.67
101405.16
101419.09
101388.21
100370.12
100408.62
100415.88
100427.32
100446.49
100471.74
100500.48
100537.7
100589.54
100644.24
100702.54
100762.6
100826.61
100896.45
100962.5
101028.32
101100.64
101176.06
101216.58
101259.44
101292.25
101313
101333.75
101344.25
101360.5
101368.25
101391.59
101389.41
101406.4
101420.05
101389.11
100494.3
100519.21
100511.22
100507.92
100513.7
100526.37
100544.3
100573.33
100616.46
100665.97
100720.42
100776.66
100837.79
100905.68
100969.95
101035.39
101106.31
101180.98
101221.17
101263.21
101295.52
101315.87
101336.23
101346.36
101362.97
101370.24
101393.43
101391.17
101407.68
101421.03
101390.09
100624.13
100634.28
100610.51
100591.78
100583.47
100583.03
100591.16
100610.78
100643.96
100688.34
100738.95
100791.13
100849.14
100914.85
100977.23
101042.56
101111.99
101185.74
101225.68
101266.91
101298.75
101318.7
101338.68
101348.47
101365.77
101372.46
101395.25
101392.95
101409.03
101422.03
101391.2
100751.34
100747.2
100709.49
100676.44
100654.05
100642.78
100641.47
100649.66
100672.57
100711.52
100758.42
100806.35
100860.94
100924.18
100984.48
101049.87
101117.6
101190.25
101230.06
101270.49
101301.92
101321.49
101341.1
101350.56
101368.92
101374.88
101397.02
101394.74
101410.44
101423.03
101392.48
100873.8
100856.04
100807.92
100762.85
100729.35
100708.19
100695.56
100692.64
100706.12
100737.62
100780.1
100823.47
100874.19
100934.48
100992.39
101057.59
101123.19
101194.27
101234.13
101273.88
101304.99
101324.2
101343.46
101352.6
101372.34
101377.45
101398.72
101396.56
101411.96
101424.01
101394.01
100999.78
100969.21
100916.54
100862.1
100817.49
100784.41
100760.7
100747.08
100752.34
100772.17
100806.64
100844.52
100890.58
100947.14
101002.22
101066.21
101128.95
101197.68
101237.65
101277.02
101307.94
101326.85
101345.77
101354.6
101375.98
101380.1
101400.45
101398.42
101413.65
101424.98
101395.9
101122.72
101088.45
101043.95
100983.71
100925.54
100877.32
100840.71
100817.29
100811.74
100819.47
100838.8
100869.65
100910.12
100962.22
101014.27
101076.08
101135.4
101201.85
101241.04
101280.31
101310.98
101329.55
101348.13
101356.65
101379.87
101382.68
101402.4
101400.37
101415.64
101425.91
101398.34
100167.19
100180.99
100195.48
100207.39
100214.89
100223.27
100235.47
100250.92
100272.65
100303.27
100344.2
100396.15
100459.09
100531.96
100614.39
100701.81
100794.48
100890.28
100977.58
101066.34
101121.91
101175.35
101219.36
101252.69
101282.08
101299.11
101328.17
101343.27
101364.27
101378.92
101362.09
100158.55
100169.63
100184.86
100203.6
100214.7
100223.64
100235.25
100250.64
100272.31
100302.58
100342.9
100394.14
100456.38
100528.65
100610.58
100697.98
100790.35
100888.73
100973.39
101065.06
101120
101173.31
101217.57
101251.23
101280.84
101297.98
101327.14
101342.53
101363.58
101378.38
101360.89
100154.25
100163.17
100177.28
100196.48
100209.14
100220.06
100233.75
100250.62
100273.07
100303.46
100343.42
100393.97
100455.4
100526.88
100608.07
100695.19
100787.13
100886.46
100971.13
101063.51
101118.12
101171.45
101215.93
101249.87
101279.66
101296.91
101326.14
101341.79
101362.91
101377.89
101359.27
100154.96
100163.7
100176.84
100194.15
100207.11
100219.67
100235
100253.09
100276.22
100306.71
100346.29
100396.06
100456.52
100527.01
100607.2
100693.71
100784.89
100884.21
100968.89
101061.38
101115.89
101169.43
101214.21
101248.45
101278.44
101295.79
101325.11
101341.02
101362.19
101377.33
101357.38
100156.05
100164.92
100177.53
100193.84
100207.38
100220.96
100237.19
100256.15
100279.85
100310.49
100349.75
100398.83
100458.38
100527.87
100607.02
100692.81
100783.12
100882.09
100966.47
101059
101113.55
101167.3
101212.43
101246.97
101277.19
101294.66
101324.04
101340.21
101361.46
101376.73
101355.47
100156.44
100165.3
100177.43
100193.36
100207.78
100222.18
100239.08
100258.86
100283.16
100314.01
100353.07
100401.58
100460.31
100528.89
100607.04
100692.1
100781.56
100880.09
100964
101056.52
101111.26
101165.17
101210.63
101245.49
101275.93
101293.54
101322.97
101339.39
101360.71
101376.1
101354.16
100156.53
100165.25
100176.92
100192.49
100207.77
100222.99
100240.57
100261.19
100286.13
100317.26
100356.2
100404.24
100462.23
100529.95
100607.14
100691.48
100780.12
100878.18
100961.61
101053.99
101109.02
101163.06
101208.85
101244.01
101274.68
101292.42
101321.89
101338.56
101359.96
101375.47
101353.33
100156.51
100165.09
100176.39
100191.57
100207.55
100223.59
100241.86
100263.31
100288.9
100320.37
100359.25
100406.88
100464.2
100531.1
100607.35
100690.96
100778.79
100876.34
100959.31
101051.47
101106.8
101160.95
101207.09
101242.54
101273.44
101291.32
101320.82
101337.73
101359.21
101374.8
101352.67
100156.45
100164.94
100175.94
100190.74
100207.3
100224.13
100243.06
100265.33
100291.56
100323.38
100362.25
100409.54
100466.23
100532.35
100607.69
100690.56
100777.58
100874.58
100957.1
101048.95
101104.6
101158.86
101205.33
101241.08
101272.2
101290.23
101319.74
101336.88
101358.44
101374.11
101352.08
100156.45
100164.86
100175.58
100190
100207.08
100224.68
100244.24
100267.29
100294.15
100326.33
100365.24
100412.23
100468.35
100533.71
100608.16
100690.28
100776.51
100872.9
100955.01
101046.4
101102.42
101156.78
101203.58
101239.62
101270.97
101289.16
101318.66
101336.03
101357.68
101373.39
101351.54
100156.59
100164.89
100175.36
100189.42
100206.95
100225.29
100245.44
100269.22
100296.69
100329.25
100368.23
100414.97
100470.54
100535.19
100608.76
100690.12
100775.56
100871.3
100953.09
101043.84
101100.25
101154.71
101201.84
101238.16
101269.74
101288.09
101317.58
101335.16
101356.9
101372.67
101351.02
100156.92
100165.1
100175.35
100189.13
100206.99
100225.98
100246.74
100271.18
100299.23
100332.17
100371.23
100417.75
100472.83
100536.78
100609.5
100690.08
100774.75
100869.77
100951.3
101041.25
101098.1
101152.65
101200.11
101236.7
101268.52
101287.04
101316.49
101334.29
101356.12
101371.95
101350.52
100157.51
100165.59
100175.67
100189.29
100207.31
100226.77
100248.15
100273.2
100301.8
100335.1
100374.26
100420.6
100475.21
100538.49
100610.37
100690.18
100774.07
100868.35
100949.5
101038.66
101095.97
101150.6
101198.4
101235.25
101267.31
101286
101315.41
101333.41
101355.33
101371.22
101350.04
100158.41
100166.42
100176.39
100189.94
100207.94
100227.75
100249.72
100275.32
100304.44
100338.09
100377.36
100423.52
100477.69
100540.32
100611.38
100690.39
100773.53
100867.2
100947.91
101036.15
101093.84
101148.58
101196.69
101233.8
101266.1
101284.97
101314.33
101332.52
101354.54
101370.47
101349.58
100159.68
100167.65
100177.53
100190.99
100208.9
100229.01
100251.52
100277.59
100307.18
100341.15
100380.53
100426.53
100480.27
100542.27
100612.53
100690.74
100773.12
100866.06
100946.63
101034.06
101091.74
101146.57
101195
101232.36
101264.91
101283.95
101313.26
101331.63
101353.73
101369.71
101349.14