/*--------------------------------*- C++ -*----------------------------------*\
| =========                 |                                                 |
| \\      /  F ield         | OpenFOAM: The Open Source CFD Toolbox           |
|  \\    /   O peration     | Version:  2406                                  |
|   \\  /    A nd           | Website:  www.openfoam.com                      |
|    \\/     M anipulation  |                                                 |
\*---------------------------------------------------------------------------*/
FoamFile
{
    version     2.0;
    format      ascii;
    arch        "LSB;label=32;scalar=64";
    class       volScalarField;
    location    "0.035";
    object      rho;
}
// * * * * * * * * * * * * * * * * * * * * * * * * * * * * * * * * * * * * * //

dimensions      [1 -3 0 0 0 0 0];

internalField   nonuniform List<scalar> 
35803
(
1.2022639
1.2013454
1.2008079
1.2001031
1.1993738
1.198735
1.1982316
1.1978875
1.1977082
1.1976638
1.1977646
1.1980953
1.1985873
1.199269
1.2000247
1.2009659
1.2018883
1.2027835
1.2029364
1.2030123
1.2031669
1.2032863
1.203426
1.2034452
1.2035687
1.2035232
1.2036553
1.2035964
1.203729
1.203715
1.2026518
1.204049
1.2032507
1.2024399
1.2015301
1.2006634
1.1999061
1.1992906
1.1988428
1.1985841
1.1984336
1.1984299
1.1986634
1.1990756
1.1996776
1.2003643
1.201222
1.2020474
1.2028725
1.2029778
1.2030584
1.2032073
1.2033206
1.2034546
1.2034708
1.2036104
1.2035459
1.2036782
1.2036179
1.2037527
1.2037215
1.2026911
1.2050728
1.2043864
1.2035187
1.2025429
1.2016187
1.2007986
1.2001139
1.1996033
1.1992569
1.1990339
1.1989275
1.199084
1.1994319
1.1999736
1.2006244
1.2014446
1.202222
1.202972
1.2030375
1.2031165
1.2032564
1.2033618
1.2034887
1.2035037
1.2036543
1.2035722
1.2036977
1.2036398
1.2037785
1.2037283
1.2027374
1.2059105
1.2052778
1.20443
1.2034432
1.2024873
1.2016219
1.2008753
1.2002832
1.1998479
1.1995563
1.1994006
1.1994893
1.1997769
1.2002624
1.2008841
1.2016747
1.2024159
1.2030759
1.2031117
1.2031836
1.203313
1.2034094
1.2035269
1.2035417
1.2036996
1.2036026
1.2037144
1.2036617
1.2038043
1.2037351
1.2027884
1.2066475
1.2060672
1.2052669
1.2043021
1.2033414
1.2024518
1.2016613
1.2010017
1.200491
1.200133
1.1999311
1.1999527
1.2001777
1.200603
1.2011908
1.2019401
1.2026349
1.2031839
1.2031996
1.2032611
1.2033783
1.2034644
1.2035698
1.2035852
1.2037485
1.2036396
1.2037296
1.2036836
1.2038275
1.2037417
1.2028427
1.2072506
1.2067265
1.2059889
1.2050736
1.2041393
1.2032546
1.2024477
1.2017486
1.2011837
1.2007688
1.2005172
1.200474
1.2006358
1.200999
1.2015496
1.2022456
1.202881
1.2032993
1.2033019
1.2033509
1.2034536
1.2035279
1.2036186
1.2036345
1.203802
1.203683
1.2037451
1.2037053
1.2038485
1.2037483
1.2028988
1.2077013
1.2072235
1.2065577
1.2057173
1.2048414
1.2039938
1.2032014
1.2024931
1.2018989
1.2014434
1.2011476
1.2010463
1.2011476
1.2014499
1.2019631
1.2025919
1.2031533
1.2034268
1.2034193
1.2034553
1.2035405
1.2036009
1.203674
1.2036899
1.2038574
1.2037322
1.2037627
1.2037275
1.2038686
1.2037554
1.2029565
1.208003
1.2075305
1.206932
1.2062007
1.2054221
1.2046467
1.2039015
1.2032151
1.2026194
1.2021441
1.2018165
1.2016679
1.2017145
1.2019599
1.2024356
1.2029798
1.2034493
1.2035775
1.2035528
1.2035766
1.2036406
1.2036843
1.203737
1.203751
1.2039105
1.2037864
1.2037847
1.2037512
1.2038887
1.2037639
1.2030159
1.2081443
1.2077138
1.2071909
1.2065683
1.2058971
1.2052133
1.2045402
1.2039034
1.2033334
1.2028619
1.2025196
1.2023378
1.2023386
1.2025335
1.2029673
1.2034181
1.2037595
1.2037621
1.2037054
1.2037168
1.2037561
1.2037793
1.2038086
1.2038157
1.2039599
1.2038448
1.2038133
1.2037782
1.2039105
1.2037746
1.203078
1.2082243
1.2078229
1.2073745
1.2068527
1.2062886
1.2057061
1.2051217
1.204556
1.2040357
1.2035909
1.2032533
1.2030545
1.2030215
1.203175
1.2035638
1.2039068
1.204073
1.203975
1.2038822
1.2038776
1.2038887
1.2038869
1.20389
1.2038876
1.204009
1.2039064
1.2038502
1.2038101
1.203935
1.2037889
1.2031455
1.2082388
1.207887
1.2074999
1.2070659
1.2066122
1.2061434
1.2056622
1.205184
1.2047317
1.204333
1.2040181
1.2038188
1.2037659
1.2038895
1.2042269
1.2044319
1.2043938
1.2042073
1.2040895
1.2040603
1.2040398
1.2040091
1.2039828
1.203967
1.204063
1.2039715
1.2038987
1.2038496
1.2039628
1.2038083
1.2032249
1.2081253
1.2080184
1.2077561
1.207384
1.2069995
1.206616
1.2062226
1.2058268
1.205446
1.2051024
1.2048225
1.2046368
1.2045791
1.2046832
1.204943
1.2049643
1.2047151
1.2044669
1.2043293
1.2042647
1.2042106
1.2041481
1.2040886
1.2040566
1.2041246
1.2040427
1.2039627
1.2038984
1.2039946
1.2038345
1.2032848
1.208215
1.2081546
1.2080194
1.2078046
1.2075147
1.2071882
1.2068551
1.2065257
1.20621
1.2059235
1.2056879
1.20553
1.205481
1.2055576
1.2056606
1.2054381
1.2050353
1.2047611
1.2045945
1.2044889
1.2044028
1.204305
1.204208
1.2041542
1.2041945
1.2041225
1.2040467
1.203958
1.2040319
1.2038693
1.2033435
1.2085617
1.2085064
1.2083383
1.2081207
1.2079176
1.207707
1.2074855
1.2072572
1.2070306
1.206822
1.2066522
1.2065373
1.2064832
1.2064399
1.206247
1.2058004
1.2053789
1.2050837
1.2048744
1.2047329
1.2046135
1.2044777
1.204342
1.2042609
1.2042694
1.2042066
1.204144
1.2040276
1.2040776
1.2039139
1.203404
1.2090527
1.2090758
1.2090145
1.2088342
1.208599
1.2084064
1.2082645
1.2081285
1.2079776
1.20782
1.2076702
1.2075245
1.2073509
1.2070622
1.2066118
1.2061406
1.2057467
1.2054159
1.2051689
1.2049927
1.2048379
1.2046598
1.2044916
1.2043778
1.2043485
1.2042905
1.2042463
1.2041052
1.2041335
1.2039694
1.2034705
1.2098874
1.2099756
1.2100351
1.2100423
1.2099458
1.2097269
1.2094631
1.2092033
1.2089431
1.2086828
1.2084173
1.2081148
1.2077572
1.2073451
1.2069086
1.2064965
1.2061047
1.2057504
1.2054684
1.2052613
1.2050696
1.2048515
1.2046517
1.2045061
1.2044347
1.2043697
1.2043492
1.2041867
1.2042004
1.2040366
1.203547
1.2098677
1.2098297
1.209741
1.2096222
1.2095497
1.2095397
1.2095409
1.2095319
1.2094131
1.2091426
1.2088093
1.2084341
1.2080211
1.20762
1.2072103
1.2067983
1.2064205
1.2060711
1.2057748
1.2055348
1.2053019
1.2050463
1.2048216
1.2046464
1.2045355
1.2044526
1.2044386
1.2042682
1.2042747
1.2041153
1.2036393
1.2099392
1.2098818
1.2098046
1.2097051
1.2095895
1.2094471
1.2092671
1.2090527
1.2088825
1.2087895
1.2087198
1.2085662
1.208255
1.2078796
1.2074709
1.207051
1.2066823
1.2063625
1.2060724
1.2058082
1.2055318
1.205241
1.2049972
1.2048012
1.2046562
1.2045439
1.2045136
1.2043489
1.2043494
1.204202
1.2037597
1.2095563
1.2095167
1.2094667
1.2094081
1.2093409
1.2092637
1.2091731
1.2090644
1.2089395
1.2087944
1.2085816
1.2083625
1.2082367
1.2080493
1.2077282
1.207333
1.2069424
1.2066218
1.2063455
1.2060641
1.205752
1.2054331
1.2051809
1.2049738
1.2047951
1.2046478
1.2045867
1.2044308
1.2044276
1.2042877
1.2039464
1.209266
1.2092318
1.2091893
1.209139
1.2090801
1.2090107
1.2089294
1.2088359
1.208729
1.2086062
1.2084762
1.2083357
1.2081347
1.2079295
1.2078059
1.2075814
1.2072522
1.2069018
1.206584
1.2062741
1.2059434
1.20562
1.2053694
1.2051566
1.2049514
1.2047636
1.2046659
1.2045161
1.204527
1.2043662
1.204067
1.2089749
1.2089504
1.2089202
1.2088851
1.2088445
1.2087978
1.2087437
1.2086805
1.2086059
1.2085173
1.2084083
1.208271
1.2081215
1.2079396
1.2077155
1.2076231
1.2074885
1.2071775
1.2068002
1.2064292
1.2060913
1.2057882
1.2055509
1.2053372
1.2051125
1.204895
1.204757
1.2046249
1.2046556
1.2044607
1.2042022
1.2087849
1.208763
1.2087357
1.2087037
1.2086664
1.2086227
1.2085711
1.2085108
1.2084407
1.2083601
1.2082704
1.2081737
1.2080614
1.2079378
1.2077963
1.2075491
1.2073596
1.2072378
1.2069476
1.206579
1.2062234
1.2059362
1.205713
1.205503
1.2052641
1.2050451
1.2048976
1.2047807
1.2047946
1.2045891
1.204436
1.2084299
1.2084135
1.2083934
1.2083704
1.2083444
1.2083145
1.2082802
1.2082406
1.2081945
1.2081397
1.2080732
1.2079902
1.2078901
1.2077705
1.207641
1.2075086
1.2072804
1.2070618
1.2069556
1.2067223
1.2064098
1.2061031
1.2058603
1.2056399
1.2053824
1.2051794
1.2050557
1.2049458
1.204919
1.2047022
1.2045622
1.2081036
1.2080904
1.2080739
1.2080549
1.2080328
1.2080066
1.2079756
1.2079388
1.2078953
1.2078445
1.2077864
1.2077215
1.2076481
1.2075625
1.2074559
1.207338
1.2072271
1.2070356
1.2068191
1.2067616
1.2066124
1.2063159
1.2060276
1.2057884
1.2055098
1.2053015
1.205184
1.2050598
1.2050382
1.204839
1.2048559
1.2077741
1.2077645
1.2077528
1.2077396
1.2077248
1.207708
1.2076891
1.2076675
1.2076428
1.2076137
1.2075786
1.2075348
1.2074801
1.2074134
1.2073346
1.2072354
1.207125
1.2070354
1.2068889
1.2066666
1.2065744
1.2064278
1.2061754
1.2059321
1.2056861
1.2054816
1.2053325
1.2051806
1.2051639
1.2050063
1.2051396
1.2075387
1.2075311
1.2075218
1.2075113
1.207499
1.2074845
1.2074672
1.2074465
1.2074217
1.2073922
1.2073577
1.2073183
1.2072742
1.2072252
1.2071696
1.2071056
1.2070188
1.2069112
1.2068174
1.2066969
1.2064957
1.2063702
1.2062225
1.206015
1.2058414
1.2056738
1.2055128
1.2053456
1.2053042
1.2051489
1.2052045
1.2072379
1.2072316
1.207224
1.2072155
1.2072058
1.2071947
1.207182
1.2071675
1.2071508
1.2071318
1.2071102
1.2070856
1.2070556
1.2070178
1.206971
1.2069173
1.2068616
1.2067883
1.2066918
1.2065999
1.2064655
1.2063694
1.2062926
1.2061018
1.2059398
1.2057909
1.2056366
1.2054783
1.2054166
1.2052468
1.2052905
1.2071156
1.2071102
1.2071038
1.2070965
1.2070881
1.2070783
1.2070669
1.2070535
1.2070375
1.2070184
1.2069952
1.2069665
1.2069321
1.2068927
1.2068489
1.2067994
1.2067438
1.2066893
1.2066334
1.2065672
1.2064924
1.2064017
1.2062995
1.2061701
1.2059988
1.2058488
1.2057167
1.2055616
1.2054866
1.2053245
1.2053606
1.2069717
1.2069681
1.2069638
1.2069589
1.2069533
1.2069467
1.2069389
1.2069298
1.2069191
1.2069067
1.2068923
1.2068759
1.2068574
1.2068362
1.2068111
1.2067809
1.2067455
1.2067011
1.2066487
1.2065861
1.2065082
1.2063851
1.2062754
1.206184
1.206021
1.2058785
1.2057784
1.2056592
1.2055747
1.2054475
1.2054433
1.2069123
1.2069101
1.2069075
1.2069045
1.2069011
1.2068971
1.2068925
1.2068871
1.2068807
1.2068731
1.2068639
1.2068526
1.2068384
1.2068204
1.2067979
1.20677
1.2067345
1.2066907
1.2066373
1.2065645
1.2065097
1.2064279
1.2062805
1.2061618
1.2060591
1.2059628
1.2058727
1.2057745
1.2056823
1.2055836
1.2054666
1.2067797
1.2067739
1.2067676
1.206761
1.2067539
1.2067461
1.2067376
1.206728
1.2067171
1.2067045
1.2066902
1.2066738
1.2066555
1.2066347
1.2066107
1.2065838
1.2065549
1.2065242
1.2064907
1.2064656
1.2064094
1.2063757
1.2062914
1.2061061
1.2060191
1.2058115
1.2057387
1.2057226
1.2056126
1.2055574
1.2054584
1.1876594
1.187377
1.1870657
1.1869475
1.1872472
1.1877929
1.1884548
1.189092
1.1897229
1.1903996
1.1911607
1.1920255
1.1929967
1.1940672
1.1952441
1.1964753
1.1978034
1.1991336
1.2004916
1.2014967
1.201833
1.202073
1.2023613
1.2025641
1.2027048
1.2027656
1.2029449
1.2030491
1.2032219
1.2032525
1.2021752
1.1875861
1.187384
1.1873283
1.187488
1.1878636
1.1883581
1.1888804
1.1894125
1.1899965
1.1906597
1.1914239
1.1922927
1.1932655
1.1943327
1.1954983
1.196705
1.198006
1.1992567
1.2006086
1.2015113
1.2018429
1.2020892
1.2023788
1.2025781
1.2027162
1.2027769
1.202955
1.2030581
1.2032314
1.2032625
1.2021806
1.1874794
1.1873386
1.1873324
1.1875183
1.1879331
1.1884624
1.1889911
1.1895292
1.1901227
1.1907969
1.1915731
1.1924493
1.1934259
1.1944923
1.1956525
1.196848
1.1981464
1.1993707
1.2007124
1.201539
1.2018624
1.2021096
1.2023986
1.2025939
1.2027292
1.2027893
1.2029654
1.2030671
1.2032408
1.203271
1.2021845
1.1872859
1.187255
1.187318
1.1876056
1.1880734
1.1885823
1.1890838
1.1896141
1.1902104
1.1908938
1.1916801
1.1925636
1.1935451
1.1946134
1.1957722
1.1969629
1.1982666
1.1994882
1.2008058
1.2015688
1.2018846
1.2021303
1.2024186
1.2026098
1.2027423
1.202802
1.202976
1.203076
1.2032503
1.2032794
1.202189
1.1870527
1.1871665
1.1873475
1.1877186
1.188193
1.1886727
1.1891582
1.1896894
1.1902933
1.1909896
1.1917868
1.1926793
1.1936668
1.1947379
1.1958958
1.1970822
1.198389
1.1996117
1.200887
1.2015963
1.2019072
1.2021514
1.2024387
1.2026258
1.2027558
1.2028152
1.2029867
1.2030849
1.2032596
1.2032882
1.2021943
1.1869134
1.1871194
1.1874193
1.1878353
1.1882894
1.1887432
1.1892223
1.1897597
1.1903755
1.1910871
1.1918962
1.1927983
1.1937919
1.1948656
1.1960219
1.1972038
1.1985115
1.1997321
1.20096
1.2016217
1.20193
1.2021728
1.202459
1.2026419
1.2027695
1.2028288
1.2029975
1.2030936
1.2032689
1.2032974
1.2022003
1.1868773
1.187151
1.1875082
1.1879281
1.1883546
1.1887929
1.1892745
1.189823
1.1904548
1.1911828
1.1920045
1.1929166
1.1939161
1.1949922
1.1961464
1.1973242
1.1986302
1.1998483
1.2010351
1.2016453
1.2019534
1.2021945
1.2024796
1.2026582
1.2027835
1.2028428
1.2030084
1.203102
1.2032782
1.2033071
1.2022068
1.1869185
1.187232
1.1875916
1.1879864
1.1883913
1.1888259
1.1893169
1.1898806
1.1905314
1.1912761
1.1921112
1.1930335
1.1940388
1.1951171
1.1962691
1.1974429
1.1987436
1.1999636
1.2011188
1.201667
1.2019774
1.2022167
1.2025003
1.2026745
1.2027977
1.2028571
1.2030194
1.2031103
1.2032874
1.2033171
1.2022138
1.1869818
1.1872938
1.187634
1.1880075
1.1884045
1.1888455
1.1893513
1.1899341
1.1906057
1.1913676
1.1922167
1.1931495
1.1941604
1.1952408
1.1963903
1.1975599
1.1988549
1.2000768
1.2012043
1.2016884
1.202002
1.2022392
1.2025212
1.2026911
1.202812
1.2028716
1.2030306
1.2031183
1.2032965
1.2033275
1.202221
1.1870268
1.1873168
1.1876373
1.1879999
1.1883997
1.1888543
1.1893793
1.1899844
1.1906779
1.1914578
1.1923215
1.1932646
1.1942809
1.1953633
1.19651
1.1976753
1.1989669
1.2001801
1.2012831
1.2017127
1.2020272
1.2022622
1.2025423
1.2027077
1.2028265
1.2028862
1.2030418
1.203126
1.2033055
1.2033382
1.2022287
1.1870242
1.1872936
1.1876048
1.1879684
1.1883799
1.188854
1.1894021
1.1900324
1.1907484
1.1915472
1.1924258
1.1933789
1.1944006
1.1954847
1.1966281
1.1977896
1.1990779
1.2002744
1.2013548
1.2017408
1.2020526
1.2022855
1.2025635
1.2027245
1.202841
1.2029009
1.2030531
1.2031335
1.2033144
1.2033492
1.2022366
1.186968
1.1872288
1.1875423
1.1879167
1.1883475
1.1888462
1.1894212
1.1900785
1.1908178
1.1916362
1.1925296
1.1934927
1.1945193
1.195605
1.1967447
1.1979039
1.1991858
1.2003668
1.2014196
1.2017713
1.2020783
1.2023092
1.2025849
1.2027413
1.2028556
1.2029156
1.2030644
1.2031407
1.2033233
1.2033603
1.202245
1.1868627
1.1871272
1.1874534
1.1878476
1.1883045
1.1888323
1.1894376
1.1901233
1.1908868
1.191725
1.1926332
1.1936058
1.1946371
1.195724
1.1968599
1.1980182
1.1992866
1.2004593
1.2014778
1.2018024
1.2021041
1.2023332
1.2026064
1.2027584
1.2028701
1.20293
1.2030758
1.2031477
1.2033321
1.2033714
1.2022539
1.1867135
1.186993
1.1873418
1.1877639
1.1882527
1.1888138
1.1894522
1.1901672
1.1909558
1.1918141
1.1927367
1.1937186
1.1947541
1.1958419
1.1969736
1.1981316
1.1993815
1.2005515
1.2015311
1.2018338
1.2021302
1.2023575
1.202628
1.2027755
1.2028846
1.2029442
1.2030873
1.2031544
1.2033409
1.2033825
1.2022633
1.1865256
1.1868305
1.1872108
1.187668
1.1881941
1.1887924
1.1894658
1.1902112
1.1910254
1.1919036
1.1928404
1.1938309
1.1948703
1.1959587
1.1970859
1.1982456
1.1994725
1.2006409
1.2015809
1.2018656
1.2021565
1.2023822
1.2026497
1.2027927
1.202899
1.202958
1.2030987
1.203161
1.2033495
1.2033935
1.2022731
1.1863034
1.1866433
1.1870637
1.1875628
1.1881308
1.1887696
1.1894794
1.1902562
1.1910962
1.1919939
1.1929443
1.193943
1.1949858
1.1960743
1.1971973
1.1983602
1.1995596
1.2007274
1.2016279
1.2018978
1.2021831
1.2024072
1.2026715
1.2028101
1.2029133
1.2029713
1.2031101
1.2031673
1.2033581
1.2034044
1.2022836
1.1860511
1.1864355
1.186904
1.187451
1.1880652
1.1887471
1.1894943
1.1903031
1.1911686
1.1920854
1.1930487
1.1940549
1.1951005
1.1961888
1.1973081
1.1984758
1.1996489
1.2008113
1.2016731
1.2019298
1.20221
1.2024324
1.2026933
1.2028276
1.2029275
1.2029843
1.2031215
1.2031736
1.2033666
1.2034151
1.2022947
1.1857733
1.1862119
1.1867358
1.187336
1.1879999
1.1887264
1.189512
1.1903527
1.1912433
1.1921782
1.1931538
1.1941668
1.1952146
1.1963021
1.1974196
1.1985891
1.1997426
1.2008934
1.201717
1.2019614
1.2022372
1.2024579
1.2027153
1.2028451
1.2029416
1.2029967
1.2031329
1.2031797
1.2033751
1.2034257
1.2023063
1.1854767
1.1859785
1.1865642
1.1872216
1.1879376
1.1887097
1.1895339
1.190406
1.1913206
1.1922729
1.1932597
1.1942786
1.195328
1.1964142
1.1975301
1.1986934
1.1998341
1.2009738
1.2017598
1.201993
1.2022647
1.2024837
1.2027374
1.2028628
1.2029558
1.2030087
1.2031442
1.2031856
1.2033836
1.2034363
1.2023185
1.1851703
1.1857427
1.186395
1.1871121
1.1878814
1.1886991
1.1895613
1.1904637
1.1914013
1.1923696
1.1933665
1.1943905
1.1954407
1.1965255
1.1976382
1.1987908
1.199927
1.2010508
1.2018013
1.2020244
1.2022926
1.2025096
1.2027595
1.2028806
1.2029699
1.2030205
1.2031555
1.2031916
1.2033921
1.2034468
1.2023312
1.1848652
1.1855136
1.1862345
1.1870121
1.1878343
1.1886969
1.1895957
1.1905269
1.1914858
1.1924686
1.1934746
1.1945025
1.1955527
1.1966371
1.1977474
1.1988863
1.2000242
1.2011222
1.2018417
1.202056
1.2023208
1.2025357
1.2027818
1.2028985
1.2029842
1.203032
1.2031668
1.2031976
1.2034007
1.2034572
1.2023444
1.1845743
1.1853012
1.1860893
1.1869262
1.1877997
1.1887056
1.1896386
1.1905963
1.1915747
1.1925704
1.193584
1.1946147
1.1956645
1.1967511
1.1978501
1.1989767
1.2001171
1.2011919
1.2018814
1.2020878
1.2023492
1.202562
1.2028041
1.2029164
1.2029987
1.2030435
1.203178
1.2032035
1.2034094
1.2034674
1.2023579
1.1843115
1.1851166
1.1859658
1.1868588
1.1877812
1.1887277
1.1896914
1.190673
1.1916685
1.1926751
1.1936948
1.1947272
1.1957772
1.1968618
1.1979469
1.1990682
1.2002
1.2012642
1.2019206
1.2021201
1.202378
1.2025884
1.2028265
1.2029345
1.2030134
1.2030551
1.2031893
1.2032096
1.2034183
1.2034775
1.2023715
1.1840899
1.1849678
1.1858703
1.1868148
1.1877823
1.1887655
1.1897555
1.1907577
1.1917677
1.192783
1.1938071
1.1948411
1.1958937
1.1969672
1.1980446
1.1991582
1.2002775
1.2013404
1.2019592
1.2021527
1.202407
1.2026149
1.2028489
1.2029526
1.2030285
1.2030669
1.2032007
1.2032159
1.2034272
1.2034874
1.2023852
1.1839118
1.1848528
1.1858152
1.1868009
1.1878063
1.1888204
1.1898328
1.1908516
1.1918728
1.1928941
1.1939217
1.1949597
1.1960107
1.1970669
1.1981439
1.1992462
1.2003545
1.2014184
1.2019975
1.2021857
1.2024361
1.2026414
1.2028714
1.2029708
1.2030439
1.2030791
1.2032123
1.2032224
1.2034362
1.2034971
1.2023988
1.1837956
1.1847932
1.1858006
1.1868213
1.1878542
1.1888919
1.189925
1.1909557
1.1919843
1.1930091
1.1940418
1.1950864
1.1961166
1.1971643
1.1982415
1.1993323
1.2004314
1.2014949
1.2020357
1.202219
1.2024655
1.2026681
1.2028939
1.2029891
1.2030596
1.2030916
1.2032243
1.2032293
1.2034452
1.2035065
1.202412
1.1837494
1.1847927
1.1858311
1.1868772
1.1879308
1.188985
1.1900302
1.1910698
1.192104
1.193132
1.194173
1.1951994
1.1962126
1.1972681
1.1983374
1.1994166
1.2005077
1.2015684
1.2020742
1.2022527
1.2024951
1.2026947
1.2029165
1.2030073
1.2030755
1.2031044
1.2032371
1.2032367
1.2034543
1.2035158
1.2024246
1.1837782
1.1848551
1.1859115
1.1869721
1.1880376
1.1891006
1.1901508
1.1911947
1.1922363
1.193272
1.194303
1.1953015
1.1963213
1.1973716
1.1984319
1.199499
1.200583
1.2016391
1.2021131
1.2022867
1.2025248
1.2027213
1.2029391
1.2030255
1.2030915
1.2031175
1.2032511
1.203245
1.2034633
1.203525
1.2024364
1.1838861
1.1849842
1.1860452
1.1871082
1.1881761
1.1892402
1.1902905
1.1913392
1.1923906
1.1934246
1.1944114
1.1954049
1.1964307
1.1974735
1.198525
1.1995794
1.2006571
1.2017074
1.2021523
1.2023211
1.2025547
1.2027479
1.2029616
1.2030437
1.2031076
1.203131
1.2032662
1.2032543
1.2034724
1.203534
1.2024474
1.1840774
1.1851841
1.1862353
1.1872883
1.1883498
1.1894118
1.1904637
1.191519
1.1925575
1.1935422
1.1945092
1.1955224
1.1965389
1.1975744
1.1986169
1.1996578
1.2007298
1.2017735
1.2021917
1.2023558
1.2025846
1.2027745
1.2029841
1.2030618
1.2031236
1.2031447
1.2032819
1.2032646
1.2034814
1.2035428
1.2024576
1.1843595
1.1854632
1.1864902
1.1875219
1.1885704
1.1896326
1.1906908
1.1917111
1.1926695
1.193644
1.1946369
1.1956416
1.1966468
1.1976747
1.1987076
1.1997349
1.2008007
1.2018376
1.2022311
1.2023908
1.2026147
1.202801
1.2030065
1.20308
1.2031397
1.2031588
1.2032981
1.2032757
1.2034905
1.2035514
1.2024668
1.1847382
1.1858315
1.1868253
1.1878307
1.1888595
1.1898978
1.1909076
1.1918431
1.1927845
1.1937859
1.1947698
1.1957606
1.1967548
1.1977744
1.1987973
1.1998113
1.2008699
1.2018999
1.2022705
1.202426
1.2026446
1.2028274
1.2030287
1.2030981
1.2031558
1.2031731
1.2033147
1.2032873
1.2034997
1.2035597
1.2024751
1.1851689
1.1862528
1.1872111
1.188181
1.1891701
1.1901438
1.1910524
1.1919736
1.1929523
1.1939395
1.1949038
1.1958805
1.1968627
1.1978734
1.1988858
1.1998843
1.2009379
1.2019605
1.2023096
1.202461
1.2026745
1.2028536
1.2030508
1.2031161
1.2031719
1.2031878
1.2033315
1.2032996
1.203509
1.2035678
1.2024827
1.1856154
1.1866764
1.1875862
1.1884988
1.189429
1.1903165
1.1912145
1.1921725
1.1931337
1.1940978
1.1950411
1.1960018
1.1969706
1.1979718
1.1989722
1.1999532
1.201006
1.2020195
1.2023485
1.2024959
1.2027042
1.2028798
1.2030728
1.2031342
1.203188
1.2032027
1.2033484
1.2033125
1.2035185
1.2035757
1.2024897
1.186115
1.1871202
1.1879524
1.1887996
1.1896538
1.19053
1.191468
1.1923923
1.1933226
1.1942624
1.1951825
1.1961247
1.1970785
1.1980695
1.1990568
1.2000222
1.2010733
1.2020767
1.2023872
1.2025305
1.2027339
1.2029058
1.2030946
1.2031523
1.2032043
1.2032179
1.2033656
1.2033261
1.2035283
1.2035833
1.202496
1.1868648
1.1877788
1.1885047
1.1892558
1.1900454
1.190883
1.1917561
1.1926261
1.1935215
1.1944345
1.1953283
1.1962492
1.1971864
1.1981665
1.1991398
1.2000915
1.2011382
1.2021322
1.2024256
1.2025649
1.2027635
1.2029318
1.2031163
1.2031706
1.2032206
1.2032334
1.2033829
1.2033404
1.2035384
1.2035908
1.2025018
1.1877949
1.1885804
1.189175
1.1898156
1.1905179
1.1912741
1.1920682
1.1928766
1.1937326
1.1946145
1.1954786
1.1963754
1.1972944
1.1982626
1.1992213
1.2001597
1.2012004
1.202186
1.2024637
1.2025989
1.202793
1.2029575
1.2031379
1.2031889
1.2032371
1.2032491
1.2034002
1.2033554
1.2035489
1.2035984
1.2025069
1.1887049
1.1893924
1.1898705
1.1904063
1.1910177
1.1916887
1.1924042
1.1931453
1.1939565
1.1948021
1.1956337
1.1965033
1.1974024
1.1983578
1.1993011
1.2002269
1.2012602
1.2022379
1.2025016
1.2026325
1.2028224
1.2029832
1.2031596
1.2032074
1.2032537
1.2032651
1.2034178
1.203371
1.2035599
1.2036063
1.2025116
1.1896029
1.1902157
1.1905906
1.1910277
1.1915478
1.1921324
1.192765
1.193432
1.1941938
1.1949974
1.1957939
1.1966332
1.1975105
1.1984521
1.1993793
1.2002932
1.2013174
1.2022881
1.2025392
1.2026657
1.2028517
1.2030088
1.2031812
1.2032261
1.2032705
1.2032814
1.2034353
1.2033873
1.2035713
1.2036145
1.2025158
1.1905132
1.1910682
1.1913489
1.1916899
1.1921158
1.1926088
1.1931506
1.1937365
1.1944455
1.1952001
1.1959593
1.1967652
1.1976186
1.1985452
1.1994556
1.2003588
1.201372
1.2023363
1.2025765
1.2026984
1.2028809
1.2030343
1.203203
1.203245
1.2032876
1.2032979
1.203453
1.2034042
1.2035831
1.2036231
1.2025199
1.1914788
1.1919776
1.1921632
1.1924029
1.1927271
1.19312
1.1935608
1.1940593
1.1947122
1.1954102
1.1961302
1.1968996
1.1977269
1.198637
1.1995301
1.2004239
1.2014239
1.2023827
1.2026135
1.2027306
1.2029098
1.2030596
1.2032248
1.2032642
1.2033053
1.2033147
1.2034709
1.2034217
1.2035952
1.2036319
1.2025238
1.1925529
1.1929772
1.1930525
1.1931763
1.1933859
1.1936669
1.1939948
1.1944025
1.1949936
1.1956275
1.1963065
1.1970365
1.1978353
1.1987273
1.1996025
1.2004887
1.2014734
1.202427
1.20265
1.2027623
1.2029386
1.2030849
1.2032467
1.2032835
1.2033239
1.2033321
1.2034893
1.2034398
1.2036077
1.203641
1.202528
1.1937709
1.194088
1.1940272
1.1940137
1.1940927
1.1942479
1.1944528
1.1947722
1.195284
1.1958517
1.1964884
1.197176
1.1979439
1.1988159
1.1996724
1.2005533
1.2015226
1.2024692
1.202686
1.2027934
1.2029671
1.20311
1.2032688
1.2033031
1.2033441
1.2033508
1.2035085
1.2034585
1.2036204
1.2036502
1.2025326
1.1951197
1.1952993
1.1950785
1.1949074
1.1948409
1.1948565
1.1949397
1.1951662
1.1955765
1.196084
1.1966757
1.1973183
1.1980525
1.1989024
1.1997394
1.200618
1.2015724
1.2025095
1.2027214
1.202824
1.2029954
1.203135
1.203291
1.2033228
1.2033667
1.2033715
1.2035284
1.2034775
1.2036334
1.2036594
1.2025381
1.1965334
1.1965616
1.1961735
1.1958356
1.1956148
1.1954844
1.1954584
1.1955778
1.1958725
1.1963212
1.1968687
1.1974639
1.1981617
1.1989869
1.1998031
1.2006829
1.2016216
1.2025477
1.2027564
1.2028541
1.2030233
1.2031597
1.2033131
1.2033426
1.2033923
1.2033941
1.2035487
1.2034967
1.2036466
1.2036687
1.2025452
1.1979285
1.1978049
1.1972669
1.1967721
1.1963946
1.1961447
1.1960138
1.1960023
1.1961785
1.1965653
1.1970708
1.1976168
1.1982749
1.1990721
1.1998655
1.2007486
1.2016696
1.2025827
1.2027902
1.2028833
1.2030508
1.2031842
1.2033351
1.2033624
1.203421
1.2034187
1.2035687
1.203516
1.2036602
1.203678
1.2025546
1.1992822
1.199007
1.1983555
1.1977271
1.197227
1.196868
1.1966096
1.1964718
1.1965405
1.1968418
1.1972973
1.1977908
1.1984043
1.1991678
1.1999347
1.2008183
1.2017168
1.2026117
1.2028208
1.2029106
1.2030771
1.2032079
1.2033566
1.2033818
1.2034529
1.2034446
1.2035882
1.2035352
1.2036744
1.2036872
1.2025673
1.2006787
1.2002579
1.1995611
1.1988303
1.1982068
1.1977146
1.1973328
1.1970746
1.1970514
1.1972176
1.1975804
1.1980106
1.19857
1.1992907
1.2000261
1.2008982
1.2017654
1.2026335
1.2028453
1.2029356
1.2031024
1.203231
1.2033777
1.203401
1.2034881
1.2034715
1.2036082
1.2035548
1.20369
1.2036965
1.2025849
1.2020066
1.2015515
1.2009676
1.2001827
1.1994107
1.19875
1.1982252
1.1978599
1.1977153
1.1977427
1.1979282
1.1982771
1.1987718
1.1994411
1.2001429
1.200992
1.2018221
1.2026653
1.2028697
1.2029639
1.2031296
1.2032554
1.2033996
1.2034212
1.2035268
1.2034981
1.2036306
1.2035752
1.2037082
1.2037057
1.2026099
1.1881678
1.1880561
1.1878027
1.1875951
1.1877204
1.1881463
1.1887338
1.189339
1.1899591
1.1906293
1.1913782
1.1922245
1.1931746
1.194221
1.1953678
1.1965669
1.1978374
1.1991489
1.2003661
1.2014155
1.2017857
1.2020444
1.202339
1.2025457
1.2026903
1.2027531
1.2029338
1.2030396
1.203212
1.2032441
1.2021748
1.188095
1.1879899
1.1878107
1.1876809
1.1877887
1.1881807
1.1887307
1.189322
1.1899371
1.1906019
1.1913436
1.1921822
1.1931254
1.1941668
1.1953097
1.196511
1.1977792
1.1991237
1.2003098
1.2014033
1.2017761
1.2020299
1.2023239
1.2025326
1.2026795
1.2027438
1.2029254
1.2030322
1.2032042
1.2032385
1.2021626
1.188063
1.1879497
1.1877852
1.1876626
1.1877525
1.1881378
1.1886962
1.1892991
1.1899227
1.1905898
1.1913284
1.1921602
1.1930956
1.1941299
1.1952664
1.1964668
1.1977314
1.1990895
1.2002767
1.2013883
1.2017679
1.2020186
1.2023113
1.2025212
1.20267
1.2027355
1.2029177
1.2030251
1.2031966
1.2032337
1.2021448
1.188089
1.1879894
1.1878325
1.187682
1.1877457
1.1881273
1.1886938
1.1893069
1.189938
1.1906072
1.1913423
1.192166
1.1930915
1.1941159
1.1952426
1.1964381
1.1976951
1.1990551
1.2002435
1.2013657
1.2017551
1.2020057
1.2022979
1.2025092
1.2026602
1.2027271
1.2029098
1.2030178
1.2031886
1.2032282
1.202123
1.1881181
1.1880347
1.1878906
1.1877279
1.1877666
1.188139
1.1887045
1.1893232
1.1899603
1.1906316
1.1913638
1.1921802
1.1930962
1.1941107
1.195227
1.1964162
1.1976644
1.1990221
1.2002078
1.2013398
1.2017408
1.2019915
1.2022837
1.2024966
1.20265
1.2027185
1.2029017
1.2030102
1.2031803
1.2032223
1.2021012
1.1881363
1.1880659
1.1879346
1.187775
1.1877955
1.1881525
1.1887129
1.1893359
1.1899789
1.1906532
1.1913836
1.1921943
1.1931018
1.1941072
1.1952135
1.1963962
1.1976357
1.1989901
1.2001712
1.2013121
1.2017266
1.2019773
1.2022693
1.2024838
1.2026398
1.2027101
1.2028935
1.2030025
1.2031718
1.2032165
1.2020859
1.1881484
1.1880878
1.187968
1.1878155
1.1878224
1.1881626
1.1887169
1.1893442
1.1899935
1.1906716
1.1914013
1.1922072
1.1931073
1.1941041
1.1952008
1.196377
1.1976082
1.1989588
1.2001351
1.2012835
1.2017128
1.2019633
1.202255
1.2024711
1.2026297
1.202702
1.2028853
1.202995
1.2031633
1.2032109
1.2020752
1.1881566
1.1881045
1.1879961
1.1878519
1.1878484
1.1881713
1.1887189
1.1893502
1.1900058
1.1906881
1.1914179
1.1922199
1.1931131
1.1941017
1.1951892
1.1963587
1.1975818
1.1989281
1.2000997
1.2012544
1.2016991
1.2019495
1.2022409
1.2024585
1.2026198
1.2026941
1.2028771
1.2029874
1.2031546
1.2032054
1.2020657
1.1881618
1.1881179
1.1880202
1.1878856
1.187875
1.1881808
1.1887203
1.1893549
1.1900165
1.1907033
1.1914339
1.1922327
1.1931196
1.1941005
1.1951788
1.1963415
1.1975566
1.198898
1.2000651
1.2012249
1.2016853
1.2019359
1.2022269
1.202446
1.2026099
1.2026863
1.202869
1.20298
1.2031459
1.2031998
1.2020563
1.1881651
1.1881286
1.188041
1.1879163
1.187903
1.1881919
1.1887218
1.189359
1.1900263
1.1907177
1.1914495
1.1922458
1.1931269
1.1941003
1.1951698
1.1963254
1.1975327
1.1988685
1.2000315
1.2011946
1.2016713
1.2019224
1.2022129
1.2024335
1.2026001
1.2026787
1.2028608
1.2029725
1.2031371
1.2031942
1.202047
1.1881676
1.1881373
1.1880591
1.1879446
1.1879311
1.1882049
1.1887241
1.1893628
1.1900354
1.1907314
1.1914649
1.1922592
1.1931351
1.1941013
1.1951621
1.1963106
1.19751
1.1988396
1.1999997
1.2011635
1.2016573
1.2019091
1.2021991
1.202421
1.2025904
1.2026713
1.2028527
1.2029652
1.2031282
1.2031886
1.2020378
1.18817
1.1881451
1.1880757
1.1879722
1.1879598
1.1882197
1.1887279
1.1893667
1.1900441
1.1907447
1.1914802
1.1922729
1.193144
1.1941034
1.1951557
1.1962969
1.1974886
1.1988112
1.199969
1.2011317
1.2016431
1.2018959
1.2021853
1.2024085
1.2025807
1.2026639
1.2028445
1.2029578
1.2031192
1.2031831
1.2020288
1.188173
1.1881531
1.1880923
1.1880007
1.1879899
1.1882359
1.1887334
1.1893714
1.1900529
1.1907579
1.1914956
1.1922872
1.1931539
1.1941067
1.1951507
1.1962844
1.1974686
1.1987838
1.199938
1.201099
1.2016287
1.201883
1.2021717
1.2023961
1.2025711
1.2026566
1.2028363
1.2029505
1.2031101
1.2031775
1.2020199
1.1881775
1.1881624
1.1881099
1.1880306
1.1880214
1.1882538
1.1887411
1.1893772
1.1900622
1.1907714
1.1915113
1.1923021
1.1931647
1.1941112
1.1951471
1.1962731
1.1974498
1.1987594
1.1999093
1.2010669
1.2016139
1.2018703
1.2021583
1.2023836
1.2025615
1.2026493
1.2028282
1.2029432
1.203101
1.2031717
1.202011
1.1881843
1.1881737
1.188129
1.188061
1.1880542
1.1882745
1.1887517
1.1893846
1.1900723
1.1907854
1.1915276
1.1923177
1.1931765
1.1941169
1.1951448
1.1962631
1.1974324
1.1987347
1.1998841
1.201039
1.201599
1.2018579
1.202145
1.2023713
1.202552
1.202642
1.20282