/*--------------------------------*- C++ -*----------------------------------*\
| =========                 |                                                 |
| \\      /  F ield         | OpenFOAM: The Open Source CFD Toolbox           |
|  \\    /   O peration     | Version:  2406                                  |
|   \\  /    A nd           | Website:  www.openfoam.com                      |
|    \\/     M anipulation  |                                                 |
\*---------------------------------------------------------------------------*/
FoamFile
{
    version     2.0;
    format      ascii;
    arch        "LSB;label=32;scalar=64";
    class       volScalarField;
    location    "0.02";
    object      nut;
}
// * * * * * * * * * * * * * * * * * * * * * * * * * * * * * * * * * * * * * //

dimensions      [0 2 -1 0 0 0 0];

internalField   nonuniform List<scalar> 
2065
(
0.00033657916
0.00035470302
0.00037193331
0.00038610888
0.0003805071
0.00026892586
0.00030050285
0.00033200567
0.00035944625
0.00038099208
0.00033887688
0.00032029463
0.00028941242
0.00031663165
0.00038664776
0.00038412572
0.00036872304
0.00041290724
0.00042962312
0.00043308404
0.00056548225
0.00050529742
0.00090281283
0.0012097927
0.0013434047
0.00063487424
0.00088217029
0.0012576216
0.0014704834
0.0013929385
0.0015227957
0.0015662283
0.0013786215
0.0015202708
0.0016376722
0.0011199424
0.001244836
0.0013840121
0.0015580356
0.00088259852
0.00093517058
0.0010233074
0.001128067
0.0012824097
0.00038541046
0.00036017184
0.00029609319
0.0002274085
0.00017565724
0.00014295141
0.0001208925
0.00010828119
9.8510286e-05
0.00038084727
0.00034989296
0.00028034366
0.00021826529
0.00017124705
0.00014099898
0.00012047669
0.00010922535
9.8900478e-05
0.00037932262
0.00032924605
0.00026662195
0.00020937134
0.00016586069
0.00013964791
0.00012050316
0.00011096534
9.9102398e-05
0.00036907101
0.00030690769
0.00025316505
0.0001993805
0.00016213751
0.00013861807
0.00012063049
0.00011240824
9.8200305e-05
0.00034545488
0.00028477683
0.0002402311
0.00019188787
0.0001579593
0.00013708264
0.0001210571
0.00031993854
9.3679588e-05
7.4218243e-05
4.1469651e-05
1.613768e-05
1.837387e-05
4.1792109e-05
9.3151856e-05
7.2854552e-05
3.9308148e-05
1.6457022e-05
1.9718315e-05
4.0043432e-05
9.2664539e-05
7.1718101e-05
3.7323859e-05
1.6792765e-05
2.1076821e-05
3.8013716e-05
9.1486278e-05
7.0274091e-05
3.558259e-05
1.7174075e-05
2.1446717e-05
3.5603276e-05
5.5895603e-05
4.9094272e-05
3.4346126e-05
1.3074977e-05
4.9269239e-06
4.9539054e-06
5.805665e-05
4.8745658e-05
3.3168166e-05
1.2785868e-05
5.0514152e-06
5.2901154e-06
6.3986327e-05
4.9621539e-05
3.3537373e-05
1.2291382e-05
5.2812514e-06
6.1007223e-06
6.4319034e-05
4.9182734e-05
3.2185401e-05
1.1925838e-05
5.4357555e-06
6.7175392e-06
6.6763388e-05
4.9621246e-05
3.2840996e-05
1.1549829e-05
5.7749412e-06
7.8891267e-06
6.606136e-05
4.9731863e-05
3.1464021e-05
1.1468932e-05
6.0773171e-06
9.0982709e-06
6.8003816e-05
4.8592985e-05
3.209246e-05
1.1151255e-05
6.5628794e-06
1.0797459e-05
6.7025553e-05
4.8508205e-05
3.0855155e-05
1.1169818e-05
7.0009112e-06
1.2286848e-05
6.8087409e-05
4.8095515e-05
3.0878629e-05
1.1016722e-05
7.6042147e-06
1.4570151e-05
6.7739441e-05
4.764584e-05
3.0081033e-05
1.0880788e-05
8.1255286e-06
1.7106487e-05
6.7481448e-05
4.7300207e-05
2.9480609e-05
1.0665702e-05
8.6649747e-06
1.8486561e-05
6.7941804e-05
4.7072643e-05
2.9268904e-05
1.0602947e-05
9.2733887e-06
2.1422437e-05
6.7787845e-05
4.669176e-05
2.8871608e-05
1.0505632e-05
1.0177121e-05
2.5426781e-05
6.7872586e-05
4.652768e-05
2.8215745e-05
1.0490808e-05
1.0790054e-05
2.7320794e-05
6.8279016e-05
4.6511828e-05
2.842348e-05
1.0611637e-05
1.1425422e-05
2.9167833e-05
7.0240003e-05
4.7409511e-05
2.8597907e-05
1.0747452e-05
1.2078365e-05
3.1002045e-05
7.1041172e-05
4.7895785e-05
2.904679e-05
1.1121303e-05
1.2764046e-05
3.2752947e-05
7.4347091e-05
5.0112309e-05
2.9854847e-05
1.143464e-05
1.3435177e-05
3.4404537e-05
7.5423371e-05
5.1199943e-05
3.0443241e-05
1.2000682e-05
1.3943399e-05
3.5919743e-05
7.9348907e-05
5.5443283e-05
3.225776e-05
1.2533219e-05
1.4616484e-05
3.7316943e-05
8.0904531e-05
5.7347924e-05
3.3287541e-05
1.3232551e-05
1.4857045e-05
3.8561576e-05
8.5740559e-05
6.3563621e-05
3.625624e-05
1.4019496e-05
1.5553219e-05
3.9663569e-05
8.7558764e-05
6.5896913e-05
3.7681873e-05
1.4855369e-05
1.570735e-05
4.0610448e-05
9.3805446e-05
7.4304478e-05
4.3514962e-05
1.5982427e-05
1.6366604e-05
4.145751e-05
0.00014234372
0.00011596442
0.00010116182
8.5702603e-05
7.4946023e-05
6.5806847e-05
6.030609e-05
5.5243842e-05
5.6591736e-05
0.0001486313
0.00012339402
0.00010512381
8.8587027e-05
7.7171766e-05
6.8044049e-05
6.1833843e-05
5.688342e-05
5.9277065e-05
0.00016626616
0.00013171057
0.00011539978
9.5539931e-05
8.3627402e-05
7.4018728e-05
6.6223558e-05
6.1151834e-05
6.5041054e-05
0.00017251834
0.00013948061
0.00011850757
0.00010012004
8.5895009e-05
7.6253951e-05
6.8090506e-05
6.3001797e-05
6.7871792e-05
0.00019442363
0.00014434046
0.00012754829
0.00010436891
9.1861923e-05
8.1605954e-05
7.3272937e-05
6.7680735e-05
7.233324e-05
0.00019414331
0.00015276477
0.00013217983
0.00011074534
9.4608997e-05
8.3341717e-05
7.537241e-05
6.9479555e-05
7.6000266e-05
0.00020828808
0.00015570296
0.00014363108
0.00011584209
9.8247266e-05
8.7291343e-05
7.9924633e-05
7.348688e-05
7.739717e-05
0.000207795
0.00016193505
0.00014702119
0.00011970408
0.00010248886
9.0077793e-05
8.2353323e-05
7.4331935e-05
7.9855219e-05
0.00021983582
0.00016781903
0.00015878833
0.00012611197
0.00010589068
9.1838839e-05
8.3846957e-05
7.6258259e-05
8.0574609e-05
0.00022466897
0.00017655838
0.00016007543
0.00012847257
0.00010809754
9.4141943e-05
8.6229346e-05
7.7590887e-05
8.2532042e-05
0.00023808416
0.00017898602
0.00016235635
0.00012859066
0.00011031097
9.6666652e-05
8.7142815e-05
7.8188733e-05
8.2527418e-05
0.00024136583
0.00019536675
0.00017331986
0.00013564343
0.00011464192
9.7693382e-05
8.7718013e-05
7.8681016e-05
8.2336815e-05
0.00025706594
0.00019961947
0.00017740981
0.00013563039
0.00011518318
9.9241993e-05
8.8614211e-05
7.9015693e-05
8.1884303e-05
0.00025953189
0.00020824878
0.00017835182
0.00013982021
0.00011814717
0.00010041147
8.9129857e-05
7.9232534e-05
8.1265361e-05
0.00027478654
0.0002128748
0.00018504362
0.00014478828
0.00011897058
0.00010120565
8.9676903e-05
8.0110324e-05
8.112338e-05
0.00028486683
0.00023368895
0.00019118943
0.00014813467
0.00012202967
0.00010384567
9.1795871e-05
8.1248821e-05
8.1407912e-05
0.00030669228
0.00023765852
0.00019343644
0.00015143416
0.0001245446
0.00010569457
9.3047504e-05
8.2963088e-05
8.1823991e-05
0.00031653184
0.00025979781
0.00020774434
0.00016335542
0.00013144493
0.00011044027
9.6136286e-05
8.475818e-05
8.2755093e-05
0.00033739422
0.00026727676
0.00021409447
0.00016774073
0.00013482151
0.00011294265
9.791231e-05
8.7048634e-05
8.3306321e-05
0.00035010797
0.00029278082
0.00023142336
0.00018038497
0.00014293122
0.00011879172
0.00010229606
8.9655609e-05
8.6128105e-05
0.00036781735
0.00030229969
0.00023956435
0.00018643934
0.00014726137
0.00012208792
0.00010475734
9.2419952e-05
8.734693e-05
0.0003918652
0.00033123111
0.00026070435
0.0002016088
0.00015719477
0.00012921248
0.0001102124
9.7502827e-05
9.1347691e-05
0.00039491416
0.00034212803
0.00027154569
0.000209532
0.00016262512
0.00013310286
0.00011311032
0.00010040545
9.2923746e-05
0.00038345803
0.00036680058
0.00030403608
0.00023476226
0.00017865386
0.00014393842
0.00012110642
0.00010752864
9.7897814e-05
9.2444719e-05
0.00035982823
0.00031576496
0.00025405396
0.00019436935
0.00015771421
9.626658e-05
0.00034158932
0.0003215155
0.00028022465
0.00021454987
0.00017041438
9.603804e-05
0.00034526424
0.00032564119
0.00028601953
0.00021448269
0.00017628053
0.0001012185
0.00032211501
0.00033257379
0.00031426259
0.00023778809
0.00020585136
0.00010134024
0.00033299371
0.00034197388
0.00032284114
0.00024327446
0.00020655765
0.00010801304
0.00031093628
0.00035730302
0.00035383286
0.00026468265
0.0002264252
0.0001083851
0.00031743308
0.0003643144
0.0003612562
0.00026957839
0.00023142773
0.00011593281
0.00029156612
0.00037649674
0.00038849495
0.00029683969
0.00025697777
0.00011725738
0.00026787677
0.00037670319
0.00039533386
0.00030410289
0.00026324884
0.00012439021
0.0002445931
0.00036678097
0.0003989862
0.00032080936
0.00027483063
0.00012647284
0.00024454713
0.00037445852
0.00042150581
0.00034317443
0.00029809919
0.00013323266
0.00022978357
0.00037531368
0.00042927508
0.00035100917
0.00030064182
0.00014117492
0.00022050708
0.00036475664
0.00043016244
0.00036516612
0.00031433436
0.00014429348
0.0002296481
0.00036494515
0.0004353824
0.00038764087
0.00032363534
0.00015019664
0.00019446452
0.00034045424
0.00044063429
0.00039028254
0.00033038977
0.00015519684
0.00020743156
0.00035146734
0.00042407899
0.00041287808
0.00034786705
0.00015801003
0.00018283239
0.00032782864
0.00042845078
0.00042398018
0.00036440366
0.00015820691
0.00019471967
0.00030952507
0.00040284629
0.0004423761
0.00038196503
0.00015677382
0.00017743293
0.00029518951
0.00039502333
0.00043737805
0.00039501815
0.00015316849
0.0001889288
0.00025432372
0.00034864024
0.00044226051
0.00041122999
0.00014031908
0.00017052707
0.00024912597
0.00032554904
0.00041074094
0.00042406388
0.00010770993
0.00019216902
0.00021578581
0.00029062683
0.00039311925
0.00041996854
5.9227238e-05
0.0002112074
0.00022281035
0.00023361633
0.0003123923
0.00039606309
5.7108934e-05
0.00024365831
0.00025789093
0.00025189104
0.00027651163
0.00036442462
5.5748389e-05
0.00031773424
0.00027616836
0.0002880885
0.00026572815
0.00028832041
4.9731099e-05
0.00028327724
0.00036678762
0.00030646638
0.00031297681
0.00029213355
4.1464894e-05
0.00014788397
0.0004177994
0.00038691301
0.0003478679
0.00034514617
5.266868e-05
0.00010463586
0.00023829533
0.0003441863
0.00042915709
0.00036797737
6.725204e-05
0.00012536338
0.00027300863
0.00042389779
0.00048878025
0.00043587461
8.0940629e-05
0.00015305549
0.00033561553
0.00062703322
0.00069412066
0.00058620615
9.2606875e-05
0.00018315105
0.00040809259
0.00071719916
0.00093820061
0.00094269
0.00010219193
0.00022584174
0.00055871734
0.00085590651
0.0011382955
0.0011989372
0.00011042531
0.00027608723
0.00067867879
0.00096864283
0.0011320955
0.0013474037
0.00011693536
0.00035507948
0.00081051386
0.0010513241
0.0010797015
0.0010891371
0.00011916828
0.00044264463
0.00092659261
0.0010871572
0.0010390485
0.00087575104
0.00012211257
0.00058262974
0.0010389309
0.0011284409
0.00097545849
0.00073741267
0.00012413466
0.00070707932
0.0011465319
0.0011721275
0.00093324205
0.00066907163
0.00012527346
0.00076342203
0.00122295
0.0012399402
0.00094082971
0.0006563019
0.00012563912
0.00085540994
0.0013313278
0.0013485101
0.0010257862
0.00069441135
0.0001214685
0.00090183727
0.0013865645
0.0014465104
0.0012170668
0.00088004653
0.00011089568
0.00093809789
0.0014393526
0.0015215282
0.001371018
0.0011845404
9.4274375e-05
0.0009214977
0.0014520024
0.0015924163
0.0014927732
0.0013860889
7.2067805e-05
0.00078072854
0.0013779911
0.0015856715
0.0015972228
0.0015189332
5.3544042e-05
0.00058425084
0.0011702377
0.0014320641
0.0015178997
0.0015434574
4.0749021e-05
0.00043664075
0.00090289529
0.0011422067
0.0012604115
0.0013422677
3.4501092e-05
0.00036724217
0.00071954565
0.00091198289
0.0010326032
0.0010897061
3.4230429e-05
0.00035088661
0.00059772901
0.0007523021
0.0008374055
0.00085425217
3.4568338e-05
0.00031458414
0.00050861479
0.00063344056
9.571351e-05
0.00032484149
0.00028698255
0.00022185893
9.2034121e-05
0.00032600868
0.00028211008
0.0002229698
0.00016757158
0.00013642384
8.55873e-05
0.00033264771
0.00028371116
0.00020787651
0.00016179993
0.00013441242
8.2380087e-05
0.0003272045
0.00028450191
0.00020466267
0.0001532934
0.00012865919
7.6485686e-05
0.00033065018
0.00028334242
0.00020381541
0.00015406917
0.00012894305
7.3237934e-05
0.00032455496
0.00027524808
0.00019125112
0.00014859147
0.00013272206
6.8108498e-05
0.00032401634
0.00028297883
0.00019637877
0.00015173299
0.00012739705
6.490955e-05
0.00032381297
0.00026642659
0.00019974348
0.00015718232
0.00013534958
6.2323766e-05
0.00033044619
0.00027420005
0.00020482758
0.00015738002
0.00013404455
5.9223953e-05
0.00032947722
0.00028588441
0.00021200915
0.00017547891
0.00013784409
5.6631586e-05
0.00033731838
0.00030328715
0.00019477218
0.00014396777
0.00012146088
5.0585328e-05
0.00030164938
0.00032421115
0.00020133556
0.00014827281
0.00012459602
5.1573425e-05
0.00029700458
0.00031827178
0.00020021
0.00014925785
0.00012276838
5.567852e-05
0.00032948454
0.00029804125
0.00021169768
0.0001576631
0.00012529635
5.4108728e-05
0.00031439787
0.00029888763
0.00021739383
0.00016416348
0.00012768183
5.879639e-05
0.00032446843
0.00028957903
0.0002071263
0.00015597433
0.00012772003
6.0638632e-05
0.00030978331
0.00028153824
0.00023020122
0.00017173659
0.00013325969
6.3535425e-05
0.00031209234
0.0002857047
0.0002130591
0.00015671732
0.0001292783
6.5848271e-05
0.00031558772
0.0002716466
0.00021681056
0.00017410336
0.00013930494
7.050781e-05
0.00032127085
0.00028388155
0.00022758628
0.00016537426
0.00013110263
7.3885327e-05
0.00033423365
0.0002789571
0.00022163288
0.0001663809
0.0001438816
7.9779952e-05
0.00032525911
0.00029870078
0.00023773095
0.00017761002
0.00014034553
8.3335582e-05
0.00033778138
0.00030302202
0.00023306286
0.00017409843
0.00014440909
9.0611828e-05
0.00035168835
0.0003038711
0.00025019108
0.00019339946
0.00015630827
3.3059101e-05
0.00026928824
3.5486077e-05
0.00010647348
0.00010199784
0.00031500697
0.00015299292
0.00013318199
0.00012545409
0.00013633927
0.00011596444
0.00011960633
0.00011047444
0.00011043931
0.00011244327
0.00010803759
0.00010478134
0.00010721698
0.00010461222
0.00010472646
0.0001130702
0.00010563571
0.00010854489
0.00010783222
0.00011553631
0.00011755909
0.0001169086
0.00012481347
0.00012264094
0.00010879682
0.00012201903
9.444508e-05
0.00010340376
9.3447149e-05
9.6447473e-05
9.1190947e-05
9.0782454e-05
8.8519913e-05
8.8331064e-05
8.7976961e-05
8.5317327e-05
8.5580255e-05
8.8017993e-05
8.9644604e-05
8.6758326e-05
9.7253127e-05
9.5364192e-05
0.00010421582
9.3166727e-05
0.00010479008
0.00010085818
0.00010400264
8.6043216e-05
9.1510041e-05
7.9689753e-05
8.2467698e-05
7.7514165e-05
7.9620665e-05
7.6059138e-05
7.6417423e-05
7.6383842e-05
7.6499616e-05
7.6635503e-05
7.2011501e-05
7.2414873e-05
7.5069773e-05
7.3506632e-05
7.284542e-05
7.5547711e-05
7.4008551e-05
7.8424711e-05
7.6667296e-05
8.081857e-05
8.0581765e-05
8.0848699e-05
7.4593773e-05
7.5978354e-05
6.74833e-05
7.3194746e-05
6.8086114e-05
6.8655808e-05
6.5255267e-05
6.5246254e-05
6.6431508e-05
6.6253058e-05
6.3749346e-05
6.5419215e-05
6.3166199e-05
6.2538561e-05
6.3672759e-05
6.2021888e-05
6.2867219e-05
6.3656511e-05
6.6518271e-05
6.8671501e-05
7.0225048e-05
7.1453387e-05
7.1456629e-05
6.5026041e-05
6.691304e-05
6.0224812e-05
5.7838141e-05
5.5869903e-05
5.7751175e-05
5.8436093e-05
5.7421994e-05
5.6419799e-05
5.9944429e-05
5.5881548e-05
5.337675e-05
5.5580272e-05
5.509494e-05
5.5078205e-05
5.389899e-05
5.6554005e-05
5.4658157e-05
5.7774051e-05
5.8293435e-05
6.0680642e-05
6.1067429e-05
6.2789213e-05
5.7819272e-05
5.8937082e-05
5.6412226e-05
5.1418953e-05
4.9729824e-05
5.212209e-05
5.255007e-05
5.2881834e-05
5.0975604e-05
5.163294e-05
5.116305e-05
4.9178747e-05
4.8096798e-05
5.0104891e-05
4.9364636e-05
5.0247261e-05
4.9803036e-05
5.0303717e-05
5.1684866e-05
5.2663813e-05
5.6187393e-05
5.6799685e-05
6.031252e-05
5.0445215e-05
4.9507675e-05
4.839648e-05
4.8228546e-05
4.7185854e-05
4.7786578e-05
4.7191187e-05
4.6914629e-05
4.7759281e-05
4.6828322e-05
4.7101828e-05
4.3931236e-05
4.4313727e-05
4.4793652e-05
4.490793e-05
4.5618206e-05
4.7298658e-05
4.9865739e-05
4.9279328e-05
4.7819014e-05
4.8790884e-05
5.1101958e-05
5.2338007e-05
4.7464541e-05
4.5478361e-05
4.5189277e-05
4.5534434e-05
4.3568149e-05
4.4303089e-05
4.4212871e-05
4.2929508e-05
4.5263078e-05
4.4336883e-05
4.2510593e-05
4.1337719e-05
4.2209441e-05
4.1827289e-05
4.1918173e-05
4.2852947e-05
4.3675715e-05
4.4234759e-05
4.5347155e-05
4.5356002e-05
4.5985709e-05
4.6323916e-05
4.8958531e-05
4.2785539e-05
4.2167541e-05
4.2478791e-05
4.2259791e-05
4.0720288e-05
4.1462219e-05
4.167801e-05
4.1321446e-05
4.1719211e-05
4.1372646e-05
4.0771497e-05
3.9482154e-05
4.007953e-05
4.0786547e-05
4.079632e-05
4.084605e-05
4.1955735e-05
4.2227319e-05
4.243925e-05
4.396622e-05
4.4142252e-05
4.3633516e-05
4.4258345e-05
4.0884002e-05
4.0207446e-05
3.9779265e-05
3.9994771e-05
3.9809073e-05
4.0024298e-05
4.0492067e-05
4.0295548e-05
3.9766251e-05
3.9763754e-05
3.9841163e-05
3.8514368e-05
3.9763308e-05
4.0296755e-05
4.0315895e-05
4.0012288e-05
4.0324445e-05
4.0639385e-05
4.0914215e-05
4.0978203e-05
4.1734374e-05
4.2195584e-05
4.2292666e-05
3.8989739e-05
3.9294925e-05
3.867623e-05
3.9173796e-05
3.9446533e-05
3.8641084e-05
3.9060323e-05
3.885305e-05
3.8986449e-05
3.8635259e-05
3.8429499e-05
3.8147014e-05
3.9735003e-05
3.9094855e-05
3.9119427e-05
3.9242482e-05
3.8858004e-05
3.898202e-05
3.9718627e-05
3.9890695e-05
4.0293641e-05
4.101924e-05
4.0967898e-05
3.800893e-05
3.878471e-05
3.8173537e-05
3.8644424e-05
3.8233623e-05
3.8191178e-05
3.8500147e-05
3.8174855e-05
3.8176756e-05
3.7939323e-05
3.7998224e-05
3.7922731e-05
3.8342685e-05
3.8672155e-05
3.8730101e-05
3.8148717e-05
3.8187469e-05
3.8386262e-05
3.9298098e-05
3.9123286e-05
3.9175127e-05
3.9518234e-05
3.9796734e-05
3.7656481e-05
3.8438876e-05
3.7777363e-05
3.7960979e-05
3.7882379e-05
3.7946979e-05
3.7997923e-05
3.7794391e-05
3.7832052e-05
3.7684066e-05
3.781501e-05
3.7813994e-05
3.8378138e-05
3.7930954e-05
3.7806948e-05
3.7782382e-05
3.8035787e-05
3.818312e-05
3.8257682e-05
3.8420653e-05
3.8465771e-05
3.8589884e-05
3.7434407e-05
3.7896012e-05
3.7574115e-05
3.7748529e-05
3.773925e-05
3.7728324e-05
3.7862214e-05
3.7643928e-05
3.7698641e-05
3.7533138e-05
3.7669327e-05
3.7623543e-05
3.759348e-05
3.7595743e-05
3.762143e-05
3.7597134e-05
3.7714861e-05
3.8072817e-05
3.7942715e-05
3.7974055e-05
3.8119584e-05
3.8195783e-05
3.7195009e-05
3.7886245e-05
3.7391683e-05
3.7459969e-05
3.7515504e-05
3.755913e-05
3.7594438e-05
3.7413437e-05
3.7490242e-05
3.7423307e-05
3.7480279e-05
3.7658789e-05
3.7454872e-05
3.7460238e-05
3.7334151e-05
3.7578996e-05
3.7692031e-05
3.7687718e-05
3.7705775e-05
3.7754444e-05
3.7901349e-05
3.7981656e-05
3.7339706e-05
3.7636125e-05
3.7451395e-05
3.7498653e-05
3.7557871e-05
3.7493516e-05
3.7462061e-05
3.7367897e-05
3.743676e-05
3.7331457e-05
3.7421353e-05
3.7401751e-05
3.7368154e-05
3.7333987e-05
3.7458069e-05
3.7560138e-05
3.7600584e-05
3.7537498e-05
3.7628134e-05
3.7552652e-05
3.7651296e-05
3.7738675e-05
3.7342638e-05
3.7651479e-05
3.7526686e-05
3.7475024e-05
3.7530446e-05
3.7400027e-05
3.7462444e-05
3.7554341e-05
3.7450889e-05
3.7527283e-05
3.7492963e-05
3.7445857e-05
3.752777e-05
3.7455628e-05
3.7533928e-05
3.7490517e-05
3.7592334e-05
3.754717e-05
3.7442861e-05
3.7497821e-05
3.7553275e-05
3.7536084e-05
3.7467039e-05
3.762593e-05
3.7502767e-05
3.750959e-05
3.7454144e-05
3.7451111e-05
3.7597718e-05
3.745462e-05
3.7601744e-05
3.7527049e-05
3.7465347e-05
3.7626657e-05
3.7580367e-05
3.7491905e-05
3.7566334e-05
3.7665378e-05
3.7545704e-05
3.7586597e-05
3.7619584e-05
3.7584416e-05
3.7675367e-05
3.7622536e-05
3.7505474e-05
3.772421e-05
3.7537683e-05
3.7641142e-05
3.7555022e-05
3.7570725e-05
3.7597798e-05
3.762505e-05
3.7639861e-05
3.7582617e-05
3.7689603e-05
3.7652724e-05
3.7624263e-05
3.7653105e-05
3.7714767e-05
3.7704067e-05
3.770155e-05
3.768674e-05
3.7672668e-05
3.7629138e-05
3.7648546e-05
3.7693623e-05
3.7710111e-05
3.7736345e-05
3.7711305e-05
3.7683136e-05
3.7727213e-05
3.7680509e-05
3.7725527e-05
3.780481e-05
3.7782579e-05
3.7775269e-05
3.7850621e-05
3.7823781e-05
3.778944e-05
3.7778584e-05
3.7801051e-05
3.7806539e-05
3.7777907e-05
3.7751615e-05
3.783638e-05
3.7848949e-05
3.7743759e-05
3.7672202e-05
3.7900407e-05
3.8001504e-05
3.7934241e-05
3.8003027e-05
3.79571e-05
3.79632e-05
3.7972747e-05
3.7884629e-05
3.7921091e-05
3.7965325e-05
3.7945623e-05
3.7926639e-05
3.8017802e-05
3.7998705e-05
3.8080156e-05
3.7977608e-05
3.803519e-05
3.8038465e-05
3.7917373e-05
3.7908074e-05
3.7914795e-05
3.7896078e-05
3.8148353e-05
3.8113167e-05
3.8137187e-05
3.8145705e-05
3.8184303e-05
3.8157528e-05
3.8198379e-05
3.8205538e-05
3.8280766e-05
3.823593e-05
3.8287592e-05
3.8265249e-05
3.819621e-05
3.8134655e-05
3.8129766e-05
3.8233272e-05
3.8168801e-05
3.8166847e-05
3.8187061e-05
3.8178148e-05
3.8210157e-05
3.8206916e-05
3.8432549e-05
3.8522431e-05
3.8479931e-05
3.8443368e-05
3.8420043e-05
3.8447872e-05
3.8402719e-05
3.8413979e-05
3.8426368e-05
3.8435298e-05
3.846912e-05
3.845195e-05
3.8533235e-05
3.8524106e-05
3.8564031e-05
3.8442132e-05
3.8417831e-05
3.8421224e-05
3.8449773e-05
3.8458515e-05
3.8402399e-05
3.8386632e-05
3.8759984e-05
3.869253e-05
3.8708287e-05
3.8776488e-05
3.8859089e-05
3.8837638e-05
3.8924095e-05
3.8903231e-05
3.8885805e-05
3.8858463e-05
3.880398e-05
3.8783461e-05
3.8719407e-05
3.8720621e-05
3.8704691e-05
3.8767456e-05
3.8819204e-05
3.8827646e-05
3.8781802e-05
3.8784513e-05
3.8807411e-05
3.8792389e-05
3.9110701e-05
3.919196e-05
3.9186189e-05
3.9168918e-05
3.9166159e-05
3.918318e-05
3.9163044e-05
3.9156072e-05
3.9156363e-05
3.9148907e-05
3.9213492e-05
3.9243624e-05
3.9291939e-05
3.9266825e-05
3.9257036e-05
3.9236332e-05
3.9213744e-05
3.9228203e-05
3.9284871e-05
3.9268595e-05
3.9176567e-05
3.9134606e-05
3.9618407e-05
3.9547193e-05
3.9583908e-05
3.9597425e-05
3.9614031e-05
3.962523e-05
3.9622592e-05
3.9636007e-05
3.9664864e-05
3.9695082e-05
3.967405e-05
3.9664509e-05
3.9666395e-05
3.9659996e-05
3.9616914e-05
3.9604809e-05
3.9599528e-05
3.9580656e-05
3.9543795e-05
3.9563143e-05
3.9636635e-05
3.9640606e-05
4.0171264e-05
4.0222992e-05
4.021376e-05
4.0218214e-05
4.0197142e-05
4.0170926e-05
4.0186666e-05
4.0196512e-05
4.0203794e-05
4.0196357e-05
4.0210823e-05
4.0206144e-05
4.0219853e-05
4.0241412e-05
4.0287809e-05
4.0280112e-05
4.0258e-05
4.0234485e-05
4.023461e-05
4.0206956e-05
4.0179165e-05
4.0170583e-05
4.0865648e-05
4.0838083e-05
4.0856576e-05
4.0853761e-05
4.087331e-05
4.0905336e-05
4.0914257e-05
4.0917788e-05
4.0924493e-05
4.0933002e-05
4.0926185e-05
4.092442e-05
4.0897501e-05
4.0883923e-05
4.0862035e-05
4.0873016e-05
4.089596e-05
4.0900745e-05
4.0884411e-05
4.0871471e-05
4.0873455e-05
4.0883853e-05
4.1724128e-05
4.1748453e-05
4.1749472e-05
4.176322e-05
4.1764021e-05
4.1757724e-05
4.1753834e-05
4.1752897e-05
4.1748945e-05
4.1749345e-05
4.1759429e-05
4.1761045e-05
4.1782462e-05
4.1782712e-05
4.178489e-05
4.1768274e-05
4.1740826e-05
4.1740203e-05
4.1751988e-05
4.1759951e-05
4.1752389e-05
4.1729549e-05
4.2821539e-05
4.2814172e-05
4.2825232e-05
4.2829865e-05
4.2840498e-05
4.2848333e-05
4.285712e-05
4.2854859e-05
4.2854723e-05
4.2852065e-05
4.2842837e-05
4.2840213e-05
4.2818897e-05
4.281036e-05
4.2794413e-05
4.2803719e-05
4.2816634e-05
4.2822017e-05
4.2816218e-05
4.2812697e-05
4.2816208e-05
4.2824828e-05
4.4211442e-05
4.4211908e-05
4.420955e-05
4.4210602e-05
4.4211879e-05
4.4213303e-05
4.4214294e-05
4.4220914e-05
4.4225174e-05
4.4227971e-05
4.4231832e-05
4.4231983e-05
4.4241422e-05
4.4246441e-05
4.4254347e-05
4.4248886e-05
4.4243067e-05
4.4237007e-05
4.4234246e-05
4.4227988e-05
4.4220796e-05
4.4215795e-05
5.3078481e-05
5.1988706e-05
5.6975243e-05
6.1240862e-05
6.9756039e-05
7.8797339e-05
9.1231667e-05
0.00010794491
0.00013248344
5.1839406e-05
5.0468205e-05
5.4700576e-05
5.7571737e-05
6.4606534e-05
7.1037394e-05
7.9856352e-05
8.4627636e-05
9.2355007e-05
4.9218788e-05
4.8084234e-05
5.2114665e-05
5.4842481e-05
6.0527603e-05
6.6922112e-05
7.4560266e-05
7.8293435e-05
7.6676128e-05
4.7978479e-05
4.6887715e-05
4.9810675e-05
5.2616403e-05
5.5136425e-05
5.9310465e-05
6.369318e-05
6.6084751e-05
7.0010435e-05
4.4902119e-05
4.4404272e-05
4.7482993e-05
4.861163e-05
5.2075881e-05
5.573995e-05
5.9959261e-05
6.0792908e-05
6.1503942e-05
4.3534053e-05
4.3275866e-05
4.6231687e-05
4.6555822e-05
4.7177578e-05
4.814505e-05
5.0499138e-05
5.7483088e-05
5.7890188e-05
4.1208415e-05
4.0944517e-05
4.3095507e-05
4.4783243e-05
4.5297535e-05
4.5274979e-05
4.674587e-05
4.9679615e-05
5.1278285e-05
4.0156588e-05
4.0092683e-05
4.1589285e-05
4.1358997e-05
4.1890167e-05
4.1638168e-05
4.1969178e-05
4.7163084e-05
4.8886922e-05
3.869755e-05
3.8478868e-05
3.961191e-05
3.9857133e-05
4.0670062e-05
4.0582197e-05
4.0336961e-05
4.199675e-05
4.320109e-05
3.8048826e-05
3.7943176e-05
3.842455e-05
3.8499926e-05
3.859011e-05
3.8435314e-05
3.8975516e-05
4.1044016e-05
4.0903186e-05
3.7260902e-05
3.7309646e-05
3.7645398e-05
3.7957483e-05
3.7922469e-05
3.7904783e-05
3.8267247e-05
3.8894854e-05
3.9147116e-05
3.6782602e-05
3.7139216e-05
3.7503905e-05
3.7630699e-05
3.7508079e-05
3.7734623e-05
3.7785947e-05
3.8365143e-05
3.8189881e-05
3.6885468e-05
3.7275873e-05
3.7253551e-05
3.7277047e-05
3.7363922e-05
3.7573535e-05
3.7388498e-05
3.8083368e-05
3.775391e-05
3.6923053e-05
3.7310359e-05
3.7375609e-05
3.7305606e-05
3.7110629e-05
3.7607817e-05
3.7155447e-05
3.7961378e-05
3.7558028e-05
3.6973099e-05
3.7251768e-05
3.7355839e-05
3.7322161e-05
3.7245909e-05
3.7404549e-05
3.7271967e-05
3.7716577e-05
3.7460599e-05
3.7128591e-05
3.7314305e-05
3.7432005e-05
3.7376149e-05
3.7364146e-05
3.7328023e-05
3.7148202e-05
3.7636285e-05
3.7425238e-05
3.7129135e-05
3.7315314e-05
3.7439659e-05
3.7378128e-05
3.748983e-05
3.7494539e-05
3.7406193e-05
3.7567435e-05
3.7541799e-05
3.7198438e-05
3.7347855e-05
3.7427665e-05
3.748269e-05
3.7562256e-05
3.7582414e-05
3.7486196e-05
3.7688044e-05
3.7556588e-05
3.7447577e-05
3.7560353e-05
3.7605307e-05
3.7614949e-05
3.7578502e-05
3.7607576e-05
3.7512497e-05
3.7661408e-05
3.7566989e-05
3.7616346e-05
3.7765924e-05
3.7852137e-05
3.7792388e-05
3.7821831e-05
3.7828475e-05
3.7770132e-05
3.7854328e-05
3.7763391e-05
3.7776594e-05
3.7906398e-05
3.7896367e-05
3.7874119e-05
3.7909925e-05
3.7917711e-05
3.7874451e-05
3.7911743e-05
3.7922992e-05
3.802463e-05
3.8104585e-05
3.8177188e-05
3.8205491e-05
3.8243486e-05
3.8228933e-05
3.8178254e-05
3.8236642e-05
3.8176183e-05
3.8287489e-05
3.8403919e-05
3.8348944e-05
3.8396308e-05
3.8396194e-05
3.8374869e-05
3.8372113e-05
3.8378562e-05
3.8410482e-05
3.877916e-05
3.8853256e-05
3.8825774e-05
3.8809615e-05
3.8765915e-05
3.8802696e-05
3.8770872e-05
3.883429e-05
3.8772132e-05
3.9116284e-05
3.9056796e-05
3.9125786e-05
3.9039676e-05
3.9073906e-05
3.9034949e-05
3.9075943e-05
3.9044719e-05
3.9087037e-05
3.9546149e-05
3.9623588e-05
3.9617696e-05
3.967702e-05
3.9649478e-05
3.9688893e-05
3.9625851e-05
3.9675261e-05
3.9627331e-05
4.015771e-05
4.0147304e-05
4.0129847e-05
4.0101651e-05
4.011847e-05
4.0101983e-05
4.0122729e-05
4.0078463e-05
4.0131106e-05
4.0832533e-05
4.0889693e-05
4.0907938e-05
4.0927052e-05
4.0916258e-05
4.0912528e-05
4.088985e-05
4.0910924e-05
4.087293e-05
4.1786767e-05
4.1719407e-05
4.169939e-05
4.1682534e-05
4.166577e-05
4.1656415e-05
4.1665914e-05
4.1659872e-05
4.1696157e-05
4.2761149e-05
4.2807186e-05
4.2813606e-05
4.282121e-05
4.2834292e-05
4.284309e-05
4.2836452e-05
4.2835054e-05
4.2817332e-05
4.425042e-05
4.4216885e-05
4.4209592e-05
4.420605e-05
4.420104e-05
4.4196892e-05
4.419821e-05
4.4197414e-05
4.4200579e-05
5.3171343e-05
5.0613611e-05
4.9011478e-05
4.5884338e-05
4.4010416e-05
4.1488392e-05
4.0015732e-05
3.8211226e-05
3.7140199e-05
3.5988353e-05
3.5696418e-05
3.4528692e-05
3.4913685e-05
3.4875218e-05
3.5456876e-05
3.5595153e-05
3.584594e-05
3.6005065e-05
3.6439384e-05
3.672635e-05
3.6993932e-05
3.7453832e-05
3.7929141e-05
3.8379899e-05
3.8968589e-05
3.9328871e-05
4.0146171e-05
4.0679079e-05
4.1895361e-05
4.2673896e-05
4.43131e-05
4.7080133e-05
4.4087915e-05
4.2710432e-05
3.9499279e-05
3.8437574e-05
3.549365e-05
3.4969307e-05
3.2805419e-05
3.2497899e-05
3.0990623e-05
3.0984532e-05
2.9350178e-05
3.0115173e-05
2.974218e-05
3.0163711e-05
3.037374e-05
3.1113616e-05
3.2248538e-05
3.2910139e-05
3.3192442e-05
3.3888288e-05
3.4761082e-05
3.5850446e-05
3.6760427e-05
3.7569325e-05
3.8131586e-05
3.9590169e-05
4.0019992e-05
4.1808388e-05
4.2538249e-05
4.4377567e-05
3.5016544e-05
3.166203e-05
3.083792e-05
2.8359309e-05
2.7405921e-05
2.514807e-05
2.4388122e-05
2.2246544e-05
2.1705773e-05
2.0199742e-05
2.0354636e-05
1.8576098e-05
1.9605772e-05
1.9173997e-05
1.9604392e-05
1.988124e-05
2.0788761e-05
2.2202268e-05
2.307085e-05
2.3994989e-05
2.524197e-05
2.6530443e-05
2.830642e-05
2.91801e-05
3.1491751e-05
3.2645779e-05
3.5421496e-05
3.6995949e-05
3.9428607e-05
4.1688493e-05
4.43368e-05
1.3369035e-05
1.2247292e-05
1.1622343e-05
1.0834852e-05
1.0203188e-05
9.3686916e-06
8.8385398e-06
8.1083157e-06
7.76828e-06
7.2035375e-06
7.2572527e-06
6.5882387e-06
6.8310441e-06
6.6595436e-06
6.7828621e-06
7.0654272e-06
7.3272971e-06
8.0557098e-06
8.8619957e-06
9.4161682e-06
1.0377933e-05
1.1352321e-05
1.2797553e-05
1.3853964e-05
1.6302358e-05
1.7571484e-05
2.0877783e-05
2.3173396e-05
2.8460811e-05
3.3423989e-05
4.186331e-05
4.7448288e-06
4.5391878e-06
4.3525574e-06
4.1514274e-06
3.9818767e-06
3.7951959e-06
3.6383905e-06
3.4597347e-06
3.3131325e-06
3.135694e-06
3.0431592e-06
2.787271e-06
2.5919585e-06
2.3447904e-06
2.1422347e-06
1.9823911e-06
1.8126422e-06
1.6377811e-06
1.5170161e-06
1.4386147e-06
1.4097661e-06
1.4260038e-06
1.4971556e-06
1.7121059e-06
2.1897989e-06
2.5793284e-06
3.4916107e-06
4.5446757e-06
6.8157083e-06
1.0575359e-05
2.0162746e-05
4.687242e-06
4.3274452e-06
3.8779624e-06
3.5250483e-06
3.2156114e-06
2.9488982e-06
2.7184545e-06
2.6444361e-06
2.7932825e-06
3.0676909e-06
3.368121e-06
3.6171654e-06
3.6188325e-06
3.4919427e-06
3.182508e-06
2.9938233e-06
2.4790964e-06
1.9792456e-06
1.5351634e-06
1.1682828e-06
8.4867547e-07
5.5998772e-07
3.836991e-07
2.1022769e-07
1.2694214e-07
8.2447854e-08
6.6243424e-08
6.8455729e-08
9.0384048e-08
2.4271059e-07
9.3561275e-07
)
;

boundaryField
{
    Side1
    {
        type            empty;
    }
    Inlet
    {
        type            calculated;
        value           uniform 4.5144061e-05;
    }
    Side2
    {
        type            empty;
    }
    Outlet
    {
        type            zeroGradient;
    }
    Botwall
    {
        type            nutkWallFunction;
        blending        stepwise;
        value           uniform 0;
    }
    Cyli
    {