/*--------------------------------*- C++ -*----------------------------------*\
| =========                 |                                                 |
| \\      /  F ield         | OpenFOAM: The Open Source CFD Toolbox           |
|  \\    /   O peration     | Version:  2406                                  |
|   \\  /    A nd           | Website:  www.openfoam.com                      |
|    \\/     M anipulation  |                                                 |
\*---------------------------------------------------------------------------*/
FoamFile
{
    version     2.0;
    format      ascii;
    arch        "LSB;label=32;scalar=64";
    class       volScalarField;
    location    "0.02";
    object      p;
}
// * * * * * * * * * * * * * * * * * * * * * * * * * * * * * * * * * * * * * //

dimensions      [1 -1 -2 0 0 0 0];

internalField   nonuniform List<scalar> 
2065
(
101366.91
101389.29
101428.24
100547.97
100605.47
100671.71
100744.59
100820.81
100902.31
100977.62
101044.2
101092.79
101146.15
101188.75
101224.9
101254.1
101278.72
101299.01
101320.69
101342.98
101365.75
101388.16
101423.8
100362.3
100369.79
100377.39
100384.92
100392.8
100401.93
100413.47
100428.64
100449.1
100476.57
100512.59
100557.96
100612.76
100676.22
100746.65
100820.65
100900.44
100974.46
101041.58
101089.07
101142.61
101185.51
101221.99
101251.55
101276.47
101297.07
101318.87
101341.37
101364.51
101387.01
101420.12
100363.13
100372.52
100382.13
100391.86
100402
100413.21
100426.41
100442.72
100463.56
100490.52
100525.12
100568.36
100620.6
100681.33
100749.24
100821.16
100898.46
100971
101038.99
101085.56
101139.03
101182.2
101218.98
101248.89
101274.11
101295.02
101316.94
101339.66
101363.19
101385.83
101417.64
100366.56
100377.49
100388.68
100400.1
100412.02
100424.91
100439.52
100456.81
100478.01
100504.55
100537.92
100579.23
100629.03
100687.1
100752.45
100822.23
100896.9
100967.7
101035.99
101082.26
101135.41
101178.8
101215.88
101246.12
101271.64
101292.86
101314.89
101337.84
101361.77
101384.63
101418.2
100373.35
100385.43
100397.76
100410.33
100423.47
100437.57
100453.22
100471.23
100492.67
100518.83
100551.09
100590.6
100638.09
100693.57
100756.32
100823.87
100896.28
100965.04
101032.52
101079.15
101131.75
101175.33
101212.68
101243.24
101269.06
101290.59
101312.72
101335.89
101360.24
101383.42
101414.95
100383.96
100396.74
100409.81
100423.04
100436.86
100451.64
100467.89
100486.31
100507.8
100533.5
100564.7
100602.53
100647.82
100700.76
100760.89
100826.13
100896.39
100963.32
101029.08
101076.31
101128.09
101171.81
101209.38
101240.26
101266.37
101288.21
101310.43
101333.8
101358.58
101382.21
101411.95
100398.83
100411.84
100425.19
100438.58
100452.54
100467.5
100483.89
100502.32
100523.61
100548.75
100578.88
100615.1
100658.27
100708.74
100766.24
100829.09
100897.11
100962.6
101026.14
101073.74
101124.48
101168.25
101206.02
101237.17
101263.57
101285.71
101308.02
101331.54
101356.8
101381.02
101406.68
100417.96
100430.79
100443.96
100457.03
100470.68
100485.34
100501.44
100519.53
100540.35
100564.75
100593.75
100628.39
100669.51
100717.55
100772.4
100832.77
100898.39
100961.66
101023.5
101071.67
101120.96
101164.7
101202.59
101234
101260.66
101283.1
101305.48
101329.14
101354.88
101379.91
101397.42
100440.88
100453.16
100465.85
100478.3
100491.24
100505.21
100520.65
100538.05
100558.14
100581.64
100609.44
100642.5
100681.61
100727.25
100779.45
100837.22
100900.14
100960.85
101021.14
101069.89
101117.58
101161.18
101199.13
101230.74
101257.66
101280.37
101302.82
101326.57
101352.8
101379.01
101396.73
100466.76
100478.24
100490.21
100501.84
100513.86
100526.88
100541.4
100557.93
100577.09
100599.54
100626.08
100657.53
100694.65
100737.93
100787.45
100842.5
100902.31
100960.58
101019.44
101068.41
101114.37
101157.74
101195.66
101227.43
101254.58
101277.55
101300.03
101323.83
101350.53
101378.27
101393.21
100494.56
100505.06
100516.14
100526.88
100537.92
100549.94
100563.48
100579.04
100597.17
100618.51
100643.74
100673.59
100708.73
100749.65
100796.49
100848.68
100904.95
100960.91
101018.49
101067.38
101111.34
101154.42
101192.22
101224.08
101251.42
101274.63
101297.12
101320.91
101348.04
101377.51
101386.21
100523.35
100532.71
100542.82
100552.68
100562.83
100573.96
100586.6
100601.23
100618.38
100638.6
100662.52
100690.76
100723.95
100762.53
100806.65
100855.87
100908.33
100962.15
101018.76
101066.85
101108.5
101151.27
101188.83
101220.71
101248.21
101271.62
101294.09
101317.81
101345.3
101376.66
101384.87
100552.59
100560.69
100569.72
100578.76
100588.2
100598.62
100610.54
100624.41
100640.68
100659.86
100682.51
100709.18
100740.43
100776.67
100818.08
100864.27
100913.32
100965.23
101020.62
101066.91
101105.86
101148.35
101185.53
101217.35
101244.96
101268.53
101290.95
101314.54
101342.26
101375.81
101386.03
100582.18
100588.72
100596.5
100604.85
100613.82
100623.84
100635.31
100648.62
100664.17
100682.43
100703.86
100728.99
100758.3
100792.19
100830.88
100874.1
100920.37
100969.84
101022.09
101067.03
101104.42
101145.73
101182.36
101214.04
101241.69
101265.4
101287.71
101311.08
101338.87
101374.94
101382.86
100612.43
100618.22
100624.66
100631.72
100640.28
100650.09
100661.29
100674.2
100689.16
100706.55
100726.81
100750.37
100777.71
100809.24
100845.17
100885.39
100928.86
100975.17
101023.58
101067.28
101103.32
101143.47
101179.38
101210.81
101238.44
101262.23
101284.39
101307.45
101335.07
101373.75
101382.09
100643.23
100648.15
100654.55
100661.56
100669.59
100678.87
100689.6
100701.98
100716.24
100732.68
100751.66
100773.58
100798.88
100827.94
100861.03
100898.14
100938.55
100981.58
101026.35
101068.24
101102.87
101141.59
101176.64
101207.7
101235.24
101259.05
101281.04
101303.67
101330.81
101371.76
101382.13
100677.67
100681.7
100687.69
100694.51
100701.96
100710.7
100720.88
100732.59
100745.97
100761.26
100778.77
100798.87
100821.96
100848.41
100878.54
100912.4
100949.52
100989.2
101030.54
101069.5
101103.22
101140.15
101174.19
101204.76
101232.11
101255.88
101277.68
101299.77
101326.07
101368.63
101383.07
100718.22
100721.69
100726.56
100732.25
100739
100746.99
100756.28
100766.9
100778.98
100792.74
100808.46
100826.45
100847.08
100870.74
100897.73
100928.2
100961.84
100997.99
101035.58
101072.22
101104.62
101139.21
101172.1
101202.03
101229.1
101252.76
101274.31
101295.8
101320.85
101364.14
101384.44
100764.02
100766.99
100771.13
100775.84
100781.47
100788.22
100796.1
100805.13
100815.44
100827.24
100840.77
100856.32
100874.24
100894.89
100918.59
100945.52
100975.52
101007.96
101041.45
101074.98
101106.91
101139.1
101170.46
101199.59
101226.25
101249.72
101270.97
101291.79
101315.21
101358.12
101385.11
100812.53
100815.23
100818.55
100822.21
100826.92
100832.52
100838.95
100846.28
100854.64
100864.24
100875.34
100888.22
100903.22
100920.68
100940.95
100964.23
100990.49
101019.16
101048.84
101079.92
101109.69
101139.67
101169.3
101197.42
101223.58
101246.79
101267.71
101287.73
101309.25
101350.5
101382.75
100860.25
100862.81
100866.39
100870.12
100873.99
100878.35
100883.32
100888.95
100895.35
100902.74
100911.37
100921.52
100933.52
100947.74
100964.52
100984.13
101006.62
101031.63
101058.08
101086.41
101113.25
101140.49
101168.59
101195.68
101221.2
101244.01
101264.55
101283.69
101303.17
101341.46
101383.63
100906.96
100909.13
100912.27
100915.61
100919.05
100922.74
100926.73
100931.08
100935.9
100941.37
100947.73
100955.3
100964.42
100975.48
100988.85
101004.86
101023.65
101045.02
101068.18
101093.19
101117.37
101141.91
101168.64
101194.33
101219.06
101241.38
101261.53
101279.76
101297.21
101331.24
101393.37
100950.17
100952.38
100955.37
100958.41
100961.49
100964.7
100967.99
100971.37
100974.94
100978.83
100983.27
100988.55
100995.05
101003.18
101013.35
101025.93
101041.17
101058.99
101078.84
101100.59
101122.46
101143.51
101168.57
101193.62
101217.35
101239.02
101258.68
101276.05
101291.54
101320.66
101386.95
100991.51
100993.11
100995.48
100998.02
101000.68
101003.41
101006.13
101008.76
101011.34
101013.97
101016.83
101020.22
101024.48
101030.04
101037.34
101046.81
101058.76
101073.24
101089.88
101108.46
101126.78
101145.6
101170.3
101193.88
101215.87
101236.88
101255.97
101272.61
101286.24
101311.16
101338.28
101029.28
101030.22
101032
101033.99
101036.07
101038.21
101040.31
101042.3
101044.09
101045.75
101047.42
101049.33
101051.8
101055.25
101060.14
101066.92
101075.96
101087.4
101101
101116.34
101131.65
101149.71
101172.21
101193.81
101215.05
101235.11
101253.45
101269.43
101281.42
101303.38
101308.24
101065.67
101066.57
101067.43
101068.41
101069.48
101070.57
101071.6
101072.54
101073.34
101074
101074.59
101075.28
101076.35
101078.15
101081.12
101085.71
101092.34
101101.21
101112.17
101124.91
101138.75
101154.58
101174.13
101194.31
101214.86
101233.71
101251.08
101266.42
101277.11
101296.7
101289.35
101092.37
101092.63
101094.58
101096.84
101098.13
101098.37
101098.45
101098.5
101098.41
101098.18
101097.86
101097.59
101097.59
101098.2
101099.78
101102.77
101107.55
101114.38
101123.27
101133.99
101146.31
101159.59
101176.9
101196.01
101214.81
101232.26
101248.99
101263.53
101273.22
101290.63
101277.72
101118.1
101116.56
101115.42
101114.69
101115.09
101116.54
101118.11
101118.81
101118.43
101117.72
101116.75
101115.8
101115.13
101115.02
101115.79
101117.77
101121.3
101126.65
101133.9
101142.88
101153.56
101164.93
101180.21
101197.32
101214.8
101231.56
101247.23
101260.83
101269.57
101285.14
101270.6
101139.15
101138.32
101137.52
101136.47
101135.08
101133.49
101131.83
101130.93
101130.89
101130.78
101130.24
101129.31
101128.64
101128.49
101129.07
101130.66
101133.52
101137.9
101143.91
101151.47
101160.56
101170.34
101183.47
101198.97
101215.66
101231.27
101245.7
101258.42
101266.14
101280.5
101265.67
101148.19
101147.96
101147.61
101147.11
101146.5
101145.73
101144.73
101143.4
101141.91
101140.56
101139.72
101139.41
101139.3
101139.52
101140.31
101141.88
101144.46
101148.23
101153.34
101159.79
101167.59
101175.87
101187.28
101201.6
101216.9
101230.96
101244.16
101256.36
101262.91
101276.63
101262.52
101151.03
101150.99
101150.87
101150.64
101150.34
101150.01
101149.68
101149.39
101149.16
101148.96
101148.84
101148.85
101149.07
101149.63
101150.62
101152.23
101154.62
101157.94
101162.34
101167.83
101174.41
101181.54
101191.39
101204
101217.47
101230.86
101243.39
101254.62
101259.84
101273.43
101260.69
101154.56
101154.89
101155.13
101155.29
101155.48
101155.71
101155.99
101156.33
101156.73
101157.15
101157.28
101157.47
101158.27
101159.35
101160.64
101162.29
101164.49
101167.4
101171.14
101175.75
101181.23
101187.43
101195.57
101206.69
101218.7
101230.98
101242.55
101252.97
101257.14
101270.82
101259.46
101160.88
101161.31
101161.71
101162.08
101162.52
101163.08
101163.77
101164.52
101165.01
101165.25
101166.12
101167.55
101168.8
101169.97
101171.26
101172.76
101174.59
101176.94
101179.93
101183.64
101188.09
101193.31
101199.98
101209.54
101220.15
101231.5
101241.82
101251.24
101254.86
101268.24
101259.29
101172.21
101172.2
101172.39
101172.62
101172.92
101173.31
101173.75
101174.27
101175.25
101176.73
101178.24
101179.42
101180.38
101181.35
101182.36
101183.48
101184.8
101186.48
101188.66
101191.45
101194.87
101199.07
101204.43
101212.46
101221.65
101231.58
101240.49
101249.92
101253.26
101265.69
101258.92
101186.36
101186.44
101186.57
101186.74
101186.95
101187.19
101187.51
101188.15
101188.9
101189.59
101190.4
101191.19
101191.89
101192.55
101193.19
101193.86
101194.63
101195.66
101197.08
101199.01
101201.51
101204.74
101208.94
101215.52
101223.21
101231.44
101239.59
101249.19
101252.14
101263.1
101257.72
101200.54
101200.33
101200.28
101200.29
101200.32
101200.38
101200.45
101200.52
101201.06
101202.13
101202.8
101202.93
101202.99
101203.08
101203.2
101203.36
101203.62
101204.09
101204.89
101206.15
101207.94
101210.38
101213.6
101218.89
101225.3
101232.28
101239.26
101247.35
101251.39
101261.09
101256.33
101213.53
101213.25
101213.09
101212.96
101212.84
101212.74
101212.61
101212.26
101211.62
101211.13
101211.29
101211.6
101211.56
101211.44
101211.35
101211.31
101211.35
101211.52
101211.98
101212.84
101214.16
101216.03
101218.52
101222.68
101227.93
101233.67
101239.51
101246.53
101250.96
101260.2
101255.48
101223.04
101222.97
101222.79
101222.54
101222.26
101221.98
101221.69
101221.35
101220.88
101220.11
101219.2
101218.75
101218.67
101218.49
101218.31
101218.16
101218.11
101218.22
101218.56
101219.24
101220.31
101221.82
101223.82
101227.1
101231.43
101236.16
101241.12
101247.51
101251.5
101260.39
101255.8
101227.45
101227.41
101227.36
101227.28
101227.19
101227.08
101226.94
101226.78
101226.59
101226.37
101226.13
101225.78
101225.42
101225.18
101224.99
101224.84
101224.79
101224.93
101225.27
101225.88
101226.81
101228.08
101229.78
101232.46
101236.17
101240.13
101244.31
101249.82
101253.31
101262.38
101257.88
101233.98
101233.97
101233.95
101233.9
101233.85
101233.79
101233.72
101233.64
101233.54
101233.42
101233.26
101233.07
101232.89
101232.71
101232.54
101232.39
101232.32
101232.41
101232.75
101233.34
101234.2
101235.34
101236.84
101239.12
101242.34
101245.76
101249.26
101253.97
101257.06
101266.09
101261.45
101241.55
101241.47
101241.41
101241.34
101241.27
101241.19
101241.12
101241.05
101241.01
101240.97
101240.89
101240.78
101240.73
101240.7
101240.67
101240.66
101240.72
101240.89
101241.27
101241.92
101242.84
101244.01
101245.49
101247.49
101250.29
101253.27
101256.19
101260.16
101262.42
101271.01
101265.99
101249.97
101249.86
101249.77
101249.68
101249.58
101249.48
101249.39
101249.3
101249.21
101249.14
101249.12
101249.26
101249.43
101249.47
101249.54
101249.68
101249.92
101250.31
101250.91
101251.77
101252.91
101254.29
101255.9
101257.76
101260.18
101262.64
101264.69
101267.51
101268.4
101275.53
101270.65
101258.55
101258.49
101258.45
101258.41
101258.37
101258.33
101258.31
101258.29
101258.3
101258.35
101258.4
101258.37
101258.38
101258.61
101258.95
101259.4
101260
101260.78
101261.78
101263.02
101264.53
101266.23
101267.98
101269.65
101271.45
101272.95
101273.63
101274.79
101273.84
101278.68
101273.99
101266.74
101266.76
101266.8
101266.85
101266.92
101267
101267.1
101267.24
101267.41
101267.62
101267.88
101268.21
101268.64
101269.17
101269.83
101270.64
101271.64
101272.86
101274.31
101275.99
101277.83
101279.68
101281.28
101282.35
101283.07
101283.11
101281.98
101281.33
101278.64
101281.14
101276.29
101275.62
101275.74
101275.9
101276.08
101276.29
101276.53
101276.83
101277.17
101277.58
101278.07
101278.65
101279.34
101280.15
101281.11
101282.24
101283.57
101285.09
101286.81
101288.69
101290.63
101292.46
101293.91
101294.7
101294.56
101293.69
101292.07
101289.28
101287.32
101283.45
101283.57
101279.29
101286.95
101287.16
101287.43
101287.73
101288.08
101288.49
101288.97
101289.54
101290.2
101290.97
101291.87
101292.91
101294.11
101295.48
101297.04
101298.77
101300.64
101302.54
101304.37
101305.95
101307.07
101307.49
101306.95
101305.32
101302.82
101299.88
101296.02
101293.09
101288.19
101286.47
101282.52
101301.51
101301.79
101302.12
101302.51
101302.94
101303.45
101304.04
101304.72
101305.51
101306.41
101307.46
101308.65
101309.99
101311.47
101313.06
101314.7
101316.32
101317.81
101319.02
101319.78
101319.92
101319.28
101317.75
101315.28
101311.95
101308.18
101303.1
101298.49
101291.45
101287.75
101283.81
101319.41
101319.65
101319.94
101320.27
101320.64
101321.07
101321.57
101322.13
101322.77
101323.48
101324.28
101325.16
101326.17
101327.24
101328.27
101329.27
101330.19
101330.93
101331.37
101331.38
101330.8
101329.53
101327.57
101324.83
101321.03
101316.26
101309.24
101302.35
101293.25
101288.17
101284.48
101339.08
101339.16
101339.27
101339.38
101339.5
101339.64
101339.81
101340
101340.21
101340.46
101340.73
101341.03
101341.29
101341.56
101341.87
101342.16
101342.4
101342.52
101342.45
101342.03
101340.99
101339.08
101336.22
101332.27
101326.8
101320.13
101311.46
101303.64
101295.28
101290.51
101287.12
101357.9
101357.79
101357.68
101357.56
101357.41
101357.25
101357.07
101356.88
101356.67
101356.45
101356.2
101355.92
101355.62
101355.27
101354.88
101354.41
101353.85
101353.14
101352.2
101350.88
101348.92
101345.96
101341.77
101336.24
101329.21
101321.36
101313
101306.48
101300.01
101295.24
101290.45
101374.17
101373.98
101373.77
101373.52
101373.24
101372.93
101372.57
101372.17
101371.71
101371.2
101370.61
101369.95
101369.17
101368.28
101367.26
101366.07
101364.65
101362.92
101360.81
101358.16
101354.77
101350.42
101345
101338.66
101331.47
101323.7
101315.67
101308.94
101302.06
101296.24
101287.59
101385.86
101385.64
101385.41
101385.14
101384.83
101384.48
101384.08
101383.62
101383.1
101382.49
101381.79
101380.99
101380.06
101378.98
101377.66
101376.08
101374.18
101371.89
101369.09
101365.62
101361.31
101355.99
101349.52
101341.93
101333.3
101324.14
101314.94
101307.2
101299.94
101294.58
101282.11
101391.84
101391.56
101391.26
101390.95
101390.62
101390.24
101389.83
101389.35
101388.81
101388.18
101387.45
101386.6
101385.57
101384.33
101382.85
101381.03
101378.8
101376.09
101372.79
101368.74
101363.77
101357.64
101350.22
101341.58
101332.11
101322.87
101314.27
101307.58
101301.47
101298.61
101280.02
101389.54
101389.3
101389.04
101388.76
101388.46
101388.12
101387.74
101387.32
101386.82
101386.23
101385.52
101384.66
101383.61
101382.37
101380.81
101378.82
101376.31
101373.23
101369.52
101365.09
101359.65
101352.8
101344.51
101335.26
101325.82
101317.19
101309.25
101302.8
101297.37
101294.29
101268.5
101379.3
101379.01
101378.7
101378.36
101377.97
101377.53
101377.04
101376.48
101375.86
101375.15
101374.36
101373.46
101372.43
101371.2
101369.76
101368.11
101366.14
101363.71
101360.62
101356.54
101351.02
101343.67
101334.3
101323.08
101310.62
101298.37
101287.72
101281.2
101280.1
101283.31
101269.67
101363.88
101363.66
101363.41
101363.16
101362.87
101362.55
101362.19
101361.78
101361.31
101360.77
101360.16
101359.47
101358.66
101357.72
101356.61
101355.24
101353.57
101351.58
101349.27
101346.34
101341.96
101335.2
101325.74
101313.93
101300.62
101287.4
101275.97
101269.74
101269.03
101273.58
101245.92
101335.44
101335.68
101335.95
101336.24
101336.57
101336.94
101337.35
101337.81
101338.3
101338.85
101339.44
101340.07
101340.73
101341.37
101341.8
101341.78
101341.24
101339.92
101337.77
101334.83
101330.86
101325.51
101318.64
101310.29
101300.62
101289.6
101275.58
101260.21
101246.95
101239.15
101223.21
101360.22
101359.37
101358.51
101357.66
101356.79
101355.86
101354.86
101353.77
101352.58
101351.26
101349.8
101348.16
101346.3
101344.16
101341.77
101339.3
101336.9
101334.65
101332.35
101329.61
101326.27
101322.37
101318.1
101313.65
101308.85
101303.17
101293.6
101279.64
101265.38
101258.66
101235.45
100338.95
100338.32
100338.43
100339.59
100342.23
100346.46
100352.82
100361.79
100373.99
100389.78
100409.24
100432.25
100458.72
100488.48
100520.86
100555.13
100590.81
100627.93
100666.33
100707.19
100751.02
100796.33
100840.56
100883.99
100925.84
100965.81
101004.09
101040.23
101072.39
101101.6
101125.78
101143.03
101150.25
101152.98
101156.36
101163.15
101175.33
101189.51
101203.9
101216.2
100338.12
100337.37
100337.77
100339.63
100343.55
100349.95
100359.25
100371.96
100388.36
100408.53
100432.26
100459.13
100488.75
100520.57
100553.85
100588.28
100623.84
100660.53
100700.14
100743.49
100789.2
100834.42
100878.75
100921.58
100962.34
101001.28
101038.2
101070.62
101100.18
101124.77
101142.55
101149.94
101152.66
101155.92
101162.57
101174.7
101188.78
101203.18
101215.66
101224.34
101228.49
101235.15
101242.81
101251.22
101259.47
101267.25
101275.71
101286.67
101301.02
101319.12
101339.53
101359.11
101375.59
101387.13
101392.83
101390.51
101380.54
101364.74
101334.75
101363.27
100339.37
100338.79
100339.68
100342.69
100348.57
100357.88
100370.81
100387.56
100408.15
100432.29
100459.38
100488.79
100519.91
100552.16
100585.37
100619.52
100654.65
100693.05
100735.92
100782.03
100828.29
100873.56
100917.38
100958.84
100998.26
101035.85
101068.45
101098.32
101123.34
101141.77
101149.51
101152.27
101155.57
101162.08
101174.15
101188.02
101202.4
101215.06
101223.91
101228.23
101234.83
101242.46
101250.88
101259.23
101267.11
101275.69
101286.74
101301.15
101319.19
101339.41
101358.79
101375.22
101386.8
101392.6
101390.26
101380.21
101364.51
101334.89
101362.49
100344.31
100344
100345.72
100350.51
100358.98
100371.4
100387.93
100408.47
100432.6
100459.61
100488.64
100519.04
100550.26
100582.35
100615.16
100648.86
100686.04
100728.27
100774.56
100821.83
100868.06
100912.98
100954.99
100994.85
101032.82
101065.79
101095.59
101121.17
101140.49
101148.83
101151.88
101155.37
101161.75
101173.67
101187.2
101201.51
101214.34
101223.43
101227.96
101234.52
101242.11
101250.51
101258.95
101266.96
101275.64
101286.79
101301.25
101319.24
101339.27
101358.45
101374.84
101386.47
101392.36
101390.01
101379.88
101364.28
101335.03
101361.76
100352.65
100352.14
100353.36
100357.18
100364.41
100375.6
100391.09
100410.83
100434.33
100460.77
100489.18
100518.77
100549.02
100580.02
100611.56
100644.02
100680.04
100721.54
100767.71
100815.74
100862.81
100908.79
100951.17
100991.63
101029.18
101063.37
101091.85
101118.07
101138.67
101147.92
101151.54
101155.35
101161.67
101173.14
101186.46
101200.53
101213.52
101222.99
101227.69
101234.25
101241.76
101250.13
101258.66
101266.79
101275.59
101286.83
101301.34
101319.28
101339.13
101358.13
101374.46
101386.13
101392.1
101389.76
101379.56
101364.06
101335.21
101361.05
)
;

boundaryField
{
    Side1
    {
        type            empty;
    }
    Inlet
    {
        type            totalPressure;
        rho             rho;
        psi             none;
        gamma           1;
        p0              uniform 102920.87;
        value           nonuniform List<scalar> 
59
(
101269.42
102920.87
101295.19
101295.02
101268.65
101268.4
101268.09
101267.88
102920.87
101267.41
101267.09
101293.01
101293.06
102920.87
101292.41
101292.06
102920.87
101291.08
101291
101290.74
101289.73
101288.74
101287.42
101260.39
101284.88
101286.47
101287.19
101287.2
101286.77
101286.19
101285.65
101284.97
101284.86
101284.86
101284.64
101284.17
101283.59
101283.19
101282.88
101282.6
101282.25
101282.24
101282.76
101283.11
101283.6
101284.52
101285.56
101286.56
101287.68
101288.96
101290.47
101292.23
101293.12
101293.87
101293.4
101295.26
101296.36
101296.32
101298.03
)
;
    }
    Side2
    {
        type            empty;
    }
    Outlet
    {
        type            freestreamPressure;
        freestreamValue uniform 101325;
        value           nonuniform List<scalar> 
35
(
101325
101325
101325
101325
101325
101325
101325
101325
101325
101325
101325
101325
101325
101325
101325
101325
101325
101325
101325
101325
101325
101325
101325
101325
101325
101325
101325
101325
101325
101325
101325
101325
101325
101325
101325
)
;
    }
    Botwall
    {
        type            zeroGradient;
    }
    Cyli
    {
        type            zeroGradient;
    }
    procBoundary3to0
    {
        type            processor;
        value           nonuniform List<scalar> 7(100339.83 100339.61 100339.61 100341.11 100341.11 100345.92 100345.92);
    }
    procBoundary3to1
    {
        type            processor;
        value           nonuniform List<scalar> 
62
(
100340.24
100340.22
100340.96
100342.6
100345.43
100349.68
100355.84
100364.47
100376.05
100391.02
100409.67
100431.86
100458.09
100487.74
100520.22
100555.44
100592.56
100631.53
100671.86
100714.25
100758.75
100803.8
100847.16
100889.68
100930.47
100969.5
101006.81
101042.04
101073.83
101102.64
101126.42
101143.25
101150.49
101153.35
101156.89
101163.81
101176.04
101190.21
101204.59
101216.68
101224.71
101224.71
101228.73
101235.46
101243.15
101251.55
101259.7
101267.36
101275.7
101286.57
101300.87
101319.03
101339.63
101359.42
101375.95
101387.46
101393.06
101390.76
101380.87
101364.98
101334.63
101364.08
)
;
    }
    procBoundary3to2
    {
        type            processor;
        value           nonuniform List<scalar> 
35
(
101367.97
101390.4
101428.52
100538.29
100598.64
100667.71
100742.99
100821.89
100904.27
100980.54
101047.37
101096.62
101149.62
101191.88
101227.68
101256.53
101280.85
101300.85
101322.4
101344.47
101344.47
100362.2
100362.2
100367.87
100373.2
100378.22
100383.6
100390.47
100400.25
100414.22
100434.4
100462.59
100500.25
100500.25
100353.75
)
;
    }
}


// ************************************************************************* //
