/*--------------------------------*- C++ -*----------------------------------*\
| =========                 |                                                 |
| \\      /  F ield         | OpenFOAM: The Open Source CFD Toolbox           |
|  \\    /   O peration     | Version:  2406                                  |
|   \\  /    A nd           | Website:  www.openfoam.com                      |
|    \\/     M anipulation  |                                                 |
\*---------------------------------------------------------------------------*/
FoamFile
{
    version     2.0;
    format      ascii;
    arch        "LSB;label=32;scalar=64";
    class       volScalarField;
    location    "0.02";
    object      rho;
}
// * * * * * * * * * * * * * * * * * * * * * * * * * * * * * * * * * * * * * //

dimensions      [1 -3 0 0 0 0 0];

internalField   nonuniform List<scalar> 
2065
(
1.2034053
1.2034809
1.2032478
1.1940489
1.1949542
1.195952
1.1970218
1.1981302
1.1993064
1.2003998
1.2012613
1.2016381
1.20189
1.2021383
1.2023959
1.2026099
1.2027912
1.2029324
1.2030787
1.2032432
1.2033968
1.2034702
1.2032015
1.188195
1.1886115
1.1891562
1.1896835
1.1901692
1.1906286
1.1910854
1.1915631
1.1920854
1.1926746
1.1933512
1.1941262
1.195001
1.1959688
1.197013
1.1980985
1.1992584
1.2003416
1.2012272
1.2016153
1.201868
1.202113
1.2023721
1.2025891
1.2027733
1.2029173
1.2030635
1.2032311
1.2033876
1.2034593
1.2031664
1.1882794
1.1886799
1.1892215
1.1897616
1.1902659
1.1907435
1.1912143
1.1916999
1.1922217
1.192801
1.1934585
1.1942075
1.1950529
1.1959908
1.1970085
1.1980728
1.1992067
1.2002768
1.2011916
1.2015943
1.2018464
1.2020873
1.2023475
1.2025674
1.2027543
1.2029011
1.2030472
1.2032177
1.203378
1.2034476
1.2031507
1.1883839
1.1887695
1.1893016
1.1898479
1.1903662
1.190859
1.1913422
1.191835
1.1923568
1.1929277
1.1935682
1.1942932
1.1951104
1.1960186
1.1970091
1.1980515
1.1991574
1.2002109
1.201148
1.2015746
1.2018251
1.202061
1.202322
1.2025446
1.2027343
1.202884
1.2030298
1.2032029
1.2033675
1.2034351
1.2031709
1.1885154
1.1888874
1.1894048
1.1899504
1.1904768
1.1909804
1.1914731
1.1919713
1.1924926
1.193056
1.193681
1.1943836
1.1951737
1.1960528
1.1970151
1.1980345
1.199117
1.2001503
1.2010942
1.2015559
1.2018043
1.2020343
1.2022956
1.2025208
1.2027132
1.2028657
1.2030114
1.203187
1.2033559
1.2034217
1.203153
1.1886766
1.1890367
1.189536
1.1900749
1.1906032
1.1911125
1.1916107
1.1921117
1.1926313
1.1931872
1.1937977
1.1944792
1.1952432
1.1960936
1.1970272
1.1980225
1.1990827
1.2000987
1.2010368
1.201537
1.2017843
1.2020072
1.2022683
1.202496
1.202691
1.2028464
1.2029921
1.2031696
1.2033426
1.2034084
1.2031453
1.1888788
1.189223
1.1896993
1.190225
1.1907495
1.1912592
1.1917586
1.1922591
1.1927751
1.1933227
1.1939191
1.1945805
1.1953193
1.1961414
1.197046
1.198016
1.1990533
1.2000573
1.2009821
1.2015166
1.2017652
1.20198
1.2022403
1.2024701
1.2026677
1.2028259
1.2029722
1.2031509
1.2033275
1.2033956
1.2031023
1.189122
1.1894471
1.1898961
1.1904025
1.1909175
1.1914228
1.1919191
1.1924158
1.192926
1.1934642
1.1940463
1.1946882
1.1954026
1.1961968
1.197072
1.1980155
1.1990276
1.2000099
1.2009276
1.2014974
1.2017474
1.201953
1.2022116
1.2024434
1.2026434
1.2028042
1.2029514
1.2031308
1.2033106
1.2033843
1.2030054
1.1894016
1.1897058
1.1901245
1.190607
1.1911072
1.1916036
1.1920934
1.1925829
1.1930852
1.1936127
1.1941803
1.1948031
1.1954936
1.1962603
1.1971057
1.1980211
1.1990045
1.1999601
1.2008722
1.2014768
1.2017309
1.2019266
1.2021825
1.2024157
1.2026181
1.2027813
1.2029296
1.2031091
1.2032917
1.2033745
1.2030182
1.189708
1.1899906
1.1903777
1.190833
1.191315
1.1917992
1.1922796
1.1927609
1.1932534
1.1937692
1.194322
1.1949259
1.1955931
1.1963324
1.1971478
1.1980333
1.1989827
1.199913
1.2008205
1.2014554
1.2017155
1.201901
1.2021532
1.2023874
1.2025917
1.2027573
1.2029067
1.2030856
1.2032707
1.2033654
1.20299
1.1900282
1.1902898
1.1906456
1.1910717
1.1915335
1.1920046
1.1924751
1.1929473
1.1934298
1.1939337
1.1944719
1.1950572
1.1957015
1.1964139
1.1971988
1.1980526
1.1989619
1.1998683
1.2007714
1.2014345
1.2017011
1.2018766
1.202124
1.2023586
1.2025646
1.2027322
1.2028826
1.2030601
1.2032476
1.2033561
1.2029108
1.1903495
1.1905913
1.1909181
1.1913152
1.1917562
1.1922141
1.1926755
1.1931397
1.1936132
1.1941062
1.1946302
1.1951976
1.1958197
1.1965054
1.1972596
1.1980797
1.1989449
1.1998289
1.2007307
1.2014154
1.2016869
1.2018539
1.2020951
1.2023294
1.2025367
1.202706
1.2028572
1.2030325
1.2032224
1.2033458
1.2028932
1.1906645
1.1908875
1.1911874
1.1915573
1.1919781
1.1924238
1.1928777
1.1933358
1.1938023
1.194286
1.1947974
1.1953479
1.1959485
1.1966079
1.1973312
1.1981168
1.1989422
1.1998059
1.2007046
1.2013986
1.201673
1.2018335
1.2020669
1.2023001
1.2025082
1.2026788
1.2028304
1.2030027
1.203195
1.2033365
1.2028938
1.1909696
1.1911725
1.1914477
1.191794
1.1921965
1.1926315
1.1930802
1.1935348
1.1939969
1.1944735
1.1949741
1.1955091
1.1960888
1.1967222
1.1974149
1.1981665
1.1989606
1.199799
1.2006707
1.2013738
1.2016686
1.2018161
1.2020398
1.202271
1.2024792
1.2026508
1.2028021
1.2029709
1.203165
1.2033264
1.2028451
1.1912685
1.1914632
1.1917156
1.192033
1.1924176
1.1928429
1.193287
1.1937396
1.1941992
1.1946706
1.1951618
1.1956823
1.1962419
1.1968495
1.1975116
1.1982295
1.1989927
1.1997979
1.2006304
1.2013431
1.2016641
1.2018021
1.2020141
1.2022423
1.2024501
1.2026219
1.2027723
1.2029372
1.2031315
1.2033146
1.2028616
1.1915586
1.1917427
1.1919927
1.1923019
1.1926689
1.1930786
1.1935135
1.1939609
1.1944165
1.1948821
1.1953639
1.1958699
1.1964095
1.1969914
1.1976223
1.1983055
1.1990351
1.1998049
1.2005998
1.2013127
1.2016633
1.2017918
1.2019905
1.2022144
1.2024209
1.2025925
1.2027414
1.2029018
1.2030942
1.2032956
1.2028594
1.1918931
1.1920648
1.1923038
1.1926019
1.1929511
1.1933451
1.1937684
1.1942077
1.1946563
1.1951139
1.1955845
1.1960751
1.1965937
1.1971489
1.1977479
1.1983952
1.1990885
1.199822
1.2005816
1.2012767
1.201662
1.2017864
1.2019695
1.202188
1.2023917
1.2025625
1.2027096
1.2028653
1.2030521
1.2032658
1.202871
1.1923146
1.1924756
1.192694
1.1929667
1.1932938
1.1936668
1.1940714
1.1944949
1.1949299
1.195374
1.1958294
1.1963012
1.1967965
1.1973233
1.1978891
1.1984991
1.1991539
1.1998486
1.2005686
1.2012529
1.2016649
1.2017854
1.2019517
1.2021626
1.2023637
1.2025326
1.2026775
1.2028278
1.2030052
1.2032228
1.2028877
1.1928296
1.1929779
1.1931772
1.1934237
1.1937203
1.1940619
1.1944371
1.1948344
1.1952462
1.1956689
1.1961027
1.1965508
1.1970193
1.1975153
1.198046
1.1986173
1.1992314
1.1998847
1.2005595
1.2012209
1.201674
1.2017906
1.2019379
1.2021405
1.202336
1.2025026
1.2026454
1.2027896
1.2029536
1.203165
1.2028876
1.1934147
1.193551
1.193728
1.1939454
1.1942112
1.1945186
1.1948589
1.1952231
1.1956043
1.1959986
1.1964046
1.1968242
1.1972621
1.1977244
1.198218
1.1987491
1.199321
1.1999313
1.2005633
1.2012075
1.2016856
1.2018041
1.2019293
1.2021196
1.2023098
1.2024735
1.2026138
1.2027505
1.2028988
1.2030944
1.2028612
1.1940325
1.1941546
1.1943178
1.1945159
1.194749
1.1950185
1.1953203
1.1956477
1.1959943
1.1963558
1.19673
1.1971175
1.1975219
1.1979483
1.1984031
1.198893
1.1994221
1.1999901
1.2005861
1.2012052
1.2016957
1.2018186
1.2019234
1.2021032
1.2022872
1.2024455
1.2025834
1.2027111
1.2028425
1.2030123
1.2028659
1.1946707
1.1947739
1.1949136
1.1950844
1.1952873
1.1955239
1.1957912
1.1960841
1.1963973
1.1967261
1.1970679
1.1974225
1.1977923
1.1981821
1.1985979
1.1990463
1.1995327
1.2000585
1.2006176
1.2012039
1.2017001
1.2018395
1.2019285
1.2020906
1.2022634
1.202418
1.2025535
1.2026727
1.202787
1.2029204
1.2029364
1.1952911
1.1953813
1.1955005
1.1956447
1.1958175
1.1960216
1.1962556
1.1965155
1.1967967
1.1970945
1.1974054
1.1977283
1.1980649
1.1984192
1.198797
1.199205
1.1996494
1.2001335
1.2006544
1.2012073
1.2017098
1.2018604
1.2019263
1.2020804
1.2022472
1.2023944
1.2025256
1.2026361
1.2027335
1.2028242
1.2029624
1.1959013
1.1959709
1.1960659
1.1961833
1.1963265
1.1964985
1.1966994
1.196927
1.1971773
1.1974457
1.1977282
1.1980225
1.198329
1.1986509
1.1989935
1.1993637
1.1997685
1.2002125
1.2006958
1.2012147
1.2017004
1.2018777
1.2019451
1.2020838
1.2022315
1.202371
1.202498
1.2026034
1.2026832
1.2027356
1.202545
1.1964717
1.1965247
1.1965999
1.1966935
1.1968083
1.196948
1.1971149
1.197309
1.1975278
1.1977675
1.1980237
1.1982928
1.1985736
1.1988677
1.1991799
1.1995167
1.1998855
1.2002922
1.2007385
1.2012204
1.2016871
1.2019103
1.2019673
1.2020786
1.2022179
1.2023514
1.2024728
1.2025727
1.2026371
1.202663
1.2022692
1.1970106
1.1970592
1.1971161
1.1971866
1.1972741
1.1973817
1.1975129
1.1976699
1.1978533
1.1980609
1.198289
1.1985333
1.1987909
1.1990617
1.1993487
1.1996577
1.1999958
1.2003698
1.2007826
1.2012326
1.2016898
1.2019483
1.2019828
1.2020787
1.2022152
1.2023382
1.202448
1.2025455
1.2025955
1.2025981
1.2020889
1.1973975
1.1974357
1.1975025
1.1975841
1.1976677
1.1977552
1.1978604
1.1979883
1.1981408
1.1983182
1.1985186
1.1987387
1.1989752
1.1992267
1.1994941
1.1997815
1.2000953
1.2004424
1.2008275
1.2012513
1.2016979
1.2019808
1.2020053
1.2020944
1.2022104
1.2023188
1.2024258
1.2025186
1.2025577
1.2025351
1.2019682
1.1977482
1.1977647
1.1977918
1.1978317
1.1978961
1.1979882
1.1981006
1.1982253
1.1983616
1.198519
1.198698
1.1988986
1.1991188
1.1993562
1.1996104
1.1998833
1.2001799
1.2005066
1.200869
1.2012689
1.2016989
1.2020075
1.2020367
1.2020988
1.202203
1.2023091
1.2024066
1.2024922
1.2025215
1.2024751
1.2018817
1.1979957
1.1980229
1.1980562
1.1980939
1.1981368
1.1981891
1.1982562
1.1983517
1.1984805
1.1986343
1.1988083
1.1990003
1.1992135
1.1994455
1.1996943
1.1999604
1.2002471
1.2005597
1.2009041
1.2012837
1.201695
1.2020268
1.2020588
1.2021029
1.2022065
1.2023013
1.2023855
1.2024682
1.2024873
1.2024227
1.2018079
1.1980718
1.1981052
1.1981434
1.1981874
1.1982392
1.1983007
1.1983739
1.1984613
1.1985683
1.1987006
1.1988633
1.1990556
1.1992699
1.1995027
1.1997516
1.2000162
1.2002981
1.2006016
1.2009322
1.201295
1.2016893
1.2020355
1.202082
1.2021173
1.2022073
1.2022897
1.2023668
1.2024428
1.2024516
1.2023819
1.2017476
1.1980851
1.1981172
1.1981545
1.1981981
1.1982505
1.1983144
1.1983926
1.1984884
1.1986049
1.1987445
1.1989094
1.1990993
1.1993124
1.1995455
1.199795
1.2000588
1.2003376
1.2006343
1.2009539
1.2013015
1.2016783
1.2020357
1.2021069
1.202125
1.2021985
1.2022776
1.2023491
1.2024164
1.2024152
1.2023482
1.2017113
1.1981395
1.1981701
1.1982052
1.1982466
1.1982974
1.1983602
1.1984378
1.1985333
1.1986495
1.1987883
1.1989474
1.1991318
1.1993462
1.1995816
1.1998321
1.2000953
1.2003709
1.2006614
1.2009709
1.2013043
1.2016648
1.2020255
1.2021283
1.2021323
1.2021936
1.2022616
1.2023247
1.2023876
1.2023764
1.2023186
1.2016967
1.1982801
1.198305
1.198334
1.1983687
1.198412
1.1984669
1.1985364
1.198623
1.1987264
1.1988502
1.1990071
1.1991957
1.1994045
1.1996323
1.199877
1.2001351
1.2004048
1.2006872
1.2009857
1.2013051
1.20165
1.2020073
1.202146
1.2021398
1.2021846
1.2022452
1.2022979
1.2023487
1.2023342
1.2022822
1.2016979
1.1985351
1.1985497
1.1985699
1.1985951
1.1986272
1.1986684
1.1987209
1.1987883
1.1988785
1.1989963
1.1991381
1.1993017
1.1994887
1.1996997
1.199931
1.2001782
1.2004384
1.2007108
1.2009976
1.2013033
1.2016332
1.201984
1.2021576
1.2021438
1.2021737
1.2022204
1.2022565
1.2023084
1.2022957
1.2022382
1.2016775
1.1988496
1.1988627
1.1988787
1.1988981
1.1989223
1.1989526
1.1989919
1.1990458
1.1991149
1.1992003
1.1993084
1.1994412
1.1996001
1.1997853
1.1999944
1.2002238
1.2004696
1.2007297
1.2010045
1.2012973
1.2016133
1.2019532
1.2021618
1.2021443
1.2021564
1.2021848
1.2022169
1.2022733
1.2022558
1.2021857
1.2016181
1.199155
1.1991643
1.199177
1.1991924
1.1992107
1.1992331
1.199261
1.1992966
1.1993485
1.199421
1.1995067
1.1996076
1.1997329
1.1998857
1.2000658
1.2002708
1.2004973
1.2007422
1.2010045
1.2012856
1.2015893
1.2019172
1.2021564
1.2021439
1.2021404
1.2021598
1.202182
1.2022211
1.2022143
1.2021352
1.2015505
1.1994012
1.1994116
1.1994244
1.1994389
1.1994554
1.1994745
1.1994969
1.1995219
1.1995509
1.1995922
1.199656
1.1997409
1.1998442
1.199972
1.2001269
1.2003094
1.2005171
1.2007471
1.2009975
1.2012682
1.2015614
1.2018784
1.2021451
1.2021438
1.2021288
1.2021402
1.2021504
1.2021796
1.202175
1.2020988
1.2015048
1.1995272
1.1995421
1.1995571
1.199573
1.1995908
1.199611
1.1996343
1.1996612
1.1996922
1.1997277
1.1997723
1.1998371
1.1999252
1.2000357
1.2001725
1.2003367
1.2005284
1.2007457
1.200986
1.2012479
1.201532
1.20184
1.2021259
1.202149
1.2021259
1.2021295
1.2021353
1.2021564
1.2021462
1.2020742
1.2014837
1.199564
1.1995786
1.1995947
1.1996125
1.1996322
1.1996545
1.1996801
1.1997097
1.1997448
1.1997873
1.1998392
1.1999026
1.1999827
1.2000845
1.2002104
1.2003624
1.2005414
1.2007476
1.2009789
1.2012329
1.2015088
1.2018089
1.2021085
1.2021694
1.2021434
1.2021383
1.2021382
1.2021498
1.2021324
1.202064
1.2014859
1.1996552
1.1996666
1.1996792
1.1996932
1.1997092
1.1997278
1.1997499
1.1997763
1.1998085
1.1998481
1.1998975
1.1999593
1.2000369
1.200134
1.2002533
1.2003973
1.2005675
1.2007642
1.2009866
1.2012329
1.2015016
1.2017947
1.2021003
1.2022082
1.202182
1.2021688
1.2021614
1.2021657
1.2021417
1.2020762
1.2015085
1.1998109
1.1998181
1.1998265
1.199836
1.199847
1.19986
1.1998757
1.1998952
1.19992
1.1999519
1.1999927
1.2000456
1.2001145
1.2002028
1.2003133
1.2004488
1.2006108
1.2007996
1.2010145
1.201254
1.201517
1.2018057
1.202118
1.2022656
1.2022447
1.2022253
1.2022084
1.2022054
1.2021736
1.2021086
1.2015491
1.2000099
1.2000153
1.2000216
1.2000285
1.2000362
1.2000451
1.2000557
1.2000689
1.2000858
1.2001081
1.2001387
1.2001817
1.200239
1.2003124
1.2004077
1.2005288
1.2006781
1.2008565
1.2010632
1.2012964
1.2015551
1.2018411
1.2021549
1.2023386
1.2023259
1.2023037
1.2022772
1.2022631
1.2022177
1.2021377
1.201601
1.2001905
1.2001969
1.2002041
1.2002118
1.2002201
1.2002293
1.2002396
1.2002517
1.2002665
1.2002853
1.2003098
1.2003412
1.2003845
1.2004457
1.2005277
1.2006347
1.20077
1.200936
1.2011328
1.2013592
1.2016135
1.2018962
1.2022071
1.2024247
1.2024215
1.2023915
1.2023553
1.2023294
1.202265
1.2021508
1.2016489
1.2003281
1.200336
1.2003449
1.2003544
1.2003646
1.2003759
1.2003883
1.2004024
1.2004188
1.2004386
1.2004634
1.2004952
1.200537
1.2005926
1.2006663
1.2007628
1.2008864
1.2010404
1.2012266
1.2014446
1.2016922
1.2019678
1.2022706
1.2025165
1.2025261
1.2024823
1.2024323
1.2023927
1.2023135
1.2021633
1.2016918
1.2004556
1.2004646
1.2004746
1.2004854
1.2004973
1.2005104
1.200525
1.2005414
1.2005604
1.2005827
1.2006098
1.2006435
1.2006864
1.2007415
1.200813
1.2009053
1.2010226
1.2011688
1.2013461
1.2015545
1.2017917
1.2020549
1.202344
1.2026069
1.2026309
1.2025727
1.2025109
1.2024617
1.2023752
1.202199
1.2017517
1.2006125
1.2006221
1.2006328
1.2006445
1.2006574
1.2006716
1.2006875
1.2007055
1.2007261
1.2007501
1.2007788
1.2008139
1.2008576
1.2009128
1.2009829
1.2010719
1.2011839
1.201322
1.2014884
1.2016832
1.2019046
1.2021502
1.2024209
1.2026933
1.2027393
1.2026741
1.2026038
1.202549
1.202456
1.2022674
1.2018275
1.200794
1.2008046
1.2008164
1.2008294
1.2008436
1.2008593
1.2008768
1.2008963
1.2009184
1.2009439
1.2009736
1.2010091
1.2010521
1.2011053
1.2011717
1.2012546
1.2013577
1.2014842
1.2016364
1.201815
1.2020195
1.2022485
1.2025049
1.2027808
1.2028649
1.2028008
1.20272
1.202656
1.2025483
1.2023449
1.2018963
1.2009912
1.2010023
1.2010147
1.2010283
1.2010431
1.2010595
1.2010776
1.2010976
1.2011199
1.2011452
1.201174
1.2012076
1.2012481
1.201297
1.2013563
1.2014299
1.2015216
1.2016349
1.2017728
1.2019371
1.2021279
1.2023452
1.2025928
1.202871
1.2030052
1.2029394
1.2028437
1.2027576
1.202631
1.2024159
1.2019651
1.2011854
1.2011961
1.2012081
1.2012212
1.2012355
1.2012512
1.2012685
1.2012875
1.2013087
1.2013324
1.2013593
1.2013903
1.2014262
1.2014693
1.2015227
1.201589
1.2016718
1.2017749
1.201902
1.2020552
1.2022347
1.2024395
1.2026726
1.2029398
1.2031068
1.2030367
1.2029262
1.2028357
1.2027108
1.2024928
1.2020447
1.2013631
1.2013726
1.2013832
1.2013948
1.2014076
1.2014217
1.2014372
1.2014544
1.2014736
1.2014951
1.2015195
1.2015476
1.2015806
1.2016201
1.2016682
1.2017278
1.2018023
1.2018952
1.2020102
1.2021497
1.2023144
1.2025029
1.2027166
1.2029636
1.203152
1.2030994
1.202992
1.2029079
1.202797
1.2025751
1.2021161
1.2015103
1.2015189
1.2015285
1.2015391
1.2015508
1.2015638
1.2015782
1.2015942
1.2016121
1.2016323
1.2016551
1.2016814
1.2017121
1.2017487
1.2017929
1.2018472
1.2019143
1.2019973
1.2020996
1.2022236
1.2023709
1.2025421
1.2027393
1.2029738
1.2031904
1.2031753
1.2030699
1.2029783
1.2028641
1.2026207
1.2021051
1.201624
1.2016313
1.2016395
1.2016487
1.2016589
1.2016704
1.2016832
1.2016977
1.201714
1.2017325
1.2017538
1.2017785
1.2018077
1.2018423
1.2018839
1.2019346
1.2019969
1.2020739
1.2021683
1.2022829
1.2024192
1.2025783
1.2027619
1.2029788
1.2032054
1.2032193
1.2031121
1.2030126
1.2028849
1.2026398
1.2020439
1.2016844
1.2016892
1.2016949
1.2017016
1.2017095
1.2017185
1.2017289
1.2017409
1.2017548
1.2017709
1.2017897
1.201812
1.2018385
1.2018704
1.2019091
1.2019564
1.2020145
1.2020864
1.2021747
1.2022821
1.2024105
1.2025605
1.2027336
1.2029388
1.2031772
1.203229
1.2031356
1.2030495
1.2029205
1.202687
1.2019732
1.2016856
1.2016885
1.201692
1.2016962
1.2017011
1.2017068
1.2017135
1.2017213
1.2017307
1.2017419
1.2017555
1.2017721
1.2017925
1.2018184
1.2018506
1.2018903
1.2019401
1.2020028
1.2020814
1.2021793
1.202298
1.2024372
1.2025994
1.202797
1.2030498
1.2031644
1.2030844
1.2029947
1.2028723
1.2026161
1.2018138
1.2015954
1.2015958
1.2015964
1.2015972
1.2015984
1.2016
1.2016021
1.201605
1.201609
1.2016145
1.2016222
1.2016329
1.2016475
1.2016668
1.2016929
1.201728
1.2017742
1.2018339
1.2019097
1.2020025
1.2021126
1.2022397
1.2023854
1.2025585
1.2027824
1.2029182
1.2028295
1.2027402
1.2026357
1.2024024
1.2017293
1.2015162
1.201514
1.2015117
1.2015095
1.2015073
1.2015051
1.2015029
1.2015011
1.2014997
1.2014992
1.2014998
1.2015022
1.2015073
1.2015161
1.2015306
1.2015529
1.2015853
1.2016317
1.201696
1.2017802
1.2018819
1.2019972
1.2021269
1.202279
1.2024778
1.202654
1.2025831
1.2024968
1.2023903
1.202164
1.2014681
1.2012565
1.2012586
1.2012609
1.2012634
1.2012661
1.2012692
1.2012726
1.2012766
1.2012814
1.2012873
1.2012951
1.2013055
1.2013192
1.2013371
1.2013588
1.2013838
1.2014141
1.201451
1.2014986
1.2015625
1.2016452
1.2017481
1.2018737
1.2020271
1.202223
1.2024217
1.2023495
1.2021764
1.2019529
1.2016403
1.201209
1.2017189
1.2017067
1.2016942
1.2016817
1.2016688
1.2016551
1.2016406
1.2016251
1.2016088
1.2015915
1.2015733
1.2015542
1.2015345
1.2015147
1.2014969
1.2014852
1.2014836
1.2014949
1.2015201
1.2015596
1.2016176
1.2016995
1.2018111
1.2019586
1.202152
1.2023922
1.2024286
1.2022774
1.2020493
1.2017959
1.2013864
1.1880403
1.1880354
1.18804
1.1880575
1.1880921
1.1881445
1.1882201
1.1883235
1.1884605
1.1886337
1.1888432
1.1890865
1.1893626
1.1896699
1.1900005
1.1903465
1.1907053
1.1910812
1.1914781
1.1919178
1.1924155
1.1929648
1.1935396
1.1941443
1.1947575
1.1953638
1.1959494
1.1964894
1.1969509
1.1973405
1.1976353
1.1978198
1.1978922
1.1979454
1.1980493
1.198242
1.1985293
1.1988419
1.1991288
1.1993332
1.1880152
1.1880144
1.1880279
1.1880583
1.188112
1.1881928
1.1883046
1.1884516
1.1886358
1.1888571
1.1891123
1.1893962
1.1897044
1.1900301
1.1903648
1.1907069
1.1910598
1.1914304
1.191849
1.1923355
1.192886
1.19347
1.1940853
1.1947116
1.1953301
1.195929
1.1964864
1.1969601
1.1973636
1.1976715
1.1978632
1.1979307
1.1979732
1.1980649
1.1982477
1.1985319
1.1988462
1.1991396
1.1993534
1.1994566
1.1994989
1.1996158
1.1997918
1.1999933
1.2001625
1.2002905
1.2004141
1.2005689
1.200745
1.2009388
1.2011336
1.2013163
1.2014666
1.2015859
1.2016534
1.2016681
1.2015917
1.2015263
1.2012523
1.2017653
1.1880044
1.1880164
1.1880445
1.1880956
1.1881777
1.1882961
1.1884515
1.1886458
1.1888783
1.1891449
1.189438
1.18975
1.1900731
1.1903999
1.1907287
1.1910624
1.1914083
1.191805
1.192278
1.1928258
1.1934165
1.1940389
1.1946745
1.1953003
1.1959069
1.1964781
1.1969614
1.1973767
1.1976988
1.1979008
1.1979673
1.1980008
1.1980818
1.1982538
1.1985337
1.1988471
1.1991458
1.1993689
1.1994771
1.1995178
1.199627
1.199798
1.1999994
1.2001718
1.2003022
1.2004266
1.2005819
1.2007593
1.2009539
1.2011485
1.2013296
1.2014789
1.2015965
1.201662
1.2016726
1.2015926
1.2015234
1.2012529
1.2017535
1.1880205
1.1880552
1.1881075
1.1881886
1.1883065
1.1884645
1.1886649
1.1889064
1.189183
1.1894855
1.1898032
1.1901272
1.1904497
1.1907704
1.1910895
1.1914142
1.1917894
1.1922459
1.1927861
1.1933794
1.1940048
1.1946467
1.1952737
1.1958832
1.196462
1.1969556
1.1973759
1.1977134
1.1979305
1.1980008
1.1980293
1.1981014
1.1982619
1.1985354
1.1988451
1.1991473
1.1993797
1.1994944
1.1995349
1.199637
1.1998025
1.2000033
1.200179
1.200312
1.2004374
1.2005932
1.2007721
1.2009676
1.201162
1.2013419
1.2014903
1.2016065
1.2016703
1.2016772
1.2015935
1.2015207
1.2012537
1.2017423
1.1879942
1.1880648
1.188142
1.1882354
1.1883576
1.1885163
1.1887186
1.1889636
1.1892455
1.189554
1.1898763
1.1902018
1.1905229
1.1908391
1.1911482
1.191457
1.191813
1.1922517
1.1927794
1.1933694
1.1939923
1.1946352
1.1952571
1.1958672
1.1964403
1.1969528
1.1973609
1.1977139
1.1979518
1.1980312
1.1980588
1.1981244
1.1982737
1.198536
1.1988424
1.1991452
1.1993868
1.1995097
1.1995506
1.1996466
1.1998061
1.2000057
1.2001844
1.2003202
1.2004469
1.2006032
1.2007836
1.2009801
1.2011745
1.2013533
1.2015011
1.201616
1.2016782
1.2016818
1.2015944
1.2015182
1.2012548
1.2017311
)
;

boundaryField
{
    Side1
    {
        type            empty;
    }
    Inlet
    {
        type            calculated;
        value           nonuniform List<scalar> 
59
(
1.2014405
1.2210588
1.2017722
1.2017711
1.2014344
1.201457
1.2014544
1.2014523
1.2210639
1.2014484
1.2014455
1.2017535
1.201754
1.2154859
1.2017486
1.2017458
1.2154859
1.2017375
1.2017368
1.2017347
1.2017261
1.201718
1.2017065
1.201393
1.2016843
1.2016978
1.2017042
1.2017045
1.2017009
1.2016962
1.2016917
1.2016859
1.2016851
1.2016851
1.2016832
1.2016792
1.2016743
1.2016709
1.2016683
1.201666
1.2016631
1.201663
1.2016673
1.2016703
1.2016744
1.2016822
1.2016909
1.2016994
1.2017088
1.2017197
1.2017324
1.2017472
1.2017547
1.2017611
1.2017571
1.2017728
1.201782
1.2017817
1.2017961
)
;
    }
    Side2
    {
        type            empty;
    }
    Outlet
    {
        type            calculated;
        value           nonuniform List<scalar> 
35
(
1.2013012
1.2012992
1.201297
1.2012945
1.2012919
1.2012892
1.2012866
1.201284
1.2012818
1.2012801
1.2012793
1.2012796
1.201282
1.2012876
1.2012981
1.2013156
1.2013425
1.2013805
1.2014329
1.201505
1.2016026
1.2017307
1.201893
1.2020933
1.2023436
1.2026513
1.2028013
1.2028159
1.202757
1.2025833
1.2024491
1.2013116
1.2013091
1.2013064
1.2013037
)
;
    }
    Botwall
    {
        type            calculated;
        value           nonuniform List<scalar> 0();
    }
    Cyli
    {
        type            calculated;
        value           nonuniform List<scalar> 0();
    }
    procBoundary3to0
    {
        type            processor;
        value           nonuniform List<scalar> 7(1.1880492 1.1880256 1.1880256 1.1880059 1.1880059 1.1879949 1.1879949);
    }
    procBoundary3to1
    {
        type            processor;
        value           nonuniform List<scalar> 
62
(
1.1880645
1.1880643
1.1880736
1.1880938
1.1881278
1.1881776
1.1882482
1.1883451
1.1884725
1.1886346
1.1888334
1.1890665
1.1893405
1.1896478
1.1899818
1.1903418
1.1907213
1.1911229
1.1915463
1.1920068
1.1925145
1.1930614
1.193625
1.1942157
1.1948119
1.1954012
1.1959672
1.1964866
1.1969329
1.1973071
1.19759
1.1977708
1.197852
1.1979182
1.1980343
1.1982361
1.198525
1.1988335
1.1991129
1.1993077
1.1994325
1.1994325
1.1994781
1.199603
1.1997839
1.199985
1.2001509
1.2002768
1.2003998
1.2005543
1.200729
1.2009221
1.2011174
1.2013018
1.2014534
1.2015748
1.2016444
1.2016634
1.2015909
1.2015294
1.2012518
1.2017772
)
;
    }
    procBoundary3to2
    {
        type            processor;
        value           nonuniform List<scalar> 
35
(
1.2034135
1.2034914
1.2032494
1.1939744
1.1949115
1.1959395
1.1970337
1.1981709
1.1993532
1.2004522
1.2013002
1.2016616
1.2019118
1.2021624
1.2024184
1.2026294
1.2028082
1.2029466
1.2030929
1.2032544
1.2032544
1.1881158
1.1881158
1.1885494
1.1890913
1.1896017
1.1900675
1.1905082
1.190951
1.1914213
1.1919456
1.1925474
1.1932459
1.1932459
1.1879199
)
;
    }
}


// ************************************************************************* //
