/*--------------------------------*- C++ -*----------------------------------*\
| =========                 |                                                 |
| \\      /  F ield         | OpenFOAM: The Open Source CFD Toolbox           |
|  \\    /   O peration     | Version:  2406                                  |
|   \\  /    A nd           | Website:  www.openfoam.com                      |
|    \\/     M anipulation  |                                                 |
\*---------------------------------------------------------------------------*/
FoamFile
{
    version     2.0;
    format      ascii;
    arch        "LSB;label=32;scalar=64";
    class       volVectorField;
    location    "0.04";
    object      U;
}
// * * * * * * * * * * * * * * * * * * * * * * * * * * * * * * * * * * * * * //

dimensions      [0 1 -1 0 0 0 0];

internalField   nonuniform List<vector> 
2065
(
(39.141877 3.3333494 1.828619e-20)
(39.528102 3.2774169 -3.3920645e-20)
(39.840818 3.2893861 0)
(40.05722 3.3518366 3.7192386e-18)
(40.14906 3.4606127 -6.413093e-18)
(40.116344 3.5456211 5.776408e-18)
(39.969232 3.627564 -2.8521672e-18)
(39.658261 3.668182 -2.7423713e-18)
(39.229004 3.6224332 2.5353481e-18)
(38.689111 3.4826423 1.8321494e-20)
(38.06492 3.2416006 -3.389528e-20)
(37.396217 2.8929512 -2.0387991e-18)
(36.735965 2.4577595 3.6839648e-18)
(36.166121 1.9935742 -3.41183e-18)
(35.745358 1.5746358 3.2382559e-18)
(35.501276 1.3036754 -1.4785131e-18)
(35.440241 1.2941109 -4.1754753e-20)
(35.501908 1.6057915 0)
(35.515937 2.3145883 1.130779e-18)
(35.33703 3.0574761 -1.1134106e-18)
(34.855593 3.8026798 0)
(34.038143 4.3179834 -5.9509565e-20)
(32.941842 4.5414554 -5.5041517e-20)
(31.644327 4.4643042 -7.1474157e-19)
(30.224434 4.0871261 8.049619e-19)
(28.842726 3.3752204 0)
(27.723957 2.310363 -8.0436648e-20)
(26.99756 1.1243446 7.4243772e-20)
(26.720462 0.19360644 0)
(26.802356 -0.32622065 0)
(27.329807 -0.45984678 0)
(27.939572 -0.061363992 -1.1911319e-19)
(28.188363 0.63285543 0)
(28.119037 1.2308357 -1.0767778e-19)
(27.857961 1.2523896 0)
(27.689427 0.75009219 0)
(27.702538 0.23764387 0)
(27.921441 -0.06341586 4.7249128e-19)
(28.365898 -0.098462116 4.5265989e-19)
(28.767849 0.055429563 1.4067886e-19)
(29.19032 0.12923304 -2.5704117e-19)
(29.672732 0.021528224 3.4355541e-19)
(30.211357 -0.10247204 -9.4399421e-20)
(30.828047 -0.13070157 1.9585963e-19)
(31.46653 -0.14440223 -1.7873072e-19)
(32.147935 -0.16812915 1.6245812e-19)
(32.84014 -0.19624912 8.8381671e-19)
(33.563887 -0.20915443 -4.0220934e-19)
(34.266046 -0.22253552 0)
(34.999561 -0.21336591 0)
(35.654809 -0.22346577 5.1282175e-20)
(36.414246 -0.21891963 -7.0715973e-21)
(37.054886 -0.20015131 1.4677175e-22)
(37.769272 -0.19214956 -1.2192792e-23)
(38.256592 -0.20480181 5.6368514e-20)
(39.100716 -0.18077284 -5.7903432e-19)
(39.445232 -0.18052545 -5.2237158e-19)
(40.460052 -0.13359629 0)
(31.771025 2.715332 -8.563744e-21)
(32.746922 2.8537412 1.8069765e-20)
(33.548172 3.0241721 4.26711e-18)
(34.166751 3.2236404 -3.9191015e-18)
(34.592003 3.4234372 -1.4161759e-20)
(34.838417 3.5954422 0)
(34.865663 3.7399927 -1.1296589e-20)
(34.758076 3.7938039 2.0621528e-20)
(34.475833 3.7494397 0)
(34.043759 3.6001504 -3.7325632e-20)
(33.516552 3.33501 3.4320558e-20)
(32.949247 2.9475796 0)
(32.416381 2.4697087 2.9032812e-20)
(32.019186 1.9681829 -2.6769024e-20)
(31.80381 1.517571 -2.3995427e-20)
(31.8094 1.2768905 0)
(32.010109 1.2760341 1.3911795e-18)
(32.35874 1.697766 3.9979598e-20)
(32.649723 2.4341102 -1.184647e-18)
(32.708966 3.2829765 1.0788598e-18)
(32.472696 3.9975732 -1.9883849e-18)
(31.886591 4.5234656 1.8714844e-18)
(30.990917 4.7307769 -1.6821312e-18)
(29.873015 4.624144 8.5323671e-19)
(28.623428 4.2019152 -4.6461045e-20)
(27.421489 3.4191753 0)
(26.478545 2.2835518 7.8941665e-20)
(25.888978 1.0602443 -7.3109156e-20)
(25.691111 0.12613443 0)
(25.831235 -0.39568012 5.0762131e-19)
(26.434848 -0.5106742 -9.7437675e-19)
(27.081758 -0.062737147 4.7100396e-19)
(27.414246 0.66091576 0)
(27.46919 1.2595147 1.0574998e-19)
(27.385242 1.2463752 -3.8751082e-19)
(27.35097 0.72078964 3.5222031e-19)
(27.436664 0.20392867 0)
(27.734031 -0.098766019 0)
(28.226217 -0.12645384 -4.4146582e-19)
(28.70341 0.031614813 4.1086452e-19)
(29.214468 0.10067465 -2.5032415e-19)
(29.77134 -0.0082075287 -1.9506163e-19)
(30.364338 -0.13367377 0)
(31.017382 -0.15896405 0)
(31.685028 -0.17136102 0)
(32.386288 -0.19392744 -3.1845111e-19)
(33.089942 -0.22064821 -4.3474124e-19)
(33.816331 -0.23165187 -2.6468686e-19)
(34.518449 -0.24344825 3.6331792e-19)
(35.244546 -0.23244761 -1.1112107e-19)
(35.897328 -0.24238866 0)
(36.641161 -0.23587718 -5.7136541e-20)
(37.271985 -0.2150766 0)
(37.973643 -0.20735828 2.8432801e-19)
(38.452348 -0.22108254 1.8880967e-20)
(39.279176 -0.19503763 2.6482856e-19)
(39.618495 -0.19539168 5.2654862e-19)
(40.615167 -0.14387732 0)
(18.916449 1.2026348 5.4778427e-18)
(20.680712 1.548786 -5.0290403e-18)
(22.348417 1.9374849 -4.6413039e-18)
(23.860577 2.3515392 4.2935613e-18)
(25.177356 2.7520756 -7.7093058e-21)
(26.26398 3.1223234 -1.4187771e-20)
(27.104889 3.4444787 0)
(27.656868 3.6738683 2.3973121e-20)
(27.983358 3.8084666 -2.8280386e-18)
(28.066952 3.7933821 2.4741399e-18)
(27.987919 3.6783458 1.7660711e-20)
(27.773019 3.3981174 0)
(27.505369 2.9671498 0)
(27.287977 2.4376525 -1.4255534e-20)
(27.220561 1.8760756 -1.6317854e-18)
(27.320576 1.4457313 3.0088731e-18)
(27.65893 1.1612072 -1.4201578e-18)
(28.223888 1.2014794 3.4618148e-25)
(28.875713 1.6918922 -1.3077324e-18)
(29.476064 2.4968464 1.1291679e-18)
(29.847617 3.3732029 6.7708298e-20)
(29.867563 4.1699029 0)
(29.564529 4.6764949 0)
(28.918802 4.8951604 -2.6512892e-20)
(28.016067 4.7712096 -8.3418802e-19)
(26.972109 4.3100132 4.4991076e-20)
(25.977408 3.4620402 6.6797876e-19)
(25.224029 2.2638703 3.853531e-20)
(24.773405 1.0086317 -5.7262331e-19)
(24.656868 0.066802148 5.3105342e-19)
(24.865866 -0.46868614 6.2454467e-20)
(25.548069 -0.56909064 0)
(26.235474 -0.078874004 5.1987799e-19)
(26.66537 0.67789114 -4.9742478e-19)
(26.870375 1.2668414 -4.1407364e-19)
(26.960742 1.2268761 -6.4761317e-23)
(27.055882 0.69309981 -4.2272192e-23)
(27.227202 0.164714 3.1702704e-19)
(27.608636 -0.13721599 2.9976468e-19)
(28.148124 -0.15924848 -5.6780386e-19)
(28.698763 0.0015344939 2.6386959e-19)
(29.291181 0.066901076 2.4119941e-19)
(29.914118 -0.041402261 -2.1942494e-19)
(30.553897 -0.16742678 0)
(31.237405 -0.1896675 -9.179915e-20)
(31.928621 -0.20035574 -1.9052296e-23)
(32.644672 -0.22116871 -1.5349178e-19)
(33.355834 -0.24598955 2.7982323e-19)
(34.081957 -0.25475536 2.5590457e-19)
(34.781805 -0.26470162 -3.5176995e-19)
(35.498873 -0.25170219 -1.6156239e-19)
(36.147586 -0.26127839 1.4873054e-19)
(36.874613 -0.25257365 5.1975572e-20)
(37.494821 -0.2299326 4.0197472e-21)
(38.18299 -0.22259396 -3.1586708e-19)
(38.652225 -0.23745521 3.6708869e-20)
(39.460898 -0.20945901 2.5770727e-19)
(39.794494 -0.21029628 2.7244482e-19)
(40.772348 -0.15395439 0)
(7.9074102 -0.47955369 1.0391789e-20)
(9.2415392 -0.15764501 0)
(10.746912 0.25406799 -9.2780425e-21)
(12.424398 0.79257457 -8.6780345e-21)
(14.063488 1.3637461 -8.0384183e-21)
(15.646794 1.9311118 7.4339765e-21)
(17.113452 2.4811845 2.0592e-20)
(18.406324 2.970408 0)
(19.453893 3.3468473 2.9702846e-18)
(20.265652 3.5830964 -2.7276657e-18)
(20.824215 3.667181 -2.5032612e-18)
(21.192686 3.5817047 2.2931084e-18)
(21.422708 3.3016678 -8.2388573e-21)
(21.591929 2.8466597 -1.5099168e-20)
(21.796785 2.2818991 1.3856665e-20)
(22.114056 1.7060865 1.6352611e-18)
(22.600459 1.2118011 1.2078325e-20)
(23.313108 0.93753152 -1.3928847e-18)
(24.19283 1.0377843 1.2901965e-18)
(25.156918 1.5968793 -1.1881403e-18)
(26.077495 2.4709608 0)
(26.778318 3.4151424 -3.3258593e-20)
(27.126164 4.2498771 -9.8328433e-19)
(27.091567 4.8021719 9.1854093e-19)
(26.754872 5.0216694 5.1320319e-20)
(26.103744 4.8937663 -7.9174401e-19)
(25.298855 4.3965147 -4.4531022e-20)
(24.534579 3.4873676 6.3220543e-19)
(23.981531 2.2342884 -7.5456904e-20)
(23.671827 0.95363853 -3.5122785e-20)
(23.640348 0.001463551 -5.5478928e-19)
(23.937155 -0.54972111 -6.1624461e-20)
(24.689493 -0.63591346 2.9498559e-20)
(25.422645 -0.10603962 3.9688157e-19)
(25.962696 0.67715565 -1.1056672e-24)
(26.330904 1.25733 0)
(26.596479 1.1975598 3.6778084e-19)
(26.818686 0.65410951 4.0092099e-23)
(27.085404 0.12419834 -3.8521443e-19)
(27.549877 -0.1792691 0)
(28.137103 -0.19665153 0)
(28.755869 -0.034203794 0)
(29.42021 0.028337524 -1.7449032e-19)
(30.099872 -0.081822074 1.0578591e-19)
(30.778473 -0.20274394 5.80109e-20)
(31.486092 -0.22249526 6.9384516e-25)
(32.195463 -0.23108076 2.4338499e-19)
(32.921571 -0.24964975 -1.4829928e-19)
(33.636649 -0.27215333 6.7702532e-20)
(34.359831 -0.27840536 -1.2401349e-19)
(35.055299 -0.28627827 2.2758279e-19)
(35.761905 -0.27116008 1.0465222e-19)
(36.404965 -0.28017706 -1.9281997e-19)
(37.114145 -0.26900099 5.4427991e-21)
(37.72302 -0.24473491 1.146171e-21)
(38.396905 -0.23766188 -3.8451456e-20)
(38.85587 -0.25363385 0)
(39.64558 -0.223733 0)
(39.972995 -0.22497013 -2.5015714e-19)
(40.931428 -0.16392428 0)
(3.6196011 -1.3206203 3.454232e-18)
(4.3625732 -1.0384686 -1.7670612e-18)
(5.2254395 -0.65389011 0)
(6.1913182 -0.10070705 0)
(7.3145087 0.49585787 -3.8521257e-18)
(8.5225308 1.124453 3.0075085e-21)
(9.7663469 1.7591407 6.64553e-18)
(10.99266 2.348912 -3.0799123e-18)
(12.129426 2.8325722 2.8449408e-18)
(13.137329 3.17125 -2.6261549e-18)
(13.988694 3.3264568 -9.4168901e-21)
(14.703059 3.2806707 8.6459399e-21)
(15.310871 3.0132397 7.9331598e-21)
(15.870073 2.5491967 2.1853538e-20)
(16.449394 1.9679005 1.7235038e-18)
(17.115396 1.3668674 -1.5877821e-18)
(17.936114 0.86507145 1.4624858e-18)
(18.942713 0.61683185 2.1017662e-22)
(20.08409 0.77436989 1.0278142e-20)
(21.325923 1.4047519 -1.2233549e-18)
(22.54903 2.3489098 1.1256315e-18)
(23.581268 3.3676532 1.6882762e-20)
(24.274669 4.2601413 -9.6448616e-19)
(24.568477 4.859157 -2.733849e-20)
(24.513327 5.0971918 -2.490195e-20)
(24.175643 4.9773053 2.3249439e-20)
(23.635639 4.4474449 -6.9292683e-19)
(23.120257 3.4859186 6.3937862e-19)
(22.776461 2.1891037 -5.5567031e-19)
(22.609958 0.87953349 3.4184805e-20)
(22.669291 -0.061894689 5.4280337e-19)
(23.082075 -0.64304665 -3.0416015e-20)
(23.882343 -0.71173355 2.9136226e-25)
(24.668445 -0.14645301 2.7847626e-20)
(25.327588 0.65679301 5.2832686e-20)
(25.864114 1.2295239 3.9280557e-19)
(26.301928 1.1553353 5.5005576e-23)
(26.650876 0.60736976 -6.5121282e-19)
(27.019166 0.077036201 7.4835843e-20)
(27.561609 -0.22667138 2.8096074e-19)
(28.195893 -0.23919796 -2.6492471e-19)
(28.874419 -0.075530479 5.5279825e-19)
(29.599936 -0.014791555 -2.8088306e-19)
(30.326065 -0.12358645 -5.1100272e-20)
(31.035524 -0.23987012 -6.4940285e-20)
(31.761247 -0.25698425 4.274241e-19)
(32.483693 -0.26303503 -3.9244326e-19)
(33.215459 -0.27892655 7.1834408e-20)
(33.931198 -0.29878731 -6.5693043e-20)
(34.648973 -0.30232175 0)
(35.338079 -0.307958 0)
(36.032964 -0.29065554 5.0946851e-20)
(36.668839 -0.29896965 4.6964834e-20)
(37.359285 -0.28512563 4.0698764e-21)
(37.956179 -0.25946295 -1.6686748e-21)
(38.615015 -0.25250204 -9.3822525e-20)
(39.062978 -0.26952819 3.4921538e-20)
(39.832972 -0.2377493 -1.6352516e-20)
(40.153817 -0.23937148 -3.8192841e-21)
(41.092237 -0.17373239 5.2881772e-23)
(0.90031755 -1.9018081 -4.8603641e-18)
(1.1953183 -1.6396057 9.1172055e-18)
(1.5433836 -1.3055569 0)
(1.9171455 -0.96003005 -3.2709109e-18)
(2.3833107 -0.51587898 0)
(2.9907715 0.009203829 0)
(3.7173665 0.59205468 -3.2482778e-21)
(4.5520509 1.205124 3.0494195e-21)
(5.4898326 1.803705 2.845451e-21)
(6.447642 2.3116555 0)
(7.3887501 2.682395 2.5064675e-18)
(8.2874167 2.8706269 5.3666076e-21)
(9.1388086 2.8435931 -4.2456907e-18)
(9.9511133 2.5817027 3.9089837e-18)
(10.7458 2.1160801 -9.9242435e-21)
(11.565022 1.529193 -3.3356082e-18)
(12.464091 0.9207466 1.546268e-18)
(13.502549 0.42527281 -5.6285508e-21)
(14.702527 0.21002889 -1.0524055e-20)
(16.040426 0.42427471 -4.9336135e-21)
(17.507645 1.1170169 0)
(18.999548 2.126361 0)
(20.349288 3.2199197 -1.6034729e-20)
(21.387632 4.1853856 -7.3992919e-21)
(22.029425 4.8335687 0)
(22.289762 5.1156079 0)
(22.254559 5.0035178 0)
(22.017541 4.4603507 0)
(21.765716 3.4542139 1.9635484e-20)
(21.636382 2.1262479 0)
(21.616342 0.80616783 0)
(21.786309 -0.14676441 0)
(22.330723 -0.74744046 -4.5067328e-19)
(23.15707 -0.79621362 -2.8727785e-20)
(24.000371 -0.20207245 -1.3753077e-20)
(24.781149 0.61573158 4.1377719e-19)
(25.484043 1.1821566 -3.8342194e-19)
(26.087192 1.099433 3.4913968e-19)
(26.561646 0.55263602 3.1729652e-19)
(27.032179 0.022977382 -5.8265423e-19)
(27.646097 -0.27930982 2.3796765e-19)
(28.32402 -0.28657988 0)
(29.052112 -0.12193529 -8.9067555e-20)
(29.827572 -0.061920714 -2.6920215e-20)
(30.589987 -0.1674937 -4.9464869e-20)
(31.322536 -0.27860218 0)
(32.060624 -0.29278883 0)
(32.79145 -0.29590213 7.6109614e-20)
(33.524863 -0.3087276 -3.4868058e-20)
(34.238284 -0.32567367 9.5802116e-20)
(34.948424 -0.32632822 -5.8648834e-20)
(35.629335 -0.32960133 0)
(36.311348 -0.31007162 -4.9704191e-20)
(36.938604 -0.31756468 6.0737158e-24)
(37.60955 -0.30090752 -2.4666328e-21)
(38.193876 -0.27407702 1.0679467e-21)
(38.836942 -0.26709047 5.157143e-24)
(39.27325 -0.28511909 -6.8280778e-20)
(40.022833 -0.25149236 -7.9934752e-21)
(40.336783 -0.25350313 -7.4717434e-21)
(41.254635 -0.18336165 0)
(-0.77446537 -2.2569619 3.2533224e-18)
(-0.6699946 -1.9774975 -7.6412055e-18)
(-0.5901434 -1.7001621 -1.0531067e-21)
(-0.51158358 -1.3999229 -5.2519099e-23)
(-0.41167148 -1.0641807 3.8100979e-18)
(-0.25174555 -0.66468728 0)
(-0.0017120394 -0.19844473 -3.3858609e-18)
(0.3624987 0.32075305 3.1707149e-18)
(0.84232212 0.86649574 2.9540507e-18)
(1.4718754 1.4040785 -5.5173607e-18)
(2.1757003 1.8787348 -7.2664186e-22)
(2.9324602 2.2270271 -5.4172775e-21)
(3.7347071 2.3999898 2.1974134e-18)
(4.5688581 2.3571733 -2.0398386e-18)
(5.4312266 2.0848268 1.8834658e-18)
(6.3106961 1.614387 -1.7449977e-18)
(7.2331901 1.0238828 3.2478333e-18)
(8.2480129 0.41369269 -3.028724e-18)
(9.392758 -0.072772299 1.4234158e-18)
(10.706568 -0.25845045 -1.326063e-18)
(12.184323 0.0010262119 2.4822406e-18)
(13.826367 0.74030521 -2.3300186e-18)
(15.546932 1.8043931 1.0825695e-18)
(17.187157 2.9697825 -3.9382314e-21)
(18.553668 4.0155601 -9.2326893e-19)
(19.53689 4.7326326 8.5554577e-19)
(20.12555 5.0649582 6.1490004e-21)
(20.409314 4.9662966 0)
(20.474935 4.4290018 0)
(20.504209 3.3906162 -6.1851179e-19)
(20.5908 2.0250258 -9.0034767e-21)
(20.723954 0.74159942 5.2998806e-19)
(21.042295 -0.2476087 7.8218859e-21)
(21.708376 -0.86133824 4.8181794e-19)
(22.549084 -0.88883969 -9.0242445e-19)
(23.446442 -0.2738123 8.4644309e-19)
(24.343275 0.55354711 -4.0532404e-19)
(25.203786 1.1153144 -3.7464746e-19)
(25.961249 1.0302958 3.4089373e-19)
(26.557199 0.48944328 9.6563546e-21)
(27.125237 -0.037436661 -1.4181281e-19)
(27.801944 -0.3365573 1.6451018e-20)
(28.518276 -0.338296 1.2378717e-19)
(29.285221 -0.17265846 2.8743532e-20)
(30.099489 -0.11242813 2.4662954e-20)
(30.888618 -0.21354168 1.1994388e-19)
(31.636936 -0.31857718 -5.667702e-20)
(32.381967 -0.32960527 -2.0089313e-20)
(33.116862 -0.32943617 7.3957185e-20)
(33.848323 -0.3388559 -1.6971833e-20)
(34.55666 -0.35265823 3.1113759e-20)
(35.257237 -0.35030815 -2.8593744e-20)
(35.928241 -0.35111659 5.2656562e-20)
(36.596314 -0.32933062 2.4290779e-20)
(37.213646 -0.33589563 -2.2418036e-20)
(37.864467 -0.31633563 1.7618859e-21)
(38.435667 -0.28852884 0)
(39.06231 -0.28139789 5.3869658e-20)
(39.486396 -0.30038775 1.671889e-20)
(40.214942 -0.26495461 0)
(40.5217 -0.26732055 -5.8564611e-20)
(41.418497 -0.1927999 0)
(-1.8724756 -2.1284802 5.5576995e-22)
(-1.969109 -1.8416181 -4.3029307e-18)
(-2.0711974 -1.5633649 4.0589126e-18)
(-2.1686492 -1.2778587 -3.8355767e-18)
(-2.2435278 -0.96848247 0)
(-2.2734103 -0.61691025 -3.4252318e-18)
(-2.2363355 -0.21434701 6.4550941e-18)
(-2.1015016 0.23081484 -3.0176142e-18)
(-1.8697278 0.69317799 6.8499919e-22)
(-1.5472289 1.147055 -1.2822411e-21)
(-1.0946762 1.5541378 2.4496197e-18)
(-0.5435674 1.8460769 -2.2817205e-18)
(0.099367734 1.9646604 -2.1206158e-18)
(0.82866521 1.8756703 3.942814e-18)
(1.6613665 1.5796122 -1.8314891e-18)
(2.5238119 1.0992008 0)
(3.4550115 0.50317405 0)
(4.5082842 -0.11767074 -1.4877698e-18)
(5.6852636 -0.60217145 2.7828216e-18)
(7.0579868 -0.77185116 -1.3074157e-18)
(8.6333206 -0.48492129 -2.3950495e-21)
(10.406241 0.28352017 0)
(12.307719 1.3886329 4.177717e-21)
(14.198607 2.6201284 -4.9197197e-19)
(15.861595 3.7509022 4.5734688e-19)
(17.162579 4.548073 -4.2449842e-19)
(18.073537 4.9419329 7.6885707e-19)
(18.672238 4.8870418 -3.5978599e-19)
(19.056976 4.3376559 0)
(19.365911 3.291668 3.0120439e-19)
(19.667823 1.9417763 -5.6028258e-19)
(19.984023 0.62875185 2.6934313e-19)
(20.480021 -0.36894749 -1.1612846e-20)
(21.236969 -0.98098168 -7.2777537e-21)
(22.091026 -0.98948531 -6.9160491e-21)
(23.032494 -0.3614674 -6.5899016e-21)
(24.031261 0.47085699 6.2049686e-21)
(25.033892 1.0300077 5.723128e-21)
(25.930498 0.94844889 -1.6100763e-19)
(26.639324 0.41871196 1.3190908e-19)
(27.29637 -0.10338494 1.3812701e-19)
(28.025247 -0.39771025 -2.4771295e-19)
(28.773557 -0.39369642 1.198582e-19)
(29.569099 -0.22690051 -6.9680597e-21)
(30.4115 -0.16546474 0)
(31.218698 -0.26107777 -2.3313881e-20)
(31.976071 -0.35944287 4.985599e-20)
(32.723027 -0.36713124 -6.8398814e-20)
(33.45807 -0.36339939 8.102682e-20)
(34.184374 -0.36912325 -8.2704431e-20)
(34.885087 -0.37959769 4.5545815e-20)
(35.574421 -0.37415324 -1.3974604e-19)
(36.233944 -0.37241936 5.1497735e-20)
(36.8871 -0.34836365 -2.3776599e-20)
(37.493335 -0.35390442 -2.0789785e-24)
(38.123525 -0.33140336 -2.2194573e-21)
(38.681087 -0.3027716 0)
(39.290738 -0.2953938 1.7602227e-20)
(39.702127 -0.31531046 5.7365788e-20)
(40.409082 -0.27812179 -3.0717333e-20)
(40.708387 -0.28082262 2.5130376e-20)
(41.583698 -0.20203989 -4.6068732e-23)
(-2.7768368 -1.7916874 4.3827293e-18)
(-3.006643 -1.5248738 -2.0612516e-18)
(-3.2361132 -1.272433 -2.377469e-22)
(-3.4585485 -1.0190925 1.8441741e-18)
(-3.6625209 -0.74968507 -1.7461571e-18)
(-3.8328993 -0.44948594 0)
(-3.9518259 -0.10874837 1.541886e-18)
(-3.9949345 0.24191897 -1.4505838e-18)
(-3.9431208 0.64094064 -6.7059561e-22)
(-3.7903094 1.0172772 0)
(-3.5201303 1.3447852 1.1982366e-18)
(-3.1479863 1.5648961 -1.1148142e-18)
(-2.6791434 1.6158201 0)
(-2.1201389 1.4667071 -9.6370248e-19)
(-1.4593329 1.1161906 8.989518e-19)
(-0.66415849 0.60793227 -8.4220685e-19)
(0.26759603 -0.023102291 7.871002e-19)
(1.3383963 -0.64862519 7.3295277e-19)
(2.5296049 -1.1345918 -1.3659255e-18)
(3.8878765 -1.3124176 6.4222841e-19)
(5.5049444 -1.0232285 6.0761783e-19)
(7.3632172 -0.24163832 -5.6553857e-19)
(9.3911042 0.88996846 5.2583229e-19)
(11.47706 2.1789945 2.5340851e-22)
(13.39113 3.3966771 -9.0171063e-19)
(14.975427 4.2811665 4.1841762e-19)
(16.19537 4.7472942 -1.4938435e-21)
(17.099391 4.7346914 2.7569206e-21)
(17.79535 4.2036525 0)
(18.382626 3.1609912 -2.9832235e-19)
(18.916208 1.8141761 2.8158043e-19)
(19.439569 0.50641536 -4.0895956e-21)
(20.110765 -0.49703918 -2.3948983e-19)
(20.945322 -1.106734 2.2592895e-19)
(21.81128 -1.0972885 6.7585466e-21)
(22.779561 -0.46337354 9.6751192e-21)
(23.857837 0.3694375 -6.0767247e-21)
(24.980865 0.92749426 -1.8429169e-19)
(25.99625 0.85655293 1.5739479e-19)
(26.808057 0.3405083 9.2138536e-21)
(27.541183 -0.17389772 4.2073128e-21)
(28.310722 -0.4619593 7.7677058e-21)
(29.083651 -0.45207086 0)
(29.89858 -0.283895 6.7682429e-21)
(30.759364 -0.22036285 0)
(31.576866 -0.30957942 0)
(32.33724 -0.40089475 9.8535429e-20)
(33.081578 -0.40506782 -6.6669532e-20)
(33.813238 -0.39755952 -8.7854029e-21)
(34.531535 -0.39934534 0)
(35.222345 -0.40635302 4.4536611e-20)
(35.898925 -0.39775551 -2.7359589e-20)
(36.545562 -0.39342548 0)
(37.182924 -0.36710267 0)
(37.77702 -0.37153586 1.0766314e-20)
(38.386171 -0.34608752 6.7555612e-22)
(38.929654 -0.31676503 2.4761935e-21)
(39.521836 -0.30904869 1.7278764e-20)
(39.920147 -0.3298641 -1.6086324e-20)
(40.605045 -0.29097797 7.540573e-21)
(40.896664 -0.29400278 2.64334e-20)
(41.750098 -0.21107115 -2.3943588e-22)
(-3.1325211 -1.5785111 -3.2098155e-22)
(-3.4804246 -1.3221363 2.12292e-18)
(-3.8097818 -1.0947146 -2.4424324e-22)
(-4.1334195 -0.88025288 1.8944717e-18)
(-4.4490268 -0.6659361 3.8835962e-23)
(-4.7503636 -0.43979027 5.7188228e-23)
(-5.0270984 -0.1920438 -1.6114641e-18)
(-5.2638562 0.081143219 0)
(-5.4468739 0.37815239 -1.4286633e-18)
(-5.5521182 0.68990852 1.3251421e-18)
(-5.5660796 0.96793973 1.5228904e-22)
(-5.4727267 1.2191223 -1.1818907e-18)
(-5.2721918 1.3604601 -5.6039826e-22)
(-4.9518972 1.3377334 2.0574026e-18)
(-4.4979649 1.1277857 -9.5736682e-19)
(-3.9378784 0.72021793 0)
(-3.2275651 0.14691926 8.3689657e-19)
(-2.3378877 -0.5298167 2.7501754e-22)
(-1.3024513 -1.1789052 -7.2987339e-19)
(-0.030310598 -1.6743327 -6.6514891e-22)
(1.3660834 -1.8525259 -3.1087589e-22)
(2.9502567 -1.5849281 5.9243511e-19)
(4.7968079 -0.8192796 -5.5682833e-19)
(6.8902403 0.32478355 1.0148295e-21)
(9.1024145 1.6590505 0)
(11.211682 2.9615207 4.4591365e-19)
(13.036189 3.9360873 -8.2048642e-19)
(14.538695 4.481494 3.7985955e-19)
(15.738445 4.5225912 3.4912935e-19)
(16.727877 4.0206439 -3.2393031e-19)
(17.591962 2.9941242 0)
(18.371751 1.6608207 2.7873387e-19)
(19.113432 0.36365236 -2.5806898e-19)
(19.947258 -0.638505 -2.3907064e-19)
(20.846226 -1.2357995 2.2589283e-19)
(21.720142 -1.2094413 2.1270353e-19)
(22.697683 -0.57621875 -3.1192043e-21)
(23.829081 0.25193618 -1.9020139e-19)
(25.045285 0.81215381 0)
(26.159527 0.75419744 1.2455582e-21)
(27.058411 0.25658057 0)
(27.853489 -0.24779972 -4.1057515e-21)
(28.652256 -0.52845301 -6.0521108e-20)
(29.441995 -0.51269588 5.6443352e-20)
(30.268275 -0.34292221 0)
(31.138787 -0.27639951 0)
(31.959711 -0.35847488 4.4288404e-20)
(32.717687 -0.44274867 -5.0645014e-21)
(33.45543 -0.44312765 -3.720532e-20)
(34.180538 -0.43169562 -3.2199686e-20)
(34.888307 -0.42934882 3.1617765e-20)
(35.567204 -0.43279083 -2.544106e-20)
(36.229662 -0.42101271 6.9034226e-24)
(36.862188 -0.41405477 2.4738057e-20)
(37.482985 -0.38548261 0)
(38.064032 -0.38873859 -1.0572131e-20)
(38.651843 -0.36037152 -2.0074039e-21)
(39.180866 -0.33049372 -4.5671549e-22)
(39.755212 -0.32233528 8.4887736e-21)
(40.140155 -0.34402819 -3.9528125e-21)
(40.80263 -0.3035076 1.4816741e-20)
(41.086358 -0.30685057 0)
(41.917602 -0.21988469 3.5886584e-22)
(-3.5558284 -0.95092297 1.1059711e-18)
(-3.9778149 -0.75687429 1.0396265e-18)
(-4.379654 -0.58146669 -9.8196516e-19)
(-4.7712464 -0.41263329 9.3094318e-19)
(-5.1542213 -0.24101861 -1.7675371e-18)
(-5.5264273 -0.058564064 8.3849172e-19)
(-5.8815061 0.14032795 7.9428085e-19)
(-6.2085043 0.35648414 -7.5067621e-19)
(-6.4933262 0.58423965 0)
(-6.7155926 0.81727822 0)
(-6.8554395 1.0267344 -2.246449e-22)
(-6.8983544 1.1820076 0)
(-6.8388283 1.2462743 2.6750843e-22)
(-6.6583295 1.1360797 5.1219549e-19)
(-6.3218101 0.84637609 3.8830191e-22)
(-5.834453 0.36669769 -4.4613777e-19)
(-5.1691945 -0.27646514 -4.1645938e-19)
(-4.3124188 -1.0060619 3.8928567e-19)
(-3.2778973 -1.705796 0)
(-2.0258621 -2.2320554 0)
(-0.6282169 -2.4232541 1.5471959e-22)
(1.0287324 -2.1532826 -5.7420408e-22)
(2.8244968 -1.4159701 -2.7340697e-19)
(4.8773923 -0.28858477 5.1245647e-19)
(7.1403657 1.0773768 1.208801e-22)
(9.3842189 2.4567755 -2.208505e-19)
(11.39898 3.5197904 -2.0419452e-19)
(13.147981 4.148055 3.7578641e-19)
(14.620356 4.252134 7.4500728e-22)
(15.89028 3.7888575 -3.220408e-19)
(17.028114 2.7901406 1.491859e-19)
(18.059263 1.4807953 -1.3790186e-19)
(19.013786 0.19994296 1.2711547e-19)
(19.986458 -0.79211086 1.1753616e-19)
(20.936978 -1.3695567 -1.1062653e-19)
(21.814278 -1.3271576 1.0296832e-19)
(22.785425 -0.6983656 -1.9776491e-19)
(23.942994 0.12248064 9.3024225e-20)
(25.225263 0.68429381 8.5391661e-20)
(26.416356 0.64446859 -1.5744182e-19)
(27.383692 0.16837617 7.0541904e-20)
(28.226216 -0.32386164 6.4197724e-20)
(29.043334 -0.59635502 8.7295392e-24)
(29.842135 -0.57486092 -5.4929376e-20)
(30.672772 -0.40326259 0)
(31.545565 -0.33294282 -3.7895891e-20)
(32.363864 -0.40730684 8.6558372e-20)
(33.114783 -0.48446816 -2.0418589e-20)
(33.842438 -0.48103939 -1.8200494e-20)
(34.55815 -0.46560019 -1.5764905e-21)
(35.253177 -0.4589741 9.6812273e-22)
(35.918404 -0.45878646 -1.7822827e-20)
(36.565525 -0.44382984 3.3824216e-24)
(37.182888 -0.4342332 1.2147378e-20)
(37.786468 -0.40344304 0)
(38.353687 -0.40546602 -9.0930332e-21)
(38.919958 -0.37423497 2.3444775e-21)
(39.434182 -0.34400267 -4.7078513e-22)
(39.990465 -0.33522994 1.043734e-21)
(40.361844 -0.3577839 4.8603804e-21)
(41.001635 -0.3156963 0)
(41.277295 -0.31935608 8.5177757e-22)
(42.08612 -0.22847267 -2.7503653e-23)
(-3.8090996 -0.24669332 -2.7301116e-19)
(-4.2715355 -0.12949367 -2.3940129e-28)
(-4.7144221 -0.014529824 -2.4309544e-19)
(-5.1460407 0.10431092 6.9209688e-19)
(-5.5701255 0.23189302 -1.869036e-23)
(-5.9871795 0.37171783 -4.162395e-19)
(-6.3935649 0.52489352 1.9736121e-19)
(-6.7810984 0.68858358 -1.8666638e-19)
(-7.1364526 0.85502997 0)
(-7.4394878 1.0130832 1.6583448e-19)
(-7.6728295 1.1442339 -3.0900739e-19)
(-7.8102069 1.2233975 2.8544038e-19)
(-7.8538204 1.2059995 -1.3475703e-19)
(-7.7661605 1.0051075 -1.2792369e-19)
(-7.5037082 0.62163885 -3.6434567e-23)
(-7.0656543 0.054397625 -1.4710982e-22)
(-6.4240783 -0.67193953 1.0372872e-19)
(-5.5761215 -1.4699173 -9.4249595e-23)
(-4.5379164 -2.2203456 0)
(-3.3052855 -2.7780148 -6.2539141e-28)
(-1.9105753 -2.9907905 1.5722104e-19)
(-0.32902926 -2.7540625 -1.4639422e-19)
(1.4927742 -2.0101935 1.3564296e-19)
(3.4434485 -0.91491027 -1.8928043e-19)
(5.6441141 0.45296516 -2.9680269e-23)
(7.9617104 1.8957565 5.4673599e-20)
(10.112155 3.041971 -1.9748658e-22)
(12.064313 3.7530453 -4.6896582e-20)
(13.780613 3.9262827 8.6491731e-20)
(15.313827 3.510398 1.05513e-23)
(16.715546 2.5494337 -3.7032083e-20)
(17.988181 1.2727241 3.4000067e-20)
(19.134383 0.018930866 -3.1299513e-20)
(20.219249 -0.95211522 -2.8844436e-20)
(21.20645 -1.5038699 2.6998284e-20)
(22.082095 -1.4465028 2.5309e-20)
(23.032687 -0.8257107 -2.4129562e-20)
(24.192359 -0.016401901 2.7124988e-27)
(25.513941 0.54798124 3.2818295e-22)
(26.758807 0.52963396 -2.2811646e-27)
(27.776 0.077513721 4.1212906e-27)
(28.651953 -0.40085593 1.5707341e-20)
(29.477529 -0.66474778 -2.8850985e-20)
(30.277902 -0.63786925 2.678203e-20)
(31.106805 -0.46425127 -2.5066266e-20)
(31.97559 -0.38943507 8.7232498e-21)
(32.786032 -0.45568014 1.0590671e-20)
(33.525836 -0.52575022 6.0536388e-22)
(34.240507 -0.5185554 -1.0187568e-24)
(34.944253 -0.49907993 -8.7601163e-21)
(35.624619 -0.48807577 -9.5000563e-22)
(36.274663 -0.48422597 -7.0006079e-21)
(36.905394 -0.46611945 6.4661949e-21)
(37.50671 -0.45389341 0)
(38.09254 -0.42092897 0)
(38.645285 -0.42167663 -1.2784168e-21)
(39.18993 -0.3876696 -2.7031182e-22)
(39.689118 -0.35723941 2.0084778e-22)
(40.227191 -0.34771248 -1.0275737e-21)
(40.5849 -0.37111375 -1.914273e-21)
(41.201861 -0.32753128 -2.9428289e-25)
(41.469303 -0.33151044 8.3829051e-22)
(42.255562 -0.23682829 0)
(-3.8811365 0.48594313 -5.4425248e-19)
(-4.3533089 0.52481786 2.3821493e-28)
(-4.8066466 0.57964389 -2.420059e-19)
(-5.2497655 0.6488539 4.5948642e-19)
(-5.6877371 0.73366714 -2.3287835e-23)
(-6.1224703 0.83340105 5.5431367e-23)
(-6.5518719 0.94478172 6.4579826e-24)
(-6.9695958 1.0611071 -1.8606617e-19)
(-7.3636804 1.171625 0)
(-7.7150739 1.2624359 1.6548744e-19)
(-8.0046658 1.3178936 -3.1003213e-19)
(-8.1994436 1.3271016 2.8635492e-19)
(-8.2976323 1.2292725 -1.3467455e-19)
(-8.2602229 0.9055993 -1.2807047e-19)
(-8.0344216 0.42797465 -3.429836e-23)
(-7.6114192 -0.22672814 -1.4657849e-22)
(-6.9543149 -1.0374919 2.074852e-19)
(-6.0826288 -1.9014519 -9.6219654e-20)
(-5.0303216 -2.706896 0)
(-3.8185189 -3.3036009 8.061847e-23)
(-2.4807733 -3.5459828 -1.5145009e-22)
(-0.97287322 -3.3346295 7.2531683e-20)
(0.73728908 -2.6248006 3.1640514e-23)
(2.6354778 -1.5233984 -1.2497459e-19)
(4.6738955 -0.18901056 -2.9156503e-23)
(6.9886213 1.2938884 5.431461e-20)
(9.2176012 2.5143904 0)
(11.323743 3.3045663 -4.6548859e-20)
(13.249528 3.5497842 8.6212626e-20)
(15.020487 3.1887568 9.6119819e-24)
(16.663848 2.2720225 -7.3136836e-20)
(18.14889 1.0442769 -4.700571e-24)
(19.458155 -0.1746364 -4.6331165e-24)
(20.626786 -1.1153147 2.1622097e-22)
(21.634351 -1.6378666 -5.1257009e-24)
(22.501853 -1.5665211 4.937026e-20)
(23.421626 -0.9558914 3.7283532e-22)
(24.563305 -0.16077546 -2.1895613e-20)
(25.899075 0.40630564 0)
(27.177342 0.41196168 2.2370898e-27)
(28.226998 -0.01439074 -1.6966711e-20)
(29.123283 -0.47762027 3.0792161e-20)
(29.948572 -0.73275458 -2.7803202e-20)
(30.743493 -0.7010528 1.3081205e-20)
(31.565371 -0.52532024 2.9220254e-27)
(32.424853 -0.4453858 0)
(33.223008 -0.50320548 1.103101e-20)
(33.948201 -0.5663597 -9.5068291e-21)
(34.647548 -0.55544924 5.4703953e-22)
(35.337034 -0.53195679 -8.0934548e-21)
(36.001099 -0.51652298 7.4677144e-21)
(36.634682 -0.5090067 -6.8823571e-21)
(37.248137 -0.48780231 6.3605894e-21)
(37.83269 -0.472975 0)
(38.400363 -0.43789111 6.8030934e-22)
(38.93812 -0.43733393 -1.2591595e-21)
(39.461157 -0.40065824 3.0889014e-22)
(39.945158 -0.37018883 6.8076678e-26)
(40.464983 -0.3597662 -3.0372618e-21)
(40.809007 -0.38400247 -9.4331301e-22)
(41.403104 -0.33900154 1.7663713e-21)
(41.66221 -0.34330554 8.2577338e-22)
(42.425838 -0.24494525 0)
(-3.7703872 1.2056978 0)
(-4.2230954 1.1658452 0)
(-4.6581666 1.1566869 -9.7147848e-19)
(-5.0857974 1.1769994 9.2199461e-19)
(-5.5112035 1.221556 2.6745031e-23)
(-5.9363836 1.2848685 -5.080997e-23)
(-6.3600204 1.3595568 -1.9273767e-22)
(-6.7769244 1.4351947 0)
(-7.1762584 1.497523 7.0545191e-19)
(-7.5401566 1.5282289 -1.1783135e-22)
(-7.8570598 1.5007303 -6.1456457e-19)
(-8.061946 1.4277774 2.0776125e-22)
(-8.1775939 1.2616253 -2.6411439e-22)
(-8.1473758 0.86625215 2.5130178e-22)
(-7.9267793 0.29096486 0)
(-7.4924836 -0.48653067 1.0972007e-22)
(-6.8075128 -1.393298 5.0985319e-22)
(-5.9063907 -2.3252567 -4.7309628e-22)
(-4.8393106 -3.1646778 0)
(-3.633073 -3.7845786 3.2985381e-19)
(-2.343104 -4.0577983 -3.0766298e-19)
(-0.92177536 -3.8868711 -5.6128154e-22)
(0.63572026 -3.2143332 -2.6774586e-19)