/*--------------------------------*- C++ -*----------------------------------*\
| =========                 |                                                 |
| \\      /  F ield         | OpenFOAM: The Open Source CFD Toolbox           |
|  \\    /   O peration     | Version:  2406                                  |
|   \\  /    A nd           | Website:  www.openfoam.com                      |
|    \\/     M anipulation  |                                                 |
\*---------------------------------------------------------------------------*/
FoamFile
{
    version     2.0;
    format      ascii;
    arch        "LSB;label=32;scalar=64";
    class       volScalarField;
    location    "0.094";
    object      k;
}
// * * * * * * * * * * * * * * * * * * * * * * * * * * * * * * * * * * * * * //

dimensions      [0 2 -2 0 0 0 0];

internalField   nonuniform List<scalar> 
8260
(
647.23057
626.11322
597.18701
561.66
520.40043
474.22605
424.29061
372.04425
319.10124
266.93389
216.85563
169.9784
127.1376
88.969316
55.883678
28.679782
10.429153
3.2626658
1.6076116
1.1094792
0.8627495
0.69989489
0.60323063
0.54267445
0.50007275
0.46977925
0.4456889
0.42953554
0.41840399
0.41150288
0.4078966
631.69605
607.93042
577.70565
542.03573
501.47177
456.63508
408.46599
358.19747
307.27466
257.07352
208.765
163.42283
121.87971
84.806969
52.625273
26.372835
9.1347031
2.9459031
1.5261875
1.0791188
0.84881417
0.69216795
0.59888001
0.54038081
0.49860095
0.46886529
0.44513467
0.42919681
0.41820054
0.41137546
0.40782062
608.82839
583.97644
553.69728
518.68978
479.39165
436.33481
390.31127
342.37976
293.80011
245.82028
199.5342
155.95479
115.90536
80.093256
48.971302
23.801309
7.9247603
2.6766973
1.4770759
1.0630773
0.84140287
0.68811139
0.59658144
0.53918146
0.49780284
0.46836239
0.44482554
0.42898433
0.418051
0.41126296
0.40773544
577.73394
552.97011
523.69205
490.29582
453.075
412.47156
369.15959
324.05162
278.24279
232.85384
188.91411
147.3806
109.06629
74.716103
44.84376
20.954651
6.7361945
2.4291141
1.4217046
1.0375636
0.82874511
0.68097725
0.59247116
0.53698445
0.49632421
0.46741847
0.44424161
0.42861293
0.41781875
0.41110943
0.40763198
538.82934
515.23645
487.75028
456.70884
422.26556
384.75072
344.7162
302.93348
260.34608
217.95444
176.71853
137.54502
101.23785
68.57912
40.176999
17.839937
5.594955
2.198481
1.367341
1.0145959
0.81753487
0.67477276
0.58898604
0.53511691
0.49507648
0.46661896
0.44374398
0.42828888
0.41760179
0.41095335
0.40751428
492.63566
471.06676
446.07357
418.00922
386.92859
353.05499
316.8148
278.83704
239.91747
200.93671
162.77917
126.30091
92.299733
61.591145
34.919269
14.515682
4.5931361
1.9884031
1.3102586
0.98650389
0.80317016
0.66655275
0.5842709
0.53253066
0.49333103
0.46549393
0.44303679
0.42784126
0.4173173
0.41075955
0.40737897
439.97052
421.06639
399.13252
374.53739
347.27376
317.47593
285.45215
251.69193
216.84512
181.66783
146.95883
113.51863
82.144179
53.674195
29.049626
11.12169
3.70327
1.8027415
1.2526571
0.95837958
0.78890791
0.65845704
0.57972535
0.5300051
0.49163045
0.46439239
0.44233611
0.42739738
0.41702614
0.41055103
0.40722486
382.23623
366.35942
347.8278
327.00074
303.83051
278.37995
250.85279
221.60765
191.15175
160.11105
129.1857
99.112218
70.698315
44.785803
22.622974
7.9060299
2.952381
1.6547714
1.1928361
0.92643909
0.77221633
0.64872011
0.57416713
0.52684538
0.4894705
0.46299444
0.44143698
0.4268346
0.41666815
0.41030116
0.40704873
321.28529
308.51591
293.46779
276.47484
257.46227
236.43579
213.50964
188.92316
163.04721
136.37527
109.49767
83.077524
57.958691
34.96517
15.884006
5.4551718
2.3752252
1.5239545
1.131182
0.89386683
0.75508772
0.63878721
0.56857753
0.52361408
0.48722082
0.46153317
0.44049143
0.426244
0.41628586
0.41002494
0.40684762
259.14072
249.33538
237.63072
224.32654
209.33219
192.61108
174.20224
154.23995
132.97146
110.76445
88.096332
65.548746
44.042971
24.444901
9.5031318
3.6847898
1.9615434
1.4068916
1.0676371
0.85891983
0.73571949
0.62742904
0.5620831
0.51977583
0.48447096
0.45974899
0.43933652
0.42552359
0.41582771
0.40969861
0.40661751
197.94537
190.77034
182.12526
172.2015
160.90684
148.18142
134.00913
118.44144
101.62585
83.825309
65.415771
46.888558
29.342114
13.880282
5.3817865
2.5806117
1.71607
1.2959123
1.0032591
0.824338
0.71561449
0.61588461
0.5554595
0.51577942
0.48153681
0.45780606
0.43809713
0.42474675
0.41532759
0.40933303
0.40635397
139.77373
134.78885
128.7673
121.78763
113.75164
104.57654
94.207056
82.642349
69.970989
56.395941
42.229049
27.832263
14.850709
6.6702254
3.1403089
1.9731972
1.5228105
1.1790621
0.94230558
0.78866479
0.69282967
0.60355387
0.54792301
0.51108693
0.47810275
0.4554743
0.43663117
0.423818
0.4147383
0.40890597
0.40601143
86.653238
83.504371
79.622946
75.041034
69.674388
63.44106
56.280038
48.195503
39.290531
29.803036
20.28257
12.345082
6.5158712
3.3451586
2.1097551
1.6784096
1.3373867
1.0830725
0.87845341
0.75431877
0.67087803
0.59082369
0.54014111
0.50606541
0.47448704
0.45290827
0.43504743
0.4228066
0.4140908
0.40842828
0.40559592
41.153329
39.285294
37.064117
34.543457
31.659513
28.347957
24.604249
20.522273
16.230775
11.916041
7.9780599
4.9735493
3.0584515
2.0890483
1.6626173
1.4130296
1.193497
0.97462415
0.82245496
0.7187953
0.64684145
0.57887102
0.5310981
0.50000484
0.47038938
0.44995611
0.4331966
0.42162758
0.41333799
0.40788031
0.40512437
14.812505
14.112506
13.296143
12.373922
11.286476
10.028968
8.6939531
7.3017045
5.8814833
4.4965655
3.300029
2.421708
1.876439
1.5950775
1.410668
1.232194
1.0404798
0.90053752
0.76763289
0.68740719
0.62504495
0.56559416
0.52212192
0.49373732
0.46588305
0.44678494
0.43117449
0.42035815
0.41251348
0.40727685
0.40461114
5.0244804
4.8556617
4.6269061
4.3579606
4.0420323
3.6807888
3.2901072
2.8864694
2.4686065
2.0780996
1.7728619
1.5620988
1.4241715
1.3380133
1.1426171
1.0202639
0.93465131
0.81898248
0.72357304
0.65681521
0.60114466
0.55347525
0.5119245
0.48603533
0.46092089
0.44321327
0.42887322
0.41888922
0.41158003
0.40660342
0.40407316
2.0206361
1.9890129
1.9351094
1.8642349
1.7815617
1.6886293
1.5880932
1.4839942
1.3790602
1.2957705
1.2555901
1.2003945
1.1717253
1.0759874
0.98325111
0.90610013
0.81905675
0.76749117
0.68119191
0.62817827
0.57987904
0.53890361
0.50185978
0.47789878
0.4555924
0.43927832
0.42650649
0.41732685
0.41056202
0.40587664
0.40350099
1.1389567
1.1293551
1.1147477
1.0966688
1.0762141
1.0590527
1.0425089
1.0187132
0.99856906
0.97429208
0.98357371
0.96597217
0.89714556
0.90194294
0.86806502
0.78241042
0.73206708
0.68463122
0.63218419
0.58923992
0.55422935
0.52514807
0.48989923
0.46875393
0.44963906
0.4348401
0.42395514
0.415561
0.40942433
0.40508097
0.40283355
0.85319335
0.84784056
0.84353339
0.83915567
0.83352143
0.82346406
0.81170873
0.79995499
0.7903246
0.79145915
0.76131083
0.73862193
0.73586001
0.70637837
0.72579198
0.71314814
0.65001578
0.6160917
0.57768422
0.55128215
0.52493708
0.50623501
0.47793853
0.45910855
0.44331061
0.43025635
0.42132919
0.41384369
0.40816635
0.40422465
0.40216424
0.68777273
0.6865988
0.68489759
0.68260319
0.68244162
0.6849722
0.68743568
0.68627721
0.67833946
0.65454461
0.63742488
0.6231762
0.61656573
0.60136708
0.58895563
0.58620082
0.58856326
0.56250263
0.53443681
0.51265504
0.49448211
0.48574877
0.46314942
0.44763499
0.43719665
0.42560202
0.41834482
0.41195564
0.40683705
0.40329017
0.40137
0.59707687
0.59728498
0.59653684
0.5941078
0.58947093
0.58202927
0.57567909
0.57165755
0.56816053
0.56452289
0.56432158
0.56129764
0.54272797
0.5451617
0.52814863
0.51751098
0.51077918
0.51154128
0.50741191
0.49243353
0.47220764
0.45760205
0.44909911
0.436881
0.43115504
0.42110152
0.41544651
0.41000294
0.40550568
0.4022997
0.4005891
0.51718643
0.5174459
0.51727331
0.51665845
0.51599671
0.51644295
0.51838353
0.51911908
0.51773126
0.51404272
0.50771402
0.50538881
0.50595224
0.49397524
0.49468443
0.48460451
0.47621845
0.46897846
0.46907873
0.46782422
0.45698756
0.4425494
0.43776892
0.42686162
0.42426988
0.41763458
0.41224566
0.40792508
0.40412061
0.4012613
0.3996948
0.47755992
0.47817942
0.47824081
0.47781992
0.47684692
0.47500797
0.47196741
0.46888246
0.46763533
0.46678235
0.46560605
0.4638199
0.4637575
0.46578713
0.46051946
0.46026269
0.45791834
0.4499484
0.44525313
0.44355546
0.44504468
0.43455843
0.42844981
0.42158065
0.41845542
0.41407211
0.40981126
0.40578705
0.40270999
0.4002169
0.39887982
0.4420092
0.44227878
0.44220468
0.44188172
0.44146979
0.44111128
0.4411912
0.44233413
0.44313915
0.4433986
0.44332008
0.44247061
0.43954021
0.43615981
0.43707631
0.4356876
0.43648829
0.43790706
0.43386309
0.43038794
0.42574854
0.42787856
0.42348848
0.41730613
0.41325732
0.41084074
0.40696132
0.40401483
0.40139122
0.39917849
0.39800036
0.42465473
0.42488874
0.42478034
0.42440837
0.42393788
0.42348569
0.42295664
0.42217727
0.42179619
0.42159225
0.42146125
0.42121466
0.42100457
0.42143295
0.42150978
0.42274993
0.42050889
0.42087258
0.42237507
0.42060332
0.41491542
0.4159389
0.4180874
0.41411795
0.409177
0.40727529
0.40538283
0.40245795
0.40003113
0.39824832
0.397233
0.41071257
0.41087847
0.41091454
0.41089833
0.41090321
0.41092538
0.41093664
0.41092797
0.41092614
0.41096713
0.411109
0.41148924
0.41197452
0.41186511
0.41181363
0.41147403
0.41142338
0.41154337
0.41022761
0.41031675
0.40923768
0.40921208
0.40930304
0.41014754
0.40692449
0.40532929
0.40300403
0.40081305
0.39902383
0.39743755
0.39650521
0.40470056
0.40484772
0.40489142
0.40487843
0.40485311
0.40481532
0.40479338
0.40482584
0.40493867
0.40511819
0.40525572
0.40545577
0.40568636
0.40592886
0.40651523
0.40694038
0.40688969
0.40675566
0.40589949
0.40594694
0.40692473
0.40614168
0.40497251
0.40543316
0.40478187
0.40283164
0.40135553
0.39974832
0.39798316
0.39672978
0.39605809
0.39924067
0.3993141
0.39935372
0.39938566
0.39943687
0.39953434
0.3996761
0.39986325
0.40011335
0.40045882
0.4009569
0.40145573
0.40186018
0.40211311
0.40177622
0.40172145
0.40221303
0.40252688
0.40284407
0.4033991
0.40284892
0.40364405
0.40246154
0.40159318
0.40133934
0.40066026
0.39947555
0.39836655
0.39725182
0.39635051
0.39582122
0.39741009
0.3974606
0.39749596
0.39753092
0.39757609
0.39763267
0.39769922
0.39777441
0.3978659
0.39799604
0.39818367
0.39842415
0.39871009
0.39892221
0.39903576
0.39916542
0.3992687
0.39934976
0.39953
0.39972473
0.39963074
0.39977404
0.39963696
0.39949936
0.39934153
0.39904737
0.39845862
0.39770188
0.39689501
0.39618621
0.3957071
0.39664571
0.39668091
0.39671096
0.39674559
0.39679048
0.39684606
0.39691296
0.39699059
0.39706898
0.39716785
0.39730201
0.39749955
0.39775495
0.39791333
0.39797734
0.39801421
0.39806207
0.39813292
0.39821121
0.39841991
0.39842785
0.39853368
0.39851214
0.39847974
0.39850334
0.39828224
0.39795283
0.3974388
0.3967958
0.3963161
0.39614943
0.39662177
0.39662912
0.39663814
0.39665048
0.39667013
0.39669781
0.39673427
0.39678125
0.3968419
0.3969214
0.39702991
0.3972065
0.39743714
0.3975381
0.39756094
0.397584
0.3976526
0.39772002
0.39775973
0.39798741
0.39788285
0.39811824
0.39812525
0.39808141
0.39817908
0.39800601
0.39781129
0.3974938
0.39729491
0.39710157
0.39695066
78.085035
142.16934
223.81856
300.89856
360.04051
396.5856
410.512
405.4173
385.91553
350.38241
307.32375
260.2372
212.16627
165.62392
122.46755
83.930167
50.847186
24.901866
9.2310098
3.0117429
1.3287372
0.88178632
0.70171276
0.59589694
0.53179405
0.48709883
0.45733216
0.43718026
0.42357633
0.41513466
0.4108126
168.02416
254.59476
324.13812
374.28194
406.3828
420.64622
418.97944
405.95489
376.809
338.11476
294.05548
247.37263
200.55317
155.66646
114.27473
77.433627
45.913497
21.658536
7.6337098
2.5376074
1.219618
0.84954327
0.68790611
0.58886709
0.52819384
0.48514297
0.4562182
0.43655984
0.42323484
0.41495539
0.41072785
248.46354
313.78992
366.53278
404.49045
425.65294
430.64888
422.16587
400.29106
366.82292
326.39673
281.89882
235.75011
190.09601
146.69497
106.88015
71.566864
41.506714
18.907753
6.4859892
2.2467945
1.1506853
0.83519634
0.68142622
0.58550687
0.52647281
0.48420535
0.45566139
0.43622424
0.4230121
0.41480833
0.41062167
317.17868
369.79204
408.67251
432.38622
440.91947
436.75149
421.53458
393.23469
356.96002
315.32375
270.66734
225.13529
180.59114
138.5494
100.16153
66.236172
37.537525
16.53815
5.547105
1.9882587
1.1017735
0.81607974
0.67144788
0.58017836
0.52368042
0.48268212
0.45474838
0.43569685
0.42270857
0.4146375
0.41050773
368.9128
409.07066
436.03862
449.36855
450.00792
439.69664
417.15
385.45909
347.29226
304.85537
260.25478
215.39777
171.91421
131.12421
94.03477
61.371517
33.947627
14.458527
4.764341
1.8086859
1.0587804
0.80291262
0.66489181
0.57671226
0.52187077
0.48169241
0.4541379
0.43533214
0.42247296
0.41448461
0.41040808
409.46548
439.75617
457.07462
461.72336
456.22899
439.2319
412.04329
377.66894
338.02279
295.05648
250.64736
206.48286
163.99757
124.35418
88.442453
56.915801
30.699587
12.622122
4.1153846
1.6484103
1.0258118
0.78885361
0.65703965
0.57241968
0.51957612
0.48043167
0.45335476
0.43487064
0.42219557
0.41431881
0.41030437
441.34045
463.11245
472.39927
470.7757
458.99906
436.74183
406.4615
370.04202
329.2875
285.9954
241.85301
198.36269
156.79845
118.19398
83.341593
52.841337
27.763449
11.018586
3.5866227
1.533497
0.99732546
0.77754379
0.65099759
0.56915613
0.5178265
0.47947536
0.45274075
0.43450226
0.42195744
0.41416309
0.41019276
466.48053
481.10605
483.91403
477.48052
459.90628
433.83879
400.93257
362.83709
321.2245
277.7319
233.8805
191.01769
150.28509
112.60881
78.698676
49.125798
25.109112
9.6334959
3.1619348
1.4396678
0.9740695
0.76647898
0.64463829
0.56561924
0.5158861
0.47841248
0.45205115
0.43408911
0.42169946
0.41400059
0.41007629
486.7195
495.30027
493.21562
481.56262
459.84438
430.73802
395.6827
356.2271
313.93351
270.30725
226.7332
184.43053
144.43152
107.57151
74.497393
45.746841
22.737646
8.4520518
2.8269899
1.3704119
0.95378178
0.75697171
0.6393465
0.5627007
0.51426477
0.4775349
0.45146181
0.43373162
0.42146517
0.41384388
0.40995781
503.62759
507.08812
500.89037
484.33494
459.41684
427.81175
390.95583
350.35625
307.48788
263.74806
220.40939
178.58458
139.21532
103.05956
70.724294
42.695693
20.613133
7.4552787
2.5639597
1.3146009
0.93649535
0.74803314
0.63415368
0.5597705
0.51259576
0.47663366
0.45084768
0.43335703
0.421223
0.41368399
0.40983766
518.29391
517.46396
507.07113
486.72918
459.12551
425.34998
386.93016
345.32688
301.93749
258.06954
214.9036
173.46384
134.61633
99.053433
67.355741
39.955861
18.723934
6.6244889
2.3532511
1.2705719
0.92139569
0.74015527
0.62967403
0.55725546
0.51113
0.47585517
0.45029923
0.43301794
0.42099612
0.41352776
0.40971647
531.09831
526.78047
512.40396
489.18563
459.23237
423.5312
383.73072
341.21041
297.31571
253.27933
210.20818
169.05305
130.61589
95.545153
64.372105
37.514698
17.06116
5.9409076
2.1899052
1.235055
0.90837766
0.73291772
0.62545801
0.55485041
0.50968653
0.47509288
0.44975319
0.43267623
0.42076779
0.41337044
0.40959426
542.88979
535.31916
517.67832
491.96638
459.79282
422.48837
381.44613
338.0582
293.64598
249.38094
206.31451
165.33724
127.20159
92.508072
61.750667
35.3602
15.610771
5.3850528
2.0634238
1.206487
0.8971115
0.72650779
0.62177182
0.55275718
0.50838884
0.47441863
0.44925624
0.4323591
0.42055022
0.41321574
0.40947118
554.05423
543.43622
523.1784
495.24863
461.02915
422.35844
380.13565
335.90484
290.947
246.38553
203.22248
162.31976
124.35859
89.91668
59.473785
33.471075
14.358537
4.9394399
1.9698699
1.1832678
0.88752209
0.72074094
0.61840115
0.55082802
0.50714966
0.47377748
0.44877687
0.43204681
0.42033462
0.41306115
0.40934727
565.25541
551.72607
529.1947
499.29858
463.45482
423.09004
379.90279
334.82589
289.26262
244.33652
200.96122
159.99361
122.07816
87.776039
57.546258
31.822578
13.288639
4.5890526
1.8987906
1.1644998
0.87945451
0.71569206
0.61545554
0.54915698
0.50602915
0.4732032
0.44833913
0.43175322
0.42012754
0.41290886
0.40922241
576.98496
560.92403
536.26412
504.48666
467.03387
425.32941
380.78034
334.91852
288.66523
243.22145
199.51368
158.3442
120.35956
86.08572
55.969353
30.414114
12.387695
4.3231403
1.8454362
1.1490433
0.87284232
0.71128438
0.61282983
0.54767169
0.50498632
0.47266699
0.44792746
0.4314683
0.41992463
0.41275775
0.40909633
588.76577
570.94014
544.48152
510.98199
471.94324
428.84599
383.06804
336.04592
289.01123
242.9953
198.83981
157.37267
119.20155
84.845966
54.743163
29.264505
11.660029
4.1070579
1.7958259
1.1360203
0.86757274
0.70755202
0.61056435
0.54641078
0.50405181
0.47218392
0.44755388
0.43119913
0.41972906
0.41260872
0.40896908
597.10337
578.7668
551.62966
517.26182
477.25326
433.11586
386.33027
338.32131
290.382
243.59494
198.93334
157.08028
118.60736
84.059176
53.867443
28.379524
11.087816
3.93282
1.7555486
1.1256333
0.86354805
0.70446437
0.60860674
0.54533642
0.50320748
0.47173921
0.44721053
0.43094089
0.4195387
0.41246122
0.4088407
604.53251
585.25653
557.64988
522.9602
482.51654
437.79215
390.29709
341.50651
292.75616
245.21061
199.86481
157.43583
118.58215
83.730809
53.34397
27.763035
10.656346
3.7929619
1.721228
1.117496
0.86068708
0.70203642
0.60697257
0.54446249
0.50246864
0.47134016
0.44690312
0.43069748
0.41935532
0.41231577
0.40871115
613.70613
593.14013
564.66491
529.42258
488.52505
443.29558
395.17485
345.64437
296.08242
247.72199
201.6188
158.549
119.1428
83.844663
53.176327
27.417218
10.355579
3.6817483
1.6930531
1.1116214
0.85892415
0.7002621
0.60564455
0.54377081
0.50182946
0.47098111
0.44662765
0.43046698
0.41917797
0.41217209
0.40858053
622.76478
601.52236
572.48151
536.79321
495.47682
449.78895
401.07878
350.80739
300.40357
251.1629
204.2074
160.37327
120.3053
84.473191
53.36573
27.344745
10.181508
3.592876
1.6697297
1.1079204
0.85822773
0.69916422
0.60464194
0.54326863
0.50129958
0.47066727
0.44638632
0.43025149
0.41900743
0.41203022
0.40844917
631.38896
609.98972
580.82495
544.9798
503.40022
457.32643
408.07557
357.06025
305.76984
255.57436
207.66134
162.93663
122.08327
85.594432
53.946168
27.553468
10.138377
3.5194619
1.6506781
1.1064838
0.85844236
0.69875307
0.60396791
0.54294653
0.50087608
0.4703962
0.44617533
0.4300494
0.41884259
0.41188959
0.40831679
639.20613
617.90295
589.05584
553.53556
512.15469
465.90349
416.16409
364.42829
312.2207
260.99144
212.01213
166.26817
124.49789
87.228303
54.916815
28.065159
10.218569
3.4509145
1.6351479
1.1069596
0.85954741
0.69889234
0.60361366
0.54279118
0.500553
0.47016545
0.4459914
0.42985996
0.4186828
0.41174981
0.408181
644.87629
623.84402
595.49067
560.47718
519.50157
473.44003
423.55478
371.37346
318.49286
266.40365
216.46652
169.75771
127.08448
89.02807
56.03013
28.698855
10.42332
3.3680508
1.6224009
1.108865
0.86127977
0.6994229
0.60350849
0.54275939
0.50030787
0.4699652
0.44582778
0.42968103
0.41852723
0.41161107
0.4080388
78.13254
134.20181
210.30663
284.44154
344.10914
383.78874
402.04701
400.94618
384.59157
351.77811
310.59379
264.48589
216.67589
169.94349
126.32484
87.186395
53.411422
26.577366
9.9941322
3.1795149
1.3610148
0.89131562
0.70635883
0.59830358
0.53299488
0.48768696
0.45771253
0.43742449
0.42374359
0.41524877
0.41084743
78.674927
131.04805
203.6792
275.59029
334.51475
374.74608
394.49009
395.19734
380.73092
349.96808
309.82847
264.47439
217.28769
170.90532
127.42834
88.286413
54.435169
27.363208
10.405818
3.2882452
1.3812081
0.89725147
0.70946531
0.59988802
0.53373039
0.4881094
0.45798652
0.43760069
0.42386386
0.415326
0.41088048
79.706268
128.31004
196.94136
266.47185
324.57292
365.31594
386.51175
389.04751
376.15834
347.35898
308.69329
264.38865
217.86735
171.87384
128.56261
89.429774
55.503282
28.19202
10.852661
3.4113134
1.4036785
0.90351458
0.71261104
0.60152241
0.53455627
0.48844309
0.45821822
0.43775938
0.42398177
0.41541518
0.41092761
81.369724
125.96696
190.42369
257.30493
314.4189
355.55557
378.12667
382.47966
371.25498
344.45791
307.35341
264.1782
218.39448
172.83682
129.72141
90.614755
56.614947
29.067067
11.336191
3.5492551
1.429497
0.9105865
0.71629968
0.60332549
0.53532291
0.48898077
0.45855633
0.43797161
0.42412237
0.41550107
0.4109853
83.536043
124.21095
184.19258
248.19143
304.13443
345.50986
369.35185
375.49085
365.994
341.24383
305.78323
263.81949
218.85294
173.78436
130.8998
91.840299
57.769539
29.995268
11.857156
3.70365
1.4578122
0.91800999
0.71978621
0.6051814
0.53633704
0.48934874
0.45881537
0.43815114
0.42425681
0.4155965
0.41103904
86.334273
122.99937
178.54558
239.37819
293.8629
335.25682
360.22343
368.09164
360.36254
337.70157
303.96276
263.3004
219.22774
174.70683
132.09299
93.105478
58.966299
30.976663
12.408825
3.8747926
1.4910867
0.92649887
0.72415928
0.60727132
0.53719413
0.48983358
0.45913625
0.43836136
0.42440568
0.41569776
0.41107637
89.746368
122.78572
173.37983
230.79022
283.58731
324.8104
350.76174
360.29154
354.34179
333.8285
301.8731
262.60005
219.50048
175.59111
133.29232
94.404665
60.20188
32.006797
12.997852
4.0659927
1.525922
0.93559494
0.72854726
0.60943167
0.53818099
0.49033716
0.45946822
0.43857981
0.42456135
0.41580454
0.41112049
94.053401
123.17367
169.03943
222.75198
273.54866
314.32869
341.05834
352.13655
347.97796
329.57631
299.48784
261.69201
219.64463
176.41849
134.48353
95.725716
61.481447
33.089019
13.649412
4.2794294
1.5685169
0.94555748
0.73319343
0.61169336
0.53919553
0.49086521
0.4598203
0.43880866
0.42472508
0.41591735
0.41119391
99.232011
124.28141
165.45941
215.30294
263.82047
303.88119
331.16592
343.65547
341.25266
324.96133
296.79297
260.55762
219.63648
177.17766
135.66085
97.066413
62.8003
34.224961
14.360411
4.5177812
1.6136885
0.95644426
0.73820443
0.61411281
0.54025949
0.49141151
0.46017906
0.43904368
0.42489512
0.41603513
0.41130478
105.50651
126.68558
162.96569
208.63179
254.53972
293.57458
321.16155
334.8933
334.18494
319.97768
293.77259
259.17871
219.51153
177.85475
136.81226
98.418964
64.155179
35.421637
15.127322
4.7842484
1.6674015
0.96848462
0.74346095
0.61661876
0.541325
0.49197943
0.46056385
0.43929022
0.42507428
0.41615964
0.41141303
112.73773
130.05744
161.29909
202.74104
245.79874
283.50963
311.12658
325.89965
326.81581
314.61772
290.41216
257.53266
219.19426
178.42966
137.92399
99.774741
65.539951
36.670709
15.954307
5.082953
1.7266043
0.98163635
0.74917823
0.6193077
0.5424608
0.49257378
0.46094951
0.43953997
0.42525891
0.41628874
0.41150814
120.90389
134.71393
161.31443
197.88868
237.72463
273.78906
301.14593
316.73643
319.17931
308.88854
286.70043
255.59723
218.65459
178.88036
138.98053
101.12372
66.948356
37.961037
16.820037
5.4150423
1.7951884
0.99639911
0.75509018
0.62206021
0.54354064
0.49316926
0.46136483
0.43980147
0.42545351
0.41642613
0.4116035
129.82432
140.3992
161.98738
194.03917
230.40943
264.5112
291.30703
307.47272
311.29932
302.8076
282.63466
253.35434
217.88686
179.18382
139.96457
102.45448
68.373723
39.291012
17.720496
5.78476
1.8725391
1.0124517
0.76160012
0.62495484
0.54473675
0.49381825
0.46177722
0.44006312
0.42565244
0.41656732
0.41170989
139.21838
146.92687
163.80109
191.23464
223.91884
255.75835
281.69008
298.17824
303.20824
296.39554
278.21188
250.78748
216.86693
179.30441
140.85678
103.75434
69.808604
40.656596
18.672632
6.1963751
1.9611863
1.0307952
0.76817754
0.62793372
0.5457911
0.49441369
0.46221111
0.44033408
0.42586182
0.4167185
0.41182776
148.95052
154.26841
166.95825
189.52069
218.30835
247.60616
272.38501
288.90428
294.94333
289.68332
273.42902
247.88234
215.57493
179.24795
141.64038
105.00985
71.243975
42.050002
19.675086
6.6514861
2.0620703
1.0507382
0.77558959
0.63083766
0.54702684
0.49511926
0.46265356
0.44060656
0.42607561
0.41687088
0.41195132
158.7089
162.10319
171.0919
189.07072
213.65913
240.12118
263.45185
279.73621
286.5355
282.70172
268.29177
244.6303
213.99672
179.02389
142.30044
106.20752
72.671559
43.461265
20.734474
7.1562524
2.1773079
1.0736492
0.78268446
0.63397512
0.54805732
0.49567829
0.46308
0.4408785
0.42629828
0.41703404
0.41207858
168.05912
169.92846
175.83044
189.40371
209.94412
233.36161
254.95786
270.74036
278.03299
275.48868
262.81167
241.02362
212.1093
178.53143
142.81243
107.33349
74.085625
44.885822
21.849124
7.7031941
2.3084393
1.0989351
0.79104036
0.63663149
0.54927754
0.49641522
0.46355988
0.44116513
0.42652871
0.41719514
0.41220792
176.24069
177.05164
180.53852
190.31976
206.98111
227.27957
246.92494
261.96528
269.49086
268.06487
257.01453
237.06334
209.90003
177.78549
143.15742
108.37344
75.481137
46.334098
23.034563
8.3263958
2.4582811
1.1272657
0.79828977
0.63974634
0.55035117
0.49691519
0.46394468
0.44142622
0.42676103
0.4173666
0.41233857
182.69803
182.87167
184.70408
191.60576
204.69278
221.87371
239.39744
253.47169
260.9738
260.47764
250.93056
232.76445
207.36658
176.77462
143.30131
109.30854
76.839498
47.801493
24.283793
8.9995346
2.62818
1.1592898
0.80690471
0.64219371
0.55141949
0.49761454
0.46446071
0.44173342
0.42701039
0.41753351
0.41247005
186.85283
186.8081
187.83236
192.68253
202.85922
217.14975
232.46901
245.36248
252.59217
252.80355
244.61265
228.15222
204.51231
175.49084
143.25227
110.12354
78.143252
49.263738
25.569209
9.7093056
2.8208723
1.1946617
0.81473179
0.64491322
0.55259584
0.49807735
0.46479316
0.44197009
0.42724491
0.4177051
0.41260178
188.51678
188.41323
189.16653
192.83354
201.00561
212.87208
226.0879
237.66398
244.45223
245.13284
238.12992
223.27142
201.36098
173.94609
143.04941
110.81268
79.380689
50.712638
26.88833
10.486887
3.0382478
1.233109
0.82101478
0.64750327
0.55334249
0.49864723
0.46530639
0.44229818
0.42751241
0.41787416
0.41273284
188.39649
188.43374
189.28922
192.52113
199.15503
209.00789
220.28926
230.47986
236.67218
237.59399
231.58424
218.19632
197.95591
172.14862
142.60098
111.35904
80.540658
52.137815
28.229243
11.324305
3.287687
1.2758407
0.83107784
0.64964635
0.55446264
0.49921699
0.46563262
0.44250491
0.42773725
0.41803602
0.41286267
188.12897
188.34734
189.35202
192.26577
197.77343
205.91279
215.34391
224.04823
229.45336
230.37281
225.12328
213.0336
194.36024
170.12819
141.95039
111.75852
81.613987
53.527972
29.575808
12.18476
3.5787538
1.3231592
0.83491904
0.65151942
0.55513479
0.49956822
0.46605448
0.44283842
0.42801487
0.41820499
0.41299033
188.55648
188.83117
189.90765
192.57697
197.29221
203.79169
211.42043
218.55953
222.98966
223.66625
218.91476
207.91
190.66282
167.93827
141.12562
112.0153
82.595826
54.876441
30.924948
13.088497
3.8820622
1.37286
0.84106297
0.6536367
0.55586738
0.50038692
0.46644725
0.4430433
0.42821628
0.41835113
0.41311496
190.50222
190.75363
191.7552
193.92211
197.68398
202.79199
208.61516
214.11118
217.39931
217.63482
213.12006
202.9634
186.9657
165.64585
140.16213
112.14324
83.485273
56.178318
32.280437
14.072967
4.2355928
1.4264969
0.85094467
0.65498425
0.55689902
0.50079595
0.46668666
0.44336025
0.42848864
0.41851857
0.4132344
195.69032
195.60034
195.94048
197.10637
199.40327
202.99283
206.98889
210.77109
212.83944
212.40532
207.87942
198.32761
183.37894
163.32414
139.09689
112.13866
84.279369
57.421726
33.617815
15.099507
4.6340914
1.486923
0.8532261
0.65603564
0.55783362
0.50159715
0.46722046
0.4436311
0.42865902
0.41864918
0.41334676
202.9
202.34084
201.96765
202.04186
202.85591
204.47289
206.86495
208.66918
209.44296
208.11201
203.32947
194.13024
180.00847
161.05389
137.98675
112.08082
84.987871
58.600333
34.923429
16.135789
5.0523604
1.5530624
0.85566835
0.65742395
0.55860658
0.50249563
0.4674719
0.44391391
0.42891503
0.41880305
0.41344932
211.61427
210.74113
209.68768
208.69579
208.0161
207.79662
207.96551
208.22228
207.34728
204.85814
199.5668
190.46916
176.9452
158.90892
136.87958
111.94615
85.619519
59.715595
36.195649
17.185927
5.5038614
1.6269059
0.86127369
0.65902799
0.56067322
0.50311423
0.46797978
0.44428431
0.42906765
0.41892046
0.41353943
220.72216
219.95478
218.64213
216.9403
215.00724
213.0185
211.05289
209.14446
206.79866
202.87035
196.74655
187.45205
174.2707
156.95187
135.81981
111.77474
86.188868
60.774072
37.436874
18.248723
5.9751675
1.7120603
0.87093387
0.6625705
0.56335072
0.50490943
0.46862976
0.44453631
0.4292877
0.4190513
0.41361534
226.70248
226.63911
225.84157
224.30151
222.03464
219.13333
215.71979
211.83617
207.452
202.12731
194.95919
185.17282
172.05537
155.23136
134.84097
111.59485
86.710635
61.785325
38.656526
19.338437
6.5033887
1.8136231
0.88458009
0.66712693
0.56610793
0.50589816
0.46900833
0.44508982
0.42945712
0.41915066
0.41367356
227.10596
227.78942
227.85338
227.11292
225.43387
222.74424
219.03521
214.37105
208.77892
202.10009
193.92201
183.51875
170.26579
153.74029
133.94298
111.40706
87.186375
62.755402
39.864296
20.463387
7.1081061
1.9386622
0.90292131
0.67422319
0.56938462
0.50760106
0.47012994
0.44538119
0.42956319
0.41926125
0.41371394
223.68594
225.32298
226.14634
226.085
225.05417
222.8275
219.40057
214.74725
208.87361
201.74712
192.95359
182.07125
168.65928
152.3467
133.06067
111.18932
87.626889
63.700518
41.078319
21.643268
7.8028335
2.0950805
0.92705745
0.68489717
0.57524231
0.51081902
0.47095971
0.44603525
0.42979545
0.41935469
0.41373021
213.78542
217.20905
219.97607
221.57967
221.79318
220.5361
217.84205
213.57872
207.79611
200.42244
191.31132
180.19054
166.76896
150.74239
131.99802
110.8096
87.930425
64.573386
42.289693
22.885597
8.6160982
2.2908027
0.95715953
0.69663574
0.58068733
0.51217752
0.47178869
0.44656446
0.42988137
0.41944563
0.4137235
198.33018
202.37832
206.1959
209.47253
211.76263
212.66714
211.73123
208.80436
203.80011
196.77108
187.83681
177.00849
163.99048
148.52376
130.49109
110.09297
87.941797
65.299365
43.458955
24.170488
9.5497574
2.5323976
0.99249368
0.70819574
0.58523987
0.51546502
0.47371344
0.44700221
0.43010288
0.41950237
0.41368625
183.14351
187.03067
190.82636
194.25357
197.02759
198.78198
199.19619
197.92785
194.67034
189.26143
181.70148
171.94915
159.87854
145.34956
128.30804
108.92801
87.767313
65.867375
44.540996
25.451094
10.573958
2.8240421
1.0320652
0.71685518
0.59073941
0.51909094
0.47448012
0.44794425
0.43032863
0.41954904
0.41361946
171.52852
174.79159
178.01513
181.02035
183.59057
185.44629
186.27784
185.80316
183.68497
179.66838
173.55666
165.18735
154.42803
141.15972
125.35566
107.19455
87.198259
66.125593
45.446835
26.660581
11.620421
3.1699825
1.0757164
0.72085498
0.59496713
0.52119144
0.47605409
0.44844122
0.43044166
0.41955727