/*--------------------------------*- C++ -*----------------------------------*\
| =========                 |                                                 |
| \\      /  F ield         | OpenFOAM: The Open Source CFD Toolbox           |
|  \\    /   O peration     | Version:  2406                                  |
|   \\  /    A nd           | Website:  www.openfoam.com                      |
|    \\/     M anipulation  |                                                 |
\*---------------------------------------------------------------------------*/
FoamFile
{
    version     2.0;
    format      ascii;
    arch        "LSB;label=32;scalar=64";
    class       volScalarField;
    location    "0.094";
    object      nut;
}
// * * * * * * * * * * * * * * * * * * * * * * * * * * * * * * * * * * * * * //

dimensions      [0 2 -1 0 0 0 0];

internalField   nonuniform List<scalar> 
8260
(
0.033332392
0.037827035
0.043099154
0.049060658
0.055570452
0.062477572
0.069593353
0.07666524
0.083353146
0.089174315
0.093448473
0.095239761
0.093283953
0.086008741
0.071737221
0.049827982
0.026377945
0.012434165
0.0080746469
0.006655741
0.0058969988
0.0053349255
0.0049648944
0.0047193293
0.0045372385
0.004402875
0.0042921155
0.0042164863
0.0041634639
0.0041300568
0.0041125802
0.039402597
0.044024426
0.049099191
0.05468817
0.060749784
0.067169906
0.073770807
0.080299601
0.086410544
0.091613609
0.095204505
0.096228355
0.093405527
0.0851725
0.069900122
0.047410346
0.02409787
0.011690863
0.0078364747
0.0065624877
0.0058498677
0.005306047
0.004947379
0.0047095755
0.0045306986
0.0043986237
0.004289437
0.0042148098
0.0041624164
0.0041293752
0.0041121494
0.046370215
0.050815171
0.055638373
0.060870139
0.066482852
0.072384735
0.0784136
0.084323592
0.089765375
0.094239143
0.097027291
0.097154635
0.093327158
0.083997893
0.067616867
0.044486711
0.021860668
0.01092879
0.0076780833
0.0065131054
0.0058246361
0.005290799
0.0049381002
0.0047044524
0.0045271385
0.0043962687
0.0042879319
0.0042137227
0.0041616195
0.0041287565
0.004111668
0.054316448
0.058400796
0.062854391
0.067656847
0.072766999
0.078093476
0.083479332
0.088682484
0.093350174
0.096972908
0.098822264
0.097905075
0.092916044
0.082335657
0.064736199
0.040993198
0.019551696
0.010262823
0.0075277478
0.0064354915
0.0057815498
0.0052639369
0.0049214999
0.0046950586
0.0045205371
0.0043918476
0.0042850883
0.0042118711
0.0041604142
0.0041279296
0.0041110889
0.063235275
0.066821677
0.070800979
0.075076697
0.079595988
0.084260472
0.088909872
0.093299447
0.097070162
0.099702495
0.10045701
0.098325451
0.091997105
0.07999535
0.061074435
0.036862781
0.017235009
0.0096205098
0.007368963
0.0063652341
0.0057434024
0.0052405453
0.0049074159
0.0046870653
0.0045149617
0.0043881026
0.0042826658
0.0042102323
0.0041592707
0.0041270787
0.0041104304
0.072956522
0.075987328
0.079396398
0.083045725
0.086872803
0.090770652
0.094571359
0.098022505
0.10075521
0.1022384
0.10172137
0.0981838
0.090319709
0.076718095
0.056403653
0.032069704
0.015154661
0.0090277705
0.0072107192
0.0062787428
0.0056940359
0.0052093086
0.0048882603
0.00467596
0.0045071423
0.0043828236
0.0042792211
0.0042079924
0.0041577882
0.0041260324
0.0041096748
0.083175638
0.085616535
0.088381438
0.091316845
0.094352422
0.097372931
0.10020136
0.10257497
0.10411267
0.10427041
0.10228635
0.09713231
0.087524843
0.072152322
0.050453567
0.026699308
0.013192096
0.0084964474
0.0070476815
0.0061919278
0.0056450886
0.0051785336
0.0048698044
0.0046651079
0.0044995183
0.0043776537
0.0042758108
0.0042057553
0.0041562585
0.0041249001
0.0041088147
0.093390903
0.095215712
0.09727769
0.099424313
0.10157694
0.10361142
0.10534061
0.10649011
0.10666548
0.10530941
0.10165015
0.094658328
0.083105847
0.065831617
0.04295086
0.021062531
0.011404765
0.0080999409
0.0068816205
0.0060921022
0.0055870756
0.0051411532
0.0048470817
0.0046514731
0.0044898024
0.0043710753
0.0042714312
0.0042029343
0.0041543888
0.0041235508
0.0041078327
0.10280497
0.10399167
0.10530195
0.10659559
0.10778376
0.10873137
0.1092395
0.10902063
0.10766653
0.10460776
0.099066028
0.090021339
0.076363774
0.057171178
0.033782683
0.016519207
0.0099267173
0.0077511379
0.0067061339
0.0059897921
0.0055274936
0.0051029827
0.0048242418
0.0046375142
0.0044796737
0.0043641946
0.0042668295
0.004199962
0.0041523824
0.0041220549
0.0041067125
0.11016982
0.11070797
0.11122842
0.11161797
0.1117751
0.11155144
0.11073359
0.10901894
0.10598581
0.10105655
0.093453965
0.082182333
0.066369853
0.045558717
0.023513423
0.012903332
0.0087961621
0.0074481781
0.0065247697
0.0058782638
0.0054590404
0.0050588263
0.0047974868
0.0046208416
0.0044672427
0.0043557683
0.0042612035
0.0041963479
0.0041499868
0.0041202947
0.0041054326
0.11360909
0.11350071
0.11321654
0.11267518
0.11176063
0.11030976
0.10809264
0.10479113
0.099974194
0.093067441
0.083312797
0.069753252
0.052041612
0.030749643
0.016280272
0.010342497
0.0081819517
0.0071615357
0.0063351099
0.0057669375
0.0053876019
0.0050138674
0.004770194
0.0046034447
0.0044539598
0.0043465858
0.0042551694
0.0041924421
0.0041473632
0.0041183198
0.0041039689
0.11037401
0.10960901
0.10853982
0.10708652
0.10511419
0.10244007
0.098815944
0.093913007
0.087307314
0.078462597
0.066691127
0.051032734
0.032625988
0.018840656
0.011740862
0.0087264951
0.0077227498
0.0068432693
0.006152309
0.0056494036
0.0053048482
0.004965209
0.0047388243
0.0045828675
0.0044383266
0.0043355306
0.0042480198
0.0041877792
0.0041442782
0.004116019
0.0041018848
0.096596239
0.095283705
0.09351126
0.091211537
0.088241283
0.084404248
0.079437959
0.073034485
0.064842151
0.054503615
0.042017263
0.029852488
0.019196394
0.012301958
0.0091049748
0.0080723383
0.007257885
0.0065797636
0.0059531483
0.0055337363
0.0052244069
0.0049148494
0.0047063827
0.0045607735
0.0044218187
0.0043233557
0.0042402944
0.0041826987
0.0041408788
0.0041134412
0.0040995083
0.067828671
0.066017021
0.063817348
0.061239008
0.058159823
0.054426476
0.049886699
0.044497906
0.038216224
0.03109108
0.023599224
0.016734259
0.011793844
0.0091537309
0.0079892111
0.0074252314
0.0068901591
0.0062531728
0.0057719029
0.0054085177
0.0051335406
0.0048668789
0.0046681999
0.0045338753
0.0044029601
0.0043092907
0.0042312436
0.0041767701
0.0041369305
0.0041104866
0.004096898
0.038098211
0.036939504
0.035511969
0.033814628
0.031732994
0.029232618
0.026477662
0.02340683
0.020044317
0.016470924
0.013100817
0.010327918
0.0086245073
0.0078166879
0.0074957248
0.0070142291
0.0064489978
0.0060292856
0.0055835595
0.0052936263
0.0050500259
0.0048129721
0.0046301835
0.0045059522
0.0043821462
0.0042941464
0.0042213512
0.0041703799
0.0041325941
0.0041072228
0.0040941168
0.018861252
0.018450931
0.017844325
0.017075284
0.016118309
0.014979745
0.013719756
0.012364168
0.010968513
0.0096166204
0.0085404144
0.0077762728
0.0073319027
0.0073202902
0.0067112208
0.0063719599
0.0061315069
0.0057460022
0.0054234878
0.0051752821
0.004954286
0.0047625277
0.0045862195
0.0044712821
0.0043590107
0.0042769968
0.0042100578
0.0041629656
0.00412768
0.0041035736
0.0040912682
0.010045716
0.0099482405
0.0097467508
0.00946682
0.0091192931
0.008724562
0.0083022222
0.0078284293
0.0073482439
0.0069992606
0.0068472171
0.0067878783
0.0069141972
0.0064968197
0.0062866131
0.0060952696
0.005764405
0.0055839215
0.0052615032
0.0050593291
0.004867972
0.0047005012
0.0045424878
0.0044345578
0.0043340389
0.004258056
0.0041984115
0.0041550596
0.0041223053
0.0040996145
0.0040881655
0.0068239751
0.0068013683
0.0067407637
0.0066582177
0.0065556414
0.0064460695
0.006347247
0.0062614373
0.0062132473
0.006225277
0.0063299154
0.006244146
0.0059100467
0.0059902478
0.0058928931
0.0056038836
0.0054482918
0.0052490151
0.0050562531
0.0048928049
0.004759156
0.0046406812
0.0044890783
0.0043927279
0.0043058373
0.0042366065
0.0041857827
0.0041460838
0.0041162871
0.0040952617
0.0040842607
0.0057711642
0.0057329568
0.0057089168
0.0056980567
0.0056976719
0.0056947607
0.0057092074
0.0056827283
0.0056491691
0.0056458721
0.0054962073
0.005436072
0.0054983787
0.0053493532
0.0054090025
0.0053686297
0.005112966
0.0049892821
0.0048361535
0.0047395383
0.0046349484
0.0045573265
0.0044350598
0.0043483012
0.0042757347
0.0042144285
0.0041727387
0.0041372678
0.0041096271
0.0040905495
0.0040806673
0.0052836946
0.0052810976
0.0052746606
0.0052658395
0.0052736573
0.0052912188
0.005281898
0.0052704678
0.0052350753
0.0051342462
0.0050893703
0.0050300879
0.0049661656
0.0049343688
0.004901453
0.0048773329
0.0048961986
0.004792765
0.0046716931
0.0045886778
0.0045046482
0.0044664824
0.0043660936
0.0042943396
0.0042463721
0.0041917921
0.0041578746
0.0041274718
0.0041025485
0.0040853838
0.0040758885
0.0049332801
0.0049303633
0.0049244987
0.0049099292
0.0048840673
0.0048450679
0.0048420584
0.0048305033
0.004817059
0.004801355
0.0047933728
0.0047758283
0.0047036187
0.0047212405
0.0046519818
0.0046087068
0.0045770263
0.0045859382
0.0045749921
0.0045033453
0.0044095351
0.004337989
0.0043005828
0.004243418
0.0042172382
0.0041698464
0.0041434058
0.0041172493
0.0040953748
0.0040798657
0.0040716401
0.0046051871
0.0046064429
0.0046053834
0.0046022143
0.0045994212
0.0046052466
0.0046107739
0.0046077484
0.004601221
0.0045852146
0.0045605021
0.0045557179
0.0045525728
0.0044899278
0.004503098
0.0044614275
0.0044232007
0.0043917818
0.0043942764
0.0043864984
0.0043363534
0.0042696831
0.0042483668
0.0041963079
0.0041837064
0.0041527507
0.0041273286
0.0041062507
0.0040878196
0.0040740195
0.0040661968
0.0044298149
0.004431169
0.0044303802
0.004427826
0.0044225109
0.0044128603
0.0043987311
0.0043897015
0.004384678
0.0043807321
0.0043753416
0.0043672007
0.0043739207
0.0043867686
0.0043554326
0.0043502515
0.0043386886
0.0043026787
0.004281927
0.0042723181
0.0042805997
0.0042317955
0.0042028845
0.0041712907
0.0041555979
0.0041349476
0.0041148049
0.004094872
0.0040800312
0.0040680314
0.0040615192
0.0042664849
0.0042677113
0.0042672962
0.0042657006
0.0042637317
0.0042621455
0.0042633297
0.0042678682
0.0042704498
0.0042713781
0.0042711111
0.0042673017
0.0042489049
0.0042314747
0.0042369437
0.0042356842
0.0042396018
0.0042463208
0.0042273927
0.0042119126
0.0041876074
0.0041991195
0.0041782298
0.0041496922
0.0041297727
0.0041185614
0.0040997384
0.0040851909
0.0040725791
0.0040619317
0.0040559232
0.0041837238
0.0041845779
0.0041839087
0.0041819948
0.0041796424
0.0041773101
0.0041744237
0.0041707669
0.0041693502
0.0041683602
0.0041677253
0.0041665763
0.0041657259
0.0041697911
0.0041698785
0.0041740904
0.0041633593
0.0041653352
0.0041726366
0.0041637926
0.0041363326
0.0041413429
0.0041513887
0.0041337518
0.0041089276
0.0041001729
0.0040912997
0.0040765185
0.0040648498
0.0040561866
0.0040512658
0.0041157123
0.0041164981
0.0041166493
0.0041165355
0.0041164949
0.0041164942
0.004116454
0.0041163364
0.0041162646
0.0041163222
0.0041168544
0.0041187843
0.0041212255
0.0041202654
0.0041205715
0.004119147
0.0041187455
0.0041196474
0.004113186
0.0041135091
0.0041084475
0.0041084994
0.0041082102
0.0041130793
0.004097292
0.0040899755
0.0040779978
0.0040673847
0.0040587671
0.004050804
0.0040456137
0.0040855685
0.0040862646
0.004086457
0.0040863696
0.0040861915
0.0040858273
0.0040856056
0.0040857581
0.004086371
0.0040872216
0.0040875233
0.0040884145
0.0040895646
0.0040910595
0.0040944373
0.0040967061
0.0040960473
0.0040956617
0.004091488
0.0040912344
0.0040967437
0.0040928964
0.0040866838
0.0040888826
0.0040859529
0.0040760501
0.0040686045
0.0040609604
0.0040519201
0.004045365
0.0040421004
0.0040559137
0.0040562605
0.0040564413
0.0040565871
0.0040568455
0.0040574326
0.0040581686
0.0040590922
0.0040603931
0.0040622934
0.0040650941
0.0040675649
0.0040696231
0.0040710527
0.0040690436
0.0040682749
0.0040712749
0.0040729107
0.0040749069
0.0040775903
0.0040755484
0.0040788811
0.0040736693
0.0040672349
0.0040665708
0.0040633165
0.0040569272
0.0040515958
0.0040463766
0.0040422039
0.0040402229
0.0040456412
0.0040458824
0.0040460431
0.0040461967
0.0040463947
0.0040466399
0.0040469098
0.0040471604
0.0040474649
0.0040479895
0.0040488044
0.0040498349
0.0040511207
0.0040519297
0.0040523857
0.0040531476
0.0040536537
0.0040538122
0.0040547516
0.0040556496
0.0040552927
0.0040556557
0.0040555322
0.0040547516
0.0040539367
0.0040526694
0.0040502154
0.0040468049
0.0040433875
0.0040400041
0.0040367589
0.0040407592
0.0040409248
0.0040410569
0.0040412111
0.0040414102
0.0040416579
0.0040419603
0.0040423021
0.0040425537
0.0040428631
0.0040432973
0.0040440387
0.0040450752
0.0040454408
0.0040452865
0.0040453154
0.0040456437
0.0040458495
0.004045925
0.0040473811
0.0040471523
0.0040478238
0.0040475696
0.0040475247
0.0040480005
0.0040470598
0.0040462651
0.0040444051
0.0040399322
0.0040368157
0.0040370283
0.0040355099
0.0040356286
0.0040357797
0.0040359713
0.0040362232
0.0040365383
0.0040369186
0.0040373733
0.0040379174
0.0040385751
0.0040393773
0.0040405172
0.0040416683
0.0040418601
0.0040417396
0.0040416362
0.0040418397
0.0040421129
0.0040422404
0.0040437912
0.0040429161
0.0040444566
0.0040443241
0.0040443102
0.0040446485
0.004043875
0.0040432207
0.004041163
0.0040398591
0.0040393609
0.0040379562
0.00073730384
0.0015925545
0.0031861017
0.005560989
0.0087009871
0.012687435
0.017598335
0.023477522
0.030414076
0.037940393
0.046184253
0.054774052
0.063055448
0.0700057
0.074087145
0.07311583
0.064388375
0.046981577
0.026668375
0.013001391
0.0076413227
0.0060083668
0.0053484867
0.0049411547
0.0046774366
0.0044838527
0.0043487522
0.0042551249
0.0041907627
0.0041500873
0.0041292695
0.001807978
0.003626975
0.0060107526
0.0088675713
0.012358714
0.016586247
0.021609399
0.027700668
0.034440234
0.041909454
0.049984226
0.058237469
0.065971535
0.072111649
0.075072159
0.072647778
0.062232678
0.043610165
0.02351721
0.011548841
0.007227704
0.0058818887
0.0052953238
0.0049123663
0.0046618492
0.0044749713
0.0043434786
0.0042521014
0.0041890291
0.0041491187
0.0041287542
0.0033309973
0.0052896079
0.0077094681
0.010742676
0.014505443
0.019075775
0.024542445
0.030809958
0.037732775
0.045309235
0.053312097
0.061289178
0.068511858
0.073864429
0.075724758
0.071886205
0.059894946
0.040381373
0.021074805
0.010562961
0.0069167492
0.0058260184
0.0052703285
0.0048985074
0.0046543414
0.0044706863
0.0043408237
0.0042504226
0.0041878633
0.0041483056
0.0041281331
0.0048211416
0.0069777091
0.0097038033
0.013070617
0.017115495
0.021941159
0.027630908
0.033937835
0.040953626
0.048544934
0.056420953
0.064090744
0.070783174
0.075338585
0.076101954
0.070879996
0.057415276
0.03729624
0.018941318
0.0096771047
0.0067516375
0.0057573644
0.0052321687
0.0048765635
0.0046421727
0.0044637248
0.0043364683
0.0042478331
0.0041863081
0.0041473765
0.0041274739
0.0062922429
0.0087501128
0.011765841
0.015383901
0.019683119
0.024769207
0.03052845
0.036983097
0.044083947
0.051651208
0.059362566
0.066693062
0.072830445
0.076573822
0.076240879
0.069663912
0.054830614
0.034336469
0.017056848
0.0090665811
0.0065769444
0.0057080348
0.0052070044
0.0048622696
0.0046342655
0.0044591867
0.0043335459
0.0042460131
0.0041850778
0.0041465337
0.0041268836
0.007845523
0.010556533
0.013805115
0.017654575
0.022239983
0.027503031
0.033410526
0.039990375
0.047136788
0.054642373
0.062156142
0.069118731
0.074678538
0.077597124
0.07617078
0.068264181
0.052180191
0.031508888
0.015406465
0.0084890503
0.0064637835
0.0056582323
0.0051767274
0.004844462
0.0046242047
0.0044533941
0.004329793
0.0042437305
0.0041836449
0.0041456277
0.0041262732
0.0093567268
0.012310147
0.015810504
0.019940155
0.024746628
0.030173041
0.036250654
0.042934883
0.050099946
0.05751705
0.064807729
0.071379568
0.076344407
0.078430282
0.075917609
0.066715269
0.049501443
0.028855254
0.013998135
0.0080856592
0.0063576292
0.0056167358
0.0051533848
0.0048309447
0.0046165266
0.0044489875
0.0043268418
0.0042418899
0.0041824
0.0041447703
0.0041256242
0.010822155
0.014042278
0.017805619
0.022223565
0.027206244
0.032815829
0.039038352
0.045803213
0.052965098
0.060272516
0.06732008
0.073484033
0.077842475
0.079093653
0.075506987
0.065051753
0.046825687
0.026409187
0.012823681
0.0077507073
0.0062789426
0.0055773616
0.0051286728
0.0048161985
0.0046079747
0.0044440757
0.0043235222
0.0042398315
0.0041810578
0.0041438796
0.0041249515
0.012286096
0.015757316
0.019788823
0.024428204
0.02961333
0.035401692
0.041754879
0.048584043
0.055725503
0.062906304
0.06969563
0.075440251
0.079187226
0.079608518
0.074970776
0.063306292
0.044209443
0.024198483
0.011872671
0.0075128577
0.0062074397
0.0055427171
0.0051080634
0.0048040509
0.0046008241
0.0044400073
0.0043206775
0.004238039
0.0041798289
0.0041430169
0.0041242689
0.013705327
0.017431181
0.021732893
0.026566049
0.031962238
0.03792112
0.044391221
0.051269714
0.058376033
0.065416984
0.071937722
0.077257302
0.080394259
0.079997433
0.074341967
0.061519361
0.041672314
0.02223686
0.011110733
0.0073217055
0.006149264
0.0055106122
0.0050877301
0.0047917867
0.0045934339
0.004435815
0.0043177078
0.0042361597
0.0041785607
0.0041421385
0.0041235782
0.015110612
0.019084112
0.023618049
0.028654437
0.034252391
0.040366423
0.046939015
0.05385337
0.060912604
0.067804294
0.074050948
0.078945601
0.081480486
0.080284448
0.073648608
0.059725653
0.039251025
0.02053062
0.010485026
0.0071741167
0.0060974396
0.0054818933
0.0050701458
0.0047812705
0.0045869378
0.0044321801
0.0043150486
0.0042344507
0.0041773655
0.0041412779
0.0041228824
0.016476496
0.02069869
0.02543847
0.030687936
0.036472909
0.042727086
0.049389985
0.056328847
0.063332086
0.070069049
0.076041057
0.080516764
0.082463811
0.080498407
0.072920014
0.057960843
0.036981596
0.019077693
0.0099977611
0.0070567932
0.0060536785
0.0054556529
0.0050535173
0.0047711694
0.0045805188
0.0044286071
0.0043123955
0.0042327247
0.0041761623
0.004140412
0.0041221817
0.017818178
0.02226689
0.027208503
0.032658009
0.038604385
0.044994149
0.051736693
0.058690686
0.065632152
0.072212919
0.077914626
0.081983088
0.083364154
0.080660436
0.072182527
0.056258895
0.034889906
0.017864309
0.0096210275
0.0069644878
0.0060153722
0.005432192
0.0050389412
0.0047623798
0.0045747414
0.0044254327
0.0043099739
0.0042311166
0.0041750105
0.004139559
0.0041214769
0.019132407
0.023784439
0.028924284
0.034556468
0.040642603
0.047162082
0.053971424
0.060933537
0.06781108
0.074239375
0.079680166
0.083361253
0.084200587
0.080791393
0.071463858
0.054643237
0.0329956
0.016873672
0.0093517762
0.0068908869
0.005983049
0.0054111099
0.0050255571
0.0047542497
0.004569209
0.0044224006
0.0043076318
0.0042295285
0.0041738676
0.0041387066
0.0041207684
0.020426367
0.025257236
0.030579829
0.036378654
0.042609788
0.049202848
0.056089724
0.063056205
0.069870174
0.076156176
0.081350673
0.084664245
0.084992734
0.080923194
0.07080244
0.053129706
0.031310337
0.01608929
0.0091520675
0.0068329213
0.0059556365
0.0053925415
0.0050138311
0.0047472029
0.0045641998
0.0044196702
0.0043054856
0.0042280298
0.0041727657
0.0041378656
0.0041200555
0.021682708
0.026683119
0.032169759
0.038115615
0.044471664
0.051160849
0.058068307
0.06505302
0.071810972
0.07796015
0.082928235
0.085901919
0.085761487
0.081083548
0.070232691
0.051749062
0.029842798
0.0155012
0.0090075525
0.0067855297
0.0059332201
0.0053763323
0.0050033408
0.0047409184
0.0045595267
0.0044171073
0.0043034602
0.0042265707
0.0041716838
0.0041370304
0.004119337
0.022844804
0.028017705
0.033661824
0.039745114
0.046212904
0.05298485
0.059934448
0.066891084
0.073597144
0.079643828
0.08441194
0.087087332
0.086525222
0.081297751
0.06978558
0.050555566
0.028632314
0.015006211
0.0088578162
0.0067446733
0.0059152052
0.005362567
0.0049942686
0.0047355741
0.0045553323
0.0044147842
0.0043016137
0.004225187
0.0041706377
0.0041362054
0.0041186134
0.023888651
0.029199347
0.03498238
0.04119342
0.047773047
0.054630569
0.06163662
0.068604951
0.075258931
0.081185375
0.085799162
0.088230202
0.087300661
0.081588584
0.069487984
0.049591642
0.027659406
0.014592757
0.0087319069
0.0067123274
0.0059013431
0.0053511917
0.0049864071
0.0047310025
0.0045515334
0.0044126327
0.0042999082
0.0042238548
0.0041696169
0.0041353882
0.0041178847
0.024990521
0.030360245
0.036215237
0.042507874
0.049166815
0.056094345
0.063152599
0.070146134
0.076785124
0.082645381
0.087118195
0.089316384
0.088100573
0.081975982
0.069363084
0.04888971
0.026907111
0.014244916
0.0086161655
0.0066867354
0.0058913589
0.005342249
0.0049798344
0.0047272698
0.0045482015
0.0044106889
0.0042983712
0.0042225939
0.0041686303
0.0041345811
0.0041171508
0.026079953
0.031488994
0.037380987
0.043715164
0.050420063
0.057394646
0.064493183
0.071513002
0.078152517
0.083975408
0.08835732
0.090405771
0.088940057
0.082452159
0.069429015
0.048473792
0.026364859
0.013950213
0.0085131703
0.0066682491
0.0058851014
0.0053357415
0.0049744856
0.0047242958
0.0045453093
0.0044089273
0.0042969834
0.0042213948
0.0041676734
0.004133783
0.0041164123
0.027138602
0.032556115
0.038454905
0.044800451
0.051523453
0.058525879
0.065654122
0.072701614
0.079357074
0.085173007
0.089510014
0.091463546
0.089827684
0.083088494
0.069692315
0.048361513
0.026031811
0.013691204
0.0084176923
0.0066562916
0.0058824679
0.0053317526
0.0049704484
0.0047221152
0.0045429011
0.0044073734
0.0042957555
0.0042202683
0.0041667502
0.004132994
0.0041156708
0.028155088
0.033548574
0.039421305
0.045748781
0.052462751
0.059479413
0.066652672
0.07375285
0.080456607
0.086285296
0.090599037
0.092498998
0.090763192
0.083855961
0.070193324
0.048569074
0.025921899
0.013444933
0.0083270814
0.0066510544
0.0058830736
0.0053303321
0.0049677399
0.0047206874
0.0045409633
0.0044060166
0.0042946698
0.0042192068
0.0041658554
0.0041322115
0.0041149248
0.029137038
0.034448039
0.04024602
0.046523499
0.05323838
0.060282772
0.067496346
0.074633539
0.081363201
0.087229048
0.091577772
0.093494765
0.091743628
0.084759643
0.070917902
0.049120529
0.02602805
0.013176051
0.0082422405
0.0066517715
0.0058863474
0.005330921
0.0049663331
0.0047199598
0.004539471
0.0044048469
0.0042937115
0.004218207
0.0041649861
0.0041314338
0.0041141628
0.030084606
0.035222475
0.040854749
0.047003583
0.053646308
0.060667074
0.06789414
0.075083156
0.081894469
0.087853072
0.092296543
0.094297863
0.092602731
0.085624536
0.071686068
0.049799041
0.026371628
0.012823301
0.0081593803
0.0066561321
0.0058921013
0.0053330263
0.004965949
0.0047197528
0.0045383261
0.0044038207
0.0042928493
0.004217259
0.0041641384
0.0041306616
0.0041133702
0.00075663827
0.0015412343
0.0030424314
0.005290755
0.0082770386
0.012023899
0.016658422
0.022270801
0.028980907
0.036347915
0.044499149
0.053082605
0.061476776
0.068713207
0.07329868
0.073078976
0.065294385
0.048581115
0.028080949
0.013472438
0.00775789
0.0060437043
0.0053659784
0.0049509878
0.0046826908
0.0044865652
0.0043505919
0.0042563555
0.0041916437
0.0041507208
0.0041295062
0.00080285587
0.0015848301
0.0030609902
0.0052464503
0.0081504978
0.011835078
0.016398062
0.021921186
0.028514181
0.035805647
0.043830968
0.052311944
0.060687921
0.067990127
0.072755454
0.072859224
0.065570122
0.049320911
0.028831037
0.013786561
0.0078312569
0.0060650624
0.0053775698
0.0049574853
0.0046859486
0.0044885215
0.0043519248
0.0042572516
0.0041922849
0.004151161
0.0041297364
0.00085931915
0.0016321649
0.0030883698
0.0052337574
0.0080805912
0.011690554
0.016157356
0.021566988
0.028011437
0.035196142
0.043117862
0.05152249
0.059870659
0.067232754
0.072175715
0.07260762
0.065826776
0.050073227
0.029630119
0.014140994
0.0079129608
0.006087731
0.005389316
0.0049641645
0.004689577
0.0044900912
0.0043530708
0.0042580715
0.0041929201
0.0041516613
0.0041300394
0.00092636807
0.0016842874
0.0031171708
0.0052209294
0.008009345
0.011543562
0.015913825
0.021207897
0.027504898
0.034576327
0.042389042
0.05071017
0.059024692
0.066440261
0.071557738
0.072321562
0.066060387
0.050836734
0.030478181
0.01453528
0.0080083535
0.006112995
0.0054030051
0.0049715691
0.004693001
0.0044925639
0.0043547038
0.0042591451
0.004193667
0.0041521537
0.0041303988
0.0010050687
0.0017436152
0.0031470688
0.005208074
0.0079379195
0.011395761
0.01566872
0.020841357
0.026995054
0.033948115
0.041645921
0.049875855
0.058150723
0.065612771
0.07090067
0.071999088
0.066267676
0.051613488
0.031374718
0.01497111
0.0081101689
0.0061400181
0.005416041
0.0049791128
0.0046974147
0.0044942988
0.0043559868
0.0042600736
0.0041943917
0.0041526959
0.0041307438
0.0010997292
0.001812903
0.0031855656
0.0052019707
0.0078716943
0.011251435
0.015425457
0.020477265
0.026483989
0.033313358
0.040890118
0.049022329
0.057249873
0.06475093
0.070204314
0.071638895
0.06644336
0.052396968
0.032310996
0.015453893
0.0082352431
0.0061702122
0.0054321729
0.0049876821
0.0047012518
0.0044965505
0.0043575545
0.0042611504
0.0041951897
0.0041532719
0.0041310153
0.0012126119
0.0018997752
0.0032297034
0.0051982399
0.0078066072
0.011107515
0.015182204
0.020113413
0.025971469
0.03267498
0.040124267
0.048152266
0.056324249
0.063855909
0.069467928
0.071237308
0.066578123
0.053170968
0.033282864
0.015983901
0.0083600743
0.0062029152
0.0054484343
0.0049965028
0.0047056155
0.0044988917
0.0043591771
0.0042622714
0.0041960257
0.0041538804
0.0041313269
0.0013510106
0.0020032151
0.0032898543
0.0052074297
0.0077530157
0.010974235
0.014948898
0.019758634
0.025470527
0.032037973
0.039355221
0.047271274
0.055376906
0.06292916
0.068689682
0.070787814
0.066675289
0.053937131
0.034322475
0.016568153
0.0085187092
0.0062386627
0.0054656136
0.0050057308
0.0047101059
0.0045013442
0.0043608987
0.0042634487
0.0041969065
0.0041545248
0.0041317845
0.0015194351
0.0021263822
0.0033663427
0.0052304151
0.0077116178
0.010852
0.014725731
0.019413451
0.024982323
0.031405439
0.038583737
0.046380245
0.054407434
0.06197256
0.067871729
0.070292189
0.066729603
0.054690282
0.035419083
0.017211726
0.0086813546
0.0062779826
0.0054841593
0.0050155972
0.0047148244
0.0045038881
0.0043626551
0.004264661
0.0041978237
0.0041551993
0.0041324307
0.0017258982
0.0022833121
0.0034679298
0.0052723528
0.0076860725
0.010744109
0.014515866
0.019079686
0.024494305
0.030778426
0.037813337
0.045483519
0.053433001
0.060989494
0.067015063
0.069749038
0.066737082
0.05542911
0.036561238
0.017919918
0.0088784079
0.0063211708
0.0055035547
0.0050258193
0.0047195569
0.0045065253
0.004364538
0.0042659349
0.0041987907
0.0041559151
0.004133072
0.0019731003
0.0024730979
0.0035919274
0.0053345656
0.0076790556
0.010653519
0.014322335
0.018760811
0.024024944
0.030160535
0.037047867
0.044584775
0.052444052
0.059982481
0.066121194
0.069157628
0.066693171
0.05614076
0.037745625
0.018699421
0.0090915918
0.0063690951
0.0055247097
0.0050367766
0.0047246109
0.0045092989
0.0043664316
0.0042672313
0.0041997922
0.0041566586
0.004133658
0.0022658177
0.0027075405
0.0037609434
0.0054245875
0.0076940313
0.010583016
0.014148081
0.018460899
0.023580287
0.029558485
0.036291916
0.043688061
0.051443147
0.058954489
0.065192194
0.068517819
0.066594155
0.056811326
0.038939163
0.019549255
0.0093385726
0.0064221257
0.0055465286
0.0050480306
0.0047294319
0.0045120654
0.0043684655
0.0042685876
0.0042008455
0.0041574546
0.0041342541
0.0026065011
0.0029876483
0.0039556503
0.0055434328
0.0077337083
0.010535106
0.013995874
0.01818344
0.02315964
0.028982447
0.035552186
0.042798532
0.050439146
0.057909131
0.064230728
0.067830155
0.06643717
0.0574346
0.040130178
0.020474059
0.0096147441
0.0064811577
0.0055706251
0.0050598455
0.0047347614
0.0045151012
0.0043705018
0.004269957
0.0042019327
0.004158272
0.0041349128
0.002994768
0.0033156055
0.0041916259
0.0056943362
0.0078003036
0.010511851
0.01386804
0.017931214
0.022762959
0.028411706
0.034829132
0.041920749
0.049436726
0.056846905
0.063239929
0.067095987
0.066220163
0.058003332
0.041328879
0.021477163
0.0099280454
0.0065477608
0.0055950601
0.0050720965
0.0047394992
0.0045178783
0.0043726304
0.0042713668
0.0042030684
0.0041591565
0.004135637
0.0034321362
0.003697467
0.0044810018
0.0058821935
0.0078967239
0.010515665
0.013767575
0.01770594
0.022393803
0.027871908
0.034127304
0.041059728
0.048441977
0.055782234
0.062225094
0.066317729
0.065941699
0.058508799
0.042523541
0.022555088
0.010282502
0.0066208664
0.0056225025
0.0050840369
0.0047449811
0.0045211814
0.0043748338
0.0042728074
0.0042042475
0.0041600457
0.0041363998
0.0039145697
0.0041319857
0.0048229993
0.0061187397
0.0080286583
0.010549975
0.013697111
0.017512468
0.022056846
0.027374663
0.033472577
0.040226253
0.047463382
0.05473086
0.061193214
0.065499072
0.065601947
0.058942025
0.043710266
0.023711881
0.010679202
0.0067066462
0.0056493798
0.0050970234
0.0047496325
0.0045238181
0.0043769376
0.0042742278
0.0042054579
0.0041610143
0.0041371924
0.0044324725
0.0046117772
0.0052163051
0.0063973196
0.0082008912
0.010620069
0.01366114
0.017355441
0.021756046
0.026914317
0.032829813
0.039419915
0.046505412
0.053675042
0.060148549
0.064644661
0.065203312
0.059298713
0.044876161
0.024925816
0.011129699
0.0067976568
0.005680405
0.0051081071
0.0047549943
0.0045272628
0.0043793484
0.0042757574
0.0042067405
0.0041619669
0.0041380079
0.0049653448
0.0051222533
0.0056542423
0.0067258561
0.0084183589
0.010731488
0.013665212
0.017240449
0.02149683
0.026494462
0.032222793
0.038646781
0.045574996
0.052632759
0.059098156
0.063760122
0.064749654
0.059584701
0.046024708
0.026243337
0.011628066
0.0069072286
0.0057088515
0.0051210233
0.0047598225
0.0045296607
0.0043812768
0.0042771354
0.0042080114
0.0041630041
0.0041388437
0.0054956502
0.005651265
0.0061357551
0.0071174104
0.0086979013
0.010900052
0.01372273
0.017178574
0.021289432
0.026128877
0.031687443
0.037946337
0.044687739
0.051614527
0.05804356
0.062850612
0.06424153
0.059799371
0.047138429
0.027607837
0.012195418
0.0070262969
0.0057414016
0.0051313368
0.0047644918
0.0045329173
0.0043838816
0.0042787807
0.0042094069
0.0041640138
0.0041396986
0.006005799
0.006182741
0.0066513612
0.0075684496
0.0090509274
0.011143349
0.013851312
0.017184924
0.021148072
0.025827585
0.031208825
0.037262018
0.043839753
0.050627752
0.057002797
0.061924089
0.063681702
0.059931768
0.048182972
0.028989169
0.012807644
0.0071588995
0.0057729339
0.0051426272
0.0047697016
0.0045351568
0.0043856017
0.0042800701
0.0042107153
0.0041650772
0.004140571
0.006497159
0.0067106493
0.0071890182
0.008070181
0.0094802145
0.01147277
0.014066605
0.01727415
0.021089287