/*--------------------------------*- C++ -*----------------------------------*\
| =========                 |                                                 |
| \\      /  F ield         | OpenFOAM: The Open Source CFD Toolbox           |
|  \\    /   O peration     | Version:  2406                                  |
|   \\  /    A nd           | Website:  www.openfoam.com                      |
|    \\/     M anipulation  |                                                 |
\*---------------------------------------------------------------------------*/
FoamFile
{
    version     2.0;
    format      ascii;
    arch        "LSB;label=32;scalar=64";
    class       volScalarField;
    location    "0.094";
    object      rho;
}
// * * * * * * * * * * * * * * * * * * * * * * * * * * * * * * * * * * * * * //

dimensions      [1 -3 0 0 0 0 0];

internalField   nonuniform List<scalar> 
8260
(
1.1999941
1.1990598
1.1985148
1.1978329
1.1971925
1.1967092
1.1964153
1.1963146
1.1964024
1.1966592
1.1970911
1.1976761
1.1983833
1.1991715
1.1999853
1.2008112
1.2011854
1.2012531
1.2013551
1.2015137
1.2016632
1.2017963
1.201918
1.2020214
1.2021156
1.2021942
1.2022571
1.2023093
1.2023524
1.20238
1.2024021
1.2015767
1.2007811
1.1999947
1.1991358
1.1983738
1.1977787
1.1973693
1.1971581
1.1971318
1.1972819
1.197614
1.1981116
1.1987386
1.1994656
1.2001886
1.2009355
1.2012362
1.201303
1.2014047
1.2015562
1.2016974
1.2018237
1.2019401
1.2020391
1.2021299
1.2022058
1.2022666
1.2023173
1.2023592
1.202386
1.2024077
1.2025376
1.2018309
1.200989
1.2000771
1.1992675
1.1986137
1.1981325
1.1978463
1.1977456
1.1978027
1.198058
1.1984867
1.199054
1.1997419
1.2004023
1.2010887
1.2013055
1.2013699
1.2014665
1.2016068
1.2017378
1.201856
1.2019659
1.2020598
1.2021464
1.2022191
1.2022776
1.2023264
1.202367
1.2023929
1.2024141
1.2032693
1.2026248
1.2018083
1.2008998
1.2000724
1.1993819
1.1988471
1.1984907
1.1983165
1.1983087
1.1984963
1.1988616
1.1993758
1.2000276
1.2006349
1.2012528
1.2013919
1.2014472
1.2015375
1.2016643
1.2017837
1.2018926
1.2019952
1.2020833
1.2021652
1.2022344
1.20229
1.2023368
1.2023758
1.2024007
1.2024214
1.2038628
1.2032794
1.2025206
1.201652
1.2008373
1.2001359
1.1995691
1.19916
1.1989225
1.1988569
1.1989799
1.1992821
1.1997424
1.2003497
1.200899
1.2014224
1.2014968
1.2015366
1.2016189
1.2017297
1.201836
1.2019345
1.2020286
1.2021101
1.2021866
1.2022517
1.2023041
1.2023486
1.2023859
1.2024096
1.2024296
1.2043086
1.2037802
1.2030978
1.2023018
1.2015339
1.2008525
1.2002811
1.1998442
1.1995624
1.199447
1.1995116
1.1997535
1.200161
1.2007149
1.2011969
1.2015962
1.201621
1.2016401
1.2017119
1.2018042
1.2018954
1.2019821
1.2020666
1.2021406
1.2022109
1.2022714
1.2023202
1.202362
1.2023973
1.2024198
1.2024389
1.204609
1.2041337
1.2035321
1.2028339
1.2021432
1.2015112
1.2009632
1.2005249
1.2002208
1.2000694
1.200086
1.2002744
1.2006336
1.2011238
1.2015239
1.2017766
1.2017621
1.2017609
1.2018177
1.2018889
1.2019629
1.2020364
1.2021099
1.2021755
1.2022386
1.2022938
1.2023386
1.2023773
1.2024103
1.2024313
1.2024496
1.2047868
1.2043692
1.2038608
1.2032695
1.2026717
1.2021104
1.2016097
1.2011943
1.2008901
1.2007196
1.2007013
1.200846
1.2011635
1.2015731
1.2018697
1.2019738
1.2019179
1.2019012
1.2019372
1.2019846
1.2020395
1.202098
1.2021591
1.2022152
1.2022701
1.2023192
1.2023594
1.2023948
1.202425
1.2024445
1.2024616
1.204901
1.2045272
1.2041081
1.2036282
1.2031346
1.2026599
1.2022252
1.2018533
1.2015692
1.2013968
1.2013574
1.2014695
1.2017504
1.2020517
1.2022241
1.2021924
1.2020923
1.2020622
1.2020712
1.2020924
1.2021264
1.2021678
1.2022148
1.2022604
1.2023061
1.2023482
1.2023831
1.2024147
1.2024418
1.2024595
1.2024753
1.2049785
1.2046772
1.2043263
1.203948
1.2035639
1.203185
1.2028278
1.2025131
1.2022639
1.2021038
1.2020561
1.2021446
1.2023799
1.2025587
1.2025759
1.2024216
1.2022929
1.2022436
1.2022194
1.2022132
1.2022247
1.2022466
1.2022776
1.2023117
1.2023472
1.2023812
1.2024101
1.2024373
1.202461
1.2024766
1.202491
1.2050287
1.2048803
1.2046438
1.2043587
1.20405
1.2037442
1.2034552
1.2031975
1.202989
1.2028508
1.2028071
1.202877
1.2030409
1.20307
1.2028943
1.2026633
1.2025259
1.2024432
1.2023821
1.2023482
1.202335
1.202335
1.2023486
1.2023699
1.2023937
1.2024188
1.2024408
1.202463
1.2024828
1.2024961
1.2025087
1.205227
1.2051447
1.2050066
1.2048002
1.2045717
1.204345
1.2041286
1.2039321
1.2037694
1.2036609
1.2036296
1.203665
1.203674
1.203496
1.2031777
1.2029365
1.2027809
1.2026551
1.2025604
1.2024967
1.2024581
1.2024344
1.2024285
1.2024353
1.2024462
1.2024616
1.2024758
1.2024921
1.2025077
1.2025184
1.202529
1.2056344
1.2056766
1.2056324
1.2054716
1.2052846
1.2051059
1.2049404
1.2047888
1.2046553
1.2045489
1.2044683
1.2043658
1.2041366
1.2037824
1.2034675
1.2032333
1.2030386
1.2028797
1.2027513
1.2026588
1.2025936
1.2025449
1.202518
1.2025084
1.2025051
1.20251
1.2025158
1.2025252
1.2025359
1.2025436
1.2025519
1.2064866
1.2064237
1.2062787
1.206097
1.2059266
1.2057945
1.2056891
1.2055779
1.2054384
1.2052613
1.2050344
1.2047419
1.2043927
1.2040583
1.203772
1.2035183
1.2032964
1.2031065
1.2029511
1.2028308
1.2027398
1.2026667
1.202617
1.2025896
1.2025708
1.202564
1.2025611
1.2025627
1.2025676
1.2025718
1.2025779
1.2067727
1.2068309
1.2068622
1.2068662
1.2067848
1.2065948
1.2063706
1.20614
1.2058829
1.2055929
1.2052844
1.2049596
1.2046412
1.2043401
1.2040562
1.2037912
1.2035435
1.2033304
1.2031526
1.203008
1.2028924
1.2027969
1.2027256
1.2026791
1.2026436
1.2026241
1.202612
1.202605
1.2026032
1.2026034
1.202607
1.2067784
1.2067049
1.2065907
1.206447
1.206338
1.2062788
1.2062286
1.2061762
1.206045
1.2057974
1.2055035
1.205189
1.2048817
1.204583
1.2043028
1.2040404
1.2037851
1.2035494
1.2033514
1.2031849
1.2030466
1.2029329
1.2028417
1.2027764
1.2027245
1.2026904
1.2026681
1.2026524
1.2026429
1.2026384
1.2026395
1.2067597
1.2067037
1.2066295
1.2065407
1.2064447
1.2063359
1.2061859
1.2059818
1.2058056
1.2057188
1.2055852
1.2053403
1.2050586
1.2047697
1.2044938
1.2042453
1.2040065
1.2037652
1.203546
1.2033589
1.2032001
1.2030701
1.202963
1.2028809
1.2028128
1.2027631
1.2027294
1.2027046
1.2026872
1.2026773
1.2026758
1.2064897
1.2064401
1.2063798
1.2063119
1.2062358
1.2061495
1.2060536
1.2059485
1.205826
1.2056623
1.2054931
1.2053706
1.2052131
1.2049509
1.2046558
1.2043952
1.2041747
1.2039538
1.2037327
1.2035296
1.2033529
1.2032075
1.203086
1.2029893
1.2029069
1.2028421
1.2027957
1.2027617
1.2027363
1.2027204
1.2027161
1.2062901
1.206252
1.2062048
1.2061507
1.2060881
1.2060149
1.2059288
1.2058291
1.2057176
1.2055979
1.2054754
1.2053257
1.205182
1.2050623
1.2048231
1.2045405
1.2043001
1.2040914
1.2038887
1.2036889
1.2035048
1.2033455
1.203208
1.2030985
1.2030045
1.202927
1.2028674
1.2028235
1.2027904
1.2027683
1.2027609
1.2060269
1.2059954
1.2059568
1.2059134
1.2058648
1.2058101
1.2057489
1.2056802
1.2056017
1.2055102
1.2054023
1.2052833
1.2051305
1.2049916
1.2049146
1.204719
1.2044552
1.2042141
1.2040123
1.2038224
1.2036448
1.2034821
1.2033293
1.2032072
1.2031043
1.2030161
1.2029452
1.2028905
1.2028499
1.2028217
1.2028106
1.2058113
1.2057877
1.2057584
1.2057251
1.2056871
1.205643
1.2055915
1.2055312
1.2054616
1.2053826
1.2052933
1.2051878
1.2050778
1.2049442
1.2048183
1.204752
1.2045997
1.2043797
1.2041511
1.2039445
1.2037654
1.2036081
1.2034534
1.2033171
1.2032057
1.2031088
1.2030289
1.2029633
1.2029147
1.2028807
1.2028656
1.2055571
1.2055376
1.2055136
1.2054869
1.2054569
1.2054229
1.2053844
1.2053408
1.2052913
1.2052345
1.2051692
1.2050974
1.2050142
1.2049138
1.2047703
1.204627
1.2045697
1.2044757
1.2042895
1.2040764
1.2038783
1.2037191
1.2035752
1.2034311
1.2033097
1.2032041
1.2031167
1.2030415
1.2029848
1.2029453
1.2029261
1.2053544
1.2053406
1.2053234
1.2053042
1.2052823
1.2052568
1.205227
1.205192
1.2051509
1.2051027
1.2050463
1.2049803
1.2049052
1.2048283
1.2047554
1.2046493
1.2044857
1.2043775
1.2043229
1.2041813
1.2039935
1.2038228
1.2036806
1.2035411
1.203414
1.2032999
1.2032053
1.2031242
1.20306
1.203015
1.2029919
1.2051171
1.2051053
1.2050909
1.2050751
1.2050573
1.2050371
1.2050139
1.2049876
1.2049577
1.2049238
1.2048855
1.2048419
1.2047921
1.2047306
1.2046559
1.2045839
1.204511
1.2043878
1.2042646
1.2042049
1.2040699
1.2039146
1.2037635
1.2036312
1.2035089
1.2033937
1.2032932
1.2032088
1.203139
1.2030893
1.2030629
1.204941
1.2049332
1.2049236
1.2049127
1.2049002
1.2048858
1.2048691
1.2048497
1.2048273
1.204801
1.2047701
1.2047332
1.2046886
1.2046372
1.2045794
1.2045108
1.2044436
1.2043854
1.2042852
1.2041639
1.2040921
1.2039735
1.2038371
1.2037051
1.2035914
1.2034835
1.2033805
1.2032935
1.2032209
1.2031674
1.2031383
1.2047401
1.2047335
1.2047256
1.204717
1.2047074
1.2046966
1.204684
1.2046695
1.2046525
1.2046328
1.2046103
1.2045855
1.2045581
1.2045267
1.2044894
1.2044444
1.2043832
1.2043138
1.2042589
1.2041921
1.20411
1.2040337
1.2039104
1.2037817
1.2036692
1.2035654
1.2034661
1.2033782
1.2033042
1.2032482
1.2032173
1.2046022
1.2045979
1.2045927
1.2045868
1.2045801
1.2045723
1.2045632
1.2045527
1.2045404
1.204526
1.2045088
1.2044876
1.2044622
1.2044328
1.2043999
1.2043639
1.2043286
1.20428
1.2042202
1.2041646
1.2040998
1.2040423
1.2039677
1.2038509
1.2037429
1.2036389
1.2035467
1.2034608
1.2033864
1.2033302
1.2032982
1.2044658
1.2044621
1.2044577
1.204453
1.2044477
1.2044417
1.204435
1.2044276
1.2044194
1.2044103
1.2044004
1.2043894
1.2043766
1.2043606
1.2043401
1.2043142
1.2042799
1.2042451
1.2041977
1.2041389
1.204084
1.204
1.2039244
1.203871
1.2037942
1.2037043
1.2036177
1.2035375
1.2034659
1.2034105
1.2033781
1.2043745
1.2043723
1.2043696
1.2043666
1.2043631
1.204359
1.2043541
1.2043482
1.2043411
1.2043325
1.204322
1.2043093
1.2042943
1.2042767
1.2042565
1.2042336
1.2042075
1.2041748
1.2041403
1.2040993
1.2040505
1.2040046
1.2039611
1.2039102
1.2038332
1.2037594
1.2036815
1.2036056
1.2035383
1.203485
1.2034533
1.2042788
1.2042762
1.2042732
1.2042699
1.2042662
1.2042619
1.2042569
1.2042513
1.2042449
1.2042376
1.2042293
1.2042198
1.2042089
1.2041963
1.204182
1.2041655
1.2041464
1.2041244
1.2040981
1.2040689
1.2040335
1.203989
1.2039574
1.2039176
1.2038589
1.2037977
1.2037298
1.2036631
1.2036027
1.2035532
1.2035232
1.204159
1.2041581
1.204157
1.2041559
1.2041547
1.2041533
1.2041516
1.2041497
1.2041474
1.2041445
1.2041411
1.2041369
1.2041318
1.2041259
1.2041185
1.2041096
1.2040985
1.2040846
1.2040681
1.204048
1.2040253
1.2040007
1.2039562
1.2039025
1.2038583
1.2038075
1.203752
1.2036943
1.2036392
1.2035932
1.2035645
1.1884292
1.1887742
1.1891805
1.1895469
1.1898428
1.1901314
1.1905002
1.1909707
1.1915149
1.1921756
1.1929419
1.1937971
1.1947284
1.1957129
1.1967286
1.1978277
1.1988021
1.1997894
1.2002658
1.2005418
1.2007854
1.2010448
1.2012927
1.2015032
1.2016828
1.2018311
1.2019508
1.2020458
1.20212
1.2021685
1.2022004
1.1892701
1.189551
1.1896986
1.1898445
1.1900239
1.1902857
1.1906681
1.1911755
1.1917795
1.1924813
1.1932693
1.1941318
1.1950579
1.1960212
1.1970092
1.1980625
1.1990128
1.1998967
1.2002777
1.2005673
1.2008147
1.2010756
1.2013192
1.2015249
1.2017008
1.2018461
1.2019632
1.2020563
1.2021292
1.2021768
1.2022088
1.189094
1.1891999
1.1892877
1.1894726
1.1897558
1.1901281
1.1906102
1.1912063
1.1918749
1.1926269
1.1934523
1.1943391
1.195277
1.1962378
1.197222
1.1982423
1.1991998
1.1999924
1.2003157
1.2006035
1.2008512
1.2011101
1.2013477
1.201548
1.2017199
1.2018618
1.2019762
1.2020672
1.2021387
1.2021854
1.2022172
1.1886754
1.1888084
1.1889658
1.1892232
1.1895748
1.19002
1.1905702
1.191221
1.1919425
1.1927386
1.193597
1.194506
1.1954559
1.1964186
1.1974131
1.1984023
1.1993616
1.2000822
1.2003666
1.2006403
1.2008879
1.201144
1.2013758
1.2015709
1.2017389
1.2018774
1.2019891
1.2020782
1.2021482
1.202194
1.2022254
1.1880703
1.1882736
1.1885189
1.1888756
1.1893312
1.1898778
1.1905154
1.1912338
1.1920143
1.1928549
1.1937444
1.1946734
1.195633
1.1965972
1.1976042
1.1985718
1.1995077
1.2001621
1.200416
1.2006776
1.200926
1.2011782
1.201404
1.201594
1.201758
1.2018932
1.2020022
1.2020893
1.2021579
1.2022027
1.2022336
1.1873315
1.1876389
1.1880142
1.1885053
1.1890857
1.1897415
1.1904685
1.1912571
1.1920952
1.1929781
1.1938964
1.1948433
1.1958105
1.1967751
1.1977929
1.1987467
1.1996312
1.2002274
1.2004623
1.2007156
1.2009647
1.2012123
1.201432
1.201617
1.2017772
1.201909
1.2020153
1.2021004
1.2021676
1.2022114
1.2022417
1.1864471
1.1869309
1.1874849
1.1881338
1.1888482
1.1896154
1.1904317
1.1912906
1.1921833
1.1931051
1.1940496
1.1950121
1.1959847
1.1969483
1.1979708
1.1989116
1.1997506
1.2002856
1.2005063
1.2007547
1.2010041
1.2012463
1.20146
1.20164
1.2017964
1.2019249
1.2020286
1.2021116
1.2021773
1.2022202
1.2022499
1.1855716
1.186256
1.1869922
1.1877946
1.1886384
1.1895116
1.1904129
1.1913377
1.19228
1.1932364
1.1942035
1.1951791
1.1961545
1.1971177
1.1981363
1.1990651
1.1998777
1.2003403
1.2005493
1.2007952
1.2010437
1.2012801
1.2014879
1.201663
1.2018155
1.2019408
1.2020418
1.2021229
1.2021872
1.2022291
1.2022582
1.1847979
1.185665
1.1865606
1.1875052
1.18847
1.18944
1.1904182
1.1914017
1.192387
1.1933727
1.1943585
1.1953442
1.1963208
1.1972937
1.1982996
1.1992058
1.1999967
1.200395
1.2005925
1.200837
1.2010835
1.2013137
1.2015156
1.201686
1.2018347
1.2019567
1.2020551
1.2021343
1.2021971
1.202238
1.2022665
1.1841481
1.1851854
1.1862121
1.1872876
1.1883602
1.1894099
1.1904527
1.1914853
1.1925057
1.1935146
1.1945148
1.1955076
1.1964857
1.1974725
1.1984576
1.19934
1.200101
1.2004501
1.2006367
1.2008799
1.2011233
1.201347
1.2015433
1.2017089
1.2018538
1.2019726
1.2020685
1.2021456
1.202207
1.2022469
1.2022749
1.183653
1.1848235
1.1859914
1.1871693
1.1883209
1.1894283
1.1905219
1.1915911
1.1926369
1.1936622
1.1946723
1.195671
1.1966557
1.1976501
1.1986017
1.1994683
1.2001931
1.2005057
1.2006822
1.2009236
1.2011628
1.2013801
1.2015707
1.2017316
1.2018728
1.2019885
1.2020818
1.202157
1.202217
1.2022559
1.2022834
1.1833967
1.1846645
1.1859156
1.1871464
1.1883423
1.1895039
1.1906335
1.191723
1.1927828
1.1938169
1.1948332
1.1958379
1.1968312
1.1978006
1.1987263
1.1995928
1.2002776
1.2005607
1.2007286
1.2009678
1.2012021
1.2014129
1.2015979
1.2017543
1.2018917
1.2020043
1.2020951
1.2021685
1.202227
1.2022649
1.2022919
1.1834149
1.1847205
1.1859949
1.1872421
1.1884565
1.189635
1.1907812
1.1918879
1.1929509
1.1939864
1.1950039
1.1960101
1.1969778
1.197919
1.1988543
1.1997066
1.2003577
1.2006145
1.2007761
1.2010124
1.2012411
1.2014454
1.201625
1.2017768
1.2019105
1.2020201
1.2021084
1.2021799
1.202237
1.202274
1.2023004
1.1836978
1.1849953
1.1862409
1.1874632
1.1886632
1.1898337
1.1909795
1.1920904
1.1931541
1.1941815
1.1951837
1.196153
1.1971022
1.1980432
1.198974
1.1998075
1.2004368
1.2006679
1.2008246
1.2010571
1.2012796
1.2014775
1.2016517
1.2017991
1.2019291
1.2020358
1.2021216
1.2021913
1.2022471
1.202283
1.202309
1.1841022
1.1854075
1.1866227
1.1878047
1.1889692
1.1901137
1.1912404
1.1923217
1.1933623
1.1943574
1.19531
1.196266
1.1972382
1.1981655
1.1990837
1.1999122
1.2005157
1.2007216
1.2008738
1.2011016
1.2013177
1.2015092
1.2016782
1.2018211
1.2019476
1.2020514
1.2021348
1.2022026
1.2022571
1.2022921
1.2023176
1.1844939
1.1857956
1.1870136
1.1881839
1.1893182
1.190421
1.1915024
1.1925132
1.1934844
1.1944658
1.195453
1.1964158
1.1973752
1.1982829
1.199189
1.2000185
1.2005924
1.2007764
1.2009234
1.2011458
1.2013553
1.2015405
1.2017044
1.2018429
1.2019659
1.2020668
1.2021478
1.2022139
1.2022671
1.2023012
1.2023262
1.1855079
1.1865378
1.1875491
1.188588
1.1896381
1.1906688
1.191655
1.1926554
1.1936802
1.1946548
1.1956205
1.1965694
1.1975095
1.1983954
1.1992901
1.200119
1.2006662
1.200832
1.2009727
1.2011893
1.2013922
1.2015713
1.2017301
1.2018644
1.2019839
1.202082
1.2021608
1.2022252
1.202277
1.2023103
1.2023348
1.1872367
1.1879875
1.1886896
1.1894564
1.1902938
1.1911684
1.1920481
1.1929783
1.1939414
1.1948678
1.195795
1.1967202
1.1976402
1.1985039
1.1993866
1.2002151
1.2007366
1.2008878
1.2010216
1.2012323
1.2014286
1.2016016
1.2017555
1.2018856
1.2020017
1.2020971
1.2021737
1.2022363
1.202287
1.2023194
1.2023434
1.18881
1.1894082
1.1899092
1.1904631
1.1911
1.1917998
1.1925376
1.1933546
1.1942332
1.195093
1.1959731
1.1968692
1.1977674
1.198609
1.1994784
1.2003078
1.2008045
1.2009437
1.2010705
1.2012747
1.2014643
1.2016314
1.2017804
1.2019065
1.2020192
1.2021119
1.2021864
1.2022474
1.2022968
1.2023284
1.2023521
1.190532
1.1909189
1.191192
1.1915293
1.1919655
1.192482
1.1930656
1.1937609
1.1945449
1.1953307
1.1961547
1.1970157
1.1978897
1.1987107
1.1995656
1.2003971
1.2008703
1.2009993
1.201119
1.2013162
1.2014992
1.2016604
1.2018047
1.2019268
1.2020363
1.2021265
1.2021989
1.2022583
1.2023066
1.2023374
1.2023607
1.1924348
1.1925719
1.1925856
1.192679
1.1928917
1.1932083
1.1936393
1.1942015
1.1948723
1.1955803
1.1963402
1.1971588
1.1980058
1.1988088
1.1996481
1.2004798
1.2009334
1.2010531
1.2011664
1.2013563
1.2015329
1.2016885
1.2018282
1.2019466
1.2020529
1.2021408
1.2022112
1.2022691
1.2023163
1.2023465
1.2023692
1.1945207
1.1943686
1.194105
1.193931
1.1938903
1.1940147
1.1942951
1.1946914
1.195227
1.195853
1.1965407
1.1973073
1.1981215
1.1989063
1.1997266
1.200552
1.200991
1.2011015
1.2012115
1.2013946
1.2015651
1.2017155
1.201851
1.2019658
1.2020692
1.2021548
1.2022233
1.2022798
1.202326
1.2023555
1.2023779
1.196876
1.1964434
1.1959257
1.1954627
1.1951608
1.1950503
1.1951039
1.1953158
1.1956876
1.1961993
1.1967955
1.1974925
1.1982593
1.1990176
1.1998083
1.2006152
1.2010397
1.2011425
1.2012548
1.201432
1.2015968
1.201742
1.2018735
1.2019848
1.2020853
1.2021687
1.2022354
1.2022905
1.2023356
1.2023645
1.2023869
1.1992768
1.1987468
1.1981736
1.1975015
1.1968946
1.1964587
1.1962191
1.196184
1.1963463
1.1966728
1.1971407
1.1977413
1.1984396
1.1991605
1.1999098
1.200688
1.2010897
1.2011871
1.2013025
1.2014724
1.2016303
1.2017699
1.2018968
1.2020043
1.2021017
1.2021827
1.2022475
1.2023011
1.2023452
1.2023734
1.2023959
1.1888892
1.1892423
1.1896295
1.1899921
1.1903192
1.190628
1.1909749
1.191401
1.1918892
1.19249
1.1931956
1.1939929
1.1948687
1.1958024
1.1967624
1.1977958
1.1987158
1.1996478
1.2002052
1.2004929
1.2007471
1.2010121
1.2012659
1.2014814
1.2016649
1.2018164
1.2019387
1.2020356
1.2021113
1.2021607
1.2021938
1.1890813
1.1894798
1.1898572
1.1901938
1.1904988
1.1908026
1.1911391
1.1915124
1.1919696
1.192538
1.1932124
1.1939827
1.1948369
1.1957566
1.1967108
1.1977372
1.1986852
1.1995905
1.2001933
1.2004763
1.2007275
1.200993
1.2012494
1.2014675
1.2016531
1.2018065
1.2019305
1.2020286
1.2021052
1.2021552
1.2021887
1.18912
1.1894951
1.1898861
1.1902578
1.1905867
1.190904
1.1912439
1.1916143
1.1920631
1.1926107
1.1932598
1.1940049
1.1948361
1.1957377
1.1966819
1.1976934
1.1986589
1.199559
1.2001784
1.2004665
1.2007141
1.2009783
1.2012359
1.2014556
1.2016426
1.2017974
1.2019226
1.2020217
1.202099
1.2021497
1.2021809
1.189153
1.1895106
1.189927
1.1903225
1.190679
1.1910157
1.1913641
1.1917427
1.1921862
1.1927148
1.1933383
1.1940562
1.194861
1.1957397
1.1966677
1.1976557
1.1986241
1.1995274
1.2001568
1.2004534
1.2006993
1.2009629
1.2012218
1.2014431
1.2016314
1.2017876
1.2019141
1.2020144
1.2020924
1.2021437
1.202171
1.189215
1.1895647
1.1899992
1.190408
1.1907808
1.1911329
1.1914904
1.1918751
1.1923135
1.1928255
1.1934255
1.1941167
1.1948948
1.1957491
1.1966583
1.1976185
1.1985835
1.1994891
1.2001303
1.2004377
1.2006824
1.2009454
1.2012059
1.2014291
1.2016191
1.201777
1.2019049
1.2020063
1.2020853
1.2021372
1.2021626
1.1892962
1.1896296
1.1900705
1.1904917
1.1908777
1.1912432
1.1916103
1.1920001
1.1924347
1.1929336
1.1935131
1.1941796
1.1949318
1.1957614
1.1966506
1.197582
1.1985411
1.1994491
1.2001003
1.2004208
1.2006646
1.2009267
1.2011889
1.2014141
1.2016059
1.2017654
1.201895
1.2019977
1.2020776
1.2021303
1.2021563
1.1893805
1.1896937
1.1901327
1.190565
1.1909656
1.191345
1.1917227
1.1921182
1.1925508
1.1930394
1.193601
1.1942448
1.1949721
1.1957771
1.1966453
1.197549
1.1985029
1.1994096
1.2000717
1.2004027
1.2006468
1.2009074
1.2011711
1.2013983
1.2015919
1.2017531
1.2018844
1.2019885
1.2020694
1.2021229
1.2021517
1.1894672
1.1897638
1.1901961
1.1906362
1.19105
1.1914429
1.1918311
1.1922323
1.1926643
1.1931446
1.1936906
1.1943132
1.1950166
1.1957971
1.1966434
1.1975244
1.1984676
1.1993663
1.2000475
1.2003848
1.2006293
1.2008879
1.2011529
1.2013819
1.2015773
1.2017403
1.2018733
1.2019788
1.2020607
1.202115
1.2021421
1.1895657
1.1898495
1.1902705
1.1907133
1.1911368
1.1915409
1.1919384
1.1923449
1.1927766
1.1932501
1.1937823
1.1943854
1.1950657
1.195822
1.1966458
1.1975081
1.1984296
1.1993163
1.2000238
1.2003682
1.2006123
1.2008681
1.2011341
1.201365
1.201562
1.2017267
1.2018615
1.2019685
1.2020515
1.2021067
1.2021309
1.1896823
1.1899551
1.190363
1.1908014
1.1912307
1.1916429
1.1920476
1.1924583
1.1928895
1.1933569
1.1938765
1.1944615
1.1951197
1.1958521
1.1966528
1.197497
1.1983924
1.1992665
1.1999958
1.2003528
1.2005959
1.2008483
1.2011149
1.2013474
1.2015461
1.2017125
1.2018491
1.2019576
1.2020417
1.2020978
1.2021213
1.1898199
1.1900819
1.1904729
1.1909068
1.1913356
1.1917524
1.1921616
1.1925746
1.1930046
1.193466
1.193974
1.194542
1.195179
1.1958878
1.196665
1.1974901
1.1983642
1.1992233
1.1999612
1.2003384
1.2005803
1.2008284
1.2010953
1.2013292
1.2015295
1.2016976
1.201836
1.201946
1.2020313
1.2020883
1.2021121
1.189983
1.1902337
1.1906051
1.1910279
1.1914549
1.1918721
1.1922827
1.1926959
1.1931235
1.1935787
1.1940756
1.1946274
1.195244
1.1959297
1.196683
1.1974877
1.1983422
1.1991868
1.1999257
1.2003259
1.2005659
1.2008087
1.2010754
1.2013105
1.2015123
1.2016819
1.2018223
1.2019338
1.2020203
1.2020783
1.202103
1.1901718
1.190411
1.1907609
1.1911686
1.1915889
1.1920039
1.1924131
1.1928244
1.1932481
1.1936963
1.1941821
1.1947184
1.1953152
1.1959782
1.1967074
1.1974907
1.1983241
1.1991484
1.1998886
1.2003166
1.200553
1.2007894
1.2010553
1.2012914
1.2014944
1.2016656
1.2018078
1.2019209
1.2020086
1.2020677
1.2020934
1.1903868
1.1906127
1.1909399
1.1913293
1.1917391
1.1921485
1.1925541
1.1929612
1.1933796
1.1938201
1.1942947
1.1948158
1.1953934
1.1960339
1.1967388
1.1974994
1.19831
1.1991126
1.1998486
1.2003076
1.2005419
1.2007709
1.2010352
1.2012718
1.2014761
1.2016486
1.2017926
1.2019074
1.2019963
1.2020564
1.2020832
1.1906237
1.1908357
1.1911393
1.1915078
1.1919042
1.1923055
1.1927053
1.1931071
1.1935189
1.193951
1.1944143
1.1949204
1.1954791
1.1960974
1.1967777
1.1975146
1.198301
1.1990806
1.1998102
1.2002977
1.2005325
1.2007535
1.2010153
1.2012521
1.2014573
1.201631
1.2017767
1.2018931
1.2019833
1.2020444
1.2020721
1.190877
1.1910747
1.1913548
1.1917003
1.1920811
1.1924728
1.1928659
1.1932616
1.1936665
1.1940898
1.1945417
1.195033
1.1955732
1.1961693
1.1968249
1.1975365
1.1982955
1.1990509
1.1997747
1.2002888
1.2005252
1.2007375
1.2009958
1.2012321
1.2014381
1.2016128
1.2017602
1.2018782
1.2019696
1.2020317
1.2020601
1.191139
1.1913225
1.1915805
1.1919029
1.1922668
1.1926481
1.1930343
1.193424
1.1938223
1.1942371
1.1946778
1.1951545
1.1956765
1.1962506
1.196881
1.1975657
1.1982919
1.1990222
1.1997444
1.2002825
1.2005198
1.2007232
1.2009768
1.2012122
1.2014186
1.2015941
1.2017429
1.2018625
1.2019552
1.2020184
1.2020474
1.1914016
1.1915723
1.1918101
1.1921106
1.1924579
1.192829
1.1932089
1.1935935
1.193986
1.1943932
1.1948235
1.1952861
1.19579
1.1963422
1.196947
1.197603
1.1982938
1.199003
1.1997293
1.2002795
1.2005174
1.2007115
1.2009586
1.2011924
1.201399
1.201575
1.2017251
1.2018462
1.20194
1.2020043
1.2020341
1.1916655
1.1918235
1.1920418
1.1923234
1.192655
1.1930161
1.1933903
1.1937709
1.1941587
1.1945591
1.1949797
1.1954288
1.1959148
1.196445
1.1970239
1.197651
1.1983125
1.1990031
1.1997217
1.200274
1.2005172
1.2007024
1.2009416
1.2011729
1.2013792
1.2015555
1.2017066
1.2018292
1.2019242
1.2019895
1.20202
1.1919344
1.1920876
1.1922902
1.1925469
1.1928622
1.1932134
1.193582
1.1939588
1.1943426
1.194737
1.1951483
1.195584
1.1960523
1.1965602
1.1971129
1.1977112
1.1983458
1.1990102
1.1996987
1.2002656
1.2005233
1.200697
1.2009259
1.201154
1.2013595
1.2015358
1.2016877
1.2018115
1.2019076
1.2019739
1.2020052
1.1922075
1.1923509
1.1925507
1.1928016
1.1931013
1.1934376
1.1937959
1.1941658
1.1945435
1.1949306
1.1953318
1.1957537
1.1962039
1.1966891
1.197215
1.1977838
1.19839
1.1990258
1.1996827
1.2002592
1.2005344
1.2006952
1.2009119
1.2011355
1.2013401
1.201516
1.2016682
1.2017933
1.2018903
1.2019575
1.2019896
1.1925219
1.1926564
1.1928469
1.1930869
1.1933702
1.1936912
1.1940373
1.1943975
1.1947666
1.1951441
1.1955335
1.1959403
1.1963711
1.1968326
1.1973309
1.197869
1.1984449
1.1990517
1.1996821
1.2002503
1.2005477
1.2006979
1.2009005
1.2011192
1.2013208
1.2014962
1.2016485
1.2017744
1.2018724
1.2019405
1.2019731
1.1929039
1.1930308
1.193205
1.1934237
1.1936875
1.1939896
1.1943183
1.1946633
1.1950186
1.1953826
1.1957569
1.1961458
1.1965553
1.1969917
1.1974611
1.1979675
1.1985111
1.1990873
1.1996897
1.2002484
1.2005627
1.2007062
1.2008927
1.2011027
1.2013024
1.2014766
1.2016283
1.201755
1.2018539
1.2019227
1.2019558
1.1933557
1.1934731
1.1936321
1.1938295
1.1940682
1.1943441
1.1946479
1.1949702
1.195305
1.1956496
1.1960042
1.1963718
1.1967572
1.1971666
1.1976056
1.198079
1.1985886
1.1991311
1.1996965
1.2002326
1.2005917
1.2007202
1.2008835
1.2010898
1.2012851
1.2014574
1.2016084
1.2017352
1.2018347
1.2019042
1.2019377
1.1938571
1.1939654
1.1941076
1.1942828
1.1944971
1.194745
1.1950198
1.1953145
1.1956237
1.1959441
1.1962748
1.1966175
1.1969764
1.1973565
1.1977637
1.198203
1.1986772
1.1991839
1.1997119
1.2002421
1.2006158
1.2007396
1.200885
1.2010805
1.2012696
1.2014387
1.2015881
1.201715
1.201815
1.201885
1.201919
1.1943882
1.1944831
1.1946119
1.1947707
1.1949581
1.1951757
1.1954199
1.1956852
1.1959663
1.1962597
1.1965639
1.1968795
1.1972098
1.1975593
1.1979335
1.198338
1.1987763
1.199248
1.1997454
1.2002581
1.2006349
1.2007616
1.2008967
1.2010713
1.2012536
1.2014214
1.2015686
1.2016947
1.2017949
1.2018653
1.2018996
1.1949323
1.1950131
1.1951252
1.1952609
1.1954229
1.195613
1.1958287
1.1960656
1.1963193
1.1965858
1.1968631
1.1971511
1.1974524
1.1977709
1.1981121
1.1984817
1.1988842
1.199321
1.1997878
1.2002764
1.2006654
1.2007747
1.2008903
1.2010718
1.2012459
1.2014042
1.2015497
1.2016743
1.2017743
1.201845
1.2018797
1.1954654
1.195536
1.1956296
1.1957437
1.1958814
1.1960449
1.1962331
1.1964426
1.1966697
1.1969105
1.1971621
1.1974237
1.1976971
1.1979858
1.198295
1.1986306
1.1989979
1.1993997
1.1998339
1.2002934
1.2006802
1.2007949
1.2009091
1.2010744
1.2012364
1.2013906
1.201531
1.2016541
1.2017538
1.2018244
1.2018592
1.1959909
1.1960436
1.1961175
1.1962096
1.1963229
1.1964598
1.1966205
1.1968033
1.1970048
1.1972212
1.1974492
1.1976871
1.1979353
1.1981967
1.1984764
1.1987801
1.1991139
1.1994818
1.1998834
1.2003141
1.2006949
1.2008304
1.2009293
1.2010778
1.2012288
1.2013763
1.2015152
1.2016347
1.2017328
1.2018033
1.2018384
1.1964816
1.1965215
1.1965797
1.1966525
1.1967425
1.1968527
1.1969853
1.1971402
1.1973156
1.1975082
1.1977144
1.1979312
1.1981578
1.1983959
1.1986497
1.1989252
1.1992285
1.1995647
1.1999346
1.2003364
1.2007152
1.2008683
1.2009481
1.20108
1.2012256
1.201366
1.2014984
1.2016155
1.2017126
1.2017823
1.2018171
1.1969424
1.1969788
1.1970223
1.1970766
1.1971445
1.1972288
1.1973323
1.1974573
1.197604
1.1977706
1.1979538
1.1981503
1.1983577
1.1985763
1.1988089
1.1990607
1.1993378
1.199646
1.1999878
1.2003622
1.2007321
1.2009076
1.2009709
1.2010861
1.2012237
1.2013592
1.2014855
1.2015982
1.2016922
1.2017609
1.2017956
1.197282
1.1973077
1.1973581
1.1974209
1.1974858
1.1975539
1.1976365
1.1977378
1.1978596
1.198002
1.198163
1.1983398
1.19853
1.1987325
1.1989486
1.199182
1.1994381
1.1997228
1.2000402
1.2003902
1.2007492
1.2009473
1.2009974
1.2010989
1.2012284
1.2013555
1.201474
1.2015816
1.2016728
1.2017402
1.2017741
1.1975932
1.1976039
1.1976217
1.1976491
1.1976964
1.197767
1.1978547
1.1979526
1.1980601
1.1981854
1.1983287
1.1984902
1.1986677
1.1988593
1.1990646
1.1992856
1.1995265
1.199793
1.2000898
1.2004189
1.2007691
1.2009855
1.2010314
1.2011208
1.2012373
1.2013502
1.2014611
1.201566
1.2016543
1.2017194
1.2017526
1.197813
1.1978322
1.1978564
1.1978838
1.1979146
1.1979525
1.1980027
1.1980767
1.1981784
1.1983007
1.1984402
1.1985947
1.1987666
1.1989538
1.1991547
1.1993697
1.1996018
1.1998557
1.2001364
1.2004475
1.2007854
1.2010225
1.2010692
1.2011434
1.2012417
1.2013486
1.2014579
1.2015539
1.2016362
1.2016996
1.2017319
1.1979018
1.1979247
1.1979516
1.1979832
1.1980214
1.1980674
1.1981228
1.1981899
1.1982734
1.1983781
1.1985079
1.1986625
1.1988355
1.1990234
1.1992243
1.1994378
1.1996657
1.1999116
1.2001802
1.2004765
1.2008008
1.2010591
1.2011096
1.2011648
1.2012539
1.2013575
1.2014516
1.2015398
1.2016207
1.2016807
1.2017113
1.1979459
1.1979685
1.1979949
1.1980261
1.1980641
1.1981113
1.19817
1.1982434
1.1983343
1.1984443
1.1985724
1.1987214
1.1988934
1.1990822
1.1992839
1.199497
1.1997225
1.1999628
1.2002224
1.2005063
1.2008168
1.2010895
1.2011521
1.201193
1.2012758
1.2013613
1.2014463
1.2015314
1.2016057
1.2016625
1.2016921
1.1980178
1.1980398
1.1980651
1.1980951
1.1981322
1.1981788
1.1982371
1.19831
1.1983993
1.198504
1.1986283
1.1987792
1.1989516
1.1991401
1.1993416
1.199554
1.1997769
1.2000123
1.200264
1.2005368
1.2008342
1.201117
1.2011943
1.2012244
1.2012913
1.2013656
1.2014496
1.2015266
1.201592
1.2016467
1.2016737
1.1981558
1.1981739
1.1981951
1.1982204
1.1982523
1.1982931
1.1983452
1.1984106
1.1984899
1.1985896
1.1987171
1.1988654
1.1990295
1.1992108
1.1994068
1.1996146
1.1998326
1.2000618
1.2003053
1.2005672
1.2008521
1.2011382
1.2012367
1.201257
1.2013107
1.2013825
1.201452
1.2015182
1.2015834
1.201632
1.2016573
1.1983809
1.1983922
1.1984076
1.1984268
1.1984513
1.1984828
1.1985231
1.1985756
1.1986464
1.1987382
1.1988481
1.1989759
1.1991244
1.1992929
1.1994784
1.1996776
1.1998881
1.2001095
1.200344
1.2005954
1.2008689
1.2011578
1.2012782
1.2012908
1.2013362
1.2013961
1.2014576
1.2015188
1.2015739
1.201619
1.2016424
1.1986426
1.1986535
1.1986665
1.1986821
1.1987013
1.1987252
1.1987563
1.1987992
1.1988543
1.1989219
1.1990074
1.1991128
1.1992395
1.1993879
1.1995561
1.1997412
1.1999405
1.2001524
1.2003777
1.2006192
1.2008827
1.2011691
1.2013171
1.2013273
1.201363
1.2014123
1.2014679
1.2015175
1.2015678
1.2016102