/*--------------------------------*- C++ -*----------------------------------*\
| =========                 |                                                 |
| \\      /  F ield         | OpenFOAM: The Open Source CFD Toolbox           |
|  \\    /   O peration     | Version:  2406                                  |
|   \\  /    A nd           | Website:  www.openfoam.com                      |
|    \\/     M anipulation  |                                                 |
\*---------------------------------------------------------------------------*/
FoamFile
{
    version     2.0;
    format      ascii;
    arch        "LSB;label=32;scalar=64";
    class       volScalarField;
    location    "0.01";
    object      T;
}
// * * * * * * * * * * * * * * * * * * * * * * * * * * * * * * * * * * * * * //

dimensions      [0 0 0 1 0 0 0];

internalField   nonuniform List<scalar> 
2257
(
293.19628
293.147
293.09851
293.05455
293.01332
292.97359
292.93643
292.90445
292.87854
292.86161
292.85544
292.86622
292.89642
292.94589
293.01411
293.09365
293.17829
293.26135
293.33593
293.39834
293.4482
293.48485
293.51153
293.52845
293.53729
293.53967
293.53633
293.52728
293.51447
293.49735
293.47719
293.45589
293.43425
293.41476
293.39803
293.38723
293.38715
293.40146
293.43123
293.46913
293.51036
293.55064
293.58927
293.62274
293.65084
293.66899
293.68331
293.68864
293.69491
293.69042
293.68865
293.67438
293.66974
293.64642
293.65548
293.62805
293.66628
293.64654
293.76748
293.69555
293.92349
293.84639
293.37891
293.3454
293.30723
293.26513
293.21976
293.17074
293.12057
293.0712
293.02488
292.98515
292.95589
292.94089
292.94572
292.97246
293.02036
293.08684
293.16461
293.2446
293.32114
293.38748
293.44123
293.48272
293.51232
293.53225
293.54386
293.5478
293.5463
293.53964
293.52804
293.51331
293.49513
293.47475
293.45379
293.43299
293.41458
293.39914
293.39077
293.3939
293.41181
293.44372
293.48229
293.52325
293.56268
293.59993
293.63176
293.65804
293.6747
293.68746
293.69163
293.69641
293.69115
293.68851
293.67412
293.66907
293.64684
293.65561
293.62984
293.66679
293.64852
293.7665
293.699
293.92309
293.84693
293.42026
293.40083
293.37756
293.34995
293.31749
293.27929
293.23521
293.18656
293.13588
293.08788
293.04881
293.02515
293.02248
293.04313
293.08628
293.14783
293.22004
293.29398
293.36372
293.4236
293.47148
293.50759
293.5328
293.548
293.5559
293.55642
293.552
293.54293
293.52957
293.51364
293.4951
293.47506
293.4548
293.43511
293.41792
293.40394
293.39783
293.40397
293.42448
293.45755
293.4961
293.53634
293.57462
293.61033
293.64044
293.66491
293.68007
293.69132
293.69436
293.69774
293.69177
293.6883
293.67383
293.66841
293.64723
293.65574
293.63153
293.66732
293.65044
293.76558
293.70233
293.92265
293.84751
293.4308
293.41776
293.40193
293.38237
293.35819
293.32854
293.29289
293.25124
293.20528
293.15912
293.11919
293.09278
293.08612
293.10229
293.14058
293.19651
293.2626
293.33099
293.39545
293.45121
293.49561
293.5285
293.55061
293.5626
293.56769
293.56566
293.55902
293.54817
293.53365
293.51709
293.49867
293.47926
293.45986
293.4413
293.42527
293.41263
293.40851
293.41695
293.43905
293.4724
293.51032
293.54947
293.58637
293.6204
293.64876
293.67143
293.68512
293.69491
293.69686
293.69892
293.69229
293.68803
293.67352
293.66776
293.64761
293.65586
293.63312
293.66785
293.65229
293.76472
293.70554
293.92217
293.84812
293.4336
293.42349
293.41067
293.39436
293.37372
293.34833
293.31761
293.28178
293.24209
293.20179
293.16621
293.14253
293.13642
293.15095
293.18583
293.23713
293.29819
293.36254
293.42374
293.47723
293.51956
293.55023
293.56979
293.57928
293.58198
293.57787
293.56942
293.55718
293.54188
293.52498
293.50687
293.4881
293.46947
293.45183
293.43665
293.42507
293.42243
293.43235
293.45508
293.48795
293.52477
293.5625
293.59783
293.63011
293.65669
293.67759
293.68985
293.69823
293.69913
293.69997
293.69271
293.68772
293.6732
293.66712
293.64795
293.65597
293.63463
293.66839
293.65404
293.76392
293.70865
293.92167
293.84876
293.43433
293.42568
293.41426
293.39942
293.38068
293.35755
293.33007
293.29873
293.26506
293.23201
293.20403
293.18648
293.18369
293.19821
293.22999
293.27632
293.33263
293.39467
293.45422
293.50681
293.54768
293.57629
293.59334
293.60047
293.60088
293.59481
293.5847
293.57122
293.55522
293.538
293.52007
293.5017
293.48357
293.46647
293.45175
293.44082
293.43906
293.44964
293.47217
293.50394
293.53925
293.57533
293.60895
293.63941
293.66421
293.68339
293.69426
293.7013
293.70119
293.70091
293.69305
293.68738
293.67288
293.66649
293.64828
293.65606
293.63606
293.66893
293.65571
293.76317
293.71163
293.92114
293.84943
293.43648
293.42883
293.41844
293.40492
293.38787
293.36723
293.34322
293.31673
293.28922
293.26318
293.24187
293.22953
293.22989
293.245
293.27503
293.31894
293.373
293.43155
293.48954
293.54266
293.58218
293.60848
293.62276
293.62735
293.62534
293.61724
293.60541
293.59059
293.57374
293.55599
293.53793
293.51959
293.50159
293.48465
293.46997
293.45928
293.45781
293.46832
293.48996
293.52013
293.55362
293.58787
293.61967
293.6483
293.67134
293.68884
293.69837
293.70412
293.70306
293.70174
293.69332
293.68702
293.67255
293.66589
293.64857
293.65615
293.63741
293.66946
293.65729
293.76246
293.71451
293.9206
293.85011
293.44209
293.43533
293.42606
293.41404
293.39914
293.38142
293.36137
293.33989
293.31827
293.29851
293.28292
293.27512
293.27838
293.29415
293.32363
293.36646
293.41882
293.47542
293.53225
293.58484
293.62297
293.64652
293.65774
293.65957
293.65495
293.64466
293.63096
293.61464
293.59668
293.57811
293.55956
293.54092
293.52272
293.50559
293.49064
293.47983
293.47812
293.48795
293.50813
293.53631
293.56775
293.60003
293.62997
293.65675
293.67805
293.69394
293.70218
293.70672
293.70475
293.70247
293.69353
293.68664
293.67223
293.66532
293.64884
293.65624
293.63869
293.66998
293.65878
293.7618
293.71726
293.92005
293.8508
293.45135
293.44563
293.43779
293.42765
293.4152
293.40077
293.38479
293.36807
293.35161
293.33684
293.32597
293.32222
293.32813
293.345
293.37519
293.41797
293.46961
293.52527
293.58103
293.63205
293.66794
293.68836
293.69643
293.69545
293.68823
293.6757
293.66002
293.64206
293.6228
293.60319
293.58389
293.5647
293.54606
293.5285
293.51308
293.50184
293.49947
293.50812
293.52641
293.55231
293.58155
293.61178
293.63981
293.66475
293.68437
293.69871
293.70572
293.70911
293.70628
293.7031
293.69368
293.68627
293.67191
293.66477
293.64908
293.65632
293.6399
293.67049
293.66018
293.76119
293.71991
293.91948
293.8515
293.46366
293.45915
293.45288
293.44478
293.435
293.42376
293.41151
293.39875
293.38634
293.37571
293.36876
293.36848
293.37653
293.39528
293.42703
293.47067
293.52254
293.57787
293.63258
293.68156
293.71397
293.73134
293.73655
293.73302
293.72336
293.70869
293.69107
293.67145
293.6508
293.63004
293.60983
293.58996
293.57076
293.55266
293.53665
293.52476
293.52141
293.52851
293.54459
293.56802
293.59495
293.62307
293.64918
293.67231
293.6903
293.70316
293.709
293.71129
293.70767
293.70364
293.6938
293.68589
293.67161
293.66426
293.64929
293.65638
293.64104
293.67099
293.6615
293.76061
293.72245
293.91891
293.8522
293.47756
293.47434
293.46972
293.46372
293.45637
293.44793
293.43864
293.42905
293.41995
293.41252
293.40867
293.41058
293.42118
293.44193
293.47569
293.52103
293.57401
293.62968
293.68363
293.73005
293.7587
293.77337
293.77624
293.77055
293.75875
293.74215
293.72274
293.70155
293.67954
293.65762
293.63647
293.61587
293.5961
293.57743
293.56079
293.54813
293.54355
293.54883
293.56249
293.58332
293.60788
293.63386
293.65807
293.67944
293.69585
293.7073
293.71203
293.71331
293.70893
293.70412
293.69388
293.68553
293.67131
293.66377
293.64946
293.65641
293.6421
293.67145
293.66275
293.76008
293.72488
293.91834
293.85291
293.49145
293.48951
293.48646
293.48225
293.47698
293.47077
293.4639
293.45677
293.45013
293.4449
293.44298
293.44617
293.45853
293.48168
293.51803
293.56606
293.62132
293.67833
293.73193
293.77461
293.80041
293.81296
293.81407
293.80668
293.79312
293.77487
293.7539
293.73132
293.70807
293.68507
293.66304
293.64176
293.62146
293.60226
293.58503
293.57154
293.56558
293.56885
293.57996
293.59813
293.6203
293.64416
293.66649
293.68614
293.70104
293.71116
293.71484
293.71515
293.71008
293.70455
293.69394
293.68517
293.67103
293.6633
293.6496
293.65643
293.64309
293.67189
293.66392
293.75958
293.72721
293.91777
293.85361
293.50357
293.50295
293.50141
293.49892
293.49545
293.49112
293.48605
293.48058
293.47531
293.47125
293.46971
293.47297
293.48655
293.51193
293.55178
293.60406
293.66269
293.72175
293.77493
293.81394
293.83788
293.84901
293.84893
293.84031
293.82539
293.80584
293.78362
293.75989
293.7356
293.7117
293.68892
293.66707
293.64634
293.62672
293.60898
293.59466
293.58724
293.58841
293.5969
293.61239
293.63218
293.65394
293.67443
293.69244
293.70589
293.71475
293.71744
293.71685
293.71113
293.70493
293.69398
293.68483
293.67076
293.66287
293.64971
293.65641
293.644
293.67228
293.66501
293.75912
293.72943
293.9172
293.85432
293.51327
293.51406
293.5141
293.51321
293.51136
293.50846
293.50456
293.49985
293.49474
293.49015
293.48643
293.4891
293.50295
293.53043
293.57546
293.63325
293.69624
293.75851
293.80952
293.84697
293.87005
293.88044
293.87973
293.87039
293.85459
293.83417
293.81109
293.78656
293.76151
293.73694
293.71359
293.69134
293.67034
293.65045
293.63231
293.61722
293.60833
293.60737
293.61323
293.62608
293.64351
293.6632
293.68192
293.69833
293.71042
293.71808
293.71985
293.71842
293.71209
293.70527
293.69401
293.68451
293.67051
293.66246
293.64978
293.65636
293.64482
293.67261
293.66604
293.75869
293.73155
293.91663
293.85502
293.52103
293.52307
293.52442
293.52494
293.52438
293.52255
293.51923
293.51436
293.50815
293.50037
293.49311
293.49261
293.50546
293.53587
293.58752
293.65184
293.72119
293.78384
293.83514
293.87267
293.89583
293.90616
293.90539
293.89592
293.87979
293.85904
293.8356
293.8107
293.78525
293.76032
293.73667
293.71422
293.69314
293.67315
293.65476
293.63899
293.62868
293.62562
293.6289
293.63915
293.65428
293.67197
293.68896
293.70386
293.71464
293.72119
293.72208
293.71987
293.71297
293.70558
293.69404
293.68421
293.67028
293.66209
293.64982
293.65628
293.64555
293.67289
293.667
293.7583
293.73358
293.91608
293.85572
293.52723
293.53025
293.53269
293.53431
293.53481
293.53371
293.53054
293.52488
293.51589
293.50351
293.49003
293.48228
293.49249
293.52655
293.58698
293.65859
293.73186
293.79763
293.85102
293.88988
293.91395
293.92496
293.92481
293.9159
293.90016
293.87973
293.85653
293.83179
293.8064
293.78148
293.75783
293.73543
293.71449
293.6946
293.67613
293.65982
293.64819
293.64308
293.64386
293.6516
293.6645
293.68023
293.69557
293.70902
293.71858
293.72408
293.72415
293.72121
293.71378
293.70587
293.69406
293.68394
293.67006
293.66174
293.64981
293.65617
293.64619
293.67312
293.66791
293.75794
293.73551
293.91553
293.85641
293.53228
293.53597
293.53919
293.54172
293.54305
293.54254
293.53934
293.53238
293.52023
293.5014
293.47733
293.45755
293.46384
293.50363
293.57019
293.64964
293.72917
293.79959
293.8562
293.89735
293.92318
293.9357
293.93699
293.92951
293.91498
293.89565
293.8734
293.84943
293.82461
293.80014
293.77683
293.75477
293.7342
293.71463
293.69627
293.67958
293.66675
293.6597
293.65811
293.66343
293.67416
293.68802
293.70177
293.71385
293.72225
293.72676
293.72608
293.72247
293.71454
293.70615
293.69409
293.68369
293.66987
293.66142
293.64977
293.65602
293.64676
293.67329
293.66876
293.75761
293.73735
293.91499
293.8571
293.53666
293.54054
293.54418
293.54721
293.54917
293.54917
293.54565
293.537
293.52075
293.49335
293.45351
293.41754
293.41911
293.46413
293.53942
293.62757
293.71402
293.78953
293.84991
293.89413
293.92269
293.93781
293.94126
293.93617
293.92376
293.90639
293.88586
293.86334
293.83966
293.81609
293.79351
293.7721
293.75215
293.73312
293.71507
293.69818
293.6843
293.67545
293.67162
293.67463
293.68329
293.69535
293.70759
293.71836
293.72568
293.72927
293.72788
293.72364
293.71526
293.70641
293.69412
293.68346
293.66969
293.66112
293.6497
293.65586
293.64724
293.67342
293.66955
293.75731
293.7391
293.91446
293.85778
293.91179
293.89376
293.87336
293.85141
293.82925
293.80779
293.78733
293.76826
293.74999
293.73244
293.71556
293.70081
293.69033
293.6844
293.68522
293.69189
293.70223
293.71303
293.72258
293.72887
293.73161
293.72956
293.72474
293.71593
293.70668
293.69416
293.68327
293.66953
293.66086
293.64961
293.65568
293.64766
293.67351
293.6703
293.75704
293.74076
293.91395
293.85846
291.95844
291.8924
291.8426
292.53831
292.32842
292.16772
292.05187
291.96735
291.9045
291.8571
292.97052
292.7519
292.52321
292.32417
292.17094
292.05969
291.97878
291.91878
291.87358
292.9363
292.73351
292.51455
292.32353
292.1758
292.06859
291.99093
291.93363
291.89055
292.90624
292.72169
292.51114
292.32505
292.18183
292.07819
292.00358
291.94884
291.90781
292.87682
292.70966
292.50848
292.32776
292.18899
292.0888
292.01708
291.96478
291.92571
292.84784
292.69704
292.50697
292.33245
292.19791
292.10102
292.03201
291.98196
291.94471
292.82142
292.6856
292.50786
292.33982
292.20944
292.11561
292.04903
292.00099
291.96539
292.79979
292.67714
292.51233
292.35107
292.22462
292.13348
292.06897
292.02264
291.98848
292.78321
292.67271
292.52137
292.36752
292.24476
292.15581
292.09289
292.04791
292.01491
292.77552
292.67517
292.53588
292.3902
292.27108
292.18381
292.12199
292.07793
292.0458
292.7766
292.68715
292.56054
292.42208
292.30559
292.21911
292.15767
292.11401
292.08238
292.79298
292.71143
292.59554
292.46411
292.34971
292.26319
292.20137
292.15752
292.12597
292.82558
292.7484
292.64013
292.51579
292.40375
292.3168
292.25398
292.20945
292.17756
292.87743
292.80403
292.69964
292.57955
292.46877
292.3808
292.31638
292.27058
292.23796
292.94488
292.87304
292.77217
292.65514
292.54471
292.45509
292.38854
292.34103
292.30731
293.02407
292.95256
292.8538
292.73934
292.62928
292.53806
292.46928
292.41982
292.38481
293.11077
293.04023
292.94273
292.82985
292.72
292.62737
292.55653
292.50516
292.46874
293.19702
293.1288
293.03389
292.92303
292.81374
292.72013
292.64757
292.5945
292.55673
293.27795
293.21421
293.12355
293.01557
292.90732
292.81319
292.73932
292.68479
292.64578
293.34847
293.29169
293.20808
293.10476
292.99831
292.90406
292.82916
292.77336
292.73319
293.40695
293.35837
293.2842
293.18802
293.08473
292.99077
292.91489
292.85778
292.81635
293.45178
293.41194
293.34896
293.26254
293.16448
293.07171
292.99505
292.93657
292.89377
293.48594
293.45426
293.40254
293.32743
293.23651
293.1459
293.06849
293.0083
292.96374
293.50912
293.48475
293.44405
293.38159
293.30031
293.21372
293.13615
293.07413
293.02749
293.52363
293.50563
293.47456
293.42435
293.35425
293.27379
293.1972
293.13341
293.08425
293.53036
293.51752
293.49484
293.45619
293.39826
293.32637
293.25292
293.18849
293.13714
293.53092
293.52246
293.50652
293.47772
293.43151
293.36962
293.30151
293.23802
293.18518
293.52488
293.52011
293.51021
293.49022
293.45508
293.40404
293.34349
293.28325
293.23058
293.51449
293.51265
293.50733
293.49441
293.46898
293.42869
293.37715
293.32239
293.27192
293.49895
293.49917
293.4977
293.49095
293.47411
293.4439
293.40182
293.354
293.30746
293.47965
293.48131
293.48258
293.48049
293.47082
293.44994
293.41771
293.3782
293.33742
293.45855
293.46084
293.46371
293.46506
293.46095
293.44767
293.42406
293.39266
293.35825
293.43666
293.4393
293.44346
293.44757
293.44822
293.44164
293.42602
293.40267
293.37519
293.41664
293.41922
293.42388
293.42952
293.43325
293.43137
293.42163
293.40462
293.38309
293.3992
293.40169
293.40699
293.41457
293.42187
293.42516
293.42168
293.41115
293.39568
293.387
293.38891
293.39427
293.40334
293.41394
293.42199
293.42382
293.4186
293.40795
293.38416
293.38352
293.3865
293.39464
293.40736
293.42108
293.43087
293.43372
293.42993
293.39493
293.39083
293.38918
293.39228
293.40199
293.41693
293.43288
293.44501
293.45082
293.42208
293.41492
293.40837
293.40482
293.4069
293.41612
293.43092
293.44724
293.46084
293.45874
293.44984
293.44008
293.43099
293.42491
293.42443
293.43071
293.44237
293.4562
293.4997
293.49012
293.47873
293.46643
293.45484
293.4462
293.44249
293.44447
293.45079
293.54037
293.53086
293.51907
293.50543
293.49098
293.47738
293.46647
293.45964
293.45739
293.57998
293.57122
293.56009
293.54673
293.53177
293.51639
293.50208
293.49021
293.48158
293.61474
293.60708
293.59718
293.58503
293.57099
293.5559
293.54093
293.52732
293.51599
293.64435
293.63802
293.62977
293.61947
293.60732
293.59389
293.58011
293.56704
293.55555
293.66376
293.65856
293.65172
293.64306
293.63267
293.62095
293.60861
293.59653
293.58553
293.67943
293.67552
293.6703
293.66361
293.65544
293.64603
293.63588
293.62565
293.61603
293.68579
293.68287
293.67894
293.67383
293.66748
293.66002
293.65178
293.6433
293.63512
293.69343
293.69189
293.68978
293.68699
293.68347
293.67924
293.67447
293.66942
293.66438
293.68963
293.68875
293.68751
293.68584
293.68365
293.68096
293.67785
293.67452
293.67122
293.68869
293.68867
293.6886
293.68844
293.68815
293.68767
293.687
293.68616
293.68522
293.67452
293.67454
293.67452
293.67441
293.67416
293.67375
293.6732
293.67253
293.67182
293.67028
293.67071
293.67126
293.6719
293.6726
293.67329
293.6739
293.67439
293.67474
293.64603
293.64565
293.64516
293.64457
293.6439
293.64319
293.64247
293.64179
293.64118
293.65538
293.65529
293.65519
293.65512
293.65512
293.6552
293.65538
293.65565
293.65595
293.62647
293.62497
293.62302
293.6206
293.61777
293.61466
293.61151
293.60853
293.60589
293.66586
293.66549
293.66505
293.66455
293.66405
293.6636
293.6633
293.66316
293.66315
293.64484
293.64331
293.64138
293.6391
293.63656
293.63392
293.63137
293.62904
293.62704
293.76833
293.76912
293.77016
293.77146
293.773
293.77474
293.77657
293.77841
293.78015
293.69266
293.69014
293.68695
293.68314
293.67888
293.67447
293.67023
293.66646
293.66332
293.92376
293.92397
293.9242
293.92444
293.92464
293.92477
293.9248
293.92473
293.92458
293.84601
293.84572
293.84542
293.84515
293.84499
293.845
293.84518
293.84552
293.84598
291.80156
291.76253
291.7238
291.68327
291.63516
291.55628
291.81805
291.7809
291.74397
291.705
291.65781
291.58055
291.83621
291.80057
291.76498
291.72716
291.68058
291.60531
291.85485
291.82071
291.78647
291.74972
291.70394
291.63089
291.87377
291.84118
291.80834
291.77282
291.72815
291.65746
291.89327
291.8622
291.83079
291.79659
291.75328
291.68507
291.9138
291.88414
291.8541
291.82129
291.77949
291.71388
291.93586
291.90752
291.87882
291.84735
291.80715
291.74428
291.96016
291.93299
291.9055
291.8754
291.83686
291.7768
291.9876
291.96143
291.93508
291.90625
291.86942
291.81213
292.01925
291.99388
291.96848
291.94092
291.90575
291.85111
292.05631
292.03148
292.0069
291.98041
291.94682
291.89468
292.10005
292.07552
292.05149
292.02597
291.99378
291.94384
292.1515
292.12699
292.10336
292.07856
292.04754
291.9994
292.21144
292.18673
292.16323
292.13898
292.10888
292.06215
292.28009
292.25494
292.23137
292.20739
292.17791
292.13205
292.35673
292.33104
292.30722
292.28331
292.2541
292.20842
292.43972
292.41339
292.38921
292.3651
292.33579
292.28969
292.52679
292.49981
292.47513
292.45063
292.42083
292.3736
292.61493
292.58728
292.56199
292.53682
292.50618
292.45742
292.70147
292.67314
292.6471
292.62105
292.5892
292.53837
292.78363
292.75444
292.72745
292.70023
292.66691
292.61413
292.85995
292.82979
292.80169
292.77312
292.73804
292.68279
292.92841
292.89688
292.86733
292.83711
292.8002
292.74325
292.99032
292.95712
292.92584
292.89377
292.85479
292.79567
293.04464
293.00913
292.97556
292.94126
292.90024
292.84021
293.09504
293.05698
293.02081
292.98396
292.94043
292.87822
293.14075
293.09993
293.0608
293.021
292.97472
292.91078
293.18479
293.14174
293.09981
293.05692
293.00737
292.93996
293.22634
293.18216
293.13811
293.09238
293.03938
292.96769
293.26367
293.21971
293.17456
293.12663
293.0704
292.99417
293.2973
293.2554
293.21078
293.16189
293.10299
293.0215
293.32282
293.28426
293.24158
293.19314
293.13294
293.04788
293.34538
293.31136
293.27195
293.22519
293.16456
293.07538
293.35864
293.32958
293.29449
293.25101
293.19198
293.10225
293.37677
293.35315
293.32337
293.28476
293.22912
293.13627
293.39338
293.37402
293.34868
293.31479
293.26427
293.17618
293.4211
293.40685
293.38626
293.35691
293.31062
293.22133
293.45072
293.44429
293.4302
293.4057
293.36291
293.27872
293.47024
293.47445
293.47057
293.45502
293.41885
293.3382
293.46982
293.4822
293.491
293.49033
293.46692
293.39201
293.4602
293.4723
293.48523
293.49496
293.49233
293.43198
293.45865
293.46345
293.4724
293.48468
293.49297
293.46058
293.47578
293.47283
293.47354
293.47887
293.49023
293.49443
293.50655
293.49854
293.49261
293.49049
293.49556
293.51743
293.54531
293.53566
293.52705
293.52065
293.51981
293.53918
293.57533
293.56511
293.55499
293.54533
293.53742
293.53903
293.60676
293.59699
293.58659
293.57528
293.56249
293.54996
293.62704
293.61825
293.60849
293.59724
293.58309
293.56324
293.65924
293.65343
293.6467
293.63853
293.62742
293.60912
293.66787
293.66411
293.65977
293.65446
293.64716
293.6348
293.68419
293.68295
293.68143
293.67946
293.67656
293.67112
293.67106
293.67015
293.66905
293.66767
293.66572
293.66233
293.67497
293.67511
293.67512
293.67497
293.67453
293.67326
293.64061
293.64003
293.63944
293.63882
293.63812
293.63721
293.65627
293.65666
293.65707
293.65751
293.65788
293.65782
293.60344
293.60095
293.59843
293.59584
293.59301
293.58955
293.66326
293.66349
293.66388
293.66449
293.66544
293.66729
293.62521
293.62336
293.62152
293.61964
293.6176
293.61491
293.78191
293.78385
293.78601
293.78854
293.79189
293.79805
293.66052
293.65783
293.65537
293.65316
293.6512
293.64912
293.92438
293.92403
293.92348
293.92257
293.92087
293.91659
293.84657
293.84733
293.84827
293.84945
293.85101
293.85308
293.44407
293.4452
293.44946
293.44341
293.44906
293.44855
293.44681
293.44208
293.44687
293.44741
293.44772
293.44693
293.4432
293.44685
293.44738
293.4486
293.44992
293.45098
293.45089
293.44799
293.4526
293.45235
293.45177
293.45244
293.45076
293.45192
293.45171
293.45298
293.45395
293.45532
293.45686
293.45816
293.45858
293.45644
293.46716
293.46723
293.4661
293.46567
293.46317
293.4631
293.4628
293.46361
293.46436
293.46559
293.46686
293.46811
293.46876
293.46756
293.47269
293.47267
293.47248
293.47286
293.47277
293.47344
293.47385
293.47459
293.47537
293.4764
293.47771
293.47908
293.48022
293.48011
293.48706
293.48719
293.48684
293.48694
293.48655
293.48653
293.48656
293.48678
293.4871
293.4877
293.48861
293.48997
293.49148
293.49252
293.49304
293.49277
293.4927
293.49249
293.4922
293.49263
293.49276
293.49335
293.49391
293.49485
293.49627
293.49817
293.50054
293.50301
293.48972
293.4897
293.48987
293.49016
293.49077
293.49196
293.49299
293.49443
293.49592
293.49788
293.50026
293.50326
293.50686
293.51096
293.49305
293.49274
293.49298
293.49217
293.4925
293.49308
293.49442
293.49607
293.49805
293.50049
293.50353
293.50721
293.51175
293.51717
293.4935
293.49343
293.4938
293.49334
293.49397
293.49447
293.49605
293.49783
293.50007
293.50287
293.50631
293.51062
293.51587
293.52227
293.4992
293.50098
293.50325
293.50614
293.50979
293.51426
293.51983
293.52676
293.51153
293.5147
293.51884
293.5242
293.53113
293.51988
293.52366
293.52873
293.53565
)
;

boundaryField
{
    Side1
    {
        type            empty;
    }
    Inlet
    {
        type            totalTemperature;
        gamma           1.4;
        T0              nonuniform List<scalar> 0();
        value           nonuniform List<scalar> 0();
    }
    Side2
    {
        type            empty;
    }
    Outlet
    {
        type            zeroGradient;
    }
    Botwall
    {
        type            zeroGradient;
    }
    Cyli
    {
        type            zeroGradient;
    }
    procBoundary1to0
    {
        type            processor;
        value           nonuniform List<scalar> 
55
(
293.25065
293.25065
293.01099
293.42477
292.56266
292.33915
292.169
292.04709
292.04709
291.94141
291.87369
291.82232
293.01099
292.77918
292.77918
291.77972
291.73916
291.699
291.65714
291.60755
291.52695
293.42477
293.45753
293.4534
293.4534
293.45376
293.45223
293.45223
293.44922
293.44922
293.44651
293.44657
293.44657
293.45997
293.45985
293.45822
293.45525
293.45035
293.44763
293.44607
293.44607
293.49872
293.49825
293.49845
293.49755
293.49782
293.49766
293.49766
293.50642
293.50749
293.50915
293.50915
293.51712
293.51712
293.52513
)
;
    }
    procBoundary1to3
    {
        type            processor;
        value           nonuniform List<scalar> 
68
(
293.5407
293.54429
293.54765
293.5505
293.55225
293.55165
293.54704
293.53553
293.51168
293.46671
293.39961
293.35357
293.36079
293.41598
293.50057
293.59603
293.68795
293.76783
293.83201
293.87985
293.91193
293.93049
293.93757
293.93563
293.92634
293.5407
293.92634
293.91194
293.89713
293.87951
293.85986
293.83958
293.81964
293.80046
293.78251
293.76522
293.7484
293.73173
293.71634
293.70439
293.6965
293.69526
293.70003
293.70872
293.71814
293.72653
293.73187
293.73381
293.73115
293.72578
293.71658
293.70694
293.69422
293.6831
293.6694
293.66063
293.6495
293.6555
293.64802
293.67358
293.671
293.7568
293.74235
293.91345
293.85913
293.52815
293.53286
293.54008
)
;
    }
}


// ************************************************************************* //
