/*--------------------------------*- C++ -*----------------------------------*\
| =========                 |                                                 |
| \\      /  F ield         | OpenFOAM: The Open Source CFD Toolbox           |
|  \\    /   O peration     | Version:  2406                                  |
|   \\  /    A nd           | Website:  www.openfoam.com                      |
|    \\/     M anipulation  |                                                 |
\*---------------------------------------------------------------------------*/
FoamFile
{
    version     2.0;
    format      ascii;
    arch        "LSB;label=32;scalar=64";
    class       volScalarField;
    location    "0.026";
    object      p;
}
// * * * * * * * * * * * * * * * * * * * * * * * * * * * * * * * * * * * * * //

dimensions      [1 -1 -2 0 0 0 0];

internalField   nonuniform List<scalar> 
35803
(
101117.01
101040.54
101000.63
100947.08
100892.98
100846.98
100812.45
100790.79
100782.13
100782.9
100793.86
100821.86
100861.42
100914.85
100972.39
101043.34
101111.72
101184.52
101218.95
101250.89
101276.61
101296.84
101317.66
101329.18
101346.63
101353.37
101378.56
101382.99
101414.35
101386.75
101375.99
101307.87
101235
101165.22
101089.59
101019.8
100960.38
100913.28
100880.4
100863.01
100853.34
100854.31
100873.15
100905.21
100951.36
101002.62
101066.28
101126.61
101194.27
101226.17
101257.35
101281.53
101300.72
101320.74
101331.58
101348.8
101355.52
101381.5
101385.5
101415.82
101387.91
101379.02
101418.78
101355.98
101279.3
101195.87
101118.42
101050.9
100995.65
100954.88
100928.14
100910.85
100901.91
100913.05
100938.76
100979.09
101026.71
101086.84
101143.1
101205.48
101235.54
101265.03
101287.32
101305.28
101324.35
101334.44
101352.05
101358.53
101384.74
101388.2
101417.31
101389.53
101382.25
101507.67
101450.96
101376.43
101291.18
101209.42
101136.1
101073.44
101024.07
100987.92
100963.09
100948.41
100952.61
100972.14
101006.84
101051.27
101108.44
101161.62
101217.82
101246.83
101273.81
101293.99
101310.53
101328.49
101337.76
101356.53
101362.31
101387.96
101390.92
101418.94
101391.62
101385.74
101590.32
101538.15
101467.33
101383.1
101299.69
101222.78
101154.67
101097.82
101053.39
101021.11
101000.83
100997.97
101010.98
101039.57
101080.29
101133.49
101182.84
101231.54
101260.07
101283.83
101301.64
101316.6
101333.24
101341.65
101361.9
101366.34
101390.94
101393.55
101420.79
101394.14
101389.62
101665.4
101616.92
101550.4
101469.2
101386.72
101308.73
101237.53
101175.48
101124.49
101085.45
101059.15
101049.24
101055.53
101077.71
101114.34
101162.5
101207.05
101247.23
101275.39
101295.25
101310.42
101323.6
101338.67
101346.21
101367.19
101370.12
101393.61
101396.06
101422.71
101396.9
101393.22
101729.14
101683.63
101622.21
101546.23
101467.37
101390.99
101319.28
101254.52
101199
101154.48
101122.51
101105.97
101105.61
101121.33
101153.73
101195.7
101234.42
101265.74
101292.85
101308.31
101320.48
101331.66
101344.86
101351.54
101371.32
101373.75
101396.03
101398.48
101424.41
101399.71
101397.13
101780.13
101734.77
101678.47
101610.79
101538.99
101467.28
101397.88
101333.07
101275.37
101227.11
101190.47
101168.1
101161.46
101170.94
101199
101233.34
101265.18
101288.39
101312.39
101323.24
101332
101340.92
101351.94
101357.7
101374.8
101377.39
101398.34
101400.86
101425.74
101402.47
101400.56
101816.92
101775.02
101724.71
101665.63
101602.04
101536.91
101472.12
101409.78
101352.34
101302.41
101262.58
101235.55
101223.33
101227.01
101250.33
101276.36
101299.21
101316.14
101334.01
101340.21
101345.18
101351.53
101360.03
101364.78
101378.92
101381.34
101400.68
101403.23
101426.8
101405.11
101404.34
101847.37
101807.79
101763.66
101712.8
101657.66
101600.19
101541.72
101483.93
101429.05
101379.61
101338.37
101308.14
101291.38
101290.03
101308.36
101325.14
101336.7
101348.66
101357.91
101359.38
101360.24
101363.6
101369.28
101372.89
101384.16
101386.05
101403.24
101405.69
101427.75
101407.65
101407.27
101870.91
101835.46
101796.41
101752.74
101706.5
101657.96
101607.31
101555.8
101505.37
101458.4
101417.56
101385.74
101365.78
101360.49
101373.49
101379.34
101379.57
101384.54
101384.52
101380.89
101377.39
101377.26
101379.9
101382.09
101390.49
101391.78
101406.36
101408.28
101428.63
101410.1
101409.82
101880.79
101865.92
101837.5
101798.98
101758.39
101716.75
101673.02
101627.82
101582.62
101539.36
101500.42
101468.58
101446.99
101438.99
101445.21
101438.67
101428.1
101422.4
101414.07
101404.82
101396.77
101392.72
101392.12
101392.44
101397.91
101398.49
101410.33
101411.13
101429.63
101412.51
101412.4
101905.57
101894.72
101876.89
101851.15
101818.25
101781.2
101742.38
101702.6
101662.65
101623.86
101588.14
101557.98
101536.45
101525.94
101521.16
101501.57
101479.07
101461.99
101446.09
101431.1
101418.43
101410.24
101406.2
101404.02
101406.56
101406.21
101415.18
101414.49
101430.96
101414.92
101415.26
101946.6
101936.58
101916.29
101890.88
101865.56
101838.4
101809.09
101777.94
101745.64
101713.5
101683.38
101657.02
101635.78
101617.51
101594.6
101562.39
101529.7
101502.63
101479.84
101459.58
101442.22
101429.93
101422.3
101417.01
101416.58
101415.01
101420.87
101418.62
101432.65
101417.36
101418.54
101993.16
101990.01
101979.04
101957.35
101930.09
101905.16
101883.41
101861.24
101836.71
101810.35
101783.51
101756.74
101729.07
101696.23
101657.08
101615.84
101576.73
101543.29
101514.89
101489.58
101467.81
101451.62
101440.41
101431.58
101428.03
101424.95
101427.62
101423.55
101434.78
101420.04
101422.4
102066.73
102069.43
102069
102063.33
102048.28
102022.61
101992.75
101962.63
101931.84
101900.37
101867.74
101832.33
101793.36
101750.23
101705.35
101661.3
101619.94
101582.91
101549.98
101520.2
101494.49
101474.86
101460.23
101447.81
101440.96
101436.06
101435.7
101429.43
101437.57
101423.39
101427.06
102070.08
102064.23
102053.78
102040.13
102029.22
102022.34
102015.18
102005.88
101987.1
101956.54
101921.04
101883.71
101841.34
101793.36
101745.81
101701.01
101658.95
101620.21
101584.1
101550.68
101521.75
101499.07
101481.29
101465.52
101455.44
101448.47
101445.42
101436.62
101441.42
101428.22
101433.23
102066.52
102059.7
102050.91
102040.1
102027.77
102013.07
101995.21
101974.42
101955.8
101940.03
101921.92
101901.56
101872.13
101828.53
101781.44
101736.43
101694.52
101654.94
101616.49
101580.58
101549.14
101523.84
101503.17
101484.53
101471.53
101462.27
101456.83
101445.35
101447.06
101435.35
101442.82
102035.06
102029.8
102023.34
102015.7
102006.79
101996.36
101984.08
101969.78
101954.11
101937.29
101916.95
101890.47
101862.96
101838.58
101806.8
101766.65
101725.91
101686.06
101646.26
101609.24
101576.67
101549.29
101525.48
101504.54
101489.25
101477.37
101469.55
101455.59
101454.91
101444.45
101459.25
101995.9
101991.63
101986.45
101980.42
101973.45
101965.37
101956
101945.18
101932.67
101918.04
101900.9
101881.11
101858.98
101836.98
101815.73
101786.64
101749.07
101709.69
101671.2
101635.44
101603.48
101574.82
101548.13
101525.21
101507.97
101493.37
101482.93
101467.23
101464.7
101453.5
101475.85
101961.55
101958.41
101954.6
101950.17
101945.03
101939.05
101932.08
101923.95
101914.44
101903.32
101890.31
101875.17
101858.14
101838.62
101815.44
101788.19
101758.13
101723.99
101690.08
101657.72
101627.65
101598.98
101570.22
101545.78
101527.04
101509.99
101496.81
101480.31
101476.15
101461.46
101484.32
101925.5
101922.93
101919.81
101916.19
101911.97
101907.06
101901.32
101894.62
101886.81
101877.74
101867.28
101855.3
101841.45
101825.5
101807.38
101790.43
101770.48
101739.71
101706.92
101675.99
101646.82
101618.99
101590.78
101566.06
101545.57
101527.07
101512.22
101494.8
101489.28
101469.82
101491.5
101894.1
101892.06
101889.58
101886.69
101883.34
101879.43
101874.84
101869.47
101863.17
101855.81
101847.22
101837.22
101825.63
101812.08
101796.35
101778.14
101761.4
101746.53
101722.26
101691.69
101661.3
101634.51
101609.41
101586.03
101563.56
101543.4
101527.58
101509.61
101504.26
101483.89
101502.59
101855.3
101853.71
101851.79
101849.57
101847
101844.01
101840.52
101836.46
101831.71
101826.18
101819.75
101812.2
101803.27
101792.87
101781.35
101768.41
101751.79
101734.45
101722.2
101704.34
101676.77
101650.49
101626.79
101604.44
101581.31
101559.95
101543.08
101524.91
101520.71
101502.49
101525.39
101820.77
101819.57
101818.12
101816.45
101814.52
101812.29
101809.71
101806.73
101803.24
101799.14
101794.31
101788.69
101782.27
101774.93
101766.07
101755.56
101744.33
101731.43
101715.47
101699.92
101685.26
101665.75
101642.31
101619.93
101598.41
101576.9
101558.63
101540.18
101536.4
101520.51
101539.01
101793.86
101792.99
101791.94
101790.74
101789.35
101787.72
101785.81
101783.55
101780.92
101777.85
101774.27
101770.11
101765.26
101759.6
101753.06
101745.52
101736.72
101726.99
101715.44
101699.11
101682.21
101667.45
101650.99
101631.17
101609.81
101589.95
101570.91
101554.22
101549.08
101532.13
101532.86
101772.92
101772.3
101771.55
101770.68
101769.68
101768.5
101767.11
101765.48
101763.55
101761.27
101758.58
101755.37
101751.56
101746.98
101741.43
101734.77
101726.91
101717.8
101707.46
101697.95
101685.13
101666.7
101651.87
101636.19
101618.77
101599.67
101581.03
101567.66
101561.38
101545.59
101573.57
101749.27
101748.88
101748.4
101747.85
101747.2
101746.42
101745.49
101744.37
101743.01
101741.36
101739.37
101736.98
101734.11
101730.72
101726.78
101722.25
101717.07
101710.87
101703.07
101695.15
101687.49
101673.32
101656.38
101639.44
101622.85
101607.74
101594.6
101582.63
101574.45
101559.78
101580.76
101726.98
101726.69
101726.35
101725.96
101725.51
101724.99
101724.38
101723.68
101722.86
101721.93
101720.84
101719.56
101718.02
101716.16
101713.9
101711.1
101707.46
101702.81
101697.2
101689.88
101682.63
101676.16
101664.74
101651.38
101638.61
101625.4
101612.4
101599.07
101589.29
101577.33
101585.5
101720.17
101719.93
101719.65
101719.33
101718.94
101718.5
101717.97
101717.36
101716.63
101715.75
101714.71
101713.46
101711.96
101710.16
101707.98
101705.33
101702.14
101698.28
101693.55
101687.89
101680.7
101673.14
101665.77
101656.87
101647.05
101636.1
101625.53
101613.87
101600.19
101586.84
101583.11
101715.63
101715.2
101714.74
101714.27
101713.78
101713.25
101712.67
101712.01
101711.25
101710.35
101709.28
101708
101706.47
101704.65
101702.48
101699.92
101696.84
101693.12
101688.69
101683.81
101677.1
101670.27
101659.9
101651.32
101637.58
101627.79
101615.14
101601.62
101593.93
101587.11
101575.51
100102.34
100106.58
100118.73
100129.16
100142.01
100156.64
100174.18
100192.39
100215.55
100247.43
100290.21
100344.77
100410.7
100486.79
100572.21
100662.41
100759.69
100855.63
100951.13
101032.67
101087.83
101145.19
101192.26
101227.73
101263.84
101285
101300.6
101307.71
101322.97
101341.98
101318.98
100112.41
100126.66
100147.22
100159.07
100171.77
100182.82
100192.93
100206.73
100229.13
100262.01
100306.56
100362.59
100429.56
100506.06
100591.04
100679.6
100774.85
100864.49
100960.31
101034.51
101091.06
101148.39
101194.87
101229.83
101265.55
101286.3
101301.48
101308.34
101323.75
101342.81
101319.82
100124.78
100143.67
100153.12
100157.63
100166.39
100177.74
100189.89
100206.66
100231.91
100267.27
100314.01
100371.65
100439.73
100516.77
100601.76
100689.73
100784.98
100872.82
100968.47
101037.54
101095.1
101151.86
101197.62
101232.02
101267.32
101287.63
101302.44
101308.96
101324.54
101343.65
101320.45
100134.48
100150.93
100152
100155.46
100163.8
100173.99
100186.41
100204.88
100232.15
100269.63
100318.29
100377.44
100446.67
100524.44
100609.74
100697.63
100793.53
100881.51
100975.84
101040.92
101099.41
101155.33
101200.36
101234.21
101269.1
101288.97
101303.55
101309.6
101325.35
101344.5
101320.93
100137.22
100147.55
100147.18
100150.69
100158.77
100168.74
100182.4
100202.97
100232.41
100272.16
100322.75
100383.5
100453.94
100532.5
100618.13
100705.97
100802.35
100890.71
100982.24
101044.26
101103.78
101158.78
101203.1
101236.4
101270.88
101290.31
101304.9
101310.35
101326.17
101345.37
101321.37
100133.92
100138.59
100139.75
100144.69
100152.6
100163.01
100178.37
100201.14
100232.91
100275.06
100327.59
100389.99
100461.62
100540.93
100626.81
100714.59
100811.27
100899.72
100988.1
101047.61
101108.2
101162.21
101205.84
101238.59
101272.66
101291.67
101306.56
101311.29
101327.01
101346.24
101321.79
100128.65
100129.2
100131.35
100137.12
100145.12
100156.61
100174
100199.14
100233.46
100278.01
100332.53
100396.56
100469.36
100549.37
100635.46
100723.17
100819.97
100908.56
100994.35
101050.97
101112.65
101165.61
101208.58
101240.78
101274.44
101293.05
101308.49
101312.46
101327.87
101347.12
101322.23
100121.47
100120.27
100122.16
100127.89
100136.49
100149.61
100169.29
100196.98
100234
100280.95
100337.49
100403.17
100477.09
100557.78
100644.05
100731.7
100828.34
100917.41
101001.32
101054.37
101117.14
101169
101211.32
101242.97
101276.23
101294.44
101310.54
101313.82
101328.75
101348
101322.7
100110.6
100108.66
100110.64
100116.92
100126.85
100142.06
100164.28
100194.73
100234.55
100283.92
100342.53
100409.83
100484.85
100566.2
100652.61
100740.18
100836.65
100925.98
101008.41
101057.93
101121.64
101172.36
101214.05
101245.16
101278.02
101295.84
101312.62
101315.27
101329.64
101348.87
101323.2
100096.72
100094.75
100097.26
100104.61
100116.36
100134.01
100159.01
100192.43
100235.11
100286.96
100347.65
100416.56
100492.65
100574.63
100661.14
100748.61
100845.06
100933.75
101015.03
101061.87
101126.13
101175.71
101216.78
101247.34
101279.81
101297.25
101314.68
101316.74
101330.56
101349.74
101323.75
100079.79
100078.38
100082.02
100091
100105.03
100125.47
100153.51
100190.12
100235.71
100290.09
100352.89
100423.38
100500.49
100583.07
100669.64
100757.04
100853.47
100941.02
101021.16
101066.23
101130.6
101179.04
101219.51
101249.52
101281.61
101298.68
101316.71
101318.21
101331.49
101350.6
101324.33
100059.84
100059.67
100064.98
100076.12
100092.9
100116.49
100147.88
100187.82
100236.39
100293.36
100358.24
100430.27
100508.37
100591.52
100678.1
100765.56
100861.72
100948.28
101026.84
101070.87
101135.04
101182.36
101222.24
101251.71
101283.4
101300.11
101318.7
101319.64
101332.45
101351.44
101324.94
100036.93
100038.56
100046.13
100060.01
100080.03
100107.14
100142.18
100185.56
100237.19
100296.77
100363.72
100437.26
100516.31
100599.98
100686.54
100774.21
100869.48
100955.62
101032.12
101075.67
101139.44
101185.66
101224.96
101253.88
101285.2
101301.55
101320.68
101321.05
101333.43
101352.27
101325.58
100010.99
100015.04
100025.52
100042.76
100066.52
100097.53
100136.46
100183.39
100238.16
100300.36
100369.35
100444.34
100524.29
100608.44
100694.95
100782.89
100876.73
100962.97
101037.13
101080.59
101143.79
101188.95
101227.67
101256.06
101286.99
101303
101322.63
101322.45
101334.44
101353.09
101326.26
99981.981
99989.149
100003.26
100024.49
100052.47
100087.75
100130.77
100181.37
100239.34
100304.15
100375.14
100451.52
100532.33
100616.92
100703.35
100791.64
100883.71
100970.21
101041.95
101085.64
101148.11
101192.22
101230.38
101258.23
101288.79
101304.45
101324.56
101323.84
101335.49
101353.89
101326.95
99949.929
99961.016
99979.506
100005.36
100038.04
100077.95
100125.21
100179.6
100240.78
100308.17
100381.11
100458.82
100540.43
100625.4
100711.76
100800.51
100890.55
100977.32
101046.65
101090.78
101152.38
101195.49
101233.08
101260.39
101290.58
101305.91
101326.46
101325.22
101336.56
101354.7
101327.66
99914.952
99930.842
99954.494
99985.584
100023.42
100068.23
100119.89
100178.13
100242.53
100312.45
100387.26
100466.24
100548.58
100633.9
100720.23
100809.62
100897.69
100984.34
101051.3
101095.97
101156.6
101198.74
101235.78
101262.55
101292.37
101307.37
101328.35
101326.59
101337.68
101355.53
101328.38
99877.312
99898.952
99928.536
99965.438
100008.84
100058.75
100114.94
100177.06
100244.63
100317.01
100393.62
100473.78
100556.8
100642.41
100728.9
100818.66
100905.27
100991.29
101055.94
101101.19
101160.78
101201.99
101238.47
101264.71
101294.16
101308.83
101330.22
101327.95
101338.84
101356.36
101329.12
99837.478
99865.817
99902.048
99945.25
99994.523
100049.7
100110.48
100176.47
100247.14
100321.88
100400.2
100481.46
100565.08
100650.93
100737.63
100826.9
100912.7
100998.16
101060.57
101106.42
101164.92
101205.22
101241.15
101266.86
101295.95
101310.29
101332.07
101329.31
101340.05
101357.2
101329.88
99796.183
99832.086
99875.538
99925.406
99980.749
100041.28
100106.65
100176.42
100250.1
100327.1
100407.01
100489.28
100573.42
100659.48
100746.11
100834.59
100920.24
101004.76
101065.21
101111.68
101169.01
101208.45
101243.83
101269
101297.73
101311.76
101333.9
101330.69
101341.32
101358.07
101330.66
99754.43
99798.565
99849.601
99906.336
99967.815
100033.71
100103.58
100177.02
100253.57
100332.69
100414.08
100497.25
100581.82
100668.11
100754.66
100842.33
100928.18
101011.01
101069.9
101116.95
101173.06
101211.66
101246.49
101271.14
101299.51
101313.22
101335.73
101332.07
101342.66
101358.95
101331.47
99713.422
99766.207
99824.874
99888.482
99956.049
100027.21
100101.41
100178.35
100257.6
100338.67
100421.42
100505.36
100590.31
100676.94
100762.95
100849.82
100935.91
101017.22
101074.66
101122.22
101177.06
101214.86
101249.15
101273.27
101301.29
101314.68
101337.54
101333.5
101344.1
101359.84
101332.31
99674.507
99736.069
99801.989
99872.288
99945.79
100022.03
100100.28
100180.48
100262.24
100345.09
100429.03
100513.64
100598.96
100685.67
100770.99
100857.36
100942.92
101023.7
101079.5
101127.5
101181.03
101218.05
101251.79
101275.39
101303.06
101316.14
101339.33
101335.01
101345.63
101360.79
101333.2
99639.007
99709.002
99781.598
99858.249
99937.39
100018.4
100100.34
100183.51
100267.53
100351.95
100436.93
100522.16
100607.98
100694.2
100779.09
100864.85
100949.55
101030.56
101084.42
101132.76
101184.95
101221.23
101254.43
101277.5
101304.83
101317.59
101341.13
101336.61
101347.28
101361.81
101334.13
99607.391
99685.049
99764.85
99847
99931.184
100016.45
100101.73
100187.52
100273.52
100359.28
100445.18
100531.16
100617.25
100702.44
100787.32
100872.27
100956.2
101037.64
101089.42
101138
101188.84
101224.39
101257.05
101279.61
101306.59
101319.04
101342.91
101338.29
101349.1
101362.93
101335.1
99581.379
99666.151
99751.892
99838.983
99927.325
100016.2
100104.6
100192.63
100280.27
100367.14
100454.02
100540.96
100625.81
100710.47
100795.5
100879.62
100962.92
101044.64
101094.53
101143.22
101192.7
101227.54
101259.66
101281.7
101308.34
101320.48
101344.68
101340.07
101351.12
101364.17
101336.12
99561.885
99652.798
99743.262
99834.408
99926.248
100018.09
100108.86
100198.79
100287.94
100375.85
100463.87
100549.88
100633.69
100719.12
100803.65
100886.9
100969.66
101051.47
101099.76
101148.41
101196.51
101230.68
101262.26
101283.79
101310.09
101321.91
101346.44
101341.96
101353.39
101365.54
101337.17
99549.577
99645.528
99739.492
99833.641
99928.14
100022.2
100114.71
100206.14
100296.92
100386.16
100473.92
100558.14
100642.66
100727.85
100811.76
100894.1
100976.38
101058.15
101105.1
101153.55
101200.3
101233.8
101264.85
101285.87
101311.83
101323.33
101348.19
101343.94
101355.92
101367.05
101338.26
99545.078
99644.856
99740.991
99836.961
99933.174
100028.76
100122.49
100215.32
100307.9
100397.82
100482.46
100566.53
100651.78
100736.55
100819.86
100901.22
100983.08
101064.68
101110.53
101158.66
101204.06
101236.9
101267.43
101287.93
101313.56
101324.75
101349.92
101345.99
101358.79
101368.63
101339.39
99549.048
99651.294
99748.139
99844.651
99941.675
100038.45
100133.35
100227.58
100320.43
100407.01
100490.21
100576.2
100660.94
100745.28
100827.95
100908.27
100989.73
101071.11
101116.01
101163.72
101207.78
101239.98
101269.99
101289.99
101315.27
101326.17
101351.62
101348.11
101361.95
101370.22
101340.58
99562.418
99665.675
99761.67
99857.531
99954.67
100052.72
100149.06
100241.67
100329.65
100414.89
100500.57
100586.16
100670.2
100754.05
100836.04
100915.29
100996.32
101077.44
101121.52
101168.73
101211.47
101243.04
101272.53
101292.04
101316.98
101327.58
101353.29
101350.28
101365.36
101371.7
101341.89
99586.12
99689.068
99782.829
99877.416
99974.054
100071.25
100164.74
100253.24
100338.15
100425.18
100511.51
100596.27
100679.58
100762.88
100844.13
100922.36
101002.88
101083.69
101127.05
101173.68
101215.13
101246.09
101275.07
101294.08
101318.67
101328.99
101354.93
101352.43
101368.9
101373.02
101343.47
99616.585
99718.034
99808.809
99901.358
99995.984
100089
100176.34
100262.28
100348.9
100437.82
100522.78
100606.6
100689.08
100771.76
100852.22
100929.29
101009.45
101089.87
101132.56
101178.56
101218.75
101249.11
101277.58
101296.11
101320.35
101330.39
101356.54
101354.56
101372.4
101374.13
101344.63
99649.513
99748.297
99835.334
99923.575
100014.18
100100.98
100187.76
100276.42
100363.97
100451.18
100534.51
100617.21
100698.7
100780.69
100860.24
100935.88
101016.07
101095.99
101138.05
101183.36
101222.35
101252.11
101280.09
101298.13
101322.01
101331.79
101358.11
101356.64
101375.8
101375.03
101345.59
99686.144
99779.396
99860.795
99944.619
100030.05
100116.8
100207.36
100294.19
100379.99
100465.19
100546.76
100628.09
100708.45
100789.66
100868.17
100942.5
101022.65
101102.02
101143.5
101188.09
101225.92
101255.08
101282.57
101300.15
101323.66
101333.18
101359.64
101358.67
101379.1
101375.77
101346.66
99735.638
99825.561
99900.35
99978.478
100060.12
100144.74
100230.57
100313.59
100396.87
100480
100559.55
100639.25
100718.32
100798.67
100876.06
100949.29
101029.08
101107.97
101148.91
101192.74
101229.46
101258.03
101285.04
101302.15
101325.3
101334.56
101361.13
101360.63
101382.31
101376.41
101347.64
99801.939
99883.348
99950.266
100021.76
100097.82
100176.65
100256.39
100334.69
100414.96
100495.65
100572.9
100650.7
100728.32
100807.72
100883.91
100956.06
101035.37
101113.85
101154.27
101197.3
101232.97
101260.95
101287.48
101304.14
101326.92
101335.94
101362.55
101362.53
101385.4
101377.02
101348.83
99867.349
99944.321
100004.65
100069.57
100139.25
100211.47
100284.82
100357.69
100434.36
100512.15
100586.83
100662.46
100738.46
100816.8
100891.71
100962.81
101041.52
101119.62
101159.59
101201.79
101236.45
101263.84
101289.91
101306.12
101328.53
101337.3
101363.92
101364.34
101388.37
101377.64
101349.67
99937.32
100011.24
100065.07
100122.74
100184.96
100249.75
100315.94
100382.56
100455.15
100529.51
100601.37
100674.54
100748.72
100825.9
100899.45
100969.56
101047.53
101125.31
101164.85
101206.19
101239.91
101266.71
101292.32
101308.09
101330.12
101338.66
101365.22
101366.07
101391.21
101378.27
101351.29
100018.32
100087.87
100133.66
100182.39
100235.58
100291.71
100349.69
100409.25
100477.39
100547.71
100616.54
100686.95
100759.13
100835.01
100907.14
100976.32
101053.38
101130.88
101170.05
101210.51
101243.33
101269.55
101294.71
101310.05
101331.7
101340
101366.44
101367.71
101393.92
101378.92
101352.6
100115.16
100176.75
100211.51
100248.84
100291.12
100337.24
100385.88
100437.73
100501.14
100566.77
100632.36
100699.73
100769.67
100844.13
100914.75
100983.11
101059.05
101136.33
101175.18
101214.74
101246.72
101272.36
101297.07
101311.99
101333.25
101341.34
101367.59
101369.26
101396.5
101379.59
101353.48
100228.84
100277.97
100298.08
100321.39
100351.02
100385.95
100424.27
100468.1
100526.35
100586.65
100648.83
100712.89
100780.36
100853.23
100922.28
100989.94
101064.58
101141.64
101180.23
101218.89
101250.08
101275.13
101299.41
101313.93
101334.79
101342.67
101368.66
101370.73
101398.95
101380.29
101354.82
100354.59
100388.01
100390.82
100398.31
100414.22
100437.21
100464.64
100500.8
100552.57
100607.36
100665.95
100726.44
100791.2
100862.29
100929.69
100996.82
101070.1
101146.81
101185.19
101222.95
101253.41
101277.88
101301.73
101315.85
101336.32
101343.99
101369.67
101372.13
101401.27
101381
101356.62
100482.73
100500.24
100485.55
100477.11
100479.36
100490.14
100507.31
100535.75
100579.2
100628.99
100683.75
100740.39
100802.17
100871.27
100936.94
101003.78
101075.72
101151.84
101190.06
101226.94
101256.71
101280.6
101304.02
101317.76
101337.82
101345.31
101370.61
101373.47
101403.48
101381.73
101358.78
100602.69
100607.23
100577.86
100555.36
100545.04
100544.17
100552.59
100572.5
100606.42
100651.31
100702.22
100754.79
100813.32
100880.2
100944
101010.83
101081.36
101156.7
101194.83
101230.86
101259.98
101283.28
101306.29
101319.65
101339.31
101346.62
101371.49
101374.77
101405.57
101382.49
101361.23
100709.09
100704.44
100665.35
100632.15
100610.56
100600.88
100601.3
100610.94
100634.91
100674.5
100721.66
100769.96
100824.94
100889.29
100951.02
101018.01
101086.94
101161.3
101199.47
101234.68
101263.19
101285.92
101308.52
101321.52
101340.78
101347.9
101372.34
101376.07
101407.53
101383.25
101363.84
100808.61
100796.29
100752.25
100711.07
100681.41
100663.95
100654.41
100653.84
100668.73
100700.74
100743.37
100787.04
100838.02
100899.34
100958.71
101025.57
101092.48
101165.39
101203.81
101238.32
101266.31
101288.49
101310.7
101323.36
101342.19
101349.17
101373.26
101377.43
101409.35
101384.03
101366.58
100919.53
100899.7
100854.72
100806.62
100767.7
100739.43
100719.17
100708.68
100715.54
100735.69
100770.09
100808.09
100854.25
100911.76
100968.31
101034.01
101098.16
101168.86
101207.59
101241.73
101269.33
101290.99
101312.82
101325.18
101343.57
101350.43
101374.45
101378.97
101411.06
101384.81
101369.46
101043.59
101021.14
100986.34
100931.16
100877.83
100833.72
100800.49
100779.58
100775.54
100783.58
100802.66
100833.21
100873.65
100926.61
100980.13
101043.7
101104.55
101173.05
101211.21
101245.28
101272.45
101293.57
101315.01
101327.04
101344.96
101351.77
101376.17
101380.81
101412.75
101385.67
101372.62
100135.61
100149.59
100164.21
100175.52
100182.58
100190.65
100202.41
100217.52
100239.1
100269.82
100311.12
100363.74
100427.54
100501.3
100583.96
100671.26
100763.6
100857.82
100941.11
101025.67
101082.35
101141.59
101189.6
101225.6
101262.09
101283.68
101299.72
101307.11
101322.21
101341.25
101317.94
100127.02
100138.26
100153.67
100172.04
100182.7
100191.21
100202.32
100217.36
100238.87
100269.22
100309.91
100361.8
100424.89
100498.01
100580.15
100667.42
100759.44
100856.25
100936.79
101024.3
101080.44
101139.6
101187.81
101224.11
101260.81
101282.65
101299.04
101306.64
101321.65
101340.73
101316.88
100122.7
100131.77
100146.07
100165.17
100177.4
100187.75
100200.92
100217.43
100239.71
100270.18
100310.51
100361.71
100423.97
100496.27
100577.65
100664.63
100756.17
100853.89
100934.4
101022.66
101078.57
101137.79
101186.18
101222.73
101259.61
101281.65
101298.39
101306.18
101321.1
101340.27
101315.4
100123.41
100132.27
100145.54
100162.79
100175.32
100187.33
100202.18
100219.93
100242.9
100273.49
100313.43
100363.85
100425.13
100496.41
100576.78
100663.14
100753.89
100851.52
100932.03
101020.46
101076.35
101135.81
101184.46
101221.29
101258.35
101280.61
101297.72
101305.71
101320.52
101339.83
101313.33
100124.4
100133.39
100146.1
100162.31
100175.41
100188.52
100204.33
100222.98
100246.55
100277.29
100316.93
100366.66
100427.01
100497.28
100576.59
100662.23
100752.08
100849.29
100929.47
101018.03
101074.02
101133.72
101182.68
101219.78
101257.05
101279.54
101297.03
101305.24
101319.93
101339.43
101311.23
100124.63
100133.58
100145.78
100161.62
100175.62
100189.6
100206.15
100225.64
100249.85
100280.83
100320.27
100369.44
100428.97
100498.29
100576.6
100661.51
100750.47
100847.18
100926.87
101015.54
101071.74
101131.63
101180.88
101218.26
101255.73
101278.46
101296.33
101304.76
101319.34
101339.05
101309.72
100124.51
100133.29
100145.02
100160.52
100175.41
100190.24
100207.53
100227.91
100252.79
100284.08
100323.42
100372.12
100430.91
100499.36
100576.7
100660.88
100748.99
100845.14
100924.33
101012.97
101069.51
101129.56
101179.09
101216.74
101254.41
101277.37
101295.64
101304.29
101318.75
101338.65
101308.85
100124.24
100132.88
100144.23
100159.35
100174.96
100190.64
100208.68
100229.95
100255.52
100287.18
100326.48
100374.78
100432.89
100500.51
100576.9
100660.35
100747.62
100843.19
100921.87
101010.39
101067.32
101127.5
101177.31
101215.22
101253.09
101276.29
101294.94
101303.82
101318.15
101338.2
101308.31
100123.91
100132.44
100143.48
100158.24
100174.45
100190.96
100209.71
100231.85
100258.12
100290.17
100329.49
100377.46
100434.94
100501.76
100577.23
100659.93
100746.37
100841.3
100919.51
101007.81
101065.16
101125.44
101175.54
101213.71
101251.77
101275.19
101294.25
101303.35
101317.56
101337.72
101308.04
100123.6
100132.02
100142.77
100157.15
100173.92
100191.26
100210.69
100233.68
100260.62
100293.08
100332.47
100380.16
100437.07
100503.12
100577.7
100659.64
100745.25
100839.5
100917.24
101005.21
101063
101123.4
101173.78
101212.19
101250.45
101274.09
101293.54
101302.87
101316.96
101337.21
101307.89
100123.39
100131.67
100142.14
100156.16
100173.46
100191.57
100211.67
100235.46
100263.08
100295.96
100335.45
100382.91
100439.27
100504.59
100578.29
100659.47
100744.26
100837.76
100915.13
101002.59
101060.86
101121.37
101172.02
101210.67
101249.12
101272.99
101292.83
101302.4
101316.36
101336.65
101307.75
100123.33
100131.47
100141.7
100155.43
100173.15
100191.97
100212.72
100237.25
100265.51
100298.82
100338.43
100385.69
100441.57
100506.17
100579.02
100659.42
100743.39
100836.09
100913.14
100999.95
101058.75
101119.35
101170.27
101209.16
101247.78
101271.88
101292.12
101301.92
101315.76
101336.09
101307.54
100123.51
100131.52
100141.56
100155.15
100173.1
100192.47
100213.88
100239.09
100267.97
100301.69
100341.45
100388.54
100443.95
100507.88
100579.89
100659.5
100742.66
100834.53
100911.18
100997.28
101056.65
101117.35
101168.53
101207.64
101246.45
101270.76
101291.4
101301.44
101315.16
101335.54
101307.22
100123.98
100131.92
100141.82
100155.34
100173.34
100193.13
100215.19
100241.02
100270.48
100304.61
100344.52
100391.46
100446.43
100509.7
100580.89
100659.7
100742.06
100833.23
100909.46
100994.68
101054.56
101115.37
101166.8
101206.12
101245.11
101269.64
101290.67
101300.95
101314.56
101335.01
101306.8
100124.81
100132.7
100142.5
100155.94
100173.88
100194.04
100216.71
100243.09
100273.1
100307.61
100347.66
100394.47
100449.02
100511.65
100582.03
100660.03
100741.58
100831.96
100908.03
100992.51
101052.49
101113.4
101165.07
101204.61
101243.77
101268.52
101289.93
101300.46
101313.96
101334.47