/*--------------------------------*- C++ -*----------------------------------*\
| =========                 |                                                 |
| \\      /  F ield         | OpenFOAM: The Open Source CFD Toolbox           |
|  \\    /   O peration     | Version:  2406                                  |
|   \\  /    A nd           | Website:  www.openfoam.com                      |
|    \\/     M anipulation  |                                                 |
\*---------------------------------------------------------------------------*/
FoamFile
{
    version     2.0;
    format      ascii;
    arch        "LSB;label=32;scalar=64";
    class       volScalarField;
    location    "0.004";
    object      omega;
}
// * * * * * * * * * * * * * * * * * * * * * * * * * * * * * * * * * * * * * //

dimensions      [0 0 -1 0 0 0 0];

internalField   nonuniform List<scalar> 
8951
(
21958.206
19492.676
17056.614
14735.907
12573.838
10595.337
8814.7941
7238.1267
5864.6201
4689.4637
3701.9621
2886.4996
2224.6476
1696.5295
1281.8032
960.52568
711.70136
506.96464
337.06801
227.80553
178.35726
150.27294
133.06076
123.3611
116.47851
110.24384
107.61132
103.69939
102.27509
99.790707
98.074099
19190.742
17147.869
15149.788
13225.162
11401.344
9701.8354
8145.3227
6744.673
5507.3689
4435.3415
3524.2289
2764.0328
2141.4395
1640.7635
1244.9132
936.40607
695.63199
495.57448
327.79066
223.20503
176.34495
149.06185
132.4415
123.01607
116.23182
110.11889
107.47611
103.64592
102.23765
99.757948
98.068443
16556.773
14931.679
13320.316
11745.368
10228.446
8790.4846
7450.7507
6225.3753
5126.5566
4161.2986
3330.5142
2629.4046
2049.3497
1578.712
1203.6917
909.34656
677.52964
482.72326
317.99398
219.85166
175.13172
148.33935
132.08397
122.80665
116.0683
110.0347
107.34612
103.60559
102.20548
99.730121
98.062192
14080.819
12826.793
11559.786
10298.57
9061.6971
7868.0171
6736.0771
5683.0164
4723.3753
3867.5606
3120.5888
2482.1443
1947.8428
1509.8796
1157.7224
878.99994
657.07671
467.89419
307.31394
215.8504
173.33562
147.18508
131.48458
122.46011
115.77404
109.89615
107.21627
103.54526
102.15854
99.695841
98.055099
11801.387
10858.211
9886.855
8901.0799
7915.6208
6946.4533
6010.2603
5123.5276
4301.3584
3555.9546
2895.2134
2322.3789
1836.7254
1433.9548
1106.6826
845.05206
633.90035
450.40854
295.45997
211.62667
171.51268
146.04943
130.91927
122.12962
115.46026
109.76003
107.09785
103.48491
102.1076
99.659988
98.047045
9742.6093
9051.269
8324.8231
7573.5663
6807.9684
6040.3367
5284.4478
4554.8178
3865.6614
3229.5385
2655.97
2150.7508
1716.1021
1350.7777
1050.3133
807.19472
607.54641
429.44032
282.43706
207.09296
169.35757
144.65069
130.20686
121.70159
115.09168
109.58581
106.94705
103.40879
102.04112
99.61702
98.03795
7917.1648
7424.2232
6894.3098
6336.5875
5757.5764
5165.78
4571.5297
3986.5065
3422.9537
2892.5837
2405.3377
1968.5062
1586.4431
1260.3803
988.43772
765.12481
577.44818
404.89374
268.43546
202.32307
167.00522
143.14313
129.45993
121.24015
114.79834
109.40702
106.82519
103.32566
101.96223
99.568359
98.027747
6329.232
5986.4226
5610.3004
5207.7654
4782.34
4339.2563
3885.5069
3429.656
2981.3706
2550.6466
2146.8111
1777.6193
1448.6877
1163.057
920.99828
718.5474
542.87303
376.55481
253.84162
197.30369
164.32497
141.39296
128.58206
120.68386
114.48443
109.19732
106.72329
103.22416
101.86161
99.513794
98.01639
4974.38
4742.2628
4482.905
4200.9196
3897.7757
3576.2156
3240.4296
2896.0886
2550.1587
2210.4476
1884.9069
1580.8567
1304.3198
1059.4215
848.07683
667.15146
502.81827
344.45183
239.31569
192.02866
161.35804
139.48228
127.63454
120.07026
114.11938
108.95309
106.59109
103.10779
101.73982
99.453618
98.003935
3842.1909
3689.4361
3515.8934
3324.3928
3115.1651
2889.2835
2648.8694
2397.2415
2138.9215
1879.4469
1624.9732
1381.7213
1155.3723
950.42092
769.85445
610.50788
456.00852
309.42957
225.57431
186.43377
158.01795
137.33499
126.54841
119.35062
113.68328
108.64918
106.39574
102.96705
101.59541
99.391892
97.990624
2915.3312
2817.8972
2705.4207
2579.5443
2439.8861
2286.5569
2120.3276
1942.8144
1756.5817
1565.1328
1372.7566
1184.2173
1004.3067
837.26055
686.53756
547.55805
400.59225
274.12734
213.05372
180.4802
154.32368
135.0145
125.36221
118.54591
113.20578
108.3214
106.19778
102.80643
101.44806
99.334986
97.976458
2171.6199
2111.6777
2041.3317
1961.4754
1871.5215
1771.1337
1660.3406
1539.673
1410.2957
1274.0979
1133.7041
992.35788
853.66333
721.10663
597.83068
475.39623
337.4908
243.47473
201.6203
174.11857
150.22168
132.46934
124.01491
117.61052
112.65784
107.94097
105.97571
102.61779
101.30268
99.288446
97.961397
1586.1476
1550.4364
1508.0779
1459.3974
1403.7562
1340.6153
1269.641
1190.7576
1104.2447
1010.856
911.90488
809.25491
705.26859
602.30089
501.20292
388.79975
277.45394
220.79522
190.5957
167.34601
145.7598
129.75649
122.52987
116.55587
112.08314
107.5148
105.73066
102.40478
101.12995
99.244493
97.946008
1131.1201
1110.6314
1086.1086
1057.6121
1024.6382
986.66611
943.18345
893.74604
838.07855
776.1803
708.3996
635.29449
558.21077
478.05142
391.42382
294.84002
236.16162
204.29085
179.44913
159.85822
141.01523
126.88809
120.85588
115.33866
111.44442
107.04151
105.4466
102.15462
100.9232
99.203144
97.931055
777.89268
766.61035
753.03428
737.09034
718.3366
696.29773
670.48238
640.31957
605.23057
564.72926
518.58403
466.09273
409.45215
348.61328
284.81691
238.73541
212.15108
188.02578
168.67611
153.1273
135.93398
123.7759
118.99276
114.00681
110.76815
106.5298
105.11062
101.86209
100.70389
99.160105
97.917528
503.2038
496.83295
489.37786
480.80083
470.61073
458.16717
442.89853
424.30111
401.98217
375.53109
345.66558
314.89097
285.26536
253.92438
225.99666
207.83001
192.28714
175.22504
157.83522
144.58672
130.94597
120.98982
116.84264
112.56347
109.99858
105.97528
104.69926
101.50093
100.45062
99.129304
97.906528
321.96722
318.67233
314.67762
310.0324
304.62516
298.32096
290.8296
282.17731
271.53709
259.19728
245.57805
232.14742
218.8368
203.79965
194.89101
186.84077
174.87733
159.82082
147.65646
138.29465
126.17696
117.80487
114.78432
111.10715
109.1003
105.39232
104.23032
101.06702
100.17997
99.101093
97.898604
222.83862
221.70983
220.37441
218.62488
216.38865
213.46211
209.81391
206.25861
202.0686
197.41272
192.89271
190.17185
183.20682
175.41967
168.35474
160.89816
155.58946
149.53129
139.30288
130.01237
121.58246
115.61135
112.54669
109.68883
107.9823
104.73108
103.67225
100.69278
99.925609
99.07474
97.892526
173.8488
173.21967
172.49992
171.70196
170.83478
169.8373
168.77964
166.63445
164.48707
162.48443
160.61754
160.44422
158.63624
154.06799
146.88524
141.97508
139.68823
135.03302
129.75249
125.47921
118.3419
112.81743
110.50461
108.44892
106.6124
103.98881
103.0714
100.34582
99.699091
99.061766
97.886289
149.49726
148.87355
148.09632
147.08755
145.88355
144.85369
143.9755
143.18634
142.53049
142.63368
142.54012
139.66923
136.93684
135.37528
135.33474
131.3008
127.51932
126.37724
123.5154
119.05976
114.40045
110.88763
107.98461
107.2065
105.19334
103.10391
102.43223
100.02435
99.506974
99.057602
97.881181
130.55274
130.59826
130.7762
131.02943
131.22429
131.35127
131.31714
131.01169
130.13816
128.33474
126.0489
124.73109
124.86326
123.8465
122.96622
122.23832
120.73407
117.89765
116.31894
115.34517
111.63952
107.69484
105.86238
105.59193
103.76782
102.29419
101.76008
99.733645
99.384743
99.069114
97.878065
119.36333
119.07603
118.68985
118.23434
117.89666
117.62591
117.37152
117.11317
116.8467
116.63233
117.2687
117.30649
115.85613
114.6813
113.68405
112.78134
112.24164
112.5822
112.28875
109.97883
106.95957
105.36569
103.38353
103.60654
102.57286
101.36047
101.07238
99.42896
99.283896
99.084412
97.826672
110.74256
110.81743
110.94392
111.06451
111.1804
111.27043
111.29183
111.21729
110.97232
110.42911
109.34993
108.94179
109.01189
109.02362
108.62563
107.49824
107.4611
106.61002
106.36579
105.83701
104.55262
102.25473
101.59553
101.88063
101.31653
100.55607
100.36326
99.143599
99.239827
99.103543
97.857528
105.61387
105.52324
105.39308
105.26667
105.14815
105.03745
104.93719
104.85205
104.7855
104.7408
104.70008
104.73163
104.4842
104.0497
103.75492
103.30854
103.08038
102.5659
102.29402
102.07331
101.85437
100.84155
100.55921
100.43127
100.5871
99.764924
99.707916
98.927265
99.223752
99.046433
97.903836
102.23053
102.23216
102.24387
102.2655
102.29452
102.339
102.40069
102.46782
102.50226
102.45349
102.25982
101.8996
101.68859
101.52833
101.48876
101.38809
101.00298
100.78826
100.42691
100.38553
100.41812
100.03981
99.739277
99.7218
99.947155
99.216475
99.294056
98.801379
99.182064
98.76548
97.965743
100.33292
100.31345
100.28016
100.23234
100.18702
100.14799
100.11584
100.09179
100.0773
100.06989
100.05913
100.03626
100.02477
100.06539
100.03096
100.00193
99.93393
99.755755
99.40602
99.559095
99.458092
99.187633
99.278183
99.312884
99.20832
98.911631
99.026145
98.733881
99.052382
98.701093
98.060957
99.08459
99.083273
99.077324
99.065602
99.053047
99.041429
99.031633
99.024651
99.023778
99.030172
99.034194
99.027691
99.013199
99.018041
99.061407
99.054618
98.965679
98.894846
98.766691
98.953499
98.958471
98.741609
98.734775
98.905421
98.816664
98.67615
98.730173
98.604215
98.692285
98.559417
98.165252
98.548763
98.54888
98.544809
98.537757
98.530854
98.524462
98.517911
98.508747
98.498739
98.492211
98.491513
98.492145
98.491185
98.502696
98.523618
98.529437
98.475626
98.429195
98.453632
98.525084
98.523072
98.403209
98.432493
98.499996
98.497042
98.439318
98.452745
98.414466
98.410808
98.337301
98.18396
98.298722
98.298114
98.296136
98.294026
98.292927
98.292972
98.293762
98.294906
98.296447
98.299259
98.305775
98.311403
98.311627
98.309271
98.308749
98.303512
98.273478
98.276865
98.312776
98.353927
98.336955
98.280975
98.288284
98.328906
98.323638
98.302301
98.298409
98.266943
98.289428
98.230091
98.184603
98.225944
98.224481
98.223044
98.222159
98.222262
98.223474
98.225559
98.228045
98.23046
98.232719
98.234927
98.235836
98.233951
98.231373
98.228049
98.227049
98.21534
98.235475
98.272652
98.298039
98.282302
98.24179
98.239802
98.264866
98.246519
98.236492
98.226633
98.211155
98.226432
98.195704
98.190542
98.337458
98.337273
98.336848
98.336194
98.335417
98.334656
98.334061
98.333779
98.333833
98.333915
98.333277
98.330975
98.327148
98.322089
98.317058
98.316596
98.31693
98.329449
98.301407
98.290366
98.287898
98.2974
98.287251
98.277918
98.274969
98.271523
98.267429
98.266188
98.261678
98.257694
98.308101
60879.916
87323.533
104892.72
100875.19
84315.906
59781.155
42762.513
31351.663
23189.752
17090.348
12480.649
9005.9342
6416.0146
4516.1844
3144.2854
2168.309
1483.0574
1003.787
670.87261
438.31012
279.45143
193.97761
155.40367
136.04809
124.42285
115.48704
110.72291
105.47509
103.64537
101.30757
98.107164
81001.352
108862.92
110471.49
98982.657
70919.232
50527.88
37504.159
28288.586
21277.773
15848.86
11663.224
8468.1035
6066.4686
4292.4112
3003.2695
2080.8512
1429.5715
971.28949
651.32604
426.15488
272.35158
190.66674
153.9884
135.37985
124.03718
115.26501
110.5967
105.41414
103.59518
101.29419
98.115374
106135.42
119247.71
111872.41
87219.873
61824.942
45444.824
34353.984
26141.441
19778.205
14810.082
10952.501
7989.5977
5750.6342
4087.8668
2873.1893
1999.5675
1379.5513
940.71573
632.8828
414.6607
265.97795
188.16656
153.02049
134.92589
123.76426
115.10399
110.50122
105.37065
103.54821
101.28104
98.123504
126856.78
122772.33
105408.98
74944.512
54599.286
41293.325
31696.886
24301.725
18477.587
13896.267
10318.423
7557.898
5462.9561
3899.986
2752.8297
1923.8748
1332.7103
911.91709
615.45275
403.75514
260.04731
185.74372
151.9765
134.41172
123.45179
114.91901
110.39283
105.31935
103.49908
101.26532
98.131753
135413.59
122419.18
89633.419
64941.036
49063.486
37912.276
29408.72
22679.26
17320.224
13076.7
9745.3873
7165.1414
5199.451
3726.7558
2641.1737
1853.2599
1288.7858
884.75333
598.96185
393.36701
254.42456
183.45697
151.00845
133.93989
123.16319
114.74825
110.29169
105.27258
103.45109
101.24812
98.140068
138092.56
105913.92
76703.066
57737.584
44770.311
35062.197
27394.926
21228.883
16278.534
12334.476
9223.8188
6805.9343
4957.1549
3566.589
2537.3854
1787.2878
1247.5506
859.10833
583.35082
383.44427
249.07504
181.30153
150.07089
133.47298
122.87314
114.57508
110.18851
105.22417
103.40319
101.22734
98.148321
123678.31
89732.372
67254.101
52231.201
41219.564
32583.564
25601.789
19924.277
15335.396
11658.716
8747.0845
6476.26
4733.7422
3418.1885
2440.7597
1725.5827
1208.8046
834.87732
568.55377
373.95162
243.98819
179.2717
149.17499
133.02441
122.59231
114.40705
110.08766
105.17699
103.35662
101.2032
98.15637
103076.29
77392.824
60246.226
47846.891
38205.168
30402.318
23996.715
18746.595
14478.279
11041.487
8310.1346
6172.9439
4527.3168
3280.4676
2350.692
1667.816
1172.3709
811.96787
554.5075
364.86524
239.15722
177.36152
148.31452
132.58836
122.31639
114.24089
109.9872
105.12948
103.31138
101.17522
98.164073
88609.647
68944.262
54942.382
44224.664
35590.229
28464.431
22554.04
17680.24
13697.134
10476.566
7908.8781
5893.3702
4336.2896
3152.4975
2266.6568
1613.698
1138.0916
790.28912
541.16495
356.16742
234.57585
175.56463
147.489
132.16643
122.04742
114.07821
109.88826
105.08236
103.26805
101.14383
98.171292
77878.93
62320.407
50561.061
41117.157
33288.682
26732.213
21253.186
16712.111
12983.837
9958.793
7539.8627
5635.3215
4159.2991
3033.4727
2188.1919
1562.971
1105.8251
769.75649
528.47366
347.8447
230.23825
173.87483
146.69629
131.75733
121.7847
113.91839
109.79057
105.03528
103.22683
101.10938
98.177897
69973.894
57199.151
46953.612
38434.869
31249.419
25177.456
20077.047
15831.182
12331.571
9483.6916
7200.101
5396.8804
3995.1609
2922.6849
2114.8872
1515.404
1075.4441
750.30931
516.38409
339.88534
226.13919
172.28595
145.935
131.36091
121.52869
113.76183
109.6946
104.98849
103.18803
101.07233
98.183767
64076.279
53054.395
43866.261
36071.96
29426.845
23776.87
19011.106
15028.047
11734.435
9047.3174
6886.9731
5176.3661
3842.8314
2819.5059
2046.3756
1470.7892
1046.8336
731.8993
504.85819
332.27475
222.2738
170.79191
145.20369
130.9766
121.27934
113.6084
109.60048
104.94195
103.15179
101.03295
98.188798
59363.081
49547.335
41170.201
33973.184
27791.636
22512.222
18042.898
14294.708
11187.296
8646.1748
6598.1618
4972.2909
3701.3828
2723.3735
1982.3268
1428.9383
1019.8959
714.47167
493.86235
324.99582
218.63646
169.38692
144.50113
130.604
121.03678
113.45823
109.50856
104.89582
103.11822
100.99165
98.19291
55454.571
46522.985
38794.034
32099.721
26320.325
21367.718
17161.722
13624.417
10685.582
8277.1453
6331.6051
4783.3291
3569.985
2633.7822
1922.4419
1389.6803
994.54238
697.98239
483.35904
318.03373
215.22058
168.06515
143.82617
130.24267
120.80103
113.31129
109.41907
104.85018
103.08732
100.94895
98.196055
52113.776
43875.075
36684.026
30420.517
24993.233
20329.792
16358.519
13011.254
10225.187
7937.4416
6085.4607
4608.2928
3447.8912
2550.275
1866.4492
1352.8583
970.67627
682.39427
473.33564
311.37798
212.01852
166.82108
143.17779
129.89222
120.57214
113.16762
109.33224
104.80514
103.05895
100.90558
98.198231
49210.917
41537.967
34801.785
28911.027
23793.78
19386.805
15625.511
12449.928
9802.4375
7624.5713
5858.0779
4446.1135
3334.4269
2472.4373
1814.1012
1318.329
948.21754
667.66747
463.77579
305.02045
209.02217
165.64974
142.55502
129.55227
120.3501
113.02721
109.24825
104.7608
103.03286
100.86249
98.199479
46665.375
39464.053
33116.664
27550.997
22707.588
18528.665
14955.999
11935.72
9414.0521
7336.3039
5647.9736
4295.8279
3228.9813
2399.8919
1765.1717
1285.9608
927.10757
653.76636
454.66202
298.95531
206.22294
164.54643
141.957
129.22248
120.13493
112.89006
109.16722
104.71726
103.00874
100.82061
98.199894
44419.685
37615.979
31603.537
26323.113
21722.233
17746.766
14344.073
11464.427
9057.0999
7070.6395
5453.8128
4156.5649
3131
2332.2953
1719.4536
1255.6376
907.28346
640.65767
445.9771
293.1781
203.61193
163.50679
141.38293
128.90252
119.92658
112.75616
109.08917
104.67465
102.98621
100.78053
98.199613
42428.843
35963.179
30241.43
25212.515
20826.983
17033.695
13784.495
11032.309
8728.9604
6825.7826
5274.3919
4027.5361
3039.979
2269.3334
1676.7565
1227.2459
888.68706
628.31186
437.70358
287.68606
201.18006
162.52677
140.83208
128.59212
119.72503
112.62551
109.01406
104.63305
102.9649
100.74245
98.198812
40655.72
34480.195
29012.727
24206.307
20012.559
16383.032
13272.595
10636.021
8427.2864
6600.1187
5108.6242
3908.0265
2955.4595
2210.7195
1636.9053
1200.676
871.26306
616.70207
429.824
282.47736
198.91845
161.60263
140.3038
128.29104
119.53024
112.49812
108.94178
104.59247
102.94448
100.70635
98.197686
39070.221
33145.846
27902.27
23293.357
19271.002
15789.081
12804.209
10272.577
8149.9738
6392.1946
4955.5274
3797.3877
2877.0236
2156.1913
1599.7398
1175.833
854.95007
605.80177
422.32103
277.54983
196.81837
160.73089
139.7975
127.99907
119.34213
112.37401
108.87215
104.55285
102.92461
100.67204
98.196427
37647.129
31942.235
26896.947
22463.999
18595.396
15246.77
12375.626
9939.306
7895.1339
6200.7012
4814.2135
3695.0309
2804.2905
2105.509
1565.1228
1152.6297
839.68244
595.58481
415.17834
272.90001
194.87127
159.90832
139.31267
127.71604
119.16066
112.2532
108.80493
104.51422
102.90501
100.63882
98.195192
36365.443
30854.161
25985.349
21709.806
17979.678
14751.58
11983.533
9633.8151
7661.0699
6024.4582
4683.8788
3600.4216
2736.9131
2058.4515
1532.9156
1130.9879
825.40599
586.02608
408.38116
268.52346
193.06885
159.13195
138.84885
127.44183
118.98573
112.13574
108.73988
104.47657
102.88542
100.60571
98.194081
35207.116
29868.461
25157.593
21023.453
17418.438
14299.488
11624.97
9353.9608
7446.2567
5862.4007
4563.7956
3513.0746
2674.575
2014.8304
1502.981
1110.8327
812.07308
577.10026
401.91549
264.4151
191.4031
158.39905
138.40564
127.17633
118.81725
112.02166
108.67673
104.43986
102.86559
100.57209
98.193123
34156.681
28973.715
24405.003
20398.491
16906.844
13886.91
11297.291
9097.82
7249.3224
5713.568
4453.3058
3432.5495
2616.9904
1974.4596
1475.2119
1092.0947
799.63325
568.78306
395.76697
260.56972
189.86635
157.70714
137.9827
126.9195
118.65512
111.91103
108.61523
104.40405
102.84531
100.53773
98.192281
33201.321
28159.467
23719.831
19829.277
16440.625
13510.627
10998.111
8863.6704
7069.0333
5577.0934
4351.8136
3358.446
2563.9133
1937.1563
1449.5045
1074.7108
788.05936
561.05769
389.92207
256.98166
188.45131
157.05397
137.5797
126.67129
118.49921
111.80393
108.55512
104.36912
102.82441
100.50273
98.191443
32329.396
27417.153
23095.56
19310.849
16015.994
13167.747
10725.301
8649.9663
6904.2812
5452.196
4258.7778
3290.4243
2515.0976
1902.7769
1425.7634
1058.6234
777.32529
553.89976
384.37007
253.64442
187.15107
156.43754
137.19634
126.43172
118.34938
111.70042
108.49619
104.33498
102.80276
100.4673
98.190455
31531.202
26739.241
22526.361
18838.721
15629.517
12855.718
10476.969
8455.3155
6754.0696
5338.1707
4173.7275
3228.1464
2470.3108
1871.1823
1403.9016
1043.7801
767.40422
547.27677
379.10568
250.55149
185.9592
155.85606
136.83234
126.20083
118.20548
111.60057
108.43833
104.3017
102.7803
100.43158
98.189206
30798.346
26119.137
22007.101
18408.908
15278.154
12572.261
10251.473
8278.4591
6617.5
5234.4065
4096.2631
3171.2894
2429.3624
1842.2447
1383.84
1030.1327
758.26855
541.16515
374.12891
247.69658
184.86974
155.30797
136.4874
125.97864
118.06752
111.50433
108.38189
104.26893
102.7571
100.39564
98.187609
30123.628
25551.094
21533.277
18017.881
14959.197
12315.329
10047.207
8118.2543
6493.7952
5140.4043
4025.9661
3119.6075
2392.0749
1815.8489
1365.5069
1017.6373
749.89101
535.54102
369.44108
245.07324
183.87709
154.79199
136.16118
125.76522
117.93575
111.41139
108.32656
104.23691
102.73327
100.35953
98.185598
29500.954
25030.167
21100.968
17662.536
14670.23
12083.094
9862.9038
7973.8978
6382.3592
5055.6159
3962.4486
3072.8572
2358.2877
1791.8913
1348.8374
1006.2542
742.2458
530.38272
365.04284
242.67859
182.97195
154.30733
135.853
125.56065
117.80988
111.32193
108.27239
104.20571
102.70893
100.32324
98.183131
28925.254
24552.23
20706.925
17340.397
14409.371
11874.146
9697.5473
7844.7042
6282.5232
4979.5361
3905.4067
3030.8161
2327.8566
1770.2786
1333.7731
995.94733
735.30914
525.67113
360.94639
240.49682
182.14389
153.85282
135.56274
125.36501
117.68986
111.23591
108.21933
104.17556
102.68422
100.28692
98.180189
28396.633
24116.524
20350.072
17050.413
14175.758
11687.685
9550.3441
7729.6527
6193.6103
4911.779
3854.5517
2993.2886
2300.6526
1750.9272
1320.2617
986.68474
729.05955
521.39009
357.16227
238.51134
181.39167
153.42766
135.29005
125.17838
117.57554
111.15338
108.16742
104.1464
102.65929
100.25089
98.17677
27920.667
23726.008
20031.487
16792.428
13968.8
11522.875
9420.2215
7627.951
6115.1291
4851.9679
3809.6302
2960.1022
2276.5612
1733.7627
1308.2569
978.43804
723.47827
517.52665
353.69438
236.71281
180.71234
153.03107
135.0347
125.00083
117.46684
111.0743
108.11669
104.11768
102.63422
100.2155
98.172882
27493.961
23378.539
19749.477
16564.826
13786.31
11377.905
9306.0362
7539.0043
6046.5902
4799.7754
3770.4173
2931.1058
2255.4815
1718.7192
1297.7174
971.18249
718.54947
514.07076
350.54373
235.09374
180.10373
152.66243
134.79641
124.83243
117.3637
110.9987
108.06722
104.0886
102.60911
100.18091
98.168546
27094.658
23059.764
19494.936
16362.023
13625.209
11251.008
9206.9037
7462.1536
5987.5685
4754.9128
3736.7192
2906.1673
2237.3258
1705.7392
1288.6073
964.89686
714.26027
511.01499
347.70946
233.64743
179.56378
152.32124
134.57492
124.67322
117.26609
110.92656
108.01908
104.05955
102.58408
100.14721
98.163786
26705.298
22756.791
19259.184
16178.784
13483.055
11140.871
9121.8757
7396.8253
5937.6936
4717.1315
3708.3694
2885.175
2222.0184
1694.7731
1280.8953
959.56333
710.60078
508.35445
345.18926
232.36768
179.09078
152.00712
134.36998
124.52322
117.17406
110.85787
107.97239
104.03098
102.55921
100.11461
98.158634
26338.347
22474.923
19043.68
16014.717
13358.494
11046.373
9050.2128
7342.5313
5896.6461
4686.2184
3685.2269
2868.0359
2209.4972
1685.7791
1274.5551
955.16727
707.56399
506.08684
342.98008
231.24878
178.68328
151.71982
134.18134
124.38242
117.08768
110.79261
107.9273
104.00278
102.53456
100.08322
98.153125
25996.717
22216.085
18849.122
15869.646
13250.953
10966.85
8991.3589
7298.8716
5864.1574
4661.9956
3667.1762
2854.674
2199.7123
1678.7232
1269.5646
951.69699
705.1457
504.21242
341.07888
230.28548
178.34013
151.45921
134.00878
124.25079
117.00712
110.73077
107.88401
103.97501
102.51015
100.05308
98.147299
25679.359
21979.956
18675.369
15743.325
13160.059
10901.86
8944.9048
7265.5297
5840.0096
4644.3189
3654.1259
2845.0303
2192.6248
1673.5795
1265.9064
949.14346
703.34428
502.734
339.48291
229.47294
178.0604
151.22531
133.85208
124.12828
116.9326
110.67233
107.8428
103.94768
102.48601
100.02414
98.141198
25383.756
21765.036
18521.583
15635.25
13085.439
10851.071
8910.5497
7242.2646
5824.034
4633.0771
3646.0088
2839.0634
2188.2075
1670.3292
1263.5674
947.50004
702.16053
501.65706
338.18966
228.80671
177.84345
151.01823
133.71107
124.01482
116.86435
110.61727
107.80403
103.92082
102.46218
99.996249
98.134869
25107.12
21569.47
18386.616
15544.749
13026.686
10814.209
8888.0773
7228.9031
5816.1074
4628.1918
3642.7808
2836.7487
2186.4453
1668.9612
1262.5388
946.76252
701.59739
500.98983
337.19703
228.28273
177.68886
150.83823
133.58559
123.91034
116.8026
110.56555
107.76816
103.89445
102.43875
99.969274
98.128358
24846.963
21391.498
18269.306
15471.111
12983.388
10791.046
8877.3429
7225.3322
5816.1531
4629.4857
3644.2666
2837.9554
2187.2535
1669.4257
1262.79
946.91187
701.65191
500.74326
336.50343
227.89729
177.59643
150.68556
133.47546
123.81473
116.74741
110.51707
107.73573
103.86861
102.41581
99.943098
98.121709
24601.191
21229.576
18168.608
15413.673
12955.15
10781.411
8878.2114
7230.8752
5823.3211
4636.8553
3650.711
2842.954
2190.8145
1671.8276
1264.3776
947.98484
702.34788
500.91007
336.10726
227.64673
177.5659
150.56044
133.38047
123.72787
116.69866
110.47173
107.70729
103.8433
102.3935
99.917683
98.114963
24367.872
21082.27
18083.595
15371.844
12941.63
10784.863
8889.63
7245.8093
5839.1063
4650.9246
3662.1267
2851.6261
2197.0549
1676.1274
1267.2766
949.96252
703.6834
501.55827
336.00783
227.52712
177.58939
150.46308
133.30045
123.64974
116.65594
110.42938
107.68324
103.81855
102.372
99.893129
98.10816
24144.509
20947.97
18013.389
15345.086
12942.635
10800.633
8912.6189
7271.4641
5862.9876
4671.3579
3678.4928
2864.0214
2206.0087
1682.3477
1271.4984
952.84875
705.6661
502.67671
336.18894
227.53266
177.69201
150.39447
133.23572
123.58066
116.61863
110.38992
107.664
103.79437
102.35144
99.86972
98.101336
23926.537
20824.314
17957.008
15332.961
12956.895
10828.775
8948.1498
7306.9473
5894.9438
4698.255
3699.8812
2880.1995
2217.7212
1690.5194
1277.0596
956.6489
708.30447
504.29314
336.69584
227.62758
177.849
150.35746
133.18744
123.52142
116.58593
110.35321
107.6505
103.77069
102.33185
99.847749
98.094526
23704.366
20707.015
17912.834
15335.076
12984.626
10870.521
8994.9298
7352.2879
5935.0703
4731.7158
3726.3788
2900.2311
2232.246
1700.6792
1283.981
961.3693
711.60605
506.44053
337.51271
227.88154
178.066
150.35481
133.15655
123.47236
116.55649
110.31878
107.64345
103.74726
102.31291
99.827171
98.087771
23458.713
20587.185
17876.046
15347.825
13023.961
10921.361
9047.6085
7401.9091
5978.7139
4768.1571
3755.3311
2922.2037
2248.2331
1711.8814
1291.5902
966.49969
715.14272
508.72504
338.38877
228.20148
178.26493
150.37183
133.13987
123.43122
116.52784
110.2853
107.63788
103.72358
102.2938
99.807513
98.081127
53164.706
77529.741
100433.38
98604.404
83990.713
60865.443
43824.899
32108.647
23751.222
17517.981
12805.014
9245.3571
6586.4416
4633.4258
3222.4639
2218.9545
1514.9957
1023.5777
682.7593
445.62264
283.31
195.46279
156.01915
136.35614
124.61794
115.60564
110.79499
105.50479
103.68554
101.31724
98.098038
51338.357
72841.538
95133.486
96393.431
82760.741
60641.58
43838.458
32206.375
23862.057
17627.295
12904.661
9329.6815
6652.686
4682.5391
3257.2243
2242.589
1530.4685
1033.4986
688.88638
449.67067
285.72601
196.47438
156.46321
136.58691
124.76605
115.69678
110.85031
105.52723
103.71705
101.32332
98.090246
49756.699
69082.973
90289.121
93756.618
81204.528
60238.238
43827.976
32290.943
23966.235
17732.646
13001.826
9412.6138
6718.3843
4731.5501
3292.0711
2266.3643
1546.0767
1043.5167
695.09478
453.74494
288.19786
197.51818
156.91592
136.82203
124.91568
115.78887
110.90645
105.5501
103.74705
101.33121
98.082679
48275.739
65881.447
85839.187
90924.088
79668.811
59800.557
43795.726
32361.916
24063.189
17833.668
13096.293
9494.0306
6783.4418
4780.4015
3326.9742
2290.2664
1561.8144
1053.6313
701.38242
457.8295
290.70891
198.59168
157.37933
137.06353
125.06826
115.88272
110.96394
105.57387
103.77624
101.34001
98.075368
46917
63083.472
81746.492
88082.921
78141.053
59331.945
43731.519
32418.394
24152.38
17930.061
13187.894
9573.8205
6847.778
4829.0442
3361.9071
2314.2823
1577.6759
1063.8407
707.74814
461.91008
293.2527
199.68883
157.85048
137.30958
125.22257
115.97763
111.02244
105.59849
103.80495
101.34948
98.068337
45676.301
60592.032
77993.022
85241.215
76604.529
58834.143
43642.027
32460.21
24233.458
18021.587
13276.5
9651.8945
6911.3249
4877.4346
3396.8456
2338.4
1593.656
1074.1435
714.191
465.97056
295.82822
200.80715
158.3274
137.5587
125.37769
116.07308
111.08172
105.6238
103.83308
101.36024
98.061597
44543.604
58346.715
74551.84
82426.671
75062.038
58304.793
43528.04
32487.212
24306.184
18108.094
13362.001
9728.1705
6974.0189
4925.5312
3431.7662
2362.6076
1609.7492
1084.5383
720.7101
470.00862
298.43589
201.94676
158.8099
137.81055
125.53348
116.1691
111.14187
105.64976
103.86049
101.37291
98.055153
43513.067
56312.159
71399.128
79661.336
73481.774
57764.31
43391.639
32498.162
24370.314
18189.477
13444.283
9802.5651
7035.7952
4973.2915
3466.6446
2386.8928
1625.95
1095.0233
727.30454
474.02038
301.07537
203.10815
159.29831
138.06522
125.6902
116.26592
111.20307
105.67648
103.88721
101.38757
98.049011
42579.09
54463.218
68509.313
76964.466
71878.974
57206.239
43234.153
32494.637
24425.617
18265.511
13523.226
9874.9911
7096.5877
5020.6719
3501.4557
2411.2425
1642.2524
1105.5965
733.9733
478.01149
303.74569
204.29155
159.79291
138.32278
125.84817
116.3638
111.26552
105.70406
103.91335
101.40383
98.043175
41734.546
52780.227
65857.804
74347.592
70242.06
56637.4
43057.55
32480.587
24472.114
18335.985
13598.701
9945.3587
7156.3286
5067.6269
3536.1731
2435.6432
1658.6499
1116.2558
740.71516
481.98767
306.44581
205.49701
160.29382
138.58322
126.00767
116.463
111.32935
105.73251
103.93903
101.42146
98.03766
40971.477
51245.993
63421.469
71819.692
68568.468
56071.583
42864.218
32450.874
24509.598
18400.74
13670.58
10013.575
7214.9498
5114.1097
3570.7694
2460.0805
1675.1359
1126.999
747.52715
485.95534
309.17464
206.72457
160.80114
138.84644
126.16901
116.56374
111.39464
105.76178
103.96441
101.44027
98.03249
40281.205
49844.286
61178.233
69387.838
66879.446
55480.649
42654.327
32407.018
24537.949
18459.623
13738.73
10079.544
7272.3817
5160.0733
3605.2162
2484.5393
1691.7031
1137.8236
754.40938
489.92345
311.93087
207.97434
161.31497
139.1124
126.33253
116.66626
111.46146
105.79175
103.98966
101.46
98.027639
39654.97
48559.938
59105.897
67042.862
65109.744
54826.2
42425.277
32349.821
24557.051
18512.487
13803.024
10143.166
7328.5524
5205.469
3639.4844
2509.0043
1708.3442
1148.7268
761.3626
493.9067
314.71298
209.24648
161.83543
139.38108
126.49859
116.77078
111.52982
105.82234
104.01484
101.48044
98.023007
39084.577
47380.208
57189.528
64810.424
63490.034
54128.111
42176.162
32279.291
24566.48
18559.181
13863.331
10204.34
7383.3878
5250.2471
3673.5437
2533.4589
1725.0511
1159.7059
768.38459
497.92848
317.51964
210.5411
162.36266
139.65248
126.66753
116.87748
111.5997
105.85349
104.03996
101.50156
98.018515
38563.069
46294.671
55418.755
62709.587
62020.194
53403.597
41907.333
32195.398
24565.571
18599.541
13919.526
10262.965
7436.8112
5294.3561
3707.3631
2557.8865
1741.8157
1170.7575
775.47294
502.02426
320.34928
211.85829
162.89681
139.92664
126.83969
116.98651
111.67101
105.88504
104.065
101.52338