/*--------------------------------*- C++ -*----------------------------------*\
| =========                 |                                                 |
| \\      /  F ield         | OpenFOAM: The Open Source CFD Toolbox           |
|  \\    /   O peration     | Version:  2406                                  |
|   \\  /    A nd           | Website:  www.openfoam.com                      |
|    \\/     M anipulation  |                                                 |
\*---------------------------------------------------------------------------*/
FoamFile
{
    version     2.0;
    format      ascii;
    arch        "LSB;label=32;scalar=64";
    class       surfaceScalarField;
    location    "0.08";
    object      phi;
}
// * * * * * * * * * * * * * * * * * * * * * * * * * * * * * * * * * * * * * //

dimensions      [1 0 -1 0 0 0 0];

oriented        oriented;

internalField   nonuniform List<scalar> 
4031
(
0.0001086523
0.69649879
-3.0825341e-05
0.78176106
0.85512961
0.0019428882
0.083356514
0.0021996286
0.096929061
0.002447134
0.11241654
0.0026731114
0.13000614
0.0028711948
0.14985457
0.002991785
0.17184788
0.0029960764
0.19571283
0.0028057669
0.22030884
0.0024424147
0.24449054
0.0021377037
0.27150611
0.0018729491
0.30366767
0.0016114214
0.34072852
0.0013542446
0.38295545
0.001095849
0.43051975
0.00084528875
0.48497225
0.0005939986
0.54628872
0.00035059023
0.61684392
0.00011643994
0.69674774
-3.1024922e-05
0.78194871
0.85537415
0.00057058675
0.0090488487
-0.00048058814
0.00068948383
0.013506738
0.00075262424
0.01779109
0.00078688291
0.02207563
0.00081950128
0.026672051
0.00087080428
0.031803645
0.00095370655
0.037642071
0.0010732573
0.044341098
0.0012332236
0.05206416
0.0014340719
0.060981271
0.0016701241
0.071266152
0.0019301554
0.08309601
0.0022005167
0.09665811
0.002467194
0.11214908
0.0027163163
0.12975593
0.00294028
0.14962907
0.0030857577
0.17170027
0.0031120618
0.19568361
0.0029394614
0.22047752
0.0025687077
0.24485608
0.0022510793
0.27181702
0.0019761876
0.30393434
0.0017038482
0.3409914
0.0014344471
0.38321479
0.0011623561
0.4307823
0.00089725874
0.48523041
0.00063084821
0.54655363
0.0003726341
0.61710906
0.00012427224
0.69701188
-3.1793314e-05
0.78214996
0.85560422
0.00057552528
0.0089989365
-0.00052579816
0.00068803945
0.013394013
0.00075785559
0.017721036
0.00079249138
0.022040732
0.00082005542
0.026644197
0.00086265008
0.031760732
0.00093497534
0.037569403
0.001044747
0.044230963
0.001197167
0.051911359
0.0013940403
0.060783996
0.0016313887
0.071028367
0.0018992131
0.082827684
0.0021839899
0.096372711
0.002470956
0.11186129
0.0027448095
0.12948093
0.0029943003
0.14937796
0.0031696957
0.1715226
0.0032250942
0.19562509
0.0030718995
0.22062651
0.0026965009
0.2452259
0.0023661566
0.27214016
0.0020817543
0.30420994
0.0017990449
0.34126397
0.0015175267
0.38348553
0.0012315444
0.43105803
0.00095145819
0.48550303
0.00066932952
0.54683421
0.00039569485
0.61739011
0.00013236772
0.69729213
-3.3206715e-05
0.78236587
0.85584204
0.00054507275
0.0089980061
-0.00054438044
0.00064397576
0.013294833
0.00071662572
0.017648085
0.0007531167
0.022003914
0.00077864418
0.026618315
0.0008160283
0.031722967
0.00088147179
0.037503559
0.00098492434
0.044127098
0.0011329408
0.051762921
0.0013285085
0.060587996
0.0015691754
0.070787238
0.0018462837
0.082550049
0.0021467683
0.096071577
0.0024554212
0.11155177
0.00275568
0.12917946
0.003032579
0.14909934
0.0032444897
0.17130828
0.0033343316
0.19553192
0.0032010388
0.2207553
0.0028246494
0.24559631
0.0024821638
0.27247493
0.0021890939
0.30449357
0.0018966642
0.34154553
0.00160332
0.38376732
0.0013033585
0.43134696
0.001007899
0.48579045
0.00070950209
0.54713097
0.00041981481
0.6176877
0.0001406081
0.69758949
-3.2694648e-05
0.78259449
0.85575878
0.00051541595
0.009036
-0.00055374423
0.00058346805
0.01322642
0.00063544652
0.01759573
0.00066332698
0.021975631
0.0006848872
0.026596325
0.00071935383
0.031688051
0.00078222673
0.037440226
0.00088416941
0.044024694
0.001032431
0.051614203
0.0012307637
0.060389205
0.0014780029
0.070539519
0.0017668766
0.082260633
0.0020850578
0.095752725
0.002417222
0.11121871
0.002745831
0.12884958
0.0030526951
0.14879067
0.0032970684
0.17106135
0.0034215136
0.19540393
0.0033211329
0.22085086
0.0029517389
0.24595929
0.0025981155
0.27282028
0.0022974791
0.30478409
0.0019962367
0.34183512
0.001691527
0.38405964
0.0013776102
0.43164902
0.0010664729
0.48609291
0.00075133656
0.54744437
0.00044499881
0.61800243
0.00014871319
0.69790527
-3.6680443e-05
0.7828402
0.85599742
0.00037524401
0.0091512667
-0.00049095111
0.00039202864
0.013209178
0.00044680816
0.017540466
0.00048519962
0.02193674
0.00051417272
0.02656684
0.00055458221
0.031647123
0.00062290036
0.037371392
0.00073069707
0.043916396
0.00088590489
0.051458512
0.0010928635
0.060181775
0.0013514893
0.070280408
0.0016558517
0.081955725
0.0019946122
0.095413284
0.0023526661
0.11085973
0.0027118564
0.12848907
0.0030513329
0.14844929
0.0033308551
0.17077913
0.0034829119
0.1952481
0.0034185428
0.22091008
0.0030755978
0.24629537
0.0027126821
0.27317434
0.0024059643
0.30507995
0.0020970513
0.34213154
0.0017816848
0.38436172
0.0014540049
0.43196394
0.0011269708
0.48641056
0.00079473693
0.5477747
0.00047122494
0.6183348
0.00015636926
0.69824108
-4.0867764e-05
0.78310336
0.85622558
0.00019603398
0.0093335753
-0.00037888804
0.000173554
0.013231094
0.00020369865
0.017509797
0.00022548153
0.021914423
0.00025604348
0.026535724
0.00030660217
0.031596003
0.00038841289
0.037289031
0.00051121706
0.043793069
0.00068226859
0.051286972
0.00090583049
0.05995775
0.0011824863
0.070003284
0.0015075187
0.081630163
0.0018707816
0.095049344
0.0022577824
0.11047178
0.0026501559
0.12809533
0.0030250159
0.14807244
0.003342775
0.17045851
0.0035427778
0.19504409
0.0035232357
0.22092413
0.0031953617
0.24661588
0.0028244712
0.27353573
0.0025135314
0.30537926
0.00219845
0.34243323
0.0018733076
0.38467261
0.0015321707
0.43229134
0.0011891314
0.48674342
0.00083957765
0.54812211
0.0004984212
0.61868523
0.00016332912
0.69859863
-4.6706673e-05
0.78338511
0.85648205
-0.00014788309
0.0095890183
-0.00010821506
-0.00025453895
0.01333708
-0.00026000094
0.017514647
-0.00020387097
0.021857704
-0.00013698487
0.026468261
-5.4190361e-05
0.031512642
5.8100509e-05
0.037176198
0.00021023252
0.043640434
0.00040944483
0.051087304
0.00066014438
0.059706632
0.0009634488
0.06969956
0.0013158616
0.081277263
0.0017086769
0.094655879
0.0021284418
0.11005107
0.0025570454
0.12766532
0.0029703153
0.14765709
0.0033297029
0.17009611
0.0035809854
0.19478855
0.0036126648
0.22088661
0.00330859
0.24691207
0.0029321077
0.27390205
0.0026187472
0.30568016
0.0022992035
0.34273843
0.0019655955
0.38499094
0.0016115919
0.43263056
0.0012525757
0.48709138
0.00088565103
0.54848652
0.00052646445
0.61905404
0.00016959243
0.69897952
-5.6212982e-05
0.78368823
0.8563016
-0.00062110263
0.0098875393
0.0003218155
-0.00075260796
0.013467749
-0.00076474415
0.017526093
-0.00073052024
0.021823082
-0.00065336306
0.026390702
-0.00053663931
0.031395482
-0.00038167893
0.037020799
-0.00018549318
0.043443838
5.6176566e-05
0.050845274
0.00034664156
0.059415845
0.00068701052
0.069358865
0.0010749911
0.080888875
0.0015035207
0.094226755
0.0019605991
0.10959307
0.0024289382
0.12719555
0.002883904
0.14719995
0.0032880556
0.16968879
0.0035921374
0.19447996
0.003680679
0.22079186
0.0034125773
0.24717175
0.0030336416
0.27427009
0.002720431
0.30598002
0.0023987084
0.34304478
0.0020579258
0.38531533
0.0016917273
0.43298085
0.001316892
0.48745416
0.00093272477
0.54886765
0.00055526073
0.61944137
0.00017505529
0.69938528
-6.3402721e-05
0.78400913
0.85659299
-0.0014465214
0.01023249
0.0011010908
-0.0016206035
0.013641482
-0.0016226755
0.017527659
-0.001527755
0.021727499
-0.0013722944
0.02623485
-0.0011793692
0.031202256
-0.00095266481
0.036793814
-0.00068979341
0.043180727
-0.00038739681
0.050542697
-4.2358867e-05
0.05907066
0.00034704125
0.068969296
0.0007799232
0.080455715
0.0012511495
0.093755027
0.001750653
0.10909269
0.0022626562
0.12668211
0.0027628843
0.14669748
0.0032140497
0.16923429
0.0035716472
0.19411758
0.0037235769
0.22063333
0.0035048472
0.2473815
0.003126874
0.27463642
0.0028162905
0.30627632
0.0024946899
0.34334993
0.0021489529
0.3856435
0.0017716294
0.43334108
0.0013815226
0.48783111
0.00098041831
0.54926502
0.00058469029
0.61984706
0.00017904934
0.69981794
-6.671186e-05
0.78434268
0.85694058
-0.0025543655
0.010563147
0.0022233824
-0.0027175901
0.013804538
-0.0026860287
0.017496205
-0.0025081182
0.021549777
-0.0022610638
0.025987882
-0.0019732006
0.030914464
-0.0016537027
0.036474415
-0.0013044442
0.042831604
-0.00092409232
0.0501625
-0.00050990026
0.058656609
-5.9460507e-05
0.068518926
0.00042775189
0.079968414
0.00094878414
0.093233629
0.001496007
0.10854467
0.0020558806
0.12612081
0.0026058745
0.14614518
0.0031120399
0.16872461
0.0035302483
0.19369427
0.0037460442
0.22041052
0.0035822738
0.24753571
0.0032087087
0.27499753
0.0029055048
0.30656425
0.0025871019
0.34365073
0.0022377447
0.38597401
0.0018505583
0.43370991
0.0014459539
0.48822136
0.0010282301
0.54967808
0.00061427702
0.62027088
0.00018032678
0.70028023
-8.3528922e-05
0.78469855
0.85685387
-0.0039530224
0.010800035
0.0037163216
-0.0039988561
0.013850532
-0.0038791883
0.017376846
-0.0036245146
0.021295755
-0.0032835387
0.025647548
-0.0028909602
0.030522494
-0.0024661992
0.036050273
-0.0020174353
0.04238347
-0.0015464728
0.049692142
-0.0010517237
0.058162389
-0.0005304988
0.06799809
1.8950882e-05
0.079419126
0.0005959975
0.092656397
0.0011957133
0.10794427
0.0018075015
0.12550762
0.002412664
0.14553764
0.002988795
0.16814479
0.0034876695
0.19319003
0.0037640224
0.22012674
0.0036414134
0.24764816
0.0032778892
0.27534776
0.0029839544
0.30684188
0.0026717672
0.34394408
0.002322676
0.38630287
0.0019267999
0.43408606
0.0015096171
0.48862285
0.0010754285
0.55010645
0.00064330066
0.6207126
0.0001797838
0.70077312
-9.9343154e-05
0.78507123
0.85686265
-0.0055110742
0.01091047
0.0054014595
-0.0054505238
0.013791064
-0.0052114872
0.017139024
-0.0048431991
0.020928556
-0.00438974
0.025195192
-0.0038853706
0.030019324
-0.0033517631
0.035517926
-0.0027999173
0.041832869
-0.0022340216
0.049127402
-0.0016539285
0.057583298
-0.0010571397
0.067402077
-0.0004409893
0.078803439
0.00019580218
0.09201964
0.00085107619
0.10728844
0.0015175228
0.12483982
0.002180999
0.14487174
0.0028222897
0.16749967
0.003380275
0.19262645
0.0036909659
0.21980816
0.003628888
0.24769942
0.0033292832
0.27563322
0.0030525853
0.30710122
0.0027496569
0.34422688
0.0024008071
0.38662994
0.0019994491
0.43446613
0.0015714818
0.48903361
0.0011212849
0.55054941
0.00067135321
0.62117167
0.00017572301
0.70129873
-0.00013143066
0.78547015
0.85691747
-0.0069998219
0.010878985
0.0070326858
-0.0068197223
0.013612569
-0.0064817449
0.016802792
-0.0060204099
0.020468993
-0.0054740381
0.024650661
-0.0048757624
0.029422963
-0.0042481704
0.034892267
-0.0036046173
0.041191187
-0.0029517644
0.048476279
-0.0022913977
0.056924436
-0.0016218936
0.066733769
-0.00094034995
0.078122688
-0.00024430634
0.09132387
0.0004663601
0.10657737
0.0011874158
0.12411747
0.0019080216
0.14414867
0.0026075911
0.16679613
0.0032263965
0.19200175
0.0036402083
0.21938599
0.0036652055
0.24766294
0.0033657123
0.27591769
0.0031015364
0.30734698
0.0028143026
0.3444926
0.0024739418
0.38694675
0.0020667104
0.43485024
0.0016309421
0.48945035
0.001165673
0.55100568
0.00069826029
0.62164749
0.00016925527
0.70185767
-0.00016346184
0.78588985
0.85699048
-0.0082772756
0.010732517
0.0084254287
-0.0079905747
0.013327789
-0.0075718979
0.01638619
-0.0070435384
0.019942876
-0.0064354339
0.024044941
-0.0057748256
0.028764821
-0.0050824517
0.034202366
-0.004372478
0.04048361
-0.0036533544
0.047759383
-0.0029288262
0.056201869
-0.0021987248
0.066005259
-0.0014606873
0.077385765
-0.00071182992
0.090575522
4.9531182e-05
0.10581575
0.00082153385
0.12334422
0.0015957856
0.14337192
0.002351532
0.16603625
0.0030342585
0.19131282
0.0035396587
0.21887177
0.0036647019
0.24752577
0.003384906
0.27618162
0.003140631
0.30757185
0.0028680469
0.34474222
0.0025300614
0.38725907
0.0021265895
0.43522833
0.0016855628
0.48987011
0.0012085517
0.55147153
0.00072317972
0.62214011
0.00016280665
0.70244701
-0.00018815597
0.7863188
0.85708508
-0.0092704822
0.010485116
0.009520089
-0.0089020883
0.012961692
-0.0084239176
0.01591047
-0.0078523029
0.019373874
-0.0072092594
0.023404639
-0.0065162214
0.028074602
-0.0057907129
0.033479688
-0.0050455291
0.039741186
-0.0042889424
0.047005386
-0.0035253581
0.055440593
-0.0027555944
0.065237405
-0.0019779174
0.076609469
-0.0011893886
0.089787702
-0.00038749668
0.10501372
0.00042749372
0.12252803
0.0012490486
0.14254779
0.0020570689
0.16522393
0.0028001697
0.19056323
0.0033727727
0.21828989
0.003584616
0.24730116
0.0033692887
0.27638026
0.0031476417
0.30777314
0.0029015915
0.34496372
0.0025865302
0.38754595
0.0021806385
0.43560612
0.0017358862
0.49029081
0.0012483868
0.5519453
0.00074540958
0.62264846
0.00015459134
0.70306459
-0.00021426213
0.78675495
0.85721684
-0.0099293678
0.010171255
0.010245426
-0.0095123729
0.012547061
-0.0089999328
0.015400561
-0.0084066775
0.018783311
-0.0077513815
0.022752175
-0.0070520529
0.027378203
-0.0063229794
0.032753581
-0.0055742438
0.038995372
-0.0048121705
0.046246087
-0.0040399663
0.054670896
-0.0032580345
0.064457576
-0.0024644509
0.075817438
-0.0016559705
0.088980057
-0.00082946466
0.10418714
1.5918839e-05
0.12168143
0.00087468259
0.14168635
0.0017279237
0.16436619
0.0025262802
0.18975806
0.0031639051
0.21764252
0.003485944
0.24696571
0.0033616609
0.27648706
0.003148559
0.30796491
0.0029234342
0.34516262
0.0026059459
0.38783237
0.0022187124
0.43596194
0.0017766436
0.49070536
0.0012831639
0.55242195
0.00076272062
0.62317137
0.00014484074
0.70370528
-0.00024008255
0.78719759
0.85745302
-0.010275235
0.0098280711
0.010620465
-0.009836949
0.012110986
-0.0093107393
0.014876726
-0.00871086
0.018185968
-0.0080565457
0.022100546
-0.0073663571
0.026690817
-0.0066538211
0.032043913
-0.0059267475
0.038271156
-0.0051882681
0.045510353
-0.004438237
0.053923372
-0.0036744863
0.06369595
-0.00289315
0.075037677
-0.0020895576
0.088177307
-0.0012594517
0.10335693
-0.00040102087
0.12082169
0.00048151366
0.140801
0.0013701648
0.16347282
0.0022185644
0.18890254
0.0029276409
0.21692328
0.0032643884
0.24661496
0.0032166601
0.27651653
0.0030926522
0.30806643
0.0029074368
0.34531974
0.0026390848
0.38806649
0.0022552795
0.43631047
0.0018105923
0.49111843
0.0013079937
0.55290391
0.00077594473
0.62370176
0.00014408352
0.7043539
-0.00025042184
0.78764158
0.85778097
-0.01022327
0.009503429
0.010549842
-0.0098083133
0.0116981
-0.0093075384
0.014378148
-0.0087332698
0.017614017
-0.008105245
0.021474945
-0.0074447187
0.026032801
-0.0067684587
0.031370219
-0.0060852281
0.037590491
-0.005395995
0.044823599
-0.0046968144
0.053226463
-0.0039813311
0.062982386
-0.0032418447
0.074299589
-0.0024706214
0.087406765
-0.0016611784
0.10254721
-0.00081010426
0.11996913
7.9556037e-05
0.13990831
0.00099115346
0.16255623
0.001883683
0.18800255
0.0026874564
0.21610889
0.0031636464
0.24612411
0.0031620421
0.27649898
0.0030432297
0.30816092
0.0028943104
0.34543818
0.0026088284
0.38831479
0.0022566191
0.43662319
0.0018286756
0.49150984
0.0013223874
0.55338472
0.00078413965
0.62423297
0.00014206769
0.7050049
-0.0002614303
0.78809072
0.85806464
-0.0097018319
0.0092468028
0.0099600229
-0.009362611
0.011360568
-0.0089399131
0.013957257
-0.0084407988
0.017116813
-0.0078818408
0.020917973
-0.0072850937
0.025438087
-0.0066715642
0.03075874
-0.0060543657
0.036975322
-0.005436115
0.044207293
-0.0048114336
0.052603543
-0.0041700413
0.06234244
-0.0034993731
0.073629895
-0.0027870793
0.086694777
-0.0020229992
0.10178253
-0.0012011511
0.11914548
-0.00032285691
0.13902666
0.00059762873
0.16163042
0.0015254766
0.18706681
0.0023923235
0.21523085
0.0029843406
0.24551683
0.0030709639
0.27639218
0.0029506288
0.30825536
0.0028255143
0.34553006
0.0026068296
0.38849215
0.0022677584
0.43691772
0.0018318609
0.4919036
0.0013213288
0.55386365
0.00078699767
0.62475349
0.00013798729
0.70565352
-0.0002838874
0.78855433
0.85830128
-0.008655086
0.0090978528
0.0088054022
-0.0084368046
0.011143849
-0.0081441206
0.013666248
-0.0077772384
0.016751673
-0.007345369
0.020487829
-0.0068658616
0.024960224
-0.0063591624
0.030253577
-0.0058418998
0.036459474
-0.0053214598
0.043688116
-0.0047945589
0.052077696
-0.0042495273
0.061798159
-0.0036700673
0.073050752
-0.0030391086
0.086063535
-0.0023420469
0.10108436
-0.0015693824
0.11837056
-0.00071972298
0.13817324
0.00019555449
0.1607094
0.0011440248
0.18610999
0.0020476235
0.21431547
0.0027165885
0.24483182
0.0028662847
0.27622092
0.0027498599
0.30834365
0.0026729479
0.34556997
0.0025020569
0.38861701
0.0022185552
0.43715151
0.0018199788
0.49225315
0.0013158151
0.55432841
0.00078311841
0.62526415
0.00012709982
0.70629903
-0.00030938743
0.78903026
0.85863871
-0.0070834082
0.0090818473
0.0070991722
-0.0070225116
0.011082834
-0.0069051049
0.013548891
-0.006723388
0.016570405
-0.0064765594
0.020241606
-0.0061727982
0.024657066
-0.0058282702
0.029909554
-0.0054588723
0.036090426
-0.0050743492
0.043303794
-0.0046739881
0.051677376
-0.0042472476
0.061371228
-0.0037768566
0.07257982
-0.0032431456
0.085528768
-0.0026281474
0.10046757
-0.0019192097
0.1176588
-0.0011123281
0.1373621
-0.0002169952
0.15980785
0.00073485703
0.18514929
0.0016698115
0.21336812
0.0024234856
0.24406112
0.0027463156
0.27587508
0.0026644884
0.30839392
0.0026158962
0.34557728
0.0025021513
0.38868066
0.0021864442
0.43741123
0.0017742072
0.49260778
0.0012882074
0.55476535
0.00076231961
0.62575879
9.0705951e-05
0.70695237
-0.00034918745
0.78951008
0.85898489
-0.0053832858
0.0092050976
0.0052597548
-0.0054700882
0.011168972
-0.0055138598
0.013591598
-0.0055107604
0.016565587
-0.0054597862
0.020188542
-0.0053604152
0.02455553
-0.0052117135
0.02975877
-0.0050198322
0.035896596
-0.0047928201
0.043075013
-0.0045329203
0.051415889
-0.0042316205
0.061068413
-0.0038733073
0.07221987
-0.003438592
0.085092077
-0.0029081626
0.099934583
-0.0022673261
0.11701451
-0.0015098987
0.13659986
-0.00064315612
0.15893438
0.00030339497
0.18419334
0.0012591134
0.21239928
0.0020659114
0.24323614
0.0023953029
0.27552078
0.0023569428
0.3083982
0.0023669452
0.34552112
0.0022470236
0.38874517
0.0020884828
0.43750617
0.001737973
0.49288945
0.0012623823
0.55518095
0.00072853713
0.62625259
3.3274861e-05
0.70762746
-0.00041852049
0.7900058
0.85922316
-0.0038703516
0.0095158861
0.0035584301
-0.0041557269
0.011453104
-0.0044000482
0.013834462
-0.0045895689
0.016753421
-0.0047147057
0.020311724
-0.0047763217
0.024614868
-0.0047834132
0.029763285
-0.0047427779
0.035853131
-0.0046544805
0.042983751
-0.0045136907
0.051272165
-0.004314587
0.060866422
-0.0040454041
0.071947808
-0.0036892878
0.084732954
-0.0032275376
0.099469451
-0.0026441614
0.11642701
-0.0019308152
0.13588117
-0.0010921671
0.15808848
-0.00015515733
0.18324631
0.00081023544
0.21141996
0.0016438106
0.24238323
0.0020900805
0.27504738
0.0021617244
0.30828706
0.0021962862
0.345435
0.0021591212
0.38872322
0.0019881607
0.43760568
0.0016264998
0.49316831
0.0011908696
0.55554474
0.00067168703
0.62672463
-4.6978579e-05
0.70832998
-0.00050067749
0.79052152
0.85948373
-0.0026680513
0.0099746853
0.0022069015
-0.003126336
0.011908747
-0.003563478
0.014268667
-0.0039591381
0.01714589
-0.0042934125
0.020642672
-0.0045497585
0.024867836
-0.0047207326
0.029930902
-0.004806789
0.035935913
-0.0048123216
0.042985895
-0.0047432642
0.051199534
-0.0046014366
0.060721055
-0.0043791766
0.071722045
-0.0040630674
0.084413244
-0.0036370897
0.099039541
-0.0030853987
0.11587072
-0.0023978354
0.1351878
-0.0015760104
0.1572589
-0.00064183212
0.18230142
0.00034631719
0.2104168
0.0012636704
0.24144462
0.0018034257
0.27447671
0.0019574864
0.30808998
0.0020283646
0.34530995
0.0019762946
0.38870771
0.0018189471
0.43767778
0.0015458237
0.49334558
0.0011244975
0.55588339
0.00060757851
0.6271903
-0.00013258209
0.7090648
-0.00057371111
0.79105397
0.85986208
-0.0025062602
0.010480366
0.0019984295
-0.0030229786
0.012423055
-0.0035337354
0.014776717
-0.0040192286
0.017628361
-0.0044563588
0.021076476
-0.0048198581
0.025227758
-0.0050878363
0.030195162
-0.0052499048
0.036094233
-0.0053103114
0.043042692
-0.005278372
0.051164096
-0.0051534387
0.060592577
-0.0049324899
0.071497473
-0.0046103787
0.084087336
-0.0041775522
0.098602544
-0.0036217332
0.11531001
-0.0029324131
0.13449231
-0.0021077175
0.15642593
-0.0011628904
0.18134506
-0.00014310157
0.20938061
0.00084936254
0.24042862
0.0014836224
0.27380899
0.0016443052
0.3078836
0.0017217911
0.34517222
0.0017414433
0.38860767
0.0016693343
0.43765176
0.0013882484
0.49351956
0.00100411
0.55617592
0.00052625607
0.62761715
-0.00021939755
0.70982783
-0.00061501416
0.79158748
0.86031245
-0.0037189979
0.010958287
0.0032393897
-0.0042064107
0.012908585
-0.0046870773
0.015255294
-0.0051426598
0.018081649
-0.0055519195
0.021483259
-0.0058930934
0.025566303
-0.006145642
0.03044492
-0.0062931652
0.036238796
-0.0063241651
0.043070603
-0.0062370499
0.051074169
-0.0060418428
0.06039479
-0.0057494703
0.071202261
-0.0053608902
0.08369547
-0.0048706134
0.098108343
-0.0042695558
0.11470403
-0.0035473179
0.13376359
-0.0026985344
0.15556825
-0.0017325784
0.18036654
-0.00068849885
0.20831847
0.00033288966
0.23938118
0.0010878909
0.27301726
0.0013084426
0.30761224
0.0014590184
0.34495188
0.0015662814
0.38840957
0.0014791723
0.43762699
0.001220533
0.49365676
0.00089243892
0.55640658
0.00041453917
0.62805023
-0.00028841771
0.71058574
-0.00060583476
0.79210768
0.86052848
-0.0058733616
0.011344272
0.0054866046
-0.0062623838
0.013296716
-0.0066399266
0.01563182
-0.0069885904
0.018429158
-0.0072879895
0.021781354
-0.0075165673
0.025793409
-0.0076541396
0.030580829
-0.007685538
0.036268405
-0.0076058843
0.042989534
-0.0074161947
0.05088322
-0.007122439
0.060099214
-0.0067315669
0.070809103
-0.0062491535
0.083210205
-0.0056753855
0.097530834
-0.0050049625
0.1140285
-0.0042293859
0.13298096
-0.0033418214
0.15467082
-0.002346681
0.17935736
-0.0012744259
0.20722594
-0.0002086174
0.23828595
0.000640068
0.27212637
0.00094494295
0.30724894
0.0011326795
0.34468399
0.0012366875
0.38820117
0.001228388
0.43750903
0.0010747297
0.49368018
0.00072136384
0.55666191
0.00027966678
0.62845973
-0.00040048426
0.71136421
-0.00067466395
0.79264528
0.8606366
-0.0083626564
0.011613375
0.0080939491
-0.0086257967
0.013560244
-0.0088709985
0.015877408
-0.0090827186
0.018641275
-0.0092426928
0.021941708
-0.0093311377
0.025882169
-0.0093308541
0.030580884
-0.0092299299
0.03616804
-0.0090231293
0.042782924
-0.0087063698
0.05056566
-0.0082876118
0.059678986
-0.0077781914
0.070297601
-0.0071879609
0.08261704
-0.0065208516
0.09685954
-0.005773922
0.11327566
-0.0049396935
0.13213848
-0.0040100206
0.15372963
-0.0029844758
0.1783155
-0.0018842674
0.20610234
-0.00077953349
0.23714755
0.00015409369
0.27114462
0.00057077334
0.30676614
0.00080894638
0.34435553
0.0010132278
0.38787648
0.00097784567
0.43740515
0.00081944278
0.4937067
0.00056259616
0.55682599
0.00015553616
0.62885241
-0.00045429373
0.71209734
-0.00074783042
0.79328868
0.85969501
-0.010593374
0.011781791
0.010426101
-0.010748822
0.013716816
-0.010881629
0.016011406
-0.010978353
0.018739206
-0.011023067
0.021987657
-0.010998821
0.025859306
-0.010889852
0.030473455
-0.010680056
0.035959562
-0.010356162
0.042459692
-0.009922774
0.05013226
-0.0093891011
0.059144577
-0.0087693711
0.069676088
-0.0080779206
0.081922378
-0.0073239914
0.096100574
-0.0065084309
0.11245276
-0.0056247529
0.13124449
-0.0046628434
0.15275342
-0.0036170924
0.17724986
-0.0024997417
0.20495715
-0.0013664869
0.23597521
-0.00036102045
0.27008471
0.00016359245
0.30616733
0.00043338131
0.34398719
0.00063989582
0.38754235
0.00067367908
0.43722557
0.00061171419
0.49363542
0.00039276242
0.55696387
5.5064739e-05
0.62919667
-0.00031963627
0.71259316
-0.00059647805
0.79394244
0.85974934
-0.011836731
0.011890626
0.011729518
-0.011931481
0.013813438
-0.012004904
0.016086918
-0.012045602
0.018782186
-0.012039778
0.021983734
-0.011970377
0.025791069
-0.011815851
0.030319769
-0.011561458
0.035705842
-0.011199754
0.042098535
-0.010728776
0.049661379
-0.010155659
0.058570617
-0.0094940371
0.069012213
-0.0087601681
0.081184332
-0.007967495
0.095301264
-0.0071220614
0.11159761
-0.006220556
0.13032937
-0.0052532562
0.1517675
-0.0042111557
0.17618258
-0.0030987454
0.20381075
-0.0019577529
0.23478825
-0.00090524253
0.26897035
-0.00029087531
0.30547134
1.2348554e-05
0.34358136
0.00019622872
0.38722933
0.00031036221
0.43697186
0.00036587725
0.49345326
0.00019136038
0.55707214
-7.075476e-05
0.62948833
-0.00023140539
0.71284989
-0.00044484827
0.7944763
0.86051727
-0.011294156
0.01199412
0.011190956
-0.011389192
0.013908712
-0.01146934
0.016167221
-0.011525825
0.018838878
-0.011548107
0.022006768
-0.011524482
0.025768723
-0.01144126
0.030237656
-0.011279887
0.035545161
-0.01102503
0.04184375
-0.010668536
0.049304023
-0.010208475
0.058108399
-0.0096505282
0.06845023
-0.0090056697
0.080532908
-0.0082860201
0.094571883
-0.0075002722
0.11079825
-0.0066498867
0.12946055
-0.0057297005
0.15082278
-0.0047319289
0.1751527
-0.0036571694
0.20269437
-0.0025361393
0.2336134
-0.0014716251
0.26783678
-0.00078163043
0.30469409
-0.00044519019
0.34313998
-0.00014693713
0.38680442
1.858296e-06
0.43670573
4.2616386e-05
0.49330108
4.9212199e-07
0.55706319
-0.00022295415
0.62973193
-0.0002289271
0.71293593
-0.00040338431
0.79482344
0.86111515
-0.0094675022
0.012156279
0.0093043758
-0.0096299461
0.014069987
-0.0097854246
0.016321269
-0.0099256633
0.01897725
-0.010040919
0.022119544
-0.010121653
0.025846201
-0.010159552
0.030271508
-0.010146239
0.035527468
-0.010069013
0.041761939
-0.0099090197
0.049138947
-0.0096500259
0.057843975
-0.0092873391
0.068080138
-0.008825267
0.080060179
-0.0082694645
0.094001361
-0.007625308
0.11013461
-0.0068955659
0.12870568
-0.0060783783
0.14997363
-0.0051681983
0.1742023
-0.0041648783
0.20164101
-0.0030922471
0.23247912
-0.002040671
0.26671053
-0.001283861
0.3038496
-0.00092935783
0.34268728
-0.00057128154
0.38634186
-0.00035290328
0.43639319
-0.00020708545
0.49307314
-9.8630375e-05
0.55689606
-0.00031210878
0.62995316
-0.00022304163
0.71287874
-0.0003604365
0.79503621
0.86170885
-0.007098654
0.012413287
0.0068391475
-0.0073715112
0.014340115
-0.0076528921
0.01659964
-0.0079353573
0.019256381
-0.0082082034
0.022388666
-0.0084570838
0.026090943
-0.0086668486
0.030476419
-0.0088228155
0.035676905
-0.0089140728
0.041844352
-0.0089352801
0.049148713
-0.0088813321
0.05777502
-0.0087374166
0.067918391
-0.0084877254
0.079789995
-0.0081271209
0.093616934
-0.0076541985
0.10963349
-0.0070702541
0.12808799
-0.0063755282
0.14923833
-0.0055681351
0.17334617
-0.0046489869
0.20066382
-0.0036379372
0.23140016
-0.0026161296
0.26561175
-0.0018134456
0.30296504
-0.0014303301
0.34222169
-0.0010378583
0.38587637
-0.00069446797
0.43599386
-0.00044436779
0.49278205
-0.00036160437
0.55676989
-0.00048498518
0.63001929
-0.00030505096
0.71266395
-0.00040032609
0.795157
0.86259693
-0.0052738176
0.012718256
0.0049626722
-0.0056091496
0.014668451
-0.0059667647
0.016949339
-0.0063428902
0.019623539
-0.0067308951
0.022766557
-0.007119916
0.026468705
-0.0074943632
0.030838554
-0.0078351866
0.036004345
-0.0081208981
0.042115174
-0.0083314286
0.049342188
-0.0084491945
0.057872961
-0.0084650232
0.067911016
-0.0083727403
0.079670769
-0.0081626716
0.093375766
-0.0078276438
0.10926241
-0.0073618876
0.12758033
-0.0067626436
0.14859054
-0.0060319769
0.17255956
-0.0051760472
0.19974409
-0.0042143703
0.23036767
-0.0032199368
0.26454278
-0.0023813495
0.30205554
-0.0019675859
0.34174947
-0.0015565075
0.38543007
-0.0011262514
0.43555316
-0.00080969353
0.49246944
-0.0006548582
0.55659283
-0.0005786731
0.62984937
-0.00048120154
0.71240805
-0.00058126155
0.7952027
0.86206641
-0.0054926369
0.012993882
0.0052098146
-0.0057975127
0.014964965
-0.0061230049
0.017265024
-0.0064665502
0.019955733
-0.006824028
0.023111115
-0.00718969
0.026819707
-0.0075545346
0.031186791
-0.0079054097
0.036336457
-0.0082243994
0.042413011
-0.0084871208
0.049581198
-0.0086688902
0.058028385
-0.0087501459
0.067963011
-0.0087212135
0.07960897
-0.0085723895
0.09318973
-0.0082954094
0.10894329
-0.0078824833
0.12711972
-0.0073266215
0.14798081
-0.0066270804
0.17179972
-0.0057937125
0.19884482
-0.0048488093
0.22935388
-0.0038561856
0.26348375
-0.0029659846
0.30111087
-0.0024963309
0.34124958
-0.0020629523
0.38500166
-0.0015763249
0.43510507
-0.0011644099
0.4921113
-0.00086262554
0.55631394
-0.00064364738
0.62955665
-0.0006585353
0.71218415
-0.00087112308
0.79519778
0.86126866
-0.0074316179
0.013214554
0.007203131
-0.0076762518
0.015200623
-0.007934996
0.017513452
-0.0082046061
0.020213484
-0.008480355
0.023373236
-0.008755688
0.027079391
-0.0090219294
0.031435093
-0.0092680382
0.03656205
-0.0094806099
0.042602204
-0.0096443778
0.049718455
-0.0097406761
0.058094771
-0.0097499131
0.067938713
-0.0096512368
0.079472929
-0.0094351478
0.092932169
-0.009096473
0.10855865
-0.0086327698
0.12660526
-0.008041596
0.14733405
-0.0073197263
0.17101792
-0.006470972
0.19793354
-0.0055147809
0.2283365
-0.0045031004
0.26241928
-0.0035537563
0.30012799
-0.0030021466
0.34069743
-0.0025158059
0.38455861
-0.0019927328
0.43466851
-0.0014648782
0.49169297
-0.0010789
0.55602119
-0.00083009391
0.62930987
-0.00075203839
0.71191545
-0.00097235269
0.79513252
0.86024348
-0.009565063
0.013395207
0.0093771249
-0.0097644782
0.015391568
-0.0099729014
0.017711967
-0.01018632
0.020415394
-0.010398906
0.02357262
-0.010602952
0.027268323
-0.010788653
0.031603486
-0.01094402
0.036697637
-0.011055393
0.042691001
-0.011108533
0.049745802
-0.011089695
0.058046619
-0.010985854
0.067801778
-0.010778128
0.079227947
-0.010454144
0.092566496
-0.010011237
0.10806965
-0.0094520464
0.12599592
-0.0087815787
0.14661014
-0.0080027914
0.17018389
-0.0071172012
0.19699365
-0.0061370762
0.22730795
-0.0050998005
0.26134735
-0.0041091679
0.29912785
-0.0034793692
0.34009737
-0.002935995
0.38409553
-0.0023501461
0.43421589
-0.0017627445
0.49127492