/*--------------------------------*- C++ -*----------------------------------*\
| =========                 |                                                 |
| \\      /  F ield         | OpenFOAM: The Open Source CFD Toolbox           |
|  \\    /   O peration     | Version:  2406                                  |
|   \\  /    A nd           | Website:  www.openfoam.com                      |
|    \\/     M anipulation  |                                                 |
\*---------------------------------------------------------------------------*/
FoamFile
{
    version     2.0;
    format      ascii;
    arch        "LSB;label=32;scalar=64";
    class       volScalarField;
    location    "0.006";
    object      p;
}
// * * * * * * * * * * * * * * * * * * * * * * * * * * * * * * * * * * * * * //

dimensions      [1 -1 -2 0 0 0 0];

internalField   nonuniform List<scalar> 
23204
(
101369.22
101369.92
101370.47
101370.85
101371.04
101349.07
101351.12
101353.11
101355.04
101356.91
101358.7
101360.4
101362.01
101363.52
101364.9
101366.16
101367.28
101368.27
101369.12
101369.82
101370.36
101370.75
101370.93
101299.76
101303.03
101306.2
101309.21
101312.11
101314.96
101317.76
101320.47
101323.13
101325.72
101328.26
101330.74
101333.19
101335.58
101337.94
101340.26
101342.52
101344.74
101346.9
101349
101351.05
101353.03
101354.96
101356.82
101358.6
101360.31
101361.92
101363.42
101364.8
101366.06
101367.18
101368.17
101369.01
101369.71
101370.26
101370.64
101370.83
101101.79
101111.18
101120.33
101129.24
101137.91
101146.35
101154.55
101162.53
101170.29
101177.82
101185.14
101192.24
101199.12
101205.78
101212.23
101218.45
101224.45
101230.25
101235.84
101241.23
101246.44
101251.46
101256.31
101260.99
101265.51
101269.88
101274.11
101278.18
101282.12
101285.92
101289.6
101293.16
101296.6
101299.91
101303.15
101306.29
101309.32
101312.2
101315.03
101317.81
101320.51
101323.15
101325.73
101328.26
101330.74
101333.17
101335.56
101337.91
101340.21
101342.48
101344.68
101346.84
101348.93
101350.97
101352.96
101354.88
101356.73
101358.51
101360.21
101361.82
101363.32
101364.7
101365.96
101367.08
101368.06
101368.91
101369.61
101370.15
101370.53
101370.72
100664.51
100680.7
100696.7
100712.52
100728.15
100743.59
100758.85
100773.92
100788.8
100803.49
100818
100832.31
100846.43
100860.36
100874.1
100887.63
100900.97
100914.11
100927.06
100939.8
100952.33
100964.66
100976.78
100988.68
101000.36
101011.82
101023.06
101034.08
101044.86
101055.42
101065.76
101075.86
101085.74
101095.4
101104.82
101114.01
101122.98
101131.71
101140.22
101148.5
101156.55
101164.39
101172.01
101179.42
101186.62
101193.61
101200.39
101206.95
101213.3
101219.45
101225.38
101231.1
101236.62
101241.95
101247.1
101252.06
101256.86
101261.49
101265.97
101270.3
101274.48
101278.52
101282.43
101286.2
101289.85
101293.38
101296.79
101300.09
101303.29
101306.4
101309.43
101312.3
101315.09
101317.87
101320.55
101323.18
101325.75
101328.27
101330.73
101333.15
101335.53
101337.88
101340.18
101342.43
101344.63
101346.78
101348.87
101350.9
101352.88
101354.8
101356.65
101358.42
101360.12
101361.72
101363.22
101364.6
101365.85
101366.97
101367.96
101368.8
101369.5
101370.04
101370.43
101370.61
100683.68
100699.06
100714.27
100729.32
100744.22
100758.96
100773.53
100787.94
100802.19
100816.28
100830.19
100843.94
100857.51
100870.91
100884.13
100897.17
100910.04
100922.72
100935.22
100947.54
100959.67
100971.6
100983.34
100994.88
101006.22
101017.35
101028.27
101038.99
101049.48
101059.77
101069.84
101079.7
101089.34
101098.76
101107.97
101116.96
101125.74
101134.29
101142.62
101150.74
101158.64
101166.33
101173.82
101181.1
101188.18
101195.05
101201.72
101208.18
101214.44
101220.5
101226.35
101232
101237.45
101242.72
101247.8
101252.7
101257.44
101262.03
101266.46
101270.74
101274.88
101278.88
101282.75
101286.5
101290.11
101293.61
101297
101300.27
101303.45
101306.52
101309.51
101312.41
101315.2
101317.94
101320.6
101323.22
101325.78
101328.28
101330.73
101333.14
101335.52
101337.85
101340.14
101342.39
101344.58
101346.72
101348.8
101350.83
101352.8
101354.72
101356.56
101358.34
101360.03
101361.63
101363.12
101364.5
101365.75
101366.87
101367.85
101368.69
101369.39
101369.94
101370.32
101370.5
100703.26
100717.8
100732.22
100746.5
100760.65
100774.67
100788.56
100802.3
100815.91
100829.37
100842.69
100855.85
100868.87
100881.73
100894.43
100906.97
100919.36
100931.57
100943.63
100955.51
100967.22
100978.76
100990.12
101001.29
101012.27
101023.06
101033.66
101044.06
101054.27
101064.27
101074.07
101083.67
101093.07
101102.26
101111.25
101120.03
101128.61
101136.97
101145.13
101153.08
101160.82
101168.36
101175.71
101182.85
101189.8
101196.56
101203.12
101209.48
101215.64
101221.61
101227.38
101232.95
101238.33
101243.52
101248.54
101253.38
101258.06
101262.59
101266.97
101271.21
101275.31
101279.27
101283.11
101286.81
101290.4
101293.87
101297.22
101300.47
101303.61
101306.64
101309.64
101312.54
101315.31
101318.02
101320.66
101323.26
101325.81
101328.3
101330.74
101333.14
101335.5
101337.83
101340.11
101342.35
101344.53
101346.67
101348.74
101350.76
101352.73
101354.64
101356.48
101358.25
101359.93
101361.53
101363.02
101364.4
101365.65
101366.76
101367.75
101368.59
101369.29
101369.83
101370.21
101370.39
100723.2
100736.91
100750.52
100764.02
100777.42
100790.72
100803.9
100816.98
100829.93
100842.76
100855.47
100868.05
100880.5
100892.82
100904.99
100917.03
100928.92
100940.66
100952.26
100963.7
100974.99
100986.12
100997.09
101007.88
101018.51
101028.95
101039.22
101049.31
101059.21
101068.92
101078.45
101087.79
101096.94
101105.89
101114.66
101123.22
101131.59
101139.77
101147.74
101155.51
101163.09
101170.48
101177.68
101184.69
101191.51
101198.14
101204.58
101210.83
101216.9
101222.77
101228.45
101233.95
101239.25
101244.37
101249.32
101254.1
101258.72
101263.19
101267.52
101271.71
101275.76
101279.68
101283.48
101287.15
101290.7
101294.14
101297.46
101300.68
101303.8
101306.81
101309.78
101312.66
101315.43
101318.11
101320.72
101323.32
101325.85
101328.33
101330.76
101333.14
101335.49
101337.81
101340.08
101342.31
101344.49
101346.61
101348.68
101350.7
101352.66
101354.56
101356.39
101358.16
101359.84
101361.43
101362.92
101364.29
101365.54
101366.66
101367.64
101368.48
101369.18
101369.72
101370.1
101370.28
100730.52
100743.47
100756.34
100769.14
100781.86
100794.51
100807.07
100819.55
100831.94
100844.24
100856.44
100868.54
100880.52
100892.4
100904.16
100915.8
100927.32
100938.71
100949.98
100961.11
100972.11
100982.97
100993.69
101004.26
101014.67
101024.93
101035.02
101044.95
101054.72
101064.31
101073.73
101082.98
101092.05
101100.94
101109.65
101118.19
101126.53
101134.69
101142.67
101150.45
101158.05
101165.46
101172.69
101179.73
101186.6
101193.29
101199.79
101206.11
101212.26
101218.22
101223.99
101229.59
101234.99
101240.22
101245.27
101250.14
101254.85
101259.41
101263.83
101268.1
101272.24
101276.24
101280.12
101283.88
101287.51
101291.03
101294.43
101297.72
101300.91
101304
101307
101309.91
101312.79
101315.57
101318.2
101320.8
101323.38
101325.9
101328.36
101330.78
101333.15
101335.49
101337.79
101340.06
101342.28
101344.45
101346.56
101348.63
101350.63
101352.59
101354.48
101356.31
101358.07
101359.75
101361.34
101362.82
101364.19
101365.44
101366.55
101367.53
101368.37
101369.07
101369.61
101369.99
101370.17
100751.94
100764.02
100776.06
100788.05
100799.99
100811.88
100823.71
100835.48
100847.19
100858.82
100870.38
100881.86
100893.25
100904.55
100915.75
100926.85
100937.85
100948.74
100959.52
100970.18
100980.73
100991.16
101001.45
101011.62
101021.64
101031.53
101041.26
101050.85
101060.29
101069.56
101078.68
101087.64
101096.44
101105.08
101113.54
101121.84
101129.96
101137.91
101145.68
101153.27
101160.68
101167.92
101174.98
101181.87
101188.59
101195.14
101201.52
101207.72
101213.74
101219.59
101225.27
101230.77
101236.09
101241.24
101246.2
101251.01
101255.65
101260.14
101264.5
101268.72
101272.8
101276.75
101280.59
101284.3
101287.89
101291.37
101294.73
101297.99
101301.15
101304.22
101307.19
101310.08
101312.94
101315.7
101318.3
101320.89
101323.45
101325.95
101328.4
101330.8
101333.17
101335.49
101337.78
101340.04
101342.25
101344.41
101346.52
101348.57
101350.57
101352.52
101354.4
101356.23
101357.98
101359.66
101361.24
101362.72
101364.09
101365.33
101366.45
101367.43
101368.26
101368.96
101369.5
101369.88
101370.06
100773.61
100784.83
100796.03
100807.21
100818.37
100829.5
100840.6
100851.67
100862.69
100873.66
100884.57
100895.43
100906.21
100916.93
100927.57
100938.13
100948.6
100958.98
100969.27
100979.46
100989.55
100999.54
101009.41
101019.16
101028.8
101038.3
101047.68
101056.91
101066.01
101074.97
101083.79
101092.46
101100.98
101109.34
101117.56
101125.61
101133.5
101141.23
101148.79
101156.18
101163.41
101170.47
101177.36
101184.1
101190.67
101197.07
101203.31
101209.39
101215.29
101221.03
101226.6
101232.01
101237.24
101242.3
101247.19
101251.91
101256.48
101260.91
101265.2
101269.36
101273.39
101277.29
101281.08
101284.74
101288.3
101291.73
101295.06
101298.29
101301.42
101304.45
101307.4
101310.27
101313.08
101315.81
101318.44
101321
101323.53
101326.01
101328.45
101330.84
101333.18
101335.5
101337.78
101340.02
101342.22
101344.37
101346.47
101348.52
101350.51
101352.45
101354.33
101356.15
101357.9
101359.56
101361.14
101362.62
101363.99
101365.23
101366.34
101367.32
101368.15
101368.85
101369.39
101369.76
101369.95
100795.49
100805.85
100816.22
100826.6
100836.98
100847.36
100857.73
100868.08
100878.41
100888.72
100898.99
100909.22
100919.4
100929.54
100939.61
100949.62
100959.56
100969.43
100979.23
100988.94
100998.57
101008.11
101017.55
101026.89
101036.12
101045.25
101054.25
101063.14
101071.9
101080.53
101089.04
101097.41
101105.64
101113.74
101121.7
101129.5
101137.16
101144.66
101152.01
101159.2
101166.23
101173.11
101179.83
101186.4
101192.82
101199.08
101205.18
101211.13
101216.91
101222.53
101228
101233.3
101238.44
101243.41
101248.21
101252.86
101257.36
101261.72
101265.95
101270.04
101274.01
101277.86
101281.6
101285.22
101288.72
101292.12
101295.41
101298.6
101301.7
101304.71
101307.63
101310.46
101313.23
101315.94
101318.59
101321.12
101323.62
101326.08
101328.5
101330.88
101333.21
101335.51
101337.78
101340.01
101342.2
101344.34
101346.43
101348.47
101350.45
101352.38
101354.26
101356.07
101357.81
101359.47
101361.05
101362.52
101363.88
101365.12
101366.23
101367.21
101368.04
101368.74
101369.27
101369.65
101369.83
100817.52
100827.04
100836.6
100846.18
100855.79
100865.41
100875.05
100884.7
100894.35
100903.99
100913.62
100923.23
100932.8
100942.35
100951.85
100961.31
100970.72
100980.08
100989.37
100998.61
101007.77
101016.86
101025.87
101034.79
101043.62
101052.35
101060.99
101069.52
101077.93
101086.24
101094.43
101102.5
101110.44
101118.27
101125.96
101133.51
101140.93
101148.21
101155.34
101162.32
101169.16
101175.85
101182.39
101188.8
101195.05
101201.16
101207.12
101212.93
101218.59
101224.09
101229.45
101234.64
101239.68
101244.56
101249.29
101253.85
101258.28
101262.56
101266.72
101270.75
101274.67
101278.46
101282.14
101285.71
101289.17
101292.53
101295.78
101298.93
101302
101304.97
101307.87
101310.67
101313.41
101316.11
101318.73
101321.24
101323.72
101326.16
101328.57
101330.92
101333.24
101335.53
101337.78
101340
101342.18
101344.31
101346.39
101348.42
101350.4
101352.32
101354.18
101355.99
101357.72
101359.38
101360.95
101362.42
101363.78
101365.02
101366.13
101367.1
101367.93
101368.63
101369.16
101369.54
101369.72
100839.68
100848.37
100857.11
100865.91
100874.75
100883.64
100892.55
100901.5
100910.47
100919.45
100928.44
100937.42
100946.39
100955.35
100964.28
100973.19
100982.07
100990.91
100999.7
101008.45
101017.15
101025.78
101034.35
101042.85
101051.28
101059.62
101067.88
101076.04
101084.11
101092.08
101099.95
101107.72
101115.37
101122.92
101130.34
101137.64
101144.82
101151.86
101158.77
101165.54
101172.17
101178.68
101185.04
101191.27
101197.37
101203.32
101209.14
101214.81
101220.34
101225.72
101230.95
101236.04
101240.98
101245.77
101250.4
101254.89
101259.23
101263.45
101267.53
101271.5
101275.35
101279.09
101282.72
101286.23
101289.65
101292.96
101296.17
101299.28
101302.31
101305.26
101308.12
101310.9
101313.61
101316.27
101318.88
101321.38
101323.82
101326.25
101328.63
101330.98
101333.28
101335.55
101337.79
101340
101342.17
101344.29
101346.36
101348.38
101350.34
101352.25
101354.11
101355.91
101357.64
101359.29
101360.86
101362.32
101363.68
101364.91
101366.02
101366.99
101367.82
101368.51
101369.05
101369.42
101369.6
100861.91
100869.79
100877.74
100885.76
100893.85
100902
100910.2
100918.46
100926.75
100935.07
100943.42
100951.78
100960.15
100968.52
100976.89
100985.24
100993.59
101001.91
101010.2
101018.46
101026.69
101034.87
101043
101051.08
101059.09
101067.04
101074.92
101082.72
101090.43
101098.07
101105.61
101113.07
101120.43
101127.69
101134.84
101141.88
101148.81
101155.62
101162.3
101168.85
101175.29
101181.59
101187.77
101193.83
101199.76
101205.56
101211.22
101216.75
101222.15
101227.4
101232.52
101237.5
101242.33
101247.02
101251.57
101255.97
101260.23
101264.37
101268.38
101272.28
101276.07
101279.75
101283.32
101286.78
101290.15
101293.41
101296.58
101299.66
101302.65
101305.56
101308.39
101311.14
101313.83
101316.44
101319.03
101321.53
101323.94
101326.35
101328.71
101331.03
101333.32
101335.58
101337.8
101340
101342.15
101344.26
101346.32
101348.33
101350.29
101352.19
101354.04
101355.83
101357.55
101359.2
101360.76
101362.22
101363.57
101364.81
101365.91
101366.88
101367.71
101368.4
101368.93
101369.3
101369.49
100884.18
100891.26
100898.43
100905.69
100913.04
100920.47
100927.97
100935.54
100943.16
100950.83
100958.54
100966.29
100974.06
100981.85
100989.65
100997.45
101005.26
101013.06
101020.86
101028.63
101036.39
101044.11
101051.8
101059.45
101067.05
101074.61
101082.1
101089.53
101096.89
101104.19
101111.41
101118.55
101125.61
101132.58
101139.46
101146.24
101152.91
101159.48
101165.93
101172.27
101178.49
101184.6
101190.59
101196.47
101202.23
101207.87
101213.38
101218.76
101224.02
101229.15
101234.14
101239.01
101243.74
101248.33
101252.78
101257.09
101261.27
101265.33
101269.27
101273.1
101276.82
101280.44
101283.95
101287.36
101290.67
101293.89
101297.01
101300.05
101303
101305.88
101308.68
101311.4
101314.05
101316.63
101319.18
101321.69
101324.08
101326.46
101328.79
101331.1
101333.37
101335.61
101337.82
101340
101342.15
101344.24
101346.29
101348.29
101350.24
101352.13
101353.97
101355.76
101357.47
101359.11
101360.66
101362.12
101363.47
101364.7
101365.8
101366.77
101367.6
101368.28
101368.82
101369.19
101369.37
100906.44
100912.74
100919.16
100925.68
100932.3
100939.02
100945.83
100952.72
100959.68
100966.71
100973.79
100980.92
100988.1
100995.31
101002.54
101009.8
101017.08
101024.36
101031.66
101038.95
101046.23
101053.5
101060.74
101067.97
101075.16
101082.31
101089.42
101096.47
101103.48
101110.43
101117.32
101124.15
101130.9
101137.58
101144.18
101150.7
101157.12
101163.44
101169.66
101175.78
101181.79
101187.7
101193.5
101199.19
101204.78
101210.25
101215.6
101220.84
101225.96
101230.95
101235.83
101240.57
101245.19
101249.68
101254.04
101258.26
101262.35
101266.33
101270.19
101273.95
101277.6
101281.15
101284.61
101287.96
101291.22
101294.39
101297.47
101300.46
101303.38
101306.22
101308.98
101311.66
101314.29
101316.84
101319.36
101321.83
101324.23
101326.57
101328.88
101331.17
101333.43
101335.65
101337.85
101340.01
101342.14
101344.23
101346.27
101348.25
101350.19
101352.08
101353.91
101355.68
101357.39
101359.02
101360.57
101362.02
101363.37
101364.59
101365.69
101366.66
101367.48
101368.17
101368.7
101369.07
101369.25
100928.65
100934.2
100939.88
100945.68
100951.59
100957.61
100963.74
100969.97
100976.28
100982.67
100989.14
100995.67
101002.25
101008.89
101015.56
101022.28
101029.02
101035.79
101042.59
101049.39
101056.2
101063.01
101069.82
101076.61
101083.39
101090.14
101096.86
101103.55
101110.2
101116.8
101123.36
101129.86
101136.31
101142.7
101149.02
101155.27
101161.43
101167.5
101173.49
101179.38
101185.18
101190.88
101196.49
101201.99
101207.4
101212.71
101217.9
101222.99
101227.96
101232.82
101237.57
101242.2
101246.7
101251.08
101255.34
101259.47
101263.47
101267.36
101271.15
101274.83
101278.42
101281.9
101285.29
101288.59
101291.8
101294.91
101297.94
101300.9
101303.77
101306.57
101309.3
101311.95
101314.54
101317.07
101319.54
101321.99
101324.39
101326.7
101328.99
101331.25
101333.49
101335.7
101337.88
101340.03
101342.15
101344.22
101346.24
101348.22
101350.14
101352.02
101353.84
101355.6
101357.3
101358.93
101360.47
101361.92
101363.26
101364.48
101365.58
101366.54
101367.37
101368.05
101368.58
101368.95
101369.13
100950.78
100955.61
100960.57
100965.66
100970.88
100976.22
100981.69
100987.26
100992.94
100998.71
101004.56
101010.49
101016.49
101022.56
101028.68
101034.86
101041.08
101047.34
101053.63
101059.95
101066.3
101072.65
101079.02
101085.38
101091.74
101098.09
101104.43
101110.74
101117.03
101123.29
101129.51
101135.69
101141.84
101147.93
101153.96
101159.94
101165.84
101171.66
101177.41
101183.07
101188.65
101194.15
101199.56
101204.88
101210.1
101215.24
101220.27
101225.2
101230.03
101234.75
101239.37
101243.87
101248.26
101252.54
101256.69
101260.72
101264.64
101268.44
101272.15
101275.75
101279.26
101282.68
101286.01
101289.25
101292.4
101295.46
101298.45
101301.35
101304.18
101306.94
101309.63
101312.25
101314.81
101317.3
101319.75
101322.18
101324.54
101326.83
101329.1
101331.34
101333.56
101335.75
101337.91
101340.05
101342.15
101344.21
101346.22
101348.19
101350.1
101351.96
101353.78
101355.53
101357.22
101358.84
101360.38
101361.82
101363.16
101364.38
101365.47
101366.43
101367.25
101367.94
101368.46
101368.83
101369.01
100972.78
100976.91
100981.18
100985.59
100990.14
100994.82
100999.64
101004.57
101009.62
101014.78
101020.03
101025.38
101030.81
101036.31
101041.89
101047.53
101053.23
101058.98
101064.78
101070.62
101076.5
101082.4
101088.32
101094.26
101100.21
101106.16
101112.11
101118.05
101123.97
101129.88
101135.77
101141.63
101147.46
101153.26
101159.01
101164.7
101170.34
101175.92
101181.42
101186.86
101192.22
101197.5
101202.71
101207.83
101212.88
101217.84
101222.7
101227.48
101232.16
101236.74
101241.22
101245.6
101249.88
101254.04
101258.09
101262.02
101265.84
101269.56
101273.18
101276.71
101280.14
101283.49
101286.75
101289.93
101293.02
101296.04
101298.97
101301.83
101304.62
101307.33
101309.98
101312.56
101315.09
101317.55
101319.97
101322.38
101324.7
101326.96
101329.22
101331.44
101333.64
101335.81
101337.96
101340.07
101342.16
101344.2
101346.2
101348.15
101350.06
101351.91
101353.71
101355.46
101357.14
101358.75
101360.28
101361.72
101363.05
101364.27
101365.36
101366.32
101367.14
101367.82
101368.34
101368.71
101368.89
100994.63
100998.08
101001.69
101005.44
101009.34
101013.38
101017.56
101021.87
101026.31
101030.87
101035.54
101040.3
101045.17
101050.12
101055.16
101060.27
101065.45
101070.7
101076.01
101081.38
101086.79
101092.24
101097.73
101103.24
101108.78
101114.33
101119.89
101125.46
101131.02
101136.58
101142.13
101147.67
101153.19
101158.68
101164.15
101169.57
101174.94
101180.26
101185.53
101190.73
101195.86
101200.93
101205.94
101210.87
101215.73
101220.51
101225.21
101229.82
101234.35
101238.79
101243.13
101247.39
101251.54
101255.59
101259.53
101263.36
101267.09
101270.71
101274.25
101277.7
101281.06
101284.33
101287.53
101290.64
101293.68
101296.64
101299.52
101302.33
101305.07
101307.74
101310.35
101312.89
101315.38
101317.82
101320.2
101322.56
101324.87
101327.13
101329.35
101331.55
101333.72
101335.87
101338
101340.1
101342.17
101344.2
101346.19
101348.13
101350.02
101351.86
101353.65
101355.39
101357.06
101358.66
101360.18
101361.62
101362.95
101364.16
101365.25
101366.2
101367.02
101367.7
101368.22
101368.59
101368.77
101016.27
101019.09
101022.05
101025.17
101028.44
101031.86
101035.42
101039.13
101042.98
101046.95
101051.04
101055.25
101059.56
101063.97
101068.47
101073.06
101077.74
101082.49
101087.32
101092.21
101097.17
101102.17
101107.22
101112.32
101117.44
101122.6
101127.77
101132.96
101138.17
101143.38
101148.6
101153.81
101159.02
101164.21
101169.38
101174.52
101179.63
101184.69
101189.71
101194.68
101199.59
101204.44
101209.24
101213.98
101218.65
101223.25
101227.78
101232.23
101236.6
101240.9
101245.1
101249.22
101253.25
101257.19
101261.02
101264.75
101268.38
101271.91
101275.36
101278.72
101282
101285.21
101288.33
101291.38
101294.36
101297.26
101300.09
101302.85
101305.54
101308.17
101310.73
101313.24
101315.69
101318.09
101320.45
101322.76
101325.05
101327.3
101329.49
101331.66
101333.81
101335.94
101338.05
101340.14
101342.19
101344.21
101346.18
101348.1
101349.98
101351.81
101353.59
101355.31
101356.98
101358.57
101360.09
101361.52
101362.84
101364.05
101365.13
101366.09
101366.9
101367.58
101368.1
101368.47
101368.64
101037.66
101039.9
101042.26
101044.77
101047.43
101050.24
101053.21
101056.33
101059.59
101063
101066.53
101070.18
101073.95
101077.83
101081.81
101085.9
101090.07
101094.33
101098.68
101103.11
101107.61
101112.17
101116.79
101121.47
101126.19
101130.95
101135.74
101140.56
101145.41
101150.27
101155.15
101160.04
101164.93
101169.82
101174.7
101179.56
101184.4
101189.21
101193.98
101198.71
101203.4
101208.03
101212.62
101217.16
101221.64
101226.06
101230.41
101234.7
101238.92
101243.06
101247.13
101251.12
101255.02
101258.83
101262.55
101266.18
101269.71
101273.15
101276.5
101279.78
101282.98
101286.11
101289.16
101292.15
101295.06
101297.91
101300.68
101303.39
101306.03
101308.61
101311.13
101313.6
101316.02
101318.38
101320.7
101322.99
101325.25
101327.46
101329.63
101331.78
101333.91
101336.02
101338.11
101340.18
101342.21
101344.21
101346.17
101348.08
101349.94
101351.76
101353.53
101355.24
101356.9
101358.49
101359.99
101361.41
101362.73
101363.94
101365.02
101365.97
101366.78
101367.46
101367.98
101368.34
101368.52
101058.94
101060.51
101062.27
101064.19
101066.26
101068.49
101070.88
101073.43
101076.14
101078.99
101081.98
101085.09
101088.33
101091.69
101095.16
101098.74
101102.42
101106.21
101110.09
101114.05
101118.1
101122.23
101126.43
101130.69
101135
101139.37
101143.78
101148.24
101152.72
101157.24
101161.78
101166.35
101170.93
101175.52
101180.1
101184.69
101189.26
101193.81
101198.33
101202.82
101207.28
101211.7
101216.07
101220.41
101224.7
101228.93
101233.11
101237.23
101241.29
101245.28
101249.21
101253.06
101256.84
101260.53
101264.13
101267.65
101271.08
101274.42
101277.69
101280.88
101284
101287.05
101290.03
101292.94
101295.79
101298.58
101301.3
101303.95
101306.54
101309.07
101311.55
101313.98
101316.36
101318.69
101320.97
101323.23
101325.46
101327.64
101329.79
101331.92
101334.02
101336.11
101338.18
101340.22
101342.24
101344.22
101346.16
101348.06
101349.91
101351.72
101353.47
101355.18
101356.82
101358.4
101359.9
101361.31
101362.63
101363.83
101364.91
101365.85
101366.66
101367.34
101367.85
101368.22
101368.39
101079.8
101080.85
101082.1
101083.45
101084.94
101086.58
101088.42
101090.42
101092.58
101094.9
101097.36
101099.95
101102.68
101105.53
101108.5
101111.58
101114.78
101118.09
101121.51
101125.02
101128.64
101132.33
101136.11
101139.96
101143.88
101147.86
101151.89
101155.98
101160.11
101164.29
101168.5
101172.74
101177
101181.29
101185.59
101189.89
101194.19
101198.48
101202.75
101207
101211.23
101215.43
101219.6
101223.73
101227.82
101231.87
101235.87
101239.83
101243.72
101247.56
101251.34
101255.06
101258.7
101262.27
101265.76
101269.17
101272.49
101275.73
101278.91
101282.01
101285.04
101288.01
101290.92
101293.77
101296.55
101299.27
101301.94
101304.53
101307.07
101309.56
101311.99
101314.38
101316.71
101319.01
101321.26
101323.48
101325.67
101327.83
101329.96
101332.06
101334.13
101336.2
101338.25
101340.28
101342.27
101344.24
101346.16
101348.04
101349.88
101351.67
101353.42
101355.11
101356.74
101358.31
101359.8
101361.21
101362.52
101363.72
101364.79
101365.74
101366.54
101367.21
101367.73
101368.09
101368.27
101100.85
101100.91
101101.53
101102.49
101103.44
101104.47
101105.78
101107.28
101108.93
101110.72
101112.66
101114.73
101116.95
101119.31
101121.8
101124.41
101127.13
101129.98
101132.94
101136.02
101139.2
101142.47
101145.83
101149.28
101152.8
101156.4
101160.06
101163.79
101167.57
101171.4
101175.28
101179.2
101183.15
101187.14
101191.14
101195.17
101199.2
101203.23
101207.25
101211.26
101215.25
101219.23
101223.18
101227.11
101231.01
101234.87
101238.7
101242.48
101246.21
101249.9
101253.53
101257.1
101260.61
101264.06
101267.43
101270.72
101273.94
101277.09
101280.16
101283.17
101286.12
101289.01
101291.85
101294.62
101297.34
101299.99
101302.6
101305.14
101307.63
101310.06
101312.45
101314.79
101317.08
101319.34
101321.56
101323.74
101325.91
101328.03
101330.13
101332.2
101334.26
101336.3
101338.32
101340.33
101342.31
101344.26
101346.16
101348.03
101349.85
101351.63
101353.36
101355.04
101356.66
101358.22
101359.71
101361.11
101362.41
101363.61
101364.68
101365.62
101366.42
101367.09
101367.6
101367.96
101368.14
101120.9
101120.88
101121.2
101121.44
101121.62
101122.05
101122.9
101123.98
101125.11
101126.43
101127.82
101129.38
101131.16
101133.06
101135.08
101137.21
101139.45
101141.83
101144.36
101147.01
101149.77
101152.62
101155.58
101158.63
101161.76
101164.98
101168.28
101171.65
101175.08
101178.57
101182.12
101185.72
101189.36
101193.05
101196.77
101200.51
101204.27
101208.04
101211.81
101215.58
101219.34
101223.1
101226.84
101230.56
101234.26
101237.93
101241.58
101245.19
101248.76
101252.29
101255.77
101259.2
101262.58
101265.89
101269.14
101272.32
101275.43
101278.48
101281.46
101284.38
101287.24
101290.05
101292.8
101295.5
101298.15
101300.74
101303.28
101305.77
101308.2
101310.58
101312.92
101315.21
101317.47
101319.69
101321.87
101324.02
101326.15
101328.24
101330.3
101332.36
101334.39
101336.4
101338.41
101340.39
101342.35
101344.28
101346.17
101348.02
101349.83
101351.59
101353.31
101354.97
101356.59
101358.14
101359.62
101361.01
101362.31
101363.49
101364.56
101365.5
101366.3
101366.96
101367.48
101367.84
101368.01
101140.87
101140.37
101140.03
101139.79
101139.54
101139.53
101140.04
101140.51
101141.16
101142.04
101142.78
101143.9
101145.24
101146.72
101148.28
101149.95
101151.72
101153.67
101155.77
101157.99
101160.32
101162.77
101165.33
101168
101170.75
101173.6
101176.53
101179.54
101182.63
101185.79
101189.01
101192.3
101195.63
101199.02
101202.45
101205.91
101209.4
101212.91
101216.43
101219.96
101223.49
101227.03
101230.55
101234.07
101237.57
101241.05
101244.52
101247.95
101251.36
101254.73
101258.06
101261.34
101264.58
101267.77
101270.9
101273.97
101276.97
101279.91
101282.79
101285.61
101288.39
101291.11
101293.78
101296.41
101298.98
101301.51
101303.99
101306.41
101308.79
101311.12
101313.41
101315.66
101317.87
101320.05
101322.19
101324.3
101326.4
101328.47
101330.5
101332.52
101334.53
101336.52
101338.5
101340.46
101342.4
101344.31
101346.18
101348.01
101349.8
101351.55
101353.26
101354.91
101356.51
101358.05
101359.52
101360.91
101362.2
101363.38
101364.44
101365.38
101366.18
101366.84
101367.35
101367.71
101367.88
101160.45
101159.42
101158.56
101157.86
101157.26
101156.89
101156.79
101156.76
101157
101157.3
101157.71
101158.34
101159.22
101160.31
101161.48
101162.6
101163.85
101165.45
101167.1
101168.95
101170.88
101172.93
101175.1
101177.36
101179.74
101182.23
101184.81
101187.47
101190.22
101193.05
101195.95
101198.92
101201.95
101205.05
101208.19
101211.38
101214.6
101217.85
101221.12
101224.41
101227.71
101231.01
101234.32
101237.63
101240.94
101244.23
101247.51
101250.77
101254.01
101257.22
101260.4
101263.54
101266.64
101269.7
101272.7
101275.65
101278.54
101281.37
101284.15
101286.88
101289.57
101292.2
101294.8
101297.34
101299.85
101302.31
101304.72
101307.08
101309.4
101311.68
101313.92
101316.12
101318.29
101320.42
101322.53
101324.6
101326.66
101328.7
101330.7
101332.69
101334.67
101336.64
101338.59
101340.53
101342.45
101344.34
101346.19
101348.01
101349.78
101351.51
101353.2
101354.85
101356.44
101357.97
101359.43
101360.81
101362.09
101363.27
101364.33
101365.26
101366.05
101366.71
101367.22
101367.58
101367.75
101179.6
101178.13
101176.82
101175.67
101174.68
101173.88
101173.28
101172.81
101172.56
101172.43
101172.47
101172.68
101173.06
101173.67
101174.39
101175.09
101176.09
101177.16
101178.44
101179.9
101181.33
101183.05
101184.84
101186.74
101188.75
101190.88
101193.1
101195.42
101197.84
101200.34
101202.92
101205.58
101208.32
101211.12
101213.98
101216.89
101219.84
101222.83
101225.86
101228.9
101231.97
101235.05
101238.15
101241.25
101244.36
101247.46
101250.56
101253.64
101256.71
101259.76
101262.78
101265.78
101268.74
101271.66
101274.54
101277.37
101280.15
101282.87
101285.55
101288.19
101290.78
101293.33
101295.84
101298.31
101300.74
101303.12
101305.47
101307.77
101310.04
101312.26
101314.45
101316.6
101318.72
101320.81
101322.88
101324.91
101326.93
101328.94
101330.91
101332.87
101334.83
101336.77
101338.7
101340.61
101342.51
101344.37
101346.21
101348
101349.76
101351.48
101353.16
101354.78
101356.36
101357.88
101359.33
101360.71
101361.98
101363.16
101364.21
101365.13
101365.93
101366.58
101367.09
101367.44
101367.61
101198.34
101196.45
101194.72
101193.16
101191.75
101190.53
101189.49
101188.61
101187.91
101187.37
101187
101186.8
101186.74
101186.89
101187.17
101187.55
101188.11
101188.8
101189.71
101190.69
101191.81
101193.21
101194.57
101196.03
101197.74
101199.52
101201.4
101203.39
101205.47
101207.65
101209.92
101212.27
101214.71
101217.23
101219.81
101222.44
101225.13
101227.87
101230.64
101233.45
101236.29
101239.15
101242.03
101244.92
101247.83
101250.74
101253.65
101256.56
101259.46
101262.35
101265.22
101268.06
101270.88
101273.67
101276.42
101279.13
101281.8
101284.41
101286.99
101289.52
101292.02
101294.48
101296.91
101299.3
101301.65
101303.97
101306.25
101308.49
101310.69
101312.86
101314.99
101317.09
101319.17
101321.22
101323.24
101325.24
101327.22
101329.18
101331.13
101333.06
101334.99
101336.9
101338.8
101340.7
101342.57
101344.41
101346.22
101348
101349.74
101351.45
101353.11