/*--------------------------------*- C++ -*----------------------------------*\
| =========                 |                                                 |
| \\      /  F ield         | OpenFOAM: The Open Source CFD Toolbox           |
|  \\    /   O peration     | Version:  2406                                  |
|   \\  /    A nd           | Website:  www.openfoam.com                      |
|    \\/     M anipulation  |                                                 |
\*---------------------------------------------------------------------------*/
FoamFile
{
    version     2.0;
    format      ascii;
    arch        "LSB;label=32;scalar=64";
    class       volScalarField;
    location    "0.006";
    object      pMean;
}
// * * * * * * * * * * * * * * * * * * * * * * * * * * * * * * * * * * * * * //

dimensions      [1 -1 -2 0 0 0 0];

internalField   nonuniform List<scalar> 
23204
(
101337.2
101337.51
101337.74
101337.9
101337.95
101327.28
101328.34
101329.36
101330.32
101331.22
101332.08
101332.88
101333.62
101334.32
101334.95
101335.53
101336.04
101336.49
101336.87
101337.18
101337.41
101337.56
101337.61
101292.94
101295.58
101298.1
101300.51
101302.81
101305.01
101307.11
101309.11
101311.02
101312.85
101314.59
101316.24
101317.82
101319.33
101320.76
101322.13
101323.43
101324.67
101325.85
101326.97
101328.03
101329.04
101330
101330.9
101331.75
101332.55
101333.3
101333.99
101334.62
101335.2
101335.71
101336.16
101336.53
101336.84
101337.07
101337.22
101337.27
101137.03
101148.12
101158.6
101168.44
101177.61
101186.09
101193.88
101200.95
101207.32
101213
101218.01
101222.38
101226.18
101229.47
101232.35
101234.9
101237.24
101239.5
101241.82
101244.44
101247.61
101251.3
101255.47
101259.61
101263.59
101267.41
101271.08
101274.62
101278.01
101281.24
101284.34
101287.32
101290.16
101292.89
101295.5
101297.99
101300.38
101302.66
101304.84
101306.92
101308.91
101310.8
101312.61
101314.34
101315.99
101317.56
101319.05
101320.48
101321.84
101323.13
101324.37
101325.54
101326.66
101327.72
101328.72
101329.68
101330.58
101331.43
101332.22
101332.96
101333.65
101334.28
101334.86
101335.37
101335.82
101336.19
101336.5
101336.72
101336.88
101336.93
100595.82
100612.43
100629.17
100646.07
100663.1
100680.26
100697.52
100714.88
100732.3
100749.78
100767.28
100784.8
100802.31
100819.79
100837.22
100854.58
100871.85
100889
100906.02
100922.88
100939.55
100956.02
100972.27
100988.27
101003.99
101019.41
101034.51
101049.26
101063.63
101077.6
101091.13
101104.2
101116.78
101128.83
101140.35
101151.29
101161.62
101171.32
101180.36
101188.73
101196.4
101203.38
101209.66
101215.26
101220.19
101224.48
101228.19
101231.4
101234.18
101236.63
101238.85
101240.96
101243.12
101245.52
101248.46
101251.95
101255.95
101260.02
101263.94
101267.71
101271.32
101274.8
101278.15
101281.35
101284.4
101287.34
101290.15
101292.85
101295.42
101297.89
101300.25
101302.51
101304.67
101306.73
101308.7
101310.58
101312.38
101314.09
101315.73
101317.29
101318.78
101320.2
101321.55
101322.84
101324.06
101325.23
101326.34
101327.4
101328.4
101329.35
101330.25
101331.1
101331.89
101332.63
101333.32
101333.95
101334.52
101335.03
101335.47
101335.85
101336.15
101336.38
101336.53
101336.58
100611.52
100627.62
100643.87
100660.29
100676.87
100693.57
100710.38
100727.28
100744.26
100761.3
100778.38
100795.48
100812.57
100829.64
100846.67
100863.63
100880.51
100897.29
100913.93
100930.42
100946.75
100962.88
100978.79
100994.46
101009.87
101025
101039.81
101054.28
101068.38
101082.1
101095.39
101108.24
101120.61
101132.48
101143.82
101154.59
101164.76
101174.31
101183.22
101191.46
101199.02
101205.9
101212.09
101217.6
101222.44
101226.65
101230.28
101233.39
101236.07
101238.41
101240.51
101242.48
101244.48
101246.68
101249.37
101252.67
101256.48
101260.46
101264.32
101268.02
101271.58
101275.01
101278.3
101281.46
101284.48
101287.37
101290.15
101292.81
101295.36
101297.8
101300.14
101302.37
101304.51
101306.55
101308.5
101310.37
101312.15
101313.85
101315.47
101317.02
101318.5
101319.91
101321.26
101322.54
101323.76
101324.92
101326.03
101327.08
101328.08
101329.02
101329.92
101330.76
101331.55
101332.29
101332.97
101333.6
101334.17
101334.68
101335.12
101335.49
101335.8
101336.02
101336.18
101336.23
100627.33
100642.92
100658.69
100674.65
100690.76
100707.01
100723.38
100739.84
100756.39
100772.99
100789.64
100806.32
100823
100839.66
100856.29
100872.85
100889.35
100905.74
100922.01
100938.14
100954.11
100969.89
100985.47
101000.82
101015.91
101030.73
101045.25
101059.44
101073.28
101086.74
101099.79
101112.41
101124.57
101136.24
101147.38
101157.97
101167.98
101177.38
101186.15
101194.27
101201.71
101208.48
101214.57
101219.98
101224.74
101228.86
101232.4
101235.42
101238.01
101240.24
101242.21
101244.05
101245.89
101247.9
101250.36
101253.46
101257.04
101260.93
101264.72
101268.37
101271.87
101275.23
101278.48
101281.59
101284.57
101287.42
101290.16
101292.79
101295.3
101297.71
101300.02
101302.23
101304.35
101306.37
101308.3
101310.15
101311.92
101313.61
101315.22
101316.76
101318.22
101319.63
101320.96
101322.24
101323.45
101324.61
101325.71
101326.76
101327.75
101328.69
101329.58
101330.42
101331.21
101331.95
101332.63
101333.25
101333.82
101334.32
101334.77
101335.14
101335.44
101335.67
101335.82
101335.87
100643.14
100658.24
100673.55
100689.05
100704.72
100720.53
100736.45
100752.48
100768.6
100784.78
100801.01
100817.27
100833.53
100849.79
100866.02
100882.19
100898.3
100914.31
100930.21
100945.98
100961.59
100977.03
100992.27
101007.29
101022.07
101036.58
101050.81
101064.72
101078.29
101091.49
101104.3
101116.68
101128.62
101140.08
101151.03
101161.43
101171.27
101180.51
101189.14
101197.13
101204.45
101211.11
101217.09
101222.41
101227.08
101231.11
101234.56
101237.49
101239.98
101242.1
101243.96
101245.67
101247.36
101249.19
101251.41
101254.29
101257.67
101261.43
101265.15
101268.73
101272.17
101275.48
101278.67
101281.74
101284.67
101287.48
101290.18
101292.78
101295.26
101297.64
101299.92
101302.1
101304.19
101306.2
101308.11
101309.94
101311.69
101313.36
101314.96
101316.49
101317.95
101319.34
101320.67
101321.93
101323.14
101324.29
101325.39
101326.43
101327.42
101328.36
101329.24
101330.08
101330.87
101331.6
101332.28
101332.9
101333.46
101333.97
101334.41
101334.78
101335.08
101335.3
101335.46
101335.51
100644.4
100658.92
100673.56
100688.43
100703.49
100718.72
100734.08
100749.58
100765.18
100780.87
100796.63
100812.45
100828.29
100844.16
100860.01
100875.84
100891.63
100907.35
100922.99
100938.52
100953.92
100969.18
100984.27
100999.18
101013.87
101028.33
101042.54
101056.47
101070.09
101083.39
101096.33
101108.89
101121.04
101132.75
101144
101154.74
101164.96
101174.63
101183.71
101192.19
101200.04
101207.24
101213.78
101219.66
101224.88
101229.45
101233.4
101236.76
101239.59
101241.98
101244
101245.75
101247.33
101248.88
101250.53
101252.52
101255.18
101258.36
101261.96
101265.61
101269.12
101272.5
101275.75
101278.88
101281.9
101284.79
101287.56
101290.22
101292.77
101295.22
101297.57
101299.82
101301.98
101304.05
101306.02
101307.92
101309.73
101311.47
101313.12
101314.71
101316.22
101317.67
101319.05
101320.37
101321.63
101322.83
101323.97
101325.06
101326.1
101327.09
101328.02
101328.9
101329.74
101330.52
101331.25
101331.92
101332.54
101333.11
101333.61
101334.04
101334.41
101334.72
101334.94
101335.09
101335.14
100660.61
100674.67
100688.88
100703.31
100717.93
100732.73
100747.67
100762.74
100777.92
100793.2
100808.54
100823.95
100839.39
100854.85
100870.31
100885.75
100901.15
100916.49
100931.75
100946.91
100961.96
100976.86
100991.61
101006.18
101020.54
101034.69
101048.59
101062.22
101075.55
101088.57
101101.25
101113.56
101125.47
101136.96
101147.99
101158.53
101168.55
101178.04
101186.96
101195.28
101202.99
101210.07
101216.49
101222.26
101227.38
101231.86
101235.71
101238.98
101241.73
101244.02
101245.94
101247.57
101249.03
101250.44
101251.93
101253.71
101256.12
101259.11
101262.53
101266.09
101269.54
101272.85
101276.04
101279.11
101282.07
101284.92
101287.65
101290.26
101292.78
101295.2
101297.51
101299.73
101301.86
101303.9
101305.86
101307.73
101309.53
101311.24
101312.88
101314.46
101315.96
101317.39
101318.76
101320.07
101321.32
101322.52
101323.65
101324.74
101325.77
101326.75
101327.68
101328.56
101329.39
101330.16
101330.89
101331.56
101332.18
101332.74
101333.24
101333.68
101334.04
101334.34
101334.56
101334.71
101334.76
100676.73
100690.36
100704.15
100718.16
100732.37
100746.74
100761.26
100775.92
100790.69
100805.55
100820.49
100835.49
100850.54
100865.6
100880.67
100895.72
100910.74
100925.7
100940.59
100955.39
100970.07
100984.63
100999.03
101013.26
101027.3
101041.13
101054.72
101068.05
101081.1
101093.84
101106.25
101118.3
101129.97
101141.23
101152.04
101162.37
101172.2
101181.51
101190.26
101198.43
101205.99
101212.94
101219.24
101224.9
101229.91
101234.29
101238.05
101241.23
101243.88
101246.08
101247.9
101249.43
101250.77
101252.05
101253.39
101254.97
101257.12
101259.93
101263.14
101266.6
101269.98
101273.23
101276.35
101279.37
101282.27
101285.07
101287.75
101290.32
101292.8
101295.18
101297.46
101299.65
101301.75
101303.76
101305.7
101307.55
101309.32
101311.02
101312.65
101314.2
101315.69
101317.11
101318.48
101319.78
101321.02
101322.2
101323.33
101324.41
101325.43
101326.41
101327.33
101328.21
101329.03
101329.81
101330.53
101331.2
101331.81
101332.37
101332.87
101333.3
101333.67
101333.97
101334.19
101334.34
101334.39
100692.74
100705.97
100719.36
100732.96
100746.75
100760.72
100774.83
100789.08
100803.45
100817.91
100832.46
100847.06
100861.71
100876.39
100891.07
100905.74
100920.38
100934.97
100949.49
100963.93
100978.26
100992.46
101006.52
101020.42
101034.13
101047.64
101060.92
101073.95
101086.71
101099.18
101111.32
101123.12
101134.54
101145.56
101156.15
101166.27
101175.91
101185.03
101193.61
101201.62
101209.03
101215.84
101222.02
101227.56
101232.47
101236.75
101240.42
101243.51
101246.07
101248.17
101249.89
101251.32
101252.55
101253.69
101254.89
101256.29
101258.18
101260.8
101263.8
101267.14
101270.44
101273.62
101276.69
101279.64
101282.48
101285.23
101287.87
101290.39
101292.83
101295.17
101297.41
101299.57
101301.64
101303.63
101305.54
101307.37
101309.12
101310.8
101312.41
101313.95
101315.43
101316.84
101318.19
101319.48
101320.71
101321.88
101323.01
101324.08
101325.1
101326.07
101326.99
101327.86
101328.68
101329.45
101330.17
101330.83
101331.44
101332
101332.49
101332.92
101333.29
101333.59
101333.8
101333.95
101334
100708.61
100721.46
100734.46
100747.67
100761.07
100774.64
100788.37
100802.22
100816.19
100830.27
100844.42
100858.64
100872.9
100887.19
100901.49
100915.79
100930.05
100944.28
100958.44
100972.51
100986.49
101000.35
101014.07
101027.64
101041.02
101054.21
101067.19
101079.92
101092.39
101104.57
101116.45
101127.99
101139.16
101149.95
101160.31
101170.22
101179.66
101188.59
101196.99
101204.84
101212.11
101218.77
101224.82
101230.25
101235.05
101239.23
101242.8
101245.8
101248.27
101250.28
101251.91
101253.23
101254.35
101255.37
101256.43
101257.66
101259.31
101261.7
101264.53
101267.71
101270.93
101274.04
101277.04
101279.93
101282.71
101285.4
101287.99
101290.48
101292.87
101295.17
101297.38
101299.5
101301.54
101303.5
101305.38
101307.19
101308.92
101310.58
101312.17
101313.7
101315.16
101316.56
101317.9
101319.17
101320.4
101321.57
101322.68
101323.74
101324.76
101325.72
101326.63
101327.5
101328.31
101329.08
101329.8
101330.46
101331.07
101331.62
101332.11
101332.54
101332.9
101333.2
101333.42
101333.56
101333.61
100724.32
100736.8
100749.44
100762.28
100775.3
100788.49
100801.83
100815.3
100828.89
100842.59
100856.36
100870.2
100884.08
100898
100911.93
100925.85
100939.75
100953.61
100967.41
100981.13
100994.76
101008.28
101021.66
101034.9
101047.96
101060.84
101073.5
101085.94
101098.12
101110.02
101121.63
101132.91
101143.83
101154.38
101164.52
101174.21
101183.45
101192.19
101200.42
101208.1
101215.21
101221.74
101227.65
101232.96
101237.65
101241.72
101245.2
101248.11
101250.49
101252.41
101253.94
101255.17
101256.18
101257.09
101258.02
101259.08
101260.51
101262.66
101265.33
101268.31
101271.44
101274.48
101277.41
101280.24
101282.96
101285.6
101288.13
101290.57
101292.92
101295.18
101297.35
101299.44
101301.45
101303.38
101305.24
101307.02
101308.73
101310.37
101311.94
101313.45
101314.89
101316.28
101317.6
101318.87
101320.09
101321.24
101322.35
101323.41
101324.41
101325.37
101326.28
101327.14
101327.95
101328.71
101329.42
101330.08
101330.69
101331.24
101331.73
101332.15
101332.51
101332.81
101333.02
101333.17
101333.22
100739.84
100751.98
100764.26
100776.74
100789.4
100802.23
100815.2
100828.31
100841.53
100854.85
100868.25
100881.72
100895.24
100908.78
100922.35
100935.91
100949.45
100962.95
100976.39
100989.77
101003.05
101016.23
101029.28
101042.19
101054.93
101067.49
101079.85
101091.99
101103.89
101115.51
101126.85
101137.87
101148.54
101158.85
101168.76
101178.24
101187.27
101195.82
101203.86
101211.38
101218.34
101224.72
101230.5
101235.69
101240.26
101244.23
101247.61
101250.43
101252.72
101254.55
101255.99
101257.12
101258.04
101258.83
101259.63
101260.55
101261.78
101263.66
101266.17
101268.95
101271.98
101274.94
101277.8
101280.57
101283.23
101285.8
101288.29
101290.68
101292.98
101295.2
101297.33
101299.39
101301.36
101303.26
101305.09
101306.85
101308.53
101310.15
101311.71
101313.2
101314.63
101316
101317.31
101318.57
101319.77
101320.92
101322.02
101323.07
101324.07
101325.02
101325.92
101326.77
101327.58
101328.34
101329.05
101329.7
101330.3
101330.85
101331.34
101331.76
101332.12
101332.41
101332.62
101332.77
101332.82
100755.14
100766.95
100778.9
100791.04
100803.36
100815.84
100828.46
100841.21
100854.07
100867.03
100880.07
100893.18
100906.34
100919.53
100932.73
100945.93
100959.12
100972.27
100985.37
100998.4
101011.35
101024.19
101036.91
101049.49
101061.92
101074.17
101086.23
101098.07
101109.68
101121.03
101132.09
101142.85
101153.28
101163.35
101173.03
101182.29
101191.12
101199.47
101207.34
101214.68
101221.48
101227.71
101233.37
101238.42
101242.88
101246.75
101250.03
101252.76
101254.96
101256.7
101258.05
101259.09
101259.91
101260.6
101261.28
101262.06
101263.1
101264.72
101267.06
101269.66
101272.55
101275.43
101278.22
101280.91
101283.51
101286.03
101288.46
101290.8
101293.05
101295.22
101297.32
101299.34
101301.28
101303.15
101304.95
101306.68
101308.34
101309.94
101311.48
101312.95
101314.36
101315.72
101317.02
101318.26
101319.46
101320.6
101321.69
101322.73
101323.72
101324.66
101325.56
101326.41
101327.21
101327.96
101328.66
101329.32
101329.91
101330.46
101330.94
101331.36
101331.72
101332.01
101332.22
101332.37
101332.41
100770.2
100781.71
100793.34
100805.16
100817.15
100829.29
100841.57
100853.97
100866.49
100879.1
100891.8
100904.56
100917.36
100930.2
100943.06
100955.91
100968.75
100981.56
100994.32
101007.01
101019.62
101032.14
101044.53
101056.8
101068.91
101080.86
101092.62
101104.17
101115.49
101126.56
101137.36
101147.86
101158.03
101167.86
101177.31
101186.36
101194.98
101203.14
101210.82
101217.99
101224.63
101230.72
101236.23
101241.17
101245.51
101249.27
101252.46
101255.09
101257.21
101258.86
101260.12
101261.07
101261.8
101262.38
101262.95
101263.6
101264.48
101265.85
101267.99
101270.43
101273.14
101275.94
101278.65
101281.28
101283.81
101286.27
101288.64
101290.93
101293.13
101295.26
101297.32
101299.3
101301.2
101303.04
101304.81
101306.52
101308.16
101309.73
101311.25
101312.7
101314.1
101315.44
101316.73
101317.96
101319.14
101320.27
101321.35
101322.38
101323.36
101324.3
101325.19
101326.04
101326.83
101327.58
101328.28
101328.93
101329.52
101330.06
101330.54
101330.96
101331.31
101331.6
101331.81
101331.96
101332
100785
100796.21
100807.54
100819.06
100830.73
100842.56
100854.51
100866.59
100878.77
100891.05
100903.41
100915.83
100928.29
100940.79
100953.31
100965.82
100978.32
100990.8
101003.22
101015.58
101027.87
101040.06
101052.14
101064.09
101075.89
101087.53
101099
101110.26
101121.3
101132.09
101142.62
101152.87
101162.8
101172.39
101181.61
101190.44
101198.85
101206.82
101214.31
101221.31
101227.79
101233.72
101239.1
101243.91
101248.14
101251.79
101254.88
101257.42
101259.45
101261.02
101262.2
101263.06
101263.7
101264.19
101264.64
101265.17
101265.9
101267.04
101268.93
101271.25
101273.77
101276.47
101279.11
101281.66
101284.13
101286.52
101288.83
101291.07
101293.23
101295.31
101297.32
101299.27
101301.14
101302.94
101304.68
101306.36
101307.97
101309.53
101311.02
101312.46
101313.84
101315.16
101316.43
101317.65
101318.82
101319.94
101321.01
101322.03
101323.01
101323.94
101324.82
101325.66
101326.45
101327.19
101327.89
101328.53
101329.12
101329.66
101330.13
101330.55
101330.9
101331.19
101331.4
101331.54
101331.58
100799.5
100810.44
100821.49
100832.71
100844.09
100855.61
100867.26
100879.02
100890.89
100902.84
100914.87
100926.96
100939.1
100951.27
100963.45
100975.64
100987.81
100999.96
101012.05
101024.09
101036.06
101047.93
101059.7
101071.34
101082.84
101094.18
101105.35
101116.33
101127.09
101137.61
101147.88
101157.87
101167.55
101176.91
101185.9
101194.51
101202.72
101210.49
101217.8
101224.63
101230.94
101236.73
101241.97
101246.65
101250.76
101254.31
101257.3
101259.75
101261.69
101263.18
101264.28
101265.06
101265.6
101266
101266.35
101266.76
101267.35
101268.29
101269.91
101272.12
101274.44
101277.03
101279.58
101282.06
101284.46
101286.79
101289.04
101291.22
101293.33
101295.37
101297.34
101299.24
101301.07
101302.85
101304.56
101306.2
101307.79
101309.32
101310.79
101312.21
101313.57
101314.88
101316.14
101317.34
101318.5
101319.61
101320.67
101321.68
101322.65
101323.57
101324.45
101325.28
101326.06
101326.8
101327.49
101328.13
101328.72
101329.25
101329.72
101330.14
101330.49
101330.77
101330.98
101331.12
101331.16
100813.68
100824.36
100835.15
100846.1
100857.2
100868.43
100879.78
100891.25
100902.81
100914.45
100926.17
100937.94
100949.76
100961.61
100973.47
100985.34
100997.19
101009.02
101020.8
101032.52
101044.17
101055.73
101067.19
101078.53
101089.74
101100.79
101111.67
101122.37
101132.85
101143.11
101153.12
101162.85
101172.29
101181.41
101190.18
101198.57
101206.57
101214.15
101221.28
101227.93
101234.08
101239.72
101244.82
101249.37
101253.37
101256.81
101259.7
101262.06
101263.93
101265.33
101266.35
101267.05
101267.51
101267.82
101268.07
101268.37
101268.83
101269.6
101270.94
101273.02
101275.18
101277.61
101280.08
101282.48
101284.82
101287.08
101289.27
101291.39
101293.45
101295.44
101297.36
101299.22
101301.02
101302.75
101304.43
101306.05
101307.61
101309.12
101310.57
101311.96
101313.31
101314.6
101315.84
101317.03
101318.18
101319.27
101320.32
101321.33
101322.29
101323.2
101324.07
101324.9
101325.68
101326.41
101327.09
101327.73
101328.31
101328.84
101329.31
101329.72
101330.06
101330.35
101330.55
101330.7
101330.74
100827.51
100837.96
100848.5
100859.2
100870.03
100880.99
100892.06
100903.24
100914.5
100925.85
100937.27
100948.74
100960.25
100971.79
100983.34
100994.9
101006.44
101017.96
101029.43
101040.84
101052.19
101063.45
101074.61
101085.66
101096.57
101107.33
101117.94
101128.35
101138.57
101148.56
101158.32
101167.8
101177
101185.88
101194.43
101202.61
101210.41
101217.79
101224.73
101231.21
101237.21
101242.7
101247.66
101252.08
101255.96
101259.3
101262.09
101264.37
101266.14
101267.47
101268.41
101269.03
101269.42
101269.64
101269.8
101269.99
101270.34
101270.94
101272.04
101273.92
101275.98
101278.22
101280.6
101282.92
101285.18
101287.38
101289.5
101291.57
101293.57
101295.51
101297.39
101299.21
101300.97
101302.67
101304.31
101305.9
101307.44
101308.92
101310.34
101311.72
101313.04
101314.32
101315.54
101316.72
101317.85
101318.94
101319.98
101320.97
101321.92
101322.83
101323.69
101324.51
101325.28
101326.01
101326.69
101327.32
101327.89
101328.42
101328.89
101329.29
101329.64
101329.92
101330.12
101330.26
101330.31
100840.98
100851.2
100861.52
100871.97
100882.56
100893.26
100904.06
100914.96
100925.95
100937.02
100948.15
100959.32
100970.54
100981.78
100993.04
101004.3
101015.54
101026.75
101037.92
101049.04
101060.09
101071.06
101081.93
101092.69
101103.31
101113.8
101124.13
101134.27
101144.23
101153.96
101163.46
101172.7
101181.66
101190.32
101198.65
101206.62
101214.21
101221.4
101228.16
101234.47
101240.3
101245.64
101250.47
101254.76
101258.53
101261.76
101264.46
101266.65
101268.35
101269.6
101270.46
101271.01
101271.32
101271.46
101271.53
101271.63
101271.86
101272.33
101273.2
101274.83
101276.83
101278.86
101281.13
101283.38
101285.56
101287.69
101289.75
101291.76
101293.71
101295.6
101297.43
101299.2
101300.92
101302.59
101304.2
101305.76
101307.26
101308.72
101310.12
101311.47
101312.78
101314.04
101315.25
101316.41
101317.53
101318.6
101319.63
101320.61
101321.56
101322.45
101323.31
101324.12
101324.88
101325.6
101326.28
101326.9
101327.48
101328
101328.46
101328.86
101329.21
101329.48
101329.69
101329.83
101329.87
100854.04
100864.07
100874.17
100884.4
100894.75
100905.2
100915.76
100926.4
100937.13
100947.92
100958.77
100969.67
100980.61
100991.57
101002.53
101013.5
101024.45
101035.38
101046.26
101057.09
101067.86
101078.54
101089.12
101099.6
101109.95
101120.17
101130.22
101140.11
101149.8
101159.29
101168.54
101177.54
101186.27
101194.7
101202.81
101210.57
101217.96
101224.96
101231.55
101237.69
101243.36
101248.55
101253.24
101257.42
101261.07
101264.19
101266.8
101268.9
101270.52
101271.7
101272.5
101272.97
101273.21
101273.28
101273.27
101273.27
101273.39
101273.73
101274.42
101275.77
101277.7
101279.55
101281.69
101283.85
101285.96
101288.02
101290.02
101291.96
101293.86
101295.69
101297.48
101299.21
101300.89
101302.51
101304.09
101305.61
101307.09
101308.52
101309.9
101311.23
101312.52
101313.75
101314.95
101316.1
101317.2
101318.26
101319.28
101320.25
101321.18
101322.07
101322.92
101323.72
101324.48
101325.2
101325.86
101326.48
101327.05
101327.57
101328.03
101328.43
101328.77
101329.04
101329.25
101329.38
101329.43
100866.69
100876.52
100886.42
100896.45
100906.58
100916.8
100927.12
100937.52
100948
100958.54
100969.13
100979.76
100990.42
101001.11
101011.8
101022.49
101033.17
101043.81
101054.42
101064.97
101075.46
101085.86
101096.18
101106.38
101116.47
101126.42
101136.21
101145.84
101155.28
101164.52
101173.54
101182.3
101190.8
101199.01
101206.91
101214.47
101221.67
101228.48
101234.88
101240.86
101246.38
101251.42
101255.98
101260.03
101263.57
101266.59
101269.11
101271.13
101272.67
101273.78
101274.51
101274.92
101275.08
101275.08
101274.99
101274.91
101274.93
101275.15
101275.67
101276.76
101278.56
101280.31
101282.27
101284.34
101286.38
101288.36
101290.29
101292.18
101294.01
101295.8
101297.53
101299.21
101300.85
101302.44
101303.98
101305.47
101306.92
101308.32
101309.68
101310.99
101312.25
101313.47
101314.65
101315.78
101316.87
101317.92
101318.92
101319.89
101320.81
101321.69
101322.53
101323.32
101324.08
101324.78
101325.45
101326.06
101326.62
101327.14
101327.59
101327.99
101328.33
101328.6
101328.8
101328.94
101328.98
100878.89
100888.55
100898.27
100908.09
100918.02
100928.03
100938.13
100948.3
100958.54
100968.83
100979.18
100989.56
100999.96
101010.39
101020.82
101031.24
101041.65
101052.03
101062.37
101072.65
101082.87
101093.01
101103.06
101113.01
101122.84
101132.53
101142.07
101151.45
101160.65
101169.65
101178.43
101186.97
101195.25
101203.25
101210.93
101218.29
101225.3
101231.93
101238.16
101243.97
101249.34
101254.24
101258.66
101262.59
101266.02
101268.95
101271.37
101273.31
101274.79
101275.83
101276.49
101276.84
101276.94
101276.87
101276.71
101276.55
101276.47
101276.57
101276.96
101277.81
101279.4
101281.14
101282.88
101284.85
101286.81
101288.72
101290.58
101292.4
101294.18
101295.91
101297.59
101299.23
101300.82
101302.37
101303.88
101305.34
101306.76
101308.13
101309.46
101310.74
101311.99
101313.19
101314.35
101315.46
101316.54
101317.57
101318.57
101319.52
101320.43
101321.3
101322.13
101322.92
101323.67
101324.37
101325.02
101325.63
101326.19
101326.7
101327.15
101327.54
101327.88
101328.15
101328.35
101328.48
101328.52
100890.6
100900.11
100909.66
100919.3
100929.04
100938.86
100948.75
100958.7
100968.72
100978.79
100988.89
100999.04
101009.2
101019.38
101029.56
101039.73
101049.88
101060.01
101070.09
101080.12
101090.08
101099.97
101109.77
101119.46
101129.04
101138.49
101147.79
101156.93
101165.89
101174.66
101183.21
101191.53
101199.6
101207.38
101214.87
101222.03
101228.85
101235.3
101241.36
101247.02
101252.23
101257
101261.29
101265.1
101268.43
101271.25
101273.59
101275.46
101276.86
101277.84
101278.44
101278.73
101278.77
101278.64
101278.41
101278.17
101278.01
101278.01
101278.27
101278.92
101280.25
101281.99
101283.53
101285.38
101287.25
101289.09
101290.88
101292.64
101294.35
101296.03
101297.66
101299.25
101300.8
101302.31
101303.78
101305.21
101306.59
101307.94
101309.24
101310.5
101311.72
101312.91
101314.05
101315.15
101316.21
101317.23
101318.21
101319.15
101320.05
101320.91
101321.73
101322.51
101323.25
101323.95
101324.6
101325.2
101325.75
101326.26
101326.7
101327.09
101327.42
101327.69
101327.89
101328.02
101328.06
100901.81
100911.18
100920.58
100930.06
100939.63
100949.26
100958.95
100968.71
100978.51
100988.37
100998.26
101008.17
101018.1
101028.05
101037.99
101047.92
101057.84
101067.72
101077.56
101087.34
101097.06
101106.71
101116.26
101125.72
101135.06
101144.27
101153.33
101162.25
101170.98
101179.53
101187.86
101195.97
101203.82
101211.41
101218.7
101225.67
101232.31
101238.59
101244.49
101249.98
101255.06
101259.69
101263.86
101267.55
101270.77
101273.51
101275.76
101277.55
101278.89
101279.81
101280.36
101280.59
101280.57
101280.38
101280.1
101279.79
101279.54
101279.44
101279.59
101280.07
101281.13
101282.81
101284.23
101285.93
101287.71
101289.47
101291.19
101292.88
101294.54
101296.15
101297.73
101299.28
101300.78
101302.25
101303.68
101305.08
101306.43
101307.75
101309.02
101310.26
101311.46
101312.62
101313.74
101314.83
101315.87
101316.88
101317.85
101318.78
101319.67
101320.52
101321.33
101322.1
101322.83
101323.52
101324.16
101324.76
101325.31
101325.81
101326.25
101326.64
101326.96
101327.23
101327.42
101327.56
101327.6
100912.5
100921.74
100931
100940.33
100949.73
100959.2
100968.72
100978.29
100987.9
100997.55
101007.23
101016.94
101026.65
101036.38
101046.1
101055.8
101065.49
101075.14
101084.75
101094.3
101103.79
101113.21
101122.53
101131.75
101140.87
101149.85
101158.7
101167.39
101175.9
101184.24
101192.36
101200.26
101207.92
101215.31
101222.41
101229.21
101235.67
101241.78
101247.52
101252.87
101257.8
101262.3
101266.35
101269.93
101273.05
101275.7
101277.88
101279.6
101280.87
101281.73
101282.23
101282.41
101282.35
101282.1
101281.76
101281.38
101281.06
101280.88
101280.91
101281.25
101282.06
101283.58
101285.03
101286.5
101288.18
101289.86
101291.51
101293.14
101294.73
101296.29
101297.82
101299.31
101300.77
101302.2
101303.59
101304.95
101306.27
101307.56
101308.81
101310.02
101311.2
101312.34
101313.44
101314.51
101315.54
101316.53
101317.48
101318.4
101319.28
101320.12
101320.93
101321.69
101322.41
101323.09
101323.73
101324.32
101324.86
101325.35
101325.79
101326.18
101326.5
101326.76
101326.96
101327.09
101327.13
100922.64
100931.76
100940.89
100950.09
100959.35
100968.65
100978.01
100987.41
100996.84
101006.31
101015.8
101025.31
101034.82
101044.34
101053.85
101063.35
101072.82
101082.25
101091.64
101100.98
101110.25
101119.44
101128.55
101137.55
101146.45
101155.22
101163.85
101172.33
101180.65
101188.77
101196.7
101204.4
101211.87
101219.07
101225.99
101232.61
101238.91
101244.86
101250.45
101255.65
101260.45
101264.82
101268.75
101272.24
101275.26
101277.82
101279.92
101281.58
101282.79
101283.61
101284.06
101284.2
101284.08
101283.79
101283.39
101282.96
101282.57
101282.3
101282.23
101282.44
101283.05
101284.33
101285.86
101287.1
101288.67
101290.27
101291.85
101293.4
101294.93
101296.43
101297.9
101299.35
101300.76
101302.15
101303.5
101304.82
101306.11
101307.37
101308.59
101309.78
101310.93
101312.05
101313.14
101314.18
101315.2
101316.18
101317.12
101318.02
101318.89
101319.72
101320.52
101321.27
101321.98
101322.66
101323.29
101323.87
101324.41
101324.9
101325.33
101325.71
101326.03
101326.29
101326.48
101326.61
101326.65
100932.21
100941.22
100950.24
100959.31
100968.44
100977.61
100986.81
100996.05
101005.32
101014.62
101023.93
101033.25
101042.58
101051.91
101061.23
101070.52
101079.79
101089.02
101098.21
101107.34
101116.41
101125.39
101134.29
101143.1
101151.79
101160.36
101168.79
101177.07
101185.18
101193.12
101200.85
101208.37
101215.66
101222.68
101229.43
101235.89
101242.02
101247.82
101253.26
101258.32
101262.99
101267.25
101271.07
101274.45
101277.38
101279.87
101281.9
101283.49
101284.66
101285.42
101285.83
101285.93
101285.78
101285.44
101284.99
101284.5
101284.05
101283.71
101283.55
101283.64
101284.08
101285.11
101286.63
101287.75
101289.17
101290.68
101292.19
101293.67
101295.14
101296.58
101298
101299.39
101300.76
101302.1
101303.42
101304.7
101305.96
101307.18
101308.37
101309.54
101310.67
101311.76
101312.83
101313.86
101314.86
101315.82
101316.75
101317.64
101318.5
101319.32
101320.1
101320.85
101321.55
101322.22
101322.84
101323.42
101323.95
101324.43
101324.86
101325.24
101325.56
101325.81
101326
101326.13
101326.17
100941.17
100950.09
100959.01
100967.98
100976.99
100986.03
100995.1
101004.19
101013.31
101022.45
101031.6
101040.76
101049.92
101059.07
101068.2
101077.31
101086.4
101095.44
101104.44
101113.38
101122.25
101131.04
101139.75
101148.36
101156.86
101165.24
101173.48
101181.58
101189.51
101197.26
101204.81
101212.16
101219.27
101226.13
101232.71
101239.01
101244.99
101250.65
101255.95
101260.88
101265.43
101269.57
101273.29
101276.58
101279.42
101281.83
101283.8
101285.33
101286.45
101287.18
101287.55
101287.61
101287.42
101287.05
101286.56
101286.02
101285.51
101285.1
101284.85
101284.84
101285.15
101285.92
101287.32
101288.5
101289.7
101291.11
101292.54
101293.95
101295.35
101296.74
101298.1
101299.44
101300.76
101302.06
101303.33
101304.58
101305.8
101306.99
101308.16
101309.3
101310.4
101311.48
101312.52
101313.53
101314.51
101315.46
101316.38
101317.26