/*--------------------------------*- C++ -*----------------------------------*\
| =========                 |                                                 |
| \\      /  F ield         | OpenFOAM: The Open Source CFD Toolbox           |
|  \\    /   O peration     | Version:  2406                                  |
|   \\  /    A nd           | Website:  www.openfoam.com                      |
|    \\/     M anipulation  |                                                 |
\*---------------------------------------------------------------------------*/
FoamFile
{
    version     2.0;
    format      ascii;
    arch        "LSB;label=32;scalar=64";
    class       volScalarField;
    location    "0.006";
    object      T;
}
// * * * * * * * * * * * * * * * * * * * * * * * * * * * * * * * * * * * * * //

dimensions      [0 0 0 1 0 0 0];

internalField   nonuniform List<scalar> 
23204
(
293.03638
293.03698
293.03745
293.03777
293.03794
293.01942
293.02113
293.0228
293.02441
293.02598
293.02748
293.02892
293.03028
293.03155
293.03273
293.0338
293.03476
293.0356
293.03633
293.03693
293.03739
293.03771
293.03789
292.97862
292.98133
292.98394
292.98646
292.98886
292.9912
292.99351
292.99576
292.99795
293.00009
293.00219
293.00425
293.00627
293.00825
293.01021
293.01213
293.01401
293.01585
293.01765
293.0194
293.0211
293.02276
293.02438
293.02594
293.02744
293.02887
293.03023
293.0315
293.03268
293.03374
293.0347
293.03554
293.03627
293.03687
293.03734
293.03765
293.03783
292.81682
292.82448
292.83193
292.83917
292.84621
292.85304
292.85968
292.86613
292.87239
292.87847
292.88436
292.89008
292.89562
292.90099
292.9062
292.91126
292.91618
292.92096
292.92558
292.93006
292.93439
292.93857
292.9426
292.94649
292.95025
292.95388
292.95739
292.96077
292.96404
292.9672
292.97024
292.9732
292.97605
292.9788
292.98148
292.98406
292.98657
292.98896
292.9913
292.99359
292.99582
292.99801
293.00014
293.00223
293.00427
293.00629
293.00827
293.01022
293.01213
293.01401
293.01584
293.01763
293.01938
293.02108
293.02273
293.02434
293.0259
293.0274
293.02883
293.03018
293.03145
293.03263
293.03369
293.03465
293.03549
293.03622
293.03681
293.03728
293.0376
293.03777
292.43142
292.44433
292.4583
292.47302
292.48815
292.50343
292.51861
292.53354
292.5481
292.56224
292.57594
292.5892
292.60205
292.61453
292.62666
292.63847
292.64999
292.66125
292.67225
292.68302
292.69357
292.70389
292.71401
292.72391
292.73361
292.7431
292.75239
292.76146
292.77034
292.77901
292.78749
292.79577
292.80385
292.81173
292.81941
292.82691
292.8342
292.84129
292.84819
292.85489
292.86141
292.86774
292.8739
292.87987
292.88567
292.8913
292.89675
292.90203
292.90717
292.91216
292.91701
292.92172
292.92629
292.93071
292.93498
292.93911
292.9431
292.94695
292.95068
292.95427
292.95774
292.9611
292.96434
292.96747
292.97049
292.97342
292.97625
292.97898
292.98163
292.98419
292.9867
292.9891
292.99141
292.99369
292.9959
292.99807
293.00019
293.00227
293.00431
293.00632
293.00829
293.01023
293.01214
293.01401
293.01584
293.01762
293.01936
293.02106
293.02271
293.02431
293.02587
293.02736
293.02879
293.03014
293.03141
293.03258
293.03364
293.0346
293.03544
293.03616
293.03676
293.03723
293.03754
293.03772
292.44771
292.46005
292.47343
292.48752
292.50203
292.51668
292.53125
292.54558
292.55956
292.57314
292.58631
292.59906
292.61143
292.62345
292.63513
292.64652
292.65764
292.66851
292.67914
292.68955
292.69975
292.70975
292.71955
292.72915
292.73856
292.74778
292.75679
292.76562
292.77425
292.7827
292.79095
292.79902
292.80691
292.8146
292.82211
292.82943
292.83656
292.8435
292.85025
292.85682
292.86321
292.86943
292.87547
292.88134
292.88704
292.89257
292.89793
292.90313
292.90819
292.9131
292.91789
292.92253
292.92703
292.93139
292.93562
292.93969
292.94363
292.94744
292.95113
292.95468
292.95812
292.96145
292.96466
292.96776
292.97076
292.97366
292.97647
292.97917
292.98179
292.98434
292.98684
292.98923
292.99153
292.99379
292.99598
292.99814
293.00026
293.00233
293.00435
293.00635
293.00832
293.01025
293.01215
293.01401
293.01584
293.01761
293.01935
293.02104
293.02269
293.02429
293.02584
293.02733
293.02875
293.0301
293.03136
293.03253
293.03359
293.03455
293.03539
293.03611
293.03671
293.03717
293.03749
293.03767
292.46434
292.4761
292.48888
292.50235
292.51622
292.53023
292.54418
292.5579
292.57129
292.58431
292.59693
292.60917
292.62105
292.63259
292.64383
292.65479
292.6655
292.67597
292.68622
292.69627
292.70612
292.71579
292.72526
292.73456
292.74367
292.7526
292.76135
292.76992
292.7783
292.78651
292.79454
292.8024
292.81008
292.81758
292.82491
292.83206
292.83902
292.8458
292.85241
292.85883
292.86509
292.87118
292.87711
292.88287
292.88847
292.8939
292.89917
292.90428
292.90925
292.91409
292.9188
292.92338
292.92782
292.93212
292.93628
292.94031
292.9442
292.94796
292.9516
292.95512
292.95852
292.96181
292.965
292.96807
292.97104
292.97391
292.9767
292.97938
292.98198
292.9845
292.98698
292.98936
292.99166
292.9939
292.99607
292.99822
293.00033
293.00239
293.00441
293.00639
293.00835
293.01028
293.01217
293.01403
293.01584
293.01761
293.01934
293.02103
293.02267
293.02427
293.02581
293.0273
293.02872
293.03006
293.03132
293.03249
293.03355
293.0345
293.03534
293.03606
293.03666
293.03712
293.03744
293.03762
292.48128
292.49246
292.50462
292.51746
292.53069
292.54406
292.55738
292.57048
292.58328
292.59572
292.6078
292.61952
292.6309
292.64197
292.65275
292.66327
292.67356
292.68363
292.6935
292.70317
292.71267
292.72199
292.73114
292.74012
292.74893
292.75758
292.76605
292.77435
292.78249
292.79046
292.79826
292.8059
292.81337
292.82068
292.82781
292.83478
292.84158
292.8482
292.85464
292.86093
292.86705
292.87302
292.87882
292.88447
292.88996
292.89529
292.90046
292.90548
292.91037
292.91513
292.91976
292.92427
292.92864
292.93288
292.93698
292.94095
292.94479
292.94851
292.95211
292.95559
292.95895
292.9622
292.96536
292.9684
292.97134
292.97419
292.97694
292.97961
292.98218
292.98469
292.98713
292.98952
292.99182
292.99402
292.99617
292.99832
293.00041
293.00246
293.00447
293.00644
293.00839
293.01031
293.01219
293.01404
293.01585
293.01762
293.01934
293.02102
293.02266
293.02425
293.02579
293.02727
293.02868
293.03003
293.03128
293.03245
293.03351
293.03446
293.0353
293.03602
293.03661
293.03708
293.03739
293.03757
292.48916
292.4985
292.5091
292.52064
292.53284
292.54543
292.55815
292.57082
292.58331
292.59551
292.60738
292.6189
292.63009
292.64097
292.65155
292.66187
292.67195
292.68182
292.69148
292.70096
292.71026
292.71939
292.72837
292.73719
292.74585
292.75435
292.7627
292.77089
292.77892
292.7868
292.79453
292.80209
292.80951
292.81677
292.82388
292.83082
292.8376
292.84422
292.85068
292.85697
292.8631
292.86909
292.87492
292.88061
292.88614
292.89151
292.89674
292.90181
292.90674
292.91154
292.91622
292.92077
292.9252
292.92951
292.93368
292.93772
292.94163
292.94542
292.94909
292.95264
292.95607
292.9594
292.96262
292.96573
292.96875
292.97166
292.97448
292.9772
292.97985
292.9824
292.98489
292.9873
292.98967
292.99197
292.99414
292.99629
292.99842
293.0005
293.00254
293.00453
293.0065
293.00844
293.01035
293.01223
293.01407
293.01587
293.01763
293.01934
293.02102
293.02265
293.02423
293.02577
293.02724
293.02866
293.02999
293.03125
293.03241
293.03347
293.03442
293.03525
293.03597
293.03657
293.03703
293.03735
293.03753
292.50717
292.51597
292.52598
292.53691
292.54847
292.5604
292.57247
292.58451
292.59636
292.60796
292.61925
292.63022
292.64088
292.65124
292.66134
292.6712
292.68083
292.69026
292.69951
292.70859
292.71752
292.72629
292.73491
292.74339
292.75172
292.75992
292.76797
292.77587
292.78363
292.79125
292.79872
292.80605
292.81324
292.82028
292.82718
292.83393
292.84052
292.84697
292.85325
292.85938
292.86536
292.8712
292.8769
292.88246
292.88787
292.89313
292.89825
292.90322
292.90805
292.91276
292.91735
292.92182
292.92617
292.93041
292.93451
292.93849
292.94235
292.94608
292.9497
292.9532
292.95659
292.95987
292.96305
292.96613
292.96911
292.97199
292.97478
292.97748
292.9801
292.98264
292.9851
292.9875
292.98983
292.99212
292.9943
292.99642
292.99853
293.0006
293.00262
293.00461
293.00656
293.00849
293.01039
293.01226
293.0141
293.01589
293.01764
293.01935
293.02102
293.02265
293.02422
293.02575
293.02722
293.02863
293.02996
293.03122
293.03237
293.03343
293.03438
293.03521
293.03593
293.03652
293.03699
293.0373
293.03748
292.5254
292.53365
292.54308
292.55339
292.56431
292.57559
292.58701
292.5984
292.60963
292.62062
292.63133
292.64174
292.65186
292.66172
292.67132
292.68071
292.68989
292.69889
292.70773
292.71641
292.72494
292.73334
292.74161
292.74974
292.75775
292.76563
292.77337
292.78099
292.78847
292.79582
292.80304
292.81012
292.81708
292.8239
292.83059
292.83714
292.84354
292.8498
292.85591
292.86188
292.86771
292.8734
292.87896
292.88438
292.88967
292.89481
292.89982
292.90469
292.90942
292.91403
292.91853
292.92292
292.92719
292.93135
292.93538
292.9393
292.94309
292.94677
292.95034
292.95379
292.95713
292.96037
292.96351
292.96656
292.9695
292.97235
292.97511
292.97778
292.98038
292.98289
292.98533
292.9877
292.99001
292.99228
292.99445
292.99657
292.99865
293.0007
293.00272
293.00469
293.00664
293.00856
293.01045
293.01231
293.01414
293.01592
293.01767
293.01937
293.02103
293.02265
293.02422
293.02574
293.02721
293.02861
293.02994
293.03119
293.03234
293.03339
293.03434
293.03517
293.03589
293.03648
293.03694
293.03726
293.03744
292.54382
292.55153
292.56036
292.57005
292.58034
292.59097
292.60174
292.61249
292.62309
292.63347
292.6436
292.65345
292.66303
292.67237
292.68149
292.6904
292.69913
292.70769
292.71611
292.72438
292.73253
292.74055
292.74846
292.75625
292.76392
292.77148
292.77892
292.78624
292.79343
292.80051
292.80747
292.81431
292.82103
292.82763
292.8341
292.84045
292.84665
292.85273
292.85866
292.86446
292.87013
292.87567
292.88108
292.88637
292.89153
292.89656
292.90145
292.90621
292.91084
292.91536
292.91976
292.92406
292.92825
292.93233
292.9363
292.94014
292.94388
292.94749
292.951
292.95441
292.9577
292.9609
292.96399
292.967
292.96991
292.97272
292.97545
292.97809
292.98066
292.98316
292.98557
292.98791
292.99021
292.99245
292.99462
292.99672
292.99878
293.00082
293.00282
293.00479
293.00672
293.00863
293.01051
293.01236
293.01418
293.01596
293.01769
293.01939
293.02104
293.02265
293.02422
293.02574
293.0272
293.02859
293.02992
293.03116
293.03231
293.03336
293.03431
293.03514
293.03585
293.03644
293.0369
293.03722
293.0374
292.56239
292.56956
292.57781
292.58688
292.59653
292.60651
292.61663
292.62674
292.63672
292.6465
292.65604
292.66533
292.67438
292.6832
292.69182
292.70026
292.70853
292.71665
292.72465
292.73251
292.74027
292.74792
292.75546
292.7629
292.77024
292.77747
292.78459
292.79161
292.79853
292.80533
292.81203
292.81862
292.8251
292.83147
292.83772
292.84385
292.84986
292.85574
292.8615
292.86713
292.87263
292.87802
292.88329
292.88844
292.89346
292.89837
292.90314
292.90779
292.91232
292.91673
292.92104
292.92525
292.92935
292.93335
292.93725
292.94102
292.94469
292.94825
292.9517
292.95505
292.9583
292.96145
292.9645
292.96747
292.97034
292.97312
292.97581
292.97842
292.98097
292.98344
292.98582
292.98815
292.99042
292.99264
292.9948
292.99689
292.99892
293.00095
293.00293
293.00489
293.00681
293.0087
293.01058
293.01242
293.01423
293.016
293.01773
293.01941
293.02106
293.02266
293.02422
293.02573
293.02719
293.02858
293.0299
293.03114
293.03228
293.03333
293.03427
293.0351
293.03582
293.03641
293.03687
293.03718
293.03736
292.58108
292.5877
292.59538
292.60384
292.61285
292.62219
292.63167
292.64114
292.6505
292.65967
292.66863
292.67736
292.68587
292.69418
292.70231
292.71027
292.71808
292.72577
292.73334
292.7408
292.74816
292.75542
292.7626
292.76969
292.77668
292.78359
292.7904
292.79712
292.80374
292.81027
292.8167
292.82303
292.82927
292.8354
292.84143
292.84735
292.85316
292.85885
292.86442
292.86988
292.87522
292.88044
292.88556
292.89057
292.89546
292.90024
292.90489
292.90942
292.91384
292.91816
292.92237
292.92648
292.9305
292.93442
292.93823
292.94194
292.94554
292.94904
292.95244
292.95573
292.95893
292.96203
292.96504
292.96796
292.97079
292.97353
292.9762
292.97878
292.98129
292.98374
292.9861
292.9884
292.99065
292.99283
292.99499
292.99707
292.99908
293.00109
293.00306
293.005
293.00691
293.00879
293.01065
293.01248
293.01428
293.01604
293.01777
293.01944
293.02108
293.02268
293.02423
293.02573
293.02718
293.02857
293.02988
293.03112
293.03226
293.03331
293.03425
293.03507
293.03578
293.03637
293.03683
293.03714
293.03732
292.59985
292.60594
292.61304
292.6209
292.62928
292.63799
292.64683
292.65567
292.66441
292.67298
292.68136
292.68954
292.69751
292.70531
292.71294
292.72042
292.72778
292.73502
292.74217
292.74922
292.75618
292.76307
292.76987
292.7766
292.78326
292.78983
292.79633
292.80274
292.80907
292.81531
292.82148
292.82755
292.83354
292.83944
292.84525
292.85095
292.85655
292.86204
292.86743
292.87271
292.87788
292.88295
292.88791
292.89277
292.89753
292.90217
292.9067
292.91112
292.91543
292.91963
292.92374
292.92776
292.93169
292.93553
292.93926
292.9429
292.94643
292.94987
292.9532
292.95644
292.95958
292.96263
292.9656
292.96847
292.97127
292.97397
292.9766
292.97915
292.98163
292.98405
292.98639
292.98866
292.99088
292.99304
292.99518
292.99725
292.99924
293.00123
293.00319
293.00511
293.00701
293.00888
293.01073
293.01256
293.01435
293.0161
293.01781
293.01948
293.02111
293.0227
293.02424
293.02574
293.02718
293.02856
293.02987
293.0311
293.03224
293.03328
293.03422
293.03504
293.03575
293.03634
293.0368
293.03711
293.03729
292.61866
292.62423
292.63076
292.63802
292.64579
292.65387
292.66208
292.6703
292.67842
292.6864
292.69421
292.70183
292.70928
292.71656
292.7237
292.73071
292.73761
292.74441
292.75112
292.75776
292.76433
292.77083
292.77727
292.78364
292.78995
292.7962
292.80237
292.80848
292.81451
292.82047
292.82636
292.83218
292.83792
292.84358
292.84916
292.85464
292.86003
292.86533
292.87052
292.87562
292.88062
292.88552
292.89033
292.89504
292.89966
292.90417
292.90857
292.91287
292.91706
292.92116
292.92517
292.92909
292.93293
292.93668
292.94033
292.94389
292.94736
292.95072
292.954
292.95718
292.96027
292.96327
292.96618
292.96901
292.97176
292.97443
292.97702
292.97954
292.98199
292.98438
292.98669
292.98894
292.99114
292.99327
292.99538
292.99744
292.99944
293.00139
293.00333
293.00524
293.00713
293.00899
293.01082
293.01263
293.01441
293.01616
293.01786
293.01952
293.02114
293.02272
293.02426
293.02575
293.02718
293.02856
293.02986
293.03109
293.03222
293.03326
293.0342
293.03502
293.03573
293.03631
293.03677
293.03708
293.03726
292.63748
292.64254
292.64852
292.65519
292.66235
292.66981
292.6774
292.685
292.69252
292.69992
292.70716
292.71423
292.72115
292.72792
292.73457
292.7411
292.74755
292.75391
292.7602
292.76643
292.7726
292.77872
292.78479
292.7908
292.79676
292.80267
292.80853
292.81432
292.82006
292.82574
292.83135
292.83691
292.8424
292.84781
292.85316
292.85842
292.8636
292.86869
292.8737
292.87861
292.88344
292.88817
292.89282
292.89738
292.90185
292.90623
292.9105
292.91468
292.91876
292.92274
292.92665
292.93047
292.93421
292.93787
292.94145
292.94493
292.94832
292.95162
292.95483
292.95795
292.96098
292.96393
292.96679
292.96958
292.97229
292.97491
292.97747
292.97995
292.98237
292.98473
292.98701
292.98924
292.99141
292.99352
292.99559
292.99765
292.99964
293.00156
293.00348
293.00538
293.00725
293.0091
293.01092
293.01272
293.01449
293.01622
293.01791
293.01957
293.02118
293.02275
293.02428
293.02576
293.02719
293.02856
293.02986
293.03108
293.03221
293.03325
293.03418
293.035
293.0357
293.03629
293.03674
293.03705
293.03723
292.65629
292.66084
292.66627
292.67237
292.67894
292.68578
292.69276
292.69976
292.70669
292.7135
292.72018
292.72671
292.73311
292.73938
292.74554
292.75161
292.7576
292.76352
292.76939
292.77521
292.78098
292.78672
292.79241
292.79807
292.80368
292.80926
292.81479
292.82028
292.82571
292.8311
292.83644
292.84173
292.84697
292.85214
292.85725
292.86229
292.86726
292.87215
292.87695
292.88168
292.88633
292.89089
292.89538
292.89979
292.90411
292.90835
292.91249
292.91654
292.9205
292.92438
292.92817
292.9319
292.93554
292.93911
292.9426
292.946
292.94931
292.95254
292.95569
292.95875
292.96172
292.96462
292.96743
292.97017
292.97283
292.97542
292.97794
292.98039
292.98277
292.98509
292.98735
292.98955
292.99169
292.99378
292.99583
292.99786
292.99984
293.00174
293.00364
293.00552
293.00738
293.00921
293.01103
293.01281
293.01457
293.01629
293.01798
293.01962
293.02122
293.02279
293.02431
293.02578
293.0272
293.02856
293.02985
293.03107
293.0322
293.03323
293.03416
293.03498
293.03568
293.03626
293.03672
293.03702
293.0372
292.67504
292.6791
292.684
292.68954
292.69552
292.70177
292.70815
292.71455
292.72089
292.72714
292.73326
292.73926
292.74514
292.75091
292.75659
292.76219
292.76773
292.77322
292.77867
292.78408
292.78946
292.79481
292.80014
292.80543
292.8107
292.81594
292.82115
292.82633
292.83146
292.83657
292.84163
292.84665
292.85163
292.85656
292.86143
292.86625
292.871
292.87568
292.88029
292.88483
292.88929
292.89369
292.89801
292.90226
292.90644
292.91053
292.91454
292.91846
292.9223
292.92606
292.92975
292.93337
292.93692
292.94039
292.94379
292.94711
292.95035
292.95351
292.95658
292.95958
292.9625
292.96534
292.9681
292.97079
292.97341
292.97595
292.97843
292.98084
292.98319
292.98548
292.9877
292.98987
292.99199
292.99405
292.99608
292.99808
293.00004
293.00194
293.00382
293.00568
293.00752
293.00934
293.01114
293.01291
293.01466
293.01637
293.01804
293.01968
293.02127
293.02282
293.02434
293.0258
293.02721
293.02857
293.02986
293.03107
293.03219
293.03322
293.03414
293.03496
293.03566
293.03624
293.03669
293.037
293.03718
292.69371
292.69729
292.70168
292.70667
292.71207
292.71774
292.72353
292.72934
292.73512
292.7408
292.74639
292.75186
292.75723
292.76251
292.76771
292.77286
292.77795
292.783
292.78803
292.79304
292.79803
292.803
292.80795
292.81289
292.81782
292.82272
292.82761
292.83247
292.83731
292.84212
292.8469
292.85166
292.85638
292.86106
292.8657
292.87029
292.87482
292.87929
292.8837
292.88805
292.89233
292.89655
292.90071
292.9048
292.90882
292.91277
292.91664
292.92044
292.92415
292.9278
292.93138
292.93489
292.93834
292.94172
292.94503
292.94826
292.95142
292.9545
292.95751
292.96044
292.9633
292.96608
292.96879
292.97143
292.974
292.9765
292.97894
292.98131
292.98362
292.98588
292.98807
292.99021
292.9923
292.99434
292.99634
292.99832
293.00026
293.00214
293.004
293.00584
293.00767
293.00947
293.01126
293.01302
293.01475
293.01645
293.01811
293.01974
293.02132
293.02287
293.02437
293.02583
293.02723
293.02858
293.02986
293.03106
293.03218
293.03321
293.03413
293.03494
293.03564
293.03622
293.03667
293.03698
293.03715
292.71228
292.71538
292.71926
292.72371
292.72856
292.73366
292.73888
292.74413
292.74934
292.75448
292.75953
292.76449
292.76936
292.77415
292.77888
292.78357
292.78822
292.79285
292.79747
292.80207
292.80667
292.81126
292.81585
292.82044
292.82502
292.82959
292.83415
292.8387
292.84324
292.84776
292.85226
292.85675
292.86121
292.86564
292.87004
292.8744
292.87872
292.88298
292.88719
292.89134
292.89544
292.89948
292.90347
292.9074
292.91127
292.91507
292.91881
292.92247
292.92606
292.92959
292.93305
292.93646
292.9398
292.94308
292.9463
292.94945
292.95253
292.95554
292.95848
292.96134
292.96413
292.96686
292.96951
292.9721
292.97462
292.97708
292.97947
292.98181
292.98408
292.9863
292.98846
292.99057
292.99263
292.99465
292.99662
292.99857
293.00049
293.00236
293.0042
293.00602
293.00783
293.00962
293.01139
293.01313
293.01485
293.01654
293.01819
293.0198
293.02138
293.02291
293.02441
293.02585
293.02725
293.02859
293.02987
293.03107
293.03218
293.0332
293.03412
293.03493
293.03563
293.0362
293.03665
293.03696
293.03713
292.73068
292.73334
292.73675
292.74068
292.74499
292.74952
292.75418
292.75887
292.76353
292.76814
292.77267
292.77712
292.7815
292.78582
292.7901
292.79434
292.79855
292.80276
292.80696
292.81116
292.81538
292.8196
292.82382
292.82805
292.83229
292.83653
292.84077
292.84501
292.84925
292.85348
292.85771
292.86192
292.86612
292.87031
292.87447
292.8786
292.88269
292.88674
292.89074
292.8947
292.89862
292.90249
292.9063
292.91007
292.91378
292.91744
292.92103
292.92456
292.92802
292.93143
292.93478
292.93807
292.94131
292.9445
292.94762
292.95068
292.95368
292.95661
292.95947
292.96227
292.965
292.96766
292.97026
292.9728
292.97527
292.97768
292.98003
292.98233
292.98456
292.98674
292.98887
292.99094
292.99298
292.99497
292.99691
292.99883
293.00073
293.00258
293.0044
293.0062
293.00799
293.00977
293.01152
293.01325
293.01496
293.01663
293.01827
293.01987
293.02144
293.02296
293.02445
293.02588
293.02727
293.02861
293.02987
293.03107
293.03218
293.0332
293.03411
293.03492
293.03561
293.03619
293.03663
293.03694
293.03711
292.74902
292.75118
292.75408
292.7575
292.76129
292.76528
292.7694
292.77356
292.7777
292.78178
292.7858
292.78976
292.79365
292.7975
292.80132
292.80512
292.80891
292.8127
292.8165
292.82031
292.82414
292.82799
292.83185
292.83573
292.83963
292.84355
292.84747
292.8514
292.85534
292.85928
292.86322
292.86717
292.87111
292.87504
292.87896
292.88286
292.88673
292.89057
292.89437
292.89814
292.90186
292.90555
292.9092
292.9128
292.91635
292.91986
292.9233
292.9267
292.93003
292.93332
292.93655
292.93973
292.94287
292.94595
292.94898
292.95195
292.95487
292.95772
292.96051
292.96323
292.9659
292.9685
292.97104
292.97352
292.97594
292.97831
292.98061
292.98286
292.98506
292.9872
292.98929
292.99133
292.99334
292.9953
292.99722
292.9991
293.00097
293.00282
293.00462
293.0064
293.00817
293.00992
293.01166
293.01338
293.01507
293.01673
293.01836
293.01995
293.0215
293.02301
293.02449
293.02592
293.0273
293.02862
293.02989
293.03108
293.03218
293.0332
293.03411
293.03491
293.0356
293.03618
293.03662
293.03692
293.0371
292.76708
292.76884
292.77131
292.77423
292.77747
292.78094
292.78453
292.78815
292.79177
292.79535
292.79888
292.80235
292.80579
292.80919
292.81256
292.81592
292.81929
292.82267
292.82607
292.82949
292.83295
292.83643
292.83994
292.84347
292.84703
292.85062
292.85422
292.85785
292.86149
292.86514
292.86881
292.87249
292.87617
292.87985
292.88353
292.8872
292.89084
292.89447
292.89807
292.90164
292.90517
292.90868
292.91215
292.91559
292.91898
292.92233
292.92564
292.92889
292.9321
292.93525
292.93837
292.94144
292.94447
292.94745
292.95038
292.95326
292.95609
292.95886
292.96158
292.96423
292.96683
292.96936
292.97184
292.97427
292.97664
292.97895
292.98121
292.98342
292.98557
292.98767
292.98973
292.99174
292.99371
292.99564
292.99754
292.99939
293.00124
293.00306
293.00484
293.0066
293.00835
293.01009
293.01181
293.01351
293.01519
293.01683
293.01845
293.02003
293.02157
293.02307
293.02453
293.02595
293.02733
293.02864
293.0299
293.03108
293.03219
293.0332
293.0341
293.0349
293.03559
293.03616
293.03661
293.03691
293.03708
292.78524
292.78628
292.78825
292.79073
292.79351
292.79646
292.79953
292.80266
292.80578
292.80887
292.81192
292.81493
292.81788
292.82082
292.82377
292.82671
292.82967
292.83266
292.83567
292.83871
292.84178
292.8449
292.84806
292.85126
292.85449
292.85775
292.86104
292.86436
292.8677
292.87107
292.87446
292.87787
292.88129
292.88472
292.88816
292.8916
292.89502
292.89843
292.90183
292.9052
292.90854
292.91187
292.91517
292.91843
292.92167
292.92486
292.92802
292.93114
292.93421
292.93724
292.94023
292.94319
292.94611
292.94899
292.95182
292.95461
292.95735
292.96004
292.96268
292.96526
292.96779
292.97026
292.97268
292.97505
292.97736
292.97963
292.98184
292.984
292.98611
292.98817
292.99019
292.99216
292.9941
292.996
292.99787
292.9997
293.00152
293.00331
293.00507
293.00681
293.00854
293.01026
293.01196
293.01365
293.01531
293.01694
293.01854
293.02011
293.02164
293.02313
293.02458
293.02599
293.02736
293.02867
293.02992
293.03109
293.03219
293.0332
293.0341
293.0349
293.03559
293.03615
293.03659
293.03689
293.03706
292.80273
292.80358
292.8053
292.80721
292.80934
292.81172
292.81437
292.81705
292.81968
292.8223
292.82486
292.82739
292.82995
292.83247
292.83498
292.8375
292.84004
292.84262
292.84525
292.84792
292.85065
292.85342
292.85622
292.85907
292.86197
292.86492
292.8679
292.87092
292.87397
292.87705
292.88017
292.88331
292.88648
292.88966
292.89286
292.89606
292.89926
292.90246
292.90564
292.90882
292.91198
292.91512
292.91824
292.92133
292.92441
292.92745
292.93046
292.93343
292.93637
292.93928
292.94215
292.94499
292.94779
292.95057
292.9533
292.956
292.95865
292.96126
292.96381
292.96632
292.96878
292.97119
292.97354
292.97585
292.97811
292.98032
292.98249
292.9846
292.98667
292.98869
292.99067
292.9926
292.99451
292.99638
292.99821
293.00002
293.00181
293.00358
293.00532
293.00703
293.00874
293.01044
293.01213
293.01379
293.01544
293.01706
293.01864
293.02019
293.02171
293.02319
293.02463
293.02603
293.02739
293.02869
293.02993
293.03111
293.0322
293.0332
293.0341
293.0349
293.03558
293.03614
293.03658
293.03688
293.03705
292.82006
292.82055
292.82172
292.82337
292.82512
292.82685
292.8291
292.83129
292.83349
292.83562
292.83769
292.83981
292.84188
292.84401
292.84614
292.84825
292.85039
292.8526
292.85485
292.85715
292.8595
292.86192
292.86439
292.86692
292.8695
292.87213
292.8748
292.87751
292.88028
292.88309
292.88593
292.88881
292.89171
292.89465
292.89761
292.90058
292.90356
292.90654
292.90952
292.9125
292.91546
292.91842
292.92136
292.92429
292.9272
292.93009
292.93295
292.93578
292.93858
292.94136
292.94411
292.94683
292.94952
292.95219
292.95483
292.95743
292.95999
292.96251
292.96499
292.96742
292.9698
292.97214
292.97444
292.97668
292.97888
292.98104
292.98316
292.98522
292.98724
292.98922
292.99116
292.99306
292.99493
292.99677
292.99857
293.00035
293.00211
293.00385
293.00556
293.00726
293.00895
293.01063
293.01229
293.01394
293.01557
293.01717
293.01874
293.02028
293.02179
293.02326
293.02469
293.02608
293.02742
293.02872
293.02995
293.03112
293.03221
293.0332
293.0341
293.03489
293.03557
293.03614
293.03657
293.03687
293.03704
292.83712
292.83729
292.838
292.83908
292.84045
292.84197
292.84367
292.84537
292.84705
292.84884
292.85044
292.85204
292.85379
292.85555
292.85729
292.85896
292.86067
292.86249
292.86439
292.86637
292.86839
292.87045
292.87259
292.87477
292.87703
292.87935
292.88173
292.88416
292.88663
292.88916
292.89173
292.89434
292.897
292.89969
292.90241
292.90515
292.90791
292.91068
292.91345
292.91623
292.919
292.92177
292.92454
292.9273
292.93004
292.93277
292.93548
292.93818
292.94084
292.94349
292.94611
292.94871
292.95129
292.95385
292.95639
292.95889
292.96136
292.96379
292.96619
292.96854
292.97086
292.97313
292.97535
292.97754
292.97968
292.98179
292.98385
292.98587
292.98784
292.98977
292.99167
292.99353
292.99537
292.99717
292.99894
293.00069
293.00243
293.00414
293.00582
293.0075
293.00917
293.01082
293.01247
293.0141
293.01571
293.0173
293.01885
293.02037
293.02187
293.02332
293.02474
293.02612
293.02746
293.02874
293.02997
293.03113
293.03221
293.03321
293.0341
293.03489
293.03557
293.03613
293.03656
293.03686
293.03703
292.85386
292.85369
292.85402
292.85466
292.85562
292.85674
292.85797
292.85926
292.86049
292.86182
292.86303
292.86422
292.86563
292.86697
292.86827
292.8696
292.87094
292.87239
292.87396
292.87555
292.87718
292.87895
292.88077
292.88265
292.8846
292.8866
292.88867
292.89081
292.89301
292.89527
292.89757
292.89993
292.90233
292.90478
292.90726
292.90978
292.91231
292.91487
292.91743
292.92001
292.92259
292.92518
292.92777
292.93035
292.93293
292.93551
292.93807
292.94062
292.94314
292.94566
292.94815
292.95064
292.9531
292.95555
292.95798
292.96039
292.96277
292.96511
292.96743
292.9697
292.97194
292.97414
292.9763
292.97842
292.98051
292.98255
292.98456
292.98653
292.98846
292.99035
292.9922
292.99402
292.99582
292.99759
292.99933
293.00104
293.00275
293.00443
293.00609
293.00774
293.00939
293.01103
293.01265
293.01426
293.01585
293.01742
293.01896
293.02047
293.02195
293.02339
293.0248
293.02617
293.0275
293.02877
293.02999
293.03115
293.03222
293.03321
293.0341
293.03489
293.03556
293.03612
293.03655
293.03685
293.03702
292.87028
292.86975
292.86971
292.86998
292.87053
292.87122
292.87204
292.87295
292.8738
292.87465
292.87547
292.87632
292.87731
292.87824
292.87917
292.8801
292.88115
292.88228
292.8834
292.8847
292.88604
292.88748
292.88894
292.89047
292.89214
292.89386
292.89565
292.8975
292.89941
292.90139
292.90343
292.90554
292.9077
292.90991
292.91215
292.91444
292.91676
292.9191
292.92146
292.92384
292.92623
292.92863
292.93104
292.93346
292.93587
292.93829
292.9407
292.9431
292.94549
292.94787
292.95024
292.9526
292.95495
292.95729
292.95962
292.96193
292.96421
292.96647
292.96869
292.97089
292.97305
292.97518
292.97727
292.97933
292.98135
292.98334
292.98529
292.98721
292.98909
292.99093
292.99275
292.99453
292.99628
292.99802
292.99972
293.00141
293.00308
293.00473
293.00637
293.008
293.00962
293.01123
293.01284
293.01443
293.016
293.01755
293.01908
293.02057
293.02203
293.02346
293.02486
293.02622
293.02753
293.0288
293.03002
293.03116
293.03224
293.03322
293.0341
293.03489
293.03556
293.03611
293.03655
293.03684
293.037
292.88637
292.88548
292.88508
292.885
292.88516
292.88546
292.88588
292.8864
292.88688
292.88732
292.88777
292.88826
292.88882
292.88939
292.88995
292.89054
292.89127
292.89202
292.89282
292.89381
292.89482
292.89592
292.8971
292.89834
292.89971
292.90111
292.90258
292.90418
292.90584
292.90755
292.90933
292.91118
292.91309
292.91506
292.91708
292.91914
292.92124
292.92337
292.92553
292.92771
292.92991
292.93213
292.93436
292.9366
292.93885
292.94111
292.94337
292.94563
292.94788
292.95012
292.95237
292.95461
292.95684
292.95907
292.96129
292.9635
292.96569
292.96785
292.96999
292.97211
292.97419
292.97625
292.97827
292.98026
292.98222
292.98415
292.98605
292.98791
292.98974
292.99154
292.99331
292.99505
292.99676
292.99846
293.00013
293.00178
293.00342
293.00504
293.00666
293.00826
293.00986
293.01145
293.01303
293.0146
293.01616
293.01769
293.01919
293.02067