/*--------------------------------*- C++ -*----------------------------------*\
| =========                 |                                                 |
| \\      /  F ield         | OpenFOAM: The Open Source CFD Toolbox           |
|  \\    /   O peration     | Version:  2406                                  |
|   \\  /    A nd           | Website:  www.openfoam.com                      |
|    \\/     M anipulation  |                                                 |
\*---------------------------------------------------------------------------*/
FoamFile
{
    version     2.0;
    format      ascii;
    arch        "LSB;label=32;scalar=64";
    class       volScalarField;
    location    "0.01";
    object      k;
}
// * * * * * * * * * * * * * * * * * * * * * * * * * * * * * * * * * * * * * //

dimensions      [0 2 -2 0 0 0 0];

internalField   nonuniform List<scalar> 
2065
(
18.885754
14.566048
10.830932
458.60241
402.59069
348.15164
297.3
251.31842
210.804
175.79821
145.98022
120.83138
99.761902
82.184368
67.560675
55.414199
45.327276
36.933327
29.915292
23.995244
18.958905
14.630876
10.888464
408.36021
473.57766
531.94466
580.14383
614.62545
632.80509
636.21997
623.61793
596.24366
556.84239
508.88617
455.95858
401.37514
347.92061
297.66211
251.98873
211.57947
176.55643
146.6587
121.40722
100.23388
82.563954
67.86186
55.651312
45.513243
37.079222
30.030763
24.088322
19.036785
14.699875
10.950853
404.88123
465.38516
520.0622
565.70914
599.14718
617.53292
621.92799
611.27542
586.33521
549.49566
503.90806
452.96687
399.90709
347.51543
297.9274
252.61395
212.34325
177.3221
147.35383
122.0026
100.72478
82.960756
68.17782
55.90077
45.709385
37.233476
30.153098
24.187169
19.119668
14.773254
11.018635
401.33105
457.18032
508.17388
551.24498
583.53441
602.01099
607.27881
598.48253
575.92804
541.65052
498.48259
449.60986
398.16657
346.92649
298.07992
253.18287
213.08776
178.09058
148.06302
122.61629
101.23465
83.37468
68.508704
56.162831
45.916001
37.396401
30.282608
24.292076
19.207838
14.851221
11.092401
397.71486
449.06148
496.40302
536.89783
567.86743
586.31908
592.3434
585.29018
565.05143
533.31782
492.60509
445.8729
396.13486
346.13545
298.10197
253.68359
213.80469
178.85658
148.78318
123.2467
101.76312
83.805448
68.854569
56.437693
46.133363
37.568296
30.4196
24.403347
19.301588
14.933975
11.17365
394.14221
441.10437
484.84772
522.74196
552.26062
570.54372
577.19594
571.7551
553.74166
524.51486
486.27587
441.74438
393.79485
345.12527
298.00154
254.10403
214.48494
179.61411
149.51072
123.89182
102.30865
84.252574
69.215364
56.725493
46.361702
37.74944
30.564379
24.521289
19.401221
15.021687
11.251675
390.61263
433.35656
473.57241
508.84416
536.80572
554.76931
561.91191
557.93849
542.04135
515.26524
479.49972
437.21621
391.13145
343.87739
297.73589
254.42977
215.11859
180.35654
150.24151
124.54928
102.86981
84.715333
69.590921
57.026291
46.601204
37.940088
30.71724
24.646218
19.507045
15.114542
11.323012
387.1416
425.84517
462.61353
495.25857
521.57801
539.07473
546.56647
543.9047
529.99837
505.59731
472.28788
432.28574
388.13231
342.37449
297.2857
254.64573
215.69505
181.07659
150.97085
125.21629
103.44515
85.193582
69.980933
57.340063
46.852003
38.140463
30.878465
24.778449
19.619371
15.212762
11.400176
383.69267
418.54789
451.98142
482.02179
506.6371
523.53107
531.2329
529.7202
517.6656
495.54668
464.65779
426.95452
384.78838
340.60208
296.64474
254.73624
216.20327
181.76637
151.69353
125.88969
104.03289
85.686891
70.384888
57.666687
47.114169
38.350753
31.048319
24.918294
19.738514
15.316563
11.484339
380.25061
411.45854
441.68434
469.1627
492.03336
508.20303
515.98113
515.45263
505.10018
485.1547
456.63261
421.2298
381.09452
338.54792
295.79886
254.69649
216.63243
182.41744
152.40383
126.56585
104.63085
86.193442
70.802059
58.00593
47.387703
38.5711
31.227046
25.066064
19.864789
15.426142
11.577558
376.78302
404.55961
431.72039
456.69761
477.8003
493.13846
500.89825
501.16733
492.36226
474.46845
448.24283
415.12374
377.04876
336.20225
294.73534
254.52275
216.97121
183.02083
153.09553
127.24072
105.23655
86.711468
71.231463
58.357447
47.672525
38.801598
31.414859
25.222055
19.9985
15.541656
11.6557
373.23043
397.81502
422.07419
444.63089
463.96193
478.38478
486.063
486.93242
479.51504
463.5396
439.52339
408.65401
372.6547
333.55828
293.43976
254.16748
217.2055
183.56712
153.76197
127.90987
105.8472
87.239434
71.67284
58.720768
47.968473
39.042281
31.611943
25.386549
20.139942
15.663378
11.740071
369.60894
391.21768
412.73996
432.97271
450.55503
464.00687
471.50425
472.82224
466.62577
452.42433
430.51462
401.84512
367.92166
330.61322
291.90274
253.63754
217.32218
184.04671
154.39609
128.5685
106.45976
87.775505
72.125683
59.095222
48.275286
39.29312
31.818435
25.559801
20.289382
15.791581
11.832098
365.89309
384.7576
403.72116
421.74453
437.624
450.04011
457.26384
458.90203
453.76226
441.18293
421.26356
394.72721
362.86361
327.3685
290.11764
252.92242
217.31006
184.45045
154.99061
129.21148
107.07082
88.317507
72.588
59.479929
48.592594
39.554014
32.034427
25.74203
20.447053
15.926502
11.932831
362.07381
378.43727
395.02929
410.96699
425.19647
436.52952
443.39142
445.23439
440.9922
429.87863
411.82185
387.33617
357.50023
323.82978
288.08098
252.0158
217.18753
184.77059
155.53811
129.83336
107.67672
88.863062
73.05796
59.873766
48.919916
39.824784
32.259952
25.933404
20.613134
16.068294
12.043517
358.20252
372.28718
386.68701
400.66154
413.29575
423.52691
429.94195
431.88181
428.38308
418.5766
402.24535
379.71372
351.85533
320.00595
285.79157
250.90741
216.90357
184.9951
156.03077
130.42845
108.27357
89.409639
73.534101
60.276483
49.256654
40.105177
32.494973
26.134033
20.787733
16.216946
12.165769
354.3193
366.33367
378.71326
390.84666
401.94686
411.07229
416.96575
418.90289
415.99985
407.34154
392.59098
371.90274
345.95802
315.91233
283.25193
249.59155
216.46047
185.1129
156.46061
130.99089
108.85721
89.954521
74.014696
60.687414
49.601986
40.394855
32.73938
26.343943
20.970869
16.372208
12.303907
350.45606
360.59872
371.12461
381.53909
391.17253
399.1991
404.50774
406.35093
403.90346
396.2362
382.91649
363.95048
339.84129
311.56697
280.46786
248.06584
215.85613
185.1107
156.81999
131.51473
109.42335
90.494778
74.497783
61.104548
49.954822
40.693392
32.992978
26.563068
21.162447
16.533339
12.388679
346.63686
355.09318
363.92544
372.74336
380.98337
387.92844
392.60208
394.26973
392.14747
385.31866
373.27788
355.90471
333.53993
306.99078
277.44812
246.33054
215.08865
185.01685
157.10426
131.99404
109.9675
91.02731
74.981327
61.526463
50.314871
41.000275
33.255488
26.79122
21.36221
16.699974
12.478374
343.00224
349.93287
357.20642
364.52865
371.43359
377.30699
381.29523
382.70673
380.78411
374.64404
363.72875
347.81223
327.0897
302.20666
274.20324
244.38652
214.14971
184.78391
157.30296
132.42231
110.48498
91.548863
75.463203
61.95186
50.682013
41.314788
33.526519
27.028068
21.5697
16.871396
12.572857
339.51418
345.09734
350.96609
356.90817
362.54657
367.3651
370.62406
371.70177
369.85824
364.26057
354.31728
339.71671
320.52561
297.23654
270.74298
242.23458
213.03286
184.4073
157.40534
132.79254
110.97086
92.056025
75.94111
62.37915
51.054604
41.635854
33.805549
27.273116
21.784214
17.046424
12.668028
335.95378
340.41899
345.08316
349.80138
354.27638
358.08484
360.5934
361.27273
359.39888
354.20416
345.08164
331.65356
313.87556
292.10057
267.07838
239.87617
211.73401
183.88834
157.39974
133.09786
111.42004
92.54521
76.412605
62.806676
51.431007
41.962997
34.091923
27.525687
22.004789
17.223616
12.759579
332.11921
335.69523
339.37366
343.05448
346.5049
349.38396
351.15459
351.39556
349.40281
344.4861
336.04148
323.64509
307.15996
286.81306
263.21601
237.31115
210.24889
183.22358
157.31123
133.3345
111.82732
93.012636
76.875138
63.23277
51.81019
42.296131
34.384785
27.784913
22.230183
17.401221
12.841855
327.57488
330.50198
333.44383
336.31878
338.93993
341.02675
342.15414
341.95604
339.8
335.06971
327.18281
315.69048
300.38337
281.37805
259.15628
234.53565
208.56992
182.39984
157.09346
133.491
112.18649
93.454214
77.326018
63.655656
52.190884
42.633861
34.682929
28.049726
22.458937
17.577172
12.909518
321.42233
324.01809
326.55395
328.94258
331.02582
332.55944
333.23096
332.68817
330.40512
325.83425
318.43265
307.74896
293.52415
275.78318
254.88983
231.54008
206.686
181.40402
156.73837
133.55335
112.49051
93.865535
77.762399
64.073441
52.571762
42.974628
34.985796
28.318861
22.689463
17.749517
12.964834
313.02761
315.58373
318.02732
320.25277
322.11757
323.40445
323.8662
323.17988
320.90222
316.55305
309.63891
299.72472
286.52474
269.99416
250.39531
228.30873
204.58328
180.22448
156.24553
133.52414
112.73421
94.242153
78.181281
64.484103
52.951257
43.317433
35.292683
28.590743
22.920106
17.916712
13.010462
302.18436
304.92662
307.5367
309.87543
311.80504
313.13349
313.63899
313.04342
310.95861
306.96081
300.60536
291.48325
279.2994
263.95914
245.63933
224.81799
202.24453
178.84825
155.60559
133.40489
112.91238
94.579425
78.579554
64.885666
53.328716
43.661011
35.60169
28.863678
23.149146
18.077561
13.048283
289.34046
292.31606
295.19721
297.81911
300.02543
301.62316
302.3843
302.08827
300.37928
296.8797
291.18576
282.9151
271.77271
257.62907
240.59194
221.04886
199.65501
177.262
154.80155
133.15126
113.01247
94.871594
78.953869
65.27605
53.701947
44.003955
35.911156
29.136558
23.374789
18.231189
13.096507
275.7098
278.81158
281.85962
284.70153
287.18812
289.13097
290.27406
290.40325
289.19621
286.30492
281.35853
273.99646
263.92622
250.99266
235.24735
216.99743
196.80981
175.45896
153.82638
132.77372
113.02029
95.11267
79.300809
65.65307
54.069468
44.344895
36.219657
29.407781
23.594945
18.37449
13.129857
262.75888
265.81999
268.85788
271.74584
274.34521
276.48217
277.92807
278.44194
277.73775
275.46703
271.28064
264.8335
255.83319
244.10177
229.64173
212.68876
193.72454
173.44581
152.68168
132.27436
112.96485
95.303393
79.617837
66.014609
54.429713
44.682467
36.52571
29.675159
23.808089
18.50396
13.054437
251.7381
254.58901
257.42728
260.16255
262.67097
264.79473
266.33018
267.03702
266.66718
264.88346
261.34578
255.71854
247.70643
237.1089
223.88191
208.1915
190.43924
171.24452
151.37702
131.65171
112.81641
95.438113
79.902029
66.358577
54.781171
45.015365
36.827925
29.937105
24.012709
18.619712
13.031266
242.96256
245.52998
248.07859
250.54744
252.82729
254.77768
256.21762
256.92489
256.67852
255.16673
252.07209
247.07269
239.87475
230.26016
218.14359
203.62632
187.03182
168.89981
149.93392
130.91112
112.57098
95.512071
80.150224
66.682818
55.122364
45.342399
37.125061
30.192207
24.206938
18.722223
13.121426
235.44272
237.79763
240.12885
242.38427
244.46397
246.23982
247.54752
248.18655
247.95529
246.57319
243.75143
239.19049
232.60956
223.78685
212.61015
199.12916
183.59521
166.46856
148.38246
130.06598
112.24049
95.51661
80.35844
66.984949
55.451767
45.662471
37.416121
30.439448
24.389752
18.80968
13.08185
227.41913
229.72914
232.02866
234.25496
236.31149
238.0754
239.39181
240.06812
239.92212
238.69574
236.12502
231.93608
225.86797
217.70732
207.33168
194.75712
180.1785
163.98594
146.74345
129.12662
111.8309
95.475921
80.528021
67.263058
55.767768
45.974525
37.700388
30.678367
24.56078
18.884112
13.000677
217.52091
219.91801
222.34101
224.71136
226.93522
228.89248
230.434
231.36492
231.50454
230.61125
228.43412
224.71754
219.21637
211.7273
202.12552
190.4081
176.73143
161.4302
145.00754
128.08764
111.33557
95.367147
80.653639
67.514098
56.068392
46.277438
37.977315
30.908827
24.722451
18.944074
12.89263
206.05742
208.51633
211.04098
213.55224
215.9638
218.16323
220.00883
221.32166
221.89727
221.51936
219.9218
216.85214
212.07207
205.37868
196.64099
185.83885
173.09788
158.70796
143.12166
126.91851
110.73364
95.172059
80.725133
67.732983
56.350957
46.569851
38.246286
31.130512
24.872645
18.988587
12.769194
195.139
197.50153
199.94753
202.41704
204.83595
207.10525
209.09729
210.65306
211.56624
211.64496
210.6275
208.24976
204.2621
198.45134
190.66895
180.86709
169.13348
155.71479
141.01744
125.57752
110.00094
94.882701
80.724645
67.912326
56.612057
46.850105
38.506528
31.343118
25.010806
19.01828
12.637982
186.40859
188.54338
190.75673
193.01072
195.24388
197.37239
199.2861
200.84508
201.86795
202.16585
201.50942
199.64331
196.31588
191.29946
184.42308
175.60474
164.88711
152.46571
138.69292
124.05669
109.13064
94.498955
80.679707
68.054512
56.849883
47.116577
38.757053
31.546078
25.137153
19.033923
12.504855
178.9682
180.91442
182.93547
185.00097
187.05763
189.0323
190.82819
192.32138
193.35208
193.74273
193.29066
191.75649
188.90146
184.50077
178.37109
170.40567
160.60817
149.12236
136.24369
122.4071
108.14576
94.023989
80.562049
68.15374
57.061933
47.367478
38.996556
31.738273
25.250292
19.032265
12.347663
171.10516
172.97315
174.92439
176.92687
178.9326
180.87536
182.66709
184.19451
185.31358
185.85124
185.62793
184.41556
181.98736
178.12587
172.64694
165.43005
156.45152
145.8146
133.76661
120.69257
107.08238
93.473536
80.37787
68.209287
57.246288
47.600803
39.223342
31.918213
25.348462
19.01371
12.158754
162.82507
164.63303
166.53395
168.49769
170.48209
172.42814
174.25644
175.86379
177.12035
177.85732
177.91177
177.0664
175.10023
171.79721
166.96988
160.48617
152.30006
142.48144
131.236
118.9049
105.93881
92.847099
80.129909
68.207717
57.396307
47.812896
39.434877
32.083746
25.429085
18.966037
11.922927
154.89487
156.59894
158.39896
160.27096
162.17926
164.07298
165.88261
167.51648
168.85769
169.75583
170.04787
169.54182
168.02101
165.27171
161.09911
155.355
147.97
138.98035
128.55104
116.9792
104.67604
92.1237
79.81163
68.170497
57.513547
48.001049
39.628159
32.231855
25.488548
18.886993
11.630764
147.61089
149.19343
150.87072
152.62402
154.42329
156.225
157.96884
159.57437
160.93776
161.92658
162.38336
162.13916
160.98666
158.71912
155.14003
150.0904
143.47646
135.30107
125.68722
114.88639
103.26784
91.282837
79.406029
68.070279
57.590556
48.160987
39.799745
32.359445
25.523376
18.775372
11.290395
140.58018
142.0566
143.62672
145.27505
146.97618
148.69269
150.37214
151.94381
153.31556
154.37085
154.95971
154.93387
154.0971
152.25179
149.20513
144.79086
138.89734
131.49825
122.67625
112.63939
101.7143
90.315722
78.896242
67.880981
57.60087
48.281097
39.944046
32.462944
25.529502
18.631957
10.915762
133.88112
135.2583
136.72764
138.27626
139.88271
141.51488
143.1272
144.65762
146.02445
147.12362
147.82079
147.97419
147.40824
145.93323
143.36134
139.52313
134.29473
127.62465
119.56087
110.26904
100.0324
89.228642
78.28497
67.617578
57.569562
48.36443
40.058968
32.541552
25.515576
18.460937
10.513589
127.32241
128.60636
129.98058
131.43456
132.95038
134.5007
136.04617
137.5326
138.88793
140.01946
140.80848
141.11873
140.79513
139.6568
137.52233
134.2223
129.6222
123.64908
116.32033
107.7622
98.214428
88.015794
77.56667
67.271136
57.476081
48.397211
40.138087
32.591591
25.474834
18.26338
10.092347
121.14869
122.34228
123.62348
124.98365
126.40791
127.87303
129.34514
130.77704
132.1054
133.24795
134.1001
134.53282
134.40917
133.55852
131.80763
128.98927
124.96202
119.63726
113.00424
105.15195
96.279603
86.687185
76.743572
66.834769
57.302073
48.380428
40.177594
32.605937
25.399407
18.039534
9.6582268
114.9693
116.08071
117.27718
118.55175
119.89222
121.27907
122.68334
124.06418
125.36619
126.51675
127.42353
127.96779
128.0254
127.4394
126.04492
123.67858
120.19571
115.49373
109.53684
102.38093
94.185758
85.211784
75.794056
66.297074
57.055862
48.317091
40.175877
32.597279
25.31632
17.831439
9.2478826
109.27233
110.30463
111.41845
112.60853
113.86492
115.17121
116.50264
117.82385
119.08643
120.22628
121.16124
121.78616
121.98306
121.61243
120.5178
118.54185
115.53954
111.39845
106.06446
99.56358
92.018149
83.649263
74.757146
65.681108
56.744399
48.194424
40.150092
32.569961
25.220637
17.62254
8.8610575
103.58155
104.53748
105.57113
106.67908
107.85347
109.08082
110.34031
111.60172
112.82322
113.94882
114.906
115.60249
115.92712
115.75671
114.94393
113.33842
110.79612
107.1976
102.47092
96.614658
89.717619
81.961427
73.60953
64.974222
56.36398
48.024527
40.085385
32.514221
25.095581
17.35831
8.4041329
98.633237
99.511976
100.46342
101.48565
102.57241
103.71254
104.88841
106.07416
107.23354
108.31766
109.26267
109.98753
110.38934
110.35936
109.76066
108.45168
106.29262
103.16144
98.973994
93.706768
87.415682
80.245315
72.422022
64.226747
55.948973
47.829098
40.002019
32.449504
24.96134
17.069955
7.9131942
93.563906
94.37454
95.253892
96.201056
97.21122
98.275312
99.378634
100.49923
101.60596
102.65644
103.59479
104.34961
104.8295
104.93396
104.54043
103.51523
101.72371
99.042526
95.377729
90.685902
84.993495
78.41002
71.125583
63.388708
55.465886
47.587608
39.891414
32.369694
24.821711
16.790266
7.4623385
89.137762
89.890677
90.709444
91.593344
92.538718
93.538171
94.579351
95.643474
96.703583
97.722588
98.651179
99.425825
99.965372
100.17525
99.946376
99.152659
97.665304
95.361839
92.141993
87.947209
82.780274
76.719924
69.920327
62.597373
54.995997
47.33686
39.758101
32.259793
24.65258
16.494032
7.009037
83.993339
84.678229
85.423257
86.22951
87.094463
88.012437
88.973525
89.962286
90.956205
91.923918
92.823315
93.59961
94.183149
94.48708
94.417393
93.857822
92.687981
90.789008
88.057015
84.420372
79.858228
74.414966
68.207298
61.412989
54.241023
46.888152
39.486182
32.047055
24.407412
16.159391
6.5657367
81.053755
81.689788
82.382052
83.131915
83.937365
84.793571
85.69192
86.618836
87.554371
88.470587
89.329774
90.082626
90.666589
91.000945
91.001631
90.559904
89.562038
87.893656
85.450877
82.155269
77.971361
72.921812
67.09233
60.630255
53.724458
46.560923
39.268411
31.861193
24.184383
15.856398
6.1603372
75.695121
76.278949
76.916754
77.609397
78.355767
79.15239
79.992604
80.865553
81.754922
82.637487
83.481491
84.244925
84.873879
85.299345
85.442579
85.210603
84.49785
83.19556
81.19876
78.420863
74.808673
70.355719
65.114824
59.192841
52.737571
45.908709
38.825579
31.51275
23.844603
15.478399
5.7775001
72.888876
73.440009
74.042883
74.698395
75.40599
76.163201
76.965121
77.799987
78.653174
79.503727
80.322804
81.072025
81.701871
82.149074
82.338777
82.186136
81.590686
80.448584
78.658018
76.129971
72.80371
68.661612
63.739542
58.126205
51.945865
45.334582
38.402437
31.176526
23.541068
15.169397
5.4761344
65.847653
66.341739
66.885877
67.480887
68.1257
68.815524
69.544204
70.304169
71.083998
71.867299
72.631466
73.346297
73.972544
74.460526
74.749173
74.766049
74.425241
73.631251
72.291567
70.318833
67.641588
64.217143
60.041688
55.156607
49.642083
43.594316
37.09423
30.162669
22.70462
14.447522
4.890776
44.341385
53.343279
64.448201
78.040325
92.978566
109.31241
126.4673
144.16917
161.07651
177.39159
192.8471
207.53428
221.59076
234.89964
247.19825
258.30924
268.20178
276.94866
284.61
291.24325
296.8421
301.42145
305.03754
306.911
306.81345
305.47084
301.5357
293.69663
282.8417
269.8582
256.2214
243.56887
233.20273
225.554
219.73372
213.73754
205.66967
195.22327
184.17823
175.13219
73.703612
87.567535
103.23409
118.99107
135.02324
150.81889
166.2856
181.44439
196.41937
211.14674
225.42605
238.96679
251.57259
262.87581
272.99128
281.76937
289.31659
295.72918
301.12289
305.55488
309.11077
311.9214
313.42578
313.26801
311.96137
308.43738
301.39201
291.24382
278.67201
265.00474
251.86047
240.6646
232.10681
225.57774
219.26194
211.22648
200.85227
189.58881
179.99879
173.04495
166.76332
159.36644
151.59148
144.4536
137.98784
131.6415
125.57413
119.60451
113.98706
108.3124
103.09385
97.866061
93.369502
88.696584
84.600368
79.854974
77.175954
72.122006
69.482129
62.820525
144.22675
157.76574
171.14273
184.35663
197.50761
210.57851
223.44714
235.92672
247.78306
258.95413
269.32155
278.72112
287.05829
294.33298
300.52198
305.66718
309.8791
313.26028
315.88663
317.85507
319.32331
319.93555
319.37951
317.74002
314.28029
307.84296
298.34647
286.24542
272.68804
259.23374
247.3778
238.0243
230.8358
224.20292
216.19033
205.91653
194.51159
184.4634
176.97067
170.35588
162.81962
154.87776
147.49064
140.77732
134.22589
127.96893
121.82279
116.03961
110.21471
104.85447
99.489744
94.861456
90.072638
85.879501
81.018614
78.265293
73.121759
70.433458
63.661625
235.56729
245.92396
255.4545
264.302
272.58102
280.34325
287.67697
294.51469
300.77005
306.45576
311.47279
315.77154
319.37036
322.23158
324.3728
325.88681
326.85135
327.32608
327.38233
327.19753
326.60471
325.23462
323.00555
319.38935
313.29617
304.34864
292.72996
279.37518
265.75353
253.38471
243.34193
235.54395
228.59727
220.59679
210.44437
198.96429
188.5381
180.56032
173.63657
165.97513
157.89253
150.28787
143.35285
136.6167
130.18926
123.88426
117.95136
111.9907
106.50202
101.01306
96.264118
91.369362
87.087878
82.120729
79.298436
74.073017
71.340388
64.467043
328.32405
331.66317
334.32305
336.56122
338.48858
340.20787
341.75106
343.07303
344.1516
344.9818
345.49699
345.61739
345.4306
344.85643
343.87416
342.5843
341.03452
339.26647
337.32702
335.37395
333.33079
330.91229
327.9408
323.95582
317.97284
309.43347
298.27472
285.17836
271.49645
258.73877
248.10402
239.74549
232.48895
224.48829
214.47078
202.97094
192.23906
183.82904
176.61969
168.84601
160.64647
152.85385
145.72174
138.82026
132.24051
125.79343
119.72621
113.6436
108.03922
102.43822
97.579357
92.588296
88.226812
83.162399
80.27639
74.976622
72.20362
65.237463
)
;

boundaryField
{
    Side1
    {
        type            empty;
    }
    Inlet
    {
        type            inletOutlet;
        inletValue      uniform 0.39740317;
        value           nonuniform List<scalar> 
59
(
0.39740317
0.39740317
0.39740317
0.39740317
0.39740317
11.17365
11.251675
0.39740317
0.39740317
0.39740317
11.577558
0.39740317
0.39740317
0.39740317
0.39740317
0.39740317
0.39740317
12.303907
0.39740317
0.39740317
0.39740317
0.39740317
0.39740317
0.39740317
0.39740317
0.39740317
0.39740317
0.39740317
0.39740317
13.129857
0.39740317
0.39740317
0.39740317
0.39740317
0.39740317
0.39740317
0.39740317
0.39740317
0.39740317
0.39740317
0.39740317
0.39740317
0.39740317
0.39740317
0.39740317
0.39740317
0.39740317
0.39740317
0.39740317
0.39740317
0.39740317
0.39740317
0.39740317
0.39740317
0.39740317
0.39740317
0.39740317
0.39740317
0.39740317
)
;
    }
    Side2
    {
        type            empty;
    }
    Outlet
    {
        type            zeroGradient;
    }
    Botwall
    {
        type            kqRWallFunction;
        value           nonuniform List<scalar> 0();
    }
    Cyli
    {
        type            kqRWallFunction;
        value           nonuniform List<scalar> 0();
    }
    procBoundary3to0
    {
        type            processor;
        value           nonuniform List<scalar> 7(37.396459 62.039229 62.039229 130.49428 130.49428 224.22394 224.22394);
    }
    procBoundary3to1
    {
        type            processor;
        value           nonuniform List<scalar> 
62
(
42.388025
49.680185
58.791631
70.126876
83.609912
99.198409
116.22139
133.53161
151.18351
168.94197
185.85319
201.68949
216.17605
229.18263
240.89782
251.45315
260.91738
269.48919
277.16708
283.95028
289.74364
294.51814
298.19649
299.81846
299.5106
297.79431
293.1756
284.57479
273.12022
259.87905
246.43021
234.39749
224.93749
218.22843
213.14506
207.5308
199.51345
189.08831
178.3318
169.85531
168.73126
168.73126
162.82299
155.61034
148.03454
141.16974
134.97495
128.8565
122.99963
117.22541
111.7912
106.28249
101.21862
96.13912
91.783957
87.237268
83.248578
78.623734
76.024603
71.071879
68.485325
61.943131
)
;
    }
    procBoundary3to2
    {
        type            processor;
        value           nonuniform List<scalar> 
35
(
18.817195
14.505316
10.777278
460.91757
403.57482
348.23316
296.8547
250.61109
210.02084
175.04855
145.31777
120.27361
99.3072
81.820248
67.272642
55.187995
45.150284
36.794846
29.806006
23.907535
23.907535
411.62146
411.62146
481.58113
543.64215
594.38482
629.84319
647.72921
650.07031
635.45412
605.62417
563.68215
513.42552
513.42552
323.90522
)
;
    }
}


// ************************************************************************* //
