/*--------------------------------*- C++ -*----------------------------------*\
| =========                 |                                                 |
| \\      /  F ield         | OpenFOAM: The Open Source CFD Toolbox           |
|  \\    /   O peration     | Version:  2406                                  |
|   \\  /    A nd           | Website:  www.openfoam.com                      |
|    \\/     M anipulation  |                                                 |
\*---------------------------------------------------------------------------*/
FoamFile
{
    version     2.0;
    format      ascii;
    arch        "LSB;label=32;scalar=64";
    class       surfaceScalarField;
    location    "0.01";
    object      phi;
}
// * * * * * * * * * * * * * * * * * * * * * * * * * * * * * * * * * * * * * //

dimensions      [1 0 -1 0 0 0 0];

oriented        oriented;

internalField   nonuniform List<scalar> 
4031
(
0.00010508168
0.68850158
3.02899e-05
0.77291951
0.86633687
-0.0006586072
0.084375486
-0.00028855428
0.096410146
4.0085636e-05
0.10982258
0.00031863746
0.12478911
0.00054205653
0.14149922
0.00070997993
0.16019056
0.00082488382
0.18114831
0.00089105838
0.20469278
0.00091329006
0.23119122
0.00089749408
0.26106417
0.00085008877
0.29478833
0.00077590933
0.33290263
0.00068078671
0.37599614
0.00057038486
0.42472699
0.00045154533
0.47973693
0.0003300276
0.54168366
0.00021356271
0.61113749
0.00011124299
0.68860974
3.1841045e-05
0.7730127
0.86639669
-0.0032022478
0.016265366
0.0031537581
-0.003227389
0.01906437
-0.003221199
0.022279532
-0.0031721687
0.025995278
-0.0030688833
0.030296986
-0.0029026864
0.035271382
-0.0026707928
0.041003191
-0.0023759162
0.047576772
-0.0020264341
0.055076752
-0.0016366872
0.063585467
-0.0012258457
0.073184498
-0.0008143256
0.083963074
-0.00042274664
0.09601755
-6.8856547e-05
0.10946754
0.00023653403
0.12448242
0.00048623035
0.14124806
0.00067797663
0.15999718
0.00081326503
0.18101121
0.00089581448
0.20460825
0.00093018494
0.23115468
0.0009226328
0.2610694
0.00087995387
0.29482859
0.00080731015
0.33297284
0.00071110605
0.37609012
0.0005976215
0.42483883
0.00047425951
0.47985966
0.00034727218
0.54181362
0.0002252446
0.61126624
0.00011762684
0.68872321
3.3339802e-05
0.7731122
0.86646261
-0.0033893615
0.016301362
0.0033532089
-0.0034025701
0.019077394
-0.0033884345
0.02226518
-0.0033357839
0.025942374
-0.003233849
0.030194751
-0.0030735735
0.035110751
-0.0028501376
0.040779331
-0.0025636595
0.047289791
-0.0022197726
0.054732271
-0.0018302756
0.063195273
-0.0014125443
0.072765954
-0.00098657103
0.083536163
-0.00057390238
0.095603809
-0.00019439844
0.10908682
0.00013891292
0.12414774
0.00041658
0.14096885
0.00063424538
0.1597778
0.00079217271
0.18085138
0.00089328007
0.20450505
0.00094172142
0.23110397
0.00094406007
0.26106463
0.00090748796
0.29486262
0.000837409
0.33304037
0.00074084259
0.37618434
0.00062474679
0.42495318
0.00049711957
0.47998656
0.00036475902
0.54194856
0.00023720332
0.61140092
0.00012421685
0.68884201
3.4713087e-05
0.77321844
0.86653443
-0.0036318941
0.016321787
0.0036113333
-0.0036306785
0.019076014
-0.0036024572
0.022236763
-0.0035397943
0.025879472
-0.0034329995
0.030087665
-0.0032727725
0.034950169
-0.0030528188
0.040558948
-0.0027710783
0.047007534
-0.0024306046
0.054391181
-0.002040552
0.062804492
-0.0016161112
0.072340663
-0.0011763471
0.083095415
-0.00074306635
0.0951694
-0.00033772951
0.1086802
2.4409359e-05
0.12378416
0.00033161877
0.14066002
0.00057728712
0.15953032
0.0007601696
0.1806665
0.00088217515
0.20438085
0.00094763021
0.23103613
0.0009617965
0.26104791
0.00093194551
0.2948898
0.00086562458
0.333104
0.00076956732
0.37627791
0.00065145084
0.42506944
0.00051991567
0.48011728
0.00038235362
0.5420883
0.00024936248
0.61154123
0.00013098243
0.68896615
3.5925529e-05
0.77333174
0.86661218
-0.0039318952
0.016322773
0.0039308052
-0.0039115514
0.019055535
-0.0038652481
0.022190284
-0.0037876276
0.025801627
-0.0036702637
0.029970017
-0.0035042689
0.03478382
-0.0032825434
0.040336786
-0.0030013318
0.04672579
-0.0026613977
0.054050607
-0.0022693066
0.062411641
-0.001837847
0.071908312
-0.0013846652
0.0826412
-0.00093123564
0.094714786
-0.00049997647
0.1082476
-0.00010829493
0.12339096
0.00022984916
0.14032018
0.00050555556
0.15925272
0.00071572707
0.18045422
0.00086106508
0.2042332
0.00094535887
0.23094933
0.00097331218
0.26101727
0.00095243678
0.29490787
0.00089127985
0.33316233
0.00079676516
0.37636981
0.00067735503
0.42518687
0.00054237998
0.48025134
0.00039988297
0.54223262
0.00026163097
0.61168688
0.0001378862
0.68909555
3.7267059e-05
0.77345209
0.86668074
-0.0042858193
0.016300367
0.0043081535
-0.0042427232
0.019012327
-0.0041760164
0.022123417
-0.0040800414
0.025705438
-0.003947655
0.029837352
-0.0037708306
0.034606639
-0.0035423039
0.040107811
-0.0032572193
0.046440155
-0.0029144943
0.053707214
-0.0025183224
0.062014673
-0.0020790316
0.071468086
-0.0016124868
0.082173571
-0.001139297
0.094240352
-0.00068218932
0.10778907
-0.00026044912
0.12296763
0.00010983887
0.1399481
0.00041747814
0.15894309
0.00065725179
0.18021225
0.00082841925
0.20405962
0.00093377013
0.23084135
0.00097766354
0.26097055
0.00096795769
0.29491462
0.00091359076
0.33321371
0.00082183447
0.37645879
0.00070201768
0.42530457
0.00056419795
0.48038815
0.00041713647
0.54238125
0.00027389116
0.61183755
0.00014488099
0.6892301
3.8882741e-05
0.77357918
0.86675306
-0.0046928647
0.016253781
0.0047393896
-0.0046250658
0.018944423
-0.0045346824
0.022032881
-0.0044170392
0.025587583
-0.0042658877
0.029685917
-0.0040739247
0.034414308
-0.0038340544
0.039867475
-0.0035408311
0.046146354
-0.0031918097
0.053357492
-0.0027891468
0.061611174
-0.0023408009
0.071018758
-0.0018606578
0.08169229
-0.0013680018
0.093746391
-0.00088526491
0.10730485
-0.0004331614
0.12251385
-2.9760852e-05
0.13954283
0.00031149766
0.15859975
0.00058312029
0.17993832
0.00078264206
0.20385757
0.0009116447
0.2307096
0.0009738209
0.26090542
0.00097736607
0.29490797
0.00093165522
0.33325628
0.00084407896
0.37654343
0.00072490617
0.42542149
0.00058498695
0.48052694
0.00043386763
0.54253377
0.00028599384
0.6119928
0.00015190004
0.68936962
4.0784261e-05
0.77371258
0.86685274
-0.0051446835
0.016183019
0.0052153655
-0.0050523508
0.018851971
-0.0049373951
0.021917755
-0.0047963032
0.02544626
-0.0046237706
0.029513078
-0.0044133287
0.034203471
-0.0041583333
0.039611982
-0.0038531655
0.045840571
-0.0034944793
0.052998062
-0.0030828079
0.061198619
-0.0026239791
0.070558895
-0.0021298001
0.081196915
-0.0016178849
0.093233108
-0.0011098805
0.1067953
-0.00062735298
0.12202958
-0.00019016007
0.13910369
0.00018613556
0.15822128
0.00049171085
0.17963034
0.00072207093
0.20362457
0.00087743797
0.23055136
0.00096168621
0.26081809
0.00098092053
0.29488548
0.00094446548
0.33328945
0.00086268626
0.37662212
0.00074540993
0.42553636
0.00060430242
0.48066679
0.00044976618
0.54268959
0.00029775545
0.6121521
0.00015885558
0.68951389
4.2978475e-05
0.77385173
0.86696076
-0.0056342143
0.016088709
0.0057284155
-0.0055178127
0.018735416
-0.0053783735
0.021778107
-0.0052131629
0.025280775
-0.0050178113
0.029317375
-0.0047867268
0.033971943
-0.0045138699
0.039338575
-0.0041937556
0.045519789
-0.0038225433
0.05262605
-0.0033995623
0.060774696
-0.002928833
0.070087071
-0.0024201147
0.080686938
-0.0018891368
0.092700697
-0.0013563925
0.10626094
-0.00084370792
0.12151508
-0.00037236617
0.13863032
4.0060476e-05
0.1578066
0.00038143376
0.17928647
0.00064502654
0.20335824
0.00082944353
0.23036396
0.00093795641
0.26070636
0.00097526623
0.29484478
0.00095082476
0.33331044
0.00087673085
0.37669295
0.00076281141
0.42564771
0.00062161217
0.48080659
0.00046447559
0.54284791
0.00030894419
0.61231474
0.00016563565
0.6896626
4.4874727e-05
0.77399656
0.86707619
-0.0061509763
0.015972499
0.0062669889
-0.0060118534
0.018596055
-0.0058489921
0.021614954
-0.0056602174
0.025091644
-0.0054419454
0.02909867
-0.0051894153
0.03371889
-0.0048972529
0.039045788
-0.0045603096
0.045182104
-0.0041745727
0.052239442
-0.003738549
0.06033766
-0.0032547967
0.069602155
-0.0027311944
0.08016201
-0.0021814902
0.092149492
-0.001624739
0.1057025
-0.0010825383
0.12097099
-0.0005770943
0.13812277
-0.0001278498
0.15735502
0.00025080839
0.17890523
0.00054984793
0.20305636
0.00076591417
0.2301448
0.00090084912
0.26056809
0.00095873585
0.29478336
0.00094939988
0.33331616
0.00088515872
0.37675376
0.00077628794
0.42575383
0.00063630255
0.48094501
0.00047756188
0.54300773
0.00031927526
0.61247989
0.00017209477
0.68981527
4.7373484e-05
0.77414597
0.86715437
-0.0066794807
0.015837634
0.0068140387
-0.006520583
0.018436808
-0.0063368945
0.021430861
-0.006126695
0.024880977
-0.0058870442
0.028858478
-0.005613917
0.033445136
-0.0053025964
0.038733743
-0.0049483861
0.044827058
-0.0045473457
0.051837443
-0.0040974821
0.059886703
-0.0036002167
0.069103649
-0.0030617626
0.079622157
-0.0024939814
0.091580142
-0.0019142946
0.10512105
-0.0013436715
0.12039841
-0.00080470833
0.13758163
-0.00031844567
0.15686634
9.8562739e-05
0.17848555
0.00043494678
0.20271704
0.00068513173
0.22989141
0.00084930513
0.26040047
0.00093042152
0.29469858
0.00093871708
0.3333041
0.00088679078
0.37680209
0.0007848989
0.42585279
0.00064765985
0.48108051
0.00048851861
0.5431678
0.00032839537
0.61264659
0.00017803563
0.68997124
4.9566155e-05
0.7742997
0.86728194
-0.0072036737
0.015687883
0.0073529952
-0.0070287629
0.018261422
-0.0068278707
0.021229438
-0.0065996057
0.024652117
-0.0063415294
0.028599734
-0.006050222
0.03315308
-0.0057215455
0.038404225
-0.0053512513
0.04445582
-0.0049355988
0.051420732
-0.004472327
0.059422246
-0.003962014
0.068592012
-0.0034094605
0.079068129
-0.0028248218
0.090993864
-0.0022237879
0.1045182
-0.001626361
0.11979896
-0.0010550886
0.13700812
-0.00053219379
0.15634097
-7.6308617e-05
0.17802693
0.00029887561
0.20233884
0.00058543612
0.22960156
0.00078164714
0.26020069
0.00089068696
0.29458575
0.0009195444
0.33327134
0.00088034662
0.37683753
0.0007875834
0.42594241
0.00065486426
0.48121127
0.00049675407
0.54332665
0.0003358846
0.61281374
0.00018318295
0.69012965
5.2262223e-05
0.77445652
0.86741589
-0.0077003509
0.01552938
0.0078582892
-0.0075154897
0.018075948
-0.0073032261
0.021016505
-0.007062346
0.024410504
-0.0067907858
0.028327371
-0.0064856304
0.032847046
-0.0061432641
0.038060895
-0.0057598696
0.044071368
-0.0053319701
0.050991669
-0.0048572057
0.058946202
-0.0043355614
0.06806896
-0.003770708
0.078501727
-0.0031712253
0.090392677
-0.0025511095
0.10389621
-0.0019291547
0.11917493
-0.0013275027
0.13640417
-0.00076909371
0.15578002
-0.00027446184
0.17752949
0.0001404344
0.20192087
0.00046525092
0.22927337
0.00069604792
0.25996625
0.00083509904
0.2944428
0.00088722702
0.33321518
0.00086430079
0.37685653
0.00078314136
0.42602023
0.00065698554
0.48133525
0.00050157922
0.54348255
0.00034123441
0.61298005
0.00018720199
0.69028948
5.4078084e-05
0.77461659
0.867558
-0.0081541583
0.015367373
0.0083155117
-0.0079648356
0.017885916
-0.0077468948
0.020797794
-0.0074991847
0.024161955
-0.0072198567
0.028047132
-0.0069063276
0.032532529
-0.0065553538
0.037708852
-0.0061634337
0.043678288
-0.0057272987
0.050554277
-0.0052445445
0.058462083
-0.0047147184
0.067537651
-0.0041405692
0.077925964
-0.0035292819
0.089779629
-0.0028932137
0.10325821
-0.0022498078
0.11852941
-0.0016205217
0.13577255
-0.001028585
0.1551855
-0.00049610579
0.17699417
-4.125364e-05
0.20146288
0.00032316911
0.22890552
0.00059075745
0.25969493
0.00076164985
0.29426792
0.00083975333
0.33313293
0.0008369954
0.37685521
0.00077024321
0.42608342
0.00065296979
0.48145008
0.00050219923
0.54363352
0.00034384631
0.61314405
0.0001896746
0.69044952
5.4688668e-05
0.77477999
0.86771152
-0.008544798
0.015208294
0.0087031679
-0.0083576616
0.017698012
-0.0081408664
0.020580166
-0.007893209
0.023913393
-0.0076129416
0.027765885
-0.0072976915
0.03221622
-0.0069444743
0.037354492
-0.0065500018
0.043282585
-0.006111132
0.050114082
-0.0056254049
0.057974929
-0.0050919918
0.0670027
-0.0045128527
0.077345164
-0.0038939333
0.089158911
-0.0032460404
0.10260836
-0.0025851943
0.11786642
-0.0019319314
0.13511692
-0.0013094299
0.15456039
-0.00074090193
0.17642276
-0.00024665409
0.20096547
0.00015806265
0.22849734
0.00046424899
0.25938497
0.00066960726
0.29405851
0.0007764039
0.33302189
0.00079665467
0.37683074
0.00074743758
0.42612885
0.00064164707
0.48155318
0.00049770926
0.54377731
0.00034302163
0.61330407
0.00019010788
0.69060837
5.3662817e-05
0.77494665
0.86788061
-0.0088575358
0.015058183
0.0090069605
-0.0086790238
0.017518737
-0.0084702054
0.020370506
-0.0082297051
0.023671973
-0.0079557458
0.027490925
-0.0076460286
0.031905421
-0.0072977024
0.037004999
-0.0069075872
0.042891214
-0.0064725741
0.04967772
-0.0059900929
0.057490999
-0.0054589415
0.066469992
-0.0048803277
0.076764877
-0.0042590511
0.088535828
-0.0036045257
0.10195187
-0.0029312857
0.11719103
-0.002258714
0.13444199
-0.0016096275
0.1539087
-0.0010078994
0.17581816
-0.00047573136
0.20043015
-3.0813417e-05
0.22804896
0.00031520121
0.25903516
0.00055745383
0.29381216
0.00069849082
0.33287653
0.00074499138
0.3767799
0.00071320824
0.42615664
0.00062171354
0.4816417
0.00048708454
0.5439114
0.0003379507
0.61345825
0.00018791695
0.69076442
5.0571483e-05
0.77511677
0.86806954
-0.0090882779
0.014921491
0.0092241564
-0.0089233816
0.017353014
-0.0087279432
0.020174217
-0.008500422
0.023443557
-0.0082389799
0.027228528
-0.0079413291
0.03160674
-0.0076046594
0.036667214
-0.007225789
0.042511134
-0.0068015194
0.04925214
-0.0063290629
0.057017127
-0.0058067759
0.065946181
-0.0052351266
0.076191585
-0.0046178095
0.087916738
-0.003962854
0.10129499
-0.0032832555
0.11650933
-0.0025970664
0.13375349
-0.0019264141
0.15323549
-0.0012954543
0.17518438
-0.00072786644
0.19985944
-0.00024375341
0.22756141
0.00014256723
0.25864508
0.00042349414
0.29352714
0.00059958971
0.33269608
0.00067494367
0.37670013
0.0006656946
0.42616169
0.00059174181
0.48171242
0.00046918088
0.54403303
0.00032769828
0.61360455
0.00018226939
0.69091596
4.747523e-05
0.77528741
0.86810858
-0.0092361349
0.014801633
0.0093554535
-0.0090885986
0.017204854
-0.0089109382
0.019995853
-0.0087013095
0.023233145
-0.0084576975
0.026984054
-0.0081777438
0.031325842
-0.007858633
0.036347071
-0.0074971621
0.042148538
-0.0070900203
0.048843774
-0.0066341664
0.056559945
-0.0061274735
0.06543805
-0.0055696271
0.075632182
-0.0049631979
0.08730862
-0.0043147405
0.1006447
-0.003635652
0.11582822
-0.0029424657
0.13305807
-0.0022562868
0.15254684
-0.0016011763
0.17452653
-0.0010018263
0.19925706
-0.00048053105
0.22703677
-5.4295585e-05
0.25821515
0.00026639217
0.29320241
0.00047908372
0.33247904
0.0005857422
0.376589
0.00060293663
0.42614012
0.00055020362
0.48176168
0.00044273079
0.54413923
0.00031119983
0.61374079
0.00017206709
0.69106135
3.999083e-05
0.77545878
0.868357
-0.0093264937
0.014696814
0.0094309396
-0.0091950383
0.01707295
-0.0090344639
0.019834755
-0.0088428093
0.023040887
-0.0086180128
0.026758568
-0.0083577098
0.031064761
-0.0080590808
0.03604757
-0.0077188519
0.041807339
-0.0073335154
0.048457367
-0.0068996728
0.056124927
-0.0064146042
0.064951693
-0.0058771096
0.075093278
-0.0052885291
0.086718494
-0.0046538616
0.10000833
-0.0039827163
0.1151552
-0.0032898828
0.13236315
-0.0025951308
0.15184977
-0.0019220073
0.17385081
-0.0012957084
0.19862787
-0.00074032093
0.22647817
-0.00027553686
0.25774681
8.5242625e-05
0.29283769
0.00033661604
0.33222336
0.00048037547
0.37644076
0.00052729448
0.42608865
0.00049555657
0.48178976
0.00040636129
0.5442269
0.00028727299
0.61386464
0.00015588311
0.6911992
2.894834e-05
0.77562858
0.86864349
-0.0093715407
0.014605239
0.0094627943
-0.0092545997
0.01695563
-0.009109773
0.019689488
-0.0089350507
0.022865659
-0.0087284189
0.026551361
-0.0084876424
0.030823336
-0.0082100655
0.035769269
-0.0078925144
0.041488985
-0.007531418
0.048095382
-0.0071230877
0.055715614
-0.0066642036
0.06449172
-0.0061525948
0.07458046
-0.0055882506
0.086152806
-0.0049744552
0.099393037
-0.0043188171
0.11449789
-0.0036341145
0.13167657
-0.002938424
0.15115197
-0.0022542983
0.17316431
-0.0016069346
0.19797784
-0.0010216944
0.22588993
-0.00052077167
0.25724251
-0.00012045285
0.29243359
0.0001708476
0.33192787
0.00035373526
0.37625336
0.00043306367
0.4260046
0.00042590867
0.48179323
0.0003585924
0.54429269
0.00025465909
0.61397356
0.00013222473
0.69132829
9.4314797e-06
0.77579752
0.86897001
-0.0093805269
0.01452519
0.0094604103
-0.0092761984
0.016851093
-0.009145207
0.019558243
-0.0089856003
0.022705748
-0.0087955365
0.026360937
-0.0085730549
0.030600432
-0.0083158289
0.035511554
-0.0080209653
0.041193561
-0.00768501
0.047758788
-0.0073041321
0.055334007
-0.0068745083
0.064061265
-0.0063930356
0.074098038
-0.0058582922
0.085616981
-0.0052717294
0.098805243
-0.0046388348
0.11386359
-0.0039700914
0.13100623
-0.0032814636
0.15046151
-0.0025939883
0.17247475
-0.0019323507
0.19731382
-0.0013225996
0.22527747
-0.00078902038
0.25670583
-0.00035074722
0.29199177
-1.9368519e-05
0.33159248
0.00020184394
0.37602771
0.00031550851
0.42588624
0.00033912788
0.4817659
0.00029790463
0.54433235
0.00021206371
0.61406478
9.996752e-05
0.69144728
-2.0024501e-05
0.77596632
0.86934041
-0.0093598233
0.014456085
0.0094289624
-0.0092673321
0.016758608
-0.0091491712
0.01944006
-0.0090034074
0.022559928
-0.0088283835
0.026185816
-0.0086225064
0.03039441
-0.0083839621
0.035272811
-0.0081104063
0.040919744
-0.007798812
0.047446861
-0.007445508
0.054980287
-0.0070464145
0.063661657
-0.0065976495
0.073648646
-0.0060964678
0.085115045
-0.0055424355
0.098250316
-0.0049387516
0.11325886
-0.0042933507
0.13035959
-0.003619711
0.14978642
-0.0029368663
0.1717902
-0.0022683909
0.19664334
-0.0016404224
0.22464715
-0.0010787235
0.25614138
-0.00060510923
0.29151493
-0.00023430684
0.33121791
2.6856784e-05
0.3757623
0.00018077419
0.42572827
0.00023845116
0.48170457
0.00022290231
0.5443452
0.00015824052
0.61413522
5.8036787e-05
0.69155455
-6.1442346e-05
0.77613671
0.86976039
-0.0092712232
0.014401601
0.0093259587
-0.0091946587
0.016682283
-0.0090936926
0.019339321
-0.0089661527
0.0224326
-0.0088102785
0.02603013
-0.0086245943
0.030208883
-0.0084076373
0.035055972
-0.0081575999
0.040669779
-0.0078720473
0.047161324
-0.0075477615
0.054655949
-0.0071807939
0.063294553
-0.006766898
0.073234513
-0.0063023404
0.084650134
-0.0057850453
0.097732536
-0.0052159663
0.11268915
-0.0046004325
0.12974326
-0.003949194
0.14913419
-0.0032788466
0.17111862
-0.0026112904
0.19597427
-0.0019720729
0.22400606
-0.0013877423
0.25555474
-0.00088241005
0.29100676
-0.00047376554
0.33080581
-0.0001719365
0.37545644
2.4598454e-05
0.42552783
0.00011901374
0.48160645
0.00013198248
0.54432932
9.2020541e-05
0.6141814
4.2940651e-06
0.69164833
-0.00011508545
0.77631004
0.87023345
-0.0091105861
0.014366191
0.0091464974
-0.0090548422
0.016627043
-0.008976244
0.019261228
-0.0088721792
0.022329034
-0.008740548
0.025898981
-0.0085797342
0.030048526
-0.0083883735
0.034865037
-0.0081650338
0.040446833
-0.0079078804
0.046904532
-0.0076143302
0.054362723
-0.007280898
0.062961396
-0.0069033892
0.072857209
-0.0064775125
0.084224371
-0.0059999153
0.097254944
-0.0054695555
0.11215867
-0.0048892335
0.12916269
-0.0042668849
0.14851141
-0.0036163611
0.17046745
-0.0029573504
0.19531434
-0.0023141651
0.2233616
-0.0017134253
0.25495226
-0.0011808996
0.29047189
-0.00073702668
0.33035887
-0.00039512281
0.37511072
-0.00015821621
0.42528692
-2.5524231e-05
0.48147
2.2899616e-05
0.54427815
1.3495359e-05
0.6141981
-5.6828904e-05
0.69172431
-0.00017607905
0.77648234
0.87076103
-0.0088374804
0.014356522
0.0088477946
-0.008810564
0.016600827
-0.0087632727
0.01921469
-0.0086922129
0.022258766
-0.0085947096
0.025802288
-0.0084685223
0.029923149
-0.0083118732
0.034709189
-0.0081232803
0.04025903
-0.0079011952
0.046683232
-0.0076435601
0.054105869
-0.0073474827
0.062666086
-0.0070091749
0.072519631
-0.0066242955
0.083840159
-0.0061888001
0.09682004
-0.0057001984
0.11167058
-0.0051591468
0.12862204
-0.0045709318
0.14792347
-0.0039465589
0.16984317
-0.0033031541
0.19467076
-0.0026632161
0.22272113
-0.0020527391
0.25434074
-0.0014983298
0.28991575
-0.0010227704
0.32988072
-0.00064212889
0.37472651
-0.00036349153
0.4250042
-0.0001864824
0.48128905
-9.8901982e-05
0.54418758
-8.1521101e-05
0.61418709
-0.00012977708
0.69177863
-0.00023960622
0.77664268
0.87107102
-0.0084316517
0.014376332
0.0084126204
-0.0084383614
0.016608367
-0.0084300592
0.019207283
-0.0084028012
0.022232474
-0.0083517458
0.025752277
-0.0082730136
0.029845541
-0.0081639996
0.034601368
-0.0080224236
0.040118692
-0.0078462687
0.046508333
-0.0076334816
0.053894338
-0.0073815291
0.06241538
-0.0070871299
0.072226472
-0.0067463496
0.08350062
-0.0063551415
0.096430077
-0.0059103798
0.11122705
-0.0054112493
0.12812411
-0.0048608482
0.14737419
-0.0042675661
0.16925087
-0.0036458188
0.19404976
-0.0030158519
0.22209155
-0.0024023599
0.25372709
-0.001831926
0.28934435
-0.0013291802
0.32937596
-0.00091269748
0.37430677
-0.00059222083
0.42467952
-0.00037068866
0.48106294
-0.00024255092
0.54405539
-0.00019116604
0.61414113
-0.00021293031
0.69180578
-0.00030297393
0.7767797
0.8712356
-0.0079748734
0.014433605
0.0079185466
-0.0080196789
0.01665419
-0.0080499161
0.019238553
-0.0080635195
0.022247141
-0.0080584526
0.02574838
-0.0080305525
0.02981895
-0.0079738463
0.034546127
-0.007884204
0.040030664
-0.0077591756
0.04638504
-0.0075962321
0.053733217
-0.0073926299
0.062213668
-0.0071452494
0.071981044
-0.0068505141
0.083207909
-0.0065046326
0.0960863
-0.0061043778
0.11082897
-0.0056481668
0.12767011
-0.0051375275
0.14686574
-0.00457861
0.16869404
-0.003983215
0.19345626
-0.0033690497
0.22147891
-0.0027588604
0.25311781
-0.0021783903
0.28876387
-0.0016531731
0.32884943
-0.0012041721
0.37385487
-0.00084377107
0.42431464
-0.00057847825
0.48079229
-0.00040549922
0.5438787
-0.00031411418
0.61405358
-0.00030601585
0.69179882
-0.00037088822
0.77688199
0.87132325
-0.0074998649
0.01453366
0.0074006326
-0.0075913716
0.016746684
-0.0076703937
0.019318771
-0.0077320851
0.0223102
-0.0077723339
0.025790059
-0.0077890901
0.029837194
-0.0077811799
0.034539827
-0.0077437858
0.039995041
-0.0076703912
0.046313621
-0.0075573515
0.053622387
-0.0074015942
0.062060374
-0.0072000853
0.071782259
-0.0069496369
0.082960432
-0.0066469887
0.095786834
-0.0062892082
0.11047453
-0.0058744856
0.12725882
-0.0054033409
0.14639807
-0.0048800846
0.16817424
-0.0043140435
0.19289352
-0.0037202065
0.22088801
-0.0031188819
0.25251875
-0.0025342086
0.28818035
-0.0019916118
0.3283064
-0.001513335
0.37337408
-0.00111512
0.42391159
-0.00080631541
0.48047707
-0.0005850577
0.5436515
-0.00045061024
0.6139198
-0.00040947063
0.69175537
-0.00044550051
0.77694951
0.87133422
-0.0070904657
0.014665891
0.0069589344
-0.0072195725
0.016876611
-0.0073418675
0.019442049
-0.0074517252
0.022421274
-0.0075428654
0.025882738
-0.0076088654
0.029905036
-0.0076446263
0.034577607
-0.0076482069
0.040000828
-0.0076173546
0.046285277
-0.0075462554
0.053554178
-0.0074312113
0.061948632
-0.0072691435
0.071623912
-0.0070571766
0.082752583
-0.00679252
0.09552664
-0.0064726105
0.11015936
-0.0060956435
0.12688681
-0.0056615534
0.14596908
-0.0051732187
0.16769105
-0.0046376983
0.19236305
-0.0040672099
0.2203222
-0.0034792709
0.25193473
-0.0028957905
0.28759949
-0.0023410989
0.32775236
-0.0018381209
0.3728691
-0.0014047895
0.42347312
-0.0010534147
0.48011796
-0.00078629675
0.54337575
-0.00060664667
0.61373677
-0.0005238606
0.69166597
-0.0005248857
0.7769728
0.87131957
-0.0068972837
0.014808147
0.0067558808
-0.0070388547
0.017019191
-0.0071770148
0.019581398
-0.0073074235
0.022553075
-0.0074247089
0.026001654
-0.0075223127
0.030004599
-0.0075926981
0.034650426
-0.0076291103
0.040040138
-0.0076279999
0.046287435
-0.0075873637
0.053517247
-0.0075027107
0.061868199
-0.0073704592
0.071496445
-0.0071879511
0.082575426
-0.0069529745
0.095297545
-0.0066635525
0.1098763
-0.0063181818
0.1265482
-0.0059164743
0.14557444
-0.0054601686
0.16724198
-0.0049543536
0.19186442
-0.004408539
0.21978321
-0.0038372145
0.25136938
-0.0032595114
0.28702623
-0.002697808
0.32719272
-0.0021748616
0.37234488
-0.001709803
0.42300267
-0.0013175729
0.47971642
-0.0010040335
0.5430505
-0.00077368792
0.61349798
-0.00064373398
0.69152422
-0.00061390728
0.7769533
0.87144593
-0.0070278429
0.014940576
0.0068966155
-0.0071598345
0.017152576
-0.0072893674
0.019712551
-0.0074125011
0.02267809
-0.0075246061
0.026115945
-0.0076205067
0.030103037
-0.0076946251
0.034727482
-0.0077404622
0.040089444
-0.0077504455
0.046301552
-0.0077198043
0.05349139
-0.0076459573
0.06179981
-0.0075263158
0.071382999
-0.007358515
0.082414594
-0.0071406555
0.095087384
-0.0068711406
0.10961513
-0.0065486907
0.12623468
-0.0061725941
0.14520777
-0.005743542
0.16682268
-0.005264804
0.19139549
-0.0047432732
0.21927113
-0.0041902873
0.25082488
-0.0036217958
0.28646446
-0.0030575777
0.32663236
-0.0025193004
0.37180635
-0.002026379
0.42250426
-0.0015957291
0.47927477
-0.0012365613
0.54267599
-0.00095756478
0.61320409
-0.00077654238
0.69132518
-0.00068367414
0.77687984
0.87150557
-0.0074251793
0.015052856
0.0073150569
-0.0075356165
0.017265436
-0.0076433794
0.019823041
-0.0077447889
0.022782566
-0.0078355192
0.026210124
-0.0079106666
0.030182072
-0.0079648979
0.034786106
-0.0079927592
0.040122258
-0.0079896064
0.04630397
-0.0079503957
0.053458459
-0.0078706483
0.061727115
-0.0077475731
0.071267789
-0.0075794691
0.082255199
-0.0073651003
0.094882616
-0.0071034183
0.10936397
-0.0067934517
0.12593612
-0.0064344046
0.14486091
-0.0060261417
0.16642717
-0.0055701938
0.19095249
-0.0050708813
0.21878446
-0.0045363548
0.25030197
-0.0039791584
0.28591683
-0.0034159876
0.32607537
-0.0028666116
0.37125817
-0.002349856
0.42198213
-0.0018838082
0.47879596
-0.0014807446
0.54225339
-0.001153632
0.61285464
-0.00091497956
0.69106282
-0.00077252391
0.77672584
0.87171182
-0.0078795064
0.01514717
0.0077883493
-0.007970533
0.017359958
-0.0080587261
0.019915114
-0.0081406895
0.022868887
-0.0082124397
0.026286752
-0.0082694286
0.030244507
-0.0083067083
0.034829464
-0.0083190593
0.040141397
-0.0083006434
0.046293125
-0.0082459534
0.053412198
-0.0081521936
0.061642713
-0.0080173769
0.071143306
-0.0078403691
0.082089564
-0.007620722
0.094675448
-0.0073582529
0.10911512
-0.0070526061
0.1256452
-0.0067031509
0.14452718
-0.0063092807
0.16604977
-0.0058711461
0.19053118
-0.0053908059
0.2183207
-0.0048734205
0.24980005
-0.0043281515
0.2853847
-0.0037683916
0.32552479
-0.0032113814
0.37070435
-0.0026746311
0.42144045
-0.0021764781
0.47828318
-0.0017316539
0.54178406
-0.0013566723
0.61244825
-0.0010570167
0.69072656
-0.0008398905
0.77647368
0.87141156
-0.0081060012
0.015236221
0.008021198
-0.0081909791
0.017449696
-0.0082737071
0.020003175
-0.0083510884
0.022952235
-0.0084193368
0.026361655
-0.0084740711
0.030306636
-0.0085104698
0.034874071
-0.00852362
0.040163753
-0.0085091439
0.046288978
-0.008461895
0.053376336
-0.0083761092
0.061569383
-0.0082487981
0.0710296
-0.0080785083
0.08193412
-0.0078650386
0.09447815
-0.007608932
0.10887657
-0.0073108176
0.12536601
-0.0069709765
0.14420748
-0.0065893447
0.16568923
-0.0061658831
0.19012932
-0.0057014661
0.21787774
-0.0051991418
0.24931803
-0.0046652245
0.28486844
-0.0041099417
0.32498252
-0.0035476228
0.37014786
-0.0029942002
0.42088283
-0.0024671626
0.47773937
-0.0019827645
0.54126872
-0.0015589664
0.61198
-0.0011967443
0.69030462
-0.00092595724
0.77612697
0.87121732
-0.0079639982
0.01534038
0.0078650461
-0.0080652371
0.0175568
-0.0081664929
0.020111035
-0.0082647732
0.023057943
-0.0083563007
0.026461526
-0.0084365177
0.030396212
-0.0085001962
0.034948212
-0.0085417065
0.040216833
-0.0085558674
0.046315863
-0.0085392095
0.053373766
-0.0084869309
0.061532705
-0.0083919262
0.070951794
-0.0082508457
0.081811906
-0.0080631193
0.094311004
-0.0078290722
0.10866483
-0.0075496382
0.12511059
-0.0072259878
0.14390941
-0.0068591951
0.16534928
-0.0064501241
0.18974788
-0.0059998006
0.21745504
-0.0055104268
0.24885506
-0.0049864841
0.28436789
-0.004435622
0.32444957
-0.0038693471
0.36959081
-0.0033015233
0.4203118
-0.0027479228
0.47716627
-0.0022248476
0.54070629
-0.0017505345
0.61144354
-0.0013290199
0.68979642
-0.00097893615
0.77569064
0.87077665
-0.0075355595
0.015470427
0.0074113201
-0.0076653946
0.017693218
-0.0077988585
0.020251959
-0.0079332188
0.023200748
-0.0080648414
0.026602697
-0.0081890924
0.03053125
-0.0083002906
0.035071579
-0.0083916727
0.040321893
-0.0084555839
0.046395081
-0.0084853071
0.053420549
-0.00847726
0.061543626
-0.008430026
0.070925604
-0.0083376482
0.081742751
-0.0081951181
0.094193948
-0.0080003613
0.10849782
-0.007753595
0.1248938
-0.0074562845
0.14364416
-0.0071103791
0.16503725
-0.0067179828
0.18939061
-0.0062813482
0.21705379
-0.0058031804
0.248411
-0.0052873828
0.28388272
-0.0047399832
0.32392622
-0.0041700977
0.36903434
-0.0035893341
0.41972885
-0.0030111149
0.47656486
-0.002450294
0.54009555
-0.0019252715
0.61083555
-0.0014477682
0.68920232
-0.0010153454
0.775169
0.87009231
-0.0072310896
0.015613105
0.0070945435
-0.0073756517
0.017844715
-0.007526752
0.020410896
-0.0076821513
0.02336505
-0.007838801
0.02676947
-0.007992711
0.030696643
-0.0081388303
0.035230701
-0.0082710488
0.040468838
-0.0083819514
0.046522735
-0.0084624148
0.053520182
-0.0085035377
0.06160665
-0.0084986456
0.070945496
-0.0084439331
0.081715905
-0.0083353559
0.094116486
-0.0081711816
0.10836797
-0.0079509272
0.12471093
-0.0076756462
0.14340915
-0.0073474462
0.16475181
-0.0069689873
0.18905667
-0.0065432638
0.21667311
-0.0060734155
0.24798483
-0.005563126
0.28341198
-0.0050173948
0.32341203
-0.0044434394
0.36847867
-0.0038506552
0.41913462
-0.0032498017
0.47593553
-0.0026533298
0.53943567
-0.0020784243
0.61015281
-0.0015431255
0.68851071
-0.001070846
0.77455477
0.86940952
-0.0073204132
0.015747123
0.0071935476
-0.0074553123
0.017987748
-0.0075970428
0.02056189
-0.0077437933
0.023522351
-0.0078930144
0.026930695
-0.0080412922
0.030858573
-0.0081842651
0.035389195
-0.0083165925
0.040618805
-0.0084320174
0.046658196
-0.0085232648
0.053634181
-0.0085815494
0.061690805
-0.0085968512
0.070990261
-0.0085641159