/*--------------------------------*- C++ -*----------------------------------*\
| =========                 |                                                 |
| \\      /  F ield         | OpenFOAM: The Open Source CFD Toolbox           |
|  \\    /   O peration     | Version:  2406                                  |
|   \\  /    A nd           | Website:  www.openfoam.com                      |
|    \\/     M anipulation  |                                                 |
\*---------------------------------------------------------------------------*/
FoamFile
{
    version     2.0;
    format      ascii;
    arch        "LSB;label=32;scalar=64";
    class       volScalarField;
    location    "0.01";
    object      T;
}
// * * * * * * * * * * * * * * * * * * * * * * * * * * * * * * * * * * * * * //

dimensions      [0 0 0 1 0 0 0];

internalField   nonuniform List<scalar> 
2065
(
293.13447
293.1954
293.30696
292.86603
292.85244
292.84694
292.84808
292.85441
292.86464
292.87758
292.89237
292.90846
292.92554
292.94354
292.96254
292.98287
293.00501
293.02979
293.0578
293.09176
293.1347
293.19581
293.30866
293.44006
293.36963
293.30431
293.24307
293.18476
293.12866
293.07492
293.02457
292.97895
292.93948
292.90735
292.88333
292.8676
292.85966
292.85843
292.86261
292.87096
292.88235
292.89593
292.91107
292.92744
292.94491
292.96353
292.98357
293.00549
293.03011
293.058
293.09191
293.13496
293.19622
293.31088
293.43018
293.36505
293.30415
293.24692
293.19243
293.13997
293.08951
293.04176
292.99782
292.95896
292.92641
292.90108
292.88338
292.8731
292.8695
292.87147
292.87786
292.88761
292.89987
292.91398
292.92957
292.94646
292.96464
292.98436
293.00604
293.03047
293.05825
293.09208
293.13522
293.19662
293.31373
293.42257
293.36248
293.30569
293.25202
293.20085
293.1516
293.10409
293.05878
293.01653
292.97843
292.94567
292.91926
292.89976
292.88725
292.88129
292.88101
292.88537
292.89339
292.90423
292.91723
292.93196
292.9482
292.9659
292.98525
293.00667
293.03089
293.05854
293.09229
293.13549
293.197
293.31735
293.4179
293.36232
293.30927
293.25877
293.21049
293.16398
293.11904
293.07593
293.03526
292.99798
292.96517
292.93785
292.91673
292.90211
292.89383
292.89126
292.89352
292.89972
292.90904
292.92084
292.93462
292.95014
292.96731
292.98626
293.00737
293.03136
293.05888
293.09252
293.13576
293.19734
293.32195
293.41681
293.36504
293.31521
293.26749
293.22169
293.1775
293.13471
293.09348
293.05423
293.01774
292.98495
292.95686
292.93427
292.91766
292.90711
292.90224
292.90234
292.90663
292.91435
292.92484
292.93759
292.95232
292.9689
292.9874
293.00817
293.0319
293.05926
293.0928
293.13604
293.19762
293.32343
293.41925
293.37089
293.32387
293.27852
293.23478
293.19247
293.15142
293.11171
293.07365
293.03783
293.00507
292.97631
292.95237
292.93389
292.92113
292.91395
292.91186
292.91416
292.92017
292.92926
292.9409
292.95476
292.97068
292.98868
293.00908
293.03252
293.0597
293.0931
293.13631
293.19781
293.32086
293.42557
293.38016
293.33552
293.29212
293.25003
293.20918
293.16945
293.13089
293.09373
293.05841
293.02563
292.99622
292.97103
292.95078
292.93589
292.92642
292.92208
292.92234
292.92655
292.93414
292.94458
292.95749
292.97268
292.99013
293.0101
293.03322
293.06019
293.09344
293.13656
293.19789
293.3189
293.43589
293.39294
293.3503
293.30847
293.26764
293.22783
293.18901
293.15122
293.11464
293.0796
293.04668
293.01663
292.99025
292.96831
292.95136
292.93963
292.93303
292.93118
292.93352
292.93951
292.94866
292.96053
292.97492
292.99176
293.01126
293.03401
293.06074
293.09381
293.13679
293.19785
293.31776
293.45054
293.40949
293.36835
293.32767
293.2877
293.24855
293.21024
293.17285
293.13651
293.10151
293.06831
293.03756
293.01002
292.98646
292.96752
292.95358
292.94471
292.94069
292.94109
292.94541
292.95316
292.96392
292.97742
292.99359
293.01256
293.03491
293.06136
293.09421
293.13699
293.19763
293.31781
293.46909
293.42952
293.38952
293.34963
293.31017
293.27131
293.23316
293.19581
293.15941
293.12419
293.09054
293.05902
293.03032
293.0052
292.98434
292.96824
292.95711
292.9509
292.9493
292.95185
292.95812
292.96767
292.98022
292.99565
293.01404
293.03593
293.06205
293.09463
293.13713
293.19718
293.31046
293.49107
293.45263
293.41343
293.37403
293.33478
293.29593
293.25763
293.22003
293.18329
293.14763
293.11336
293.08098
293.05111
293.02447
293.00177
292.98357
292.97022
292.9618
292.95814
292.95887
292.96357
292.97184
292.98335
292.99794
293.0157
293.03707
293.06282
293.09506
293.13721
293.19648
293.30371
293.51553
293.47799
293.43939
293.40029
293.36107
293.32202
293.28337
293.24531
293.20802
293.17172
293.1367
293.10339
293.07234
293.04422
293.01974
292.99952
292.984
292.97338
292.96763
292.96648
292.96954
292.97644
292.98682
293.00051
293.01756
293.03836
293.06367
293.09551
293.13721
293.19548
293.29777
293.54131
293.50457
293.46649
293.42762
293.38835
293.34902
293.30992
293.27128
293.23332
293.19627
293.16041
293.12612
293.09389
293.06436
293.03818
293.01603
292.9984
292.98563
292.97777
292.97468
292.97604
292.98148
292.99066
293.00338
293.01965
293.03981
293.0646
293.09596
293.13709
293.19414
293.29289
293.56713
293.5312
293.49368
293.45508
293.4158
293.37623
293.33669
293.29746
293.25881
293.22099
293.18427
293.14899
293.11563
293.08475
293.05698
293.033
293.01336
292.99848
292.98854
292.98349
292.98309
292.98701
292.99491
293.00658
293.022
293.04144
293.06563
293.0964
293.13684
293.19242
293.28937
293.59133
293.55641
293.51966
293.48153
293.44245
293.40281
293.36298
293.32328
293.28403
293.2455
293.20797
293.17179
293.13737
293.10524
293.07601
293.05033
293.0288
293.0119
292.99991
292.9929
292.9907
292.99304
292.9996
293.01013
293.0246
293.04325
293.06676
293.09682
293.13642
293.19021
293.28768
293.6125
293.57891
293.54324
293.50591
293.46733
293.42792
293.38806
293.34812
293.30846
293.26939
293.2312
293.19424
293.15889
293.12566
293.09512
293.0679
293.04462
293.02581
293.01185
293.00288
292.99887
292.99958
293.00473
293.01406
293.0275
293.04528
293.06799
293.09723
293.1358
293.18741
293.28876
293.62966
293.59777
293.56358
293.52743
293.48973
293.45089
293.41134
293.37146
293.33165
293.29226
293.25361
293.21606
293.17997
293.14582
293.11414
293.08556
293.06069
293.04012
293.02428
293.01342
293.00759
293.00665
293.01033
293.01838
293.03073
293.04753
293.06934
293.0976
293.13494
293.18379
293.26895
293.64176
293.61202
293.57977
293.54529
293.50894
293.47113
293.43228
293.39283
293.35319
293.31377
293.27491
293.23699
293.20037
293.1655
293.1329
293.10316
293.0769
293.05473
293.03714
293.02447
293.01686
293.01424
293.01641
293.02313
293.0343
293.05002
293.07082
293.09794
293.13381
293.17936
293.24949
293.6491
293.62187
293.59194
293.55952
293.52492
293.48852
293.45074
293.41204
293.37289
293.3337
293.29489
293.25682
293.21989
293.18453
293.15123
293.12055
293.09311
293.06953
293.05034
293.03597
293.02663
293.02234
293.02298
293.02832
293.03823
293.05277
293.07244
293.09825
293.13238
293.17416
293.23051
293.65093
293.62659
293.59943
293.56955
293.53719
293.50268
293.46641
293.42887
293.39054
293.35189
293.31338
293.27541
293.23839
293.20275
293.16897
293.13758
293.10918
293.08439
293.06379
293.04784
293.03686
293.03095
293.03004
293.03395
293.04252
293.05581
293.07421
293.09853
293.13063
293.16826
293.21218
293.64735
293.62621
293.60218
293.57528
293.54562
293.51347
293.47918
293.44321
293.40606
293.36826
293.3303
293.29266
293.25576
293.22006
293.18601
293.15413
293.125
293.09922
293.07738
293.06002
293.0475
293.04002
293.03757
293.04003
293.0472
293.05915
293.07616
293.09877
293.12855
293.16176
293.1947
293.638
293.62022
293.59961
293.57606
293.54959
293.52033
293.48856
293.45467
293.41918
293.38262
293.34555
293.3085
293.27195
293.23638
293.20226
293.1701
293.14044
293.11388
293.09103
293.07242
293.0585
293.04953
293.04557
293.04655
293.0523
293.0628
293.07825
293.09898
293.12614
293.15477
293.17834
293.62399
293.60948
293.59231
293.57228
293.54926
293.52327
293.49446
293.46314
293.42977
293.39487
293.35905
293.32287
293.28691
293.25167
293.21767
293.18541
293.15543
293.1283
293.10462
293.08495
293.06978
293.05941
293.05401
293.05352
293.05779
293.06676
293.08051
293.09915
293.12341
293.14746
293.16352
293.60655
293.59503
293.58111
293.5645
293.54498
293.52243
293.49688
293.46852
293.43769
293.4049
293.3707
293.33573
293.30061
293.26593
293.23223
293.20004
293.16991
293.1424
293.11808
293.09754
293.08126
293.06963
293.06284
293.0609
293.06367
293.07103
293.08295
293.0993
293.1204
293.14002
293.15073
293.58778
293.57883
293.5677
293.55413
293.53787
293.51868
293.49644
293.4712
293.44319
293.4128
293.38056
293.3471
293.31308
293.27915
293.24593
293.21398
293.18386
293.15613
293.13135
293.1101
293.09289
293.08011
293.07202
293.06866
293.06991
293.07561
293.08555
293.09942
293.11716
293.13267
293.14261
293.56937
293.56267
293.55406
293.54314
293.5296
293.51328
293.49404
293.47179
293.44661
293.41877
293.38871
293.35701
293.32434
293.29139
293.25881
293.22724
293.19727
293.16946
293.14438
293.12259
293.10459
293.0908
293.0815
293.07677
293.0765
293.08045
293.0883
293.09953
293.11375
293.12559
293.1385
293.553
293.54779
293.54099
293.5323
293.52133
293.50768
293.49109
293.47151
293.44897
293.42359
293.39571
293.36584
293.33463
293.30277
293.27097
293.23989
293.21017
293.1824
293.15715
293.13495
293.11631
293.10165
293.09124
293.08518
293.08339
293.08553
293.0912
293.09966
293.11025
293.11895
293.13952
293.54025
293.53602
293.53041
293.52312
293.51384
293.50225
293.48802
293.47083
293.45061
293.4275
293.40172
293.37371
293.34403
293.31337
293.28244
293.25196
293.22259
293.19496
293.16964
293.14716
293.12801
293.11259
293.10117
293.09386
293.09054
293.09084
293.09424
293.09982
293.1068
293.11294
293.15089
293.53003
293.52651
293.52179
293.51558
293.50757
293.49746
293.48494
293.46976
293.45168
293.43067
293.40692
293.38074
293.35264
293.32325
293.29329
293.2635
293.23457
293.20717
293.18187
293.1592
293.13965
293.12357
293.11125
293.10274
293.09791
293.09636
293.09742
293.10007
293.10349
293.10707
293.15482
293.52023
293.51738
293.51348
293.50827
293.50144
293.49269
293.48171
293.46821
293.45199
293.43296
293.41116
293.38683
293.36038
293.33238
293.30352
293.27452
293.24613
293.21903
293.19383
293.17107
293.1512
293.13457
293.12142
293.11178
293.10549
293.10206
293.10077
293.1005
293.10047
293.10108
293.1605
293.50697
293.50492
293.50198
293.49791
293.49244
293.48525
293.47605
293.46453
293.45044
293.43361
293.41399
293.3917
293.36708
293.34063
293.31302
293.28497
293.25724
293.23055
293.20554
293.18275
293.16264
293.14554
293.13164
293.12094
293.11322
293.10795
293.1043
293.10119
293.09795
293.09487
293.10461
293.48852
293.4874
293.48559
293.48285
293.47893
293.47354
293.46637
293.45709
293.44542
293.4311
293.41401
293.39417
293.37182
293.34735
293.32137
293.29458
293.26775
293.24163
293.21692
293.1942
293.17393
293.15643
293.14186
293.13017
293.12108
293.11401
293.10807
293.10225
293.09625
293.09108
293.08741
293.46465
293.4645
293.46384
293.46248
293.4602
293.45673
293.45173
293.44487
293.43581
293.42432
293.4102
293.39333
293.37379
293.35184
293.328
293.30291
293.27734
293.25208
293.22787
293.20535
293.18502
293.1672
293.15203
293.13942
293.12903
293.12022
293.1121
293.10378
293.09549
293.08927
293.09058
293.43889
293.43949
293.43976
293.43956
293.43868
293.43688
293.43389
293.42938
293.423
293.41436
293.40323
293.38946
293.37297
293.35391
293.33261
293.30965
293.28574
293.26166
293.23821
293.21607
293.19581
293.17776
293.16208
293.14863
293.13703
293.12659
293.11641
293.10578
293.09542
293.08804
293.08723
293.4168
293.41777
293.41855
293.41902
293.41902
293.41836
293.41678
293.41402
293.40973
293.40354
293.39507
293.38405
293.37039
293.35415
293.33551
293.31488
293.29288
293.27026
293.24781
293.22625
293.2062
293.18804
293.17193
293.15775
293.14505
293.1331
293.12101
293.10818
293.09565
293.08679
293.07342
293.40417
293.4051
293.40589
293.40646
293.40667
293.40635
293.40531
293.4033
293.40002
293.39518
293.38846
293.37954
293.36818
293.35426
293.33788
293.31935
293.29919
293.27805
293.25669
293.23584
293.21611
293.19795
293.18152
293.16671
293.15305
293.13976
293.12592
293.11094
293.09594
293.0848
293.06784
293.39806
293.39884
293.39952
293.4
293.40019
293.39995
293.39909
293.39741
293.39465
293.39052
293.38475
293.37703
293.3671
293.35483
293.34021
293.32344
293.30489
293.28515
293.26489
293.24479
293.22548
293.20742
293.19079
293.17549
293.16102
293.14659
293.13118
293.11409
293.09612
293.08118
293.06395
293.39102
293.39188
293.39267
293.39331
293.39371
293.39375
293.39327
293.39207
293.38992
293.38655
293.38168
293.37502
293.36633
293.35545
293.34233
293.32708
293.31
293.29156
293.27236
293.25305
293.23424
293.21639
293.1997
293.18406
293.16898
293.15362
293.13684
293.11768
293.09625
293.07599
293.06865
293.3768
293.37797
293.37913
293.38021
293.38114
293.38182
293.3821
293.3818
293.3807
293.37856
293.37507
293.36996
293.36292
293.3538
293.34252
293.32909
293.31371
293.29676
293.27879
293.26042
293.24225
293.22476
293.20816
293.19238
293.17691
293.16085
293.14292
293.12181
293.0968
293.06888
293.05573
293.35758
293.35905
293.36057
293.36211
293.36359
293.36495
293.36604
293.36673
293.36682
293.36606
293.36418
293.3609
293.35592
293.34895
293.33983
293.32855
293.31519
293.30007
293.28366
293.26652
293.24927
293.23237
293.2161
293.20039
293.18475
293.1682
293.1493
293.1264
293.09816
293.06395
293.02404
293.33926
293.34084
293.34252
293.34428
293.34606
293.34781
293.34943
293.35079
293.35173
293.35204
293.35146
293.34973
293.34656
293.34165
293.33474
293.32568
293.3145
293.3014
293.28676
293.27113
293.25505
293.23903
293.22333
293.20793
293.1923
293.17542
293.15568
293.13115
293.10012
293.06183
293.01584
293.32524
293.3268
293.32848
293.33026
293.33211
293.33398
293.33581
293.33748
293.33887
293.33978
293.34001
293.3393
293.33735
293.33386
293.32857
293.32132
293.31207
293.30092
293.28813
293.27412
293.25942
293.24449
293.2296
293.21471
293.19927
293.18215
293.16164
293.13558
293.10218
293.06115
293.01538
293.30939
293.31102
293.3128
293.3147
293.31671
293.31879
293.32088
293.32289
293.32471
293.32618
293.32711
293.32727
293.3264
293.32425
293.32057
293.31516
293.30782
293.29857
293.28759
293.27526
293.26205
293.24838
293.23449
293.22029
293.20519
293.18796
293.16675
293.13935
293.104
293.06162
293.03611
293.28865
293.29047
293.29246
293.29462
293.29694
293.2994
293.30194
293.3045
293.30698
293.30926
293.31115
293.31244
293.31289
293.31222
293.31013
293.30635
293.30079
293.29349
293.28452
293.27409
293.26255
293.25028
293.23754
293.22419
293.20958
293.19242
293.17078
293.14241
293.10573
293.06292
293.05074
293.26142
293.26349
293.26578
293.2683
293.27103
293.27398
293.2771
293.28035
293.28364
293.28686
293.28985
293.29243
293.29435
293.29534
293.29512
293.29346
293.29023
293.28524
293.27838
293.26997
293.26029
293.24964
293.23822
293.2259
293.21202
293.19527
293.17369
293.14511
293.10809
293.06402
293.0381
293.23065
293.23293
293.23546
293.23826
293.24134
293.24469
293.24829
293.25213
293.25613
293.26021
293.26424
293.26806
293.27147
293.27421
293.27603
293.2766
293.27557
293.27286
293.26855
293.26256
293.25505
293.24629
293.23644
293.2254
293.21255
293.19663
293.17581
293.14812
293.11226
293.0686
293.0204
293.19343
293.19598
293.19882
293.20198
293.20547
293.2093
293.21347
293.21797
293.22275
293.22775
293.23289
293.23803
293.24299
293.24756
293.25147
293.25444
293.25617
293.25637
293.25487
293.25163
293.24674
293.24034
293.23256
293.22326
293.21188
293.19732
293.17797
293.15221
293.11896
293.07768
293.02719
293.15283
293.1556
293.1587
293.16216
293.16601
293.17026
293.17493
293.18002
293.18552
293.19138
293.19754
293.2039
293.21032
293.21661
293.22255
293.22787
293.23226
293.23541
293.23711
293.23724
293.23568
293.23243
293.22748
293.22063
293.21134
293.19857
293.18093
293.1572
293.12673
293.08825
293.03593
293.10642
293.10946
293.11287
293.11668
293.12093
293.12566
293.13088
293.13661
293.14285
293.1496
293.1568
293.16439
293.17227
293.18028
293.18827
293.19601
293.20327
293.20981
293.21528
293.21933
293.22176
293.22241
293.2211
293.21752
293.211
293.20044
293.18435
293.16155
293.13168
293.09379
293.04001
293.0665
293.06956
293.073
293.07688
293.08122
293.08607
293.09146
293.09744
293.10402
293.1112
293.11899
293.12734
293.13619
293.14544
293.15493
293.1645
293.17394
293.18299
293.19139
293.19888
293.20517
293.20994
293.21277
293.2131
293.21006
293.20226
293.18778
293.16472
293.13231
293.09056
293.03556
293.03017
293.03322
293.03667
293.04055
293.04491
293.04981
293.05529
293.06138
293.06813
293.07557
293.0837
293.09252
293.10199
293.11202
293.12251
293.13333
293.14427
293.15513
293.16572
293.17585
293.18531
293.1937
293.2005
293.20497
293.20603
293.20184
293.18983
293.16702
293.13175
293.08543
293.02994
293.01236
293.01517
293.01836
293.02197
293.02604
293.03062
293.03573
293.04144
293.04778
293.05477
293.06244
293.07078
293.07977
293.08938
293.09954
293.11017
293.12117
293.13239
293.14371
293.15491
293.1657
293.17571
293.18447
293.1914
293.19549
293.19467
293.18569
293.16466
293.12883
293.08048
293.02637
293.00334
293.00564
293.00825
293.01122
293.01458
293.01841
293.02273
293.02763
293.03314
293.03932
293.0462
293.0538
293.06211
293.0711
293.08073
293.09092
293.10157
293.11257
293.12373
293.13485
293.14574
293.15609
293.16557
293.17364
293.17932
293.18068
293.17443
293.15637
293.12377
293.07884
293.03441
293.0166
293.01826
293.02016
293.02233
293.02481
293.02764
293.03087
293.03456
293.03874
293.04345
293.04873
293.0546
293.06105
293.0681
293.07577
293.08411
293.0931
293.10252
293.11203
293.12141
293.13053
293.13937
293.14776
293.15515
293.1606
293.16241
293.15815
293.14471
293.12012
293.09254
293.09382
293.03447
293.03571
293.03712
293.03874
293.04058
293.04268
293.04507
293.04779
293.05088
293.05438
293.05832
293.06273
293.06763
293.07305
293.07905
293.08568
293.09283
293.10027
293.10766
293.11478
293.12155
293.12794
293.13381
293.13892
293.14293
293.14519
293.14432
293.13803
293.12509
293.10725
293.06389
293.0815
293.08207
293.08273
293.0835
293.08439
293.08542
293.08662
293.088
293.08961
293.09146
293.09357
293.09598
293.0987
293.10173
293.10502
293.10846
293.11192
293.11531
293.11861
293.12167
293.12422
293.12618
293.12765
293.12884
293.13009
293.13154
293.13137
293.1246
293.10811
293.08807
293.05185
293.17252
293.17203
293.17149
293.1709
293.17029
293.16963
293.16895
293.16823
293.16748
293.1667
293.16588
293.16503
293.16412
293.16314
293.16204
293.16078
293.15934
293.15767
293.15572
293.1535
293.151
293.14805
293.14436
293.13985
293.13438
293.128
293.12073
293.10894
293.08498
293.04631
292.99864
293.72819
293.72863
293.72784
293.72494
293.72192
293.71864
293.71536
293.71357
293.71456
293.71733
293.72107
293.7294
293.74145
293.75647
293.7735
293.79096
293.80665
293.81883
293.8255
293.82576
293.8194
293.80633
293.78692
293.76215
293.73288
293.70064
293.6668
293.63358
293.60313
293.57759
293.55786
293.5437
293.53217
293.51971
293.5021
293.47856
293.45041
293.42293
293.40241
293.39323
293.81976
293.79948
293.77595
293.75234
293.73047
293.71168
293.69622
293.68517
293.67878
293.67692
293.67972
293.68786
293.7004
293.71639
293.73421
293.75183
293.76733
293.77852
293.78427
293.78386
293.77705
293.76408
293.74525
293.72133
293.69357
293.66343
293.63289
293.60414
293.57942
293.55984
293.54556
293.53399
293.52184
293.50492
293.48219
293.45464
293.42722
293.40609
293.39604
293.39128
293.38348
293.36739
293.3471
293.32905
293.3156
293.29923
293.27741
293.24879
293.21695
293.17829
293.1366
293.08898
293.04932
293.01347
292.99762
292.99124
293.00793
293.02815
293.079
293.1753
293.77167
293.73572
293.7035
293.67577
293.65248
293.63382
293.62044
293.61281
293.61085
293.61429
293.62313
293.63654
293.65401
293.67364
293.69393
293.7129
293.72848
293.73938
293.74459
293.74374
293.73706
293.72425
293.70595
293.68296
293.65693
293.62953
293.6029
293.57933
293.5602
293.54601
293.53457
293.52289
293.5068
293.48503
293.45825
293.43104
293.40944
293.39857
293.39343
293.38583
293.37019
293.35011
293.33191
293.31828
293.30204
293.28049
293.25223
293.22065
293.18237
293.14095
293.09365
293.05388
293.01788
293.00143
292.99442
293.01022
293.0298
293.07964
293.17457
293.63933
293.61204
293.58864
293.56944
293.55478
293.54502
293.54083
293.54153
293.54726
293.55833
293.57374
293.59304
293.61472
293.63742
293.65943
293.67878
293.69409
293.70431
293.70871
293.70768
293.70057
293.6878
293.66967
293.64785
293.62385
293.59969
293.57756
293.55912
293.54521
293.53405
293.52294
293.50779
293.48711
293.46125
293.43438
293.41243
293.40081
293.39531
293.38791
293.37277
293.35295
293.33465
293.32086
293.30475
293.28349
293.25558
293.22428
293.18637
293.14523
293.09823
293.05839
293.02226
293.00526
292.99757
293.01249
293.03145
293.0803
293.17385
293.53821
293.51948
293.50335
293.49021
293.48064
293.47532
293.4745
293.47787
293.48586
293.49873
293.51582
293.53659
293.55991
293.5845
293.60891
293.63129
293.65021
293.66464
293.67359
293.67743
293.67546
293.66784
293.6545
293.63682
293.61626
293.59482
293.57439
293.55682
293.54335
293.53257
293.52212
293.50798
293.48849
293.46364
293.43725
293.41507
293.40279
293.39692
293.38975
293.37512
293.35559
293.33724
293.3233
293.30734
293.28637
293.25883
293.22781
293.19027
293.14942
293.10273
293.06282
293.02657
293.0091
293.00071
293.01473
293.03311
293.081
293.17312
)
;

boundaryField
{
    Side1
    {
        type            empty;
    }
    Inlet
    {
        type            totalTemperature;
        gamma           1.4;
        T0              uniform 294.31799;
        value           nonuniform List<scalar> 
59
(
292.96278
292.96263
292.96247
292.9623
292.96213
294.31799
294.31799
292.96146
292.96118
292.9609
294.31799
292.96025
292.95989
292.95953
292.95918
292.95883
292.95849
294.31799
292.95764
292.95712
292.95661
292.95612
292.95561
292.95508
292.95454
292.954
292.95353
292.95315
292.95283
292.95895
292.95866
294.31799
292.95158
292.95149
292.95171
292.9519
292.95222
292.95306
292.95399
292.95497
292.95628
292.95817
292.96032
292.96247
292.96471
292.96673
292.96838
292.97021
292.97242
292.97466
292.97679
292.97887
292.98075
292.98277
292.98562
292.98822
292.98897
292.98874
292.98837
)
;
    }
    Side2
    {
        type            empty;
    }
    Outlet
    {
        type            zeroGradient;
    }
    Botwall
    {
        type            zeroGradient;
    }
    Cyli
    {
        type            zeroGradient;
    }
    procBoundary3to0
    {
        type            processor;
        value           nonuniform List<scalar> 7(293.72666 293.8357 293.8357 293.81064 293.81064 293.66974 293.66974);
    }
    procBoundary3to1
    {
        type            processor;
        value           nonuniform List<scalar> 
62
(
293.6732
293.67606
293.67847
293.68024
293.6822
293.68516
293.69029
293.69783
293.70798
293.72027
293.73554
293.75356
293.77365
293.7951
293.81653
293.83615
293.85178
293.86181
293.8646
293.85986
293.84783
293.82895
293.80369
293.77358
293.73963
293.70351
293.66662
293.63128
293.59962
293.57368
293.5541
293.54031
293.52901
293.51642
293.4983
293.47415
293.44558
293.41822
293.39841
293.39018
293.38887
293.38887
293.3809
293.3644
293.34396
293.32608
293.31284
293.29634
293.27425
293.24529
293.2132
293.17415
293.13221
293.08427
293.04472
293.00902
292.99383
292.98805
293.00563
293.02652
293.07838
293.17601
)
;
    }
    procBoundary3to2
    {
        type            processor;
        value           nonuniform List<scalar> 
35
(
293.13424
293.19499
293.30569
292.8492
292.83792
292.83493
292.83842
292.84685
292.85887
292.87325
292.88917
292.90611
292.92384
292.94231
292.96166
292.98225
293.00458
293.02951
293.05762
293.09164
293.09164
293.45184
293.45184
293.37564
293.30556
293.23993
293.17737
293.11724
293.05997
293.00695
292.95979
292.91993
292.8885
292.8885
293.55895
)
;
    }
}


// ************************************************************************* //
