/*--------------------------------*- C++ -*----------------------------------*\
| =========                 |                                                 |
| \\      /  F ield         | OpenFOAM: The Open Source CFD Toolbox           |
|  \\    /   O peration     | Version:  2406                                  |
|   \\  /    A nd           | Website:  www.openfoam.com                      |
|    \\/     M anipulation  |                                                 |
\*---------------------------------------------------------------------------*/
FoamFile
{
    version     2.0;
    format      ascii;
    arch        "LSB;label=32;scalar=64";
    class       volScalarField;
    location    "0.004";
    object      k;
}
// * * * * * * * * * * * * * * * * * * * * * * * * * * * * * * * * * * * * * //

dimensions      [0 2 -2 0 0 0 0];

internalField   nonuniform List<scalar> 
8950
(
260.82503
268.58731
275.53558
280.89365
284.83145
287.80314
290.15829
292.09768
293.76058
295.24067
296.59551
297.84311
298.98362
300.02095
300.95565
301.77562
302.46977
303.0322
303.43709
303.64567
303.66361
303.57519
303.31008
302.85751
302.26024
301.49312
300.66389
299.83004
298.93292
297.97823
297.07269
296.24289
295.45484
294.77682
294.2904
293.98372
293.94376
294.07149
294.26565
294.68853
295.28564
295.9954
296.78141
297.77602
298.87936
300.12299
301.48049
302.91411
304.40772
305.94969
307.52975
309.13631
310.75015
312.35074
313.91685
315.41829
316.82032
318.08597
319.17671
320.05301
320.6753
321.00555
321.01419
320.72323
320.01888
318.87048
317.278
315.2303
312.71906
309.7438
306.30997
302.42306
298.10123
293.38122
288.30315
282.91014
277.21733
271.22265
226.34864
237.55894
248.77324
257.92762
265.03071
270.58298
275.01421
278.63039
281.65804
284.25984
286.54411
288.57891
290.41023
292.06747
293.5658
294.91675
296.11858
297.15235
297.99368
298.62608
299.06282
299.31522
299.33943
299.22339
298.90767
298.4097
297.85501
297.25888
296.56473
295.82547
295.14451
294.49485
293.95019
293.61898
293.51736
293.54114
293.7385
294.18019
294.76088
295.55705
296.53662
297.6847
299.0225
300.55453
302.22066
304.00839
305.87134
307.79475
309.76177
311.75517
313.75702
315.74662
317.69808
319.58284
321.36829
323.01674
324.48945
325.74726
326.7512
327.46326
327.84697
327.87493
327.56144
326.80666
325.59377
323.91364
321.76028
319.13164
316.02977
312.46059
308.44266
303.99715
299.15338
293.95872
288.46057
282.69345
276.66581
189.09949
200.927
213.41009
224.50813
233.93978
241.92685
248.73571
254.5974
259.70677
264.22053
268.25734
271.90629
275.23411
278.28568
281.08726
283.65195
285.97673
288.04895
289.8538
291.38566
292.65024
293.64744
294.37949
294.87431
295.12869
295.18205
295.13184
294.973
294.65415
294.28122
293.94142
293.64738
293.50523
293.5442
293.70263
294.00019
294.55972
295.36661
296.41347
297.68758
299.16377
300.81559
302.64898
304.65235
306.78835
309.03048
311.34102
313.69474
316.06651
318.43078
320.76106
323.02846
325.1995
327.23709
329.1002
330.74715
332.13863
333.23654
334.00518
334.41166
334.42582
334.06842
333.2339
331.92288
330.12968
327.84746
325.07842
321.8294
318.10868
313.93729
309.34744
304.36847
299.04576
293.4318
287.56708
281.48377
275.18911
155.479
166.7654
178.83412
190.18463
200.48506
209.7751
218.15923
225.74821
232.65698
238.98872
244.82956
250.24924
255.30042
260.01734
264.41835
268.5091
272.2824
275.72567
278.82708
281.58168
283.99044
286.0552
287.78444
289.19578
290.31155
291.1815
291.85598
292.33195
292.62269
292.82757
293.02705
293.25521
293.5707
293.98757
294.54608
295.3686
296.42227
297.70052
299.20886
300.9431
302.88139
305.00429
307.30034
309.74709
312.31138
314.95942
317.65323
320.35951
323.0449
325.67557
328.21747
330.63512
332.88721
334.92956
336.71685
338.2073
339.36519
340.15707
340.55458
340.53167
340.10106
339.16364
337.73221
335.80157
333.37025
330.44316
327.03026
323.14349
318.80667
314.05746
308.9319
303.47144
297.73386
291.76374
285.59944
279.27044
272.78311
129.55621
139.63164
150.3802
160.8984
170.93428
180.43143
189.39247
197.84442
205.82953
213.39042
220.56625
227.38915
233.88023
240.04895
245.89579
251.41197
256.58118
261.3873
265.81361
269.85158
273.49824
276.75392
279.62621
282.1293
284.29062
286.15069
287.73606
289.05539
290.15414
291.12451
292.03632
292.92941
293.85515
294.88094
296.04534
297.4032
298.98162
300.7793
302.78458
304.99566
307.40841
309.98811
312.71702
315.56878
318.50875
321.49732
324.49294
327.45544
330.34411
333.11822
335.73889
338.16609
340.3501
342.24286
343.80074
344.98469
345.76873
346.12795
346.04566
345.51621
344.45731
342.88745
340.80263
338.20548
335.1064
331.51819
327.4549
322.94771
318.03648
312.75201
307.14661
301.27905
295.19915
288.94715
282.56174
276.06806
111.49016
120.23642
129.5281
138.84697
148.04451
157.05205
165.8408
174.40331
182.73754
190.84274
198.72043
206.36815
213.77572
220.92817
227.80785
234.3925
240.65598
246.5724
252.12043
257.28798
262.06688
266.45224
270.4458
274.05304
277.29957
280.21074
282.79951
285.08588
287.12658
288.99821
290.75871
292.45332
294.13981
295.88419
297.73298
299.7316
301.90429
304.26243
306.81397
309.53646
312.41973
315.43397
318.55864
321.7656
325.01573
328.26372
331.46427
334.57187
337.54016
340.32444
342.88494
345.17891
347.14532
348.73845
349.92645
350.66986
350.96888
350.81
350.16227
348.96839
347.24667
344.99831
342.22715
338.94788
335.18051
330.94855
326.26976
321.18584
315.73623
309.98376
303.98778
297.79703
291.45706
285.00844
278.48895
271.92024
100.09225
107.51431
115.45172
123.5558
131.74147
139.95836
148.17894
156.3904
164.56918
172.69244
180.74105
188.68913
196.50447
204.1563
211.61557
218.85014
225.82579
232.50815
238.87566
244.91378
250.60713
255.94326
260.91584
265.52526
269.78494
273.7062
277.29411
280.57553
283.60318
286.43281
289.11358
291.69237
294.21658
296.76678
299.37015
302.0701
304.89376
307.85448
310.95086
314.18534
317.54116
320.94895
324.41814
327.91953
331.40098
334.81415
338.11191
341.24534
344.16503
346.82645
349.19397
351.22235
352.83035
353.98789
354.69472
354.88936
354.65512
353.88181
352.54523
350.66705
348.25224
345.31098
341.86886
337.93609
333.52505
328.66279
323.40546
317.79993
311.90858
305.78914
299.49351
293.06901
286.56059
280.00797
273.44582
266.89047
93.366338
99.748148
106.47464
113.4827
120.71387
128.09941
135.62317
143.28166
151.04134
158.87235
166.74933
174.63328
182.48051
190.25513
197.9241
205.44979
212.79439
219.91848
226.80806
233.44542
239.80556
245.87008
251.62743
257.07168
262.20387
267.02439
271.53632
275.76345
279.74197
283.51255
287.11746
290.59584
293.99949
297.36279
300.74149
304.16549
307.65692
311.22477
314.86964
318.58909
322.38665
326.10648
329.86788
333.58697
337.20764
340.68263
343.96528
347.00544
349.75364
352.17044
354.22969
355.87958
356.99729
357.60226
357.77477
357.38642
356.51958
355.03908
353.01174
350.45463
347.37731
343.77474
339.65914
335.05921
330.03091
324.62129
318.87593
312.85832
306.62812
300.23839
293.73961
287.17905
280.59964
274.03848
267.52476
261.06724
89.68607
95.330787
101.15131
107.19321
113.54501
120.17336
127.01057
134.07188
141.31151
148.7042
156.22862
163.83766
171.48389
179.13496
186.75958
194.31752
201.77246
209.08957
216.2604
223.26232
230.06092
236.63847
242.9805
249.07505
254.91359
260.48961
265.80293
270.86761
275.70582
280.3464
284.81738
289.15219
293.38818
297.53346
301.66821
305.79148
309.92176
314.06382
318.21563
322.37143
326.50143
330.50991
334.48608
338.32828
341.98737
345.41769
348.57538
351.41054
353.87688
355.9442
357.60035
358.75478
359.27546
359.28629
358.90995
357.91809
356.33754
354.21062
351.52799
348.29204
344.5128
340.22839
335.47592
330.31251
324.7718
318.90949
312.78748
306.46598
300.00059
293.44377
286.84535
280.25065
273.69899
267.22352
260.84726
88.06628
93.112308
98.286624
103.63266
109.20532
115.10573
121.30934
127.77675
134.48418
141.39282
148.49015
155.72015
163.03967
170.4272
177.85641
185.28512
192.68409
200.03168
207.30135
214.4732
221.52174
228.429
235.17656
241.74708
248.12599
254.30232
260.27113
266.03642
271.60913
277.00594
282.24406
287.34328
292.32351
297.20779
301.98684
306.74306
311.44049
316.0858
320.66911
325.17368
329.56329
333.78926
337.87289
341.73337
345.32508
348.61479
351.54713
354.08031
356.1707
357.79281
358.90782
359.45908
359.49969
359.05392
358.07775
356.38028
354.12191
351.28594
347.90125
343.9915
339.58845
334.72639
329.45304
323.81349
317.86513
311.66938
305.28485
298.76972
292.17878
285.56359
278.97151
272.44408
266.01601
259.71574
253.56177
87.727985
92.350647
97.064236
101.89114
106.90372
112.18764
117.77093
123.65629
129.83607
136.25538
142.88263
149.68832
156.63112
163.69084
170.84972
178.06317
185.30261
192.55447
199.79279
207.00016
214.15934
221.25133
228.25349
235.14544
241.91005
248.53383
255.00703
261.32544
267.49083
273.50823
279.38288
285.12087
290.72955
296.2227
301.59364
306.82363
311.98573
317.03723
321.95264
326.70721
331.26543
335.59528
339.68333
343.46735
346.89968
349.9499
352.57436
354.73151
356.37848
357.53715
358.18438
358.26094
357.80337
356.71988
354.95248
352.56158
349.62795
346.16535
342.17727
337.69325
332.76574
327.42416
321.72549
315.73135
309.49972
303.08965
296.5594
289.96619
283.36315
276.79896
270.31684
263.95336
257.73796
251.69377
245.83392
88.399033
92.5942
96.884827
101.31974
105.94289
110.77703
115.85975
121.22646
126.87696
132.80456
138.94861
145.29919
151.8365
158.53199
165.36362
172.2983
179.31441
186.3975
193.52577
200.67647
207.8417
215.00243
222.13155
229.2095
236.21983
243.14789
249.97965
256.70471
263.31588
269.80627
276.17028
282.40297
288.50173
294.4675
300.3025
305.98685
311.46763
316.76145
321.85758
326.73028
331.3479
335.67451
339.68425
343.32612
346.55661
349.34082
351.63696
353.40793
354.63028
355.29323
355.3652
354.82561
353.67974
351.90287
349.51148
346.5463
343.05048
339.0332
334.52736
329.57519
324.22009
318.5147
312.52154
306.30072
299.91028
293.4088
286.85383
280.30009
273.79719
267.38926
261.11417
255.00271
249.0786
243.35899
237.8506
89.847202
93.671453
97.567031
101.60048
105.83294
110.3018
115.01432
119.96116
125.17005
130.64078
136.34616
142.2637
148.38457
154.68718
161.1442
167.75042
174.48593
181.33501
188.27675
195.29626
202.3818
209.51204
216.65687
223.80181
230.9326
238.03339
245.08689
252.07792
258.98697
265.79881
272.50093
279.08043
285.52512
291.82221
297.95553
303.90466
309.64293
315.13779
320.36533
325.29111
329.88602
334.11964
337.95776
341.35366
344.26619
346.66536
348.5212
349.79455
350.4803
350.58973
350.12909
349.01966
347.29408
344.94733
342.01908
338.54725
334.56031
330.09322
325.17576
319.8639
314.21327
308.27894
302.12264
295.80485
289.38379
282.91657
276.45788
270.05811
263.76173
257.60709
251.62578
245.84229
240.27424
234.93232
229.81625
91.866435
95.350162
98.884655
102.54876
106.40419
110.48885
114.82407
119.40831
124.22909
129.30076
134.61222
140.14102
145.87862
151.80983
157.90875
164.17054
170.59008
177.15123
183.83958
190.6521
197.57059
204.57547
211.6438
218.74981
225.88614
233.03573
240.18121
247.30161
254.36221
261.35207
268.25083
275.03705
281.68772
288.16969
294.45755
300.52468
306.33998
311.86956
317.07806
321.938
326.40652
330.44905
334.03028
337.11277
339.67134
341.67504
343.09463
343.91032
344.11151
343.75065
342.76553
341.13522
338.90121
336.06565
332.68446
328.79804
324.4291
319.61783
314.41579
308.88207
303.0728
297.04507
290.8603
284.57842
278.25598
271.94669
265.70038
259.56152
253.5682
247.75197
242.13752
236.74274
231.57905
226.65035
221.94907
94.296346
97.455888
100.64733
103.95695
107.44791
111.16025
115.11583
119.3231
123.77985
128.46773
133.39887
138.55589
143.92813
149.50191
155.26324
161.19707
167.30034
173.56305
179.97641
186.53349
193.21913
200.01879
206.91509
213.88294
220.90985
227.98108
235.08385
242.19757
249.30372
256.3465
263.31091
270.16875
276.88744
283.4108
289.72221
295.78715
301.57063
307.03031
312.11562
316.80385
321.05709
324.84001
328.12127
330.86623
333.04895
334.64676
335.63538
336.00816
335.7797
334.95533
333.50149
331.42599
328.7673
325.53911
321.81101
317.61883
312.98494
307.96567
302.61874
297.00232
291.17369
285.19091
279.11385
272.99971
266.90119
260.86669
254.93955
249.15707
243.54989
238.14209
232.95114
227.98836
223.25924
218.76177
97.003764
99.846368
102.6983
105.65715
108.78907
112.13618
115.72234
119.55828
123.64588
127.9717
132.53647
137.33198
142.3468
147.56849
152.98629
158.59097
164.37758
170.33818
176.46497
182.7493
189.18089
195.74246
202.41568
209.1834
216.02189
222.91589
229.84869
236.80727
243.77842
250.72167
257.59589
264.37262
271.01917
277.49796
283.72771
289.68825
295.34564
300.64254
305.52228
309.97553
313.96336
317.44282
320.39247
322.78114
324.5839
325.78685
326.37083
326.34221
325.72573
324.48972
322.65093
320.21911
317.23613
313.73139
309.76906
305.39766
300.63589
295.54929
290.19905
284.64193
278.93487
273.13486
267.29825
261.47743
255.7193
250.06524
244.55079
239.20504
234.05054
229.10356
224.37438
219.8682
215.58537
211.52069
99.860641
102.38429
104.89703
107.50798
110.28602
113.27526
116.50137
119.97679
123.70362
127.67729
131.88652
136.32936
140.9939
145.86918
150.94706
156.2211
161.68561
167.33358
173.158
179.15085
185.30218
191.5976
198.02081
204.55129
211.16264
217.83587
224.54663
231.28544
238.01557
244.72422
251.36701
257.90623
264.29942
270.53301
276.54239
282.27308
287.70075
292.76612
297.41698
301.59928
305.29576
308.45157
311.06286
313.10265
314.54148
315.37964
315.60762
315.23833
314.27784
312.72412
310.59392
307.91055
304.71894
301.06261
296.99686
292.57695
287.83106
282.82005
277.60906
272.25259
266.80484
261.31939
255.84723
250.43407
245.11929
239.93593
234.91068
230.06388
225.4097
220.95668
216.70833
212.66453
208.82158
205.1724
102.74964
104.95047
107.12856
109.39693
111.8281
114.46838
117.34518
120.47247
123.85195
127.48002
131.34437
135.44337
139.76459
144.29917
149.03971
153.98069
159.11609
164.43932
169.9437
175.62157
181.46327
187.45598
193.58535
199.8267
206.1539
212.55413
219.00094
225.47685
231.94969
238.38581
244.7464
250.98802
257.0657
262.9353
268.5881
273.96161
279.01061
283.7143
288.0303
291.88921
295.268
298.13548
300.42524
302.14397
303.25543
303.78054
303.7164
303.0723
301.85543
300.08004
297.76631
294.94905
291.67594
287.99858
283.96978
279.63574
275.04638
270.25491
265.32185
260.30095
255.24113
250.19036
245.19251
240.28511
235.49869
230.85703
226.37743
222.07138
217.94486
213.99924
210.23196
206.63862
203.21271
199.94626
105.56712
107.45221
109.30249
111.2348
113.32911
115.63349
118.17507
120.96669
124.01141
127.30384
130.8358
134.60144
138.58827
142.78655
147.19225
151.79832
156.59845
161.58637
166.75556
172.09843
177.60521
183.26479
189.06374
194.97289
200.97043
207.03622
213.15679
219.31273
225.46397
231.57335
237.60409
243.5128
249.25624
254.7894
260.07665
265.0752
269.72977
274.01485
277.90313
281.35954
284.34473
286.85355
288.82673
290.25287
291.11265
291.39759
291.11767
290.28504
288.9122
287.02279
284.64417
281.81878
278.59649
275.03043
271.17517
267.06925
262.76871
258.33262
253.80731
249.24401
244.6855
240.17202
235.7389
231.41435
227.21934
223.16803
219.26832
215.52331
211.93151
208.48796
205.18492
202.01497
198.96993
196.04172
108.22884
109.80814
111.33801
112.94819
114.72259
116.7086
118.9324
121.40541
124.13149
127.10482
130.31685
133.75898
137.4216
141.29281
145.36732
149.63874
154.10068
158.74685
163.57061
168.56417
173.71745
179.02232
184.46287
190.00974
195.63904
201.33351
207.09048
212.87886
218.66017
224.39624
230.04921
235.5784
240.9432
246.10128
251.00875
255.63089
259.92454
263.83841
267.35092
270.43336
273.04977
275.17969
276.82439
277.95173
278.56111
278.67094
278.27095
277.34906
275.92877
274.04145
271.72155
269.01582
265.97511
262.65186
259.09779
255.35456
251.46958
247.50701
243.50362
239.50073
235.53552
231.63885
227.83661
224.14712
220.5817
217.14529
213.83689
210.65219
207.58333
204.62035
201.75434
198.98027
196.28032
193.64648
110.65043
111.93703
113.16688
114.48188
115.96057
117.65015
119.57727
121.75425
124.18283
126.85652
129.76594
132.90105
136.25102
139.80533
143.55695
147.49922
151.62557
155.92955
160.40439
165.04218
169.83342
174.76765
179.83239
184.99757
190.23992
195.54632
200.9099
206.30152
211.68322
217.01707
222.26574
227.3913
232.35557
237.1185
241.63742
245.87628
249.79648
253.35803
256.53312
259.29706
261.62113
263.48294
264.87625
265.77403
266.17743
266.15046
265.66854
264.74247
263.39213
261.62382
259.48446
257.02163
254.28575
251.32679
248.19258
244.92733
241.57016
238.17792
234.78621
231.42196
228.1152
224.88738
221.75448
218.72514
215.80159
212.98094
210.26104
207.63091
205.0727
202.57102
200.10977
197.66834
195.24563
192.83701
112.75238
113.77731
114.74622
115.7969
117.00742
118.42965
120.08935
121.99761
124.15435
126.55223
129.18076
132.02865
135.08446
138.33768
141.78014
145.4047
149.20455
153.17305
157.30324
161.58724
166.01574
170.57804
175.26031
180.03906
184.88855
189.79684
194.75781
199.7416
204.7125
209.63436
214.47184
219.18969
223.75217
228.12183
232.25942
236.12977
239.69967
242.93628
245.8104
248.29892
250.38098
252.03952
253.26799
254.04681
254.37832
254.31745
253.83724
252.9803
251.76942
250.22992
248.38302
246.27447
243.95221
241.46245
238.84889
236.15308
233.40904
230.6604
227.93979
225.26258
222.64931
220.1127
217.65911
215.29457
213.01277
210.80152
208.63947
206.50806
204.39486
202.28371
200.16003
198.01161
195.8277
193.60408
114.4777
115.28657
116.03429
116.85522
117.83754
119.03013
120.458
122.13101
124.04726
126.19886
128.57407
131.16054
133.94628
136.92045
140.07406
143.39941
146.8894
150.53723
154.33584
158.2774
162.35281
166.55134
170.85921
175.25778
179.72004
184.23772
188.80062
193.38167
197.94779
202.46557
206.90247
211.22612
215.40355
219.40057
223.18235
226.7168
229.97452
232.92759
235.54954
237.82014
239.72389
241.24839
242.38812
243.13493
243.48484
243.49749
243.15305
242.47901
241.50009
240.26806
238.80379
237.13975
235.318
233.37883
231.36029
229.29826
227.22026
225.15759
223.13577
221.16195
219.24695
217.39825
215.617
213.88703
212.19725
210.53225
208.87472
207.20541
205.50396
203.75194
201.93334
200.03498
198.04697
195.96593
115.77747
116.41928
116.99338
117.63712
118.43733
119.44443
120.68205
122.1581
123.87185
125.81265
127.96816
130.32524
132.87134
135.59521
138.48727
141.53933
144.74404
148.09445
151.58351
155.20356
158.94581
162.79985
166.75273
170.78875
174.88401
179.02974
183.21367
187.41195
191.59453
195.73148
199.79365
203.75185
207.57639
211.23688
214.70309
217.94692
220.94224
223.66547
226.09447
228.21252
230.00792
231.47236
232.60292
233.40042
233.86408
234.02988
233.90836
233.51861
232.88595
232.04121
231.03067
229.87963
228.6195
227.28376
225.90379
224.5081
223.11643
221.74909
220.42234
219.13759
217.89762
216.70227
215.53953
214.39712
213.25675
212.09933
210.90461
209.65036
208.31509
206.87893
205.3249
203.63927
201.8124
199.84142
116.60809
117.143
117.60377
118.12637
118.79582
119.6652
120.76038
122.08834
123.64281
125.41418
127.38961
129.55545
131.89867
134.40768
137.07248
139.88452
142.83626
145.92069
149.13087
152.45947
155.89824
159.43746
163.06523
166.76755
170.52636
174.33058
178.16778
182.01572
185.84861
189.64072
193.36655
197.00043
200.5163
203.88783
207.08929
210.09672
212.88772
215.4425
217.74361
219.77784
221.53662
223.01508
224.21425
225.13706
225.79211
226.19803
226.36765
226.33276
226.11217
225.73134
225.2299
224.63572
223.97046
223.26007
222.53018
221.80188
221.08565
220.39309
219.72976
219.09378
218.48194
217.88641
217.29251
216.68311
216.03735
215.33391
214.55122
213.66492
212.65295
211.49428
210.17107
208.66908
206.97841
205.09603
116.94457
117.4385
117.84956
118.31323
118.91437
119.70393
120.70857
121.93393
123.37595
125.0239
126.86411
128.88241
131.06543
133.40126
135.87964
138.49177
141.22998
144.0873
147.05704
150.13232
153.30568
156.56856
159.91044
163.31845
166.77964
170.2831
173.81531
177.35509
180.8821
184.37508
187.81229
191.17183
194.4315
197.56897
200.56279
203.39306
206.04148
208.4918
210.73076
212.74855
214.53922
216.1
217.43271
218.54686
219.45078
220.15917
220.68739
221.05712
221.29235
221.41454
221.45003
221.42756
221.36147
221.26755
221.16944
221.08031
221.00374
220.93828
220.88686
220.84413
220.80019
220.7439
220.65736
220.52067
220.31231
220.00921
219.59033
219.02883
218.30303
217.39047
216.27246
214.93407
213.36459
211.56018
116.80836
117.3236
117.7452
118.20843
118.79767
119.56371
120.53115
121.70675
123.08721
124.66128
126.41488
128.33345
130.40337
132.61262
134.9507
137.40862
139.97865
142.65394
145.42813
148.29484
151.24731
154.27839
157.38104
160.54271
163.75274
167.00311
170.27684
173.55871
176.83088
180.07684
183.27883
186.41861
189.47797
192.43882
195.2836
197.99623
200.56226
202.96913
205.20687
207.26873
209.15109
210.85316
212.3769
213.73318
214.93133
215.983
216.90273
217.70859
218.41757
219.04803
219.61942
220.15568
220.66607
221.16036
221.65005
222.14333
222.64548
223.15428
223.65653
224.13989
224.59748
225.01488
225.37293
225.65048
225.82512
225.87229
225.77444
225.50058
225.0309
224.34077
223.41048
222.22418
220.77002
219.04255
116.17911
116.78194
117.27875
117.80448
118.44233
119.24263
120.23067
121.41331
122.7862
124.3388
126.05726
127.92712
129.9348
132.06782
134.3155
136.66885
139.12024
141.66321
144.29162
146.99938
149.7801
152.62691
155.53288
158.48592
161.49769
164.55928
167.63504
170.71362
173.78567
176.83958
179.86187
182.83812
185.7537
188.59446
191.34673
193.99795
196.53705
198.95472
201.24378
203.39975
205.42065
207.30741
209.06359
210.6959
212.21375
213.62684
214.94693
216.1884
217.36479
218.4888
219.57157
220.61843
221.65262
222.68323
223.71601
224.7502
225.77028
226.77704
227.75665
228.69724
229.58947
230.41696
231.16007
231.7974
232.30641
232.66335
232.84579
232.82775
232.59409
232.11027
231.35791
230.31986
228.98299
227.33931
115.07445
115.82675
116.46005
117.10883
117.85465
118.74724
119.81206
121.05623
122.47594
124.06095
125.79778
127.67221
129.67005
131.77882
133.98808
136.28908
138.67446
141.13769
143.67305
146.27511
148.93841
151.65722
154.42631
157.24079
160.10359
163.0106
165.9368
168.865
171.79105
174.70716
177.60377
180.47013
183.29513
186.06789
188.77822
191.41689
193.97572
196.44807
198.82901
201.11559
203.30683
205.40401
207.41018
209.33149
211.17519
212.94835
214.65892
216.31056
217.91189
219.48138
221.03059
222.57076
224.09771
225.61206
227.11518
228.60323
230.06723
231.50116
232.88915
234.2209
235.48477
236.66378
237.73842
238.6876
239.48907
240.11951
240.55526
240.77148
240.74751
240.46656
239.88924
239.00203
237.79081
236.24422
113.52072
114.47895
115.30486
116.13263
117.04193
118.08177
119.27766
120.63703
122.15672
123.82692
125.6346
127.56535
129.60553
131.74287
133.96689
136.26878
138.64119
141.07795
143.57376
146.12384
148.72366
151.36881
154.05568
156.78155
159.54822
162.35507
165.18191
168.01214
170.84403
173.67311
176.49356
179.29787
182.07808
184.8265
187.53595
190.20047
192.81391
195.37191
197.87121
200.30998
202.68772
205.00542
207.26438
209.46227
211.60587
213.70625
215.77096
217.81106
219.829
221.82362
223.79749
225.75372
227.69378
229.61671
231.51984
233.39441
235.23384
237.02662
238.75917
240.42128
242.00012
243.47893
244.83877
246.05918
247.11839
247.9935
248.66066
249.09537
249.27346
249.17938
248.78692
248.05852
246.98634
245.5568
281.00058
355.79051
450.40633
516.40292
544.5729
545.10294
528.02657
497.63274
463.87996
283.96504
353.82898
444.86687
509.26177
537.29718
538.49602
521.63651
492.05602
458.8056
286.83273
351.92057
439.26754
502.12435
530.04421
531.82703
515.26299
486.42732
453.67451
289.46681
350.06331
433.63481
495.05035
522.81731
525.10742
508.89253
480.74646
448.48314
291.71987
348.277
428.11025
488.02764
515.61276
518.34675
502.51736
475.01584
443.23238
293.57288
346.56326
422.68729
481.06539
508.43604
511.5573
496.13468
469.23937
437.92486
295.24398
344.92019
417.36847
474.1812
501.29674
504.75218
489.74479
463.42166
432.56399
296.79562
343.29813
412.18745
467.39732
494.20669
497.94415
483.34983
457.56728
427.15323
298.26665
341.79794
407.17964
460.73524
487.17864
491.14533
476.95308
451.68077
421.69612
299.68926
340.41803
402.36593
454.21321
480.22534
484.36716
470.55866
445.76671
416.1964
301.07741
339.16431
397.7587
447.84609
473.35876
477.62018
464.1712
439.82985
410.65801
302.40224
338.0113
393.35884
441.64396
466.58944
470.91407
457.79554
433.87506
405.08521
303.63135
336.93104
389.1617
435.61193
459.92612
464.25735
451.43623
427.90695
399.48227
304.77063
335.91136
385.15603
429.75095
453.37532
457.65617
445.09603
421.92972
393.85371
305.80088
334.92512
381.32394
424.05789
446.94088
451.11513
438.78086
415.94878
388.2042
306.7001
333.94598
377.64738
418.52471
440.62417
444.63812
432.49482
409.96835
382.53838
307.45987
332.95704
374.10596
413.13992
434.42504
438.22776
426.24022
403.99183
376.86077
308.08196
331.93768
370.67516
407.89353
428.34766
431.88544
420.01866
398.02249
371.17567
308.52008
330.8577
367.33108
402.78167
422.3743
425.61305
413.83084
392.06321
365.48732
308.6892
329.68939
364.0522
397.78947
416.4882
419.40706
407.67812
386.11727
359.8001
308.64757
328.42748
360.82097
392.90108
410.68212
413.26481
401.56259
380.1873
354.11775
308.48653
327.07411
357.62334
388.10216
404.95011
407.18444
395.48148
374.27389
348.44337
308.1668
325.62684
354.44846
383.38041
399.2864
401.16212
389.43338
368.37846
342.7799
307.62942
324.08694
351.28912
378.72613
393.68562
395.19316
383.41782
362.50251
337.13017
306.95136
322.46705
348.14374
374.13078
388.14263
389.27232
377.43407
356.64742
331.4968
306.05962
320.76042
345.01664
369.58588
382.65364
383.39675
371.48194
350.81469
325.88237
305.09823
319.03524
341.92345
365.0925
377.21629
377.56578
365.56189
345.00607
320.28945
304.21783
317.30289
338.8662
360.64695
371.83262
371.77946
359.67492
339.2236
314.72074
303.2384
315.53072
335.83178
356.23874
366.5156
366.03588
353.82243
333.46969
309.17914
302.17145
313.7538
332.82625
351.87403
361.26462
360.33794
348.0065
327.74705
303.66773
301.13614
312.01026
329.86582
347.56052
356.08035
354.68749
342.22956
322.05875
298.18984
300.15393
310.31665
326.95991
343.30373
350.96411
349.08718
336.49444
316.40812
292.74908
299.21016
308.67193
324.11009
339.10674
345.9163
343.53831
330.80415
310.79874
287.34921
298.35801
307.08396
321.31937
334.97238
340.93909
338.04906
325.16292
305.23437
281.99419
297.60476
305.56457
318.59237
330.9035
336.03475
332.62224
319.57306
299.71829
276.68786
296.96894
304.12515
315.93273
326.90252
331.20491
327.25935
314.03799
294.25435
271.43415
296.47637
302.77338
313.34311
322.97152
326.45093
321.96198
308.56181
288.84668
266.23704
296.11039
301.51231
310.82601
319.11277
321.77368
316.73205
303.1485
283.49937
261.10043
295.86714
300.34761
308.38387
315.32832
317.17394
311.57156
297.80048
278.21554
256.02772
295.79219
299.28026
306.01829
311.62091
312.65208
306.4824
292.51999
272.99797
251.02181
295.82736
298.30634
303.73358
307.98556
308.21123
301.46642
287.30902
267.84897
246.08502
295.93719
297.4129
301.49244
304.47383
303.84138
296.5241
282.16919
262.7704
241.21903
296.11818
296.59126
299.30245
301.09121
299.54281
291.65634
277.10209
257.76381
236.42507
296.4278
295.88772
297.17204
297.82815
295.32047
286.86445
272.10916
252.83044
231.70393
296.80248
295.28478
295.14724
294.66069
291.17565
282.1495
267.19161
247.97132
227.05619
297.36414
294.69001
293.22713
291.56475
287.10841
277.51246
262.35064
243.18746
222.4825
298.00614
294.17368
291.40673
288.5434
283.12019
272.95444
257.58753
238.48008
217.98375
298.70994
293.74975
289.68117
285.59927
279.21151
268.47684
252.90399
233.85093
213.56162
299.47693
293.41277
288.04694
282.73565
275.38553
264.08189
248.30239
229.30259
209.21876
300.30517
293.15933
286.50404
279.95717
271.64547
259.77268
243.78607
224.83871
204.95906
301.19291
292.9907
285.05696
277.27051
267.99653
255.55378
239.35963
220.46422
200.78781
302.14114
292.91925
283.71243
274.68423
264.44589
251.43133
235.02898
216.18525
196.71143
303.13583
292.92808
282.47415
272.20839
261.00265
247.41308
230.80132
212.00897
192.7372
304.16247
293.00025
281.35097
269.85517
257.67767
243.50821
226.68488
207.94324
188.87289
305.21848
293.17841
280.35599
267.6374
254.48293
239.72693
222.68845
203.996
185.12585
306.28415
293.44303
279.49262
265.56644
251.43062
236.07989
218.8209
200.17473
181.50251
307.33182
293.77227
278.76036
263.65146
248.5323
232.57761
215.09058
196.48586
178.00782
308.33062
294.14849
278.1539
261.89813
245.7983
229.22975
211.50473
192.93421
174.64453
309.24628
294.54747
277.6622
260.30769
243.23669
226.04435
208.06905
189.52297
171.41362
310.04157
294.93992
277.26867
258.87688
240.8517
223.02695
204.7875
186.25369
168.3145
310.67762
295.29258
276.95138
257.59764
238.64363
220.18069
201.66214
183.12602
165.34425
311.11519
295.56711
276.68179
256.45663
236.6094
217.5065
198.69377
180.13916
162.5003
311.29564
295.71255
276.42712
255.43699
234.74237
215.00299
195.88195
177.292
159.78083
311.23913
295.71224
276.16726
254.52045
233.03242
212.66587
193.22392
174.58079
157.18052
310.93262
295.58761
275.87284
253.68151
231.4657
210.48911
190.71669
172.00306
154.69634
310.2252
295.21597
275.48342
252.88524
230.02457
208.46676
188.36133
169.56335
152.33482
309.11579
294.51675
274.94792
252.0934
228.68633
206.58931
186.15814
167.26485
150.10284
307.60183
293.50677
274.22764
251.26497
227.42257
204.84037
184.09695
165.10318
147.98926
305.65945
292.14715
273.27808
250.35464
226.19789
203.19635
182.15836
163.06325
145.98084
303.27515
290.40843
272.05685
249.31474
224.96998
201.62384
180.32124
161.11876
144.07373
300.45656
288.26955
270.52656
248.09952
223.69859
200.09348
178.55952
159.26102
142.25528
297.18269
285.72173
268.65207
246.66514
222.34134
198.5751
176.85242
157.48537
140.51506
293.45189
282.73354
266.417
244.96921
220.85181
197.02494
175.17415
155.76247
138.83412
289.29532
279.30689
263.78737
242.98243
219.18993
195.40455
173.50589
154.07714
137.2018
284.73384
275.47004
260.7576
240.6741
217.32036
193.68665
171.81548
152.40365
135.59364
279.81827
271.23677
257.34321
238.03207
215.21519
191.85472
170.06795
150.71675
133.99349
274.56691
266.62583
253.52798
235.03259
212.852
268.97722
426.00491
380.34952
334.31635
288.68995