/*--------------------------------*- C++ -*----------------------------------*\
| =========                 |                                                 |
| \\      /  F ield         | OpenFOAM: The Open Source CFD Toolbox           |
|  \\    /   O peration     | Version:  2406                                  |
|   \\  /    A nd           | Website:  www.openfoam.com                      |
|    \\/     M anipulation  |                                                 |
\*---------------------------------------------------------------------------*/
FoamFile
{
    version     2.0;
    format      ascii;
    arch        "LSB;label=32;scalar=64";
    class       volScalarField;
    location    "0.004";
    object      p;
}
// * * * * * * * * * * * * * * * * * * * * * * * * * * * * * * * * * * * * * //

dimensions      [1 -1 -2 0 0 0 0];

internalField   nonuniform List<scalar> 
8950
(
99887.669
99904.33
99912.356
99915.175
99916.265
99916.006
99914.216
99911.063
99906.872
99901.943
99896.515
99890.785
99885.045
99879.509
99874.254
99869.394
99865.032
99861.257
99858.22
99856.079
99854.964
99854.994
99856.298
99858.998
99863.239
99869.209
99877.3
99885.843
99896.251
99909.549
99925.071
99941.754
99959.723
99980.939
100003.2
100026.81
100051.8
100077.99
100105.16
100133.11
100161.63
100190.52
100219.59
100248.65
100277.52
100306.05
100334.08
100361.49
100388.15
100413.97
100438.84
100462.69
100485.45
100507.07
100527.5
100546.71
100564.69
100581.42
100596.92
100611.18
100624.24
100636.13
100646.85
100656.47
100665.06
100672.66
100679.34
100685.06
100689.97
100693.92
100697.15
100699.31
100702.15
100704.73
100706.3
100707.39
100708.28
100709.1
99885.528
99898.065
99905.76
99908.748
99909.426
99908.397
99905.789
99901.89
99897.053
99891.582
99885.735
99879.749
99873.866
99868.244
99862.986
99858.204
99853.997
99850.469
99847.76
99846.007
99845.333
99845.87
99847.754
99851.11
99856.073
99862.773
99871.23
99880.879
99892.711
99907.074
99923.457
99941.706
99960.507
99982.166
100005.51
100030.58
100056.65
100083.83
100111.87
100140.59
100169.79
100199.27
100228.82
100258.27
100287.44
100316.16
100344.32
100371.76
100398.39
100424.1
100448.8
100472.44
100494.94
100516.25
100536.35
100555.2
100572.8
100589.15
100604.25
100618.11
100630.77
100642.26
100652.59
100661.83
100670.06
100677.32
100683.71
100689.02
100693.48
100696.93
100699.42
100702.63
100705.5
100707.09
100708.22
100709.11
100709.82
99885.078
99893.349
99898.586
99900.417
99900.2
99898.4
99895.219
99890.947
99885.896
99880.34
99874.519
99868.651
99862.934
99857.51
99852.495
99847.998
99844.128
99841.001
99838.747
99837.491
99837.361
99838.493
99841.021
99845.068
99850.753
99858.163
99867.302
99878.146
99891.199
99906.478
99923.704
99942.713
99963.303
99985.62
100009.58
100035.04
100062.35
100090.44
100119.13
100148.38
100178.03
100207.87
100237.69
100267.33
100296.59
100325.34
100353.44
100380.77
100407.22
100432.69
100457.12
100480.43
100502.57
100523.5
100543.2
100561.64
100578.82
100594.75
100609.43
100622.89
100635.14
100646.26
100656.22
100665.13
100673.07
100680.11
100686.26
100691.03
100695.12
100698.22
100701.34
100704.77
100706.99
100708.35
100709.42
100710.28
100710.97
99880.819
99886.433
99889.856
99890.674
99889.767
99887.5
99884.052
99879.681
99874.661
99869.237
99863.626
99858.025
99852.606
99847.507
99842.845
99838.729
99835.272
99832.593
99830.814
99830.061
99830.465
99832.162
99835.281
99839.948
99846.284
99854.376
99864.269
99876.058
99889.986
99906.003
99923.947
99943.721
99965.267
99988.507
100013.58
100039.31
100066.67
100095.59
100124.92
100154.57
100184.52
100214.6
100244.59
100274.31
100303.6
100332.31
100360.32
100387.49
100413.74
100438.98
100463.14
100486.14
100507.96
100528.55
100547.91
100566
100582.83
100598.4
100612.75
100625.88
100637.82
100648.66
100658.34
100667.02
100674.81
100681.69
100687.54
100691.75
100695.64
100699.41
100703.1
100705.9
100707.82
100709.24
100710.37
100711.27
100712.03
99875.579
99879.448
99881.195
99881.005
99879.465
99876.789
99873.133
99868.732
99863.82
99858.606
99853.28
99848.018
99842.972
99838.269
99834.025
99830.35
99827.35
99825.147
99823.86
99823.617
99824.553
99826.807
99830.505
99835.777
99842.746
99851.5
99862.109
99874.671
99889.312
99905.991
99924.607
99945.085
99967.36
99991.364
100016.99
100043.74
100071.31
100100.17
100129.88
100160.07
100190.26
100220.51
100250.59
100280.34
100309.6
100338.23
100366.11
100393.11
100419.16
100444.16
100468.04
100490.77
100512.28
100532.57
100551.61
100569.39
100585.92
100601.19
100615.25
100628.1
100639.79
100650.43
100659.88
100668.42
100676.08
100682.63
100687.78
100692.48
100696.68
100700.99
100704.25
100706.72
100708.63
100710.13
100711.32
100712.3
99870.139
99872.408
99872.765
99871.732
99869.669
99866.685
99862.912
99858.562
99853.832
99848.89
99843.906
99839.034
99834.408
99830.145
99826.36
99823.16
99820.642
99818.931
99818.142
99818.408
99819.87
99822.669
99826.934
99832.788
99840.352
99849.723
99860.979
99874.209
99889.481
99906.762
99925.981
99947.064
99969.933
99994.475
100020.52
100047.76
100076.03
100105.03
100134.77
100165.01
100195.53
100225.91
100256.01
100285.71
100314.9
100343.41
100371.12
100397.93
100423.76
100448.51
100472.14
100494.59
100515.82
100535.82
100554.59
100572.09
100588.33
100603.33
100617.16
100629.77
100641.27
100651.77
100661
100669.46
100676.82
100682.74
100688.13
100693.61
100698.22
100702.03
100705.03
100707.49
100709.48
100711.05
100712.32
100713.4
99864.78
99865.822
99865.014
99863.24
99860.795
99857.632
99853.832
99849.617
99845.128
99840.497
99835.886
99831.433
99827.25
99823.447
99820.136
99817.418
99815.376
99814.157
99813.864
99814.626
99816.597
99819.917
99824.716
99831.112
99839.219
99849.147
99860.975
99874.771
99890.575
99908.368
99928.09
99949.665
99972.991
99997.926
100024.28
100051.83
100080.38
100109.67
100139.65
100169.78
100200.22
100230.65
100260.77
100290.37
100319.43
100347.79
100375.31
100401.91
100427.5
100452
100475.37
100497.56
100518.52
100538.28
100556.78
100574.03
100590.01
100604.79
100618.45
100630.87
100642.25
100652.67
100661.62
100669.89
100676.73
100683.02
100689.2
100694.74
100699.03
100702.66
100705.7
100708.23
100710.3
100711.97
100713.34
100714.55
99859.355
99859.831
99858.244
99855.845
99853.281
99849.97
99846.182
99842.208
99837.997
99833.68
99829.461
99825.44
99821.698
99818.349
99815.507
99813.251
99811.634
99810.884
99811.1
99812.348
99814.805
99818.616
99823.905
99830.79
99839.386
99849.803
99862.115
99876.374
99892.612
99910.811
99930.917
99952.853
99976.497
100001.69
100028.26
100055.98
100084.65
100114.07
100144.05
100174.27
100204.61
100234.78
100264.79
100294.28
100323.19
100351.33
100378.63
100405
100430.35
100454.61
100477.72
100499.66
100520.38
100539.9
100558.18
100575.2
100590.97
100605.59
100619.14
100631.39
100642.72
100653
100661.63
100669.52
100676.85
100683.84
100690.02
100695.17
100699.43
100703.14
100706.28
100708.91
100711.08
100712.86
100714.37
100715.72
99854.341
99854.065
99852.243
99850.307
99847.561
99843.781
99840.114
99836.529
99832.533
99828.517
99824.734
99821.151
99817.82
99814.898
99812.499
99810.656
99809.48
99809.203
99809.851
99811.576
99814.501
99818.765
99824.498
99831.819
99840.844
99851.674
99864.377
99878.999
99895.571
99914.071
99934.445
99956.607
99980.431
100005.76
100032.4
100060.17
100088.85
100118.24
100148.11
100178.23
100208.46
100238.43
100268.18
100297.59
100326.22
100354.08
100381.12
100407.24
100432.35
100456.35
100479.22
100500.93
100521.44
100540.74
100558.81
100575.66
100591.26
100605.78
100619.27
100631.3
100642.48
100652.3
100661.45
100669.39
100677.33
100684.23
100690.16
100695.27
100699.67
100703.5
100706.76
100709.5
100711.8
100713.74
100715.41
99849.987
99849.485
99847.771
99845.76
99842.853
99839.313
99836.064
99832.523
99828.612
99825.001
99821.732
99818.524
99815.548
99813.051
99811.124
99809.719
99808.971
99809.02
99810.083
99812.285
99815.644
99820.32
99826.448
99834.152
99843.542
99854.709
99867.716
99882.607
99899.406
99918.1
99938.632
99960.899
99984.772
100010.1
100036.71
100064.4
100092.97
100122.19
100151.86
100181.75
100211.69
100241.51
100270.95
100300.12
100328.6
100356.13
100382.85
100408.69
100433.55
100457.29
100479.92
100501.42
100521.71
100540.81
100558.72
100575.46
100590.9
100605.39
100618.78
100630.56
100641.36
100651.53
100661.15
100669.6
100677.24
100684
100689.96
100695.2
100699.76
100703.72
100707.11
100710
100712.46
100714.57
100716.43
99846.664
99846.09
99844.324
99841.938
99839.234
99836.751
99833.819
99830.113
99826.559
99823.385
99820.325
99817.305
99814.762
99812.757
99811.338
99810.323
99809.855
99810.273
99811.845
99814.415
99818.155
99823.199
99829.674
99837.708
99847.4
99858.832
99872.061
99887.126
99904.053
99922.839
99943.417
99965.677
99989.482
100014.69
100041.14
100068.65
100096.98
100125.94
100155.31
100184.9
100214.53
100244.03
100273.17
100301.87
100330.11
100357.51
100384.02
100409.44
100434.01
100457.47
100479.86
100501.15
100521.23
100540.2
100558.02
100574.69
100589.92
100604.29
100617.28
100629.48
100640.33
100650.96
100660.61
100668.98
100676.6
100683.44
100689.55
100694.93
100699.66
100703.77
100707.33
100710.39
100713.04
100715.35
100717.41
99844.419
99843.868
99842.169
99839.951
99837.493
99834.696
99831.82
99829.145
99826.263
99823.293
99820.47
99817.919
99815.78
99814.235
99813.051
99812.204
99812.053
99812.903
99814.897
99817.825
99821.928
99827.295
99834.067
99842.385
99852.323
99863.95
99877.322
99892.468
99909.426
99928.212
99948.738
99970.885
99994.512
100019.49
100045.69
100072.9
100100.91
100129.5
100158.5
100187.72
100216.97
100246.08
100274.86
100303.18
100330.94
100358.02
100384.36
100409.68
100433.82
100456.92
100479.09
100500.19
100520.11
100538.98
100556.76
100573.29
100588.27
100602.36
100615.58
100628.09
100639.47
100649.89
100659.39
100667.87
100675.63
100682.63
100688.89
100694.45
100699.34
100703.64
100707.39
100710.66
100713.52
100716.05
100718.35
99843.454
99842.952
99841.356
99839.311
99836.998
99834.448
99831.814
99829.004
99826.383
99824.134
99821.904
99819.854
99818.206
99817.08
99816.051
99815.459
99815.847
99817.165
99819.309
99822.47
99826.876
99832.489
99839.508
99848.079
99858.21
99869.966
99883.4
99898.515
99915.409
99934.134
99954.53
99976.468
99999.808
100024.45
100050.3
100077.14
100104.74
100132.88
100161.42
100190.21
100219.03
100247.69
100276.05
100303.98
100331.33
100358
100383.83
100409.05
100433.18
100455.79
100477.7
100498.63
100518.39
100537.2
100554.85
100571
100586.28
100600.25
100613.88
100626.42
100637.76
100648.19
100657.76
100666.43
100674.36
100681.53
100687.96
100693.7
100698.8
100703.3
100707.27
100710.77
100713.88
100716.65
100719.22
99843.707
99843.49
99841.987
99840.042
99837.882
99835.579
99833.2
99830.784
99828.566
99826.533
99824.581
99822.835
99821.39
99820.234
99819.655
99819.843
99820.76
99822.419
99824.77
99828.249
99832.854
99838.641
99845.912
99854.686
99864.936
99876.768
99890.172
99905.095
99921.862
99940.537
99960.742
99982.374
100005.3
100029.5
100054.97
100081.37
100108.46
100136.07
100164.1
100192.41
100220.73
100248.9
100276.8
100304.3
100331.23
100357.49
100382.97
100407.64
100431.73
100454.24
100475.75
100496.5
100516.09
100534.87
100552.24
100568.36
100583.82
100598.14
100611.61
100624.08
100635.5
100646.07
100655.78
100664.65
100672.75
100680.1
100686.73
100692.68
100698
100702.73
100706.95
100710.71
100714.09
100717.15
100720.01
99846.273
99845.548
99843.997
99842.061
99840.01
99837.906
99835.787
99833.703
99831.742
99829.911
99828.229
99826.783
99825.653
99824.904
99824.733
99825.213
99826.356
99828.23
99830.921
99834.627
99839.403
99845.615
99853.233
99862.04
99872.325
99884.176
99897.45
99912.115
99928.845
99947.439
99967.315
99988.509
100010.83
100034.54
100059.68
100085.61
100112.1
100139.05
100166.53
100194.34
100222.11
100249.73
100277.15
100304.17
100330.66
100356.5
100381.65
100405.91
100429.5
100452.11
100473.31
100493.83
100513.2
100531.95
100549.3
100565.57
100580.94
100595.3
100608.76
100621.27
100632.84
100643.56
100653.43
100662.48
100670.77
100678.32
100685.17
100691.34
100696.91
100701.9
100706.39
100710.44
100714.12
100717.5
99849.697
99848.698
99847.019
99845.122
99843.202
99841.285
99839.401
99837.573
99835.848
99834.259
99832.849
99831.697
99830.898
99830.504
99830.626
99831.342
99832.721
99834.851
99837.828
99841.71
99846.645
99852.84
99860.453
99869.56
99879.952
99891.847
99905.203
99920.426
99937.016
99954.663
99973.977
99994.646
100016.34
100039.74
100064.52
100089.83
100115.52
100141.71
100168.74
100196.05
100223.2
100250.2
100277.13
100303.65
100329.65
100355.04
100379.82
100403.81
100426.89
100449.3
100470.37
100490.66
100509.85
100528.31
100546.22
100562.32
100577.49
100591.9
100605.43
100618.04
100629.75
100640.62
100650.66
100659.9
100668.39
100676.16
100683.24
100689.67
100695.5
100700.78
100705.57
100709.94
100713.95
100717.68
99853.656
99852.839
99850.981
99849.131
99847.328
99845.579
99843.922
99842.312
99840.803
99839.445
99838.277
99837.395
99836.925
99836.819
99837.2
99838.163
99839.789
99842.163
99845.378
99849.528
99854.759
99861.04
99868.499
99877.556
99888.001
99899.65
99912.867
99927.789
99943.991
99961.583
99980.674
100001.19
100023.29
100046.04
100069.29
100093.79
100118.5
100144.19
100170.92
100197.57
100223.91
100250.26
100276.78
100302.75
100328.23
100353.21
100377.52
100401.19
100423.98
100446
100466.93
100487.03
100506.11
100524.32
100542.32
100558.66
100573.61
100588.03
100601.64
100614.36
100626.2
100637.23
100647.44
100656.89
100665.59
100673.59
100680.93
100687.63
100693.75
100699.35
100704.47
100709.19
100713.56
100717.66
99858.592
99857.671
99855.818
99854.001
99852.243
99850.619
99849.207
99847.786
99846.463
99845.312
99844.342
99843.706
99843.586
99843.723
99844.336
99845.537
99847.398
99850
99853.43
99857.789
99863.192
99869.667
99877.317
99886.077
99896.336
99908.196
99921.18
99935.711
99951.58
99968.757
99987.256
100007.1
100028.32
100050.52
100073.71
100098
100122.66
100147.58
100172.83
100198.63
100224.11
100250.05
100276.15
100301.44
100326.35
100350.97
100374.85
100398.14
100420.6
100442.29
100463.04
100482.96
100501.93
100520.03
100537.65
100554.4
100569.42
100583.69
100597.36
100610.19
100622.17
100633.36
100643.76
100653.4
100662.34
100670.59
100678.2
100685.2
100691.64
100697.58
100703.06
100708.16
100712.93
100717.43
99864.211
99863.209
99861.558
99859.656
99857.871
99856.224
99854.93
99853.799
99852.668
99851.753
99851.025
99850.517
99850.538
99851.025
99851.877
99853.307
99855.391
99858.2
99861.817
99866.325
99871.829
99878.328
99886.345
99895.081
99905.117
99916.67
99929.479
99943.723
99959.253
99976.049
99994.119
100013.45
100033.99
100055.56
100078.06
100100.98
100124.84
100149.68
100174.6
100199.79
100225.28
100250.46
100275.06
100299.55
100324.15
100348.33
100371.77
100394.68
100416.78
100438.17
100458.71
100478.44
100497.29
100515.3
100532.6
100549.35
100564.79
100578.92
100592.56
100605.51
100617.64
100628.98
100639.57
100649.44
100658.62
100667.14
100675.04
100682.37
100689.16
100695.46
100701.34
100706.85
100712.04
100716.98
99870.553
99869.035
99867.37
99865.55
99863.934
99862.432
99861.113
99860.1
99859.191
99858.489
99858.04
99857.785
99857.843
99858.549
99859.669
99861.331
99863.623
99866.623
99870.412
99875.067
99880.674
99887.267
99894.86
99904.026
99914.185
99925.143
99937.781
99951.719
99966.877
99983.262
100000.87
100019.66
100039.57
100060.5
100082.28
100104.53
100127.87
100151.88
100175.92
100200.15
100224.81
100249.43
100273.89
100298.37
100322.23
100345.22
100368.31
100390.81
100412.53
100433.63
100453.93
100473.46
100492.17
100510.08
100527.21
100543.68
100559.48
100573.73
100587.26
100600.31
100612.59
100624.1
100634.89
100644.99
100654.43
100663.24
100671.47
100679.14
100686.31
100693.01
100699.31
100705.25
100710.9
100716.3
99877.632
99875.583
99873.703
99871.764
99870.198
99868.827
99867.65
99866.709
99865.945
99865.404
99865.123
99865.112
99865.45
99866.301
99867.617
99869.478
99871.958
99875.129
99879.069
99883.859
99889.566
99896.294
99903.524
99912.46
99922.918
99933.755
99946.045
99959.603
99974.359
99990.297
100007.4
100025.62
100044.9
100065.14
100086.2
100107.92
100130.49
100153.61
100176.96
100200.6
100224.56
100248.47
100272.15
100295.83
100319.26
100342.45
100364.88
100386.4
100407.85
100428.66
100448.71
100468.02
100486.56
100504.35
100521.37
100537.61
100553.44
100568.02
100581.48
100594.59
100607.01
100618.71
100629.72
100640.06
100649.78
100658.9
100667.47
100675.51
100683.08
100690.21
100696.95
100703.36
100709.49
100715.38
99884.547
99882.077
99880.068
99878.207
99876.596
99875.286
99874.219
99873.38
99872.756
99872.374
99872.264
99872.464
99873.035
99874.059
99875.56
99877.604
99880.255
99883.58
99887.646
99892.523
99898.288
99905.018
99912.538
99920.852
99931.278
99942.066
99954.068
99967.262
99981.608
99997.082
100013.66
100031.3
100049.94
100069.5
100089.86
100110.93
100132.72
100155.04
100177.7
100200.67
100223.88
100247.1
100270.22
100293.32
100316.12
100338.49
100360.4
100382.18
100403.09
100423.33
100443.02
100462.1
100480.46
100498.11
100515.02
100531.16
100546.85
100561.66
100575.21
100588.36
100600.94
100612.83
100624.06
100634.65
100644.66
100654.1
100663.02
100671.45
100679.43
100687
100694.21
100701.11
100707.73
100714.14
99891.315
99888.523
99886.231
99884.447
99882.852
99881.622
99880.661
99879.943
99879.466
99879.245
99879.312
99879.705
99880.475
99881.681
99883.364
99885.581
99888.39
99891.853
99896.03
99900.983
99906.778
99913.487
99921.099
99929.414
99939.206
99950.055
99961.788
99974.616
99988.545
100003.55
100019.6
100036.65
100054.66
100073.54
100093.21
100113.58
100134.61
100156.17
100178.1
100200.35
100222.81
100245.35
100267.87
100290.32
100312.52
100334.4
100355.98
100377.13
100397.69
100417.68
100436.87
100455.7
100473.87
100491.36
100508.17
100524.23
100539.82
100554.74
100568.45
100581.66
100594.4
100606.48
100617.92
100628.76
100639.07
100648.86
100658.16
100667
100675.42
100683.45
100691.15
100698.55
100705.69
100712.62
99897.724
99894.687
99892.276
99890.507
99889.044
99887.784
99886.879
99886.273
99885.939
99885.883
99886.126
99886.705
99887.663
99889.05
99890.909
99893.292
99896.252
99899.842
99904.119
99909.136
99914.947
99921.611
99929.182
99937.58
99946.785
99957.812
99969.163
99981.595
99995.1
100009.63
100025.15
100041.62
100059.01
100077.22
100096.2
100115.86
100136.14
100156.94
100178.14
100199.65
100221.39
100243.24
100265.13
100286.92
100308.52
100329.86
100350.95
100371.61
100391.76
100411.15
100430.26
100448.83
100466.8
100484.14
100500.84
100516.84
100532.37
100547.34
100561.23
100574.54
100587.44
100599.7
100611.4
100622.61
100633.29
100643.48
100653.2
100662.49
100671.38
100679.91
100688.11
100696.01
100703.67
100711.12
99903.562
99900.357
99897.856
99895.985
99894.702
99893.699
99892.898
99892.356
99892.132
99892.217
99892.622
99893.375
99894.511
99896.073
99898.102
99900.643
99903.744
99907.454
99911.821
99916.893
99922.706
99929.299
99936.79
99945.246
99954.245
99965.039
99976.055
99988.121
100001.21
100015.27
100030.26
100046.17
100062.95
100080.51
100098.79
100117.74
100137.29
100157.34
100177.8
100198.58
100219.59
100240.76
100261.98
100283.09
100304.06
100324.84
100345.35
100365.32
100384.93
100404.19
100423.22
100441.56
100459.32
100476.5
100493.1
100509.05
100524.56
100539.55
100553.63
100567.09
100580.18
100592.71
100604.74
100616.32
100627.37
100637.97
100648.13
100657.88
100667.26
100676.28
100684.98
100693.41
100701.59
100709.55
99908.683
99905.41
99902.894
99901.028
99899.709
99898.865
99898.299
99897.995
99897.943
99898.187
99898.754
99899.672
99900.974
99902.698
99904.881
99907.565
99910.794
99914.612
99919.064
99924.186
99929.991
99936.486
99943.835
99952.382
99961.522
99971.665
99982.43
99994.141
100006.82
100020.42
100034.9
100050.24
100066.42
100083.32
100100.93
100119.17
100137.99
100157.3
100177.01
100197.05
100217.33
100237.75
100258.09
100278.48
100298.85
100319.06
100338.98
100358.57
100378.04
100397.24
100415.91
100433.94
100451.47
100468.5
100485.01
100500.94
100516.44
100531.46
100545.74
100559.4
100572.73
100585.55
100597.9
100609.77
100621.19
100632.19
100642.79
100652.99
100662.84
100672.35
100681.56
100690.49
100699.19
100707.68
99912.98
99909.742
99907.27
99905.474
99904.214
99903.377
99902.928
99902.829
99903.002
99903.461
99904.236
99905.355
99906.853
99908.762
99911.119
99913.961
99917.328
99921.263
99925.804
99930.985
99936.851
99943.499
99950.971
99959.061
99967.813
99977.369
99987.992
99999.539
100011.87
100025.03
100039.01
100053.77
100069.23
100085.44
100102.34
100119.87
100137.95
100156.51
100175.49
100194.79
100214.33
100233.99
100253.68
100273.58
100293.45
100313.2
100332.76
100352.16
100371.29
100390.04
100408.24
100425.98
100443.32
100460.23
100476.66
100492.6
100508.11
100523.18
100537.64
100551.55
100565.11
100578.21
100590.87
100603.08
100614.89
100626.3
100637.33
100647.99
100658.31
100668.3
100678
100687.44
100696.64
100705.63
99916.346
99913.271
99910.913
99909.237
99908.115
99907.425
99907.099
99907.097
99907.433
99908.089
99909.072
99910.403
99912.106
99914.213
99916.754
99919.765
99923.281
99927.339
99931.973
99937.221
99943.155
99949.894
99957.314
99964.981
99973.446
99982.725
99993.056
100004.33
100016.3
100029
100042.46
100056.64
100071.49
100087.09
100103.34
100120.19
100137.59
100155.46
100173.75
100192.38
100211.27
100230.36
100249.65
100269
100288.31
100307.52
100326.58
100345.48
100364.08
100382.36
100400.25
100417.78
100434.96
100451.77
100468.14
100484.1
100499.65
100514.82
100529.43
100543.61
100557.41
100570.8
100583.78
100596.36
100608.56
100620.38
100631.84
100642.95
100653.73
100664.21
100674.39
100684.32
100694.01
100703.49
99918.777
99915.974
99913.791
99912.274
99911.321
99910.812
99910.669
99910.858
99911.379
99912.226
99913.404
99914.928
99916.821
99919.11
99921.821
99924.986
99928.635
99932.798
99937.509
99942.802
99948.712
99955.278
99962.433
99970.273
99978.876
99987.981
99997.861
100008.71
100020.27
100032.54
100045.53
100059.22
100073.62
100088.66
100104.31
100120.53
100137.27
100154.48
100172.09
100190.04
100208.28
100226.73
100245.37
100264.07
100282.74
100301.36
100319.89
100338.29
100356.47
100374.42
100392.07
100409.42
100426.46
100443.19
100459.54
100475.52
100491.15
100506.43
100521.23
100535.66
100549.72
100563.41
100576.72
100589.67
100602.25
100614.48
100626.37
100637.92
100649.16
100660.09
100670.75
100681.15
100691.31
100701.27
99920.369
99917.883
99915.916
99914.59
99913.829
99913.517
99913.574
99913.97
99914.694
99915.743
99917.121
99918.842
99920.926
99923.395
99926.272
99929.585
99933.359
99937.623
99942.406
99947.738
99953.644
99960.141
99967.229
99975.05
99983.554
99992.388
100002.05
100012.57
100023.77
100035.65
100048.19
100061.41
100075.27
100089.75
100104.79
100120.37
100136.45
100152.97
100169.9
100187.17
100204.73
100222.51
100240.49
100258.57
100276.69
100294.81
100312.89
100330.87
100348.71
100366.37
100383.8
100400.99
100417.92
100434.58
100450.95
100466.96
100482.69
100498.08
100513.1
100527.76
100542.1
100556.09
100569.74
100583.04
100596.01
100608.64
100620.95
100632.93
100644.61
100655.99
100667.1
100677.95
100688.57
100698.97
99930.438
99917.333
99894.066
99872.875
99857.328
99847.274
99839.883
99833.807
99829.271
99941.859
99923.761
99897.096
99877.343
99863.309
99853.653
99846.701
99840.966
99836.936
99935.908
99919.649
99898.061
99881.512
99868.429
99859.834
99853.479
99848.123
99844.442
99931.562
99917.75
99901.065
99886.466
99874.342
99866.453
99860.531
99855.491
99852.054
99929.572
99918
99904.632
99890.869
99880.021
99872.803
99867.344
99862.679
99859.484
99927.748
99918.121
99907.002
99894.535
99884.998
99878.597
99873.745
99869.559
99866.649
99924.983
99917.272
99908.026
99897.351
99889.297
99883.9
99879.796
99876.179
99873.602
99921.202
99915.543
99908.111
99899.437
99893.067
99888.833
99885.588
99882.609
99880.408
99916.638
99913.107
99907.576
99901.001
99896.438
99893.492
99891.194
99888.91
99887.12
99911.509
99910.1
99906.542
99902.211
99899.514
99897.953
99896.677
99895.132
99893.786
99906.01
99906.765
99905.108
99903.15
99902.385
99902.293
99902.099
99901.332
99900.457
99900.182
99903.253
99903.592
99903.939
99905.146
99906.592
99907.528
99907.566
99907.183
99894.315
99899.555
99902.073
99904.675
99907.894
99910.929
99913.033
99913.892
99914.017
99888.758
99895.871
99900.51
99905.46
99910.729
99915.385
99918.681
99920.372
99921.013
99883.478
99892.373
99899.136
99906.423
99913.746
99920.039
99924.535
99927.062
99928.222
99878.593
99889.184
99898.102
99907.679
99917.043
99924.973
99930.66
99934.016
99935.694
99874.218
99886.458
99897.52
99909.335
99920.717
99930.265
99937.127
99941.294
99943.482
99870.411
99884.328
99897.499
99911.501
99924.859
99935.992
99944.001
99948.95
99951.633
99867.319
99882.938
99898.158
99914.283
99929.56
99942.227
99951.338
99957.034
99960.193
99865.146
99882.434
99899.617
99917.788
99934.904
99949.035
99959.191
99965.593
99969.202
99864.034
99882.939
99901.99
99922.112
99940.973
99956.479
99967.609
99974.668
99978.701
99864.084
99884.552
99905.38
99927.347
99947.839
99964.613
99976.645
99984.303
99988.725
99865.403
99887.367
99909.884
99933.577
99955.572
99973.491
99986.339
99994.533
99999.307
99868.103
99891.482
99915.597
99940.881
99964.23
99983.165
99996.726
100005.39
100010.47
99872.279
99896.979
99922.605
99949.324
99973.859
99993.673
100007.84
100016.9
100022.24
99877.961
99903.93
99930.983
99958.96
99984.497
100005.04
100019.69
100029.07
100034.63
99885.538
99912.377
99940.837
99969.83
99996.169
100017.29
100032.31
100041.93
100047.65
99894.795
99923.459
99952.346
99981.959
100008.89
100030.41
100045.69
100055.47
100061.31
99905.902
99936.075
99965.206
99995.321
100022.65
100044.41
100059.83
100069.69
100075.6
99919.187
99949.545
99979.306
100009.9
100037.45
100059.29
100074.72
100084.59
100090.51
99934.269
99964.507
99994.849
100025.71
100053.26
100075.02
100090.35
100100.15
100106.04
99950.549
99981.262
100011.9
100042.72
100070.07
100091.59
100106.69
100116.34
100122.16
99969.568
99999.923
100030.38
100060.88
100087.81
100108.94
100123.72
100133.14
100138.84
99990.234
100020.02
100050.15
100080.11
100106.44
100127.03
100141.38
100150.51
100156.05
100012.2
100041.47
100071.12
100100.33
100125.88
100145.79
100159.62
100168.41
100173.75
100035.61
100064.22
100093.17
100121.45
100146.07
100165.18
100178.4
100186.79
100191.9
100060.41
100088.14
100116.18
100143.37
100166.91
100185.11
100197.65
100205.59
100210.44
100086.39
100113.04
100140.02
100165.97
100188.31
100205.51
100217.31
100224.76
100229.32
100113.33
100138.76
100164.54
100189.13
100210.18
100226.3
100237.29
100244.23
100248.48
100141.03
100165.12
100189.59
100212.74
100232.42
100247.4
100257.55
100263.94
100267.87
100169.28
100191.95
100215.03
100236.67
100254.91
100268.71
100277.99
100283.81
100287.41
100197.91
100219.08
100240.71
100260.79
100277.57
100290.14
100298.54
100303.79
100307.04
100226.72
100246.36
100266.5
100284.98
100300.27
100311.62
100319.11
100323.79
100326.69
100255.52
100273.62
100292.24
100309.12
100322.92
100333.04
100339.65
100343.75
100346.31
100284.15
100300.7
100317.81
100333.1
100345.43
100354.33
100360.06
100363.59
100365.8
100312.44
100327.47
100343.09
100356.81
100367.68
100375.39
100380.26
100383.24
100385.12
100340.25
100353.8
100367.95
100380.16
100389.61
100396.16
100400.2
100402.64
100404.2
100367.45
100379.56
100392.29
100403.03
100411.12
100416.56
100419.79
100421.71
100422.96
100393.93
100404.66
100416.02
100425.36
100432.13
100436.51
100438.98
100440.4
100441.35
100419.58
100429.01
100439.05
100447.04
100452.58
100455.94
100457.68
100458.64
100459.3
100444.31
100452.5
100461.3
100468.02
100472.39
100474.8
100475.85
100476.37
100476.76
100468.04
100475.08
100482.69
100488.23
100491.5
100493.01
100493.43
100493.53
100493.68
100490.71
100496.66
100503.17
100507.61
100509.86
100510.54
100510.36
100510.09
100510.01
100512.26
100517.2
100522.68
100526.11
100527.41
100527.33
100526.61
100525.99
100525.7
100532.63
100536.65
100541.18
100543.67
100544.12
100543.34
100542.13
100541.19
100540.72
100551.8
100554.97
100558.63
100560.28
100559.95
100558.54
100556.88
100555.67
100555.04
100569.75
100572.14
100575
100575.89
100574.86
100572.9
100570.86
100569.4
100568.62
100586.45
100588.13
100590.27
100590.48
100588.85
100586.41
100584.03
100582.36
100581.46
100601.91
100602.96
100604.45
100604.06
100601.91
100599.05
100596.39
100594.55
100593.55
100616.14
100616.61
100617.52
100616.62
100614.02
100610.82
100607.93
100605.95
100604.87
100629.15
100629.11
100629.5
100628.16
100625.2
100621.72
100618.65
100616.57
100615.44
100640.97
100640.47
100640.41
100638.71
100635.46
100631.77
100628.57
100626.42
100625.26
100651.62
100650.73
100650.27
100648.27
100644.81
100640.97
100637.69
100635.5
100634.34
100661.14
100659.92
100659.12
100656.89
100653.26
100649.33
100646.02
100643.84
100642.7
100669.57
100668.06
100666.98
100664.57
100660.86
100656.9
100653.6
100651.45
100650.37
100676.99
100675.22
100673.89
100671.36
100667.61
100663.68
100660.44
100658.34
100657.35
100683.42
100681.45
100679.91
100677.29
100673.57
100669.71
100666.56
100664.46
100663.69
100688.89
100686.77
100685.07
100682.41
100678.76
100675.04
100672.03
100670.1
100669.22
100693.51
100691.26
100689.43
100686.78
100683.24
100679.7
100676.79
100675.04
100674.55
100697.33
100695
100693.05
100690.43
100687.05
100683.68
100681.02
100679.66
100679.04
100700.54
100698.06
100696.02
100693.45
100690.26
100687.16
100684.87
100683.46
100682.73
100702.21
100700.35
100698.39
100695.9
100692.9
100690.03
100688.06
100686.84
100686.15
100703.6
100701.52
100700.19
100697.84
100695.09
100692.58
100690.69
100689.58
100689.16
100705.78
100702.71
100701.19
100699.33
100696.87
100694.68
100693.02
100692.1
100691.85
100707.11
100704.46
100702.16
100700.27
100698.25
100696.38
100695.06
100694.39
100694.27
100707.63
100705.53
100703.42
100701.29
100699.42
100697.87
100696.87
100696.46
100696.46
100707.97
100706.05
100704.19
100702.32
100700.61
100708.31
99820.901
99810.865
99803.037
99797.139
99792.77
99789.584
99787.312
99785.776
99784.894
99784.585