/*--------------------------------*- C++ -*----------------------------------*\
| =========                 |                                                 |
| \\      /  F ield         | OpenFOAM: The Open Source CFD Toolbox           |
|  \\    /   O peration     | Version:  2406                                  |
|   \\  /    A nd           | Website:  www.openfoam.com                      |
|    \\/     M anipulation  |                                                 |
\*---------------------------------------------------------------------------*/
FoamFile
{
    version     2.0;
    format      ascii;
    arch        "LSB;label=32;scalar=64";
    class       volScalarField;
    location    "0.004";
    object      T;
}
// * * * * * * * * * * * * * * * * * * * * * * * * * * * * * * * * * * * * * //

dimensions      [0 0 0 1 0 0 0];

internalField   nonuniform List<scalar> 
8950
(
291.59705
291.59613
291.60196
291.61327
291.62726
291.64173
291.65567
291.66853
291.67997
291.6898
291.69797
291.70452
291.70951
291.71317
291.71568
291.71729
291.7182
291.71864
291.71879
291.71887
291.71909
291.71966
291.72076
291.72262
291.7254
291.72924
291.73407
291.74062
291.74863
291.75798
291.76914
291.78199
291.79616
291.81208
291.82972
291.84891
291.86959
291.8917
291.9151
291.93964
291.96519
291.99164
292.01884
292.04666
292.07498
292.10368
292.13267
292.16186
292.19118
292.22057
292.24998
292.27934
292.30859
292.33769
292.36654
292.39509
292.42326
292.45097
292.47816
292.50476
292.53072
292.55599
292.58052
292.60428
292.62724
292.64935
292.67059
292.69089
292.71022
292.72855
292.74584
292.76209
292.7773
292.79158
292.80477
292.81689
292.82799
292.83804
291.88233
291.86591
291.85646
291.85214
291.85067
291.85034
291.85023
291.84979
291.84869
291.84675
291.84393
291.84025
291.83579
291.83067
291.82509
291.81924
291.81329
291.80743
291.80181
291.79663
291.79204
291.78823
291.78539
291.78367
291.78322
291.78411
291.78647
291.79082
291.79687
291.8045
291.81407
291.82591
291.83918
291.85428
291.87115
291.88969
291.90985
291.93149
291.95443
291.97852
292.00362
292.02959
292.05631
292.08362
292.11142
292.1396
292.16807
292.19675
292.22557
292.25449
292.28343
292.31233
292.34112
292.36975
292.39814
292.42622
292.4539
292.48113
292.50784
292.53395
292.55943
292.58422
292.60826
292.63152
292.65397
292.67555
292.69621
292.71588
292.73453
292.75214
292.76866
292.78413
292.79859
292.81191
292.82411
292.83525
292.84533
292.16131
292.13403
292.11206
292.09348
292.07721
292.06237
292.04836
292.03481
292.02143
292.00806
291.99463
291.98111
291.96751
291.95392
291.94047
291.92729
291.91453
291.90232
291.89083
291.8802
291.87057
291.86212
291.85501
291.84938
291.84535
291.84303
291.84263
291.8444
291.84815
291.85384
291.86175
291.872
291.88398
291.89806
291.91403
291.9318
291.95117
291.97213
291.99443
292.01791
292.04242
292.06782
292.09395
292.1207
292.14794
292.17558
292.20353
292.23172
292.26007
292.28853
292.31703
292.34549
292.37386
292.40206
292.43001
292.45764
292.48488
292.51166
292.53791
292.56357
292.58858
292.6129
292.63643
292.65918
292.6811
292.7021
292.7221
292.74107
292.75898
292.77577
292.79147
292.80612
292.81965
292.83197
292.84315
292.85324
292.86224
292.39469
292.36241
292.33337
292.30594
292.27986
292.25485
292.23073
292.20732
292.18447
292.16208
292.14007
292.11842
292.09713
292.07627
292.05593
292.03622
292.01728
291.99922
291.9822
291.96636
291.95185
291.93883
291.92745
291.91785
291.91017
291.90456
291.9012
291.90021
291.90148
291.90506
291.9111
291.91956
291.93014
291.94299
291.95783
291.97468
291.99321
292.0133
292.03482
292.05758
292.08142
292.10617
292.13169
292.15784
292.18452
292.21163
292.23909
292.26681
292.29472
292.32275
292.35084
292.37891
292.40687
292.43467
292.46221
292.48943
292.51626
292.54261
292.56843
292.59363
292.61818
292.64201
292.665
292.68722
292.70856
292.7289
292.74817
292.76637
292.78344
292.79938
292.81424
292.82796
292.84045
292.85172
292.86182
292.87081
292.87868
292.57248
292.53924
292.50764
292.4764
292.44562
292.41534
292.38559
292.35635
292.32758
292.29926
292.2714
292.24401
292.21713
292.1908
292.16513
292.14024
292.11626
292.09333
292.07161
292.05125
292.03242
292.01528
292
291.98674
291.97565
291.9669
291.96063
291.95692
291.95576
291.95718
291.96125
291.96791
291.97697
291.98846
292.00213
292.0178
292.03539
292.05462
292.07528
292.09725
292.12039
292.14447
292.16937
292.19495
292.2211
292.24773
292.27473
292.30202
292.32954
292.3572
292.38492
292.41262
292.44022
292.46765
292.49482
292.52166
292.54809
292.57403
292.59943
292.62417
292.64824
292.67156
292.69396
292.71561
292.73629
292.75587
292.77436
292.79169
292.80788
292.82296
292.83687
292.84953
292.86092
292.87109
292.88007
292.8879
292.70074
292.66869
292.63721
292.60541
292.57344
292.54145
292.50952
292.47773
292.44611
292.4147
292.38356
292.35277
292.32238
292.29249
292.26324
292.23474
292.20715
292.18062
292.15532
292.13144
292.10916
292.08868
292.07017
292.05381
292.03978
292.02826
292.01937
292.0132
292.00979
292.00917
292.01137
292.01631
292.02387
292.03397
292.04639
292.06094
292.07748
292.0958
292.11565
292.13685
292.15927
292.1827
292.20702
292.23208
292.25776
292.28395
292.31056
292.33749
292.36466
292.39199
292.41938
292.44676
292.47403
292.50112
292.52795
292.55442
292.58046
292.60599
292.63095
292.6552
292.67876
292.7015
292.72326
292.74428
292.76419
292.78295
292.80054
292.81698
292.83229
292.84639
292.85923
292.87077
292.88103
292.89004
292.89785
292.90451
292.79102
292.76092
292.73078
292.70003
292.66876
292.63708
292.60509
292.57286
292.54046
292.50798
292.47553
292.44319
292.41107
292.37929
292.348
292.31736
292.28752
292.25865
292.23096
292.20466
292.17994
292.15701
292.13608
292.11736
292.10103
292.08728
292.07624
292.06802
292.06268
292.06028
292.06081
292.06421
292.07037
292.07917
292.09041
292.10389
292.11945
292.13689
292.15595
292.17644
292.19821
292.22106
292.24485
292.26945
292.29472
292.32053
292.3468
292.37341
292.40028
292.42732
292.45442
292.4815
292.50845
292.53521
292.56169
292.58779
292.61341
292.63851
292.66298
292.68669
292.70968
292.73178
292.75288
292.77309
292.79215
292.81001
292.82669
292.84223
292.85654
292.86956
292.88126
292.89163
292.90071
292.90854
292.91516
292.92063
292.85401
292.82601
292.79767
292.76864
292.73889
292.70847
292.67748
292.64595
292.61398
292.58168
292.54917
292.51656
292.48396
292.45153
292.41942
292.3878
292.35684
292.32672
292.2977
292.26998
292.24378
292.2193
292.1968
292.17647
292.15853
292.14316
292.13053
292.12075
292.11392
292.11008
292.10925
292.11135
292.11631
292.12398
292.13418
292.14672
292.16142
292.17805
292.1964
292.21624
292.23743
292.2598
292.28312
292.30731
292.33222
292.35771
292.38368
292.41001
292.4366
292.46336
292.49017
292.51695
292.54358
292.56999
292.5961
292.6218
292.64694
292.67156
292.69548
292.71859
292.74094
292.76233
292.78269
292.8019
292.82006
292.83701
292.85277
292.86729
292.8805
292.89237
292.90289
292.91207
292.91995
292.92657
292.93199
292.93627
292.898
292.87214
292.84575
292.81858
292.79056
292.76178
292.73219
292.70187
292.67094
292.6395
292.60764
292.57551
292.54326
292.511
292.47891
292.44715
292.41593
292.38544
292.35593
292.32762
292.30074
292.27552
292.25218
292.23096
292.21207
292.19571
292.18205
292.17123
292.16335
292.15849
292.15664
292.15776
292.16176
292.16852
292.17787
292.18962
292.20358
292.21954
292.23727
292.25655
292.27724
292.29916
292.3221
292.34593
292.37052
292.39572
292.42139
292.44745
292.47376
292.50023
292.52674
292.55317
292.57945
292.60548
292.63116
292.65639
292.68099
292.70506
292.72836
292.75081
292.77237
292.793
292.81246
292.83067
292.84789
292.86391
292.87864
292.89204
292.90409
292.91477
292.92408
292.93204
292.9387
292.94411
292.94834
292.92913
292.90527
292.88081
292.85543
292.82919
292.80202
292.77395
292.74503
292.71541
292.6851
292.65427
292.62306
292.59161
292.56004
292.5285
292.4972
292.46634
292.43611
292.40675
292.37852
292.35162
292.32628
292.30275
292.28125
292.262
292.2452
292.23104
292.21966
292.21119
292.2057
292.2032
292.20364
292.20696
292.21305
292.22175
292.23288
292.24625
292.26164
292.27885
292.29768
292.31793
292.33943
292.36202
292.38552
292.40979
292.4347
292.46008
292.48583
292.51184
292.53798
292.56413
292.59018
292.61604
292.6416
292.6668
292.69148
292.71546
292.7389
292.76149
292.78317
292.80384
292.82357
292.8421
292.85936
292.8756
292.89054
292.90414
292.91638
292.92723
292.93669
292.94478
292.95152
292.95697
292.96118
292.96423
292.95174
292.92975
292.90699
292.88335
292.8587
292.83307
292.80647
292.77902
292.75071
292.72168
292.69206
292.66202
292.63162
292.60102
292.5704
292.53995
292.50987
292.48034
292.45163
292.42395
292.39752
292.37258
292.34936
292.32808
292.30896
292.2922
292.27799
292.26649
292.25782
292.25207
292.24924
292.24931
292.25221
292.25785
292.2661
292.27678
292.28968
292.30461
292.32139
292.33981
292.35967
292.3808
292.40303
292.42621
292.45014
292.47471
292.49976
292.52517
292.55081
292.57657
292.60229
292.62789
292.65323
292.67824
292.70289
292.72692
292.75022
292.77289
292.79469
292.81548
292.83523
292.85396
292.87156
292.88783
292.90297
292.91677
292.92919
292.94023
292.94986
292.9581
292.96496
292.97049
292.97473
292.97777
292.97969
292.96889
292.94851
292.9273
292.90513
292.88197
292.85781
292.83265
292.80652
292.77954
292.75185
292.72354
292.69472
292.66553
292.6361
292.60662
292.5773
292.54829
292.51979
292.49207
292.4653
292.43971
292.41554
292.39302
292.37235
292.35375
292.33741
292.32353
292.31225
292.30372
292.29803
292.29515
292.29509
292.29779
292.30319
292.31115
292.3215
292.33405
292.34861
292.36501
292.38305
292.40255
292.42332
292.44519
292.46799
292.49156
292.51573
292.54039
292.56536
292.59058
292.61587
292.64108
292.66612
292.69087
292.71522
292.73927
292.76257
292.7851
292.80681
292.82774
292.8476
292.8664
292.88413
292.90066
292.91588
292.92985
292.94247
292.9537
292.96351
292.97192
292.97894
292.98459
292.98892
292.992
292.99391
292.99475
292.98261
292.96365
292.94382
292.923
292.90116
292.8783
292.85444
292.82965
292.80402
292.77765
292.75064
292.72311
292.69521
292.66709
292.63893
292.6109
292.58316
292.55593
292.52943
292.50382
292.47935
292.45624
292.4347
292.41494
292.39714
292.38152
292.36823
292.35745
292.34934
292.34394
292.34123
292.34123
292.3439
292.34921
292.35703
292.36715
292.37941
292.39365
292.4097
292.42739
292.44652
292.4669
292.48837
292.51076
292.53389
292.55761
292.5818
292.60625
292.63095
292.6557
292.6803
292.7047
292.72876
292.75235
292.77571
292.79819
292.81982
292.84055
292.86051
292.87943
292.8972
292.91386
292.92926
292.94335
292.95614
292.96755
292.97756
292.98616
292.99335
292.99916
293.00363
293.00681
293.00878
293.00962
293.00945
292.99435
292.97663
292.95805
292.93844
292.9178
292.89615
292.87352
292.84998
292.82564
292.80056
292.77486
292.74867
292.72215
292.69543
292.66868
292.64206
292.61575
292.58996
292.56484
292.54059
292.51743
292.49556
292.47522
292.45657
292.43979
292.42508
292.4126
292.40252
292.39501
292.39007
292.38766
292.38785
292.39062
292.39597
292.40373
292.41368
292.42569
292.43962
292.45535
292.47268
292.49141
292.51137
292.53239
292.5543
292.57693
292.60013
292.62376
292.64763
292.6717
292.6958
292.71973
292.74339
292.76669
292.78947
292.81185
292.83352
292.85418
292.87395
292.89289
292.91075
292.92744
292.94296
292.9572
292.97012
292.98171
292.99191
293.0007
293.00809
293.0141
293.01874
293.02207
293.02415
293.02507
293.02492
293.02381
293.00506
292.98851
292.97102
292.95252
292.933
292.91248
292.89101
292.86868
292.84557
292.82178
292.7974
292.77259
292.74749
292.72223
292.69696
292.67185
292.64708
292.62281
292.5992
292.57644
292.55471
292.53421
292.51522
292.49782
292.4822
292.46854
292.457
292.44776
292.44092
292.43649
292.43448
292.43497
292.43795
292.4434
292.45113
292.46092
292.47269
292.48633
292.50172
292.51868
292.53699
292.55648
292.57699
292.59836
292.62042
292.64302
292.66601
292.68922
292.71257
292.73593
292.75908
292.78193
292.80437
292.82631
292.84761
292.86835
292.88804
292.9068
292.92465
292.94138
292.95694
292.97129
292.98435
292.99608
293.00645
293.01544
293.02304
293.02925
293.0341
293.03762
293.03987
293.04093
293.04087
293.03982
293.01551
292.99998
292.98349
292.96601
292.94752
292.92807
292.90773
292.88657
292.86468
292.84216
292.81913
292.79572
292.77207
292.7483
292.72457
292.70102
292.67782
292.65513
292.6331
292.6119
292.59171
292.57268
292.55501
292.539
292.52465
292.51212
292.50161
292.49324
292.48709
292.48322
292.48171
292.48258
292.48581
292.49132
292.49895
292.5086
292.52014
292.53348
292.54855
292.56511
292.58294
292.60189
292.62184
292.64261
292.66404
292.68595
292.70823
292.73071
292.75326
292.77579
292.79808
292.82004
292.84155
292.86251
292.88284
292.90253
292.92118
292.93887
292.95558
292.97115
292.98554
292.9987
293.01056
293.02109
293.03026
293.03806
293.04449
293.04956
293.05331
293.05577
293.05702
293.05713
293.05619
293.05432
293.02613
293.01149
292.99593
292.9794
292.9619
292.94348
292.92423
292.90422
292.88355
292.86231
292.84062
292.81863
292.79645
292.77419
292.752
292.73003
292.70843
292.68734
292.66691
292.6473
292.62867
292.61119
292.59494
292.58016
292.56716
292.55579
292.54635
292.5389
292.53349
292.53024
292.52925
292.53049
292.5339
292.53941
292.54697
292.55652
292.56784
292.58087
292.59553
292.61161
292.62892
292.64727
292.6666
292.68673
292.70745
292.72861
292.75011
292.77179
292.79348
292.81511
292.83648
292.85749
292.878
292.89793
292.91724
292.93585
292.95341
292.96997
292.9855
292.9999
293.0131
293.02505
293.03572
293.04505
293.05303
293.05968
293.06498
293.06897
293.07167
293.07315
293.07347
293.07272
293.071
293.06842
293.03714
293.02333
293.00864
292.99301
292.97647
292.95906
292.94088
292.92202
292.90256
292.88259
292.86225
292.84167
292.82095
292.8002
292.77956
292.75917
292.73916
292.71967
292.70083
292.68278
292.66569
292.64972
292.63503
292.62149
292.60963
292.59944
292.59105
292.58451
292.57987
292.57728
292.5768
292.57839
292.582
292.58752
292.59499
292.60441
292.61543
292.62809
292.64233
292.65795
292.67467
292.69236
292.71101
292.73038
292.75032
292.77067
292.79135
292.81217
292.83295
292.85363
292.87402
292.89402
292.91349
292.93237
292.9506
292.96806
292.98451
292.99992
293.01426
293.02746
293.03945
293.05021
293.05968
293.06784
293.07467
293.0802
293.08443
293.0874
293.08914
293.08971
293.0892
293.08769
293.08528
293.0821
293.04871
293.03567
293.02179
293.00704
292.99143
292.97503
292.9579
292.94017
292.92191
292.90322
292.8842
292.86501
292.84575
292.8265
292.80738
292.78854
292.7701
292.75217
292.73488
292.71837
292.70277
292.68826
292.67502
292.6628
292.65202
292.64298
292.63559
292.62991
292.62603
292.62406
292.62402
292.62591
292.62968
292.63523
292.64271
292.65194
292.66265
292.67495
292.6887
292.70373
292.71981
292.73685
292.75477
292.77335
292.79244
292.81193
292.8317
292.85157
292.87138
292.89107
292.91045
292.92941
292.94781
292.9656
292.98271
292.99899
293.0143
293.02855
293.04169
293.05368
293.06448
293.07405
293.08234
293.08935
293.09509
293.09956
293.10278
293.10479
293.10565
293.10541
293.10416
293.10199
293.099
293.09532
293.06087
293.04857
293.03546
293.02155
293.00685
292.99143
292.97536
292.95875
292.94168
292.92425
292.90656
292.88871
292.87087
292.8531
292.83548
292.81815
292.80122
292.7848
292.76902
292.75398
292.73983
292.72668
292.71466
292.70382
292.69425
292.68623
292.67975
292.67488
292.67171
292.67029
292.67066
292.67282
292.67673
292.68234
292.68976
292.69869
292.7091
292.721
292.73424
292.74867
292.76411
292.78044
292.79755
292.81528
292.83352
292.85213
292.87094
292.88979
292.90858
292.92722
292.94556
292.96344
292.98075
292.99743
293.01338
293.02848
293.04262
293.05571
293.06764
293.07843
293.08805
293.09645
293.1036
293.10952
293.1142
293.11768
293.11996
293.12111
293.12116
293.1202
293.11831
293.11558
293.11211
293.10802
293.07356
293.06196
293.04961
293.03653
293.02273
293.00828
292.99325
292.97774
292.96185
292.94566
292.92926
292.91276
292.89629
292.87993
292.86376
292.84788
292.83241
292.81744
292.80309
292.78947
292.77668
292.7648
292.75392
292.74445
292.73598
292.7289
292.72327
292.71917
292.71663
292.71572
292.71646
292.71885
292.72288
292.72852
292.73576
292.74444
292.75453
292.76599
292.77869
292.79248
292.80723
292.82281
292.83912
292.85601
292.87336
292.891
292.90879
292.92662
292.94436
292.96194
292.97917
292.99592
293.01212
293.02766
293.04245
293.05637
293.06933
293.08125
293.092
293.1016
293.11006
293.11733
293.12339
293.12827
293.13197
293.13452
293.13594
293.1363
293.13565
293.13406
293.13161
293.12842
293.12456
293.12017
293.08673
293.0758
293.06419
293.05191
293.03899
293.02549
293.01149
292.99708
292.98233
292.96735
292.95221
292.93702
292.92188
292.90687
292.89207
292.87759
292.8635
292.84992
292.83692
292.82463
292.81312
292.80246
292.79277
292.78434
292.77693
292.77073
292.76591
292.76251
292.76055
292.76009
292.76115
292.76374
292.76785
292.77344
292.7805
292.78892
292.79865
292.80964
292.82176
292.83491
292.84895
292.86376
292.87923
292.89524
292.91165
292.92831
292.94509
292.96186
292.97856
292.99505
293.01111
293.02671
293.04175
293.05614
293.06977
293.08252
293.09431
293.10506
293.11466
293.12311
293.13044
293.13663
293.14167
293.14557
293.14836
293.15006
293.15071
293.15036
293.14909
293.14696
293.14406
293.14048
293.13633
293.13172
293.10026
293.08997
293.07908
293.06759
293.05554
293.04297
293.02998
293.01663
293.003
292.98919
292.97527
292.96133
292.94746
292.93374
292.92026
292.90708
292.89431
292.88202
292.8703
292.85924
292.84892
292.83942
292.83084
292.82335
292.8169
292.81151
292.80745
292.80468
292.80324
292.80316
292.8045
292.80724
292.81138
292.81689
292.82375
292.83187
292.84122
292.85171
292.86325
292.87573
292.88904
292.90306
292.91768
292.93278
292.94823
292.96389
292.97964
292.99537
293.01099
293.02629
293.04118
293.05567
293.06956
293.08277
293.09524
293.10684
293.11747
293.12708
293.13555
293.1429
293.14917
293.15434
293.15842
293.16142
293.16337
293.1643
293.16426
293.1633
293.16149
293.1589
293.15562
293.15175
293.14738
293.14262
293.11397
293.10432
293.09414
293.08342
293.07222
293.06057
293.04855
293.03623
293.02369
293.011
292.99825
292.9855
292.97285
292.96036
292.94811
292.93617
292.92463
292.91355
292.90302
292.89311
292.88389
292.87545
292.86787
292.86125
292.85566
292.85109
292.84771
292.84548
292.84447
292.84473
292.84628
292.84912
292.85326
292.85866
292.86529
292.87309
292.88202
292.892
292.90294
292.91474
292.9273
292.94051
292.95426
292.96844
292.98292
292.99758
293.01228
293.02694
293.04143
293.05558
293.06939
293.08272
293.09544
293.10749
293.11879
293.12926
293.13878
293.14727
293.15468
293.16098
293.16625
293.17048
293.17367
293.17585
293.17705
293.17729
293.17664
293.17514
293.17287
293.16991
293.16632
293.16222
293.15769
293.15284
293.12773
293.1187
293.10921
293.09926
293.08888
293.07812
293.06705
293.05573
293.04423
293.03262
293.02097
293.00936
292.99785
292.98652
292.97543
292.96465
292.95425
292.9443
292.93487
292.92601
292.91781
292.91034
292.90367
292.89786
292.89304
292.88924
292.88643
292.88468
292.88405
292.88458
292.8863
292.88921
292.89331
292.89856
292.90494
292.91239
292.92088
292.93033
292.94065
292.95177
292.96357
292.97596
292.98883
293.00208
293.01558
293.02923
293.04289
293.05647
293.06986
293.08292
293.0956
293.10776
293.11934
293.13025
293.14042
293.14978
293.15823
293.16567
293.17206
293.17739
293.18174
293.1851
293.18749
293.18893
293.18945
293.18909
293.1879
293.18595
293.18329
293.18001
293.17618
293.1719
293.16726
293.16237
293.14139
293.13297
293.12416
293.11496
293.10539
293.09549
293.08533
293.07496
293.06445
293.05386
293.04326
293.03271
293.02228
293.01203
293.00203
292.99232
292.98299
292.97408
292.96565
292.95777
292.9505
292.94392
292.93809
292.93304
292.9289
292.92573
292.92341
292.9221
292.9218
292.92256
292.92441
292.92734
292.93136
292.93644
292.94254
292.94962
292.95765
292.96655
292.97625
292.98667
292.99771
293.00927
293.02128
293.0336
293.04613
293.05876
293.07139
293.08391
293.0962
293.10818
293.11974
293.13079
293.14126
293.15107
293.16015
293.16845
293.17588
293.18233
293.18778
293.19222
293.19573
293.19832
293.19998
293.20076
293.20069
293.1998
293.19815
293.1958
293.19281
293.18927
293.18524
293.18083
293.17611
293.1712
293.15481
293.147
293.13886
293.13038
293.12158
293.11251
293.10322
293.09375
293.08418
293.07455
293.06493
293.05538
293.04596
293.03672
293.02772
293.01901
293.01065
293.0027
292.9952
292.98821
292.9818
292.97601
292.97092
292.96658
292.96305
292.96039
292.95855
292.9576
292.95758
292.95853
292.96047
292.96341
292.9673
292.97216
292.97796
292.98466
292.99222
293.00056
293.00963
293.01935
293.02962
293.04037
293.0515
293.06289
293.07446
293.0861
293.09771
293.10919
293.12043
293.13134
293.14182
293.15181
293.16122
293.16999
293.17806
293.18537
293.19183
293.19736
293.20195
293.20559
293.20835
293.21024
293.21126
293.21145
293.21085
293.2095
293.20745
293.20476
293.20149
293.19773
293.19355
293.18903
293.18427
293.17936
293.16785
293.16065
293.15316
293.14538
293.13733
293.12905
293.12058
293.11197
293.10327
293.09454
293.08584
293.07722
293.06872
293.06041
293.05234
293.04454
293.03708
293.03
293.02335
293.01718
293.01154
293.00648
293.00205
292.99832
292.99532
292.9931
292.99171
292.99105
292.99126
292.99235
292.99434
292.99724
293.00098
293.00562
293.0111
293.01741
293.02448
293.03226
293.0407
293.04972
293.05924
293.06917
293.07943
293.08993
293.10056
293.11124
293.12186
293.13233
293.14256
293.15245
293.16192
293.1709
293.17932
293.18712
293.19424
293.20064
293.2062
293.21089
293.2147
293.21763
293.21972
293.22098
293.22144
293.22112
293.22005
293.2183
293.2159
293.21291
293.20941
293.20546
293.20115
293.19655
293.19175
293.18685
293.18043
293.17381
293.16696
293.15985
293.15252
293.14498
293.13728
293.12947
293.12159
293.1137
293.10584
293.09807
293.09044
293.08298
293.07575
293.06879
293.06215
293.05586
293.04997
293.04454
293.0396
293.0352
293.03137
293.02816
293.02563
293.02383
293.02275
293.02235
293.02274
293.02393
293.02592
293.02872
293.03233
293.03673
293.04189
293.04779
293.05438
293.06161
293.06942
293.07775
293.08653
293.09567
293.1051
293.11472
293.12446
293.13421
293.14389
293.1534
293.16266
293.1716
293.18012
293.18816
293.19566
293.20257
293.20883
293.21439
293.21914
293.22308
293.2262
293.22849
293.22998
293.23069
293.23064
293.22986
293.2284
293.22629
293.22359
293.22035
293.21664
293.21253
293.2081
293.20343
293.1986
293.19372
293.19244
293.18641
293.18017
293.1737
293.16704
293.1602
293.15322
293.14615
293.13903
293.13191
293.12483
293.11784
293.11098
293.1043
293.09784
293.09163
293.08572
293.08015
293.07496
293.07018
293.06586
293.06204
293.05874
293.05601
293.05389
293.05244
293.05162
293.05145
293.05197
293.05322
293.0552
293.0579
293.06133
293.06548
293.07031
293.0758
293.08191
293.08859
293.09579
293.10346
293.11152
293.1199
293.12852
293.13732
293.14619
293.15507
293.16385
293.17247
293.18084
293.18889
293.19653
293.20372
293.21038
293.21647
293.22196
293.22675
293.23079
293.23406
293.23656
293.23828
293.23924
293.23947
293.23898
293.23781
293.23599
293.23357
293.2306
293.22714
293.22325
293.21899
293.21446
293.20972
293.20487
293.19999
291.23898
291.11368
291.09428
291.11557
291.15365
291.19649
291.23863
291.27737
291.31112
291.25605
291.11642
291.0966
291.11966
291.15937
291.20385
291.2472
291.28678
291.32111
291.28461
291.13292
291.10702
291.12866
291.1684
291.21334
291.25728
291.29738
291.33215
291.31729
291.15563
291.1211
291.13952
291.17849
291.2235
291.26781
291.30829
291.34341
291.35066
291.1806
291.13698
291.15176
291.18947
291.23428
291.27875
291.31948
291.35484
291.38232
291.20668
291.15468
291.16541
291.20146
291.24576
291.29018
291.331
291.36648
291.41197
291.23353
291.1742
291.18049
291.21448
291.25795
291.30209
291.34284
291.37833
291.43968
291.26112
291.19532
291.19692
291.22847
291.27081
291.31446
291.35498
291.39037
291.46531
291.28913
291.21765
291.21447
291.24331
291.28426
291.32722
291.36739
291.40258
291.48874
291.31675
291.24078
291.23293
291.25887
291.29823
291.34034
291.38003
291.41492
291.50987
291.34347
291.26443
291.25199
291.27499
291.31262
291.35373
291.39284
291.42735
291.52864
291.3689
291.28802
291.2714
291.29151
291.32732
291.36734
291.40576
291.43984
291.54518
291.39268
291.31108
291.2909
291.30828
291.34223
291.38108
291.41876
291.45233
291.55972
291.41468
291.33312
291.31032
291.32515
291.35725
291.39488
291.43176
291.46478
291.57242
291.43484
291.35412
291.3295
291.34198
291.37228
291.40868
291.44472
291.47716
291.58347
291.45325
291.3742
291.34827
291.35865
291.38723
291.4224
291.45758
291.48941
291.59322
291.47008
291.39326
291.36652
291.37506
291.40202
291.43599
291.47031
291.50152
291.60184
291.48554
291.41138
291.38417
291.39115
291.41662
291.44942
291.48288
291.51345
291.60954
291.49982
291.42853
291.40119
291.40687
291.43097
291.46265
291.49526
291.5252
291.61658
291.51311
291.4448
291.41762
291.42222
291.44507
291.47569
291.50746
291.53677
291.62322
291.52563
291.4603
291.43351
291.43722
291.45892
291.48853
291.51949
291.54816
291.6297
291.53761
291.47522
291.44894
291.45191
291.47257
291.50119
291.53137
291.55941
291.63626
291.5493
291.48973
291.46404
291.46637
291.48604
291.51373
291.54313
291.57054
291.6431
291.5609
291.50401
291.47892
291.48067
291.4994
291.52619
291.55482
291.58162
291.65044
291.57266
291.51827
291.49373
291.49492
291.51273
291.53863
291.5665
291.59268
291.65856
291.58484
291.53272
291.50861
291.50922
291.52612
291.55114
291.57825
291.6038
291.66751
291.59793
291.54756
291.5237
291.52368
291.53966
291.56379
291.59013
291.61506
291.67762
291.61133
291.56271
291.53909
291.53841
291.55346
291.57667
291.60223
291.62652
291.68854
291.62513
291.57831
291.55491
291.55353
291.5676
291.58987
291.61463
291.63826
291.70078
291.64009
291.59468
291.57131
291.56915
291.58218
291.60348
291.62742
291.65038
291.7146
291.65633
291.61196
291.58842
291.58537
291.59731
291.6176
291.64068
291.66294
291.72931
291.67356
291.63015
291.60631
291.60229
291.61308
291.63229
291.65448
291.67602
291.74546
291.69192
291.6493
291.62506
291.61998
291.62956
291.64765
291.6689
291.6897
291.76317
291.71149
291.6695
291.64475
291.63853
291.64682
291.66373
291.68402
291.70404
291.78234
291.7323
291.69077
291.66542
291.65799
291.66493
291.68061
291.69988
291.7191
291.80289
291.75431
291.71315
291.68712
291.67841
291.68393
291.69834
291.71655
291.73493
291.82477
291.77753
291.73664
291.70986
291.69981
291.70386
291.71694
291.73405
291.75157
291.84794
291.80192
291.76122
291.73364
291.7222
291.72473
291.73644
291.75242
291.76904
291.87231
291.8274
291.78686
291.75845
291.74558
291.74654
291.75684
291.77166
291.78735
291.89776
291.85391
291.81348
291.78424
291.76992
291.76929
291.77814
291.79175
291.8065
291.92419
291.88134
291.84102
291.81094
291.79517
291.79292
291.80029
291.81268
291.82645
291.95147
291.90958
291.86938
291.83848
291.82126
291.81738
291.82325
291.83439
291.84717
291.97948
291.93851
291.89843
291.86676
291.84811
291.8426
291.84695
291.85682
291.86859
292.0081
291.968
291.92807
291.89566
291.87561
291.86848
291.8713
291.87988
291.89063
292.03719
291.99793
291.95817
291.92507
291.90366
291.89491
291.8962
291.90348
291.91318
292.06664
292.02819
291.98861
291.95485
291.93214
291.9218
291.92154
291.92751
291.93615
292.09635
292.05866
292.01927
291.98491
291.96093
291.94901
291.94721
291.95185
291.95941
292.12623
292.08926
292.05007
292.01513
291.98992
291.97644
291.97311
291.97639
291.98285
292.15621
292.1199
292.0809
292.04542
292.01901
292.004
291.99911
292.00102
292.00636
292.18622
292.15052
292.1117
292.0757
292.04812
292.03158
292.02513
292.02566
292.02984
292.21621
292.18106
292.14242
292.10592
292.07718
292.05912
292.0511
292.05021
292.05321
292.24612
292.21148
292.173
292.13601
292.10614
292.08656
292.07696
292.07463
292.07642
292.2759
292.24172
292.20339
292.16594
292.13496
292.11386
292.10266
292.09887
292.09942
292.30549
292.27174
292.23355
292.19566
292.16358
292.14098
292.12818
292.1229
292.1222
292.33483
292.30147
292.26342
292.22511
292.19198
292.16789
292.15348
292.14671
292.14474
292.36385
292.33085
292.29295
292.25426
292.22012
292.19456
292.17855
292.17029
292.16704
292.39247
292.35979
292.32205
292.28303
292.24792
292.22094
292.20335
292.19361
292.18909
292.42061
292.38823
292.35064
292.31134
292.27534
292.24699
292.22785
292.21663
292.21087
292.44821
292.41608
292.37865
292.33911
292.30229
292.27262
292.25197
292.23932
292.23232
292.47521
292.44328
292.40599
292.36624
292.32867
292.29776
292.27565
292.26158
292.25339
292.50154
292.46977
292.43259
292.39266
292.3544
292.32231
292.29878
292.28334
292.27396
292.52715
292.4955
292.4584
292.41829
292.37938
292.34617
292.32127
292.30448
292.29394
292.55201
292.52042
292.48336
292.44308
292.40355
292.36926
292.34301
292.32488
292.31319
292.57608
292.54453
292.50745
292.46697
292.42684
292.39149
292.36391
292.34444
292.33158
292.59935
292.56779
292.53067
292.48996
292.44922
292.41282
292.38389
292.36304
292.34898
292.62177
292.59021
292.55302
292.51204
292.47068
292.43322
292.40292
292.38067
292.36542
292.64334
292.61178
292.57449
292.53323
292.49123
292.4527
292.42104
292.39742
292.38093
292.66402
292.63248
292.59511
292.55356
292.51091
292.4713
292.43828
292.41317
292.39497
292.68377
292.65232
292.61489
292.57307
292.52977
292.48906
292.45453
292.42768
292.40813
292.70258
292.67128
292.63387
292.5918
292.54786
292.50605
292.47003
292.4415
292.42054
292.7204
292.68935
292.65205
292.6098
292.56527
292.52232
292.48477
292.45478
292.4323
292.73727
292.70653
292.66946
292.62714
292.58209
292.53811
292.49905
292.46747
292.44345
292.75314
292.723
292.68607
292.64383
292.59838
292.55346
292.51308
292.47986
292.45425
292.7681
292.73842
292.70207
292.65991
292.6142
292.56849
292.52691
292.49218
292.46502
292.7821
292.75298
292.71725
292.67547
292.62964
292.58331
292.54059
292.50448
292.47591
292.79509
292.76672
292.73168
292.69039
292.6447
292.59799
292.55436
292.51699
292.48714
292.8071
292.77965
292.74542
292.70482
292.65942
292.81816
291.34215
291.37194
291.3982
291.42159
291.44259
291.46166
291.47923