/*--------------------------------*- C++ -*----------------------------------*\
| =========                 |                                                 |
| \\      /  F ield         | OpenFOAM: The Open Source CFD Toolbox           |
|  \\    /   O peration     | Version:  2406                                  |
|   \\  /    A nd           | Website:  www.openfoam.com                      |
|    \\/     M anipulation  |                                                 |
\*---------------------------------------------------------------------------*/
FoamFile
{
    version     2.0;
    format      ascii;
    arch        "LSB;label=32;scalar=64";
    class       volScalarField;
    location    "0.005";
    object      omega;
}
// * * * * * * * * * * * * * * * * * * * * * * * * * * * * * * * * * * * * * //

dimensions      [0 0 -1 0 0 0 0];

internalField   nonuniform List<scalar> 
8950
(
159464.99
150779.18
143109.35
136134.02
129691.44
123720.9
118182.45
113036.37
108245.95
103776.87
99600.339
95690.948
92025.628
88582.096
85339.271
82281.569
79393.65
76660.537
74069.671
71605.085
69260.279
67024.037
64893.948
62867.893
60931.839
59079.77
57307.857
55617.348
54003.807
52461.977
50994.3
49599.1
48273.618
47016.434
45826.22
44702.171
43643.092
42646.982
41711.801
40835.64
40016.289
39250.839
38535.99
37868.368
37244.116
36658.957
36108.361
35587.623
35091.934
34616.552
34157.066
33709.415
33269.915
32835.677
32404.405
31974.484
31544.826
31114.993
30684.96
30255.096
29826.064
29398.685
28973.717
28551.964
28133.925
27719.686
27309.974
26904.921
26504.373
26107.65
25714.323
25323.593
24934.75
24547.032
24159.559
23771.27
23383.614
22994.512
134972.91
132169.6
128140.13
123924.46
119615.7
115330.47
111160.75
107152.11
103327.2
99693.111
96247.206
92980.082
89879.318
86931.518
84123.317
81444.107
78883.706
76433.412
74091.712
71854.433
69703.964
67632.191
65638.796
63718.2
61860.939
60066.039
58331.815
56663.791
55059.196
53518.771
52043.953
50633.15
49287.035
48005.952
46789.547
45638.363
44551.513
43527.222
42563.628
41658.801
40810.292
40014.87
39268.901
38568.538
37909.451
37287.04
36696.581
36133.307
35592.507
35069.737
34561.136
34063.274
33573.182
33088.84
32608.699
32131.874
31657.792
31186.714
30718.961
30255.211
29796.624
29343.241
28895.668
28454.581
28020.424
27593.385
27173.688
26761.403
26355.943
25956.391
25561.96
25171.655
24784.511
24399.482
24015.319
23631.045
23248.52
104145.19
103279.06
102137.96
100787.15
99174.68
97358.498
95410.188
93377.75
91311.08
89247.586
87207.754
85200.748
83229.887
81294.583
79391.934
77521.393
75680.741
73867.192
72064.134
70273.811
68504.49
66761.079
65047.462
63360.883
61700.137
60073.177
58494.092
56955.774
55456.219
53998.077
52585.607
51221.027
49906.89
48646.323
47442.612
46297.296
45209.795
44179.313
43204.907
42285.083
41417.585
40599.31
39826.781
39096.125
38402.944
37742.856
37111.446
36504.333
35917.33
35346.682
34789.376
34242.796
33704.775
33174.154
32650.075
32132.404
31621.833
31117.558
30620.034
30129.99
29647.821
29174.293
28710.365
28256.771
27813.312
27380.021
26956.962
26543.608
26138.938
25741.839
25351.255
24965.971
24584.758
24206.287
23828.967
23452.073
23078.776
76110.431
76282.842
76736.824
77145.797
77340.7
77315.167
77143.672
76780.74
76298.681
75725.28
75076.059
74361.041
73586.809
72755.699
71868.787
70935.616
69952.22
68916.578
67836.432
66710.864
65542.032
64336.511
63097.049
61823.878
60522.429
59191.523
57846.553
56500.93
55161.902
53837.824
52536.04
51269.237
50041.015
48850.626
47701.476
46597.181
45538.487
44526.143
43561.002
42642.236
41768.543
40937.415
40146.049
39391.005
38668.216
37974.241
37305.377
36657.98
36028.748
35414.925
34814.706
34227.264
33650.691
33083.272
32524.719
31975.17
31434.035
30902.615
30382.076
29872.968
29375.831
28891.337
28419.976
27961.514
27516.049
27083.427
26663.206
26254.425
25855.803
25466.075
25083.935
24707.945
24336.621
23968.36
23601.255
23235.462
22876.242
54980.063
55674.259
56727.143
57836.539
58876.595
59810.681
60632.552
61332.449
61924.374
62413.788
62803.563
63095.451
63289.755
63383.508
63376.256
63293.107
63098.519
62801.933
62412.105
61925.502
61351.068
60695.021
59953.069
59129.706
58235.501
57286.712
56286.127
55242.13
54164.626
53064.901
51949.396
50825.803
49711.031
48613.36
47540.751
46498.152
45486.186
44509.091
43571.127
42670.423
41805.038
40973.404
40173.903
39403.984
38661.485
37944.459
37249.013
36572.166
35911.659
35265.74
34633.511
34013.451
33403.182
32804.715
32218.611
31645.113
31084.694
30538.314
30006.066
29488.406
28986.273
28499.387
28028.114
27572.448
27132.075
26706.453
26294.803
25895.892
25508.269
25130.507
24761.073
24398.313
24040.513
23685.797
23332.044
22981.11
40964.157
41664.02
42711.427
43901.486
45146.219
46400.501
47635.423
48830.147
49972.389
51050.567
52054.698
52976.372
53807.495
54541.201
55172.773
55700.431
56112.37
56408.09
56586.197
56638.842
56590.933
56434.347
56146.739
55752.155
55261.989
54679.236
54012.791
53271.865
52466.815
51609.795
50716.105
49792.485
48849.388
47897.188
46945.722
46002.544
45065.697
44148.707
43253.103
42381.629
41534.932
40713.155
39915.885
39141.356
38387.916
37653.241
36935.823
36234.291
35548.124
34876.676
34219.891
33577.014
32948.041
32334.482
31736.08
31152.968
30585.707
30034.9
29501.29
28984.85
28485.964
28004.775
27541.422
27095.537
26666.504
26253.55
25855.666
25471.43
25099.261
24737.57
24384.625
24038.583
23697.516
23359.283
23021.756
22689.189
32151.63
32614.069
33421.829
34442.006
35593.407
36837.221
38137.293
39465.259
40798.294
42115.886
43400.154
44635.972
45809.158
46907.197
47919.897
48837.813
49650.954
50352.929
50937.779
51402.253
51749.741
51972.709
52061.505
52033.139
51901.095
51639.574
51280.919
50825.646
50283.625
49667.083
48988.468
48257.844
47486.254
46684.493
45862.796
45029.038
44190.078
43354.173
42523.276
41701.333
40890.659
40093.646
39311.586
38544.006
37791.044
37052.928
36330.116
35622.733
34929.876
34251.527
33588.405
32940.557
32308.172
31692.885
31094.428
30513.071
29949.897
29405.318
28879.298
28372.478
27885.16
27417.171
26968.367
26538.199
26125.904
25730.548
25350.94
24985.528
24632.631
24290.511
23957.274
23630.909
23309.293
22990.057
22671.478
22361.546
26592.878
26826.542
27355.686
28140.33
29110.915
30219.025
31429.056
32710.489
34039.211
35391.481
36745.95
38085.213
39391.895
40650.207
41846.925
42969.747
44007.243
44949.859
45789.423
46519.949
47136.851
47632.63
48003.282
48253.425
48383.405
48385.014
48293.399
48080.151
47768.86
47368.447
46888.867
46340.674
45734.748
45081.592
44391.02
43671.703
42931.862
42179.917
41420.221
40657.211
39894.504
39136.83
38385.688
37642.087
36908.218
36185.621
35475.149
34777.408
34092.887
33422.377
32767.311
32128.045
31504.908
30899.699
30312.625
29743.93
29194.257
28664.373
28154.509
27665.027
27196.071
26747.345
26318.542
25909.031
25517.959
25144.272
24786.646
24443.45
24112.925
23793.214
23482.287
23177.992
22878.035
22579.936
22283.245
22001.689
22977.656
23030.83
23353.248
23933.125
24716.944
25660.538
26730.878
27896.649
29134.873
30420.803
31733.4
33055.418
34368.749
35656.575
36905.28
38101.643
39233.459
40289.973
41261.626
42139.981
42917.171
43585.516
44140.27
44579.825
44901.834
45106.007
45198.982
45178.871
45062.452
44840.83
44532.143
44144.286
43687.385
43171.167
42604.868
41997.328
41357.254
40692.865
40009.856
39313.661
38609.091
37901.527
37193.1
36486.501
35785.625
35092.108
34407.313
33732.92
33070.24
32420.657
31786.099
31167.123
30564.453
29979.749
29413.199
28865.58
28337.671
27830.049
27343.024
26876.845
26431.575
26006.887
25602.394
25217.425
24851.072
24502.202
24169.412
23851.03
23545.242
23250.094
22963.455
22683.055
22406.467
22131.305
21859.008
20553.389
20466.17
20651.798
21080.724
21708.438
22498.725
23423.744
24456.832
25572.647
26751.159
27971.041
29214.686
30465.211
31707.472
32928.341
34114.621
35254.505
36337.297
37352.864
38291.506
39144.234
39903.011
40561.77
41116.113
41562.607
41899.947
42129.054
42250.908
42268.052
42194.791
42024.164
41769.236
41439.524
41043.288
40589.047
40085.414
39540.932
38963.395
38359.164
37734.16
37094.092
36444.371
35788.284
35129.345
34471.836
33818.077
33170.059
32530.079
31900.113
31282.293
30678.061
30088.356
29514.568
28958.249
28419.784
27900.121
27400.122
26920.314
26461.074
26022.622
25604.986
25207.86
24830.83
24473.215
24134.084
23812.266
23506.326
23214.575
22935.166
22666.075
22405.091
22149.857
21897.874
21646.997
21400.005
18880.55
18692.565
18783.063
19100.665
19610.393
20275.499
21071.145
21974.662
22963.578
24019.947
25125.404
26262.383
27417.033
28575.266
29724.493
30852.221
31947.488
33000.625
34001.495
34940.053
35807.437
36595.636
37297.918
37908.718
38423.728
38840.052
39156.477
39372.879
39491.131
39515.499
39454.208
39306.096
39080.187
38785.164
38428.522
38018.203
37562.107
37067.476
36540.75
35988.047
35415.391
34828.122
34230.092
33625.484
33018.624
32412.242
31808.841
31211.189
30621.723
30042.686
29475.689
28922.006
28383.255
27860.967
27355.814
26868.873
26401.026
25952.845
25524.774
25117.047
24729.697
24362.469
24014.957
23686.493
23376.156
23082.772
22804.901
22540.865
22288.793
22046.619
21812.081
21582.763
21356.158
21130.485
20909.982
17699.12
17441.925
17459.564
17693.167
18110.161
18674.667
19362.596
20151.679
21023.027
21959.982
22946.945
23968.535
25012.809
26068.214
27122.379
28164.745
29185.657
30175.757
31125.375
32024.805
32866.192
33641.916
34345.143
34969.951
35511.395
35965.177
36329.378
36603.037
36786.858
36883.152
36895.223
36830.251
36686.701
36474.387
36200.336
35871.525
35494.908
35076.969
34623.859
34141.609
33636.109
33112.49
32574.899
32027.764
31475.296
30920.526
30366.34
29815.78
29271.455
28735.671
28210.229
27696.679
27196.792
26712.067
26243.454
25792.136
25359.018
24944.757
24549.854
24174.582
23819.011
23482.949
23166.025
22867.607
22586.8
22322.452
22073.147
21837.225
21612.815
21397.83
21189.982
20986.834
20785.947
20586.146
20394.095
16851.034
16543.929
16502.967
16671.112
17010.137
17489.013
18083.515
18773.122
19539.635
20367.555
21242.87
22152.718
23085.77
24032.293
24982.153
25926.59
26857.325
27765.557
28642.694
29480.418
30270.818
31007.232
31683.238
32293.044
32831.196
33292.412
33675.261
33978.087
34200.561
34343.601
34409.145
34400.221
34321.356
34175.029
33969.435
33710.143
33403.156
33054.158
32668.835
32252.867
31811.697
31350.165
30872.481
30383.026
29885.803
29384.062
28880.926
28379.453
27882.28
27391.801
26909.954
26438.516
25979.323
25533.879
25103.367
24689.039
24291.844
23912.517
23551.613
23209.461
22886.179
22581.646
22295.539
22027.273
21775.999
21540.598
21319.695
21111.665
20914.651
20726.569
20545.134
20367.933
20192.704
20019.342
19858.663
16234.727
15888.764
15800.328
15911.127
16183.73
16588.091
17100.273
17700.468
18371.833
19099.888
19871.846
20676.435
21503.908
22345.198
23192.031
24036.88
24872.362
25690.908
26485.082
27248.225
27973.391
28654.054
29284.751
29860.311
30375.429
30826.016
31207.649
31519.565
31760.63
31931.103
32031.547
32062.659
32030.038
31936.304
31786.58
31585.311
31337.983
31049.55
30725.106
30369.749
29988.271
29585.229
29164.732
28730.95
28287.618
27838.139
27385.648
26933.028
26483.014
26038.002
25600.031
25171.019
24752.812
24346.957
23954.805
23577.647
23216.48
22872.098
22545.102
22235.879
21944.601
21671.215
21415.449
21176.774
20954.389
20747.229
20553.966
20373.026
20202.584
20040.584
19884.774
19732.818
19582.801
19436.52
19312.022
15780.924
15401.091
15272.922
15332.964
15546.978
15885.034
16323.583
16843.45
17428.645
18065.625
18742.713
19449.885
20178.506
20920.809
21669.722
22418.687
23161.291
23891.103
24601.386
25286.534
25940.975
26558.37
27133.999
27662.935
28140.881
28565.083
28931.056
29236.704
29480.877
29663.729
29785.028
29845.038
29846.747
29793.395
29688.572
29534.841
29337.832
29101.738
28830.921
28529.719
28202.229
27852.866
27485.514
27103.977
26711.695
26312.176
25908.317
25502.848
25098.617
24697.915
24302.852
23915.397
23537.388
23170.422
22815.953
22475.288
22149.454
21839.281
21545.408
21268.267
21008.081
20764.853
20538.366
20328.143
20133.44
19953.25
19786.309
19631.103
19485.864
19348.59
19217.096
19089.188
18963.439
18843.766
15442.713
15031.394
14868.017
14882.232
15043.378
15321.511
15693.516
16140.756
16647.888
17202.16
17792.861
18410.975
19048.833
19699.692
20357.451
21016.476
21671.359
22316.485
22946.179
23555.958
24140.21
24693.939
25212.846
25692.178
26128.073
26517.365
26857.884
27146.696
27382.354
27564.112
27692.695
27768.357
27792.709
27769.015
27699.026
27585.465
27430.481
27238.938
27014.51
26760.752
26481.34
26180.497
25861.703
25528.235
25183.373
24830.483
24472.422
24111.565
23750.905
23392.549
23038.647
22691.145
22351.868
22022.443
21704.369
21398.947
21107.206
20829.982
20567.937
20321.534
20091.034
19876.482
19677.71
19494.293
19325.547
19170.53
19028.055
18896.688
18774.74
18660.292
18551.267
18445.655
18342.446
18245.658
15188.691
14746.582
14548.431
14522.317
14634.84
14858.255
15169.808
15551.185
15987.616
16467.027
16979.51
17516.869
18072.236
18639.679
19213.899
19790.052
20363.558
20929.6
21483.502
22021.218
22537.999
23029.874
23492.885
23922.956
24316.468
24670.668
24983.061
25251.09
25473.286
25648.176
25776.367
25857.756
25893.627
25888.596
25841.689
25757.18
25635.662
25480.648
25295.385
25083.163
24846.959
24589.591
24314.611
24024.768
23723.522
23413.773
23098.255
22779.145
22459.367
22141.045
21826.175
21516.66
21214.291
20920.694
20637.375
20365.596
20106.35
19860.452
19628.569
19411.175
19208.55
19020.77
18847.705
18688.983
18543.982
18411.836
18291.449
18181.489
18080.374
17986.302
17897.338
17811.677
17728.579
17651.554
14995.792
14522.668
14289.89
14228.129
14295.675
14469.088
14725.551
15047.206
15419.733
15831.643
16273.676
16738.303
17219.31
17711.422
18210.007
18710.919
19210.296
19703.739
20187.521
20658.417
21112.247
21545.304
21954.4
22336.091
22687.526
23005.967
23288.795
23534.025
23740.134
23906.002
24030.901
24115.468
24158.68
24166.068
24136.591
24072.306
23975.997
23849.534
23695.465
23516.83
23316.833
23097.276
22861.173
22611.403
22350.006
22079.984
21803.814
21523.645
21242.147
20961.391
20683.244
20409.691
20142.274
19882.633
19632.244
19392.291
19163.703
18947.244
18743.561
18553.123
18376.21
18212.915
18063.138
17926.56
17802.63
17690.569
17589.389
17497.885
17414.612
17337.921
17266.053
17197.417
17131.455
17071.217
14845.86
14343.673
14077.111
13982.538
14008.714
14136.472
14342.899
14610.578
14925.62
15277.007
15655.993
16055.586
16470.108
16894.833
17325.692
17759.062
18191.508
18619.454
19039.829
19449.796
19845.585
20224.211
20583.07
20919.325
21230.37
21513.732
21767.037
21988.483
22176.628
22330.458
22449.326
22533.432
22581.594
22597.536
22582.717
22536.275
22460.94
22358.422
22230.853
22080.47
21910.284
21722.719
21519.887
21304.653
21079.002
20845.125
20605.287
20361.719
20116.132
19870.754
19627.201
19387.451
19153.044
18925.439
18706.041
18495.94
18295.973
18106.83
17929.119
17763.281
17609.583
17468.122
17338.826
17221.433
17115.473
17020.271
16934.961
16858.491
16789.585
16726.784
16668.533
16613.463
16561.171
16514.363
14727.56
14198.508
13899.233
13772.799
13762.569
13848.715
14010.068
14229.403
14493.161
14790.713
15113.735
15455.669
15811.281
16176.289
16547.075
16920.455
17293.448
17663.088
18026.704
18381.777
18725.358
19054.702
19367.67
19662.102
19935.577
20185.865
20410.891
20609.017
20778.963
20919.811
21030.944
21112.233
21162.899
21184.154
21179.944
21148.038
21090.387
21008.675
20904.691
20780.321
20637.615
20478.936
20306.218
20121.607
19927.813
19726.52
19519.647
19309.436
19097.343
18885.107
18674.368
18466.507
18263.093
18065.521
17875.062
17692.651
17519.052
17354.858
17200.609
17056.71
16923.404
16800.788
16688.818
16587.294
16495.844
16413.914
16340.773
16275.542
16217.148
16164.347
16115.82
16070.426
16027.911
15990.718
14631.805
14077.842
13748.261
13589.948
13549.733
13598.412
13719.616
13896.121
14114.617
14364.794
14638.668
14930.035
15234.018
15546.697
15864.819
16185.564
16506.344
16824.672
17138.24
17444.829
17742.116
18027.562
18299.567
18556.31
18795.715
19015.789
19214.72
19391.058
19543.671
19671.711
19774.566
19851.933
19903.62
19928.979
19932.549
19912.782
19870.265
19806.569
19723.268
19621.996
19504.428
19372.529
19228.084
19072.903
18908.994
18738.148
18562.063
18382.548
18201.434
18019.982
17839.706
17661.748
17487.343
17317.679
17153.892
16996.795
16847.02
16705.1
16571.488
16446.557
16330.516
16223.468
16125.394
16036.161
15955.511
15883.036
15818.146
15760.144
15708.179
15661.254
15618.302
15578.418
15541.492
15509.75
14551.317
13974.677
13618.738
13431.154
13364.714
13380.68
13466.767
13605.919
13785.069
13994.167
14225.503
14473.154
14732.527
14999.997
15272.606
15547.837
15823.433
16097.283
16367.404
16631.884
16888.785
17136.083
17372.177
17595.719
17805.068
17998.377
18174.077
18330.907
18467.87
18584.189
18679.282
18752.806
18804.741
18834.327
18844.151
18835.014
18806.088
18758.729
18694.301
18614.206
18519.844
18412.791
18294.64
18166.972
18031.376
17889.483
17742.762
17592.667
17440.71
17288.075
17136.004
16985.649
16837.933
16693.899
16554.37
16419.969
16291.135
16168.455
16052.301
15943.038
15840.862
15745.873
15658.089
15577.447
15503.801
15436.912
15376.336
15321.538
15271.904
15226.697
15185.122
15146.507
15110.876
15080.267
14481.571
13885.138
13507.522
13293.905
13203.032
13192.646
13248.52
13355.737
13501.373
13675.559
13870.794
14081.37
14302.925
14532.063
14766.068
15002.676
15239.904
15475.941
15709.089
15937.72
16160.213
16374.959
16580.404
16775.621
16959.219
17129.605
17285.425
17425.595
17549.244
17655.677
17744.367
17814.99
17867.476
17901.744
17917.773
17918.451
17902.469
17870.6
17824.01
17763.899
17691.435
17607.896
17514.627
17412.956
17304.16
17189.572
17070.455
16948.006
16823.416
16697.698
16571.806
16446.684
16323.074
16201.918
16083.892
15969.302
15858.453
15751.842
15649.843
15552.729
15460.805
15374.212
15293.019
15217.238
15146.827
15081.738
15021.689
14966.259
14915.072
14867.64
14823.441
14782.037
14743.555
14709.862
14419.479
13806.773
13411.457
13175.932
13062.651
13032.244
13062.825
13143.512
13261.392
13406.714
13572.126
13752.086
13942.404
14139.868
14341.956
14546.612
14752.081
14956.796
15159.307
15358.234
15552.227
15739.993
15920.213
16092.055
16254.44
16406.044
16545.696
16672.48
16785.65
16884.604
16968.876
17038.167
17092.365
17131.54
17155.745
17165.714
17162.556
17145.936
17116.682
17075.859
17024.414
16963.37
16893.819
16816.795
16733.294
16644.35
16550.98
16454.139
16354.729
16253.528
16151.248
16048.624
15946.236
15844.832
15745.028
15646.919
15550.732
15456.833
15365.602
15277.274
15192.137
15110.439
15032.334
14957.92
14887.259
14820.406
14757.411
14697.852
14641.598
14588.386
14537.938
14490.086
14444.988
14404.357
14362.676
13737.392
13328.024
13075.445
12943.72
12897.505
12908.081
12967.66
13063.461
13185.836
13327.541
13483.155
13648.616
13820.852
13997.495
14176.659
14356.776
14536.48
14714.536
14889.783
15061.096
15227.432
15387.755
15541.276
15687.157
15824.288
15951.718
16068.686
16174.565
16268.839
16351.11
16421.107
16478.709
16523.929
16556.961
16578.17
16587.329
16586.167
16574.012
16552.014
16520.859
16481.336
16434.324
16380.537
16320.664
16255.444
16185.648
16112.006
16035.18
15955.702
15873.996
15790.729
15706.384
15621.522
15536.622
15451.632
15366.683
15282.136
15198.307
15115.473
15033.861
14953.766
14875.432
14799.056
14724.805
14652.816
14583.462
14516.757
14452.497
14390.537
14330.779
14273.339
14218.39
14167.49
14309.845
13675.744
13256.006
12991.55
12845.616
12786.746
12783.098
12826.803
12906.037
13011.207
13135.131
13272.463
13419.23
13572.461
13729.908
13889.817
14050.772
14211.578
14371.177
14528.601
14682.938
14833.33
14978.98
15119.216
15253.32
15380.378
15499.653
15610.532
15712.494
15805.108
15888.029
15961.016
16023.938
16076.77
16119.587
16152.551
16175.954
16189.864
16194.546
16190.933
16179.231
16160.049
16134.202
16102.004
16063.8
16020.012
15971.2
15917.906
15860.64
15799.745
15735.681
15668.649
15598.847
15526.806
15452.905
15377.058
15299.443
15220.468
15140.456
15059.739
14978.618
14897.419
14816.461
14736.028
14656.361
14577.607
14499.669
14423.068
14347.921
14274.279
14202.206
14132.05
14064.543
14000.737
14260.394
13621.261
13194.964
12922.919
12767.394
12698.904
12686.616
12719.448
12787.416
12880.902
12992.738
13117.611
13251.599
13391.799
13536.047
13682.692
13830.44
13978.231
14125.159
14270.42
14413.286
14553.064
14689.146
14820.997
14947.971
15069.331
15184.512
15293.041
15394.492
15488.503
15574.776
15653.084
15723.279
15785.292
15839.121
15884.796
15922.404
15952.073
15973.997
15987.727
15994.344
15993.84
15987.435
15974.888
15956.19
15931.136
15900.293
15864.173
15823.071
15777.071
15726.346
15671.095
15611.627
15548.359
15481.491
15410.917
15336.955
15260.021
15180.462
15098.65
15014.953
14929.743
14843.4
14756.282
14668.719
14581.003
14493.513
14406.515
14320.153
14234.568
14149.881
14066.129
13983.753
13904.44
14214.142
13573.586
13144.29
12868.373
12707.779
12634.142
12617.105
12643.967
12705.74
12792.789
12897.937
13015.875
13142.698
13275.54
13412.287
13551.365
13691.569
13831.952
13971.73
14110.237
14246.889
14381.147
14512.551
14640.679
14764.955
14884.902
14999.924
15109.731
15213.977
15312.356
15404.596
15490.467
15569.787
15642.422
15708.335
15767.404
15819.542
15864.691
15902.771
15933.732
15957.925
15974.409
15985.507
15990.387
15988.134
15978.549
15962.482
15940.231
15911.628
15876.698
15835.548
15788.326
15735.376
15677.125
15613.527
15544.61
15470.866
15392.709
15310.541
15224.795
15135.906
15044.307
14950.442
14854.736
14757.592
14659.39
14560.52
14461.294
14361.966
14262.761
14163.896
14065.657
13968.763
13874.279
14172.162
13533.109
13103.915
12827.305
12665.612
12591.962
12573.134
12598.549
12658.858
12744.366
12847.876
12964.051
13088.973
13219.779
13354.386
13491.251
13629.242
13767.491
13905.318
14042.164
14177.563
14311.101
14442.456
14571.336
14697.199
14819.559
14938.114
15052.604
15162.746
15268.264
15368.898
15464.4
15554.527
15639.004
15717.431
15789.835
15856.088
15916.031
15969.409
16016.117
16056.117
16089.047
16115.425
16134.755
16146.265
16149.918
16145.849
16133.946
16114.174
16086.571
16051.216
16008.237
15958.163
15901.221
15837.25
15766.593
15689.817
15607.387
15519.783
15427.511
15331.08
15230.995
15127.76
15021.864
14913.766
14803.896
14692.662
14580.42
14467.482
14354.126
14240.616
14127.274
14014.653
13903.798
14136.503
13501.129
13074.579
12800.074
12640.577
12570.516
12553.281
12581.241
12644.439
12732.884
12839.384
12958.556
13086.426
13220.095
13357.454
13496.981
13637.598
13778.503
13919.079
14058.852
14197.439
14334.523
14469.888
14603.323
14734.343
14862.532
14987.692
15109.615
15228.066
15342.798
15453.559
15560.097
15662.163
15759.548
15852.102
15939.282
16020.696
16095.974
16164.761
16226.669
16281.37
16328.445
16367.683
16398.688
16420.983
16433.928
16437.857
16432.79
16418.246
16394.31
16361.039
16318.763
16268.08
16208.767
16141.011
16065.4
15982.542
15892.997
15797.342
15696.169
15590.072
15479.629
15365.407
15247.953
15127.771
15005.323
14881.035
14755.288
14628.421
14500.73
14372.49
14243.994
14115.664
13988.325
142844.76
95331.666
66052.951
48709.972
38359.163
32678.613
30365.972
30520.128
32133.482
136876.69
92410.119
64711.955
48089.242
38088.003
32587.53
30382.542
30552.752
32270.297
130705.11
89413.039
63220.308
47352.222
37743.368
32465.782
30394.576
30594.301
32395.127
124835.06
86581.515
61782.359
46629.945
37400.744
32342.191
30397.029
30636.628
32506.797
119323.09
83908.114
60403.672
45923.423
37060.899
32216.737
30391.51
30677.618
32607.282
114143.04
81371.785
59077.787
45232.97
36724.69
32089.678
30378.857
30715.214
32697.988
109246.7
78960.041
57802.898
44559.358
36393.021
31961.476
30360.51
30750.781
32780.209
104648.81
76659.639
56575.764
43903.27
36066.697
31832.642
30337.649
30784.313
32854.893
100345.25
74460.153
55394.517
43265.233
35746.343
31703.542
30311.226
30815.855
32922.765
96314.906
72351.885
54256.617
42645.45
35432.142
31573.54
30282.092
30846.263
32984.428
92532.408
70331.415
53160.021
42043.768
35122.971
31444.72
30251.231
30873.708
33039.997
88973.176
68392.919
52102.556
41459.804
34819.387
31318.882
30220.569
30898.012
33089.504
85621.19
66531.638
51081.917
40893.009
34521.905
31197.341
30193.481
30918.163
33132.826
82462.42
64742.64
50095.822
40342.757
34231.306
31077.185
30151.426
30934.275
33169.849
79476.684
63021.517
49142.034
39808.283
33947.157
30958.241
30110.623
30948.193
33200.684
76659.761
61364.641
48218.49
39288.773
33669.226
30839.814
30067.926
30957.74
33225.026
73999.067
59768.54
47323.225
38782.911
33397.159
30720.859
30015.232
30961.343
33242.427
71482.526
58230.247
46454.376
38289.355
33130.435
30603.561
29974.858
30959.86
33252.329
69099.113
56746.94
45610.287
37807.627
32870.331
30482.54
29930.277
30954.431
33253.462
66838.09
55316.253
44789.559
37337.261
32615.589
30354.377
29881.23
30942.994
33249.455
64693.485
53936.029
43990.985
36877.596
32365.073
30223.644
29827.691
30924.939
33238.39
62647.36
52603.4
43213.454
36427.941
32118.166
30092.97
29769.77
30900.478
33217.226
60699.814
51317.41
42456.533
35987.672
31874.636
29965.235
29707.693
30869.374
33187.722
58859.278
50080.345
41720.157
35556.196
31635.218
29845.363
29641.721
30831.517
33149.735
57102.282
48887.127
41003.039
35133.135
31399.249
29723.117
29571.447
30786.769
33103.165
55424.742
47737.379
40304.686
34718.203
31166.328
29599.094
29496.485
30734.988
33047.936
53826.382
46630.765
39625.021
34311.293
30936.14
29471.905
29416.411
30676.028
32983.996
52304.331
45565.412
38964.127
33912.371
30708.08
29340.437
29331.005
30609.777
32911.315
50854.468
44542.046
38322.068
33521.383
30481.639
29204.913
29240.365
30536.182
32829.899
49473.949
43559.374
37698.731
33138.145
30256.438
29067.467
29144.586
30455.242
32739.791
48161.351
42616.965
37094.19
32762.582
30033.747
28935.03
29043.384
30366.986
32641.079
46913.9
41714.318
36508.57
32394.688
29812.498
28799.936
28937.379
30271.361
32533.869
45729.729
40850.948
35941.964
32034.79
29597.426
28677.437
28825.817
30168.581
32418.337
44606.86
40026.326
35394.758
31684.499
29381.398
28512.302
28707.576
30058.263
32294.584
43543.635
39240.089
34867.323
31343.256
29163.707
28346.033
28593.368
29941.903
32163.032
42538.85
38491.916
34359.925
31010.77
28945.573
28179.945
28475.223
29819.563
32024.035
41591.147
37781.377
33872.85
30687.086
28728.022
28013.597
28349.174
29690.931
31877.848
40698.977
37108.22
33406.398
30372.497
28511.874
27846.236
28210.997
29555.402
31724.612
39861.042
36472.245
32960.752
30067.464
28297.678
27676.93
28061.96
29412.622
31564.36
39075.656
35872.909
32536.417
29772.548
28085.77
27505.959
27909.788
29263.477
31397.307
38341.373
35309.701
32133.569
29487.816
27876.925
27333.896
27754.605
29108.465
31223.654
37656.132
34782.003
31752.39
29213.588
27672.087
27161.317
27596.584
28947.972
31043.56
37017.629
34289.113
31392.971
28950.759
27471.595
26988.657
27435.877
28782.269
30857.119
36423.36
33829.869
31055.304
28700.004
27275.624
26816.247
27272.592
28611.521
30664.347
35870.366
33402.765
30739.223
28461.78
27084.367
26644.33
27106.782
28435.799
30465.198
35355.267
33005.967
30444.293
28236.327
26897.992
26473.066
26938.459
28255.112
30259.589
34874.321
32637.282
30169.775
28023.667
26716.609
26302.554
26767.631
28069.439
30047.43
34423.462
32294.123
29914.586
27823.587
26540.258
26132.833
26594.242
27878.765
29828.668
33998.33
31973.498
29677.282
27635.619
26368.896
25963.913
26418.258
27683.097
29603.32
33594.449
31672.087
29456.009
27459
26202.379
25795.771
26239.77
27482.524
29371.517
33207.365
31386.31
29248.551
27292.642
26040.432
25628.372
26058.852
27277.234
29133.535
32832.716
31112.388
29052.346
27135.068
25882.661
25461.743
25875.626
27067.525
28889.81
32466.401
30846.523
28864.574
26984.338
25729.37
25295.994
25690.327
26853.826
28640.97
32104.863
30585.12
28682.422
26839.107
25580.406
25131.111
25503.225
26636.729
28387.838
31745.082
30324.878
28503.096
26697.951
25435.003
24967.14
25314.862
26417.059
28131.402
31384.699
30062.933
28323.869
26559.12
25292.292
24804.215
25126.381
26195.322
27872.439
31021.995
29796.896
28142.148
26420.665
25150.921
24640.665
24935.088
25970.097
27611.233
30655.811
29524.871
27955.64
26280.612
25009.342
24472.841
24724.54
25739.977
27348.798
30285.549
29245.575
27762.446
26137.226
24867.224
24303.58
24508.002
25510.399
27087.913
29911.166
28958.247
27561.089
25989.152
24725.005
24138.75
24315.272
25287.529
26831.449
29533.083
28662.676
27350.577
25835.317
24582.753
23980.257
24142.143
25072.844
26580.841
29151.917
28359.028
27130.31
25674.758
24439.886
23827.213
23978.663
24865.535
26337.018
28768.459
28047.73
26899.969
25506.485
24295.283
23677.354
23819.599
24663.861
26100.14
28383.589
27729.494
26659.539
25329.798
24147.398
23527.071
23652.95
24465.893
25870.039
27998.385
27404.932
26409.107
25144.074
23995.183
23377.187
23485.449
24273.196
25646.807
27612.601
27074.364
26148.741
24948.669
23837.255
23226.719
23332.666
24084.364
25429.852
27226.732
26738.806
25878.917
24743.318
23672.463
23071.205
23157.795
23897.071
25219.518
26842.074
26398.705
25600.136
24527.863
23500.322
22912.791
22985.814
23714.3
25015.44
26458.384
26053.896
25312.422
24302.05
23320.192
22751.21
22818.693
23535.748
24818.154
26075.086
25705.242
25016.213
24065.847
23131.578
22585.595
22652.767
23360.389
24626.201
25692.472
25352.511
24711.424
23819.178
22934.079
22415.386
22487.236
23188.406
24440.878
25309.993
24995.799
24398.635
23562.322
22727.546
22239.981
22320.937
23018.196
24258.69
24927.274
24635.302
24078.327
23295.924
22512.66
22060.283
22154.456
22852.921
24085.282
24543.905
24271.036
23751.006
23020.454
22289.723
21876.862
21989.415
22687.512
23911.217
24159.574
23903.352
23417.477
22736.749
22058.319
21685.185
21817.948
22525.336
23749.255
23773.254
23531.448
23077.113
22444.672
21819.052
21487.188
21634.873
22356.946
23576.958
23386.923
23158.85
22735.603
22150.699
21578.724
22996.875
35791.189
42792.714
52740.904