/*--------------------------------*- C++ -*----------------------------------*\
| =========                 |                                                 |
| \\      /  F ield         | OpenFOAM: The Open Source CFD Toolbox           |
|  \\    /   O peration     | Version:  2406                                  |
|   \\  /    A nd           | Website:  www.openfoam.com                      |
|    \\/     M anipulation  |                                                 |
\*---------------------------------------------------------------------------*/
FoamFile
{
    version     2.0;
    format      ascii;
    arch        "LSB;label=32;scalar=64";
    class       volScalarField;
    location    "0.008";
    object      k;
}
// * * * * * * * * * * * * * * * * * * * * * * * * * * * * * * * * * * * * * //

dimensions      [0 2 -2 0 0 0 0];

internalField   nonuniform List<scalar> 
86779
(
692.14684
678.80292
663.3297
646.21592
627.74994
608.16059
587.67408
566.5141
544.89132
522.99741
501.00145
479.04837
457.25994
435.73523
414.54658
393.74988
373.38812
353.49468
334.1
315.22984
296.90648
279.14743
261.96398
245.36311
229.34815
213.9191
199.06871
184.79855
171.10448
157.98035
145.41917
133.41342
121.95534
111.03707
100.65086
90.789182
81.444846
72.611632
64.283293
56.452057
49.117721
42.281566
35.94266
30.102827
24.770464
19.96001
15.696934
12.020246
8.9790492
6.6238844
4.9596632
3.88464
3.2193686
2.7949262
2.4964215
2.2659528
2.075387
1.9118166
1.7688047
1.6422514
1.5299893
1.4300789
1.3406354
1.2607228
1.1891922
1.1248379
1.0671324
1.015001
0.96758054
0.92452267
0.88486829
0.8482062
0.81448828
0.78346618
0.75496666
0.72879568
0.70498349
0.68341098
0.66365471
0.64540118
0.62883479
0.61365625
0.59936664
0.58604221
0.57368003
0.56200605
0.55101671
0.5408772
0.53150493
0.52273249
0.51466867
0.50730639
0.50041315
0.49398198
0.48800927
0.48239874
0.47712647
0.47220516
0.46757085
0.4632069
0.45910949
0.45526176
0.45166041
0.4482938
0.44514672
0.44220301
0.43944586
0.4368598
0.43443541
0.43216559
0.43004506
0.42806828
0.42622562
0.42451134
0.42291987
0.42144824
0.42009566
0.41885868
0.41773576
0.41672557
0.41582951
0.41504321
0.41438144
0.41382604
0.41344179
0.41310227
0.41306968
683.75613
669.0875
652.60006
634.79539
615.9062
596.10989
575.59103
554.54069
533.13938
511.55211
489.92533
468.38533
447.03807
425.96934
405.24318
384.9087
365.00242
345.55214
326.5834
308.11907
290.17973
272.78413
255.94517
239.6709
223.96545
208.82951
194.25933
180.254
166.81139
153.92619
141.59222
129.80279
118.55087
107.82937
97.631244
87.949709
78.778299
70.11147
61.944518
54.268337
47.083102
40.393851
34.199666
28.503063
23.314599
18.651658
14.544221
11.037248
8.1869864
6.0387756
4.5690512
3.643935
3.0732347
2.6992113
2.4277125
2.2121283
2.0307459
1.8736444
1.7357306
1.6133293
1.5046032
1.4077899
1.320933
1.2432558
1.1737414
1.1110821
1.0548674
1.0041408
0.95790728
0.91591152
0.87727156
0.84147602
0.80849641
0.77812167
0.7501772
0.72445254
0.70102108
0.67984386
0.66044448
0.64249508
0.62619767
0.61127152
0.597205
0.58406738
0.57188401
0.56039147
0.5495554
0.53953784
0.53029359
0.52164119
0.51366749
0.50639331
0.49958651
0.49322738
0.48732073
0.48177372
0.4765557
0.47168467
0.46709694
0.46277399
0.45871465
0.45490102
0.4513304
0.44799133
0.44486924
0.44194863
0.43921282
0.43664656
0.43424011
0.43198662
0.42988068
0.42791674
0.42608534
0.42438072
0.42279733
0.4213327
0.41998645
0.41875536
0.41763791
0.41663265
0.41574086
0.4149583
0.41429931
0.41374656
0.4133637
0.4130257
0.41299327
673.08067
657.54757
640.43762
622.21761
603.10178
583.25274
562.83127
541.99848
520.90702
499.69737
478.49539
457.41068
436.53574
415.9454
395.69683
375.83353
356.38803
337.38573
318.84952
300.80036
283.25762
266.23902
249.75785
233.82294
218.43934
203.60887
189.32796
175.59728
162.41548
149.77805
137.67968
126.11448
115.07628
104.55878
94.555719
85.061104
76.069272
67.57541
59.575991
52.061549
45.033537
38.499493
32.45829
26.914943
21.882439
17.381958
13.448713
10.133239
7.4932684
5.5589985
4.2722466
3.4721516
2.971731
2.6333133
2.3799609
2.1745904
1.9997997
1.8475039
1.7134335
1.5941631
1.4880734
1.3935246
1.3085298
1.2324445
1.164337
1.1028386
1.0476229
0.99781953
0.95234604
0.91100554
0.87299292
0.83772402
0.80518443
0.77519693
0.74759121
0.72214698
0.69892482
0.67793012
0.65870792
0.64088346
0.62470341
0.60992174
0.59598759
0.58294706
0.57086606
0.55949119
0.5487399
0.53877413
0.52960097
0.52101636
0.51307724
0.50584591
0.49908994
0.49276811
0.48689678
0.48138768
0.47619938
0.47135633
0.46679625
0.46249652
0.45845901
0.45466449
0.45111073
0.44778656
0.4446781
0.4417705
0.43904709
0.4364926
0.4340968
0.43185301
0.42975562
0.42779907
0.42597402
0.4242746
0.42269528
0.42123404
0.41989088
0.41866285
0.4175484
0.41654592
0.41565655
0.41487614
0.41421862
0.4136674
0.41328536
0.41294784
0.41291547
660.03579
643.90613
626.4838
608.13057
589.02584
569.3176
549.14918
528.65987
507.9807
487.23241
466.52379
445.95035
425.59332
405.51899
385.77906
366.41311
347.45128
328.91765
310.83357
293.21868
276.09128
259.46801
243.36211
227.78303
212.73684
198.22668
184.24748
170.80393
157.89462
145.5159
133.66336
122.33206
111.5167
101.21185
91.41215
82.112428
73.307881
64.994497
57.169732
49.824689
42.962526
36.592126
30.712692
25.33247
20.467083
16.141903
12.397188
9.287289
6.8658263
5.1405628
4.0189717
3.3240134
2.880524
2.5709866
2.3328207
2.1364181
1.967669
1.8199095
1.6895523
1.5733471
1.4698648
1.3775846
1.2944672
1.2200084
1.1533622
1.0930784
1.0389242
0.99012399
0.94548485
0.9048759
0.86758203
0.8329222
0.8008948
0.77136234
0.74415834
0.719049
0.69608263
0.67533411
0.65635066
0.63871568
0.62270446
0.60810405
0.59434117
0.58143599
0.5694846
0.55825453
0.54762114
0.53773481
0.52865504
0.52016479
0.51228463
0.5051138
0.49842577
0.49215773
0.48633483
0.48087611
0.47572962
0.4709245
0.46640177
0.4621341
0.45812666
0.45435891
0.4508291
0.4475263
0.44443724
0.44154784
0.43884148
0.43630295
0.43392162
0.43169103
0.42960543
0.42765921
0.42584318
0.42415142
0.42257843
0.42112263
0.41978442
0.41856109
0.41745109
0.41645267
0.41556685
0.41478957
0.41413437
0.41358539
0.41320461
0.41286814
0.41283596
644.97494
628.50141
610.99301
592.71698
573.81226
554.40576
534.62303
514.58538
494.40665
474.1918
454.03588
434.02283
414.22465
394.7009
375.49898
356.65589
338.20048
320.15615
302.54339
285.381
268.68637
252.47532
236.76096
221.55319
206.85907
192.6812
179.01766
165.87377
153.24838
141.13904
129.54238
118.45444
107.8709
97.787263
88.199087
79.102124
70.49245
62.366948
54.723858
47.555666
40.867501
34.668762
28.959481
23.751484
19.063314
14.924789
11.380843
8.4876378
6.2895451
4.7666427
3.7951608
3.1912766
2.7961547
2.5113881
2.2866866
2.0985966
1.935664
1.7923759
1.6657385
1.5526295
1.451781
1.3617936
1.2805752
1.2077653
1.1425973
1.0835399
1.0304547
0.98266076
0.93885552
0.89897
0.86239088
0.82833435
0.79680927
0.76772297
0.74091698
0.71614564
0.69342637
0.6729068
0.65414972
0.63669171
0.62083572
0.6064057
0.5928091
0.58003459
0.56820455
0.55711319
0.54659354
0.53677888
0.52778437
0.51938382
0.51155612
0.50443871
0.49781411
0.49159546
0.48581613
0.48040423
0.4752963
0.47052528
0.46603724
0.46179896
0.45781906
0.45407573
0.45056757
0.44728402
0.44421233
0.44133931
0.43864836
0.43612428
0.43375597
0.43153726
0.42946223
0.42752523
0.42571719
0.42403216
0.42246467
0.42101354
0.41967962
0.41846038
0.4173543
0.41635948
0.41547681
0.4147023
0.41404915
0.41350219
0.41312254
0.4127869
0.4127549
628.15479
611.58382
594.18314
576.15162
557.59512
538.61888
519.33045
499.83481
480.23116
460.61151
441.05961
421.65
402.44726
383.50559
364.86913
346.57315
328.64583
311.1104
293.98709
277.29419
261.04856
245.26543
229.95776
215.13578
200.80709
186.97456
173.63988
160.80727
148.47687
136.64736
125.31645
114.48124
104.1384
94.284455
84.915934
76.02956
67.622347
59.692196
52.23771
45.253788
38.747762
32.728546
27.197785
22.171076
17.67027
13.729875
10.399023
7.7331877
5.7618178
4.4330981
3.5970716
3.0717768
2.717683
2.4541775
2.2414443
2.061065
1.9037101
1.764786
1.6418232
1.531794
1.4335562
1.3458438
1.2665154
1.1953484
1.1316531
1.0738204
1.0218025
0.97501267
0.93204411
0.89288245
0.85702368
0.8235787
0.792561
0.76392524
0.73752502
0.71310463
0.69063672
0.67034974
0.65182798
0.63455854
0.61886397
0.60460698
0.59118552
0.57855149
0.5668456
0.55589683
0.54550026
0.535763
0.52685592
0.51855168
0.51078219
0.50372044
0.49716277
0.49099729
0.4852637
0.47990136
0.47483507
0.47009977
0.46564887
0.46144211
0.45749172
0.45377467
0.45028982
0.44702706
0.44397406
0.44111863
0.43844417
0.43593551
0.43358112
0.43137509
0.42931138
0.42738429
0.4255849
0.42390718
0.42234575
0.42089983
0.41957064
0.41835592
0.41725415
0.41626328
0.41538406
0.41461261
0.41396176
0.41341701
0.41303864
0.41270396
0.4126722
609.81411
593.36726
576.24286
558.59387
540.50339
522.05851
503.35028
484.46903
465.50117
446.52766
427.62283
408.85347
390.27815
371.94679
353.90099
336.17481
318.79613
301.78832
285.17165
268.96434
253.18295
237.84243
222.95565
208.53317
194.58316
181.10923
168.11486
155.60479
143.58015
132.04073
120.98533
110.41212
100.31885
90.703078
81.56237
72.894469
64.69741
56.970314
49.711366
42.919385
36.603957
30.772162
25.428683
20.5929
16.290427
12.560651
9.4560493
7.0278038
5.2838471
4.1381296
3.422111
2.9636957
2.6441773
2.3989584
2.1969507
2.0237867
1.8718188
1.7371725
1.6178492
1.5108967
1.4152524
1.3298052
1.2523732
1.1828521
1.1206302
1.0640317
1.0130852
0.96729781
0.92517424
0.88673931
0.85160288
0.81877793
0.78827265
0.76008942
0.73410027
0.71004296
0.68782908
0.66777214
0.64948852
0.63241292
0.61688018
0.60279383
0.58955161
0.57706383
0.56548127
0.55467423
0.54440543
0.53474764
0.52592565
0.5177194
0.51000993
0.50300249
0.4965116
0.49039983
0.48471128
0.47939852
0.47437445
0.46967412
0.4652606
0.46108553
0.45716465
0.45347394
0.45001229
0.44677028
0.44373581
0.4408978
0.43823971
0.43574631
0.43340565
0.43121213
0.42915958
0.42724226
0.42545139
0.42378088
0.42222543
0.42078466
0.41946016
0.4182499
0.41715241
0.41616544
0.41528967
0.41452126
0.41387272
0.41333019
0.41295312
0.41261939
0.41258789
590.20425
574.0587
557.34913
540.19481
522.66357
504.8284
486.76649
468.55546
450.27063
431.98346
413.76029
395.6614
377.74034
360.04358
342.61062
325.47463
308.66337
292.20045
276.10642
260.39962
245.09662
230.21229
215.75958
201.74938
188.19046
175.08728
162.44452
150.26786
138.55943
127.32008
116.54975
106.2477
96.412794
87.043661
78.13894
69.697446
61.718332
54.20222
47.146152
40.554045
34.43792
28.801724
23.655037
19.020786
14.928871
11.423555
8.5590054
6.3769349
4.8568783
3.8795241
3.2675639
2.8652839
2.5747914
2.3453848
2.1530832
1.9867241
1.8399888
1.709544
1.5938196
1.4899407
1.3968631
1.3136634
1.2381366
1.170258
1.1095028
1.0541483
1.0042728
0.95947834
0.91820884
0.88050279
0.84608515
0.81388946
0.78390303
0.75617325
0.73059893
0.70691605
0.68496047
0.66513216
0.64709133
0.63021801
0.61484954
0.60093223
0.58787452
0.57554059
0.56408194
0.55341613
0.54328151
0.53370797
0.52496989
0.51686456
0.50921932
0.50226633
0.49584308
0.4897869
0.48414389
0.47888172
0.47390165
0.46923646
0.46486149
0.46071923
0.4568287
0.45316517
0.44972736
0.44650676
0.44349131
0.4406712
0.43802988
0.43555208
0.43322546
0.43104472
0.42900357
0.42709626
0.42531416
0.42365106
0.42210185
0.42066644
0.41934682
0.41814121
0.41704817
0.41606527
0.41519309
0.41442784
0.41378175
0.41324156
0.41286588
0.41253314
0.41250195
569.54955
553.85089
537.66704
521.09589
504.19597
487.02989
469.66366
452.1643
434.5977
417.02715
399.51213
382.10734
364.86207
347.81985
331.01843
314.49018
298.26279
282.36013
266.80311
251.61037
236.79862
222.38287
208.37627
194.79012
181.63381
168.9126
156.63221
144.79934
133.41712
122.48752
112.01157
101.98968
92.421816
83.307739
74.647192
66.440089
58.686799
51.389472
44.544834
38.161087
32.252328
26.820831
21.881469
17.46058
13.592936
10.327224
7.7163711
5.7857518
4.4808035
3.6542188
3.1306015
2.7749149
2.5087853
2.2931669
2.1097434
1.9498497
1.8082259
1.681917
1.5697452
1.4689395
1.3783962
1.2974227
1.2238189
1.1575773
1.0982786
1.0441842
0.99537807
0.95156297
0.91116156
0.87418798
0.84048129
0.8089266
0.77946809
0.75219239
0.72703577
0.70373829
0.68204726
0.66244578
0.64465164
0.6279895
0.61278746
0.59903666
0.58616776
0.57399496
0.56266094
0.55213442
0.54213946
0.53265543
0.52399924
0.51599638
0.50841957
0.50152066
0.49516492
0.48916576
0.48356829
0.47835711
0.47342245
0.46879212
0.46445639
0.46034777
0.45648803
0.45285219
0.44943846
0.44623963
0.44324342
0.44044137
0.43781696
0.43535488
0.43304237
0.43087446
0.42884475
0.42694752
0.42517426
0.42351865
0.42197577
0.42054583
0.41923117
0.41803031
0.41694179
0.41596303
0.41509451
0.41433251
0.41368895
0.41315117
0.41277694
0.41244521
0.41241436
548.05206
532.92815
517.34968
501.42745
485.21234
468.75866
452.1235
435.36516
418.54162
401.70919
384.92139
368.22813
351.67498
335.30286
319.14795
303.24185
287.61214
272.28291
257.27543
242.60866
228.29962
214.36355
200.81394
187.66253
174.91938
162.59048
150.68253
139.20324
128.15679
117.54621
107.37368
97.64072
88.348458
79.497801
71.089636
63.125018
55.605631
48.534998
41.910618
35.744424
30.051589
24.834828
20.114388
15.920113
12.292034
9.2820053
6.937001
5.2580021
4.1537879
3.4584997
3.0084574
2.6911435
2.4455366
2.2420716
2.0668578
1.9131454
1.7765399
1.6543103
1.5456361
1.4479048
1.3598575
1.2810841
1.2094292
1.1448146
1.0869562
1.0341433
0.98640152
0.94354665
0.9040312
0.86779326
0.83478418
0.80388378
0.77496397
0.74814199
0.72340426
0.70050158
0.67908352
0.65970716
0.6421631
0.62572239
0.61068927
0.59710213
0.58442576
0.57242151
0.56121369
0.55082386
0.54097365
0.53158566
0.52300954
0.51511021
0.50760698
0.50076209
0.49447357
0.48853316
0.48298142
0.47782169
0.47293412
0.46833858
0.46404289
0.459969
0.45614062
0.45253315
0.44914386
0.44596732
0.44299069
0.44020699
0.43759976
0.43515359
0.43285539
0.43070046
0.42868233
0.42679531
0.42503104
0.42338306
0.42184671
0.4204224
0.41911284
0.41791688
0.41683302
0.41585853
0.4149938
0.41423515
0.41359425
0.41305896
0.41268627
0.41235561
0.41232514
525.91292
511.44438
496.53135
481.3063
465.81433
450.1033
434.22321
418.22533
402.16103
386.08067
370.03266
354.06267
338.21302
322.52227
307.02508
291.75233
276.73134
261.98632
247.53886
233.40823
219.61181
206.16517
193.08219
180.37511
168.05463
156.1275
144.60129
133.48475
122.78308
112.50039
102.63996
93.204485
84.196235
75.617299
67.469756
59.755863
52.478758
45.642795
39.247667
33.308987
27.841651
22.850735
18.362017
14.409245
11.037555
8.2994211
6.2290631
4.7951935
3.8723298
3.2883025
2.8985521
2.6127221
2.3845323
2.1919161
2.0243742
1.8766017
1.7449432
1.6267436
1.521503
1.4268479
1.3412551
1.2646514
1.1949791
1.1319777
1.0755374
1.0240329
0.97734775
0.93542999
0.89682247
0.86132288
0.828994
0.79876263
0.77039405
0.74402526
0.71970642
0.69720634
0.67607249
0.65692005
0.63962822
0.62342038
0.60855898
0.59513222
0.58265112
0.57082258
0.55974357
0.54948715
0.5397857
0.53050118
0.52200342
0.51420767
0.5067837
0.49999274
0.49377057
0.48789072
0.48238481
0.47727665
0.47243784
0.46787703
0.46362195
0.45958393
0.45578738
0.45220889
0.44884425
0.44569049
0.44273374
0.4399686
0.43737874
0.43494862
0.43266488
0.430523
0.42851653
0.42663983
0.42488468
0.42324444
0.42171478
0.42029625
0.41899193
0.417801
0.41672191
0.41575181
0.41489096
0.41413577
0.41349765
0.41296496
0.41259388
0.41226432
0.41223426
503.30001
489.53585
475.33082
460.83668
446.09392
431.14526
416.03513
400.8091
385.51306
370.19235
354.891
339.65097
324.51165
309.50945
294.67761
280.04615
265.64208
251.48962
237.61051
224.02437
210.74887
197.79996
185.19196
172.93761
161.0483
149.53144
138.39548
127.65019
117.30175
107.35535
97.815384
88.685672
79.969679
71.670696
63.792037
56.337266
49.31121
42.717888
36.561487
30.861349
25.629927
20.877244
16.634571
12.939981
9.8426944
7.3913981
5.5988642
4.3961287
3.6316048
3.1395171
2.7985774
2.5386011
2.3253591
2.1425613
1.9822594
1.8402187
1.7134489
1.5992347
1.4973577
1.4057773
1.3225985
1.2481322
1.18048
1.1190743
1.0640243
1.0138583
0.9682201
0.92721412
0.88953838
0.85477882
0.82311038
0.79356246
0.76575846
0.73984273
0.71594146
0.69384969
0.67301427
0.65408532
0.63704598
0.62108359
0.60639718
0.59312722
0.58084296
0.56919693
0.55825065
0.54812403
0.53857397
0.52940126
0.52098075
0.51328757
0.50594913
0.49921221
0.49305508
0.48723782
0.48177789
0.47672123
0.47193292
0.46740695
0.46319294
0.45919206
0.4554278
0.45187894
0.44853917
0.44540869
0.44247217
0.43972582
0.43715352
0.43473962
0.43247051
0.4303418
0.42834709
0.42648082
0.42473492
0.42310257
0.42157979
0.42016721
0.41886827
0.41768253
0.41660835
0.41564277
0.41478594
0.41403433
0.41339913
0.41286913
0.41249976
0.41217134
0.41214173
480.3534
467.32406
453.85491
440.11315
426.13539
411.96013
397.62728
383.1778
368.65305
354.09416
339.54139
325.03348
310.60722
296.29701
282.13468
268.14938
254.36765
240.81359
227.50904
214.47379
201.72584
189.28149
177.15548
165.3611
153.91035
142.81134
132.07332
121.70705
111.71971
102.11752
92.905984
84.09006
75.6744
67.663529
60.062036
52.87492
46.10905
39.76681
33.859444
28.409582
23.425364
18.924959
14.944514
11.526565
8.7220695
6.5691196
5.0496971
4.0568943
3.4259825
3.0082496
2.7065419
2.4679194
2.2676919
2.0939063
1.940497
1.8040075
1.6820687
1.5717972
1.473215
1.3846985
1.3038987
1.2315404
1.1659418
1.1061125
1.0524225
1.0036232
0.95902202
0.91890367
0.88218168
0.84816312
0.81713634
0.78828347
0.76105752
0.73559661
0.71211043
0.6904304
0.66991076
0.6512062
0.63441702
0.61871354
0.60420618
0.59108925
0.57900201
0.56754479
0.55673656
0.54673625
0.53733842
0.52828642
0.519943
0.51235013
0.50510381
0.49842127
0.49232736
0.48657496
0.4811612
0.47615555
0.4714195
0.46692872
0.46275598
0.45879361
0.45506207
0.45154347
0.44822871
0.44512202
0.44220608
0.4394787
0.43692415
0.43452659
0.4322723
0.43015684
0.42817398
0.42631824
0.42458173
0.42295741
0.4214417
0.42003525
0.41874184
0.41756146
0.41649233
0.41553141
0.41467872
0.41393081
0.41329866
0.41277149
0.4124039
0.41207667
0.41204756
457.19886
444.92015
432.20213
419.22351
406.01752
392.61903
379.06421
365.39017
351.63454
337.83492
324.02834
310.25073
296.53654
282.91829
269.42645
256.08922
242.9326
229.98039
217.25442
204.77459
192.55912
180.62464
168.98629
157.65787
146.652
135.97743
125.64419
115.66401
106.04502
96.794481
87.918965
79.42458
71.317171
63.602525
56.286545
49.375765
42.878967
36.798341
31.151497
25.962699
21.238893
17.006852
13.306859
10.185441
7.6908941
5.8414872
4.5809967
3.7713162
3.2495922
2.8910093
2.6207813
2.3999873
2.2112824
2.045882
1.8990854
1.767991
1.6508118
1.544439
1.4490949
1.3636112
1.2851683
1.2148989
1.1513711
1.0930989
1.040742
0.99332786
0.94975613
0.91050709
0.87475274
0.84147657
0.81107765
0.78292488
0.75629009
0.73128951
0.70821468
0.68694714
0.66676353
0.64828617
0.63174166
0.61631063
0.60198763
0.58902009
0.57712847
0.56586565
0.55520211
0.54532527
0.53607848
0.52715642
0.51889121
0.51139504
0.50424753
0.49762012
0.4915871
0.48590207
0.48053486
0.4755793
0.47089723
0.46644239
0.46231087
0.45838843
0.45469001
0.45120231
0.44791269
0.44483029
0.44193533
0.43922707
0.43669044
0.43430935
0.43207008
0.42996795
0.42799704
0.42615195
0.42442496
0.42280883
0.42130039
0.41990026
0.41861254
0.41743769
0.41637378
0.41541766
0.41456926
0.41382519
0.41319625
0.41267201
0.41230631
0.41198032
0.41195174
433.9505
422.42646
410.46412
398.25012
385.81465
373.18944
360.40744
347.50258
334.50932
321.46228
308.39568
295.34301
282.33657
269.40714
256.58384
243.89387
231.36256
219.01336
206.86789
194.9461
183.26635
171.84552
160.69913
149.84145
139.28569
129.04118
119.11871
109.53095
100.28696
91.395019
82.862752
74.697405
66.906036
59.495736
52.473808
45.848478
39.629801
33.821893
28.448333
23.532619
19.08438
15.138712
11.73938
8.9348304
6.7635273
5.2134129
4.1881261
3.5317645
3.0968227
2.7848107
2.5399409
2.3342659
2.155947
1.998445
1.8580347
1.7322031
1.6196833
1.5171648
1.4250251
1.34251
1.2664213
1.1982408
1.1367683
1.0800374
1.029
0.98296861
0.94042406
0.90203739
0.86724896
0.83471903
0.80494323
0.77748514
0.75145437
0.72692553
0.70425682
0.68339937
0.6635746
0.64532973
0.62902106
0.61387481
0.5997433
0.58692223
0.57522315
0.56415943
0.55364819
0.54389323
0.53479419
0.52601119
0.51782692
0.51042244
0.50338014
0.49680925
0.49083432
0.48521927
0.47989931
0.47499236
0.47036595
0.46594825
0.46185758
0.45797649
0.45431162
0.45085543
0.44759107
0.44453343
0.44165987
0.43897087
0.43645232
0.4340878
0.43186376
0.42977504
0.42781618
0.42598183
0.4242645
0.42265673
0.42115577
0.41976216
0.41848031
0.41731118
0.41625264
0.41530149
0.41445753
0.41371745
0.41309187
0.41257069
0.41220698
0.4118823
0.41185428
410.71217
399.93715
388.72596
377.27002
365.59681
353.7353
341.71569
329.56915
317.32746
305.02262
292.68646
280.35021
268.04424
255.79769
243.63829
231.59225
219.68412
207.93687
196.37184
185.00888
173.86642
162.96152
152.31003
141.92664
131.82511
122.01532
112.50876
103.31904
94.456114
85.929236
77.747096
69.918064
62.450428
55.352643
48.633584
42.303494
36.372116
30.848701
25.762821
21.134006
16.978687
13.339441
10.262535
7.793669
5.9513439
4.6844462
3.8629465
3.330088
2.9626883
2.687198
2.462939
2.2703473
2.1015569
1.9515724
1.8173631
1.6966824
1.588684
1.4899819
1.4010413
1.3213878
1.2476768
1.181605
1.1221251
1.0669286
1.0172204
0.9725379
0.93102647
0.89351113
0.85966462
0.82788976
0.79874373
0.77196164
0.74654837
0.72251005
0.70024072
0.67978706
0.6603458
0.64234185
0.62625718
0.61140486
0.59747428
0.58479862
0.57328728
0.56242604
0.5520751
0.5424423
0.53348587
0.52485042
0.5167516
0.50943253
0.50250105
0.49598899
0.49006893
0.4845264
0.47925499
0.47439457
0.46982529
0.46544658
0.46139604
0.45755766
0.45392677
0.45050268
0.44726376
0.44423129
0.44137962
0.43870996
0.43620963
0.43386177
0.43165318
0.42957796
0.42763126
0.42580777
0.42410022
0.422501
0.42100774
0.41962086
0.41834507
0.41718186
0.41612886
0.41518286
0.41434349
0.41360756
0.41298552
0.41246754
0.41210593
0.41178259
0.41175519
387.57723
377.53774
367.06563
356.35447
345.42936
334.31684
323.04468
311.64166
300.13721
288.56104
276.9428
265.31172
253.69633
242.12418
230.62168
219.21394
207.92468
196.77628
185.7897
174.98461
164.37939
153.99124
143.83624
133.92949
124.28524
114.91388
105.82757
97.040788
88.564412
80.408638
72.583202
65.097596
57.961349
51.184341
44.77725
38.752953
33.11871
27.893178
23.110708
18.784295
14.941922
11.631309
8.8988747
6.7795826
5.2602592
4.2483453
3.5950345
3.1584672
2.8430398
2.5962058
2.3889173
2.2079326
2.0480329
1.9052642
1.7770901
1.6614616
1.557809
1.4629093
1.3771871
1.3002452
1.2289633
1.1650251
1.1074228
1.0537726
1.0054302
0.96202628
0.92156438
0.88494529
0.85199241
0.82098878
0.79248931
0.76635192
0.74157104
0.71804905
0.69617169
0.67611095
0.65707871
0.6393278
0.62345346
0.60889839
0.59518078
0.58265291
0.57132298
0.56066572
0.55048269
0.54097466
0.53215447
0.52367389
0.51566666
0.50842588
0.50160944
0.49515973
0.48929108
0.4838232
0.47860243
0.47378589
0.46927488
0.46493775
0.46092628
0.45713175
0.45353538
0.45014393
0.44693072
0.44392375
0.44109447
0.43844421
0.43596224
0.43363112
0.43143821
0.42937657
0.42744214
0.42562965
0.423932
0.42234153
0.4208562
0.41947628
0.41820675
0.41704966
0.41600239
0.41506173
0.41422712
0.41349551
0.41287718
0.41236256
0.41200315
0.41168123
0.41165446
364.62817
355.30473
345.55371
335.56879
325.37291
314.99046
304.44709
293.76949
282.98498
272.12123
261.2059
250.26635
239.32938
228.42098
217.56622
206.78907
196.11238
185.55783
175.14593
164.89606
154.8265
144.95448
135.29631
125.86737
116.6824
107.75227
99.08973
90.710161
82.625294
74.846281
67.383894
60.248755
53.451638
47.003898
40.918234
35.210167
29.886316
24.97424
20.509698
16.504479
12.998115
10.039836
7.671446
5.9058308
4.6887221
3.8939457
3.3731869
3.010052
2.7346131
2.5102606
2.3171913
2.1468101
1.9953554
1.859549
1.7372265
1.6265605
1.5270496
1.4359847
1.3535071
1.2790983
1.2103197
1.1485121
1.0926349
1.0405775
0.99365023
0.95142644
0.91204174
0.87635131
0.84422661
0.81401874
0.78618673
0.76065579
0.73652311
0.71354692
0.69205615
0.67237279
0.65377417
0.63629255
0.62061505
0.60635202
0.59286185
0.58048941
0.56933329
0.55887896
0.54887021
0.53949215
0.53080156
0.52248135
0.51457313
0.5074034
0.50070421
0.49432174
0.48850109
0.48310911
0.47794217
0.4731664
0.46871425
0.46442209
0.46044836
0.45669853
0.45313731
0.44977898
0.44659193
0.44361064
0.44080431
0.4381735
0.43571001
0.43339567
0.4312187
0.42917072
0.42724869
0.42544732
0.4237597
0.4221782
0.42070102
0.41932832
0.41806527
0.41691451
0.41587318
0.41493806
0.41410839
0.41338129
0.41276687
0.41225575
0.41189865
0.4115782
0.41155212
341.93781
333.30653
324.25409
314.97273
305.48348
295.80885
285.97264
275.99967
265.91538
255.74557
245.51605
235.25239
224.97971
214.72247
204.50439
194.34828
184.27605
174.30862
164.46597
154.76712
145.23016
135.87233
126.71005
117.75901
109.03433
100.54735
92.311395
84.342696
76.653845
69.25695
62.16383
55.386257
48.93629
42.82686
37.072964
31.69217
26.693274
22.112269
17.982742
14.320964
11.175582
8.5927248
6.6007023
5.1777657
4.2272382
3.6071509
3.1868518
2.8793484
2.6348457
2.4280203
2.2472436
2.0868511
1.9435694
1.8144898
1.6977715
1.5919953
1.4964118
1.4092676
1.3300232
1.2579708
1.1917864
1.1320458
1.0777413
1.0273704
0.98188402
0.94073818
0.90246776
0.86772884
0.83636674
0.8069864
0.77983797
0.75487833
0.73140664
0.70900331
0.68790106
0.66857627
0.65043182
0.63324001
0.61774905
0.60376234
0.59051563
0.57831267
0.56732213
0.55706656
0.54723663
0.53799606
0.52942937
0.5212726
0.51347145
0.50636646
0.49978407
0.49347516
0.48769963
0.48238339
0.47727469
0.47253643
0.46814289
0.46389994
0.45996244
0.45625769
0.45273242
0.44940762
0.44624737
0.44329179
0.44050899
0.43789768
0.43545277
0.43315527
0.43099446
0.42896024
0.42705075
0.42526066
0.42358321
0.4220109
0.42054212
0.4191769
0.41792056
0.41677636
0.41574118
0.41481181
0.41398727
0.41326488
0.41265456
0.41214711
0.41179245
0.41147353
0.41144818
319.57124
311.60475
303.22481
294.62107
285.81291
276.82123
267.66821
258.377
248.97133
239.47521
229.91269
220.30761
210.68344
201.06313
191.46901
181.92274
172.44522
163.05659
153.77623
144.62273
135.61398
126.76712
118.09867
109.62455
101.36029
93.317599
85.510372
77.955691
70.667004
63.657394
56.939763
50.527078
44.432751
38.671491
33.261071
28.219142
23.56157
19.332393
15.557975
12.265104
9.5061952
7.3170299
5.6999364
4.5902556
3.860004
3.3733738
3.0273419
2.7620648
2.5412906
2.3483788
2.178879
2.0281959
1.8926369
1.7700181
1.6588245
1.5578124
1.4659725
1.3827809
1.3067015
1.2369005
1.1733911
1.1155863
1.0627556
1.0141967
0.97011344
0.9299708
0.89285522
0.8590659
0.82841996
0.79990104
0.77344245
0.74903257
0.72622214
0.7044102
0.68371314
0.66472878
0.64704934
0.63017156
0.61486421
0.60112779
0.58814041
0.57612652
0.56529378
0.55522959
0.54558103
0.53648703
0.52804067
0.52004731
0.51236118
0.50531699
0.49884773
0.49261995
0.48688771
0.48164511
0.47660027
0.47189657
0.46756027
0.46337147
0.45946871
0.45580887
0.45232054
0.4490296
0.44589704
0.44296701
0.44020833
0.43761659
0.43519036
0.43290974
0.43076531
0.42874498
0.42684817
0.42506954
0.42340239
0.42183951
0.42037936
0.41902194
0.41777255
0.41663515
0.41560634
0.41468296
0.41386375
0.41314628
0.41254027
0.41203666
0.41168455
0.41136723
0.41134263
297.58641
290.25472
282.51842
274.56384
266.40904
258.07353
249.57807
240.94427
232.19422
223.35022
214.43458
205.46943
196.47661
187.47756
178.49325
169.54414
160.65013
151.83054
143.10411
134.489
126.00279
117.66255
109.48482
101.48573
93.681166
86.083237
78.70635
71.568442
64.683841
58.066647
51.730912
45.690875
39.961379
34.559203
29.505692
24.815496
20.519719
16.665238
13.268815
10.372674
8.0230296
6.2341557
4.9705407
4.1277939
3.5681265
3.1795571
2.8897163
2.653596
2.4495484
2.2713058
2.1129471
1.9709375
1.8426181
1.7262117
1.6203867
1.5240328
1.4362659
1.3563035
1.2829811
1.2160837
1.1552255
1.0991218
1.047761
1.0010893
0.95830763
0.91913934
0.88321218
0.8503527
0.82040178
0.7927655
0.76700214
0.74314067
0.72096383
0.69975278
0.67949901
0.66084383
0.64362079
0.627084
0.61197048
0.59845121
0.58573643
0.57393269
0.56325192
0.55336936
0.54390317
0.53496507
0.52663842
0.51880485
0.51124096
0.50425738
0.49789409
0.49175575
0.48606673
0.48089335
0.47591888
0.47124769
0.4669659
0.46283666
0.45896746
0.45535168
0.45190151
0.44864463
0.44554093
0.44263611
0.43990207
0.43733009
0.4349226
0.43265891
0.43053106
0.42852474
0.42664078
0.4248738
0.42321712
0.42166392
0.42021265
0.41886336
0.41762118
0.41649081
0.41546861
0.41455147
0.4137378
0.41302547
0.41242399
0.4119244
0.41157496
0.4112593
0.41123549
276.03403
269.30537
262.18191
254.84641
247.3159
239.60868
231.7442
223.74258
215.62429
207.40992
199.12004
190.77509
182.3953
174.00061
165.61067
157.24474
148.92174
140.66014
132.47806
124.39317
116.42277
108.58376
100.89274
93.365995
86.019748
78.866505
71.92118
65.202576
58.72594
52.506467
46.559478
40.900616
35.546296
30.515602
25.83293
21.514027
17.604187
14.145123
11.154905
8.6823173
6.7553006
5.3532854
4.3997176
3.7677776
3.3330406
3.016969
2.7646763
2.5491899
2.3625343
2.1970808
2.0487138
1.9148533
1.7934801
1.6830839
1.5824689
1.4906347
1.4067544
1.3301147
1.2598381
1.1954903
1.1366163
1.0824989
1.0330553
0.98802134
0.94645146
0.90826994
0.8735345
0.84159991
0.81233516
0.78556071
0.76052293
0.73723161
0.71561953
0.69501768
0.67526655
0.65694208
0.64013371
0.62396839
0.60907847
0.59574193
0.58330764
0.57172952
0.56119852
0.55148732
0.54220399
0.53342995
0.52522532
0.51754409
0.51010865
0.50319036
0.49692252
0.49088198
0.48523833
0.48012739
0.47523003
0.47059087
0.46635947
0.46229517
0.45845896
0.45488576
0.45147514
0.44825248
0.44517898
0.44229889
0.43958994
0.43703802
0.4346493
0.43240261
0.43029148
0.42829936
0.42642844
0.4246733
0.42302727
0.42148402
0.42004187
0.41870108
0.41746638
0.41634331
0.41532797
0.4144173
0.41360942
0.41290246
0.41230572
0.41181033
0.4114637
0.41114976
0.41112677
254.956
248.79868
242.25679
235.50991
228.57435
221.46734
214.20702
206.812
199.30112
191.69324
184.00722
176.26184