/*--------------------------------*- C++ -*----------------------------------*\
| =========                 |                                                 |
| \\      /  F ield         | OpenFOAM: The Open Source CFD Toolbox           |
|  \\    /   O peration     | Version:  2406                                  |
|   \\  /    A nd           | Website:  www.openfoam.com                      |
|    \\/     M anipulation  |                                                 |
\*---------------------------------------------------------------------------*/
FoamFile
{
    version     2.0;
    format      ascii;
    arch        "LSB;label=32;scalar=64";
    class       surfaceScalarField;
    location    "0.008";
    object      phi;
}
// * * * * * * * * * * * * * * * * * * * * * * * * * * * * * * * * * * * * * //

dimensions      [1 0 -1 0 0 0 0];

oriented        oriented;

internalField   nonuniform List<scalar> 
172833
(
0.0071656986
-0.0095247652
0.0097206894
-0.0073614038
0.0069930301
-0.0099272319
0.010100143
0.006826668
-0.010319248
0.010485824
0.0066634897
-0.010709816
0.010873171
0.006502807
-0.011100594
0.011261435
0.0063460399
-0.011491887
0.011648791
0.0061941417
-0.011883687
0.012035684
0.0060478269
-0.012276559
0.012422944
0.0059076752
-0.01267145
0.012811633
0.0057740147
-0.013069381
0.013203043
0.0056469192
-0.013471509
0.013598591
0.0055262491
-0.013879047
0.013999704
0.0054116096
-0.014293215
0.014407849
0.0053024857
-0.014715197
0.014824325
0.0051982494
-0.015145512
0.015249765
0.0050984675
-0.015584316
0.015684128
0.0050028529
-0.01603142
0.01612708
0.0049112435
-0.016486176
0.016577845
0.0048235774
-0.016948247
0.017035985
0.0047397184
-0.017417526
0.017501467
0.0046595066
-0.01789412
0.017974423
0.0045827027
-0.018378638
0.018455538
0.0045090268
-0.01887164
0.018945415
0.0044381861
-0.019373469
0.019444409
0.0043699116
-0.019884319
0.019952692
0.004303948
-0.020404212
0.020470271
0.0042400342
-0.020933075
0.020997082
0.0041779075
-0.021471026
0.021533246
0.0041173036
-0.022018125
0.022078823
0.0040579537
-0.022574263
0.022633709
0.0039995808
-0.023139202
0.023197672
0.0039419034
-0.0237126
0.023770376
0.003884631
-0.024294006
0.024351379
0.0038274597
-0.024882853
0.024940126
0.0037700666
-0.025478436
0.025535932
0.0037121061
-0.0260799
0.026137964
0.0036532269
-0.026686202
0.026745186
0.0035930102
-0.027296221
0.027356542
0.0035309285
-0.027909159
0.027971345
0.0034666942
-0.028520868
0.028585208
0.0033998547
-0.029130188
0.029197133
0.0033298435
-0.029738049
0.029808166
0.0032556026
-0.030339364
0.030413711
0.0031767649
-0.030931004
0.031009947
0.0030928084
-0.03151061
0.031594672
0.0030033601
-0.032075551
0.032165105
0.0029084671
-0.03262423
0.032719228
0.0028089927
-0.033157279
0.033256859
0.0027072127
-0.033679778
0.033781664
0.0026072018
-0.03420368
0.034303796
0.0025138782
-0.034747138
0.034840566
0.0024304556
-0.035327002
0.035410527
0.0023568377
-0.035949515
0.036023234
0.0022907456
-0.036609988
0.036676179
0.0022296767
-0.037299898
0.037361064
0.0021718702
-0.03801229
0.038070191
0.0021163273
-0.038743016
0.03879865
0.0020625271
-0.039490038
0.039543926
0.0020102266
-0.040252771
0.040305156
0.0019593057
-0.041031085
0.041082086
0.0019096586
-0.041824953
0.041874676
0.0018612376
-0.042634791
0.042683284
0.0018139946
-0.043460724
0.043508036
0.0017678636
-0.044302995
0.044349192
0.0017228147
-0.045162164
0.045207275
0.0016788187
-0.046038416
0.046082471
0.001635816
-0.046932036
0.046975095
0.0015937886
-0.047843656
0.047885736
0.001552712
-0.048773426
0.048814551
0.0015125278
-0.049721636
0.049761864
0.0014732222
-0.050688969
0.050728314
0.0014347878
-0.051675584
0.051714052
0.001397175
-0.052681634
0.052719275
0.001360345
-0.053707609
0.053744462
0.0013242883
-0.054754037
0.054790111
0.0012890066
-0.055821228
0.055856522
0.001254442
-0.056909135
0.056943706
0.0012205449
-0.058018636
0.058052532
0.0011873326
-0.059150547
0.059183752
0.0011547887
-0.060304721
0.060337249
0.0011228453
-0.06148177
0.061513689
0.0010914792
-0.062682748
0.062714081
0.001060712
-0.063907959
0.063938683
0.0010305135
-0.065157509
0.065187654
0.0010008354
-0.066432102
0.066461715
0.00097168208
-0.067732614
0.067761691
0.00094306068
-0.069059302
0.069087835
0.00091491866
-0.070412345
0.070440387
0.00088722701
-0.071792718
0.071820296
0.0008600055
-0.073201127
0.073228221
0.00083322993
-0.074637623
0.074664257
0.0008068414
-0.076103047
0.076129279
0.00078084341
-0.077598274
0.077624101
0.00075522447
-0.079123695
0.079149129
0.00072994988
-0.080679854
0.080704931
0.00070500355
-0.082267559
0.082292293
0.00068038256
-0.083887443
0.083911839
0.00065605732
-0.085539974
0.085564063
0.00063201684
-0.087226038
0.087249831
0.00060825196
-0.088946264
0.088969771
0.00058474677
-0.090701358
0.090724596
0.00056148663
-0.092492027
0.092515012
0.00053844909
-0.094318929
0.094341683
0.00051561996
-0.096182909
0.096205447
0.00049297949
-0.098084711
0.098107053
0.0004705092
-0.10002511
0.10004727
0.00044818978
-0.1020049
0.1020269
0.00042600016
-0.10402488
0.10404674
0.00040392287
-0.10608591
0.10610764
0.00038193625
-0.1081888
0.10821044
0.0003600208
-0.11033441
0.11035597
0.00033815454
-0.11252359
0.11254508
0.00031631822
-0.11475719
0.11477864
0.00029449074
-0.11703611
0.11705755
0.00027265008
-0.11936124
0.11938268
0.00025077803
-0.12173355
0.12175501
0.0002288484
-0.12415395
0.12417547
0.00020683849
-0.1266235
0.12664509
0.00018472181
-0.12914308
0.12916478
0.00016247073
-0.13171388
0.13173571
0.00014006321
-0.13433666
0.13435865
0.00011746181
-0.13701291
0.1370351
9.4610474e-05
-0.13974301
0.13976546
7.1520434e-05
-0.1425292
0.14255188
4.8068729e-05
-0.14537104
0.14539408
2.4280004e-05
-0.14827246
0.14829583
-0.1512309
0.15125476
0.0072194643
-0.0093610257
-0.007383488
0.0070552604
-0.0097631805
0.0068952459
-0.010159319
0.0067384247
-0.010553027
0.0065849097
-0.010947105
0.006435155
-0.011342156
0.0062898294
-0.011738388
0.006149583
-0.01213634
0.0060148432
-0.012536731
0.0058858633
-0.01294041
0.0057626992
-0.013348338
0.0056452218
-0.013761549
0.0055331155
-0.014181078
0.0054258509
-0.014607894
0.0053229133
-0.015042526
0.0052238849
-0.015485227
0.0051284356
-0.015935898
0.0050364632
-0.016394119
0.0049479626
-0.016859652
0.004862957
-0.017332419
0.0047814018
-0.017812459
0.0047031372
-0.018300266
0.0046278958
-0.018796292
0.0045554046
-0.019300873
0.0044853978
-0.01981421
0.0044176224
-0.020336337
0.0043518319
-0.020867186
0.0042877671
-0.021406863
0.0042251681
-0.021955427
0.0041637629
-0.022512758
0.0041032754
-0.023078613
0.0040434193
-0.02365264
0.0039838966
-0.024234378
0.0039243976
-0.024823248
0.0038645878
-0.02541852
0.0038041147
-0.026019319
0.0037426021
-0.026624581
0.0036796238
-0.027233134
0.0036144668
-0.027843893
0.0035470218
-0.028453314
0.0034769721
-0.029060029
0.0034034124
-0.02966438
0.0033253604
-0.030261202
0.0032424586
-0.030847992
0.0031541818
-0.031422223
0.0030602457
-0.031981505
0.0029608666
-0.032524741
0.002857265
-0.033053568
0.0027522943
-0.033574699
0.0026506096
-0.034101887
0.0025571535
-0.034653575
0.0024743597
-0.035244102
0.002401228
-0.03587628
0.0023350834
-0.036543741
0.002273485
-0.0372382
0.0022148646
-0.037953572
0.0021583775
-0.038686434
0.0021035847
-0.039435154
0.0020502837
-0.040199383
0.0019983794
-0.040979097
0.0019477661
-0.04177426
0.001898397
-0.042585346
0.0018502308
-0.043412486
0.0018031944
-0.044255891
0.0017572595
-0.045116164
0.0017124002
-0.045993495
0.0016685527
-0.04688813
0.0016256947
-0.047800743
0.0015838095
-0.04873149
0.0015428298
-0.04968061
0.0015027444
-0.050648843
0.0014635465
-0.05163635
0.0014251873
-0.052643244
0.0013876232
-0.05367002
0.0013508453
-0.054717239
0.001314861
-0.05578523
0.0012796083
-0.056873874
0.0012450336
-0.05798406
0.0012111577
-0.059116677
0.0011779652
-0.060271542
0.0011453857
-0.061449213
0.001113392
-0.062650787
0.0010820085
-0.063876618
0.0010512093
-0.065126762
0.0010209387
-0.066401894
0.00099120077
-0.067702951
0.00096200358
-0.069030191
0.00093330066
-0.070383742
0.00090505157
-0.071764582
0.00087728281
-0.073173485
0.00084997018
-0.074610451
0.00082305284
-0.076076284
0.00079653003
-0.07757192
0.00077039666
-0.079097744
0.00074461251
-0.080654267
0.00071916279
-0.082242319
0.00069404559
-0.083862548
0.0006692301
-0.085515393
0.00064470295
-0.087201756
0.00062045863
-0.088922274
0.00059647857
-0.090677641
0.00057274855
-0.092468568
0.00054924681
-0.094295706
0.00052595517
-0.096159904
0.00050285825
-0.098061909
0.00047993518
-0.10000249
0.00045716559
-0.10198244
0.0004345292
-0.10400256
0.0004120071
-0.10606372
0.00038957645
-0.10816672
0.0003672193
-0.11031241
0.0003449121
-0.11250165
0.00032263595
-0.11473529
0.00030037009
-0.11701424
0.00027809093
-0.11933936
0.0002557786
-0.12171164
0.00023340972
-0.12413199
0.00021095959
-0.12660145
0.00018840214
-0.12912092
0.00016571232
-0.13169159
0.00014285013
-0.13431419
0.00011979654
-0.13699025
9.6497734e-05
-0.13972011
7.2933981e-05
-0.14250602
4.9018166e-05
-0.14534752
2.4756324e-05
-0.1482486
-0.15120655
0.0072455958
-0.0092170297
-0.0073899701
0.0070963384
-0.0096141807
0.0069473135
-0.010010466
0.0068002661
-0.010406107
0.0066558133
-0.010802754
0.0065144866
-0.011200917
0.0063768744
-0.011600844
0.006243484
-0.012002996
0.0061147037
-0.012407971
0.005990783
-0.012816484
0.0058718163
-0.013229342
0.0057577346
-0.013647418
0.0056483054
-0.014071586
0.0055431213
-0.014502637
0.0054417724
-0.014941096
0.0053438747
-0.01538724
0.0052491435
-0.015841069
0.0051575009
-0.01630237
0.0050689467
-0.016770987
0.0049835045
-0.017246862
0.0049012147
-0.017730055
0.0048219622
-0.0182209
0.0047455447
-0.018719763
0.0046717294
-0.019226948
0.0046002714
-0.019742646
0.00453093
-0.020266891
0.004463468
-0.020799622
0.0043976476
-0.02134094
0.0043332067
-0.021890883
0.0042698791
-0.022449325
0.0042073845
-0.023016011
0.0041454363
-0.023590584
0.0040837318
-0.024172564
0.0040219497
-0.024761355
0.0039597507
-0.025356209
0.0038967639
-0.02595622
0.0038325943
-0.026560299
0.0037667876
-0.027167214
0.0036985924
-0.027775584
0.0036278842
-0.028382492
0.0035544355
-0.028986466
0.0034771637
-0.029586994
0.0033951652
-0.030179089
0.003308045
-0.030760758
0.0032153187
-0.031329383
0.0031168145
-0.031882887
0.0030130064
-0.032420819
0.0029055709
-0.032946019
0.002798014
-0.033467029
0.0026954592
-0.03399922
0.00260251
-0.034560515
0.0025205816
-0.035162065
0.0024478742
-0.035803465
0.0023815462
-0.036477308
0.0023193252
-0.037175875
0.0022598503
-0.037893996
0.0022024076
-0.038628893
0.002146627
-0.039379279
0.0020923366
-0.040145002
0.0020394552
-0.040926129
0.0019878744
-0.041722597
0.001937555
-0.042534949
0.0018884571
-0.043363314
0.0018405032
-0.044207866
0.0017936651
-0.045069258
0.0017479211
-0.045947686
0.001703201
-0.046843348
0.0016594834
-0.047756967
0.0016167559
-0.048688709
0.0015749494
-0.049638754
0.0015340452
-0.050607895
0.0014940468
-0.051596314
0.0014549024
-0.052604066
0.0014165637
-0.053631654
0.0013790207
-0.054679674
0.0013422877
-0.05574848
0.0013063037
-0.056837879
0.001271008
-0.05794876
0.0012364184
-0.059082092
0.0012025344
-0.06023767
0.0011692739
-0.061415972
0.0011366063
-0.062618149
0.0011045612
-0.063844613
0.0010731157
-0.065095367
0.0010422096
-0.06637105
0.0010118423
-0.067672657
0.00098202849
-0.069000463
0.00095272208
-0.070354533
0.00092387706
-0.071735847
0.00089551852
-0.073145251
0.00086762894
-0.0745827
0.00084014546
-0.076048954
0.00081306128
-0.077545003
0.00078637369
-0.079071237
0.00076004663
-0.080628134
0.0007340581
-0.082216538
0.00070841153
-0.083837121
0.00068307268
-0.085490286
0.00065802829
-0.087176954
0.00063327362
-0.088897771
0.00060878868
-0.090653415
0.00058455965
-0.092444606
0.00056056421
-0.094271985
0.00053678452
-0.096136405
0.00051320393
-0.098038616
0.00048980103
-0.09997938
0.00046655625
-0.1019595
0.00044344749
-0.10397977
0.00042045566
-0.10604105
0.00039755991
-0.10814416
0.00037473801
-0.11028994
0.0003519693
-0.11247924
0.00032923267
-0.11471292
0.00030650507
-0.11699188
0.00028376705
-0.119317
0.00026099641
-0.12168926
0.00023816743
-0.12410955
0.00021525786
-0.12657893
0.00019223877
-0.12909829
0.0001690846
-0.13166882
0.00014575614
-0.13429124
0.00012223277
-0.1369671
9.845598e-05
-0.1396967
7.44203e-05
-0.14248236
5.0016468e-05
-0.14532349
2.5257628e-05
-0.14822422
-0.15118168
0.0072565425
-0.0090888768
-0.0073849292
0.0071229465
-0.0094807526
0.0069875256
-0.0098751777
0.0068523102
-0.010271006
0.0067183809
-0.01066892
0.006586485
-0.011069095
0.0064572724
-0.011471683
0.006331272
-0.011877022
0.0062088965
-0.012285595
0.0060904328
-0.012697992
0.0059760294
-0.013114886
0.0058656886
-0.013537004
0.0057592669
-0.013965076
0.0056564899
-0.014399762
0.0055570459
-0.014841546
0.0054606339
-0.015290716
0.0053670332
-0.015747351
0.0052761613
-0.016211377
0.005188014
-0.016682716
0.0051026193
-0.017161345
0.0050200174
-0.017647332
0.0049401455
-0.018140909
0.0048628627
-0.018642365
0.0047879801
-0.019151953
0.0047152855
-0.019669841
0.0046445542
-0.020196053
0.0045755718
-0.020730533
0.0045081113
-0.021273373
0.004441923
-0.021824586
0.0043767409
-0.022384033
0.0043122876
-0.022951446
0.0042482704
-0.023526453
0.004184386
-0.024108565
0.0041203063
-0.02469716
0.0040556777
-0.025291464
0.0039901199
-0.025890545
0.003923215
-0.026493276
0.0038544912
-0.027098372
0.0037831682
-0.027704143
0.0037090887
-0.028308294
0.0036320615
-0.02890932
0.0035508909
-0.029505704
0.0034647666
-0.030092846
0.00337325
-0.030669122
0.0032759251
-0.031231939
0.0031727904
-0.031779634
0.0030646418
-0.032312553
0.0029537153
-0.032834975
0.0028441829
-0.03335738
0.0027414153
-0.033896337
0.0026493468
-0.034468332
0.0025682962
-0.035080901
0.0024958613
-0.035730918
0.0024291977
-0.036410535
0.0023662567
-0.037112827
0.0023058632
-0.037833498
0.0022474289
-0.038570357
0.0021906329
-0.039322385
0.0021353264
-0.040089601
0.0020814422
-0.040872155
0.0020288716
-0.041669941
0.0019775726
-0.042483568
0.0019275183
-0.043313182
0.0018786196
-0.044158892
0.0018308496
-0.045021417
0.0017841942
-0.045900963
0.0017385768
-0.046797666
0.0016939719
-0.047712301
0.0016503777
-0.048645058
0.0016077187
-0.049596043
0.0015659724
-0.050566102
0.0015251481
-0.051555448
0.0014851965
-0.052564079
0.0014460609
-0.053592488
0.0014077323
-0.054641321
0.0013702301
-0.055710959
0.0013334959
-0.056801132
0.0012974584
-0.057912717
0.0012621418
-0.059046777
0.0012275473
-0.060203085
0.0011935913
-0.061382034
0.0011602356
-0.062584821
0.0011275142
-0.06381193
0.0010954083
-0.06506331
0.0010638552
-0.066339556
0.0010328442
-0.067641717
0.0010024013
-0.068970103
0.0009724791
-0.070324706
0.00094302716
-0.071706505
0.00091406602
-0.073116413
0.00088559201
-0.074554363
0.00085752993
-0.076021043
0.0008298742
-0.077517513
0.00080262697
-0.079044169
0.0007757451
-0.080601445
0.00074920956
-0.082190207
0.00072302179
-0.083811151
0.00069715209
-0.085464645
0.00067158102
-0.087151621
0.00064630674
-0.088872744
0.00062130907
-0.090628673
0.00059657394
-0.092420133
0.0005720759
-0.094247755
0.00054779869
-0.096112403
0.00052372697
-0.098014826
0.00049983751
-0.099955779
0.00047610831
-0.10193606
0.0004525199
-0.10395648
0.00042905115
-0.10601789
0.00040567995
-0.10812111
0.00038238558
-0.11026698
0.00035914636
-0.11245634
0.00033594092
-0.11469007
0.00031274646
-0.11696905
0.00028954069
-0.11929417
0.00026630348
-0.12166639
0.00024300807
-0.12408663
0.00021963017
-0.12655593
0.00019614182
-0.12907518
0.00017251374
-0.13164556
0.00014871196
-0.1342678
0.000124718
-0.13694346
0.00010045603
-0.13967279
7.5928382e-05
-0.14245818
5.1029132e-05
-0.14529894
2.5765805e-05
-0.14819931
-0.15115627
0.0072584072
-0.0089751957
-0.0073721061
0.0071397701
-0.0093621283
0.007018357
-0.0097537917
0.0068957937
-0.010148484
0.0067732121
-0.010546374
0.0066514606
-0.010947366
0.0065312503
-0.011351477
0.0064131676
-0.011758923
0.0062976775
-0.012170066
0.0061851216
-0.012585374
0.0060757127
-0.013005395
0.0059695303
-0.013430722
0.0058665246
-0.013861959
0.0057665375
-0.014299655
0.0056693596
-0.014744243
0.0055747812
-0.015196009
0.0054826445
-0.015655084
0.005392881
-0.016121483
0.0053054866
-0.016595192
0.0052204901
-0.01707622
0.005137923
-0.01756464
0.005057757
-0.018060622
0.004979896
-0.018564386
0.0049041939
-0.019076136
0.0048304695
-0.019596004
0.0047585235
-0.020123995
0.0046881667
-0.020660064
0.004619185
-0.021204279
0.0045513362
-0.021756624
0.0044843603
-0.022316942
0.0044179827
-0.022884952
0.0043519149
-0.023460267
0.0042858419
-0.024042373
0.0042194321
-0.024630629
0.0041523231
-0.025224233
0.0040841157
-0.025822216
0.0040143799
-0.026423418
0.0039426305
-0.0270265
0.0038680506
-0.02762944
0.003790452
-0.028230572
0.0037096727
-0.028828417
0.003624395
-0.029420303
0.0035339266
-0.030002254
0.0034378098
-0.030572882
0.0033357352
-0.031129741
0.0032279138
-0.031671689
0.0031155629
-0.032200079
0.0030015594
-0.03272085
0.0028906949
-0.033246394
0.0027883034
-0.033793825
0.0026973654
-0.034377276
0.0026171453
-0.035000565
0.0025448382
-0.035658496
0.00247772
-0.036343303
0.0024139813
-0.037048977
0.0023526319
-0.03777204
0.0022931823
-0.038510802
0.0022353556
-0.039264457
0.0021790194
-0.040033167
0.0021241236
-0.040817166
0.0020705493
-0.041616277
0.0020182595
-0.042431193
0.001967236
-0.043262077
0.0019173824
-0.044108961
0.001868669
-0.044972629
0.0018210924
-0.045853315
0.0017745661
-0.046751071
0.0017290633
-0.047666734
0.0016845921
-0.048600527
0.0016410699
-0.049552466
0.0015984699
-0.050523453
0.0015568099
-0.051513745
0.001516038
-0.052523268
0.0014760963
-0.053552513
0.0014369709
-0.054602168
0.0013986875
-0.055672654
0.0013611917
-0.056763621
0.0013244047
-0.057875921
0.0012883472
-0.059010718
0.0012530332
-0.060167778
0.0012183729
-0.06134739
0.0011843179
-0.062550792
0.0011509091
-0.063778558
0.0011181332
-0.06503058
0.0010859206
-0.066307401
0.0010542583
-0.067610124
0.0010231709
-0.068939097
0.00099262564
-0.070294254
0.00096255472
-0.071676541
0.00093298291
-0.073086962
0.00090391049
-0.074525426
0.00087526219
-0.075992543
0.00084702291
-0.077489436
0.00081920217
-0.079016525
0.0007917578
-0.08057419
0.00076466278
-0.082163315
0.00073792641
-0.083784629
0.00071151325
-0.085438457
0.00068540657
-0.087125749
0.00065960255
-0.088847183
0.00063408213
-0.090603403
0.00060882901
-0.092395136
0.00058381909
-0.094223008
0.00055903576
-0.096087888
0.00053446124
-0.097990526
0.00051007426
-0.099931673
0.00048585354
-0.10191213
0.00046177401
-0.1039327
0.00043781947
-0.10599425
0.0004139653
-0.10809757
0.00039018969
-0.11024353
0.00036647001
-0.11243296
0.0003427852
-0.11466673
0.0003191134
-0.11694573
0.00029543197
-0.11927084
0.00027171653
-0.12164304
0.0002479462
-0.12406322
0.00022408963
-0.12653243
0.00020012293
-0.12905156
0.00017601691
-0.1316218
0.00015173331
-0.13424386
0.00012724117
-0.1369193
0.00010249177
-0.13964837
7.7463384e-05
-0.14243348
5.2059984e-05
-0.14527387
2.6283195e-05
-0.14817387
-0.15113032
0.0072536061
-0.0088754256
-0.0073532066
0.0071493006
-0.0092576978
0.0070416526
-0.0096460629
0.0069318642
-0.010038647
0.0068209292
-0.010435397
0.0067096853
-0.010836077
0.0065988675
-0.011240604
0.0064891024
-0.011649089
0.0063809031
-0.012061783
0.0062746658
-0.012479038
0.0061706669
-0.012901283
0.0060690614
-0.013328993
0.0059698893
-0.013762656
0.0058730957
-0.014202726
0.0057785696
-0.01464958
0.0056861868
-0.015103489
0.0055958502
-0.015564611
0.0055075171
-0.016033015
0.0054211918
-0.016508734
0.0053369043
-0.016991803
0.0052546859
-0.017482295
0.0051745259
-0.017980339
0.0050963633
-0.018486103
0.0050200861
-0.018999741
0.0049455452
-0.019521346
0.0048725717
-0.020050905
0.0048009946
-0.020588371
0.0047306156
-0.021133782
0.0046612043
-0.021687094
0.004592506
-0.022248122
0.0045242519
-0.022816575
0.0044561484
-0.02339204
0.0043878861
-0.023973986
0.004319119
-0.024561737
0.0042494758
-0.025154464
0.0041785432
-0.025751156
0.004105871
-0.026350619
0.0040309752
-0.026951476
0.0039530064
-0.027551343
0.0038717337
-0.028149171
0.0037870299
-0.028743585
0.0036974191
-0.029330563
0.003602374
-0.02990708
0.0035014542
-0.030471834
0.0033944859
-0.031022645
0.003281972
-0.031559048
0.0031656428
-0.032083623
0.0030490821
-0.032604162
0.0029375791
-0.033134765
0.0028360897
-0.033692212
0.0027464418
-0.034287506
0.0026669633
-0.034920965
0.0025946502
-0.035586064
0.0025269816
-0.036275517
0.0024623964
-0.036984277
0.0024000654
-0.037709597
0.0023395908
-0.038450219
0.0022807287
-0.039205489
0.0022233577
-0.039975695
0.0021674465
-0.040761157
0.002112864
-0.041561602
0.0020595798
-0.04237782
0.0020075835
-0.043209996
0.0019567685
-0.044058064
0.0019071046
-0.044922887
0.0018586001
-0.045804735
0.0018111582
-0.046703558
0.0017647483
-0.047620257
0.0017193917
-0.048555107
0.0016749995
-0.049508016
0.0016315349
-0.050479936
0.0015890277
-0.051471191
0.0015474299
-0.052481629
0.0015066728
-0.05351172
0.0014667391
-0.054562204
0.001427662
-0.055633553
0.0013893964
-0.056725337
0.0013518498
-0.057838363
0.0013150399
-0.058973905
0.0012789961
-0.060131738
0.00124362
-0.061312027
0.0012088559
-0.062516051
0.0011747468
-0.063744483
0.0011412907
-0.064997168
0.001108408
-0.066274573
0.0010760828
-0.067577866
0.0010443424
-0.068907435
0.0010131599
-0.070263163
0.00098246228
-0.071645948
0.00095226583
-0.073056884
0.00092258584
-0.074495878
0.00089333908
-0.075963443
0.00086450727
-0.077460765
0.00083610343
-0.078988295
0.00080808563
-0.080546359
0.00078042048
-0.082135848
0.0007531229
-0.083757541
0.00072615876
-0.085411714
0.00069950496
-0.087099326
0.00067316102
-0.088821077
0.00064710779
-0.090577594
0.00062132604
-0.092369605
0.00059579564
-0.094197733
0.00057049631
-0.09606285
0.00054540988
-0.097965707
0.00052051572
-0.099907051
0.00049579007
-0.10188769
0.000471213
-0.10390841
0.00044676002
-0.10597009
0.00042241222
-0.10807353
0.00039814475
-0.11021957
0.00037393658
-0.11240907
0.00034976444
-0.11464289
0.00032560547
-0.11692191
0.00030143733
-0.11924701
0.00027723836
-0.12161918
0.00025298024
-0.1240393
0.00022863847
-0.12650843
0.00020418246
-0.12902744
0.00017958752
-0.13159753
0.0001548073
-0.1342194
0.00012982111
-0.13689462
0.00010456935
-0.13962343
7.9031479e-05
-0.14240825
5.3115201e-05
-0.14524825
2.6815997e-05
-0.14814787
-0.15110381
0.0072440143
-0.0087892965
-0.0073298843
0.0071534508
-0.0091669305
0.0070590945
-0.0095515513
0.0069618303
-0.0099412612
0.0068624787
-0.010335936
0.0067618131
-0.010735306
0.0066605545
-0.011139239
0.0065593429
-0.011547765
0.0064587217
-0.011961041
0.0063591297
-0.012379318
0.0062608975
-0.012802915
0.0061642468
-0.013232203
0.0060692977
-0.013667564
0.0059760839
-0.014109369
0.0058845831
-0.014557937
0.0057947481
-0.015013514
0.0057065397
-0.015476265
0.0056199471
-0.015946287
0.0055349891
-0.016423644
0.0054517011
-0.016908386
0.0053701169
-0.017400585
0.0052902417
-0.01790034
0.0052120369
-0.018407776
0.0051354217
-0.018923004
0.0050602766
-0.01944608
0.0049864595
-0.019976967
0.0049138188
-0.020515608
0.0048421691
-0.021062009
0.0047712915
-0.021616091
0.0047009417
-0.022177646
0.0046308549
-0.02274636
0.0045607423
-0.023321797
0.0044902832
-0.023903396
0.0044191321
-0.024490454
0.0043469001
-0.0250821
0.0042731583
-0.025677282
0.0041974384
-0.026274766
0.0041192292
-0.026873134
0.0040377625
-0.027469743
0.0039526974
-0.028063973
0.0038638393
-0.028654594
0.0037696475
-0.029236238
0.0036697961
-0.029807095
0.0035638785
-0.030365783
0.0034519128
-0.030910546
0.003334775
-0.031441777
0.0032148148
-0.03196353
0.0030963508
-0.032485567
0.0029849411
-0.033023226
0.00288481
-0.033591952
0.0027965205
-0.03419909
0.0027176666
-0.034841987
0.0026452217
-0.035513496
0.002576924
-0.036207098
0.0025114521
-0.036918686
0.0024481243
-0.037646153
0.0023866206
-0.038388602
0.0023267228
-0.039145482
0.0022683206
-0.039917187
0.002211392
-0.040704128
0.002155802
-0.041505915
0.0021015181
-0.042323444
0.0020485486
-0.043156938
0.00199677
-0.044006201
0.0019461507
-0.044872186
0.0018967117
-0.045755218
0.0018483485
-0.04665512
0.0018010255
-0.047572863
0.0017547753
-0.048508791
0.0017095053
-0.049462685
0.0016651692
-0.050435544
0.0016218064
-0.051427778
0.0015793718
-0.05243915
0.00153779
-0.053470099
0.0014970396
-0.054521421
0.0014571592
-0.055593645
0.0014181138
-0.05668627
0.0013797954
-0.05780003
0.001342224
-0.058936327
0.0013054375
-0.060094954
0.0012693361
-0.061275936
0.0012338534
-0.06248059
0.0011990354
-0.063709696
0.0011648843
-0.064963059
0.0011313242
-0.066241066
0.0010983224
-0.067544929
0.0010659171
-0.068875107
0.0010340883
-0.070231423
0.0010027533
-0.071614715
0.0009719208
-0.073026168
0.00094162201
-0.074465709
0.00091176838
-0.075933733
0.00088233188
-0.077431486
0.00085333333
-0.078959467
0.00082473052
-0.080517939
0.00079648775
-0.082107801
0.00076861811
-0.083729878
0.0007410916
-0.085384404
0.00071387976
-0.08707234
0.00068698624
-0.088794417
0.00066038876
-0.090551236
0.00063407082
-0.092343531
0.00060800803
-0.094171919
0.00058217953
-0.096037275
0.0005565732
-0.097940358
0.00053116207
-0.099881903
0.0005059249
-0.10186272
0.00048083615
-0.1038836
0.00045587954
-0.10594541
0.00043102855
-0.10804897
0.00040625973
-0.1101951
0.00038155108
-0.11238467
0.00035688093
-0.11461853
0.0003322261
-0.11689757
0.00030756197
-0.11922267
0.00028286766
-0.12159481
0.00025811378
-0.12401487
0.00023327505
-0.12648391
0.00020832242
-0.1290028
0.00018322046
-0.13157273
0.00015794133
-0.13419441
0.00013244604
-0.13686942
0.0001066895
-0.13959795
8.0633224e-05
-0.14238246
5.4188822e-05
-0.14522209
2.7358076e-05
-0.14812132
-0.15107673
0.0072312534
-0.0087163843
-0.0073039043
0.0071538057
-0.0090892598
0.0070721386
-0.009469697
0.0069869304
-0.0098558897
0.0068988574
-0.010247713
0.0068086177
-0.010644925
0.0067168952
-0.011047378
0.0066243188
-0.01145505
0.006531441
-0.011868022
0.0064387256
-0.012286459
0.0063465423
-0.012710587
0.0062551664
-0.01314068
0.0061647826
-0.013577035
0.0060754994
-0.014019942
0.0059873687
-0.014469665
0.0059004113
-0.014926418
0.0058146409
-0.015390358
0.0057300809
-0.015861594
0.0056467687
-0.0163402
0.0055647496
-0.016826238
0.005484064
-0.017319771
0.0054047288
-0.017820878
0.0053267251
-0.018329646
0.0052499954
-0.018846149
0.0051744484
-0.019370407
0.0050999655
-0.019902357
0.0050264117
-0.020441926
0.0049536144
-0.020989082
0.0048813672
-0.021543712
0.0048094383
-0.022105584
0.0047375629
-0.022674351
0.0046654565
-0.023249556
0.0045927958
-0.023830599
0.0045192244
-0.024416746
0.0044443444
-0.025007083
0.0043677075
-0.025600508
0.0042888088
-0.026195729
0.0042070111
-0.026791198
0.0041220091
-0.027384602
0.0040331663
-0.027974991
0.0039397404
-0.028561029
0.0038407236
-0.029137082
0.0037358496
-0.029702082
0.003624765
-0.030254559
0.0035077527
-0.030793396
0.003386167
-0.031320054
0.0032630869
-0.031840313
0.0031435068
-0.032365851
0.0030329321
-0.032912517
0.0029345059
-0.033493394
0.0028475615
-0.034112015
0.0027691889
-0.034763485
0.0026964906
-0.035440671
0.0026274994
-0.036137981
0.0025611145
-0.036852178
0.002496782
-0.0375817
0.0024342506
-0.038325954
0.0023733214
-0.03908444
0.0023138883
-0.039857645
0.0022559466
-0.040646082
0.0021993493
-0.041449218
0.0021440679
-0.042268066
0.0020901224
-0.043102901
0.0020373767
-0.043953366
0.0019857982
-0.044820522
0.0019354221
-0.04570476
0.0018861356
-0.046605754
0.0018378908
-0.047524544
0.0017907423
-0.048461573
0.0017445894
-0.049416467
0.0016993737
-0.05039027
0.0016551458
-0.051383497
0.0016118658
-0.052395823
0.0015694533
-0.053427645
0.0015278749
-0.054479806
0.0014871791
-0.055552919
0.0014473423
-0.056646409
0.0014082473
-0.057760917
0.0013699029
-0.058897973
0.0013323633
-0.060057413
0.0012955279
-0.061239109
0.0012593155
-0.062444395
0.001223777
-0.063674187
0.001188922
-0.064928244
0.0011546701
-0.066206864
0.0011209863
-0.067511307
0.0010879033
-0.068842098
0.001055416
-0.070199022
0.0010234322
-0.07158283
0.00099195438
-0.072994803
0.00096102477
-0.074434906
0.0009305526
-0.075903402
0.00090050116
-0.077401589
0.00087089682
-0.07893003
0.00084170121
-0.080488923
0.00081286694
-0.082079158
0.00078441427
-0.083701628
0.00075631589
-0.085356518
0.00072853631
-0.08704478
0.00070108216
-0.08876719
0.00067393082
-0.090524317
0.00064706453
-0.092316902
0.00062045992
-0.094145556
0.00059409532
-0.096011155
0.00056795529
-0.097914467
0.00054201855
-0.09985622
0.00051625746
-0.10183721
0.00049064974
-0.10385825
0.00046517593
-0.10592021
0.00043981081
-0.10802388
0.00041453229
-0.11017011
0.0003893155
-0.11235975
0.00036413783
-0.11459366
0.00033897515
-0.11687271
0.00031380749
-0.11919781
0.00028860656
-0.12156991
0.00026334884
-0.12398991
0.0002380038
-0.12645886
0.00021254394
-0.12897763
0.00018693573
-0.1315474
0.00016114258
-0.13416889
0.00013512935
-0.13684366
0.00010884645
-0.13957192
8.2256395e-05
-0.14235612
5.5287478e-05
-0.14519536
2.7903252e-05
-0.14809418
-0.15104907
0.0072167301
-0.0086560975
-0.0072767987
0.0071516563
-0.0090239776
0.0070819749
-0.0093998279
0.0070082188
-0.0097819591
0.006930964
-0.010170295
0.0068508417
-0.010564647
0.0067684868
-0.010964872
0.0066844985
-0.011370913
0.0065994181
-0.011782794
0.006513716
-0.012200609
0.0064277845
-0.012624508
0.0063419356
-0.013054686
0.0062564036
-0.01349136
0.0061713544
-0.013934752
0.0060869011
-0.014385074
0.006003121
-0.014842502
0.0059200744
-0.015307178
0.0058378182
-0.015779206
0.0057564111
-0.016258663
0.0056759109
-0.016745608
0.0055963662
-0.017240097
0.0055178061
-0.017742188
0.0054402279
-0.018251938
0.0053635952
-0.018769385
0.0052878371
-0.019294517
0.0052128567
-0.019827243
0.0051385334
-0.020367468
0.0050647068
-0.020915119
0.0049911839
-0.021470052
0.00491774
-0.022032001
0.0048441199
-0.02260059
0.004770033
-0.023175328
0.0046951563
-0.023755581
0.0046191252
-0.024340573
0.0045415281
-0.024929343
0.0044619061
-0.025520742
0.0043797367
-0.026113416
0.0042943189
-0.026705636
0.0042054013
-0.02729554
0.0041124195
-0.027881865
0.0040142814
-0.028462746
0.0039102713
-0.029032927
0.0038001665
-0.029591833
0.0036837836
-0.030138032
0.0035617584
-0.030671227
0.0034360544
-0.031194206
0.0033105487