/*--------------------------------*- C++ -*----------------------------------*\
| =========                 |                                                 |
| \\      /  F ield         | OpenFOAM: The Open Source CFD Toolbox           |
|  \\    /   O peration     | Version:  2406                                  |
|   \\  /    A nd           | Website:  www.openfoam.com                      |
|    \\/     M anipulation  |                                                 |
\*---------------------------------------------------------------------------*/
FoamFile
{
    version     2.0;
    format      ascii;
    arch        "LSB;label=32;scalar=64";
    class       volScalarField;
    location    "0.008";
    object      rho;
}
// * * * * * * * * * * * * * * * * * * * * * * * * * * * * * * * * * * * * * //

dimensions      [1 -3 0 0 0 0 0];

internalField   nonuniform List<scalar> 
86779
(
1.1984049
1.1977139
1.1974036
1.1970349
1.1966589
1.1963346
1.196063
1.1958363
1.195652
1.1955081
1.1954006
1.1953234
1.1952691
1.1952334
1.1952113
1.1952078
1.1952285
1.1952754
1.195349
1.1954447
1.195559
1.1956888
1.1958322
1.1959874
1.1961539
1.1963314
1.1965178
1.1967106
1.1969092
1.197113
1.1973215
1.1975337
1.1977488
1.1979658
1.1981839
1.1984017
1.1986181
1.1988341
1.1990367
1.1992309
1.1994221
1.1996276
1.1998135
1.1999744
1.2001197
1.2002443
1.2003441
1.2004148
1.2004538
1.2004632
1.200453
1.2004387
1.2004332
1.2004423
1.2004642
1.2004946
1.2005295
1.2005663
1.2006035
1.2006406
1.2006773
1.2007136
1.2007493
1.2007846
1.2008194
1.2008537
1.2008876
1.200921
1.200954
1.2009866
1.2010188
1.2010506
1.2010821
1.2011135
1.2011447
1.2011757
1.2012066
1.2012373
1.2012679
1.2012983
1.2013286
1.2013587
1.2013886
1.2014185
1.2014483
1.2014779
1.2015075
1.2015372
1.2015668
1.2015964
1.2016261
1.2016558
1.2016855
1.2017152
1.201745
1.2017748
1.2018047
1.2018347
1.2018647
1.2018948
1.2019249
1.2019552
1.2019855
1.2020158
1.2020461
1.2020763
1.2021064
1.2021363
1.202166
1.2021952
1.202224
1.2022523
1.2022799
1.2023067
1.2023327
1.2023576
1.2023815
1.202404
1.2024252
1.2024449
1.2024629
1.202479
1.2024934
1.2025051
1.2025151
1.2025213
1.2025258
1.1997328
1.1992532
1.1988046
1.1983122
1.1978708
1.1974988
1.1971861
1.1969262
1.1967134
1.1965429
1.196409
1.1963055
1.1962245
1.1961572
1.1961017
1.1960611
1.1960387
1.1960407
1.1960688
1.196121
1.1961957
1.1962921
1.1964053
1.1965323
1.1966715
1.1968217
1.1969816
1.1971488
1.1973222
1.1975013
1.1976852
1.1978729
1.1980637
1.1982567
1.1984509
1.1986453
1.1988386
1.1990311
1.1992181
1.1993865
1.1995551
1.1997474
1.1999154
1.2000601
1.2001911
1.2003026
1.2003905
1.2004506
1.2004808
1.2004849
1.200474
1.2004629
1.2004622
1.2004751
1.2004991
1.20053
1.2005643
1.2005999
1.2006358
1.2006715
1.2007068
1.2007417
1.2007761
1.2008102
1.2008438
1.200877
1.2009098
1.2009422
1.2009742
1.2010059
1.2010373
1.2010683
1.2010991
1.2011297
1.2011601
1.2011905
1.2012207
1.2012509
1.2012809
1.2013108
1.2013405
1.2013702
1.2013997
1.2014291
1.2014585
1.2014877
1.201517
1.2015463
1.2015757
1.201605
1.2016344
1.2016639
1.2016933
1.2017228
1.2017524
1.2017821
1.2018118
1.2018416
1.2018715
1.2019014
1.2019315
1.2019616
1.2019918
1.2020221
1.2020523
1.2020825
1.2021125
1.2021424
1.2021719
1.2022012
1.2022299
1.2022581
1.2022857
1.2023125
1.2023384
1.2023634
1.2023872
1.2024097
1.2024309
1.2024505
1.2024686
1.2024847
1.202499
1.2025107
1.2025207
1.2025269
1.2025314
1.2003455
1.1999936
1.1994978
1.1989622
1.1984926
1.1980969
1.1977625
1.197481
1.1972464
1.1970533
1.196896
1.1967687
1.1966653
1.1965798
1.1965103
1.196456
1.1964185
1.196403
1.1964116
1.1964448
1.196504
1.1965851
1.1966838
1.1967975
1.1969243
1.197063
1.197212
1.1973693
1.1975336
1.1977041
1.1978798
1.1980598
1.1982431
1.1984287
1.1986156
1.1988028
1.1989888
1.1991734
1.1993555
1.199512
1.1996741
1.1998601
1.2000175
1.2001528
1.200274
1.2003751
1.200452
1.200501
1.2005212
1.2005185
1.2005054
1.2004957
1.2004977
1.2005127
1.2005375
1.200568
1.2006012
1.2006354
1.2006697
1.2007039
1.2007377
1.2007712
1.2008043
1.2008371
1.2008694
1.2009015
1.2009332
1.2009645
1.2009956
1.2010263
1.2010567
1.2010869
1.2011168
1.2011467
1.2011764
1.201206
1.2012356
1.2012651
1.2012945
1.2013238
1.2013531
1.2013822
1.2014112
1.2014402
1.2014691
1.201498
1.2015269
1.2015559
1.2015849
1.2016139
1.201643
1.2016722
1.2017014
1.2017307
1.2017601
1.2017896
1.2018191
1.2018488
1.2018785
1.2019083
1.2019383
1.2019683
1.2019984
1.2020285
1.2020587
1.2020888
1.2021187
1.2021485
1.2021781
1.2022072
1.202236
1.2022641
1.2022917
1.2023184
1.2023443
1.2023692
1.202393
1.2024155
1.2024367
1.2024563
1.2024743
1.2024904
1.2025047
1.2025164
1.2025264
1.2025326
1.2025372
1.2007993
1.200502
1.2000158
1.1994778
1.1989991
1.1985885
1.1982348
1.1979312
1.1976729
1.1974555
1.1972741
1.1971239
1.197
1.1968984
1.1968167
1.1967538
1.1967103
1.1966884
1.1966896
1.196714
1.1967621
1.1968308
1.1969175
1.1970199
1.1971361
1.197265
1.1974051
1.1975542
1.1977111
1.1978748
1.1980442
1.1982184
1.1983963
1.1985768
1.1987589
1.1989414
1.1991227
1.1993026
1.1994808
1.1996296
1.1997894
1.1999698
1.2001187
1.2002469
1.2003596
1.2004509
1.200517
1.2005548
1.200565
1.2005556
1.2005404
1.2005317
1.2005358
1.2005522
1.2005772
1.200607
1.2006389
1.2006716
1.2007043
1.200737
1.2007693
1.2008013
1.200833
1.2008644
1.2008956
1.2009264
1.200957
1.2009873
1.2010173
1.201047
1.2010765
1.2011058
1.2011349
1.2011639
1.2011929
1.2012218
1.2012507
1.2012796
1.2013084
1.2013371
1.2013658
1.2013945
1.201423
1.2014515
1.20148
1.2015085
1.201537
1.2015656
1.2015943
1.201623
1.2016518
1.2016808
1.2017097
1.2017388
1.201768
1.2017972
1.2018266
1.2018561
1.2018857
1.2019154
1.2019452
1.2019751
1.2020051
1.2020351
1.2020652
1.2020952
1.2021251
1.2021549
1.2021843
1.2022134
1.2022421
1.2022703
1.2022977
1.2023245
1.2023503
1.2023752
1.202399
1.2024215
1.2024426
1.2024622
1.2024802
1.2024963
1.2025106
1.2025223
1.2025323
1.2025385
1.202543
1.2012308
1.2009528
1.2004819
1.1999552
1.1994782
1.1990618
1.198697
1.1983789
1.1981039
1.1978684
1.1976686
1.1975004
1.19736
1.197244
1.1971502
1.1970776
1.1970259
1.1969962
1.1969888
1.1970037
1.1970405
1.1970974
1.1971723
1.1972632
1.1973687
1.1974873
1.1976178
1.1977579
1.1979064
1.1980621
1.1982241
1.1983912
1.1985624
1.1987365
1.1989124
1.1990888
1.1992642
1.1994385
1.19961
1.1997508
1.1999083
1.2000813
1.200221
1.2003414
1.2004449
1.200526
1.2005809
1.2006073
1.200608
1.2005932
1.2005769
1.2005698
1.2005758
1.2005933
1.2006181
1.2006469
1.2006774
1.2007084
1.2007396
1.2007706
1.2008014
1.2008319
1.2008623
1.2008923
1.2009222
1.2009518
1.2009812
1.2010104
1.2010394
1.2010682
1.2010967
1.2011251
1.2011533
1.2011816
1.2012098
1.2012379
1.2012661
1.2012943
1.2013226
1.2013507
1.2013788
1.201407
1.201435
1.201463
1.2014911
1.2015192
1.2015473
1.2015756
1.2016039
1.2016323
1.2016608
1.2016895
1.2017182
1.201747
1.201776
1.2018051
1.2018342
1.2018636
1.201893
1.2019225
1.2019522
1.201982
1.2020119
1.2020419
1.2020718
1.2021018
1.2021316
1.2021613
1.2021907
1.2022198
1.2022484
1.2022765
1.202304
1.2023307
1.2023565
1.2023814
1.2024051
1.2024276
1.2024487
1.2024683
1.2024863
1.2025023
1.2025166
1.2025283
1.2025382
1.2025444
1.202549
1.2016313
1.2013497
1.2008894
1.2003795
1.1999115
1.1994963
1.1991276
1.1988016
1.1985161
1.1982682
1.1980549
1.1978729
1.1977193
1.1975912
1.1974867
1.1974045
1.1973442
1.1973058
1.1972895
1.1972948
1.1973213
1.1973674
1.1974315
1.197512
1.1976072
1.1977162
1.1978373
1.1979686
1.1981088
1.1982566
1.1984111
1.198571
1.1987352
1.1989027
1.199072
1.199242
1.1994111
1.1995798
1.1997423
1.1998748
1.2000308
1.2001948
1.2003246
1.2004363
1.2005298
1.2005998
1.2006429
1.2006579
1.2006501
1.2006313
1.2006149
1.2006098
1.2006177
1.2006358
1.2006602
1.2006878
1.2007167
1.2007461
1.2007756
1.200805
1.2008341
1.2008632
1.2008921
1.2009208
1.2009494
1.2009778
1.201006
1.2010341
1.201062
1.2010898
1.2011174
1.2011448
1.2011722
1.2011996
1.201227
1.2012544
1.2012819
1.2013095
1.201337
1.2013645
1.2013921
1.2014197
1.2014473
1.2014748
1.2015025
1.2015301
1.2015579
1.2015858
1.2016138
1.2016418
1.20167
1.2016984
1.2017269
1.2017555
1.2017842
1.2018131
1.2018421
1.2018712
1.2019005
1.2019299
1.2019595
1.2019891
1.2020189
1.2020488
1.2020787
1.2021085
1.2021383
1.2021679
1.2021973
1.2022263
1.2022549
1.2022829
1.2023103
1.202337
1.2023628
1.2023876
1.2024113
1.2024338
1.2024549
1.2024745
1.2024924
1.2025085
1.2025228
1.2025344
1.2025444
1.2025506
1.2025551
1.2019948
1.2016966
1.2012434
1.2007531
1.2002985
1.1998895
1.1995217
1.1991928
1.1989014
1.1986453
1.1984224
1.1982302
1.1980662
1.1979282
1.1978145
1.1977238
1.1976554
1.1976091
1.1975845
1.1975812
1.1975984
1.1976349
1.1976893
1.1977602
1.1978462
1.1979461
1.1980584
1.1981813
1.1983134
1.1984536
1.1986007
1.1987536
1.1989111
1.1990719
1.1992347
1.1993983
1.1995611
1.1997246
1.1998753
1.2000004
1.2001565
1.2003096
1.2004291
1.2005314
1.200614
1.2006723
1.2007031
1.2007071
1.2006919
1.2006703
1.2006549
1.2006519
1.2006614
1.2006798
1.2007035
1.2007297
1.200757
1.2007846
1.2008123
1.20084
1.2008676
1.2008952
1.2009226
1.2009499
1.2009772
1.2010043
1.2010313
1.2010583
1.2010851
1.2011118
1.2011385
1.201165
1.2011914
1.201218
1.2012446
1.2012713
1.201298
1.2013249
1.2013518
1.2013787
1.2014057
1.2014328
1.2014599
1.2014869
1.2015141
1.2015413
1.2015687
1.2015962
1.2016238
1.2016516
1.2016795
1.2017076
1.2017358
1.2017641
1.2017926
1.2018213
1.2018501
1.201879
1.2019082
1.2019374
1.2019668
1.2019964
1.2020261
1.2020558
1.2020856
1.2021154
1.2021451
1.2021747
1.202204
1.2022329
1.2022614
1.2022894
1.2023168
1.2023435
1.2023692
1.202394
1.2024177
1.2024401
1.2024612
1.2024808
1.2024987
1.2025148
1.202529
1.2025407
1.2025506
1.2025568
1.2025614
1.2023224
1.2020026
1.2015552
1.2010854
1.2006467
1.200247
1.1998838
1.1995558
1.1992622
1.1990017
1.1987726
1.1985732
1.1984014
1.1982557
1.1981344
1.1980364
1.197961
1.1979075
1.1978754
1.1978642
1.1978731
1.197901
1.1979467
1.1980088
1.1980862
1.1981776
1.1982816
1.1983964
1.1985208
1.1986535
1.1987935
1.1989394
1.1990901
1.1992443
1.1994006
1.1995575
1.1997141
1.1998724
1.2000076
1.2001292
1.2002853
1.200425
1.2005339
1.2006261
1.2006972
1.200743
1.2007614
1.2007551
1.2007337
1.2007109
1.2006971
1.2006963
1.2007069
1.2007253
1.2007479
1.2007725
1.200798
1.2008238
1.2008498
1.2008758
1.2009017
1.2009278
1.2009537
1.2009796
1.2010055
1.2010314
1.2010571
1.201083
1.2011087
1.2011343
1.20116
1.2011856
1.2012111
1.2012368
1.2012626
1.2012885
1.2013145
1.2013407
1.201367
1.2013932
1.2014196
1.2014462
1.2014727
1.2014993
1.201526
1.2015528
1.2015797
1.2016068
1.2016341
1.2016615
1.2016891
1.2017169
1.2017449
1.2017729
1.2018012
1.2018297
1.2018583
1.2018871
1.201916
1.2019451
1.2019744
1.2020038
1.2020334
1.2020631
1.2020928
1.2021225
1.2021521
1.2021816
1.2022108
1.2022397
1.2022682
1.2022961
1.2023235
1.2023501
1.2023758
1.2024006
1.2024242
1.2024466
1.2024677
1.2024872
1.2025052
1.2025212
1.2025355
1.2025471
1.202557
1.2025632
1.2025678
1.2026112
1.2022737
1.201833
1.2013833
1.2009613
1.200573
1.2002169
1.1998928
1.1996002
1.1993383
1.1991061
1.1989022
1.1987252
1.1985738
1.1984466
1.1983426
1.1982611
1.1982013
1.1981627
1.1981445
1.198146
1.1981662
1.1982039
1.198258
1.1983274
1.198411
1.1985072
1.1986143
1.1987312
1.1988567
1.1989897
1.1991287
1.1992726
1.19942
1.1995696
1.1997198
1.1998697
1.2000206
1.2001423
1.2002634
1.2004145
1.2005405
1.2006388
1.20072
1.2007789
1.2008116
1.2008176
1.200802
1.2007762
1.2007534
1.2007417
1.2007428
1.2007542
1.200772
1.2007933
1.2008163
1.20084
1.2008638
1.200888
1.2009123
1.2009366
1.200961
1.2009855
1.2010098
1.2010344
1.201059
1.2010835
1.2011082
1.2011328
1.2011573
1.201182
1.2012066
1.2012312
1.201256
1.201281
1.2013061
1.2013313
1.2013568
1.2013824
1.2014081
1.2014339
1.2014599
1.2014859
1.2015119
1.2015381
1.2015645
1.201591
1.2016177
1.2016446
1.2016717
1.201699
1.2017265
1.2017542
1.201782
1.20181
1.2018383
1.2018667
1.2018953
1.2019241
1.201953
1.2019822
1.2020115
1.2020409
1.2020705
1.2021001
1.2021297
1.2021592
1.2021886
1.2022178
1.2022466
1.2022751
1.202303
1.2023303
1.2023568
1.2023825
1.2024072
1.2024309
1.2024533
1.2024743
1.2024938
1.2025118
1.2025278
1.202542
1.2025536
1.2025635
1.2025697
1.2025743
1.2028589
1.2025118
1.2020825
1.2016522
1.2012464
1.2008704
1.2005234
1.2002054
1.1999163
1.1996558
1.199423
1.1992172
1.1990372
1.198882
1.1987505
1.198642
1.1985555
1.1984905
1.1984462
1.1984219
1.1984169
1.1984302
1.1984608
1.1985077
1.1985698
1.1986461
1.1987349
1.1988347
1.1989445
1.199063
1.199189
1.1993212
1.1994584
1.1995991
1.1997418
1.199885
1.2000281
1.20017
1.2002803
1.2004006
1.2005435
1.2006558
1.2007434
1.2008127
1.2008584
1.2008778
1.2008719
1.2008484
1.2008199
1.2007981
1.2007887
1.2007914
1.2008031
1.20082
1.2008398
1.2008609
1.2008827
1.2009046
1.2009269
1.2009496
1.2009721
1.2009949
1.2010179
1.2010407
1.2010639
1.2010872
1.2011104
1.2011339
1.2011573
1.2011808
1.2012045
1.2012281
1.2012518
1.2012757
1.2012998
1.2013241
1.2013485
1.2013733
1.2013983
1.2014232
1.2014484
1.2014738
1.2014993
1.2015248
1.2015506
1.2015765
1.2016026
1.2016289
1.2016554
1.2016822
1.2017091
1.2017363
1.2017637
1.2017913
1.2018191
1.2018471
1.2018753
1.2019037
1.2019323
1.2019611
1.2019901
1.2020193
1.2020486
1.202078
1.2021076
1.2021371
1.2021665
1.2021959
1.202225
1.2022537
1.2022821
1.20231
1.2023372
1.2023637
1.2023894
1.2024141
1.2024377
1.2024601
1.2024811
1.2025006
1.2025185
1.2025345
1.2025487
1.2025603
1.2025702
1.2025763
1.2025809
1.203066
1.2027176
1.2023055
1.2018942
1.2015046
1.2011417
1.2008054
1.2004954
1.200212
1.199955
1.199724
1.1995183
1.1993373
1.1991802
1.1990461
1.1989343
1.1988441
1.1987748
1.1987258
1.1986964
1.1986857
1.198693
1.1987173
1.1987577
1.1988131
1.1988826
1.1989645
1.1990575
1.1991604
1.1992721
1.1993914
1.1995169
1.1996473
1.1997812
1.1999169
1.2000531
1.2001893
1.2003205
1.2004203
1.20054
1.2006723
1.2007708
1.200847
1.2009035
1.2009354
1.2009412
1.2009244
1.2008948
1.2008652
1.2008452
1.2008381
1.200842
1.2008535
1.2008692
1.2008873
1.2009065
1.2009263
1.2009462
1.2009666
1.2009875
1.2010082
1.2010295
1.2010509
1.2010722
1.201094
1.2011159
1.2011378
1.2011601
1.2011824
1.2012048
1.2012274
1.20125
1.2012727
1.2012957
1.201319
1.2013425
1.2013661
1.2013901
1.2014144
1.2014387
1.2014633
1.2014881
1.201513
1.2015381
1.2015633
1.2015888
1.2016144
1.2016403
1.2016665
1.2016929
1.2017195
1.2017463
1.2017734
1.2018007
1.2018283
1.2018561
1.2018841
1.2019123
1.2019407
1.2019694
1.2019982
1.2020273
1.2020565
1.2020858
1.2021152
1.2021446
1.202174
1.2022033
1.2022323
1.202261
1.2022893
1.2023171
1.2023443
1.2023708
1.2023964
1.2024211
1.2024446
1.202467
1.202488
1.2025074
1.2025253
1.2025413
1.2025555
1.2025671
1.202577
1.2025831
1.2025877
1.2032367
1.202894
1.2025014
1.2021102
1.2017376
1.2013892
1.2010648
1.2007646
1.2004887
1.2002371
1.2000098
1.1998062
1.199626
1.1994686
1.1993333
1.1992196
1.1991269
1.1990544
1.1990017
1.198968
1.1989526
1.1989547
1.1989734
1.1990079
1.1990573
1.1991205
1.199196
1.1992825
1.1993789
1.1994841
1.1995967
1.1997155
1.1998392
1.1999662
1.2000949
1.200224
1.2003537
1.2004708
1.2005614
1.2006816
1.2008006
1.200885
1.200949
1.2009917
1.2010093
1.201002
1.2009757
1.2009419
1.2009126
1.200895
1.2008899
1.2008945
1.2009053
1.2009196
1.2009358
1.2009529
1.2009707
1.2009886
1.201007
1.2010262
1.2010451
1.2010647
1.2010845
1.2011043
1.2011247
1.2011452
1.2011658
1.2011868
1.201208
1.2012292
1.2012508
1.2012724
1.2012941
1.2013162
1.2013386
1.2013612
1.2013841
1.2014073
1.2014309
1.2014546
1.2014785
1.2015027
1.2015271
1.2015516
1.2015763
1.2016013
1.2016265
1.201652
1.2016777
1.2017038
1.20173
1.2017566
1.2017834
1.2018104
1.2018377
1.2018653
1.2018931
1.2019211
1.2019494
1.2019778
1.2020065
1.2020354
1.2020645
1.2020937
1.202123
1.2021524
1.2021817
1.2022108
1.2022398
1.2022684
1.2022967
1.2023244
1.2023516
1.202378
1.2024036
1.2024282
1.2024517
1.2024741
1.202495
1.2025145
1.2025323
1.2025483
1.2025625
1.2025741
1.2025839
1.2025901
1.2025947
1.2033769
1.2030438
1.2026724
1.2023022
1.2019479
1.201615
1.2013039
1.2010148
1.2007479
1.2005034
1.2002814
1.2000816
1.1999038
1.1997476
1.1996126
1.1994983
1.199404
1.1993295
1.1992739
1.1992369
1.1992175
1.1992152
1.1992291
1.1992584
1.1993022
1.1993597
1.1994293
1.1995097
1.1995998
1.1996986
1.1998048
1.199917
1.2000339
1.2001539
1.2002753
1.2003974
1.2005204
1.2006189
1.2007053
1.2008253
1.2009277
1.2009978
1.2010485
1.2010768
1.2010798
1.2010602
1.2010264
1.2009904
1.2009625
1.2009475
1.200944
1.2009487
1.2009584
1.2009709
1.2009851
1.2010001
1.2010159
1.2010316
1.2010481
1.2010655
1.2010826
1.2011005
1.2011188
1.201137
1.2011559
1.2011751
1.2011943
1.2012141
1.2012341
1.2012542
1.2012746
1.2012952
1.201316
1.2013371
1.2013585
1.2013804
1.2014024
1.2014249
1.2014478
1.2014708
1.201494
1.2015176
1.2015415
1.2015654
1.2015896
1.2016141
1.2016389
1.2016639
1.2016893
1.201715
1.2017409
1.2017671
1.2017936
1.2018204
1.2018474
1.2018747
1.2019023
1.2019301
1.2019582
1.2019865
1.202015
1.2020438
1.2020727
1.2021018
1.202131
1.2021603
1.2021895
1.2022186
1.2022474
1.202276
1.2023042
1.2023319
1.202359
1.2023854
1.2024109
1.2024355
1.202459
1.2024813
1.2025022
1.2025217
1.2025395
1.2025554
1.2025696
1.2025812
1.202591
1.2025972
1.2026017
1.2034921
1.2031717
1.202822
1.2024735
1.2021381
1.2018217
1.2015249
1.201248
1.2009914
1.2007553
1.20054
1.2003455
1.2001715
1.2000179
1.1998843
1.1997704
1.1996759
1.1996001
1.1995427
1.1995031
1.1994807
1.1994747
1.1994844
1.1995091
1.199548
1.1996002
1.1996642
1.1997389
1.1998231
1.1999157
1.2000155
1.2001212
1.2002312
1.2003441
1.200458
1.2005725
1.2006859
1.2007686
1.2008546
1.2009674
1.2010524
1.2011085
1.2011449
1.201158
1.2011468
1.2011164
1.2010773
1.2010409
1.2010152
1.2010026
1.2010002
1.2010044
1.2010127
1.2010232
1.2010353
1.2010481
1.2010618
1.2010754
1.2010899
1.2011056
1.2011208
1.201137
1.2011538
1.2011703
1.2011877
1.2012056
1.2012234
1.2012419
1.2012607
1.2012796
1.2012989
1.2013185
1.2013383
1.2013584
1.2013789
1.2014
1.2014212
1.2014428
1.201465
1.2014873
1.2015099
1.2015329
1.2015561
1.2015795
1.2016032
1.2016272
1.2016516
1.2016761
1.2017011
1.2017264
1.201752
1.2017778
1.2018041
1.2018305
1.2018573
1.2018844
1.2019117
1.2019393
1.2019672
1.2019953
1.2020237
1.2020523
1.2020812
1.2021101
1.2021392
1.2021684
1.2021975
1.2022265
1.2022553
1.2022838
1.2023119
1.2023395
1.2023666
1.2023929
1.2024184
1.2024429
1.2024664
1.2024887
1.2025096
1.202529
1.2025468
1.2025627
1.2025769
1.2025884
1.2025982
1.2026044
1.202609
1.203588
1.2032826
1.2029544
1.2026274
1.2023112
1.2020118
1.20173
1.2014662
1.2012209
1.2009944
1.200787
1.2005988
1.2004298
1.2002799
1.200149
1.2000367
1.1999427
1.1998667
1.1998083
1.199767
1.1997421
1.1997331
1.1997393
1.19976
1.1997945
1.1998419
1.1999008
1.19997
1.2000485
1.2001351
1.2002287
1.2003278
1.2004309
1.2005364
1.2006427
1.2007494
1.2008508
1.2009202
1.2010057
1.2011068
1.2011743
1.2012162
1.2012374
1.201235
1.2012104
1.2011714
1.2011293
1.201094
1.2010708
1.2010602
1.2010583
1.2010615
1.201068
1.2010764
1.2010863
1.2010969
1.2011086
1.20112
1.2011324
1.2011463
1.2011596
1.2011741
1.2011893
1.2012042
1.2012201
1.2012366
1.201253
1.2012702
1.2012879
1.2013055
1.2013237
1.2013423
1.2013611
1.2013802
1.2013998
1.2014199
1.2014403
1.2014611
1.2014826
1.2015042
1.2015261
1.2015485
1.2015711
1.201594
1.2016171
1.2016406
1.2016645
1.2016886
1.2017131
1.2017381
1.2017633
1.2017888
1.2018147
1.2018409
1.2018674
1.2018942
1.2019214
1.2019488
1.2019765
1.2020044
1.2020326
1.2020611
1.2020898
1.2021186
1.2021476
1.2021766
1.2022057
1.2022346
1.2022633
1.2022917
1.2023198
1.2023474
1.2023743
1.2024006
1.2024261
1.2024506
1.202474
1.2024962
1.2025171
1.2025365
1.2025543
1.2025702
1.2025843
1.2025958
1.2026056
1.2026118
1.2026163
1.20367
1.2033802
1.2030729
1.2027668
1.2024699
1.2021878
1.2019215
1.2016715
1.2014382
1.2012222
1.2010236
1.2008428
1.2006798
1.2005347
1.2004072
1.2002974
1.200205
1.2001296
1.200071
1.2000286
1.2000021
1.1999908
1.199994
1.2000113
1.2000418
1.2000848
1.2001389
1.200203
1.200276
1.2003568
1.2004441
1.2005366
1.2006327
1.2007307
1.2008293
1.2009282
1.2010141
1.201072
1.2011576
1.2012432
1.2012931
1.2013198
1.201325
1.2013075
1.2012712
1.2012261
1.2011832
1.20115
1.2011292
1.2011201
1.2011182
1.2011199
1.2011243
1.2011305
1.2011381
1.2011465
1.2011561
1.2011652
1.2011754
1.2011878
1.2011991
1.2012118
1.2012256
1.2012387
1.201253
1.2012683
1.2012832
1.201299
1.2013155
1.201332
1.201349
1.2013665
1.2013843
1.2014023
1.201421
1.2014403
1.2014598
1.2014798
1.2015005
1.2015215
1.2015426
1.2015644
1.2015865
1.2016087
1.2016313
1.2016543
1.2016778
1.2017014
1.2017255
1.2017501
1.2017749
1.2018001
1.2018257
1.2018516
1.2018778
1.2019043
1.2019312
1.2019584
1.2019859
1.2020137
1.2020417
1.2020701
1.2020986
1.2021273
1.2021562
1.2021851
1.202214
1.2022428
1.2022715
1.2022998
1.2023278
1.2023553
1.2023823
1.2024085
1.2024339
1.2024583
1.2024817
1.2025039
1.2025247
1.2025441
1.2025619
1.2025778
1.2025918
1.2026034
1.2026132
1.2026193
1.2026239
1.2037403
1.2034667
1.2031797
1.2028943
1.2026166
1.202352
1.2021016
1.2018658
1.2016452
1.2014403
1.2012513
1.2010787
1.2009225
1.2007829
1.2006599
1.2005534
1.2004632
1.2003892
1.2003311
1.2002884
1.2002608
1.2002477
1.2002486
1.2002629
1.2002899
1.2003289
1.2003786
1.2004377
1.2005054
1.2005804
1.2006615
1.2007473
1.2008361
1.2009264
1.2010171
1.2011081
1.201173
1.2012251
1.2013099
1.2013757
1.2014076
1.2014183
1.2014073
1.2013756
1.2013301
1.2012817
1.20124
1.201209
1.20119
1.2011821
1.2011796
1.2011795
1.2011815
1.2011852
1.2011908
1.2011968
1.2012044
1.2012111
1.2012191
1.2012299
1.2012392
1.2012501
1.2012624
1.2012737
1.2012865
1.2013004
1.2013139
1.2013283
1.2013436
1.2013589
1.2013747
1.2013912
1.2014079
1.201425
1.2014426
1.2014611
1.2014798
1.2014989
1.2015188
1.2015391
1.2015596
1.2015806
1.2016021
1.2016238
1.2016458
1.2016683
1.2016913
1.2017145
1.2017381
1.2017623
1.2017868
1.2018116
1.2018369
1.2018625
1.2018884
1.2019147
1.2019414
1.2019683
1.2019956
1.2020232
1.2020511
1.2020792
1.2021076
1.2021362
1.2021649
1.2021938
1.2022226
1.2022513
1.2022799
1.2023081
1.2023361
1.2023635
1.2023903
1.2024165
1.2024418
1.2024663
1.2024896
1.2025118
1.2025326
1.2025519
1.2025696
1.2025855
1.2025996
1.2026111
1.2026209
1.202627
1.2026315
1.2038003
1.2035439
1.2032772
1.2030122
1.2027537
1.2025067
1.2022724
1.2020512
1.2018437
1.2016503
1.2014715
1.2013077
1.201159
1.2010257
1.2009078
1.2008052
1.200718
1.200646
1.200589
1.2005466
1.2005185
1.2005042
1.2005032
1.200515
1.2005389
1.2005742
1.2006196
1.2006741
1.2007365
1.2008058
1.2008806
1.2009596
1.2010409
1.2011229
1.2012048
1.2012846
1.201332
1.2013825
1.2014575
1.2015022
1.2015169
1.2015109
1.201484
1.2014402
1.2013884
1.2013394
1.2012999
1.2012706
1.201253
1.2012461
1.2012425
1.2012401
1.2012394
1.2012408
1.2012441
1.2012478
1.2012534
1.2012575
1.2012634
1.2012727
1.2012799
1.201289
1.2013
1.2013094
1.2013205
1.2013332
1.2013451
1.2013581
1.2013723
1.2013864
1.2014009
1.2014163
1.2014321
1.2014481
1.2014647
1.2014823
1.2015001
1.2015183
1.2015375
1.2015571
1.2015769
1.2015972
1.2016181
1.2016393
1.2016607
1.2016826
1.2017051
1.2017279
1.201751
1.2017748
1.2017989
1.2018234
1.2018483
1.2018736
1.2018993
1.2019253
1.2019517
1.2019784
1.2020055
1.2020329
1.2020606
1.2020886
1.2021168
1.2021453
1.2021739
1.2022026
1.2022313
1.2022599
1.2022884
1.2023166
1.2023444
1.2023718
1.2023986
1.2024247
1.20245
1.2024744
1.2024977
1.2025198
1.2025406
1.2025599
1.2025776
1.2025934
1.2026074
1.202619
1.2026287
1.2026348
1.2026394
1.2038533
1.2036148
1.2033681
1.2031232
1.2028837
1.2026542
1.202436
1.2022296
1.2020354
1.201854
1.2016858
1.2015312
1.2013906
1.201264
1.2011517
1.2010537
1.20097
1.2009006
1.2008452
1.2008036
1.2007755
1.2007604
1.200758
1.2007676
1.2007887
1.2008206
1.200862
1.2009119
1.2009691
1.2010327
1.2011011
1.201173
1.2012464
1.2013199
1.2013923
1.2014581
1.2014911
1.2015392
1.2015988
1.2016224
1.2016198
1.2015968
1.2015554
1.2015026
1.2014477
1.2013998
1.2013622
1.2013346
1.2013193
1.2013121
1.2013063
1.2013011
1.2012982
1.2012973
1.2012979
1.2012994
1.2013028
1.2013045
1.2013087
1.2013161
1.201321
1.2013286
1.2013381
1.2013455
1.2013551
1.2013665
1.2013769
1.2013884
1.2014014
1.2014143
1.2014276
1.2014419
1.2014567
1.2014716
1.2014872
1.2015039
1.2015209
1.2015382
1.2015566
1.2015755
1.2015945
1.2016141
1.2016344
1.201655
1.2016758
1.2016973
1.2017192
1.2017415
1.2017642
1.2017876
1.2018113
1.2018354
1.20186
1.201885
1.2019104
1.2019361
1.2019623
1.2019888
1.2020156
1.2020428
1.2020703
1.2020982
1.2021263
1.2021546
1.2021831
1.2022117
1.2022403
1.2022688
1.2022972
1.2023253
1.202353
1.2023803
1.202407
1.2024331
1.2024583
1.2024826
1.2025059
1.202528
1.2025487
1.202568
1.2025857
1.2026015
1.2026155
1.202627
1.2026367
1.2026428
1.2026474
1.2039033
1.2036825
1.2034552
1.2032299
1.2030091
1.202797
1.2025948
1.2024031
1.2022224
1.202053
1.2018957
1.2017506
1.2016183
1.2014989
1.2013926
1.2012996
1.2012199
1.2011535
1.2011002
1.2010598
1.2010321
1.2010167
1.2010131
1.2010209
1.2010394
1.2010681
1.2011056
1.201151
1.201203
1.2012607
1.2013225
1.201387
1.2014522
1.2015168
1.2015793
1.2016269
1.201648
1.2016933
1.2017328
1.2017354
1.2017153
1.2016759
1.2016227
1.2015643
1.2015089
1.2014622
1.2014255
1.2014036
1.2013901
1.2013788
1.2013699
1.2013628
1.2013577
1.2013543
1.2013524
1.2013516
1.2013521
1.2013526
1.2013554
1.2013597
1.2013626
1.2013689
1.2013767
1.2013822
1.2013902
1.2014004
1.2014093
1.2014191
1.201431
1.2014428
1.2014547
1.2014679
1.2014817
1.2014956
1.2015102
1.2015259
1.2015421
1.2015584
1.201576
1.2015942
1.2016125
1.2016314
1.2016511
1.2016711
1.2016913
1.2017122
1.2017337
1.2017555
1.2017777
1.2018006
1.201824
1.2018478
1.201872
1.2018966
1.2019217
1.2019471
1.2019731
1.2019993
1.202026
1.202053
1.2020803
1.202108
1.2021359
1.2021641
1.2021924
1.2022209
1.2022494
1.2022778
1.2023061
1.2023341
1.2023618
1.202389
1.2024157
1.2024416
1.2024668
1.2024911
1.2025143
1.2025363
1.202557
1.2025763
1.2025939
1.2026097
1.2026237
1.2026352
1.2026449
1.202651
1.2026555
1.2039537
1.2037496
1.2035409
1.2033347
1.2031322
1.2029372
1.2027509
1.2025738
1.2024064
1.2022492
1.2021027
1.2019673
1.2018435
1.2017315
1.2016316
1.2015438
1.2014684
1.2014053
1.2013544
1.2013156
1.2012886
1.2012731
1.2012687
1.2012748
1.201291
1.2013165
1.2013502
1.201391
1.2014378
1.2014894
1.2015443
1.2016009
1.2016573
1.2017128
1.2017644
1.2017874
1.2018033
1.2018434
1.2018577
1.2018401
1.2018027
1.2017489
1.2016874
1.2016269
1.2015717
1.201526
1.2014965
1.2014772
1.2014594
1.2014456
1.2014345
1.2014252
1.2014177
1.2014118
1.2014074
1.2014043
1.2014025
1.2014013
1.2014018
1.2014036
1.2014057
1.2014101
1.2014152
1.2014194
1.201426
1.2014347
1.2014421
1.2014503
1.2014611
1.2014719
1.2014824
1.2014943
1.2015073
1.20152
1.2015335
1.2015482
1.2015637
1.2015791
1.2015958
1.2016134
1.2016309
1.2016491
1.2016681
1.2016875
1.2017071
1.2017274
1.2017484
1.2017698
1.2017915
1.201814
1.201837
1.2018604
1.2018842
1.2019086
1.2019333
1.2019584
1.2019841
1.2020102
1.2020366
1.2020634
1.2020905
1.202118
1.2021458
1.2021738
1.202202
1.2022303
1.2022587
1.202287
1.2023152
1.2023431
1.2023707
1.2023979
1.2024245
1.2024504
1.2024755
1.2024997
1.2025229
1.2025448
1.2025655
1.2025847
1.2026023
1.2026181
1.202632
1.2026435
1.2026532
1.2026593
1.2026638
1.2040077
1.2038177
1.203627
1.2034397
1.2032553
1.2030772
1.2029066
1.2027438
1.2025895
1.2024442
1.2023085
1.2021827
1.2020674
1.2019629
1.2018694
1.2017872
1.2017162
1.2016567
1.2016085
1.2015715
1.2015454
1.20153
1.2015249
1.2015295
1.2015434
1.2015658
1.2015956
1.2016317
1.2016729
1.201718
1.2017656
1.2018137
1.2018608
1.2019056
1.2019419
1.2019451
1.2019584
1.2019824
1.201972
1.2019358
1.2018826
1.2018173
1.2017512
1.2016907
1.2016358
1.2015984
1.2015725
1.2015488
1.2015293
1.2015134
1.2014999
1.2014882
1.2014782
1.2014699
1.2014631
1.2014576
1.2014535
1.2014504
1.2014488
1.2014485
1.201449
1.2014512
1.2014543
1.2014576
1.2014628
1.2014693
1.2014752
1.2014822
1.2014917
1.2015015
1.2015104
1.2015211
1.2015333
1.2015449
1.2015573
1.201571
1.2015857
1.2016002
1.201616
1.2016329
1.2016497
1.2016671
1.2016855
1.2017043
1.2017233
1.201743
1.2017635
1.2017844
1.2018056
1.2018276
1.2018503
1.2018732
1.2018967
1.2019207
1.2019452
1.20197
1.2019954
1.2020212
1.2020474
1.202074
1.2021009
1.2021282
1.2021558
1.2021837
1.2022118
1.20224
1.2022683
1.2022965
1.2023245
1.2023524
1.2023799
1.2024069
1.2024334
1.2024593
1.2024843
1.2025085
1.2025316
1.2025535
1.2025742
1.2025933
1.2026109
1.2026267
1.2026406
1.2026521
1.2026617
1.2026678
1.2026723
1.2040601
1.2038861
1.203714
1.2035464
1.2033806
1.2032194
1.203064
1.2029151
1.2027735
1.2026398
1.2025145
1.2023982
1.2022913
1.2021942
1.2021072
1.2020304
1.2019641
1.2019082
1.2018628
1.2018277
1.2018027
1.2017875
1.2017817
1.2017849
1.2017964
1.2018156
1.2018413
1.2018724
1.2019077
1.201946
1.2019855
1.2020245
1.2020615
1.2020949
1.2021106
1.2020984
1.2021075
1.2021088
1.2020754
1.2020225
1.2019561
1.2018823
1.2018149
1.2017558
1.2017092
1.2016764
1.2016464
1.2016212
1.2016
1.2015818
1.2015658
1.2015516
1.2015392
1.2015284
1.2015192
1.2015114
1.2015051
1.2015
1.2014963
1.201494
1.2014928
1.201493
1.2014942
1.2014962
1.2014996
1.2015042
1.201509
1.2015151
1.2015228
1.2015312
1.201539
1.2015486
1.2015596
1.2015703
1.2015816
1.2015942
1.2016082
1.2016216
1.2016365
1.2016527
1.2016689
1.2016855
1.2017032
1.2017214
1.2017398
1.2017589
1.2017789
1.2017993
1.20182
1.2018416
1.2018638
1.2018864
1.2019094
1.2019332
1.2019573
1.2019818
1.202007
1.2020325
1.2020584
1.2020848
1.2021116
1.2021387
1.2021661
1.2021938
1.2022218
1.2022499
1.202278
1.2023061
1.2023341
1.2023618
1.2023892
1.2024162
1.2024426
1.2024684
1.2024934
1.2025174
1.2025405
1.2025624
1.202583
1.2026021
1.2026197
1.2026354
1.2026493
1.2026607
1.2026703
1.2026764
1.2026809
1.2041222
1.2039692
1.2038101
1.20366
1.2035121
1.203367
1.203226
1.2030902
1.2029605
1.2028377
1.2027224
1.2026151
1.2025163
1.2024264
1.2023457
1.2022744
1.2022126
1.2021604
1.2021178
1.2020846
1.2020607
1.2020457
1.2020392
1.2020408
1.2020498