/*--------------------------------*- C++ -*----------------------------------*\
| =========                 |                                                 |
| \\      /  F ield         | OpenFOAM: The Open Source CFD Toolbox           |
|  \\    /   O peration     | Version:  2406                                  |
|   \\  /    A nd           | Website:  www.openfoam.com                      |
|    \\/     M anipulation  |                                                 |
\*---------------------------------------------------------------------------*/
FoamFile
{
    version     2.0;
    format      ascii;
    arch        "LSB;label=32;scalar=64";
    class       surfaceScalarField;
    location    "0.009";
    object      phi;
}
// * * * * * * * * * * * * * * * * * * * * * * * * * * * * * * * * * * * * * //

dimensions      [1 0 -1 0 0 0 0];

oriented        oriented;

internalField   nonuniform List<scalar> 
184887
(
0.0079461664
-0.0098438665
0.01012892
-0.0082311622
0.0076858193
-0.010236504
0.01049691
0.0074313249
-0.010616261
0.010870815
0.0071799236
-0.010989719
0.01124118
0.0069322821
-0.011360034
0.011607734
0.0066894993
-0.011727321
0.011970162
0.0064528683
-0.012091001
0.01232769
0.0062227378
-0.012451281
0.012681468
0.0059998376
-0.012808328
0.013031285
0.0057846573
-0.013162469
0.013377705
0.0055779798
-0.01351422
0.013720952
0.0053798298
-0.013863447
0.014061652
0.0051897362
-0.014211586
0.014401734
0.0050080641
-0.014559034
0.014740759
0.0048348429
-0.014906129
0.015079402
0.0046698097
-0.015253555
0.015418639
0.0045129739
-0.015602764
0.01575965
0.0043640513
-0.015953817
0.016102789
0.0042227411
-0.016307278
0.016448635
0.0040887848
-0.016664013
0.016798014
0.0039619042
-0.017024748
0.017151672
0.0038418182
-0.017390101
0.017510227
0.0037282341
-0.017760677
0.017874299
0.0036208546
-0.018137085
0.018244499
0.0035193836
-0.018519908
0.018621411
0.0034235267
-0.018909707
0.019005593
0.0033329934
-0.01930702
0.01939758
0.0032475096
-0.019712379
0.019797887
0.0031667946
-0.020126183
0.020206919
0.003090571
-0.020548932
0.020625177
0.0030186017
-0.02098123
0.021053219
0.0029507243
-0.021423317
0.02149121
0.0028866795
-0.021875639
0.0219397
0.0028261484
-0.022338807
0.022399355
0.0027690119
-0.022813234
0.022870387
0.0027150854
-0.023299466
0.023353409
0.0026641384
-0.023798146
0.023849108
0.0026159392
-0.02430984
0.024358052
0.0025702888
-0.024834908
0.024880569
0.0025270159
-0.025373694
0.025416978
0.0024859798
-0.025926488
0.025967534
0.0024470438
-0.026493619
0.026532565
0.0024100683
-0.027075473
0.027112458
0.0023749198
-0.027672475
0.027707633
0.002341467
-0.028285088
0.02831855
0.0023096011
-0.028913811
0.028945686
0.0022792214
-0.029558912
0.0295893
0.0022502234
-0.030220571
0.030249577
0.0022225159
-0.03089903
0.030926745
0.0021960199
-0.031594577
0.03162108
0.0021706603
-0.032307508
0.032332874
0.0021463633
-0.033038199
0.033062502
0.0021230576
-0.033787011
0.033810323
0.0021006755
-0.034554295
0.034576684
0.002079156
-0.035340394
0.035361921
0.0020584425
-0.03614563
0.036166351
0.0020384774
-0.036970296
0.036990268
0.0020192119
-0.037814752
0.037834025
0.0020005887
-0.038679378
0.038698009
0.0019825573
-0.039564533
0.039582573
0.0019650669
-0.040470556
0.040488056
0.0019480668
-0.041397773
0.041414784
0.0019315052
-0.04234649
0.042363064
0.0019153325
-0.043316998
0.043333185
0.0018994939
-0.04430956
0.044325415
0.0018839356
-0.045324415
0.045339992
0.0018685965
-0.046361761
0.046377121
0.001853415
-0.047421761
0.047436965
0.00183832
-0.048504515
0.048519636
0.0018232342
-0.049610064
0.049625179
0.0018080705
-0.050738362
0.050753558
0.0017927275
-0.051889255
0.051904635
0.0017770916
-0.053062469
0.053078145
0.0017610271
-0.054257554
0.054273664
0.0017443734
-0.055473857
0.055490561
0.0017269355
-0.056710453
0.056727947
0.001708481
-0.057966059
0.057984575
0.0016887154
-0.059238954
0.059258787
0.0016672829
-0.060526756
0.060548263
0.0016437043
-0.061826372
0.061850033
0.0016173969
-0.063133631
0.063160025
0.0015876111
-0.064441751
0.064471631
0.0015532199
-0.065743337
0.06577784
0.0015126112
-0.067026281
0.067067001
0.0014632655
-0.068270805
0.068320261
0.0014015125
-0.069446928
0.069508784
0.0013184241
-0.070495288
0.070578461
0.0012113469
-0.071334787
0.071441742
0.0011223327
-0.072118391
0.072207298
0.0010713483
-0.073290081
0.07334104
0.0010325923
-0.074664304
0.074703073
0.00099562076
-0.076096761
0.076133759
0.00095948712
-0.077560216
0.077596382
0.0009240767
-0.079054252
0.079089702
0.00088939305
-0.080577744
0.080612473
0.00085537067
-0.082131734
0.082165808
0.00082204183
-0.083717173
0.083750561
0.00078938815
-0.085334069
0.085366791
0.0007573303
-0.08698345
0.087015586
0.00072587644
-0.088666347
0.08869789
0.00069500357
-0.090382912
0.090413885
0.00066464239
-0.092134178
0.092164651
0.00063479611
-0.093921125
0.093951097
0.00060545137
-0.095744079
0.095773564
0.00057654954
-0.097604014
0.097633072
0.00054808387
-0.09950192
0.099530556
0.00052004843
-0.10143833
0.10146655
0.00049239441
-0.10341411
0.10344197
0.0004651054
-0.10543027
0.10545778
0.00043816707
-0.10748755
0.10751471
0.00041154092
-0.10958688
0.10961375
0.00038519776
-0.11172933
0.11175593
0.00035911685
-0.11391576
0.11394212
0.00033326442
-0.11614721
0.11617335
0.00030760421
-0.11842474
0.1184507
0.00028210636
-0.12074944
0.12077526
0.00025673688
-0.12312238
0.12314809
0.00023145607
-0.12554475
0.12557039
0.00020622641
-0.12801771
0.12804332
0.00018100719
-0.13054258
0.1305682
0.00015574494
-0.1331204
0.13314609
0.00013039639
-0.13575299
0.13577879
0.0001048914
-0.13844091
0.13846689
7.9183842e-05
-0.14118692
0.14121312
5.3183203e-05
-0.14399065
0.14401716
2.682581e-05
-0.14685654
0.14688343
-0.14978246
0.14980982
0.0078389072
-0.0096071274
-0.0080755865
0.007599934
-0.0099974706
0.0073637796
-0.010380047
0.0071313104
-0.01075719
0.0069024167
-0.011131081
0.0066773205
-0.011502166
0.0064566985
-0.01187032
0.0062411129
-0.012235637
0.0060311584
-0.012598317
0.0058273602
-0.012958614
0.0056300548
-0.013316859
0.0054398794
-0.013673216
0.0052567482
-0.0140284
0.0050807911
-0.014383023
0.0049123946
-0.01473768
0.0047515332
-0.01509264
0.0045977239
-0.015448902
0.0044509739
-0.015807016
0.0043112666
-0.016167521
0.0041784122
-0.01653111
0.0040521929
-0.016898483
0.0039323851
-0.01727025
0.0038187531
-0.017647004
0.0037110506
-0.018029344
0.0036090266
-0.018417848
0.0035124249
-0.018813071
0.0034209884
-0.019215552
0.0033344505
-0.019625812
0.0032526244
-0.02004433
0.0031752753
-0.020471556
0.0031020779
-0.020908007
0.0030328688
-0.021354084
0.0029674897
-0.021810236
0.0029056914
-0.022276985
0.0028473105
-0.022754828
0.0027921685
-0.023244298
0.0027400397
-0.023745992
0.0026906813
-0.024260458
0.0026438928
-0.024788097
0.0025995002
-0.02532928
0.0025573608
-0.025884326
0.0025173443
-0.026453581
0.002479319
-0.027037426
0.0024431537
-0.027636288
0.0024087184
-0.028250631
0.0023758781
-0.028880949
0.00234452
-0.029527532
0.0023145534
-0.030190583
0.0022858902
-0.030870345
0.0022584535
-0.031567119
0.0022321765
-0.032281211
0.0022069846
-0.033012987
0.0021828046
-0.033762812
0.0021595697
-0.034531041
0.0021372122
-0.035318017
0.0021156773
-0.036124075
0.0020949109
-0.036949511
0.0020748608
-0.037794684
0.0020554724
-0.038659971
0.0020366914
-0.039545733
0.0020184632
-0.040452309
0.0020007374
-0.041380027
0.0019834599
-0.042329192
0.0019665783
-0.043300095
0.0019500366
-0.044292996
0.0019337775
-0.045308132
0.0019177402
-0.046345698
0.0019018569
-0.04740585
0.0018860574
-0.048488687
0.0018702595
-0.049594235
0.0018543726
-0.050722441
0.0018382918
-0.051873138
0.0018218979
-0.053046035
0.0018050495
-0.054240663
0.0017875782
-0.05545634
0.001769283
-0.056692108
0.001749918
-0.057946639
0.0017291766
-0.059218152
0.0017066827
-0.060504197
0.0016819458
-0.061801561
0.0016543037
-0.063105912
0.0016229992
-0.06441036
0.0015868835
-0.065707118
0.0015441379
-0.06698343
0.001492069
-0.068218629
0.0014266343
-0.069381382
0.0013382754
-0.070406843
0.001226867
-0.071223491
0.0011403904
-0.072032004
0.0010916197
-0.07324133
0.0010523954
-0.074625064
0.0010147124
-0.07605905
0.00097788043
-0.077523349
0.00094179537
-0.079018126
0.00090646043
-0.080542362
0.00087179802
-0.082097018
0.00083783862
-0.083683152
0.00080456817
-0.085300727
0.00077190222
-0.086950703
0.00073984859
-0.088634202
0.00070838957
-0.09035135
0.00067745001
-0.092103122
0.00064703434
-0.093890579
0.00061713189
-0.095714032
0.00058768105
-0.097574403
0.00055867201
-0.099472736
0.00053010163
-0.10140957
0.00050192189
-0.10338573
0.00047411038
-0.10540224
0.00044665526
-0.10745986
0.00041952051
-0.10955949
0.00039267141
-0.11170222
0.00036608973
-0.1138889
0.00033973844
-0.11612057
0.00031358385
-0.11839828
0.00028759204
-0.12072313
0.00026173075
-0.12309618
0.0002359608
-0.12551862
0.0002102421
-0.12799161
0.00018452708
-0.13051645
0.00015878205
-0.13309422
0.00013293552
-0.13572669
0.00010693227
-0.13841443
8.0719954e-05
-0.14116021
5.4210599e-05
-0.14396362
2.7344537e-05
-0.14682914
-0.14975456
0.0076900173
-0.009405094
-0.0078919884
0.0074806665
-0.0097880568
0.0072702105
-0.010169528
0.0070604725
-0.01054739
0.0068522087
-0.010922755
0.0066460052
-0.011295901
0.0064425511
-0.011666806
0.0062425067
-0.012035533
0.0060464783
-0.012402229
0.005855014
-0.012767091
0.0056685824
-0.013130369
0.0054877267
-0.013492302
0.0053127345
-0.013853351
0.0051438306
-0.014214063
0.0049811524
-0.014574946
0.0048249518
-0.014936384
0.0046751204
-0.015299017
0.0045316161
-0.015663459
0.004394422
-0.016030275
0.0042634542
-0.016400094
0.0041385896
-0.016773572
0.0040196806
-0.017151297
0.0039065552
-0.017533838
0.0037990255
-0.017921776
0.003696888
-0.018315674
0.0035999336
-0.018716084
0.0035079469
-0.019123535
0.0034207079
-0.019538545
0.0033380137
-0.01996161
0.0032596663
-0.020393183
0.0031854274
-0.020833744
0.0031151225
-0.021283756
0.0030485855
-0.021743677
0.0029856234
-0.022214
0.0029260638
-0.022695245
0.0028697293
-0.02318794
0.0028164158
-0.023692656
0.0027658909
-0.024209912
0.0027179607
-0.024740146
0.0026724486
-0.025283747
0.0026292104
-0.025841068
0.0025881135
-0.026412464
0.0025490354
-0.026998328
0.0025118458
-0.027599078
0.0024764096
-0.028215174
0.0024425838
-0.028847103
0.0024102536
-0.029495182
0.0023793223
-0.030159632
0.002349708
-0.030840712
0.002321338
-0.031538731
0.0022941479
-0.032254003
0.0022680623
-0.032986884
0.0022430097
-0.033737742
0.0022189207
-0.034506935
0.0021957329
-0.035294812
0.0021733823
-0.036101708
0.0021518226
-0.036927935
0.0021310001
-0.037773845
0.0021108588
-0.038639813
0.0020913402
-0.039526197
0.0020723912
-0.040433342
0.0020539563
-0.041361573
0.00203598
-0.042311195
0.0020184085
-0.043282501
0.0020011828
-0.044275746
0.0019842435
-0.045291167
0.0019675276
-0.046328954
0.0019509653
-0.047389258
0.0019344808
-0.048472169
0.0019179903
-0.049577709
0.0019013985
-0.050705811
0.0018845973
-0.051856295
0.0018674594
-0.053028852
0.0018498391
-0.054222993
0.0018315606
-0.055438008
0.0018124117
-0.056672901
0.0017921353
-0.0579263
0.0017704096
-0.059196359
0.0017468389
-0.060480554
0.0017209087
-0.061775551
0.0016918947
-0.063076816
0.0016590205
-0.064377395
0.0016210769
-0.065669068
0.0015760558
-0.066938302
0.0015210806
-0.068163545
0.0014515792
-0.069311761
0.0013576785
-0.070312857
0.0012432028
-0.071109132
0.0011605427
-0.071949419
0.001113492
-0.073194293
0.0010735965
-0.074585149
0.0010351319
-0.076020557
0.00099754554
-0.077485727
0.00096073151
-0.07898127
0.00092468909
-0.080506271
0.0008893338
-0.082061607
0.00085468817
-0.083648441
0.00082074785
-0.085266712
0.00078742441
-0.086917295
0.00075472001
-0.088601402
0.0007226265
-0.090319149
0.00069106482
-0.09207144
0.000660034
-0.093859414
0.00062952903
-0.095683378
0.00059948654
-0.097544196
0.0005698929
-0.099442962
0.00054074621
-0.10138022
0.00051200256
-0.10335677
0.00048363093
-0.10537365
0.00045562484
-0.10743161
0.00042794508
-0.10953156
0.00040055687
-0.11167456
0.00037344029
-0.1138615
0.00034656092
-0.11609339
0.00031988072
-0.11837129
0.00029336719
-0.12069628
0.0002669878
-0.12306946
0.00024069894
-0.12549197
0.00021446404
-0.12796498
0.0001882394
-0.13048981
0.0001619681
-0.13306751
0.00013560598
-0.13569986
0.00010908059
-0.13838742
8.2340577e-05
-0.14113296
5.5306582e-05
-0.14393605
2.7889172e-05
-0.14680118
-0.14972611
0.0075277639
-0.0092315799
-0.0077012127
0.0073476732
-0.0096078998
0.0071633856
-0.0099851738
0.0069770485
-0.010360987
0.0067899201
-0.010735561
0.0066029417
-0.011108858
0.0064169643
-0.011480765
0.0062327548
-0.01185126
0.0060510012
-0.012220413
0.0058723257
-0.012588354
0.0056972862
-0.012955269
0.0055264276
-0.013321383
0.0053601809
-0.013687044
0.0051988578
-0.01405268
0.0050426942
-0.014418724
0.0048919396
-0.014785572
0.0047467063
-0.015153727
0.004607044
-0.015523742
0.004472974
-0.015896153
0.0043444854
-0.016271555
0.0042215346
-0.016650574
0.0041040453
-0.017033763
0.0039919106
-0.017421661
0.0038849979
-0.017814824
0.0037831578
-0.018213798
0.0036862267
-0.018619119
0.0035940324
-0.01903131
0.0035063938
-0.019450878
0.0034231294
-0.019878319
0.0033440645
-0.020314093
0.0032690207
-0.020758676
0.0031978266
-0.021212539
0.003130325
-0.021676153
0.0030663555
-0.022150009
0.0030057508
-0.022634618
0.0029483418
-0.023130509
0.0028939349
-0.023638227
0.0028423259
-0.024158281
0.0027933237
-0.024691122
0.0027467559
-0.025237158
0.0027024722
-0.025796763
0.0026603463
-0.026370317
0.002620253
-0.026958214
0.0025820731
-0.027560877
0.0025456708
-0.028178751
0.0025108968
-0.028812308
0.0024776241
-0.029461888
0.0024457611
-0.030127748
0.0024152304
-0.03081016
0.002385958
-0.031509438
0.0023578743
-0.0322259
0.0023309119
-0.032959903
0.0023049982
-0.033711809
0.0022800659
-0.034481984
0.0022560467
-0.035270774
0.0022328827
-0.036078525
0.0022105214
-0.036905556
0.0021889114
-0.037752218
0.0021679948
-0.038618879
0.002147716
-0.0395059
0.0021280174
-0.040413624
0.0021088407
-0.041342376
0.0020901341
-0.042292467
0.0020718362
-0.04326418
0.0020538888
-0.044257775
0.0020362313
-0.045273483
0.0020187949
-0.046311489
0.0020015101
-0.047371942
0.0019842969
-0.048454923
0.0019670687
-0.049560444
0.0019497246
-0.050688427
0.0019321557
-0.051838684
0.0019142267
-0.053010877
0.0018957846
-0.0542045
0.0018766465
-0.055418814
0.0018565904
-0.056652785
0.0018353458
-0.05790499
0.0018125765
-0.059173519
0.001787862
-0.060455763
0.0017606669
-0.061748271
0.001730208
-0.06304627
0.0016956771
-0.064342768
0.0016557823
-0.065629062
0.0016083328
-0.066890741
0.0015502663
-0.068105366
0.0014764151
-0.069237784
0.0013767105
-0.070213096
0.0012601727
-0.070992707
0.0011818188
-0.071871125
0.0011356419
-0.073148121
0.0010950543
-0.074544541
0.0010558038
-0.075981275
0.001017457
-0.077447343
0.00097989993
-0.078943669
0.00094314081
-0.08046946
0.00090708077
-0.082025487
0.00087173937
-0.083613031
0.00083712287
-0.085232017
0.00080313389
-0.086883218
0.00076977027
-0.08856794
0.00073703539
-0.090286304
0.00070484466
-0.092039126
0.00067319012
-0.093827622
0.0006420771
-0.095652111
0.0006114391
-0.097513389
0.00058125305
-0.099412591
0.00055152619
-0.1013503
0.00052221098
-0.10332724
0.00049327359
-0.10534448
0.00046470917
-0.1074028
0.00043647911
-0.10950307
0.00040854735
-0.11164635
0.00038088921
-0.11383356
0.0003534731
-0.11606567
0.00032626307
-0.11834376
0.00029921975
-0.1206689
0.00027231406
-0.1230422
0.00024550304
-0.12546478
0.0002187442
-0.12793782
0.00019199578
-0.13046264
0.00016519837
-0.13304027
0.00013830813
-0.13567249
0.0001112542
-0.13835986
8.398624e-05
-0.14110517
5.6401871e-05
-0.14390793
2.8439149e-05
-0.14677266
-0.1496971
0.0073620909
-0.0090842254
-0.0075093763
0.0072078448
-0.0094535841
0.0070480495
-0.0098253088
0.0068843596
-0.010197228
0.0067180443
-0.010569178
0.0065501631
-0.010940909
0.006381659
-0.011312193
0.006213378
-0.011682913
0.0060460824
-0.012053052
0.0058804648
-0.012422671
0.0057171539
-0.012791894
0.0055567348
-0.0131609
0.0053997082
-0.013529955
0.0052464762
-0.013899386
0.0050973672
-0.014269554
0.0049526773
-0.014640823
0.0048126277
-0.01501362
0.0046773574
-0.015388416
0.0045469572
-0.015765699
0.0044214846
-0.016146031
0.0043009638
-0.016530004
0.0041853846
-0.016918138
0.0040747008
-0.017310935
0.0039688372
-0.017708921
0.0038676951
-0.018112619
0.003771158
-0.018522549
0.0036790952
-0.018939216
0.0035913658
-0.01936312
0.0035078181
-0.019794744
0.0034283109
-0.020234561
0.0033526937
-0.020683035
0.0032808202
-0.021140643
0.0032125479
-0.021607859
0.0031477332
-0.022085173
0.0030862255
-0.022573089
0.0030278644
-0.023072126
0.0029724709
-0.023582813
0.0029198583
-0.024105648
0.0028698459
-0.024641089
0.0028222704
-0.025189562
0.0027769866
-0.025751459
0.002733864
-0.026327174
0.0026927823
-0.026917112
0.0026536199
-0.027521694
0.0026162541
-0.028141364
0.0025805337
-0.028776566
0.0025463301
-0.029427663
0.0025135484
-0.030094946
0.0024821114
-0.030778704
0.0024519409
-0.031479248
0.0024229727
-0.032196913
0.0023951354
-0.032932047
0.0023683625
-0.033685018
0.0023425827
-0.034456185
0.0023177335
-0.035245906
0.0022937507
-0.036054523
0.0022705822
-0.036882369
0.0022481764
-0.037729793
0.0022264783
-0.038597162
0.0022054282
-0.03948483
0.0021849689
-0.040393144
0.0021650436
-0.041322429
0.0021455926
-0.042272993
0.0021265577
-0.04324512
0.0021078778
-0.044239068
0.0020894863
-0.045255063
0.0020713167
-0.046293289
0.0020532938
-0.047353886
0.0020353354
-0.048436928
0.0020173502
-0.04954242
0.0019992361
-0.050670271
0.0019808734
-0.051820275
0.0019621262
-0.05299208
0.0019428337
-0.054185154
0.0019228012
-0.055398723
0.0019017993
-0.056631719
0.0018795443
-0.057882666
0.0018556779
-0.059149578
0.0018297623
-0.060429768
0.0018012277
-0.061719648
0.0017692462
-0.063014199
0.0017329627
-0.064306383
0.0016909819
-0.065586966
0.0016409378
-0.066840582
0.0015795726
-0.068043885
0.0015010309
-0.069159113
0.0013953307
-0.070107374
0.00127777
-0.070875259
0.0012041548
-0.071797545
0.0011582032
-0.073102167
0.0011169052
-0.07450322
0.0010768681
-0.075941206
0.0010377476
-0.077408184
0.00099944044
-0.078905316
0.00096195049
-0.080431917
0.0009251793
-0.081988654
0.00088913031
-0.083576911
0.00085382254
-0.085196628
0.00081915705
-0.086848461
0.00078512366
-0.088533805
0.00075173544
-0.090252801
0.00071890474
-0.092006167
0.00068661499
-0.093795189
0.00065488015
-0.095620218
0.00062363379
-0.097481969
0.00059284683
-0.099381614
0.00056252562
-0.10131977
0.00053262901
-0.10329713
0.00050311759
-0.10531473
0.0004739823
-0.10737342
0.00044519087
-0.10947401
0.00041670233
-0.11161758
0.00038849368
-0.11380505
0.00036053184
-0.1160374
0.00033277748
-0.11831568
0.00030519686
-0.12064098
0.00027775355
-0.12301439
0.000250406
-0.12543705
0.00022311326
-0.12791013
0.00019582986
-0.13043493
0.00016850262
-0.13301248
0.00014108057
-0.13564459
0.00011348804
-0.13833177
8.5663234e-05
-0.14107681
5.7530973e-05
-0.14387925
2.901258e-05
-0.14674357
-0.14966751
0.0071955084
-0.008960766
-0.0073188948
0.0070647426
-0.0093227447
0.0069275559
-0.0096880486
0.0067852387
-0.010054838
0.0066389123
-0.010422779
0.0064896014
-0.010791527
0.0063382558
-0.011160777
0.0061857516
-0.011530339
0.0060328949
-0.011900126
0.0058804268
-0.012270135
0.0057290282
-0.012640428
0.0055793247
-0.01301113
0.0054318689
-0.013382433
0.0052871342
-0.013754587
0.0051455237
-0.01412788
0.0050073921
-0.01450263
0.0048730285
-0.014879196
0.0047426494
-0.015257979
0.0046164174
-0.015639411
0.0044944536
-0.016024015
0.0043768437
-0.016412345
0.0042636359
-0.016804884
0.0041548424
-0.017202098
0.0040504418
-0.01760448
0.0039503862
-0.018012527
0.0038546063
-0.018426735
0.0037630108
-0.018847589
0.0036754986
-0.019275579
0.0035919576
-0.019711177
0.0035122683
-0.020154847
0.0034363161
-0.020607059
0.0033639753
-0.02106828
0.0032951241
-0.021538986
0.0032296344
-0.022019662
0.00316737
-0.022510804
0.0031081851
-0.023012921
0.003051918
-0.023526525
0.0029983995
-0.024052109
0.0029474629
-0.024590132
0.0028989521
-0.025141031
0.0028527286
-0.025705215
0.0028086637
-0.026283089
0.0027666394
-0.026875068
0.0027265353
-0.02748157
0.0026882283
-0.028103037
0.0026515798
-0.028739897
0.0026164654
-0.029392528
0.0025827829
-0.030061243
0.0025504506
-0.030746351
0.0025193975
-0.031448176
0.002489552
-0.032167048
0.0024608492
-0.032903325
0.0024332188
-0.033657368
0.0024065935
-0.034429541
0.0023809078
-0.035220201
0.0023561022
-0.036029698
0.0023321229
-0.03685837
0.0023089158
-0.037706567
0.0022864231
-0.038574649
0.0022645898
-0.039462976
0.0022433574
-0.040371889
0.002222665
-0.041301713
0.0022024532
-0.042252756
0.0021826607
-0.043225301
0.0021632252
-0.044219604
0.0021440803
-0.045235887
0.0021251539
-0.046274329
0.0021063671
-0.047335064
0.0020876379
-0.048418161
0.0020688691
-0.04952361
0.0020499538
-0.05065131
0.0020307683
-0.051801041
0.0020111719
-0.05297243
0.0019909904
-0.054164915
0.0019700281
-0.055377699
0.0019480381
-0.056609662
0.0019247216
-0.057859277
0.0018997077
-0.059124486
0.0018725293
-0.060402505
0.0018425825
-0.061689609
0.0018089945
-0.062980517
0.0017708586
-0.064268141
0.0017266541
-0.065542644
0.0016738388
-0.066787648
0.0016089399
-0.067978867
0.0015253072
-0.069075352
0.0014134868
-0.069995567
0.0012959198
-0.070757796
0.0012271702
-0.071728819
0.0011811475
-0.073056135
0.0011391328
-0.074461181
0.0010983072
-0.075900348
0.0010584081
-0.077368244
0.0010193353
-0.078866195
0.00098110481
-0.08039363
0.00094360625
-0.08195109
0.00090683889
-0.083540069
0.00087083027
-0.085160535
0.00083547739
-0.086813014
0.00080076269
-0.088498984
0.00076670685
-0.090218627
0.00073322504
-0.091972553
0.00070029175
-0.093762109
0.00066792431
-0.095587688
0.00063606054
-0.097449926
0.00060466053
-0.099350019
0.00057373526
-0.10128863
0.00054324496
-0.10326641
0.00051314702
-0.10528439
0.00048343106
-0.10734345
0.00045406916
-0.10944438
0.00042501521
-0.11158824
0.00039624351
-0.11377598
0.00036772455
-0.11600856
0.00033941839
-0.11828704
0.0003112868
-0.1206125
0.00028329718
-0.12298604
0.00025540443
-0.12540877
0.0002275679
-0.12788188
0.00019973707
-0.13040666
0.0001718644
-0.13298415
0.00014388861
-0.13561612
0.00011574804
-0.13830311
8.7369445e-05
-0.1410479
5.8679703e-05
-0.14385
2.9583369e-05
-0.1467139
-0.14963733
0.0070306699
-0.0088589258
-0.0071324329
0.0069212232
-0.0092132204
0.0068047985
-0.0095715466
0.0066823933
-0.0099323558
0.0065549452
-0.010295255
0.0064233801
-0.010659887
0.006288603
-0.011025926
0.0061514792
-0.011393141
0.0060128257
-0.0117614
0.0058734073
-0.012130645
0.005733935
-0.012500885
0.0055950645
-0.01287219
0.005457388
-0.013244689
0.0053214301
-0.013618562
0.0051876509
-0.013994036
0.0050564553
-0.01437137
0.0049281871
-0.014750867
0.0048031265
-0.015132859
0.0046814978
-0.015517727
0.0045634796
-0.015905944
0.0044492126
-0.016298029
0.0043387997
-0.016694425
0.004232306
-0.017095562
0.0041297609
-0.017501895
0.0040311647
-0.017913894
0.0039364896
-0.018332026
0.0038456918
-0.018756761
0.0037587037
-0.019188562
0.0036754476
-0.019627894
0.0035958417
-0.020075217
0.0035197908
-0.020530985
0.0034471991
-0.020995667
0.0033779617
-0.021469728
0.0033119692
-0.021953649
0.0032491044
-0.022447919
0.0031892348
-0.022953031
0.0031322162
-0.023469486
0.0030778962
-0.023997769
0.0030261263
-0.024538343
0.0029767595
-0.025091645
0.0029296615
-0.025658098
0.002884713
-0.026238121
0.0028417914
-0.026832126
0.0028007859
-0.027440545
0.0027615726
-0.028063803
0.0027240226
-0.028702327
0.0026880143
-0.0293565
0.0026534485
-0.030026657
0.0026202407
-0.030713124
0.0025883147
-0.03141623
0.0025576041
-0.032136318
0.0025280407
-0.032873742
0.0024995579
-0.033628866
0.0024720895
-0.034402053
0.0024455701
-0.035193662
0.0024199402
-0.036004048
0.0023951422
-0.036833552
0.0023711256
-0.03768253
0.002347834
-0.038551336
0.0023252069
-0.039440327
0.0023031857
-0.040349845
0.0022817125
-0.041280215
0.002260724
-0.042231742
0.0022401592
-0.043204708
0.0022199506
-0.044199365
0.0022000302
-0.045215934
0.0021803246
-0.046254589
0.0021607539
-0.047315455
0.0021412276
-0.048398594
0.0021216484
-0.049503986
0.002101904
-0.050631518
0.0020818656
-0.051780951
0.0020613818
-0.052951891
0.002040279
-0.054143752
0.0020183434
-0.055355698
0.0019953195
-0.056586568
0.0019708943
-0.057834776
0.0019446734
-0.059098183
0.0019161656
-0.060373909
0.0018847244
-0.061658072
0.001849444
-0.062945139
0.0018093469
-0.064227932
0.0017627686
-0.065495943
0.0017069916
-0.066731749
0.0016382913
-0.067910044
0.0015491317
-0.06898607
0.0014312084
-0.069877693
0.0013147909
-0.070641469
0.0012506321
-0.071664696
0.0012044913
-0.073009981
0.0011617419
-0.074418406
0.0011201261
-0.075858698
0.0010794372
-0.077327513
0.0010395902
-0.078826297
0.0010006073
-0.080354587
0.00096237295
-0.081912786
0.00092487422
-0.083502491
0.00088815071
-0.085123723
0.00085210027
-0.086776865
0.00081669102
-0.088463465
0.00078195944
-0.090183772
0.00074781659
-0.091938273
0.00071422705
-0.093728368
0.00068121606
-0.09555451
0.00064872241
-0.097417249
0.00061669969
-0.099317796
0.00058515858
-0.10125688
0.00055406574
-0.10323508
0.00052337115
-0.10525345
0.00049306385
-0.10731288
0.00046311763
-0.10941416
0.00043348748
-0.11155832
0.00040414433
-0.11374633
0.0003750572
-0.11597915
0.00034618832
-0.11825783
0.00031749743
-0.12058346
0.00028894811
-0.12295711
0.00026050057
-0.12537993
0.00023210941
-0.12785307
0.00020372596
-0.13037783
0.00017529818
-0.13295525
0.00014676529
-0.13558709
0.00011806062
-0.13827388
8.9118443e-05
-0.14101841
5.9848792e-05
-0.14382016
3.0177021e-05
-0.14668364
-0.14960656
0.0068696852
-0.0087766235
-0.0069519062
0.0067796239
-0.0091230773
0.00668221
-0.0094740513
0.0065781931
-0.0098282583
0.0064683484
-0.01018533
0.0063534979
-0.010544957
0.0062344827
-0.010906832
0.0061121335
-0.011270715
0.0059872531
-0.011636444
0.0058606067
-0.012003923
0.0057329143
-0.012373119
0.0056048473
-0.012744051
0.005477022
-0.013116793
0.0053499959
-0.013491467
0.0052242684
-0.013868241
0.0051002842
-0.014247321
0.0049784306
-0.01462895
0.0048590373
-0.015013406
0.0047423797
-0.015401012
0.0046286863
-0.015792197
0.0045181458
-0.016187438
0.0044109109
-0.016587144
0.0043070929
-0.016991701
0.0042067681
-0.017401531
0.0041099805
-0.01781707
0.0040167474
-0.018238759
0.0039270602
-0.018667043
0.0038408927
-0.019102367
0.0037582024
-0.019545178
0.0036789327
-0.019995923
0.0036030216
-0.020455052
0.0035303925
-0.020923016
0.0034609655
-0.02140028
0.0033946502
-0.021887313
0.0033313428
-0.022384592
0.0032709315
-0.0228926
0.0032132901
-0.023411826
0.0031582842
-0.023942744
0.0031057774
-0.024485817
0.0030556382
-0.025041486
0.0030077417
-0.025610182
0.0029619681
-0.026192328
0.0029182071
-0.026788346
0.0028763435
-0.027398662
0.0028362624
-0.028023702
0.0027978423
-0.028663887
0.0027609681
-0.029319606
0.0027255393
-0.029991209
0.0026914717
-0.030679036
0.0026586913
-0.03138343
0.002627128
-0.032104735
0.002596715
-0.032843309
0.0025673871
-0.033599518
0.0025390794
-0.034373725
0.0025117264
-0.035166289
0.0024852695
-0.03597757
0.0024596537
-0.036807915
0.0024348226
-0.037657677
0.002410721
-0.038527212
0.0023872916
-0.039416874
0.0023644725
-0.040327001
0.0023422038
-0.04125792
0.0023204237
-0.042209933
0.0022990667
-0.043183321
0.0022780681
-0.044178334
0.002257353
-0.045195185
0.0022368468
-0.046234045
0.0022164653
-0.047295033
0.0021961182
-0.048378203
0.0021757017
-0.049483523
0.0021550987
-0.050610865
0.0021341733
-0.051759971
0.002112771
-0.05293043
0.0020907054
-0.054121623
0.0020677552
-0.055332679
0.0020436513
-0.056562389
0.0020180633
-0.057809107
0.0019905737
-0.059070607
0.0019606644
-0.060343907
0.0019276456
-0.061624954
0.0018905794
-0.062907971
0.001848406
-0.064185641
0.001799286
-0.065446697
0.0017403429
-0.066672681
0.0016675357
-0.067837108
0.0015723836
-0.068890806
0.00144857
-0.069753963
0.0013347196
-0.070527696
0.0012746508
-0.071604667
0.0012282664
-0.07296358
0.0011847387
-0.074374851
0.0011423274
-0.075816251
0.0011008426
-0.077285984
0.0010602102
-0.078785611
0.001020461
-0.080314775
0.00098147941
-0.081873732
0.00094323769
-0.083464168
0.0009057883
-0.085086182
0.00086902886
-0.086740003
0.00083291695
-0.088427239
0.00079749316
-0.090148222
0.00076267864
-0.091903317
0.00072842156
-0.093693954
0.00069475533
-0.095520671
0.00066162361
-0.097383928
0.00062896609
-0.099284933
0.00059679797
-0.10122449
0.00056509102
-0.10320314
0.00053378901
-0.10522189
0.00050288038
-0.1072817
0.0004723409
-0.10938333
0.00044212364
-0.11152781
0.00041219687
-0.11371609
0.00038253294
-0.11594916
0.00035308905
-0.11822804
0.00032382609
-0.12055383
0.00029471051
-0.12292762
0.00026569533
-0.12535051
0.00023673799
-0.12782369
0.0002077847
-0.13034843
0.00017879833
-0.13292578
0.00014968602
-0.13555747
0.00012041366
-0.13824408
9.0891733e-05
-0.14098833
6.1044716e-05
-0.14378974
3.0774812e-05
-0.14665278
-0.14957517
0.006714595
-0.0087119921
-0.006779141
0.0066421057
-0.0090505025
0.0065619619
-0.0093938224
0.0064747343
-0.0097409463
0.0063810876
-0.0100916
0.0062817616
-0.010445549
0.0061775328
-0.010802522
0.0060691838
-0.011162286
0.0059574848
-0.011524666
0.0058431802
-0.011889541
0.0057269808
-0.012256843
0.0056095562
-0.012626552
0.0054915302
-0.012998694
0.0053734764
-0.013373342
0.0052559177
-0.013750614
0.0051393253
-0.014130663
0.0050241189
-0.01451368
0.0049106651
-0.014899892
0.0047992796
-0.015289569
0.0046902317
-0.015683095
0.004583752
-0.016080909
0.0044800333
-0.016483379
0.00437923
-0.016890855
0.0042814596
-0.017303721
0.0041868085
-0.017722383
0.0040953308
-0.018147249
0.0040070581
-0.01857874
0.0039219977
-0.019017279
0.0038401384
-0.019463294
0.003761458
-0.019917219
0.0036859173
-0.020379489
0.003613467
-0.020850545
0.0035440468
-0.02133084
0.0034775863
-0.021820834
0.003414002
-0.022320988
0.0033531979
-0.022831778
0.0032950679
-0.023353677
0.0032394941
-0.023887152
0.0031863562
-0.024432661
0.0031355361
-0.024990648
0.0030869175
-0.025561545
0.0030403911
-0.026145783
0.0029958469
-0.026743783
0.0029531778
-0.027355974
0.0029122743
-0.02798278
0.0028730218
-0.028624615
0.002835311
-0.029281875
0.0027990464
-0.029954924