/*--------------------------------*- C++ -*----------------------------------*\
| =========                 |                                                 |
| \\      /  F ield         | OpenFOAM: The Open Source CFD Toolbox           |
|  \\    /   O peration     | Version:  2406                                  |
|   \\  /    A nd           | Website:  www.openfoam.com                      |
|    \\/     M anipulation  |                                                 |
\*---------------------------------------------------------------------------*/
FoamFile
{
    version     2.0;
    format      ascii;
    arch        "LSB;label=32;scalar=64";
    class       volScalarField;
    location    "0.05";
    object      k;
}
// * * * * * * * * * * * * * * * * * * * * * * * * * * * * * * * * * * * * * //

dimensions      [0 2 -2 0 0 0 0];

internalField   nonuniform List<scalar> 
2065
(
164.77551
178.36435
189.65801
198.82837
205.80868
87.477271
99.176103
111.80716
124.55752
136.37108
47.918829
53.574477
61.32133
71.928872
37.381787
41.856682
47.860816
35.818566
39.885575
45.096208
38.226089
42.337021
42.011154
46.242754
50.376659
53.539425
49.699346
45.227745
40.3559
44.528916
35.405127
39.638662
30.612786
34.811347
39.691276
26.603721
30.824323
36.197711
42.605294
25.878068
29.870815
36.509136
44.431143
53.116094
288.01204
380.08488
461.56544
513.00579
533.0457
530.80539
511.89994
482.15311
448.68402
287.92524
375.48411
453.44614
503.20335
522.9846
521.24555
502.68984
473.66813
440.64754
287.59012
370.55961
444.75593
492.73615
512.2763
510.97311
492.87944
464.54196
431.98792
286.78232
365.10358
435.43787
481.66955
500.91586
499.98177
482.42138
454.75616
422.69836
285.42023
359.06013
425.53689
469.99102
488.89568
488.27573
471.27427
283.72748
413.63846
373.82146
325.26097
263.31532
176.94067
58.154151
405.89952
366.37974
318.12419
256.58581
171.21572
56.279598
397.57335
358.37113
310.46498
249.44484
165.31872
54.266069
388.66875
349.8392
302.37496
242.0352
159.39592
52.145281
296.75351
256.50486
213.89407
165.62817
104.04347
23.515122
323.53572
281.53148
236.31818
184.15412
116.4432
27.874427
349.13284
305.48901
257.82408
202.05851
128.90235
32.200677
372.68745
327.60228
277.74908
218.73777
140.6329
36.425056
393.54975
347.38292
295.85779
234.40519
152.72338
40.841109
411.34408
364.50379
311.73493
248.18698
162.68986
44.88579
425.63342
378.5173
324.93009
259.73704
171.13954
48.578347
436.17405
389.16527
335.21327
268.94782
178.12863
51.834445
443.04333
396.48584
342.58894
275.82853
183.72289
54.698279
446.47394
400.75253
347.27369
280.4031
187.6088
57.041108
446.63099
401.91377
349.36992
283.15666
190.44614
58.998285
445.17726
401.06064
349.03882
283.31083
191.22071
60.390023
442.91761
399.34991
347.73863
282.4181
190.77024
61.328411
439.82886
396.99547
345.82727
280.7276
189.49823
61.723787
436.27929
394.22024
343.584
278.84664
188.09978
61.857295
432.75998
391.23679
341.0967
276.78747
186.56603
61.776447
429.56504
388.29653
338.54067
274.65668
184.98493
61.529161
426.81648
385.70811
336.11
272.56825
183.49387
61.195156
424.53955
383.46078
333.93114
270.61793
182.07291
60.791927
422.60551
381.57323
332.09346
269.03688
180.97696
60.424788
421.01225
380.05374
330.64242
267.80184
180.02738
60.058345
419.69499
378.92888
329.70869
267.01557
179.59883
59.833531
418.77077
378.1139
328.81839
265.94323
178.47535
59.530592
420.99067
381.1704
332.44769
269.87225
182.11434
59.864914
822.15315
788.55253
737.29803
671.15398
596.74362
521.70099
451.97575
390.91287
339.64901
830.56344
800.57931
752.76614
690.15697
619.15958
546.96978
479.14341
418.89186
367.49532
835.26587
808.81109
764.87046
706.37423
639.28104
570.30099
504.64094
445.40284
393.99473
836.30514
813.69126
773.98699
719.83388
656.80994
591.1424
527.73706
469.61153
418.29918
834.13644
815.17579
779.70225
729.9435
671.03335
608.70405
547.61189
490.71065
439.66201
829.53925
813.30349
781.59147
736.18698
681.29624
622.31953
563.62
508.12572
457.61029
820.5309
808.31411
779.69735
738.07196
687.18315
631.51731
575.29367
521.40313
471.70495
808.07301
799.32877
774.82298
736.0536
688.38958
636.08338
582.43018
530.33775
481.72336
792.30673
786.74912
766.22177
731.27884
686.01738
636.0202
584.95657
534.99243
487.76305
774.76942
772.1423
754.59633
723.19032
681.0902
633.21401
583.81822
535.547
489.93815
757.01192
756.15077
740.83693
711.87867
672.97591
628.01358
580.68428
533.72515
489.15676
735.56965
736.67055
723.98564
697.94147
661.9762
620.08641
575.5242
530.46236
486.99924
711.24191
714.96921
705.52369
682.77721
649.93019
610.69817
568.42513
525.62958
483.74285
687.48885
694.01591
687.61932
668.05581
638.05111
601.38102
561.20595
519.98294
479.52524
665.05035
674.53936
671.09122
654.71279
627.28232
592.79691
554.40821
514.57698
475.14172
642.80409
655.85423
655.66213
642.7976
617.87909
585.36204
548.45113
509.6959
471.04434
620.34348
637.52296
641.15721
631.81436
609.66679
579.02021
543.39779
505.51503
467.45668
596.86117
618.95437
627.07994
621.37646
602.47833
573.64996
539.1953
502.04104
464.4381
571.14664
599.26665
612.81903
610.98771
595.95806
569.01585
535.69909
499.20581
461.98404
540.82288
576.24298
596.62976
599.77194
589.06746
564.7088
532.61036
496.79228
459.89756
505.05165
550.30205
578.97311
588.07628
581.46356
560.51921
529.72999
494.58908
458.08537
455.99622
512.46944
553.38432
572.3167
571.12798
555.47501
526.54301
492.39127
456.44535
406.32733
478.3495
530.15587
557.49141
561.11286
549.57397
523.12775
489.96561
454.98471
293.9996
392.49188
475.87131
526.75678
545.04965
540.8744
521.08272
490.15045
456.22152
234.3188
579.59474
745.99355
820.75198
846.93748
844.81393
230.52948
562.59118
730.74197
810.71142
842.31752
846.37191
226.84057
545.15909
715.00139
800.09939
837.40635
846.1937
223.34794
527.15319
698.37273
787.64202
830.05752
843.8145
219.95932
509.51986
681.09726
773.55062
820.00364
837.67996
216.35366
490.26617
662.14625
757.41307
807.44961
828.96621
212.89185
472.767
643.23416
739.76193
792.35549
816.94084
208.75974
450.93183
621.26607
719.39539
774.33276
801.61948
204.34876
430.63154
599.48379
697.58003
753.79834
783.16214
199.06129
409.18899
575.13892
673.26888
731.35994
763.02232
192.33736
380.49315
548.59338
650.31174
710.6229
743.76896
186.58965
366.06637
529.12413
628.1321
687.73595
721.17662
180.52276
348.07016
505.67117
601.79889
661.08534
695.18625
172.70348
321.12729
477.48166
573.5239
633.50132
669.15099
162.72781
293.91447
450.09052
545.62339
606.70399
644.22631
151.82187
265.66078
419.98162
515.80387
578.83148
618.89726
141.36412
236.61029
387.78539
484.67161
549.84119
592.84655
127.31126
206.80475
352.90124
450.23983
518.4289
564.89797
111.07232
174.48885
314.15531
411.88008
483.29237
533.94942
92.47376
140.46573
269.63499
367.25042
442.01001
497.26072
74.682612
104.03765
208.91593
312.04191
391.26192
452.20436
48.714344
70.338924
138.38169
236.59535
325.57287
394.16187
17.955469
33.242096
72.271966
152.64195
235.73265
313.50166
3.1002498
13.419381
30.843961
73.797143
155.31752
222.05954
2.7478934
7.2783921
13.125794
27.858735
63.137411
138.50054
3.2196159
9.5890132
16.434145
20.16815
31.912852
71.430861
3.0043707
8.8079598
15.056624
20.589957
27.180198
43.719785
3.3172304
10.125852
16.535573
21.617828
27.726209
33.06939
4.1364236
11.722906
19.107518
24.121586
28.415688
31.920716
5.099958
15.26988
22.789717
27.624623
31.346317
34.51378
6.1445941
18.912548
26.967952
31.843411
35.414659
38.470116
7.2877476
22.658726
31.286511
36.341501
39.919541
42.918419
8.4625846
26.360087
35.599918
40.815784
44.407196
47.334336
9.2823212
29.298225
39.3325
44.812302
48.43812
51.255191
9.8889872
31.645725
42.282065
47.991436
51.652522
54.357133
10.100052
32.996499
44.099378
49.975777
53.648706
56.28303
10.089535
33.437733
44.578487
50.465541
54.183185
56.83204
10.062458
32.714805
43.817857
49.618565
53.355158
56.060954
9.0736006
30.822435
41.605745
47.400989
51.178651
53.986112
8.4394986
28.389243
38.440808
44.045616
47.810538
50.740019
7.5861332
25.299
34.534856
39.87528
43.599785
46.616251
6.4726831
21.598542
30.093577
35.199339
38.871089
41.922979
5.2728472
17.738627
25.50722
30.362902
33.927774
36.926062
4.2679151
14.302298
21.214749
25.719988
29.106424
31.947794
3.3567937
10.370968
16.921807
21.301961
24.597282
27.1742
2.5243158
7.4886027
13.486916
17.713414
21.121994
23.199271
1.8015591
6.1262285
11.486994
15.376219
21.196358
23.538635
1.3904843
4.7091762
7.8167248
12.158199
232.60038
547.68415
709.37444
784.84113
233.21996
557.25223
719.93323
795.54705
824.36993
825.4335
233.07448
564.69926
728.649
804.40578
833.22395
834.42657
232.48212
571.25593
735.92034
811.51398
840.21466
841.39168
231.44297
576.58004
741.91558
817.19664
845.56468
846.98543
230.16439
580.94996
746.70108
821.64357
849.74839
851.31495
228.90722
584.71883
750.37852
825.05397
853.07121
854.69714
227.28061
588.06721
753.36103
828.14577
856.08848
857.56559
222.57001
588.00545
755.42785
831.19782
859.17122
860.1653
219.06649
589.41323
758.06295
833.8791
861.29509
861.87693
215.07599
590.01252
759.66008
835.05846
862.23861
862.51298
210.71115
589.64899
759.78138
835.08542
862.10656
862.12742
207.84929
588.73796
758.45129
833.53004
860.50779
860.48536
211.06602
588.17149
757.84314
832.21021
858.96842
858.74014
203.72115
588.02319
757.89884
832.62359
859.03572
858.10895
206.02172
587.42661
757.55942
832.44581
858.65062
857.14435
209.84188
587.81164
757.46881
832.05686
857.92009
855.8228
214.30199
587.73137
756.32143
831.08968
856.81578
854.30458
218.54812
588.12161
755.40913
829.82794
855.63892
852.77932
223.02013
589.39425
755.53237
829.00934
854.49666
851.46138
228.53759
591.33415
756.37151
828.99205
853.89787
850.40353
231.81286
591.71786
757.13842
829.57846
854.07292
849.5252
234.43245
591.09278
757.10779
829.2816
853.19282
847.37222
238.44075
595.29607
758.72473
828.49243
850.84936
843.43555
1.0698413
2.3267414
1.0765087
229.79163
231.49073
537.4813
819.68136
823.92442
826.29854
827.39925
828.25114
829.458
831.02516
832.79051
834.57526
836.06404
837.36647
839.43733
841.30948
842.19278
842.18261
841.24536
839.48119
837.22145
834.40773
830.68524
825.78202
819.52936
811.26047
791.6062
793.47874
793.6276
792.94907
792.41618
792.73609
793.61342
794.93187
796.52595
798.08301
799.75289
802.03504
804.21037
805.82681
806.90434
807.3415
807.07819
806.43784
805.38677
803.5255
800.6833
796.776
791.26335
751.63101
750.24153
747.61661
744.86039
743.03604
742.2513
742.23836
742.94504
744.20185
745.74589
747.69845
750.23143
752.84627
755.30343
757.57084
759.55735
761.18105
762.35135
763.39017
763.98747
763.81805
762.75003
760.36141
698.78093
694.06078
688.92779
684.60817
681.61799
679.71775
678.92005
679.10845
680.08227
681.63845
683.84518
686.67971
689.80865
693.10846
696.51909
699.95758
703.35668
706.60212
709.67263
712.75818
715.47282
717.55443
718.58436
633.90523
626.50156
619.67013
614.25965
610.22827
607.58607
606.27617
606.12135
606.91367
608.5329
610.99107
614.15229
617.81071
621.89836
626.34874
631.08948
636.05661
641.16195
646.30323
651.57249
656.91533
662.00922
666.4643
558.92259
549.96128
542.31882
536.23226
531.73363
528.78305
527.24364
526.93821
527.69509
529.44162
532.12941
535.60248
539.73869
544.48795
549.78917
555.58599
561.82835
568.45795
575.3923
582.55103
590.01194
597.64199
605.10177
476.92866
467.65369
459.89867
453.79818
449.34754
446.44166
444.93832
444.67138
445.52914
447.4535
450.34245
454.07277
458.57231
463.79488
469.69114
476.22029
483.34841
491.04289
499.26239
507.94071
517.02153
526.52493
536.29059
391.95583
383.19764
375.93292
370.32075
366.29414
363.73343
362.4997
362.44998
363.50983
365.61134
368.64798
372.53746
377.2336
382.69681
388.89344
395.79849
403.39401
411.66671
420.60305
430.17785
440.34932
451.07567
462.34172
307.89522
300.16621
293.86647
289.11478
285.80395
283.81225
282.99805
283.26111
284.54517
286.76678
289.84931
293.74751
298.42956
303.86982
310.0512
316.96433
324.60624
332.97894
342.08691
351.93191
362.50734
373.79664
385.77862
228.51558
222.20367
217.15685
213.45068
210.96763
209.5963
209.21562
209.76275
211.17453
213.38764
216.36257
220.07392
224.50429
229.6449
235.49482
242.05974
249.35051
257.38181
266.17048
275.73299
286.08292
297.2304
309.18283
157.26769
152.44895
148.66182
145.95523
144.2238
143.38183
143.3287
144.01468
145.39155
147.42755
150.10367
153.41011
157.34578
161.91757
167.13916
173.0298
179.61289
186.91439
194.96122
203.7796
213.39391
223.82542
235.09208
96.412856
92.94078
90.25959
88.385739
87.245064
86.766995
86.869996
87.51741
88.683566
90.358122
92.539564
95.234176
98.455092
102.22144
106.55778
111.49363
117.06244
123.30021
130.2435
137.92774
146.38751
155.65671
165.76201
47.474262
45.135112
43.325541
42.062736
41.285478
40.949381
40.997956
41.420609
42.208642
43.364211
44.900292
46.834422
49.18691
51.981518
55.246738
59.01659
63.330808
68.234052
73.77355
79.995036
86.937678
94.628417
17.781023
16.622293
15.807606
15.273538
14.962216
14.839801
14.880356
15.083785
15.449588
15.978825
16.68093
17.573533
18.675022
20.007426
21.598611
23.483626
25.706667
28.323718
31.405635
35.041172
39.335617
44.384296
5.7568038
5.451061
5.249033
5.1154932
5.0422464
5.0200744
5.0450906
5.1172489
5.237272
5.4073044
5.6308977
5.9144093
6.2655461
6.6934797
7.2094887
7.8275184
8.5652229
9.4454761
10.499152
11.772377
13.352942
15.40053
2.1429018
2.1153117
2.0890958
2.0688308
2.0606218
2.063496
2.0765236
2.099675
2.1336366
2.1795499
2.2390306
2.3143163
2.4080283
2.5232521
2.6637291
2.8341017
3.0402244
3.2897323
3.5929696
3.96377
4.4276931
5.030679
1.1831193
1.2075934
1.2162028
1.2189938
1.2225045
1.2272081
1.2327917
1.2394294
1.2476184
1.2579871
1.2712229
1.288078
1.3093477
1.3358957
1.3686499
1.408798
1.4577951
1.5176675
1.5917616
1.6851724
1.8046169
1.9624855
0.90353439
0.93224041
0.94506602
0.95044701
0.95398662
0.95659948
0.9582254
0.95903234
0.95938179
0.95972468
0.96047228
0.96195375
0.96447152
0.96828493
0.97359053
0.98053535
0.98919323
0.99967272
1.0127942
1.0339005
1.0623146
1.1008206
0.77859825
0.79907047
0.80655219
0.80791231
0.80766905
0.80665564
0.8048183
0.80222104
0.79911543
0.79595314
0.79312202
0.79084349
0.78933866
0.78894839
0.78989333
0.7924774
0.79679875
0.80256635
0.80887054
0.81417799
0.81905291
0.82589375
0.64337081
0.65587729
0.65954772
0.65930264
0.65829903
0.65697966
0.65531307
0.65341656
0.65148037
0.64971219
0.64822901
0.64712277
0.64647854
0.64634303
0.6467307
0.64769613
0.64927735
0.65152817
0.65451191
0.6583386
0.66344545
0.67112665
0.56960136
0.57806638
0.58019625
0.57956581
0.57837417
0.57689716
0.5752598
0.57354524
0.57185948
0.57029347
0.56894029
0.56788891
0.56722059
0.56700057
0.56726498
0.56799691
0.56913193
0.57057925
0.57224811
0.57414984
0.57654759
0.5799431
0.50319575
0.50815781
0.50922836
0.50866035
0.50779121
0.50682143
0.5057812
0.50470733
0.50366681
0.50271476
0.50188647
0.50120259
0.50067364
0.50030392
0.50009655
0.50005845
0.50019226
0.50051378
0.50103081
0.50177734
0.50288811
0.50458651
0.46637478
0.46928197
0.46988789
0.46950301
0.46891067
0.46827552
0.46761782
0.46696181
0.46634103
0.46578298
0.46530843
0.46493352
0.46466915
0.46451806
0.46447666
0.46452201
0.46463459
0.4647923
0.46498878
0.4652558
0.46569065
0.46641302
0.43663124
0.43824504
0.43857175
0.43832813
0.43796309
0.4375626
0.43713422
0.43669283
0.43626337
0.43586655
0.43551496
0.43521384
0.43496286
0.4347589
0.43459864
0.43447995
0.4344044
0.43437677
0.43439666
0.43447764
0.43465719
0.43495998
0.4197739
0.42051122
0.42066374
0.42054037
0.42034497
0.42012564
0.41989814
0.41967898
0.4194848
0.41932682
0.41920962
0.41913162
0.41908606
0.41906387
0.41905515
0.41905183
0.41905352
0.41906574
0.4190903
0.41913824
0.41923081
0.41935517
0.40760278
0.40794985
0.40804095
0.40799352
0.40789841
0.40777715
0.40764148
0.4075022
0.40736886
0.40724905
0.40714648
0.40706018
0.40698501
0.40691599
0.40685237
0.40679518
0.40674786
0.40671585
0.40669226
0.40667532
0.40669189
0.4067438
0.40100474
0.40115634
0.40121915
0.40122757
0.40121098
0.40118139
0.4011483
0.40111763
0.4010928
0.40107797
0.40107422
0.40107883
0.40108544
0.40108825
0.40108955
0.40109127
0.40109263
0.40109241
0.40108691
0.40107754
0.40107387
0.40108375
0.39801976
0.39808967
0.39812967
0.39813839
0.39813384
0.39813018
0.39812551
0.39812091
0.39812007
0.39812079
0.39812132
0.3981204
0.39811974
0.39811952
0.39812087
0.39812339
0.39812548
0.39812874
0.39813244
0.39813491
0.3981368
0.39813713
0.39699323
0.39704486
0.39708131
0.39708524
0.39708456
0.39709661
0.39710493
0.39711229
0.39712751
0.39714422
0.3971602
0.39717164
0.39718059
0.39719215
0.39720549
0.39721762
0.39722686
0.3972335
0.39723765
0.39723639
0.39723009
0.39721959
0.39690446
0.39691948
0.39693367
0.39694836
0.39696606
0.39697845
0.39695414
0.39694598
0.3969578
0.39696778
0.396977
0.39698489
0.39699179
0.39699775
0.39700258
0.39700586
0.39700755
0.39700981
0.39701404
0.39700718
0.3969913
0.396977
0.39758151
0.39758476
0.39758484
0.39758312
0.39758055
0.39757779
0.397575
0.39757231
0.39756896
0.39756536
0.39756182
0.39755858
0.39755574
0.39755327
0.39755114
0.39754929
0.39754775
0.39754647
0.39754431
0.39754033
0.39753663
0.39753197
313.63118
363.79854
424.30001
494.20226
570.29559
646.6879
715.78402
770.68921
806.36936
285.51472
333.45478
391.54056
459.03142
533.03719
608.19077
677.61858
735.19177
775.76894
255.03503
300.18407
355.24264
419.64253
490.8053
563.8615
632.53099
691.10326
734.7678
222.32621
264.13406
315.47197
375.93928
443.24342
512.96145
579.33417
637.05144
681.89872
187.94987
225.884
272.79698
328.44624
390.81365
455.90416
518.48589
573.70692
617.88035
152.75595
186.37423
228.22661
278.22183
334.62727
393.88974
451.33101
502.58347
544.39408
117.8629
146.87467
183.18784
226.8557
276.45649
328.90742
380.08883
426.11277
464.14815
84.534104
108.83927
139.37016
176.30446
218.54423
263.50493
307.63454
347.57664
380.91668
53.993965
73.699465
98.470119
128.57818
163.24149
200.40657
237.11426
270.49522
298.60162
27.381693
42.762976
62.143912
85.686461
112.95643
142.37059
171.61365
198.32697
220.96245
9.017586
17.971975
31.404835
48.80374
69.281782
91.433019
113.6066
133.99166
151.37823
2.3244193
5.2456019
10.974606
20.544196
33.538706
48.855367
64.653869
79.374067
92.011504
0.60707928
1.311582
3.1284166
6.4091575
11.847051
19.448084
28.108209
36.755706
44.55951
0.47309614
0.59461814
0.94489801
1.912877
3.6392826
6.1562426
9.3191485
12.859734
16.333753
0.46831132
0.53636924
0.64336397
0.87351992
1.310983
2.068369
3.0805275
4.1707455
5.2352429
0.45957419
0.52532439
0.61723676
0.71999936
0.8571413
1.1053247
1.3819292
1.6867695
1.9727386
0.4510672
0.50260355
0.57961464
0.67867986
0.76934095
0.85958196
0.96628918
1.0644584
1.1351343
0.43768891
0.48607875
0.54719997
0.61319678
0.69137216
0.77082919
0.83179591
0.87145682
0.88782187
0.4255889
0.4612772
0.51291273
0.57144026
0.62290764
0.67144317
0.72131604
0.75946832
0.76987775
0.41377714
0.44470943
0.47808512
0.51409322
0.55314694
0.5897063
0.6193896
0.63756452
0.63985576
0.40182816
0.42471576
0.45367436
0.48248033
0.50769007
0.53001128
0.54993746
0.56445059
0.56702921
0.39543185
0.4138628
0.43173514
0.45008462
0.46690657
0.48172082
0.49405109
0.50193839
0.50234723
0.39037058
0.40457469
0.41918856
0.43248136
0.44395044
0.45349473
0.46106516
0.46585283
0.46601438
0.38790754
0.39887383
0.40828839
0.41664032
0.42364438
0.42926963
0.43366714
0.43641144
0.43650848
0.38671619
0.39490452
0.40194282
0.40775111
0.41228505
0.41569445
0.41820376
0.41971532
0.41977718
0.38618761
0.39264848
0.39730458
0.40088494
0.40353976
0.40540975
0.40673182
0.4075283
0.40761373
0.38766072
0.3919458
0.39511151
0.39730054
0.39878588
0.39977481
0.40046212
0.4008826
0.40097414
0.38916887
0.39230202
0.39454289
0.39599932
0.39685436
0.39741432
0.39774812
0.39793971
0.39799983
0.39290987
0.39434795
0.39521811
0.39582622
0.39629848
0.39661851
0.39680876
0.39690664
0.39695382
0.39497986
0.39584993
0.39637895
0.39665777
0.3967761
0.39682092
0.39684565
0.39686864
0.3968864
0.39687483
0.39712069
0.39729847
0.39741626
0.39748832
0.39752961
0.3975524
0.39756518
0.39757289
272.28525
246.2363
218.30635
188.54665
157.50095
125.91196
94.757376
65.162903
38.14979
15.659612
4.1928644
0.83790539
0.41050592
0.39496791
0.3947461
0.39219246
0.39069981
0.38536388
0.38263948
0.37702704
0.37398538
0.37216206
0.37166041
0.37213068
0.37503141
0.37650389
0.38129551
0.38426606
0.39037769
0.39353584
0.39649741
233.92667
209.95574
184.63531
157.74645
129.8687
101.60562
73.783278
47.422498
23.359496
6.9444402
1.4235602
0.36008044
0.31555132
0.31493689
0.31776827
0.31975673
0.32358647
0.32579161
0.3297
0.33168005
0.33565524
0.33790362
0.34315292
0.34709529
0.35509322
0.35973967
0.36916059
0.37446358
0.38496302
0.3905022
0.39570839
193.93847
172.0782
149.84214
126.01423
101.48347
76.598813
52.004136
28.453931
9.6623583
2.2158879
0.33336987
0.22502296
0.22401623
0.22547223
0.23086409
0.23583555
0.245258
0.25142516
0.26055976
0.26851675
0.27673274
0.28415377
0.29368347
0.30254391
0.31569734
0.32612959
0.34222586
0.35229619
0.37143481
0.38302946
0.39376825
149.34044
129.66698
111.54984
90.936286
70.077681
48.640096
26.879496
9.3498077
2.2233137
0.29627812
0.13109133
0.12681649
0.1272451
0.12825647
0.13004185
0.1333273
0.13650802
0.14534443
0.15198681
0.16474424
0.17170435
0.18596331
0.19493185
0.21193196
0.22829247
0.2497257
0.27248786
0.29399728
0.32970065
0.35847647
0.38713319
93.405927
76.526313
64.617392
46.931838
30.45812
14.273384
6.0889486
1.3735822
0.25235176
0.15580548
0.14650909
0.14009122
0.13399431
0.12713825
0.11979545
0.11258835
0.10038934
0.089560301
0.079436322
0.072240252
0.067318731
0.065029214
0.064871927
0.067569618
0.079489376
0.09296338
0.11412948
0.14164644
0.19010808
0.25584698
0.34965651
18.902691
14.653607
10.847934
6.8318941
3.7197942
1.7646258
1.1820206
1.0717646
1.0991711
1.1335547
1.1535037
1.1531105
1.1271932
1.0740404
0.965995
0.84435278
0.77250317
0.61107081
0.4917913
0.38203207
0.29057666
0.20808645
0.13887484
0.077548731
0.047541332
0.036305893
0.026956556
0.020307305
0.022770395
0.044509369
0.13649503
)
;

boundaryField
{
    Side1
    {
        type            empty;
    }
    Inlet
    {
        type            inletOutlet;
        inletValue      uniform 0.39740317;
        value           uniform 0.39740317;
    }
    Side2
    {
        type            empty;
    }
    Outlet
    {
        type            zeroGradient;
    }
    Botwall
    {
        type            kqRWallFunction;
        value           nonuniform List<scalar> 
59
(
58.154151
56.279598
54.266069
52.145281
23.515122
27.874427
32.200677
36.425056
40.841109
44.88579
48.578347
51.834445
54.698279
57.041108
58.998285
60.390023
61.328411
61.723787
61.857295
61.776447
61.529161
61.195156
60.791927
60.424788
60.058345
59.833531
59.530592
59.864914
18.902691
14.653607
10.847934
6.8318941
3.7197942
1.7646258
1.1820206
1.0717646
1.0991711
1.1335547
1.1535037
1.1531105
1.1271932
1.0740404
0.965995
0.84435278
0.77250317
0.61107081
0.4917913
0.38203207
0.29057666
0.20808645
0.13887484
0.077548731
0.047541332
0.036305893
0.026956556
0.020307305
0.022770395
0.044509369
0.13649503
)
;
    }
    Cyli
    {
        type            kqRWallFunction;
        value           nonuniform List<scalar> 
76
(
234.3188
230.52948
226.84057
223.34794
219.95932
216.35366
212.89185
208.75974
204.34876
199.06129
192.33736
186.58965
180.52276
172.70348
162.72781
151.82187
141.36412
127.31126
111.07232
92.47376
74.682612
48.714344
17.955469
3.1002498
2.7478934
3.2196159
3.0043707
3.3172304
4.1364236
5.099958
6.1445941
7.2877476
8.4625846
9.2823212
9.8889872
10.100052
10.089535
10.062458
9.0736006
8.4394986
7.5861332
6.4726831
5.2728472
4.2679151
3.3567937
2.5243158
1.8015591
1.3904843
232.60038
233.21996
233.07448
232.48212
231.44297
230.16439
228.90722
227.28061
222.57001
219.06649
215.07599
210.71115
207.84929
211.06602
203.72115
206.02172
209.84188
214.30199
218.54812
223.02013
228.53759
231.81286
234.43245
238.44075
1.0698413
1.0765087
229.79163
231.49073
)
;
    }
    procBoundary0to1
    {
        type            processor;
        value           nonuniform List<scalar> 
44
(
211.70109
211.70109
147.55635
84.923275
84.923275
56.342816
56.342816
51.938798
47.102215
47.102215
46.147136
46.147136
50.126767
53.834702
53.983832
53.983832
56.796034
58.528321
59.04314
58.371992
56.50606
56.50606
56.580658
53.222816
49.148873
49.148873
48.968865
444.23823
412.70535
352.59874
415.11999
457.69018
476.17153
475.8186
444.23823
459.40881
352.59874
281.80697
379.10481
340.70162
293.76651
234.26416
153.36248
49.927793
)
;
    }
    procBoundary0to2
    {
        type            processor;
        value           nonuniform List<scalar> 
55
(
36.838578
42.181247
48.383581
55.660382
63.830045
23.523891
30.589953
6.3188971
23.523891
14.67584
697.92708
813.15789
772.86108
813.15789
813.59479
6.3188971
5.0305601
5.0305601
7.8668784
227.33798
526.06298
526.06298
697.92708
800.54813
783.31327
756.06592
717.97635
669.65843
611.84037
545.87434
473.86314
398.3058
321.83527
247.13485
176.64304
103.09136
103.09136
50.260489
18.040491
5.8374916
2.179821
1.1560739
0.84076266
0.68047508
0.58444633
0.50670728
0.4672604
0.43524413
0.41940543
0.40676313
0.40108719
0.39812363
0.3971979
0.39695867
0.39752716
)
;
    }
    procBoundary0to3
    {
        type            processor;
        value           nonuniform List<scalar> 7(44.297964 44.297964 45.275985 45.275985 49.95283 49.95283 62.460105);
    }
}


// ************************************************************************* //
