/*--------------------------------*- C++ -*----------------------------------*\
| =========                 |                                                 |
| \\      /  F ield         | OpenFOAM: The Open Source CFD Toolbox           |
|  \\    /   O peration     | Version:  2406                                  |
|   \\  /    A nd           | Website:  www.openfoam.com                      |
|    \\/     M anipulation  |                                                 |
\*---------------------------------------------------------------------------*/
FoamFile
{
    version     2.0;
    format      ascii;
    arch        "LSB;label=32;scalar=64";
    class       volScalarField;
    location    "0.05";
    object      nut;
}
// * * * * * * * * * * * * * * * * * * * * * * * * * * * * * * * * * * * * * //

dimensions      [0 2 -1 0 0 0 0];

internalField   nonuniform List<scalar> 
2065
(
0.0013387248
0.0015904117
0.0018430302
0.00209568
0.0023439449
0.00070444534
0.00083884894
0.00099753172
0.001177306
0.0013700774
0.00049802134
0.00058429005
0.00069008214
0.00082810642
0.00080368859
0.00095771859
0.0011104126
0.0015368907
0.0017573332
0.0019767468
0.0023717435
0.0026842112
0.0031105605
0.0037287108
0.0042339271
0.0047178403
0.0043446848
0.0038651294
0.0032837738
0.0037654278
0.0026120022
0.0030496426
0.0018596949
0.0022217713
0.0025583545
0.0010898598
0.00135532
0.0016298509
0.0019057881
0.00052633265
0.00067740778
0.00087266209
0.0010897834
0.0013205789
0.0031468245
0.0053272186
0.0084046588
0.011965287
0.015210177
0.01720448
0.017348643
0.015967336
0.013782247
0.0033450515
0.0055458909
0.0085427269
0.01196323
0.015052251
0.016906316
0.016967887
0.015572003
0.013387747
0.0035512079
0.0057564304
0.0086933915
0.011989157
0.014917525
0.016597407
0.01657697
0.015162167
0.01299477
0.0037635517
0.0059587286
0.0088279982
0.011997113
0.014762927
0.016275539
0.01617444
0.01474168
0.012602377
0.0039772623
0.0061492283
0.0089445912
0.011985549
0.014589965
0.015941672
0.015759741
0.0041955327
0.011266478
0.0086191051
0.0059447269
0.0034365103
0.0013421891
0.00015696773
0.010946746
0.008373924
0.0057711195
0.0033359903
0.0013061526
0.00015411607
0.010613455
0.0081167073
0.005593979
0.0032379433
0.0012716813
0.00015099206
0.010282512
0.0078626167
0.0054221161
0.0031434548
0.001236587
0.00014763839
0.033155384
0.023681966
0.014608584
0.0069487307
0.0018716579
8.9110959e-05
0.030070766
0.021274521
0.013029002
0.0062094754
0.0017210269
9.224165e-05
0.027297923
0.019212094
0.011753846
0.005651132
0.0016158503
9.4204189e-05
0.024858683
0.017465028
0.010719132
0.005219991
0.0015419099
9.5255272e-05
0.022722842
0.015970619
0.0098489718
0.0048548934
0.0014709292
9.6231024e-05
0.020834055
0.014660284
0.0090846802
0.0045293281
0.0014082108
9.6444749e-05
0.019150186
0.013492232
0.0083932564
0.0042167021
0.0013262365
9.6360335e-05
0.017659124
0.012467474
0.0077954111
0.0039585393
0.0012753889
9.6025367e-05
0.016342684
0.011565549
0.0072668174
0.0037230671
0.0012178071
9.5791197e-05
0.01518913
0.010785188
0.0068166316
0.0035296063
0.0011798334
9.5609597e-05
0.014177233
0.010099773
0.0064212079
0.0033563539
0.0011367498
9.5818478e-05
0.013325526
0.0095159284
0.0060767982
0.0032028782
0.0011050253
9.6264665e-05
0.012632638
0.009050179
0.0058049415
0.0030791776
0.0010719384
9.7177267e-05
0.012040918
0.0086573458
0.0055801137
0.0029820304
0.0010523112
9.8466654e-05
0.011583706
0.0083659274
0.0054208075
0.0029144724
0.0010404872
0.00010042664
0.011242206
0.0081559991
0.0053142875
0.0028839143
0.0010373117
0.00010309315
0.010999548
0.0080153441
0.0052580527
0.0028699206
0.001042484
0.00010649418
0.010851567
0.0079535079
0.0052469512
0.0028862238
0.0010590846
0.00011069057
0.010782964
0.0079374527
0.0052629298
0.0029134471
0.0010799129
0.00011567717
0.010791836
0.0079962234
0.0053414162
0.0029829435
0.0011166232
0.00012155124
0.010843301
0.0080748136
0.0054193053
0.0030433268
0.0011497216
0.0001282579
0.010984304
0.0082555078
0.0055984923
0.0031780519
0.0012119318
0.00013596217
0.011098697
0.0083732192
0.0056914533
0.0032369086
0.0012429571
0.0001443761
0.011521861
0.0088251475
0.0060987097
0.0035287938
0.0013707253
0.00015450261
0.035707272
0.04279663
0.050407061
0.057409284
0.062126599
0.062917089
0.059050893
0.051628715
0.042534492
0.03344307
0.040381
0.047800905
0.054517338
0.05887856
0.059316114
0.05525012
0.047864032
0.039001057
0.031350736
0.038041058
0.045185436
0.051578813
0.05558813
0.055697128
0.051526065
0.044239731
0.03570406
0.029367746
0.035777744
0.042606858
0.048652719
0.052313323
0.052141812
0.047931267
0.040828819
0.032698934
0.027493011
0.033593506
0.040083551
0.045769725
0.049094539
0.048699596
0.04451056
0.037667167
0.029993897
0.025744028
0.03150048
0.037624268
0.042955018
0.045963859
0.045406234
0.041293049
0.03476014
0.027559774
0.024064421
0.029519844
0.035256248
0.040219967
0.042949866
0.042289084
0.038293826
0.032101012
0.025369455
0.022459528
0.027612365
0.033024903
0.037611862
0.040069167
0.039360848
0.035521394
0.029683606
0.023406243
0.020960964
0.025803653
0.030900143
0.035193091
0.037393089
0.036622887
0.032967749
0.027498269
0.021657433
0.01951051
0.024074961
0.028871205
0.032913549
0.034955572
0.034157617
0.030661087
0.025529232
0.020101018
0.018235124
0.022516517
0.02700797
0.030784125
0.032705048
0.031948998
0.028647544
0.023821177
0.018744651
0.017088853
0.021088715
0.025296737
0.028834301
0.030631434
0.029937606
0.026870261
0.022359154
0.01760079
0.015939006
0.019694018
0.023668648
0.027027774
0.028754302
0.028129689
0.025277983
0.021084744
0.016638778
0.014808016
0.018356228
0.022136557
0.025367
0.027066617
0.026543486
0.023908927
0.019984284
0.015809726
0.013743767
0.01710623
0.020717699
0.023858299
0.02556599
0.025167845
0.022756503
0.019092481
0.015153504
0.012728635
0.015928488
0.019397966
0.022487467
0.024234325
0.023979907
0.021786552
0.018378166
0.014646596
0.011741201
0.014797321
0.018156137
0.021217867
0.023041379
0.022950318
0.020973502
0.01781095
0.014265425
0.010751537
0.013682497
0.016958395
0.020016057
0.021958588
0.022052181
0.020295079
0.017371754
0.013998866
0.0097424148
0.012567534
0.015785805
0.018858089
0.020958428
0.021259711
0.019727878
0.017038013
0.013827899
0.0086589237
0.011383636
0.014566798
0.017692332
0.019982945
0.020540722
0.019247647
0.016790078
0.013746242
0.0075432393
0.01021587
0.013383324
0.016570014
0.019034503
0.01988167
0.018836379
0.016604273
0.013721012
0.0062050383
0.0087472783
0.011927471
0.015269866
0.017970856
0.019201141
0.018457465
0.01645961
0.013766137
0.0051411729
0.0076706836
0.010826315
0.014233643
0.017086763
0.018525942
0.01811517
0.016347633
0.013818812
0.0030952613
0.0053455716
0.0085309602
0.012202651
0.015526217
0.017626955
0.017776955
0.016343198
0.014119537
0.00032531537
0.0029330045
0.0077781427
0.013948291
0.020942342
0.028514067
0.00031008561
0.0027416736
0.0072384003
0.012985713
0.019531981
0.026650674
0.00029600302
0.0025598782
0.006748324
0.012112916
0.018243201
0.024904137
0.00028316413
0.0023895841
0.0062968848
0.011301956
0.017037384
0.023283616
0.00027153368
0.002234239
0.0058831383
0.010552573
0.015908259
0.021744964
0.00026092901
0.0020855278
0.0054905372
0.0098463917
0.014848781
0.020309972
0.000251603
0.0019568991
0.0051504379
0.0092144338
0.013876169
0.018968367
0.00024308394
0.0018026089
0.004780484
0.0085723096
0.012923104
0.017676888
0.00023555985
0.0016802901
0.0044762475
0.008018099
0.012069799
0.016491574
0.00022879871
0.0015485005
0.0041432639
0.0074300569
0.011199266
0.015320114
0.00022226194
0.001411533
0.0038203577
0.0069129404
0.010460384
0.01431703
0.00021745061
0.0013802026
0.0036857946
0.0065837773
0.0098775346
0.013447877
0.00021365682
0.0013170079
0.0034986494
0.006192853
0.0092449671
0.012551093
0.0002097199
0.0011478206
0.0031673536
0.0056925489
0.0085476221
0.011633161
0.00020523638
0.0010333706
0.0028969066
0.0052346288
0.0078905008
0.010765873
0.0002007802
0.00093085138
0.002640873
0.0047939722
0.0072559549
0.0099314209
0.00019713038
0.00082540244
0.0023834023
0.0043595343
0.0066306904
0.0091123943
0.00019090018
0.000721977
0.0021168741
0.0039062257
0.0059871187
0.0082780509
0.00018240055
0.00060529385
0.001829077
0.0034284402
0.0053144651
0.007414757
0.00017039047
0.00048462414
0.0014996181
0.0028900275
0.0045732578
0.0064743108
0.00015688618
0.00034855925
0.0010997224
0.0022849133
0.0037489772
0.0054563293
0.00012792314
0.00023207607
0.00065660402
0.0015861843
0.0028498905
0.0043185292
7.2125329e-05
0.00012737341
0.00031150875
0.00087184593
0.001834691
0.0031227201
1.9970068e-05
6.7350036e-05
0.00014954977
0.00038788047
0.00099592724
0.0018620625
1.8610342e-05
6.7512544e-05
9.8273375e-05
0.00016935788
0.00040010038
0.0010071341
2.1341983e-05
0.00017330779
0.00025772046
0.00022614772
0.00024528006
0.00055220316
2.0110928e-05
0.00019054345
0.00042743916
0.00049640984
0.00044092139
0.00044176938
2.1890849e-05
0.00021244683
0.00054582257
0.00079597182
0.00086784781
0.00068737424
2.6349326e-05
0.00022535402
0.00064214232
0.0010590073
0.0013258886
0.0013799635
3.1253286e-05
0.00029650824
0.00079379766
0.0013272624
0.0017869586
0.0020865025
3.6220183e-05
0.00037680413
0.00098324174
0.0016360556
0.0022315315
0.0027046955
4.1303716e-05
0.00045621642
0.0011739913
0.0019486838
0.0026594002
0.0032431412
4.6200221e-05
0.00052740206
0.0013625475
0.0022523236
0.003056879
0.0037122963
4.9448518e-05
0.00058414351
0.0015193523
0.0025081736
0.0033887377
0.0040940041
5.1775068e-05
0.00062845463
0.001638333
0.0027017111
0.0036384409
0.0043781301
5.2571237e-05
0.00065546496
0.0017139497
0.0028245195
0.0037943383
0.0045547052
5.2536528e-05
0.00066780951
0.0017444616
0.0028690594
0.0038494766
0.0046172333
5.243754e-05
0.00066318929
0.0017322008
0.0028391322
0.0038076528
0.004571129
4.8637722e-05
0.00062698214
0.0016451784
0.0027135422
0.0036572387
0.0044100877
4.6111192e-05
0.00058329383
0.0015264169
0.0025244846
0.0034180787
0.0041452008
4.2580204e-05
0.00052597181
0.0013729018
0.0022761526
0.0030984756
0.003782343
3.7719698e-05
0.00045500701
0.0011876251
0.0019777445
0.0027096905
0.0033298555
3.2100737e-05
0.00037914821
0.00099019239
0.001653913
0.0022749901
0.0028028309
2.7038753e-05
0.0003056998
0.00080167995
0.0013353131
0.0018267797
0.0022241562
2.2113704e-05
0.00020789263
0.000599079
0.0010182667
0.0013691675
0.001586262
1.7286807e-05
0.00015484067
0.00047157347
0.00077071424
0.00092668112
0.00091653029
1.2792253e-05
0.0001366752
0.00039016529
0.00053267926
0.00057169824
0.00043843962
1.0090097e-05
0.00010448722
0.00022951988
0.00025065287
0.00033071189
0.002791897
0.0073949173
0.013276087
0.00033120217
0.0028592819
0.0076041527
0.013679111
0.020612207
0.028177567
0.00033113053
0.0029160887
0.0077853786
0.014036509
0.021186734
0.02900733
0.00033072982
0.0029701451
0.0079525936
0.014358724
0.021697869
0.029736357
0.00032999855
0.0030191443
0.0081049711
0.014647469
0.022145004
0.03037224
0.00032908707
0.003065233
0.0082467134
0.014910185
0.022542277
0.030919983
0.00032818555
0.0031106784
0.0083802993
0.015148325
0.022891988
0.031385904
0.00032700291
0.0031550255
0.0085000709
0.015354044
0.023185798
0.031769673
0.00032350827
0.0031810352
0.0085816386
0.015506408
0.023412283
0.032071093
0.00032088772
0.0032070134
0.008651291
0.015628126
0.023588512
0.032302824
0.00031787118
0.0032316102
0.0087125031
0.015724473
0.023722859
0.03247039
0.0003145341
0.0032499044
0.0087555801
0.01579322
0.023813825
0.032573866
0.00031232634
0.0032669843
0.0087971692
0.015847754
0.023866676
0.032613249
0.00031481309
0.0032847756
0.0088459061
0.01588509
0.023875509
0.032585019
0.0003091067
0.0032753814
0.0087940253
0.015815448
0.023789249
0.032467494
0.00031090027
0.0032548344
0.0087401282
0.015726063
0.023661288
0.032288404
0.0003138568
0.0032364627
0.0086933688
0.015638946
0.023521282
0.032077891
0.00031727238
0.0032160705
0.0086413927
0.015545564
0.023367449
0.031841947
0.00032048685
0.0031954521
0.0085855698
0.015442476
0.023200253
0.031582033
0.00032383516
0.0031797945
0.0085386708
0.015341195
0.02302273
0.031299237
0.00032792149
0.0031603879
0.0084801562
0.015219891
0.022812326
0.030965212
0.00033031264
0.0031309866
0.0083919368
0.015053892
0.022546056
0.03055489
0.00033220325
0.0030886481
0.0082705647
0.014840834
0.022230108
0.030094995
0.00033508531
0.0031068405
0.0082904497
0.014802124
0.022089718
0.029837881
7.9016606e-06
5.369466e-05
7.9488932e-06
0.00032857213
0.00032986023
0.002724296
0.036467611
0.037133467
0.037967756
0.038711067
0.039338606
0.039887957
0.040383672
0.040825586
0.041208799
0.041517493
0.0417236
0.041821629
0.041811016
0.041689495
0.041458655
0.041119504
0.04066918
0.040099926
0.039407959
0.038589316
0.037633918
0.036529736
0.035263331
0.042855303
0.044280466
0.045619826
0.046769813
0.047764852
0.048656776
0.049455659
0.050159092
0.050758533
0.051230777
0.051557291
0.05174145
0.051770638
0.051638969
0.051348455
0.050896993
0.05028141
0.049503626
0.048557577
0.047431811
0.046117513
0.044597399
0.042824834
0.050216391
0.05224044
0.054014437
0.055548877
0.05691391
0.058143374
0.059240334
0.0602018
0.061015946
0.061656002
0.062114468
0.062394613
0.062478352
0.062357557
0.062032412
0.061500414
0.060758409
0.059800161
0.05863381
0.057244617
0.055614136
0.053720415
0.051504213
0.058386657
0.060870835
0.063026097
0.064931692
0.066650039
0.068195371
0.069576563
0.070787468
0.071809685
0.072620279
0.073219552
0.073607261
0.073762773
0.073677358
0.073348507
0.072772572
0.071946472
0.070864238
0.069522168
0.067924312
0.066044048
0.063850203
0.061277209
0.067157053
0.069992675
0.072485851
0.074728952
0.076756597
0.078589277
0.080230524
0.08167075
0.082886637
0.083864757
0.084610206
0.085117499
0.085365204
0.085345468
0.085053285
0.084483322
0.083630706
0.082489013
0.081049662
0.079311712
0.077261065
0.074859269
0.072041878
0.076230071
0.079335411
0.082114325
0.084630983
0.086919458
0.088994205
0.090853751
0.092488254
0.093877683
0.095013144
0.095904248
0.096542282
0.096905229
0.096986677
0.096779458
0.096276438
0.095470533
0.094353497
0.092914055
0.091138259
0.089018602
0.086523683
0.083590955
0.085205529
0.088505644
0.091483815
0.094195107
0.096668508
0.098913429
0.10092982
0.10270892
0.10423947
0.10551479
0.10654675
0.10732389
0.10782775
0.10805132
0.10798581
0.10762198
0.10694996
0.10595868
0.10463459
0.10295929
0.10091085
0.098467099
0.095576159
0.093529775
0.096903629
0.099953565
0.10273917
0.10528495
0.10760256
0.1096936
0.11155253
0.11317794
0.11456476
0.11572711
0.11665058
0.11732274
0.11773547
0.11787867
0.11774078
0.11730861
0.11656709
0.11549859
0.11408126
0.11228751
0.11008402
0.10743048
0.10032674
0.10358289
0.10652677
0.10922337
0.11169593
0.11396085
0.11601854
0.11787305
0.1195291
0.12098709
0.12226135
0.12333624
0.1242061
0.12486228
0.12529347
0.12548554
0.12542146
0.12508112
0.12444109
0.12347389
0.12214705
0.12042199
0.11825234
0.10422897
0.10711502
0.10971656
0.11210835
0.11431513
0.11635957
0.11824278
0.11998269
0.12158067
0.12305648
0.12441306
0.12564467
0.12674702
0.1277118
0.12852665
0.12917486
0.12963515
0.12988149
0.12988304
0.1296041
0.1290042
0.1280381
0.12665496
0.10313014
0.10528887
0.10723321
0.10903745
0.11073166
0.11234664
0.11388478
0.11537087
0.11681557
0.11824523
0.11965856
0.12105715
0.12243798
0.12379313
0.1251094
0.12636785
0.1275432
0.12860322
0.12950854
0.13021291
0.13066439
0.13080647
0.13057843
0.093616463
0.09461454
0.095525511
0.096418436
0.097334047
0.098304095
0.099329587
0.1004313
0.10164591
0.1029809
0.10444504
0.10604171
0.10776895
0.10961934
0.11157961
0.11363005
0.11574347
0.11788371
0.120004
0.12204632
0.12394342
0.1256236
0.12701333
0.070616523
0.070067463
0.069595313
0.069296779
0.069209361
0.069371137
0.069761298
0.070424995
0.071375727
0.07262831
0.074188299
0.076058117
0.078234639
0.080709475
0.083469591
0.086497361
0.089770021
0.09325746
0.096917397
0.10068812
0.10448073
0.10817716
0.041106494
0.039999449
0.039243353
0.038797504
0.038620249
0.03868647
0.038959447
0.039453728
0.040158531
0.041067663
0.042197186
0.043567047
0.045193385
0.047092287
0.049281342
0.051779094
0.054608512
0.057800342
0.061393769
0.065433448
0.069953601
0.074905973
0.019177985
0.018807128
0.018610628
0.018534007
0.01857004
0.018698328
0.018914447
0.019224324
0.019632671
0.020146241
0.020775868
0.021534926
0.022435238
0.023488619
0.024710599
0.026110955
0.027705503
0.029519363
0.031589422
0.033977322
0.036826981
0.040417167
0.0090728882
0.0092193359
0.0093340303
0.0094488944
0.009577984
0.0097184011
0.0098715668
0.010042063
0.010236344
0.010461561
0.010726698
0.011041281
0.011413575
0.011850621
0.012362003
0.012954462
0.013641964
0.014443635
0.015385121
0.016497851
0.017842403
0.019524317
0.0057317252
0.0059975317
0.0061944413
0.0063563957
0.0064983095
0.0066221522
0.0067300566
0.0068259796
0.0069150607
0.0070032904
0.0070971954
0.0072041033
0.0073283377
0.0074718511
0.0076239718
0.0077981712
0.0080063425
0.0082575038
0.0085656716
0.0089544916
0.0094458918
0.010074388
0.0049389665
0.0052252303
0.0054492991
0.0056282361
0.0057737287
0.0058875519
0.0059710816
0.0060278293
0.006062632
0.006080678
0.0060866223
0.0060865129
0.0060857914
0.0060850735
0.0060918258
0.0061092847
0.0061379467
0.0061778722
0.0062331027
0.0063418707
0.0064935951
0.0066926758
0.004751492
0.0050253999
0.0052218158
0.0053625735
0.0054666053
0.0055426812
0.0055965064
0.0056333028
0.0056582438
0.0056765185
0.0056901079
0.0056948833
0.0056893851
0.0056852905
0.0056863395
0.005695231
0.0057123159
0.0057350094
0.0057551487
0.0057483513
0.0057186909
0.0056905109
0.0044099385
0.0046103921
0.0047557847
0.0048645832
0.0049487152
0.0050098579
0.005048897
0.0050684393
0.0050727937
0.0050680854
0.0050583919
0.0050494628
0.0050452898
0.0050457044
0.0050500255
0.0050580796
0.0050694938
0.0050840615
0.0051048371
0.0051361854
0.0051773955
0.0052275373
0.0042620716
0.0044570108
0.0045957084
0.0046919912
0.0047581827
0.0048002483
0.0048255808
0.0048400653
0.0048470855
0.0048479756
0.0048464493
0.0048446037
0.0048437832
0.0048448689
0.0048483167
0.0048540717
0.0048617611
0.004870371
0.0048751292
0.0048726604
0.004867482
0.0048693259
0.0040899024
0.0042285003
0.0043224045
0.0043867627
0.0044328877
0.0044631536
0.0044813254
0.0044908714
0.0044951028
0.0044966075
0.0044968174
0.0044966487
0.0044967239
0.0044974114
0.0044988061
0.0045008865
0.0045038991
0.0045090724
0.0045173296
0.0045292213
0.0045413746
0.0045510035
0.0040040964
0.0041359221
0.0042302593
0.0042942477
0.0043341173
0.0043586522
0.0043730132
0.0043807616
0.0043844598
0.0043858707
0.0043861718
0.0043861445
0.0043862841
0.0043868896
0.0043881048
0.0043895477
0.0043902746
0.0043885997
0.0043847498
0.0043810417
0.0043784472
0.0043785336
0.003945211
0.0040427377
0.004108016
0.0041512243
0.0041810132
0.0041999762
0.0042110813
0.0042169898
0.0042197698
0.0042208427
0.0042211112
0.004221125
0.0042211138
0.0042212339
0.0042218948
0.0042229764
0.0042247055
0.0042272455
0.0042297889
0.004230743
0.0042317143
0.0042331124
0.0039182601
0.0040084026
0.0040710402
0.0041118419
0.0041354696
0.0041487176
0.0041558106
0.0041594015
0.0041611373
0.0041619861
0.0041624928
0.0041629144
0.0041632075
0.0041632059
0.0041625793
0.0041615239
0.0041602253
0.0041588764
0.0041578219
0.0041574099
0.004157569
0.0041580872
0.0039270829
0.003994009
0.0040375298
0.0040641713
0.0040798129
0.0040885042
0.0040930509
0.0040952793
0.0040963017
0.0040967422
0.0040968802
0.0040967823
0.0040965712
0.0040963116
0.0040960534
0.0040958286
0.0040956637
0.0040955801
0.0040955351
0.0040955136
0.0040956379
0.0040959314
0.0039546618
0.0040045437
0.0040335501
0.0040494815
0.0040579052
0.0040622233
0.0040643859
0.0040654544
0.0040659724
0.0040662278
0.0040663664
0.0040664529
0.0040665024
0.0040665147
0.0040665185
0.0040665326
0.0040665556
0.0040665747
0.0040665614
0.0040665187
0.0040664942
0.0040665287
0.0039908964
0.004019508
0.0040346734
0.0040424986
0.0040463798
0.0040483915
0.0040494706
0.004050064
0.0040503983
0.0040505756
0.0040506542
0.0040506695
0.0040506563
0.0040506316
0.00405061
0.0040505904
0.0040505608
0.0040505263
0.0040504832
0.0040504264
0.0040503694
0.0040503195
0.0040170221
0.0040304015
0.0040370792
0.0040404503
0.0040423967
0.0040435871
0.0040442972
0.0040447352
0.0040450392
0.0040452369
0.0040453607
0.004045421
0.0040454462
0.0040454728
0.0040455027
0.0040455192
0.0040455077
0.0040454687
0.0040454067
0.0040453092
0.0040451892
0.0040450728
0.0040305441
0.0040362614
0.0040394461
0.0040410914
0.0040419625
0.0040423951
0.0040423908
0.0040423382
0.0040423455
0.0040423473
0.0040423637
0.0040423927
0.004042432
0.0040424771
0.0040425224
0.0040425632
0.0040425985
0.004042639
0.0040426913
0.0040426871
0.0040426284
0.0040425716
0.0040402775
0.0040415672
0.0040420072
0.0040422245
0.0040423244
0.0040423613
0.0040423681
0.0040423482
0.004042308
0.0040422641
0.0040422231
0.0040421882
0.0040421596
0.0040421365
0.004042118
0.0040421039
0.0040420937
0.0040420853
0.0040420699
0.0040420484
0.0040420317
0.0040420075
0.044792897
0.054065123
0.061726196
0.065756713
0.065204801
0.060695724
0.053824573
0.046450796
0.039977889
0.045132443
0.054827707
0.063095671
0.067939009
0.06838778
0.064927955
0.059041178
0.052398472
0.046110252
0.045479482
0.055571266
0.064464988
0.070188099
0.071718275
0.069399421
0.064559869
0.058731467
0.052969101
0.045674217
0.056177492
0.065728211
0.07239417
0.075092358
0.074020575
0.070345266
0.065485403
0.060495866
0.045509171
0.056468595
0.066728613
0.074409737
0.078373337
0.078671066
0.076303506
0.072574362
0.068557105
0.044719079
0.056187737
0.067224896
0.076006997
0.081345028
0.083145727
0.082239189
0.079802999
0.076884561
0.042903901
0.054937799
0.066837329
0.076827236
0.083665879
0.087112372
0.087817152
0.086817121
0.085097616
0.039327296
0.052030153
0.064931015
0.076283771
0.084784057
0.090036942
0.092504011
0.093077274
0.09265889
0.03281378
0.04632145
0.060436688
0.073388457
0.083778105
0.091044643
0.095454686
0.097742747
0.09873085
0.021724014
0.036054124
0.051678106
0.066569748
0.079189646
0.088745828
0.095318178
0.099484556
0.10198943
0.0086272898
0.020069779
0.036083685
0.05314154
0.068538014
0.080796912
0.089857701
0.096150933
0.10035546
0.0023656268
0.0070387243
0.016909938
0.031885655
0.048350985
0.063355685
0.075358757
0.084201796
0.090398044
0.00061958782
0.0018965661
0.0057844765
0.013212463
0.024409547
0.037561514
0.049675366
0.059602327
0.067183161
0.00047734248
0.00086990379
0.0018843879
0.0046735908
0.0097299585
0.016556564
0.024158516
0.031609527
0.038107223
0.00048569638
0.0007946263
0.0013066123
0.0022811644
0.004029929
0.0068835336
0.010470067
0.014080926
0.017388654
0.00049718288
0.0008274761
0.0013152715
0.001934907
0.0027811158
0.0040774182
0.0054283427
0.0068484987
0.0081748425
0.0005145435
0.00082814841
0.0013280172
0.0020157368
0.0027090058
0.0033742597
0.0040903053
0.004752472
0.0053022179
0.00053764204
0.00087147252
0.0013429223
0.0019364426
0.0026777452
0.0034332153
0.0040174034
0.0044140929
0.0046848334
0.00056313065
0.0008890723
0.0013821376
0.0020106729
0.0026394442
0.0032322182
0.003784828
0.0042276505
0.0045041959
0.00059161671
0.00093231647
0.0013933025
0.001959134
0.0026042944
0.0032125317
0.0036941312
0.0040286887
0.0042268678
0.00061806219
0.00095918915
0.0014418302
0.002020257
0.0025952272
0.0031110259
0.0035450069
0.0038713213
0.0040768224
0.00064579055
0.00099476962
0.0014610759
0.0020181741
0.0025980708
0.0031119898
0.0035064473
0.0037814737
0.0039468624
0.00069760993
0.0010626817
0.0015468885
0.0021007086
0.0026424054
0.0031072546
0.0034652444
0.0037145689
0.0038687209
0.00073224716
0.0011085646
0.0015983693
0.0021561141
0.0027007451
0.0031546118
0.0034852107
0.0037033097
0.0038348356
0.00081547943
0.0012158722
0.0017231941
0.0022767709
0.0027909726
0.0032038419
0.0035000044
0.0036955479
0.0038157787
0.00087409546
0.0012942362
0.0018169806
0.0023789754
0.0028940007
0.0032959402
0.0035709181
0.0037426883
0.0038438269
0.0010214831
0.0014870029
0.0020467708
0.0026171235
0.0031015415
0.0034518884
0.0036770949
0.0038120003
0.0038900678
0.0011290798
0.0016257494
0.0022085928
0.0027846479
0.003258268
0.0035849426
0.0037813527
0.0038897747
0.0039471087
0.0014787163
0.0020562826
0.0026703173
0.0032016444
0.0035734221
0.003792767
0.0039085967
0.0039666509
0.0039954052
0.0018392363
0.0024608461
0.0030564278
0.0035064001
0.0037787514
0.0039175062
0.003980826
0.0040086349
0.0040213283
0.0030384906
0.0034609651
0.0037408062
0.0038981695
0.0039763465
0.0040120986
0.0040277404
0.0040345907
0.0040377603
0.035162008
0.035214868
0.035349148
0.035321653
0.034896779
0.033811813
0.031686816
0.027762853
0.020898765
0.010444515
0.0029942575
0.00058763529
0.00028085206
0.00026959549
0.00027789311
0.00028436827
0.00030032612
0.00031470984
0.00033750212
0.00035479809
0.00037848442
0.00039779602
0.00043343879
0.00045730241
0.00051644793
0.0005563738
0.00065984379
0.00073488961
0.00098519911
0.0012705483
0.0024521786
0.025343188
0.025194388
0.025217395
0.025068709
0.024495176
0.023241174
0.020976534
0.016975713
0.01018546
0.0032905287
0.00064022647
0.00015470487
0.0001342138
0.0001337284
0.00013838084
0.00014308371
0.00015241037
0.00016227661
0.0001762614
0.00018777162
0.00020313302
0.00021457884
0.00023575394
0.00025006437
0.00028534628
0.00030862861
0.00036892224
0.00041259947
0.00055755326
0.00074687914
0.0016393756
0.015842457
0.015547579
0.015523933
0.015311824
0.014677081
0.013365217
0.011128765
0.0072695895
0.0026749442
0.0005737671
7.9534771e-05
5.2460308e-05
5.1828974e-05
5.1983658e-05
5.4002578e-05
5.6783291e-05
6.1265248e-05
6.6409967e-05
7.293431e-05
7.9431587e-05
8.6555294e-05
9.2801414e-05
0.00010246096
0.0001101009
0.00012645285
0.000138763
0.00016544017
0.00018739221
0.00025098244
0.00034834456
0.00082097319
0.0076542881
0.007335716
0.0072851607
0.0070334437
0.0064481893
0.0052712207
0.0032977049
0.0012375444
0.00026559254
3.2806379e-05
1.4076518e-05
1.3453167e-05
1.3379928e-05
1.3410094e-05
1.3628181e-05
1.4312096e-05
1.5102418e-05
1.6675762e-05
1.8298014e-05
2.070767e-05
2.2530564e-05
2.5399602e-05
2.7759739e-05
3.1478469e-05
3.6116474e-05
4.1947224e-05
4.9476133e-05
5.8367053e-05
7.6936498e-05
0.00010973873
0.00025431134
0.0020780953
0.0018915419
0.0018182603
0.0015486979
0.0011745213
0.00061599869
0.00025673942
5.4431945e-05
9.5014591e-06
5.7393311e-06
5.35637e-06
5.0868543e-06
4.823629e-06
4.5340372e-06
4.2340753e-06
3.9466655e-06
3.6140876e-06
3.3080348e-06
3.0261982e-06
2.8396951e-06
2.7307464e-06
2.7114883e-06
2.7743233e-06
2.968913e-06
3.6177624e-06
4.3789817e-06
5.5633686e-06
7.1958759e-06
1.0420114e-05
1.632119e-05
3.5436871e-05
8.0440127e-05
6.805284e-05
5.5332002e-05
3.9401782e-05
2.4226638e-05
1.2640619e-05
8.7452857e-06
7.9821037e-06
8.1743783e-06
8.4143423e-06
8.5530584e-06
8.5501953e-06
8.3697946e-06
7.9979596e-06
7.2379302e-06
6.3732748e-06
5.8534348e-06
4.6737478e-06
3.7882867e-06
2.9621973e-06
2.2654486e-06
1.630465e-06
1.0927228e-06
6.1248738e-07
3.7615398e-07
2.8741879e-07
2.1352455e-07
1.6091562e-07
1.8039313e-07
3.5212947e-07
1.0734365e-06
)
;

boundaryField
{
    Side1
    {
        type            empty;
    }
    Inlet
    {
        type            calculated;
        value           uniform 0.0040389652;
    }
    Side2
    {
        type            empty;
    }
    Outlet
    {
        type            zeroGradient;
    }
    Botwall
    {
        type            nutkWallFunction;
        blending        stepwise;
        value           nonuniform List<scalar> 
59
(
1.480118e-05
1.4401423e-05
1.3963142e-05
1.3491255e-05
5.2239629e-06
5.6735268e-06
5.9509732e-06
6.0985744e-06
6.2305242e-06
6.2584637e-06
6.2337712e-06
6.1797409e-06
6.1348489e-06
6.1026648e-06
6.1231273e-06
6.1826307e-06
6.3087684e-06
6.4899701e-06
6.7697583e-06
7.1521628e-06
7.6400286e-06
8.2416458e-06
8.9552695e-06
9.7936704e-06
1.07482e-05
1.1840694e-05
1.3029821e-05
1.4454444e-05
3.9607493e-06
2.1323104e-06
2.1107327e-07
0
0
0
0
0
0
0
0
0
0
0
0
0
0
0
0
0
0
0
0
0
0
0
0
0
0
0
0
)
;
    }
    Cyli
    {
        type            nutkWallFunction;
        blending        stepwise;
        value           nonuniform List<scalar> 
76
(
3.7811723e-05
3.577837e-05
3.3886046e-05
3.2150142e-05
3.0567928e-05
2.9117328e-05
2.7834488e-05
2.6655424e-05
2.5616444e-05
2.4668352e-05
2.3764462e-05
2.3101025e-05
2.2557065e-05
2.2000304e-05
2.1379281e-05
2.0767318e-05
2.0267236e-05
1.9412798e-05
1.8246244e-05
1.6587834e-05
1.4720231e-05
1.0641155e-05
2.5885588e-06
0
0
0
0
0
0
0
0
0
0
0
0
0
0
0
0
0
0
0
0
0
0
0
0
0
3.8482322e-05
3.8564777e-05
3.8572466e-05
3.8536082e-05
3.8455281e-05
3.8349716e-05
3.824386e-05
3.8098523e-05
3.7646659e-05
3.7309069e-05
3.6917372e-05
3.6481514e-05
3.6193118e-05
3.6523845e-05
3.5767266e-05
3.600294e-05
3.6389468e-05
3.6835007e-05
3.7252193e-05
3.7684946e-05
3.821375e-05
3.8517295e-05
3.8752567e-05
3.9116102e-05
0
0
3.8163792e-05
3.8351958e-05
)
;
    }
    procBoundary0to1
    {
        type            processor;
        value           nonuniform List<scalar> 
44
(
0.0025982876
0.0025982876
0.0015830028
0.00099970299
0.00099970299
0.0012918056
0.0012918056
0.0022023155
0.0029494034
0.0029494034
0.0034930099
0.0034930099
0.0041396718
0.0046426681
0.0046344006
0.0046344006
0.0049297767
0.0051139107
0.0051817133
0.005139837
0.0049837321
0.0049837321
0.0051528188
0.0048090066
0.0043529525
0.0043529525
0.0041639787
0.014312471
0.012208269
0.0063366731
0.0090498359
0.011958441
0.014397017
0.015600899
0.014312471
0.015336772
0.0063366731
0.0044215472
0.009951542
0.0076086413
0.0052506867
0.0030503017
0.0012051392
0.00014404699
)
;
    }
    procBoundary0to2
    {
        type            processor;
        value           nonuniform List<scalar> 
55
(
0.00038378405
0.0004595258
0.00055442956
0.00067381624
0.00081928545
0.00030817588
0.00031336622
9.0448074e-05
0.00030817588
0.0001325422
0.0071890088
0.019988113
0.012893034
0.019988113
0.027351971
9.0448074e-05
3.9477896e-05
3.9477896e-05
4.3767326e-05
0.00032671875
0.0026539141
0.0026539141
0.0071890088
0.033956615
0.040791831
0.04889378
0.05821698
0.068688998
0.080108648
0.092137805
0.10424026
0.11556349
0.12477693
0.12989707
0.12801146
0.11166789