/*--------------------------------*- C++ -*----------------------------------*\
| =========                 |                                                 |
| \\      /  F ield         | OpenFOAM: The Open Source CFD Toolbox           |
|  \\    /   O peration     | Version:  2406                                  |
|   \\  /    A nd           | Website:  www.openfoam.com                      |
|    \\/     M anipulation  |                                                 |
\*---------------------------------------------------------------------------*/
FoamFile
{
    version     2.0;
    format      ascii;
    arch        "LSB;label=32;scalar=64";
    class       volScalarField;
    location    "0.05";
    object      omega;
}
// * * * * * * * * * * * * * * * * * * * * * * * * * * * * * * * * * * * * * //

dimensions      [0 0 -1 0 0 0 0];

internalField   nonuniform List<scalar> 
2065
(
123083.93
112149.79
102905.54
94875.348
87804.399
124178.93
118228.8
112083.81
105798.76
99535.314
96218.424
91691.578
88860.914
86859.456
46512.775
43704.573
43101.832
23305.864
22696.649
22813.345
16117.294
15772.612
13505.975
12401.807
11898.329
11348.291
11439.114
11701.483
12289.488
11825.726
13554.785
12997.806
16461.187
15668.286
15514.377
24410.223
22743.208
22209.216
22355.736
49166.754
44095.766
41836.51
40770.618
40221.826
91524.656
71347.715
54917.808
42874.506
35045.331
30852.743
29506.627
30196.215
32555.214
86074.981
67704.922
53079.789
42062.498
34744.61
30831.41
29625.953
30417.933
32914.242
80983.746
64373.158
51160.232
41098.483
34340.569
30786.323
29732.783
30638.23
33243.215
76199.916
61272.06
49324.644
40148.789
33930.661
30719.828
29826.157
30848.326
33541.161
71762.991
58391.088
47574.773
39213.14
33509.036
30628.89
29903.682
67626.093
36714.087
43371.261
54714.198
76622.882
131829.91
370484.76
37079.467
43752.456
55123.479
76914.434
131084.01
365176.69
37459.37
44152.28
55499.847
77038.051
130000.11
359396.83
37799.009
44493.991
55766.965
76996.558
128899.89
353195.96
8950.3867
10831.232
14641.67
23835.745
55588.934
263885.86
10759.145
13233.27
18137.858
29656.953
67659.138
302189.16
12789.722
15900.87
21935.294
35755.405
79773.699
341817.89
14992.245
18757.615
25911.528
41903.86
91206.948
382394.12
17319.566
21751.375
30039.459
48282.253
103827.83
424406.88
19743.832
24863.352
34314.353
54795.54
115529.48
465404.18
22226.072
28054.461
38713.233
61597.199
129041.5
504132.19
24699.642
31214.444
43001.359
67941.177
139666.13
539799.5
27109.582
34281.626
47144.289
74086.37
150863.7
571015.72
29394.307
37157.677
50945.058
79443.166
159012.96
596604.42
31503.395
39794.336
54408.754
84364.365
167535.67
615729.72
33407.855
42146.244
57437.948
88455.076
173046.45
627333.23
35061.37
44126.189
59903.899
91718.678
177967.54
631098.32
36527.85
45856.488
61974.95
94139.751
180078.14
626849.65
37663.188
47122.121
63382.439
95676.543
180780.48
615945.1
38494.224
47969.205
64184.842
95976.314
179855.33
599229.4
39052.973
48444.151
64385.18
95701.839
177446.3
577770.15
39332.243
48495.345
64058.153
94437.67
173257.05
552848.85
39371.322
48310.307
63449.665
92885.822
168599.62
525530.9
39159.742
47719.181
62173.298
90191.745
162075.23
497113.72
38826.944
47066.566
61011.957
87996.411
156583.46
468262.36
38208.609
45900.129
58892.407
84018.632
148192.2
440074.83
37731.525
45157.53
57774.064
82159.634
143589.3
412329.96
36538.425
43191.391
54511.153
76477.193
132859.83
387468.61
23024.81
18425.576
14626.88
11690.687
9605.2839
8291.8806
7654.0036
7571.6172
7985.2609
24835.144
19825.643
15747.947
12659.403
10515.875
9221.2678
8672.2602
8751.7045
9422.7015
26642.624
21261.53
16927.367
13695.046
11500.316
10239.325
9793.8964
10067.937
11035.012
28476.995
22742.945
18165.784
14795.347
12555.309
11337.205
11010.288
11501.962
12792.441
30339.945
24265.874
19451.926
15948.173
13668.187
12499.16
12302.966
13027.543
14658.382
32222.589
25818.765
20773.599
17138.556
14822.433
13705.597
13649.27
14618.058
16604.283
34097.263
27382.059
22115.154
18350.884
15999.658
14933.341
15023.144
16242.576
18593.421
35979.073
28948.218
23461.779
19569.72
17180.032
16160.307
16396.603
17866.352
20580.978
37799.155
30489.835
24796.706
20779.046
18346.101
17366.741
17743.297
19455.495
22521.739
39710.362
32072.422
26136.641
21972.42
19484.453
18538.003
19041.015
20977.795
24373.798
41513.945
33582.049
27430.308
23124.863
20577.126
19656.754
20269.95
22405.49
26095.805
43043.827
34931.979
28619.724
24205.251
21611.009
20712.625
21418.631
23724.617
27669.169
44622.727
36303.877
29808.364
25262.059
22602.886
21710.093
22486.966
24929.379
29073.219
46426.803
37808.199
31062.614
26335.625
23573.36
22656.445
23472.653
26019.593
30331.028
48389.233
39432.381
32392.17
27441.721
24535.812
23553.741
24362.628
26951.813
31355.237
50500.63
41174.922
33800.562
28584.705
25496.031
24410.522
25173.838
27733.774
32160.669
52834.754
43083.673
35313.526
29777.468
26459.648
25229.29
25908.777
28382.261
32768.507
55514.032
45236.946
36977.553
31043.899
27437.025
26013.298
26567.785
28899.847
33176.837
58624.75
47683.711
38820.891
32399.238
28435.246
26764.985
27154.42
29299.532
33409.562
62458.441
50620.292
40958.196
33900.106
29478.51
27492.16
27671.454
29588.444
33456.24
66954.213
53867.368
43260.786
35490.39
30547.872
28192.762
28122.708
29786.855
33385.684
73488.06
58586.16
46395.779
37480.139
31780.788
28929.271
28527.374
29915.124
33157.111
79033.975
62360.739
48969.191
39167.161
32839.039
29665.102
28877.882
29971.655
32925.023
94983.774
73423.743
55781.682
43167.406
35105.117
30684.505
29312.26
29991.098
32311.365
720282
197611.27
95908.956
58842.475
40441.392
29627.97
743438.15
205199.91
100953.52
62431.027
43125.042
31757.993
766345.45
212962.9
105952.44
66053.41
45902.38
33978.037
788757.89
220604.58
110907.65
69690.771
48719.776
36240.698
810062.77
228050.74
115771.08
73304.457
51545.781
38522.94
829166.77
235080.14
120597.72
76922.907
54378.173
40815.724
846141.92
241589.87
124889.22
80282.95
57101.89
43068.591
858796.89
250155.11
129958.82
83920.836
59918.48
45348.451
867502.47
256284.04
133925.52
87000.675
62453.266
47488.624
870028.03
264248.54
138813.01
90614.23
65304.276
49805.265
865363.44
269560.22
143597.39
94071.655
67934.685
51949.949
858078.3
265226.54
143557.68
95406.036
69626.276
53627.543
844919.24
264288.6
144533.25
97176.356
71507.592
55388.504
823495.9
279771.32
150750.98
100749.93
74114.334
57520.993
792879.95
284423.1
155369.36
104233.44
76890.429
59839.674
756159.55
285395.48
159031.36
107594.26
79773.302
62317.091
717109.77
286660.52
162702.45
111175.09
82923.671
65059.361
666899.66
286442.29
166708.66
115262.11
86590.717
68240.457
608947.29
288271.31
171756.2
120136.29
90939.042
72011.722
542716.73
289844.69
179802.44
127075.06
96651.016
76805.197
476030.54
298479.11
189971.51
136566.19
104364.98
82877.03
380809.49
303085.64
210753.64
149160.07
114240.48
91272.247
248948.17
260981.44
232006.22
175079.04
128486.29
100393.78
155244.83
199248.32
206245.46
190257.44
155952.67
119254.61
147654.1
107808
133564.09
164496.24
157803.93
137519.46
150858.33
55329.385
63767.326
89181.308
130107.81
129356.12
149389.96
46225.467
35225.187
41477.739
61644.09
98965.177
151535.02
47662.994
30294.777
27159.037
31948.238
48109.732
156984.04
52019.957
29755.892
22777.544
21431.43
23131.566
163181.49
51499.007
28709.73
20813.234
17541.714
16541.452
169645.58
50191.987
27427.591
19463.527
15870.114
14223.455
176442.9
49666.616
26649.695
18649.255
15010.731
13233.595
183171.95
49981.008
26127.469
18121.634
14526.972
12750.689
187716.87
50155.868
25887.676
17866.507
14293.853
12519.575
190999.02
50354.828
25807.98
17763.349
14196.334
12415.605
192121.25
50340.6
25729.68
17693.55
14139.147
12357.118
192048.01
50070.764
25554.295
17589.577
14075.468
12308.678
191894.17
49329.513
25296.061
17476.666
14012.611
12264.137
186554.8
49159.989
25289.503
17468.308
13993.796
12241.505
183024.95
48670.57
25183.688
17447.37
13987.547
12240.666
178161.04
48099.536
25154.644
17518.72
14071.366
12324.702
171599.55
47468.592
25339.291
17797.718
14345.214
12590.03
164259.38
46785.47
25759.862
18358.222
14913.372
13174.56
157844.38
46785.435
26462.866
19261.391
15933.188
14364.006
151796.99
49886.177
28246.37
20919.824
17965.137
17130.966
146025.57
48363.28
28599.819
22983.115
22793.163
25312.062
140832.05
44823.264
29441.353
28865.811
37076.129
53687.291
137806.83
45069.399
34056.853
48506.123
703332.38
196169.18
95927.297
59116.9
704161.93
194892.37
94676.324
58157.802
39994.258
29293.995
703874.94
193649.55
93591.98
57308.107
39327.626
28766.059
702936.67
192332.67
92538.407
56517.138
38723.372
28295.049
701345.41
190974.65
91538.338
55790.981
38183.09
27886.828
699402.7
189528.81
90545.292
55106.195
37695.765
27532.84
697493.3
187971.48
89540.777
54465.029
37265.056
27231.879
695041.57
186390.63
88629.97
53936.654
36922.968
26993.214
687988.61
184847.2
88028.392
53603.505
36697.456
26820.58
682688.91
183788.83
87624.257
53357.589
36513.329
26681.164
676613.67
182575.4
87191.944
53105.656
36346.32
26563.062
669915.13
181435.79
86776.817
52876.197
36201.936
26466.843
665487.55
180208.38
86215.381
52596.1
36054.782
26384.534
670448.68
179059.87
85671.624
52389.393
35976.968
26353.833
659064.16
179528.16
86183.382
52646.223
36110.25
26429.787
662661.74
180478.19
86676.007
52934.151
36289.259
26546.508
668591.14
181621.63
87131.794
53204.153
36474.207
26679.522
675451.13
182748.28
87523.095
53461.533
36667.065
26829.533
681925.37
184049.58
87985.905
53736.714
36880.585
27002.04
688684.12
185356.08
88483.604
54038.12
37115.349
27203.902
696927.76
187108.09
89193.111
54467.675
37431.425
27463.191
701798.34
188987.67
90222.131
55107.24
37881.255
27803.248
705689.83
191375.89
91542.455
55878.368
38380.058
28156.583
711582.22
191608.19
91517.923
55971.188
38517.89
28267.274
135394.49
43332.826
135428.75
699364.31
701784.28
197291.82
22476.969
22188.19
21763.165
21373.714
21054.41
20794.698
20578.246
20398.74
20252.356
20137.633
20069.373
20071.847
20121.718
20201.559
20313.795
20458.548
20641.704
20878.379
21173.584
21526.301
21942.494
22434.582
23005.781
18471.605
17919.386
17396.55
16954.292
16589.943
16292.409
16046.969
15848.211
15692.454
15578.194
15511.926
15500.823
15534.102
15605.013
15714.287
15862.263
16051.224
16290.48
16586.222
16940.646
17361.806
17865.975
18476.741
14967.842
14361.317
13841.052
13409.099
13055.438
12765.879
12529.274
12340.911
12196.842
12095.268
12037.428
12023.978
12049.714
12112.46
12212.5
12350.443
12527.995
12748.316
13019.624
13346.014
13734.243
14198.513
14763.091
11968.161
11402.189
10930.834
10543.514
10226.821
9967.2125
9757.8842
9593.6254
9470.6204
9386.3375
9339.6526
9328.9669
9351.7179
9407.3469
9496.0227
9618.4257
9776.1108
9971.2089
10207.861
10493.418
10833.267
11238.092
11726.78
9439.1459
8950.959
8548.8425
8219.835
7950.1736
7731.1574
7556.6772
7421.523
7322.2137
7256.1219
7221.2456
7215.347
7237.2663
7286.8352
7364.1922
7469.989
7605.5392
7772.6951
7974.1631
8215.3377
8502.5405
8843.3833
9251.0678
7332.0487
6932.1035
6604.4362
6336.1223
6117.5443
5941.7695
5803.2127
5697.3528
5621.092
5572.2987
5548.5489
5547.854
5569.7582
5614.0489
5680.8457
5770.7368
5884.8352
6024.7682
6192.7369
6391.9482
6627.9623
6907.2648
7238.8427
5597.391
5283.8855
5027.1042
4817.6407
4648.3343
4513.4586
4408.3933
4329.4331
4274.0924
4240.6708
4226.7123
4230.864
4252.823
4292.3573
4349.5634
4424.9354
4519.3885
4634.2866
4771.4853
4933.4132
5123.5475
5347.2168
5611.1335
4190.7064
3954.4199
3761.0757
3604.4746
3479.0741
3380.3418
3304.6568
3249.1416
3211.8435
3191.3072
3185.4937
3193.6185
3215.3494
3250.4802
3299.0993
3361.6093
3438.7419
3531.5862
3641.6294
3770.8022
3921.6234
4097.5581
4303.6366
3068.9248
2897.8357
2758.6162
2647.0047
2558.7678
2490.4363
2439.2485
2403.1032
2380.5515
2370.2263
2370.7355
2381.6804
2402.6966
2433.6399
2474.5999
2525.9032
2588.1236
2662.104
2748.9869
2850.2536
2967.7945
3104.0563
3262.3338
2192.4383
2074.4398
1979.2532
1903.9678
1845.4918
1801.2811
1769.3734
1748.275
1736.9088
1734.0626
1739.0664
1751.5579
1771.2786
1798.1494
1832.2646
1873.892
1923.4791
1981.6665
2049.309
2127.502
2217.6249
2321.4214
2441.1426
1524.944
1447.9113
1386.3411
1338.5789
1302.4622
1276.2449
1258.5412
1248.2759
1244.6247
1246.7949
1254.4332
1267.2536
1285.106
1307.969
1335.9441
1369.2549
1408.2515
1453.4192
1505.3928
1564.9723
1633.1452
1711.1188
1800.3898
1029.8707
982.30969
944.87419
916.68921
896.34683
882.63867
874.56315
871.41571
872.47551
877.42604
886.01208
898.08225
913.57567
932.51281
954.99337
981.19843
1011.3956
1045.9478
1085.3263
1130.1262
1181.0833
1239.0722
1305.0757
672.28263
644.1665
622.53534
606.99411
596.53026
590.29422
587.68913
588.15211
591.35849
597.07035
605.22067
615.77152
628.71013
644.05719
661.87863
682.29353
705.47837
731.67393
761.20028
794.48335
832.09294
874.75408
432.55996
415.56306
402.80977
393.6732
387.41895
383.5915
381.94474
382.31583
384.71496
389.08532
395.30907
403.36755
413.22467
424.85569
438.27157
453.53489
470.74468
490.02683
511.54433
535.52385
562.31011
592.53346
300.17772
289.84016
282.04492
276.0058
271.52588
268.47718
266.73212
266.18616
266.76309
268.40264
271.03069
274.64265
279.27255
284.96694
291.75693
299.77909
309.15241
319.97561
332.36289
346.47749
362.58586
381.03933
236.18739
229.44296
223.81498
218.94951
215.1415
212.32875
210.354
209.088
208.43736
208.33888
208.73438
209.60578
210.97931
212.92152
215.47715
218.77417
222.85826
227.76346
233.53535
240.25978
248.15565
257.66222
206.41592
201.3484
196.33777
191.77438
188.12655
185.31862
183.17702
181.57531
180.42046
179.628
179.11623
178.79782
178.66913
178.79046
179.51927
180.65748
182.08003
183.79253
185.83033
188.19297
191.04781
194.79948
182.93997
178.41136
173.42891
168.8712
165.22886
162.47831
160.47769
159.10078
158.2451
157.83185
157.80054
158.04678
158.47923
159.12461
159.81917
160.49921
161.16028
161.81505
162.48637
163.02768
163.59422
164.48139
163.86395
159.00635
154.45818
150.65757
147.746
145.53528
143.80727
142.40687
141.23029
140.21854
139.38611
138.86913
138.73884
138.77011
138.91069
139.14754
139.48787
139.94159
140.54729
141.63678
143.22385
145.13526
145.89111
142.26063
138.68326
135.53117
133.02423
131.13738
129.79331
128.91869
128.42635
128.19677
128.14923
128.15676
128.13507
128.09768
128.06484
128.05179
128.07538
128.15112
128.21406
128.17657
128.1427
128.38295
133.64425
129.69822
126.2474
123.52236
121.55359
120.18069
119.21048
118.49948
117.98007
117.63538
117.39322
117.22092
117.1028
117.03115
117.00246
117.01453
117.06292
117.15314
117.38112
117.83088
118.44884
119.10131
123.03368
120.17448
117.81136
115.95347
114.55089
113.5568
112.8642
112.38517
112.0479
111.79867
111.60926
111.46136
111.34187
111.24264
111.16206
111.10221
111.05761
111.0015
110.91305
110.78667
110.73478
110.87368
116.47441
113.4649
111.0778
109.33301
108.19058
107.43586
106.93264
106.59375
106.36225
106.2008
106.08532
106.0005
105.93686
105.88779
105.84904
105.82457
105.8327
105.90902
106.04682
106.19753
106.35977
106.52265
110.67373
108.40304
106.75999
105.59008
104.75047
104.18216
103.80569
103.55558
103.38558
103.26529
103.17543
103.10376
103.04457
102.99332
102.93924
102.88477
102.82478
102.75646
102.69937
102.69535
102.71421
102.75181
107.13273
104.90743
103.33078
102.27542
101.64383
101.26639
101.0388
100.89889
100.81013
100.75162
100.71119
100.68226
100.66423
100.65893
100.67199
100.69673
100.72856
100.76417
100.79564
100.81716
100.83556
100.8529
103.79276
102.14044
101.06203
100.38788
99.979686
99.737493
99.593553
99.50535
99.447962
99.408027
99.37964
99.360951
99.347721
99.337169
99.327895
99.319385
99.31183
99.306041
99.301374
99.297758
99.298792
99.304347
101.40051
100.17529
99.470478
99.081219
98.871452
98.759069
98.698379
98.664895
98.646216
98.636375
98.632091
98.631126
98.63155
98.631943
98.632172
98.632254
98.632029
98.63151
98.63048
98.629214
98.628906
98.630497
99.73192
99.039404
98.677051
98.488195
98.392602
98.342807
98.315445
98.299906
98.291583
98.287462
98.285684
98.285085
98.285245
98.285788
98.286645
98.287742
98.288977
98.29062
98.292578
98.294569
98.296417
98.29771
98.827743
98.512483
98.358564
98.277471
98.229982
98.204045
98.188861
98.180048
98.176429
98.175763
98.176708
98.178073
98.179675
98.181886
98.18446
98.187057
98.18962
98.192206
98.194737
98.196792
98.198149
98.198378
98.474165
98.338398
98.264382
98.228009
98.211217
98.203775
98.197863
98.197124
98.199871
98.202295
98.204176
98.205425
98.206177
98.206556
98.20665
98.206471
98.206031
98.205605
98.205382
98.203787
98.201284
98.199128
98.404504
98.373906
98.363219
98.357506
98.354441
98.35286
98.352004
98.351823
98.35197
98.352148
98.35227
98.352319
98.352311
98.352264
98.352184
98.352071
98.351938
98.351827
98.351667
98.351206
98.350696
98.350133
7001.8062
6728.8951
6873.9051
7515.6169
8746.2209
10654.587
13298.462
16591.518
20170.384
6326.1526
6081.8663
6205.5059
6756.5221
7794.3339
9367.1635
11477.05
14030.786
16824.218
5607.6943
5401.7857
5510.6291
5978.8273
6843.518
8124.8732
9797.5879
11767.172
13871.631
4867.6523
4701.7773
4799.6433
5192.9497
5902.6436
6929.9846
8235.5815
9728.1441
11271.823
4129.9339
4000.1703
4088.156
4414.0224
4986.5638
5795.0678
6795.0468
7905.0908
9012.6378
3415.9011
3316.9912
3394.9715
3660.4766
4113.6783
4737.3419
5488.0284
6297.8017
7080.6685
2747.137
2673.472
2740.8013
2952.8031
3304.292
3775.6683
4328.1844
4908.1651
5454.3026
2149.5021
2091.8499
2146.4343
2311.166
2577.6571
2926.6312
3325.6346
3734.2804
4110.9567
1645.4662
1591.044
1629.3103
1752.0219
1948.4982
2201.1901
2484.0505
2767.4199
3024.4004
1260.4343
1186.0772
1202.5192
1287.1682
1426.404
1604.2511
1800.4294
1993.5453
2166.523
1045.2397
895.47452
870.33338
918.3727
1010.8519
1131.64
1264.2946
1393.5555
1508.4205
982.5807
745.24895
649.00332
644.30843
693.65092
771.12838
857.94765
942.66478
1017.8484
979.81151
691.55618
540.82968
485.08424
485.34497
517.76625
565.83798
616.6824
663.25414
991.10422
683.54471
501.43498
409.29493
374.02858
371.83092
385.75003
406.83095
428.62619
964.20592
674.99558
492.39089
382.92722
325.31169
300.4807
294.22233
296.19823
301.07235
924.35641
634.85144
469.28467
372.11057
308.20051
271.08447
254.57663
246.29771
241.31824
876.63571
606.90033
436.45115
336.69071
283.99384
254.74683
236.23889
223.97995
214.08669
814.08982
557.76715
407.46957
316.66149
258.19191
224.52107
207.04814
197.42603
189.50981
755.75516
518.8298
371.10107
284.20349
235.99955
207.73448
190.58093
179.64312
170.92457
699.4007
476.99407
343.13088
262.4084
212.39801
183.56435
167.66855
158.25609
151.37823
650.14195
442.78625
314.65173
238.82126
195.62452
170.36544
155.13015
145.80308
139.08607
612.32214
416.03884
295.49124
223.01576
179.7128
154.79511
140.89791
132.73618
127.27762
559.58289
380.71107
270.98822
205.87404
168.00996
145.94708
133.05415
125.41235
120.45697
529.74946
359.8111
255.44059
193.23668
156.86204
136.07685
124.43068
117.84363
113.82717
474.21943
324.79115
233.25452
179.09185
147.72093
129.74874
119.48664
113.57323
110.01088
441.81399
303.3824
218.66199
168.5116
139.44011
123.00276
113.90119
108.88652
106.04373
379.50774
263.58106
193.04141
151.8081
128.57667
115.81337
108.9072
105.16332
103.07639
344.67791
241.30535
178.63994
142.20804
121.79918
110.85654
105.18673
102.30405
100.83326
265.71011
191.77711
148.00418
123.63216
110.90167
104.57234
101.52205
100.06089
99.352581
214.7521
160.85927
129.687
113.12393
105.00191
101.29427
99.689274
99.003437
98.695348
130.61578
114.74276
106.20664
101.94946
99.963198
99.082713
98.70358
98.53916
98.463719
7743.7343
6992.396
6175.7173
5337.9904
4513.3376
3723.9043
2990.4354
2347.1256
1825.4567
1499.3145
1400.3019
1425.8936
1461.6447
1465.039
1420.4962
1379.171
1300.9185
1224.5053
1133.7395
1062.6524
988.113
935.56004
857.4692
813.75184
726.17468
676.71031
577.85724
522.88949
396.24243
309.73702
161.6919
9230.3568
8333.4328
7321.7439
6292.5637
5301.8072
4371.7939
3517.4199
2793.5497
2293.416
2110.433
2223.5261
2327.5314
2351.1094
2355.0487
2296.3314
2234.7529
2123.1263
2007.6314
1870.5173
1766.4014
1652.3913
1574.7294
1455.5554
1388.0238
1244.4291
1165.607
1000.6461
907.57165
690.45066
522.84524
241.37751
12241.691
11067.845
9652.3304
8229.8638
6914.4176
5731.2062
4672.9479
3914.1043
3612.1719
3861.999
4191.4984
4289.3945
4322.2201
4337.3675
4275.0569
4153.256
4003.2156
3785.9551
3572.5266
3380.4782
3197.1787
3061.9552
2866.2962
2747.8786
2496.5617
2350.2633
2068.5778
1879.9938
1479.9235
1099.5707
479.63594
19510.689
17676.118
15311.926
12929.127
10867.808
9227.4824
8150.9708
7555.1294
8371.1454
9031.113
9312.7673
9426.516
9510.1487
9564.1736
9542.1283
9315.7079
9038.8192
8715.9095
8306.1916
7955.7109
7620.9522
7321.505
7022.1067
6732.6008
6321.0064
5953.3308
5507.4607
5037.0417
4285.3607
3266.6359
1522.2805
44947.855
40457.108
35538.031
30304.062
25932.37
23171.127
23716.454
25234.854
26559.264
27146.976
27352.31
27539.854
27778.735
28040.848
28293.178
28527.463
27777.23
27073.567
26249.544
25439.44
24652.135
23982.849
23382.973
22759.043
21971.972
21229.452
20514.456
19684.392
18244.339
15675.755
9867.0257
234990.81
215326.9
196051.72
173390.48
153541.49
139599.63
135160.89
134270.95
134465.41
134716.97
134864.47
134863.64
134673.94
134289.29
133462.88
132483.35
131974.34
130745.35
129818.92
128969.15
128264.51
127623.99
127090.64
126612.78
126387.96
126317.05
126245.7
126198.46
126226.51
126400.58
127157.06
)
;

boundaryField
{
    Side1
    {
        type            empty;
    }
    Inlet
    {
        type            inletOutlet;
        inletValue      uniform 98.392324;
        value           uniform 98.392324;
    }
    Side2
    {
        type            empty;
    }
    Outlet
    {
        type            zeroGradient;
    }
    Botwall
    {
        type            omegaWallFunction;
        blending        binomial;
        n               2;
        value           nonuniform List<scalar> 
59
(
370484.76
365176.69
359396.83
353195.96
263885.86
302189.16
341817.89
382394.12
424406.88
465404.18
504132.19
539799.5
571015.72
596604.42
615729.72
627333.23
631098.32
626849.65
615945.1
599229.4
577770.15
552848.85
525530.9
497113.72
468262.36
440074.83
412329.96
387468.61
234990.81
215326.9
196051.72
173390.48
153541.49
139599.63
135160.89
134270.95
134465.41
134716.97
134864.47
134863.64
134673.94
134289.29
133462.88
132483.35
131974.34
130745.35
129818.92
128969.15
128264.51
127623.99
127090.64
126612.78
126387.96
126317.05
126245.7
126198.46
126226.51
126400.58
127157.06
)
;
    }
    Cyli
    {
        type            omegaWallFunction;
        blending        binomial;
        n               2;
        value           nonuniform List<scalar> 
76
(
720282
743438.15
766345.45
788757.89
810062.77
829166.77
846141.92
858796.89
867502.47
870028.03
865363.44
858078.3
844919.24
823495.9
792879.95
756159.55
717109.77
666899.66
608947.29
542716.73
476030.54
380809.49
248948.17
155244.83
147654.1
150858.33
149389.96
151535.02
156984.04
163181.49
169645.58
176442.9
183171.95
187716.87
190999.02
192121.25
192048.01
191894.17
186554.8
183024.95
178161.04
171599.55
164259.38
157844.38
151796.99
146025.57
140832.05
137806.83
703332.38
704161.93
703874.94
702936.67
701345.41
699402.7
697493.3
695041.57
687988.61
682688.91
676613.67
669915.13
665487.55
670448.68
659064.16
662661.74
668591.14
675451.13
681925.37
688684.12
696927.76
701798.34
705689.83
711582.22
135394.49
135428.75
699364.31
701784.28
)
;
    }
    procBoundary0to1
    {
        type            processor;
        value           nonuniform List<scalar> 
44
(
81477.158
81477.158
93212.948
84948.505
84948.505
43615.552
43615.552
23583.723
15970.082
15970.082
13211.281
13211.281
12108.874
11595.639
11648.504
11648.504
11521.015
11444.924
11394.521
11356.779
11338.101
11338.101
10980.525
11067.32
11290.928
11290.928
11760.114
31038.541
33805.393
55644.142
45870.444
38273.399
33074.319
30499.435
31038.541
29954.727
55644.142
63734.923
38095.082
44778.247
55948.208
76800.327
127257.06
346607.68
)
;
    }
    procBoundary0to2
    {
        type            processor;
        value           nonuniform List<scalar> 
55
(
95987.778
91792.988
87267.319
82604.691
77909.408
76332.681
97617.263
69862.152
76332.681
110725.79
97082.519
40682.073
59944.08
40682.073
29745.38
69862.152
127427.26
127427.26
179743.18
695821.65
198221.56
198221.56
97082.519
23575.617
19202.699
15463.438
12332.765
9749.1367
7637.632
5924.5425
4545.8747
3446.6405
2579.285
1902.5437
1379.9002
923.19615
923.19615
627.0246
402.32599
269.26124
200.01958
166.12067
147.16693
129.15055
119.79521
111.12643
106.66855
102.78646
100.85837
99.306195
98.631622
98.296642
98.196
98.196524
98.349516
)
;
    }
    procBoundary0to3
    {
        type            processor;
        value           nonuniform List<scalar> 7(12908.444 12908.444 15770.896 15770.896 22897.786 22897.786 39984.312);
    }
}


// ************************************************************************* //
