/*--------------------------------*- C++ -*----------------------------------*\
| =========                 |                                                 |
| \\      /  F ield         | OpenFOAM: The Open Source CFD Toolbox           |
|  \\    /   O peration     | Version:  2406                                  |
|   \\  /    A nd           | Website:  www.openfoam.com                      |
|    \\/     M anipulation  |                                                 |
\*---------------------------------------------------------------------------*/
FoamFile
{
    version     2.0;
    format      ascii;
    arch        "LSB;label=32;scalar=64";
    class       volScalarField;
    location    "0.05";
    object      p;
}
// * * * * * * * * * * * * * * * * * * * * * * * * * * * * * * * * * * * * * //

dimensions      [1 -1 -2 0 0 0 0];

internalField   nonuniform List<scalar> 
2065
(
100358.77
100367.58
100372.37
100374.55
100375.23
100372.97
100376.47
100379.23
100379.45
100377.39
100382.42
100380.29
100378.12
100374.67
100376.72
100372.85
100368.63
100366.31
100362.65
100357.83
100358.08
100355.02
100353.27
100352.51
100355.06
100389.23
100390.51
100391.59
100393.07
100393.37
100395.02
100395.12
100398.52
100398.28
100397.83
100403.47
100402.37
100401.88
100401.51
100410.22
100408.38
100408.18
100407.97
100407.84
100349.52
100321.25
100286.63
100253.13
100225.96
100205.58
100188.84
100174.28
100161.45
100357.72
100330.65
100299.73
100270.68
100246.71
100227.21
100210.94
100196.84
100184.57
100358.35
100334.07
100309.15
100285.22
100264.61
100247.25
100232.24
100219.08
100207.69
100361.59
100342.08
100321.91
100301.64
100283.4
100267.72
100253.9
100241.72
100231.17
100365.11
100350.05
100333.78
100316.78
100301.05
100287.19
100274.79
100366.52
100147.64
100132.81
100118.72
100106.35
100097.09
100090.74
100171.58
100158.2
100145.62
100134.68
100126.69
100121.75
100195.72
100183.48
100172.03
100162.1
100154.7
100149.92
100220.19
100208.92
100198.34
100189.1
100182.07
100177.4
101414.87
101483.19
101553.37
101614.16
101652.56
101667.53
101276.57
101348.84
101420.31
101480.44
101518.1
101533.16
101131.75
101205.22
101275.7
101333.94
101370.42
101384.89
100977.63
101049.93
101117.53
101172.88
101208.29
101223.19
100816.43
100886.42
100950.83
101003.76
101039.08
101055.87
100652.83
100720.31
100781.83
100832.16
100865.82
100884.29
100485.59
100548.17
100604.43
100649.98
100679.89
100695.64
100319.97
100376.25
100426.11
100466.22
100492.53
100506.08
100163.41
100212.93
100256.15
100290.75
100313.71
100325.62
100021.65
100064.06
100100.48
100129.55
100149.18
100159.39
99901.102
99936.462
99966.354
99989.762
100005.31
100013.69
99806.125
99834.022
99857.182
99875.062
99886.725
99893.037
99740.993
99761.754
99778.473
99791.331
99799.622
99803.921
99710.343
99721.857
99730.316
99736.02
99739.421
99741.278
99696.369
99704.354
99709.997
99713.835
99716.19
99717.137
99709.49
99713.157
99714.422
99714.218
99713.574
99712.663
99740.295
99739.152
99736.405
99732.889
99729.572
99726.912
99783.416
99778.426
99772.594
99766.779
99761.921
99758.326
99835.985
99827.674
99819.028
99811.014
99804.689
99800.192
99893.356
99882.418
99871.553
99861.744
99854.137
99848.858
99951.931
99939.088
99926.671
99915.684
99907.275
99901.541
100008.5
99994.504
99981.114
99969.219
99959.992
99953.762
100062.32
100047.37
100033.27
100020.99
100011.63
100005.45
100108.22
100094.08
100080.53
100068.32
100058.57
100051.54
101932.63
101762.74
101588.24
101424.26
101303.25
101241.33
101238.3
101280.55
101346.1
101644.73
101489.23
101329.45
101194.02
101101.54
101062.33
101076.08
101130.16
101203.64
101321.88
101203.38
101076.28
100971.09
100904.25
100884.94
100913.03
100976.6
101055.78
100998.23
100915.55
100823.87
100748.7
100706.72
100706.15
100747.04
100818.16
100900.81
100673.57
100625.42
100566.56
100522.99
100507.86
100526.26
100579.14
100656.28
100740.45
100351.72
100337.56
100313.84
100301.1
100311.38
100348.91
100412.62
100494.16
100578.45
100044.44
100062.08
100072.36
100090.04
100123.99
100178.03
100250.31
100333.6
100415.29
99761.276
99807.961
99849.542
99895.379
99950.702
100018.21
100096.25
100178.67
100255.5
99511.46
99583.382
99652.242
99722.909
99796.456
99874.402
99955.544
100034.97
100105.59
99306.179
99396.773
99488.058
99578.574
99666.365
99751.75
99833.442
99908.003
99971.197
99098.851
99224.943
99347.85
99459.899
99561.676
99654.096
99734.742
99803.03
99858.19
99017.753
99133.134
99255.654
99372.833
99484.219
99584.953
99663.549
99724.655
99771.29
98976.762
99105.662
99240.708
99372.628
99479.595
99560.544
99623.773
99674.509
99713.58
98986.76
99113.916
99245.343
99370.996
99478.576
99563.25
99628.829
99670.477
99694.353
99047.496
99164.331
99285.693
99400.919
99500.183
99576.499
99629.978
99663.9
99684.015
99157.893
99258.647
99363.722
99465.735
99552.162
99616.472
99659.885
99686.821
99701.687
99304.479
99382.948
99467.737
99551.924
99623.913
99677.084
99711.333
99730.079
99738.062
99477.555
99529.995
99590.039
99652.959
99708.139
99748.512
99772.736
99783.633
99785.72
99664.599
99689.234
99721.847
99761.558
99798.751
99825.916
99840.584
99844.714
99842.023
99849.109
99847.188
99853.261
99870.209
99889.8
99904.398
99910.47
99908.875
99902.352
100013.66
99991.303
99975.493
99972.578
99976.423
99979.831
99978.595
99972.422
99963.061
100147.18
100111.73
100080.7
100062.93
100054.41
100048.84
100041.8
100032.19
100020.93
100244.56
100209.07
100171.06
100142.92
100124.43
100111.57
100100.11
100088.13
100075.64
100298.67
100259.9
100221.62
100192.31
100171.11
100156.41
100144.28
100132.59
100120.89
102240.63
102306.81
102294.54
102236.66
102169.22
102106.57
101759.31
101865.72
101880.21
101850.54
101813.63
101781.35
101269.29
101413.31
101451.44
101449.28
101440.1
101432.15
100782.38
100955.71
101015.5
101040.78
101059.8
101078.1
100304.46
100504.31
100581.74
100632.44
100677.34
100719.93
99844.689
100068.6
100160.2
100234.26
100302.41
100366.43
99414.227
99657.357
99765.02
99858.4
99946.322
100029.12
99024.67
99283.059
99404.378
99514.293
99618.983
99718.156
98691.686
98960.296
99091.038
99214.448
99333.009
99444.195
98417.07
98696.114
98839.599
98972.575
99101.816
99220.992
98249.806
98513.093
98624.205
98780.72
98914.229
99005.375
98078.051
98375.158
98471.128
98577.054
98715.416
98883.853
97905.949
98199.987
98342.556
98505.953
98674.583
98836.374
97822.46
98209.896
98398.624
98559.953
98710.641
98852.398
97989.335
98347.901
98494.351
98635.976
98781.515
98919.116
98226.514
98515.463
98640.569
98771.944
98910.134
99039.667
98483.162
98729.658
98847.429
98966.293
99090.555
99205.525
98786.774
98998.624
99101.624
99204.543
99308.558
99404.303
99149.826
99320.092
99394.69
99469.534
99546.806
99617.575
99542.924
99661.579
99701.367
99741.886
99787.336
99829.863
99927.684
99985.872
99986.488
99988.672
100001.1
100017.03
100197.16
100231.1
100207.99
100183.59
100171.14
100165.86
100329.78
100332.06
100314.12
100293.75
100276.44
100262.91
100342.35
100342.35
100346.93
100340.25
100332.88
100322.83
100314.62
100350.45
100353.01
100353.02
100350.79
100353.78
100341.37
100349.25
100352.3
100356.48
100361.96
100374.7
100348.39
100351.5
100354.36
100358.93
100365.16
100385
100350.16
100354.54
100356.1
100360.29
100366.96
100380.1
100348.88
100354.73
100356.3
100358.86
100362.64
100368.22
100349.93
100353.5
100355.22
100356.79
100358.35
100360.08
100352.86
100355.15
100355.82
100356.18
100356.22
100355.98
100359.21
100359.7
100359.06
100358.18
100357.23
100356.01
100368.28
100366.94
100364.73
100362.26
100359.96
100358.11
100379.77
100377.25
100373.1
100368.91
100365.39
100362.54
100392.74
100388.57
100382.52
100376.71
100372.19
100368.68
100404.32
100399.02
100391.92
100384.72
100379.15
100375.19
100412.36
100406.1
100398.36
100390.88
100385.14
100381.16
100418.16
100407.78
100400.9
100394.34
100389.22
100385.75
100416.31
100410.56
100404.09
100397.63
100392.71
100389.52
100411.32
100407.53
100402.42
100397.53
100393.75
100391.4
100404.76
100402.45
100399.14
100395.9
100393.5
100392.27
100399.23
100398.2
100396.59
100394.91
100393.73
100393.34
100394.93
100395.26
100394.86
100394.45
100394.31
100394.72
100391.97
100393.59
100394.02
100394.51
100395.12
100396.14
100390.54
100393.78
100394.6
100395.88
100397.63
100399.67
100391.61
100394.25
100395.15
100397.58
100401.54
100406.32
100392.37
100393.82
100394.73
100398.94
100405.19
100414.67
100391.72
100392.92
100394.6
100397.53
101114.86
101278.49
101345.95
101369.4
101565.31
101692.9
101736.47
101735.84
101712.81
101672.85
102013.43
102107.05
102126.02
102100.48
102052.98
101987.42
102452.79
102513.82
102507.84
102457.36
102385.43
102296.79
102877.46
102906.61
102875.41
102800.16
102704.75
102594.1
103281.68
103278.65
103221.74
103122.08
103004.86
102875.52
103651.19
103617.81
103536.16
103414.35
103278.39
103136.04
103963.89
103912.92
103811.55
103673.77
103522
103368.46
104238.53
104185.16
104065.34
103911.57
103747.99
103576.24
104485.73
104418.15
104284.44
104117.24
103936.11
103751.02
104687.64
104605.46
104461.84
104279.93
104086.55
103891.61
104846.25
104753.85
104599.29
104405.56
104201.93
103998.38
104956.61
104848.18
104685.23
104488.04
104280.72
104072.51
105012.19
104857.25
104691.98
104503.56
104302.54
104097.3
104990.48
104882.43
104715.14
104513.85
104303.27
104092.2
104928.97
104832.56
104672.95
104473.26
104262.4
104050.69
104802.83
104713.2
104560.28
104368.93
104165.62
103960.54
104634.09
104553.1
104406.83
104227.36
104033.03
103834.33
104421.07
104354.04
104217.83
104046.97
103864.81
103674.71
104159.68
104106.29
103984.54
103824.31
103650.62
103472.59
103865
103814.66
103709.76
103565.7
103403.89
103238.94
103533.02
103496.22
103409.06
103281.3
103136.32
102982.85
103143.51
103135.29
103070.64
102962.15
102834.63
102701.59
102706.03
102729.78
102687.68
102597.75
102486.91
102392.2
100392.07
100394.82
100389.88
100244.12
100673.14
100872.05
102514.73
102726.01
102955.42
103179.93
103376.46
103544.95
103678.02
103783.46
103855.65
103890.61
103896.29
103869.52
103803.64
103711.04
103588.88
103438.15
103258.65
103053.88
102828.5
102584.61
102326.15
102056
101788.13
102565.8
102702.77
102909.38
103107.15
103270.51
103409.79
103521.28
103608.08
103664.94
103693.81
103697.32
103669.1
103610.79
103530.33
103424.26
103292.86
103139
102964.96
102770.53
102555.97
102326.27
102082.42
101838.75
102586.05
102689.13
102871.72
103034.75
103166.41
103273.67
103363.55
103430.73
103473
103494.98
103494.72
103466.61
103416.27
103348
103258.93
103149.58
103022.29
102875.66
102712.77
102530.24
102334.09
102122.43
101903.94
102589.17
102672.35
102824.61
102951.91
103053.02
103136.2
103204.27
103253.38
103283.88
103299.36
103294.99
103268.07
103225.22
103167.82
103093.91
103003.92
102899.36
102780.3
102641.6
102492.04
102328.05
102149.39
101962.58
102581.62
102647.47
102763.74
102857.57
102933.67
102996.5
103045.8
103080.22
103102.09
103111.35
103102.69
103077.76
103041.63
102993.71
102932.86
102859.25
102773.24
102674.94
102565.61
102444.06
102309.03
102159.89
102005.4
102561.31
102602.27
102688.44
102756.87
102813.14
102858.69
102892.95
102916.3
102930.65
102933.64
102922.09
102899.7
102869.2
102829.32
102779.63
102720.26
102651.31
102572.83
102485.7
102389.05
102281.38
102158.87
102032.33
102529.82
102546.01
102600.22
102653.17
102695.75
102727.71
102750.29
102765.69
102773.35
102770.22
102757.16
102737.36
102711.33
102678.09
102637.56
102589.87
102535.03
102473.02
102404.02
102328.07
102244.35
102148.94
102046.76
102484.28
102486.13
102521.21
102559.95
102589.58
102609.96
102623.36
102631.6
102632.93
102625.49
102612.03
102594.25
102571.56
102543.56
102510.31
102471.86
102428.2
102379.27
102325.06
102265.53
102200.1
102127.12
102049.78
102445.14
102437.99
102456.48
102480.31
102497.97
102509.07
102515.83
102517.81
102513.12
102503.16
102490.03
102473.61
102453.4
102429.39
102401.65
102370.2
102335
102296
102253.22
102206.54
102155.23
102097.94
102039.58
102407.75
102391.81
102399.64
102413.83
102423.7
102428.97
102430.09
102426.05
102417.93
102407.39
102394.51
102378.9
102360.52
102339.44
102315.69
102289.24
102260.07
102228.13
102193.41
102155.86
102114.78
102068.89
102022.54
102374.33
102358.5
102361.31
102369.13
102373.51
102372.95
102368.52
102361.33
102352.28
102341.46
102328.64
102313.77
102296.86
102277.93
102256.96
102233.93
102208.81
102181.55
102152.13
102120.41
102085.86
102047.97
102010.62
102358.53
102346.22
102346.24
102347.6
102346.8
102343.09
102337.28
102329.78
102320.79
102310.35
102298.27
102284.48
102268.96
102251.68
102232.62
102211.78
102189.12
102164.66
102138.34
102109.87
102078.61
102045.29
102017.58
102360.17
102353.98
102351.02
102348.4
102344.78
102340.02
102334.17
102327.11
102318.77
102309.13
102298.17
102285.87
102272.17
102256.97
102240.24
102221.95
102202.08
102180.64
102157.59
102132.62
102105.02
102075.32
102349.44
102348.14
102345.19
102341.6
102337.34
102332.26
102326.22
102319.19
102311.32
102302.55
102292.93
102282.57
102271.27
102258.96
102245.6
102231.19
102215.7
102199.13
102181.5
102162.63
102141.91
102119.17
102322.72
102320.89
102316.86
102312.12
102306.85
102301.02
102294.61
102287.65
102280.19
102272.2
102263.72
102254.74
102245.23
102235.19
102224.59
102213.44
102201.74
102189.51
102176.82
102163.76
102150.33
102136.53
102285.37
102280.21
102274.04
102267.88
102261.67
102255.29
102248.75
102242.04
102235.19
102228.18
102220.98
102213.57
102205.91
102197.94
102189.61
102180.87
102171.67
102161.97
102151.77
102141.05
102129.86
102118.62
102235.82
102229.6
102222.83
102216.31
102209.91
102203.52
102197.12
102190.73
102184.36
102178.02
102171.72
102165.46
102159.24
102153.06
102146.89
102140.71
102134.49
102128.19
102121.75
102115.08
102108.13
102100.94
102183.92
102177.61
102170.94
102164.5
102158.21
102151.98
102145.78
102139.64
102133.55
102127.52
102121.54
102115.63
102109.77
102103.99
102098.28
102092.66
102087.13
102081.71
102076.41
102071.24
102066.2
102061.33
102130.92
102125.04
102118.89
102112.98
102107.25
102101.64
102096.12
102090.71
102085.41
102080.22
102075.14
102070.16
102065.27
102060.48
102055.78
102051.17
102046.65
102042.2
102037.84
102033.55
102029.34
102025.3
102078.4
102073.16
102067.72
102062.49
102057.41
102052.44
102047.55
102042.75
102038.05
102033.44
102028.93
102024.52
102020.23
102016.04
102011.96
102008.01
102004.17
102000.46
101996.89
101993.44
101990.12
101986.97
102028.28
102023.91
102019.4
102015.05
102010.83
102006.71
102002.67
101998.72
101994.85
101991.07
101987.38
101983.77
101980.26
101976.82
101973.48
101970.22
101967.06
101963.99
101961.02
101958.15
101955.4
101952.8
101980.27
101976.7
101973
101969.44
101965.97
101962.57
101959.24
101955.98
101952.78
101949.65
101946.59
101943.61
101940.7
101937.86
101935.1
101932.41
101929.81
101927.29
101924.86
101922.52
101920.28
101918.15
101937.47
101934.75
101931.93
101929.2
101926.54
101923.92
101921.35
101918.82
101916.34
101913.9
101911.51
101909.17
101906.87
101904.62
101902.41
101900.26
101898.17
101896.13
101894.15
101892.24
101890.4
101888.65
101898.63
101896.58
101894.45
101892.37
101890.32
101888.31
101886.32
101884.35
101882.41
101880.49
101878.61
101876.75
101874.92
101873.12
101871.35
101869.61
101867.92
101866.26
101864.64
101863.06
101861.54
101860.08
101867.03
101865.58
101864.07
101862.57
101861.09
101859.62
101858.16
101856.7
101855.25
101853.8
101852.37
101850.94
101849.52
101848.11
101846.71
101845.32
101843.95
101842.59
101841.25
101839.93
101838.63
101837.37
101840.29
101839.3
101838.26
101837.22
101836.17
101835.13
101834.08
101833.02
101831.97
101830.9
101829.84
101828.77
101827.7
101826.64
101825.57
101824.5
101823.43
101822.37
101821.31
101820.26
101819.21
101818.17
101822.13
101821.45
101820.72
101819.99
101819.25
101818.49
101817.73
101816.95
101816.17
101815.38
101814.58
101813.77
101812.95
101812.13
101811.29
101810.45
101809.6
101808.75
101807.89
101807.02
101806.16
101805.3
101806.05
101805.61
101805.14
101804.66
101804.17
101803.66
101803.14
101802.61
101802.07
101801.51
101800.94
101800.36
101799.77
101799.16
101798.54
101797.91
101797.27
101796.61
101795.94
101795.25
101794.55
101793.84
101796.93
101796.51
101796.07
101795.45
101794.89
101794.36
101793.84
101793.33
101792.81
101792.29
101791.79
101791.3
101790.81
101790.33
101789.84
101789.34
101788.83
101788.3
101787.77
101787.24
101786.7
101786.16
101812.25
101811.8
101811.29
101810.71
101810.05
101809.33
101808.27
101807.57
101806.75
101805.9
101805.04
101804.17
101803.28
101802.38
101801.48
101800.58
101799.67
101798.79
101797.94
101797.16
101796.43
101795.7
101806.34
101806.06
101805.77
101805.45
101805.08
101804.64
101804.12
101803.52
101802.85
101802.13
101801.37
101800.6
101799.84
101799.08
101798.32
101797.55
101796.74
101795.83
101794.41
101792.58
101791.66
101790.99
101452.31
101391.07
101349.53
101350.32
101407.13
101520.85
101673.17
101817.95
101962.87
101548.79
101491.24
101452.35
101454.21
101510.68
101623.48
101778.89
101937.21
102065.31
101647.24
101593.68
101556.49
101556.47
101607.41
101711.75
101858.08
102011.59
102127.48
101748.8
101699.39
101663.84
101661.18
101704.65
101796.99
101927.25
102064.23
102166.89
101850.63
101806.16
101772.74
101767.25
101802.07
101880.04
101990.86
102107.54
102196.58
101949.88
101910.91
101880.1
101871.85
101897.36
101959.59
102049.6
102145.32
102221.59
102043.88
102010.58
101982.64
101971.9
101988.34
102035.51
102107.43
102187.21
102250.08
102131.92
102103.28
102077.8
102065.27
102074.99
102112
102173.74
102241.88
102274.33
102207.6
102185.19
102164.25
102153.46
102160.7
102187.13
102221.33
102254.01
102271.61
102265.49
102249.41
102233.63
102223.83
102220.02
102223.73
102243.1
102271.96
102283.58
102305.77
102300.19
102287.88
102273.49
102265.18
102268.53
102280.74
102294.2
102295.46
102316.56
102319.43
102323.94
102326.69
102326.27
102325.4
102326.55
102327.05
102321.25
102316.71
102318.86
102322.55
102328.88
102337.47
102345.41
102350.59
102353.1
102352.07
102308.81
102311.64
102314.91
102318.92
102324.37
102331.07
102338.17
102345.11
102350.38
102290.54
102292.87
102296.34
102300.74
102305.49
102310.16
102314.76
102319.38
102323.41
102261.9
102263.74
102266.21
102269.4
102273.38
102277.67
102281.6
102284.9
102287.03
102224.49
102225.72
102227.38
102229.37
102231.47
102233.49
102235.48
102237.37
102238.47
102180.48
102181.37
102182.48
102183.64
102184.81
102185.83
102186.61
102187.24
102187.29
102131.99
102132.55
102133.24
102133.92
102134.35
102134.54
102134.6
102134.66
102134.31
102081.87
102082.26
102082.69
102083
102083.11
102082.97
102082.62
102082.26
102081.62
102032
102032.27
102032.56
102032.73
102032.7
102032.43
102032.05
102031.68
102031.05
101984.23
101984.41
101984.56
101984.6
101984.46
101984.12
101983.65
101983.18
101982.58
101940.62
101940.76
101940.89
101940.92
101940.8
101940.51
101940.13
101939.76
101939.27
101901.44
101901.52
101901.59
101901.57
101901.42
101901.14
101900.78
101900.43
101900.02
101869.27
101869.33
101869.36
101869.33
101869.19
101868.95
101868.65
101868.37
101868.05
101842.16
101842.17
101842.17
101842.11
101841.98
101841.77
101841.51
101841.26
101841.01
101823.84
101823.83
101823.79
101823.7
101823.55
101823.33
101823.09
101822.87
101822.65
101807.24
101807.23
101807.2
101807.14
101807.04
101806.89
101806.72
101806.55
101806.4
101799.6
101799.44
101799.21
101798.98
101798.7
101798.37
101798.02
101797.66
101797.31
101814.67
101814.56
101814.42
101814.23
101813.99
101813.71
101813.4
101813.05
101812.68
101807.99
101807.9
101807.79
101807.66
101807.52
101807.36
101807.18
101806.96
101806.7
101518.78
101613.1
101706.93
101803.23
101898.89
101991.36
102078.45
102160.2
102227.92
102277.07
102305.85
102315.34
102315.25
102307.04
102289.19
102260.85
102223.87
102180.07
102131.78
102081.74
102031.91
101984.19
101940.57
101901.41
101869.24
101842.15
101823.85
101807.23
101799.69
101814.77
101808.04
101583.03
101672.53
101761.61
101852.55
101942.16
102028.17
102108.77
102183.62
102242.58
102281.89
102304.58
102314.06
102314.11
102305.94
102288.4
102260.36
102223.69
102180.02
102131.89
102081.88
102032.04
101984.31
101940.65
101901.47
101869.28
101842.19
101823.88
101807.24
101799.77
101814.8
101808.08
101651.32
101735.74
101819.21
101903.81
101986.4
102065.08
102138.08
102203.01
102251
102282.29
102302.99
102313.01
102313.16
102305.07
102287.82
102260
102223.53
102179.98
102131.97
102081.97
102032.14
101984.41
101940.71
101901.52
101869.3
101842.22
101823.91
101807.25
101799.85
101814.82
101808.09
101711.64
101791.22
101869.51
101948.17
102023.72
102094.85
102159.03
102213.21
102252.94
102281.58
102301.64
102312.24
102312.46
102304.5
102287.46
102259.76
102223.39
102179.96
102132.01
102082.04
102032.2
101984.47
101940.74
101901.56
101869.32
101842.23
101823.93
101807.25
101799.91
101814.82
101808.1
101750.05
101825.43
101900.58
101975.16
102045.72
102110.65
102167.29
102215.64
102252.93
102280.97
102300.76
102311.37
102311.94
102304.22
102287.31
102259.61
102223.31
102179.95
102132.02
102082.09
102032.24
101984.51
101940.77
101901.57
101869.33
101842.25
101823.95
101807.25
101800
101814.89
101808.13
101764.53
101837.77
101912.06
101984.79
102053.03
102114.37
102168.84
102215.64
102252.7
102280.67
102300.46
102311.02
102311.7
102304.12
102287.26
102259.57
102223.29
102179.93
102132.03
102082.09
102032.25
101984.52
101940.78
101901.58
101869.34
101842.26
101823.95
101807.25
101800.01
101814.8
101807.33
)
;

boundaryField
{
    Side1
    {
        type            empty;
    }
    Inlet
    {
        type            totalPressure;
        rho             rho;
        psi             none;
        gamma           1;
        p0              uniform 102920.87;
        value           uniform 101328.54;
    }
    Side2
    {
        type            empty;
    }
    Outlet
    {
        type            freestreamPressure;
        freestreamValue nonuniform List<scalar> 0();
        value           nonuniform List<scalar> 0();
    }
    Botwall
    {
        type            zeroGradient;
    }
    Cyli
    {
        type            zeroGradient;
    }
    procBoundary0to1
    {
        type            processor;
        value           nonuniform List<scalar> 
44
(
100373.56
100373.56
100372.74
100368.95
100368.95
100362.82
100362.82
100351.39
100350.47
100350.47
100350.42
100350.42
100350.2
100352.79
100359.66
100359.66
100366
100372.41
100378.45
100383.29
100387.04
100387.04
100388.71
100390.48
100391.85
100391.85
100393.62
100263.73
100254.13
100355.44
100342.85
100329.41
100316.67
100305.13
100263.73
100294.52
100355.44
100366.28
100244.2
100233.96
100224.32
100215.88
100209.39
100205.04
)
;
    }
    procBoundary0to2
    {
        type            processor;
        value           nonuniform List<scalar> 
55
(
100413.71
100414.09
100413.97
100414.1
100414.77
100405.01
100414.82
100395.13
100405.01
100398.79
100960.93
101371.52
101011.66
101371.52
101368.07
100395.13
100394.8
100394.8
100380.69
99837.071
100477.11
100477.11
100960.93
101543.96
101651.1
101744.41
101830.06
101902.57
101956.9
101990.35
102008.04
102013.55
102004.65
101992.69
102007.5
102050.06
102050.06
102098.73
102123.81
102108.79
102093.95
102056.75
102021.57
101984.06
101950.42
101916.19
101887.02
101858.7
101836.15
101817.14
101804.45
101793.13
101785.62
101794.99
101790.38
)
;
    }
    procBoundary0to3
    {
        type            processor;
        value           nonuniform List<scalar> 7(100395.21 100395.21 100397.76 100397.76 100401.77 100401.77 100408.51);
    }
}


// ************************************************************************* //
