/*--------------------------------*- C++ -*----------------------------------*\
| =========                 |                                                 |
| \\      /  F ield         | OpenFOAM: The Open Source CFD Toolbox           |
|  \\    /   O peration     | Version:  2406                                  |
|   \\  /    A nd           | Website:  www.openfoam.com                      |
|    \\/     M anipulation  |                                                 |
\*---------------------------------------------------------------------------*/
FoamFile
{
    version     2.0;
    format      ascii;
    arch        "LSB;label=32;scalar=64";
    class       volScalarField;
    location    "0.05";
    object      T;
}
// * * * * * * * * * * * * * * * * * * * * * * * * * * * * * * * * * * * * * //

dimensions      [0 0 0 1 0 0 0];

internalField   nonuniform List<scalar> 
2065
(
293.51566
293.47121
293.42795
293.39078
293.35642
293.69919
293.65383
293.59928
293.54704
293.49699
293.68984
293.67107
293.64046
293.60222
293.61407
293.60264
293.58741
293.57562
293.56963
293.56127
293.56161
293.55726
293.55539
293.55293
293.55351
293.59101
293.59544
293.59971
293.60453
293.60473
293.61113
293.61092
293.6223
293.62101
293.61973
293.64754
293.64269
293.63805
293.63401
293.71565
293.69999
293.6846
293.6712
293.65978
293.30374
293.14165
292.99394
292.86345
292.75579
292.67355
292.61458
292.57368
292.54554
293.2795
293.11923
292.9802
292.86066
292.76333
292.68901
292.63543
292.59805
292.57223
293.2554
293.1033
292.97346
292.86369
292.77474
292.707
292.65814
292.62405
292.60047
293.23427
293.0916
292.9691
292.86746
292.7862
292.72471
292.6805
292.64969
292.62833
293.2129
293.07984
292.96487
292.87104
292.79727
292.74194
292.70236
293.19192
292.52318
292.50195
292.48151
292.45959
292.43059
292.37407
292.5516
292.53191
292.51294
292.49252
292.46503
292.41164
292.58147
292.56315
292.54533
292.52593
292.49953
292.449
292.61096
292.59406
292.57745
292.55909
292.53392
292.48641
292.94603
292.94653
292.94736
292.94883
292.95295
292.96658
292.84029
292.84015
292.84027
292.84149
292.84737
292.86565
292.72702
292.72601
292.72507
292.72509
292.72962
292.75019
292.60802
292.60638
292.60505
292.60534
292.61157
292.62876
292.48568
292.48318
292.48069
292.47865
292.47798
292.47967
292.36108
292.35652
292.35153
292.34666
292.34407
292.35461
292.23903
292.23196
292.22402
292.2159
292.2108
292.22626
292.1255
292.11626
292.10597
292.09538
292.08789
292.10271
292.02515
292.01378
292.00119
291.98806
291.97741
291.9879
291.94298
291.92971
291.91527
291.90017
291.88669
291.88984
291.88265
291.86682
291.84961
291.83127
291.81328
291.80806
291.84902
291.83094
291.81188
291.79214
291.77245
291.75819
291.84371
291.8222
291.79875
291.77354
291.74891
291.71682
291.85769
291.83846
291.81732
291.79341
291.76321
291.72409
291.88773
291.86869
291.84829
291.8256
291.79777
291.75257
291.93325
291.91195
291.8894
291.86428
291.83418
291.78689
291.99433
291.97183
291.9488
291.92356
291.89161
291.83968
292.06471
292.04127
292.01758
291.99211
291.96026
291.90398
292.14009
292.11584
292.0914
292.06498
292.03188
291.97381
292.21675
292.19222
292.16785
292.14182
292.10919
292.04891
292.29122
292.2665
292.2419
292.21524
292.18134
292.1215
292.36212
292.33794
292.31435
292.28934
292.2575
292.1962
292.42593
292.40187
292.37818
292.35254
292.31965
292.26068
292.48977
292.46703
292.44499
292.42145
292.39084
292.33064
292.83633
292.84379
292.85556
292.87153
292.8886
292.9046
292.91873
292.93087
292.94115
292.69698
292.71546
292.73788
292.76099
292.78227
292.80038
292.81508
292.82682
292.83612
292.56076
292.5888
292.61882
292.64724
292.67166
292.69101
292.70553
292.71621
292.72404
292.42346
292.45968
292.49613
292.52935
292.55656
292.5768
292.59079
292.60009
292.60625
292.28867
292.332
292.37433
292.41132
292.44025
292.46059
292.47346
292.48098
292.48523
292.16199
292.21063
292.25702
292.29648
292.32605
292.34544
292.35637
292.36137
292.36291
292.04811
292.09994
292.14827
292.18842
292.2174
292.235
292.24331
292.24525
292.24362
291.95212
292.00446
292.05244
292.09144
292.11855
292.13359
292.13884
292.13751
292.13269
291.87876
291.92841
291.97398
292.01027
292.03428
292.04598
292.04772
292.04293
292.03491
291.825
291.87262
291.91672
291.94993
291.96986
291.97732
291.97492
291.96639
291.95517
291.82964
291.87194
291.90214
291.92284
291.93356
291.93394
291.92582
291.91271
291.89778
291.85134
291.88396
291.91069
291.92631
291.92832
291.91919
291.90394
291.8857
291.86699
291.90089
291.91877
291.93136
291.93561
291.9319
291.92176
291.9061
291.8862
291.8647
291.983
291.98411
291.98026
291.97081
291.95686
291.93879
291.91763
291.89637
291.87649
292.10397
292.08506
292.06172
292.03575
292.00812
291.98013
291.95321
291.92862
291.90704
292.24932
292.20896
292.16547
292.12178
292.08044
292.04274
292.00924
291.98003
291.95512
292.40992
292.34705
292.28227
292.22032
292.16497
292.11754
292.07779
292.04485
292.01776
292.57673
292.49173
292.40593
292.32601
292.25688
292.19991
292.15418
292.11792
292.08919
292.73828
292.63305
292.52853
292.43242
292.35085
292.28539
292.23446
292.19541
292.16539
292.88435
292.76267
292.64315
292.53386
292.44196
292.3695
292.31439
292.27322
292.24242
293.00964
292.87536
292.74491
292.62604
292.52642
292.44874
292.39063
292.34808
292.31697
293.11138
292.96999
292.83281
292.7076
292.6026
292.52127
292.46136
292.41828
292.38742
293.1947
293.04305
292.90179
292.77471
292.66784
292.58496
292.5243
292.48121
292.45085
293.30562
293.15189
292.99632
292.85515
292.7388
292.65046
292.58725
292.54353
292.51368
292.21756
292.40512
292.54168
292.64542
292.73018
292.80223
292.03642
292.23445
292.37829
292.48816
292.57808
292.65489
291.86051
292.06451
292.21523
292.33114
292.42677
292.50948
291.69237
291.90233
292.05793
292.17833
292.2783
292.36528
291.53783
291.75284
291.91133
292.03432
292.13669
292.22579
291.40324
291.62152
291.78195
291.90512
292.0075
292.09639
291.29754
291.51434
291.67333
291.79492
291.89537
291.98193
291.22093
291.44312
291.59594
291.71185
291.80709
291.88823
291.19089
291.39599
291.54681
291.65822
291.74696
291.82036
291.21093
291.41691
291.553
291.64572
291.7171
291.7749
291.30646
291.45596
291.53108
291.61442
291.7011
291.77421
291.32976
291.47305
291.61248
291.70326
291.76465
291.81378
291.40402
291.62031
291.74489
291.81041
291.84998
291.8791
291.58795
291.79276
291.88391
291.93006
291.95827
291.97573
291.94742
292.04424
292.08699
292.10518
292.11343
292.11447
292.28275
292.31141
292.32252
292.31439
292.29921
292.28014
292.61452
292.58626
292.57242
292.54014
292.50174
292.46182
292.94976
292.91391
292.85437
292.78246
292.71398
292.64996
293.25574
293.20225
293.11859
293.01819
292.92142
292.83262
293.58818
293.53704
293.38461
293.24068
293.1114
292.99733
293.72223
293.73572
293.59898
293.43115
293.27581
293.13823
293.97011
293.88311
293.71633
293.56095
293.39781
293.24839
293.77392
293.90274
293.81162
293.64332
293.50251
293.34595
293.54329
293.73213
293.84933
293.76259
293.56931
293.42882
293.58237
293.61946
293.71773
293.80941
293.76403
293.58307
293.54899
293.58399
293.61756
293.68631
293.74135
293.73574
293.56442
293.57351
293.58787
293.61049
293.65115
293.6914
293.56046
293.56622
293.57335
293.58294
293.59704
293.61718
293.55784
293.56199
293.5653
293.56891
293.57293
293.57686
293.5525
293.55723
293.55959
293.56131
293.5626
293.56319
293.54866
293.55343
293.55573
293.5569
293.55739
293.5571
293.54685
293.55147
293.55382
293.55495
293.5552
293.55459
293.54758
293.55219
293.55453
293.55562
293.55577
293.55504
293.55153
293.55526
293.55734
293.55833
293.55848
293.55783
293.55732
293.56031
293.56201
293.56283
293.56295
293.56242
293.56491
293.56662
293.56777
293.56842
293.56855
293.56818
293.57207
293.57324
293.57403
293.57449
293.57461
293.57441
293.57705
293.57914
293.57973
293.58015
293.5804
293.58045
293.58038
293.58278
293.58401
293.58485
293.58544
293.58586
293.58255
293.58577
293.58757
293.58879
293.58974
293.59054
293.58435
293.58841
293.59068
293.59226
293.59354
293.59467
293.58661
293.59111
293.59371
293.59561
293.59723
293.59872
293.58975
293.59445
293.5973
293.59949
293.60146
293.60338
293.59359
293.59874
293.60174
293.60434
293.60698
293.60974
293.5986
293.60273
293.60662
293.61068
293.61524
293.62034
293.60261
293.60685
293.61356
293.62183
293.63248
293.64576
293.60561
293.61336
293.6261
293.64518
293.67681
293.72044
293.60929
293.62046
293.63968
293.68508
291.72499
291.94913
292.11156
292.23709
291.87991
292.08498
292.23434
292.34936
292.44511
292.52763
292.04701
292.23167
292.3669
292.47111
292.55779
292.6326
292.21797
292.38288
292.50426
292.59784
292.67567
292.74284
292.38968
292.53579
292.64338
292.72631
292.79527
292.85489
292.55857
292.68811
292.78189
292.85392
292.91373
292.9656
292.72158
292.83773
292.91732
292.97799
293.02837
293.07229
292.8721
292.97703
293.04349
293.09347
293.13547
293.17232
293.02326
293.10134
293.15454
293.19596
293.23119
293.26296
293.15178
293.21131
293.25356
293.28753
293.31724
293.34403
293.2612
293.30641
293.3393
293.36696
293.39139
293.41367
293.35191
293.38292
293.40864
293.43116
293.4514
293.47017
293.41769
293.44112
293.46115
293.47912
293.49594
293.51208
293.45411
293.47972
293.49467
293.50909
293.5237
293.53841
293.46434
293.48219
293.49903
293.51533
293.53121
293.54686
293.4282
293.45555
293.47846
293.49922
293.51854
293.53697
293.37042
293.40942
293.43919
293.46499
293.48847
293.51049
293.28858
293.34312
293.38132
293.41291
293.44151
293.46811
293.18357
293.25496
293.30417
293.34365
293.37839
293.41053
293.05894
293.14904
293.21071
293.25948
293.30164
293.33978
292.90793
293.02663
293.10277
293.16134
293.21159
293.25639
292.75126
292.88663
292.97714
293.04711
293.10695
293.16038
292.57839
292.72736
292.83547
292.91966
292.99121
293.05449
292.39518
292.57104
292.69626
292.79313
292.87495
292.94589
293.61316
293.62597
293.61042
291.45815
291.58419
291.82369
293.01976
293.12087
293.2183
293.30542
293.38135
293.44519
293.49624
293.53309
293.55526
293.562
293.55237
293.52733
293.48825
293.43588
293.37149
293.2964
293.21214
293.11967
293.02063
292.91741
292.81231
292.70818
292.60745
293.10067
293.19939
293.28682
293.36345
293.42969
293.48444
293.52712
293.557
293.5738
293.57685
293.56604
293.5423
293.5064
293.45894
293.4009
293.33331
293.25713
293.17334
293.08329
292.9888
292.89157
292.79388
292.69708
293.18553
293.27527
293.35175
293.41832
293.47507
293.52126
293.55622
293.57982
293.59184
293.59185
293.58019
293.55759
293.52451
293.48144
293.42911
293.36826
293.2996
293.2241
293.14259
293.05653
292.96714
292.8763
292.7852
293.26936
293.34737
293.41316
293.47
293.51767
293.55559
293.58351
293.60142
293.60915
293.60663
293.59433
293.57278
293.54225
293.50315
293.45603
293.40142
293.33986
293.27198
293.19883
293.12088
293.03939
292.95567
292.87071
293.34899
293.41488
293.47053
293.51803
293.55701
293.58722
293.60869
293.62145
293.62538
293.62076
293.60801
293.58742
293.5592
293.52371
293.48133
293.43246
293.37753
293.31698
293.25134
293.18132
293.1077
293.03142
292.95304
293.42273
293.47726
293.52314
293.56164
293.59247
293.61564
293.63126
293.63938
293.64012
293.63379
293.62069
293.601
293.5749
293.54267
293.50458
293.46093
293.41201
293.35818
293.29977
293.23727
293.17127
293.10253
293.03126
293.48911
293.53328
293.57012
293.6001
293.6234
293.64019
293.65058
293.6547
293.65278
293.64509
293.63178
293.61296
293.58881
293.55954
293.52533
293.48641
293.44299
293.39532
293.34365
293.28827
293.22956
293.1681
293.10414
293.54728
293.58179
293.60991
293.63215
293.64881
293.66002
293.66594
293.66676
293.66271
293.65395
293.64055
293.62261
293.60028
293.57369
293.54301
293.50837
293.46994
293.42789
293.38241
293.33369
293.28196
293.22755
293.17068
293.59604
293.62132
293.64156
293.65708
293.66804
293.67447
293.67661
293.67479
293.66909
293.65954
293.64619
293.62915
293.60852
293.5844
293.55691
293.52615
293.49224
293.4553
293.41547
293.37287
293.32768
293.28009
293.23014
293.63377
293.65112
293.66454
293.67419
293.68016
293.68242
293.68164
293.67786
293.6709
293.66079
293.64763
293.63151
293.61251
293.59069
293.56612
293.53889
293.50909
293.47679
293.4421
293.40512
293.36597
293.32478
293.28154
293.65889
293.66937
293.6769
293.68152
293.68354
293.68323
293.68032
293.67466
293.66655
293.65606
293.64323
293.6281
293.6107
293.59107
293.56925
293.5453
293.51927
293.49123
293.46126
293.42943
293.39583
293.36055
293.32362
293.66879
293.67365
293.67669
293.67794
293.67683
293.67366
293.6685
293.66153
293.65278
293.64227
293.63001
293.61602
293.60032
293.5829
293.56381
293.54305
293.52065
293.49666
293.47113
293.44413
293.41571
293.38594
293.35471
293.66159
293.66171
293.66018
293.65754
293.65362
293.64841
293.64196
293.6343
293.62545
293.6154
293.60415
293.59169
293.578
293.56308
293.54689
293.52944
293.51072
293.49073
293.4695
293.44708
293.42356
293.39899
293.63044
293.62621
293.62147
293.61623
293.61044
293.60413
293.59733
293.59002
293.58217
293.57372
293.56458
293.55468
293.54395
293.53234
293.51978
293.50619
293.49153
293.47575
293.4588
293.4407
293.42151
293.4013
293.57024
293.56517
293.55986
293.55443
293.54895
293.54342
293.53781
293.53207
293.52614
293.51996
293.51347
293.50662
293.49935
293.4916
293.4833
293.47436
293.46471
293.45421
293.44273
293.43014
293.41631
293.40125
293.50982
293.50544
293.50118
293.49695
293.49265
293.48823
293.48361
293.47876
293.47367
293.46832
293.46272
293.45687
293.45079
293.4445
293.43804
293.43142
293.4247
293.4179
293.41103
293.40406
293.39691
293.38945
293.46952
293.46492
293.46032
293.45564
293.45086
293.44604
293.4412
293.43636
293.43152
293.42666
293.42176
293.41678
293.41168
293.40641
293.4009
293.39511
293.38898
293.38251
293.37574
293.36878
293.36179
293.35489
293.42448
293.41938
293.41442
293.40956
293.4048
293.40014
293.39553
293.39096
293.38641
293.38187
293.37736
293.37288
293.36848
293.36418
293.36
293.35598
293.35213
293.34841
293.34476
293.34109
293.33731
293.33338
293.38222
293.37748
293.37286
293.3683
293.36377
293.35927
293.35481
293.35039
293.346
293.34165
293.33733
293.33304
293.32876
293.32446
293.32014
293.31582
293.31153
293.30731
293.30325
293.2994
293.29577
293.29233
293.33507
293.33042
293.32594
293.32161
293.31742
293.31338
293.30948
293.30571
293.30205
293.29851
293.29506
293.29171
293.28848
293.28537
293.28239
293.27955
293.27683
293.2742
293.27163
293.26913
293.26669
293.26436
293.2905
293.28669
293.28301
293.27943
293.27593
293.27249
293.2691
293.26575
293.26244
293.25917
293.25595
293.25278
293.24966
293.24659
293.24358
293.24064
293.23779
293.23506
293.23247
293.23003
293.22775
293.22562
293.24546
293.24213
293.23893
293.23585
293.23288
293.23003
293.2273
293.22468
293.22217
293.21977
293.21747
293.21529
293.21321
293.21124
293.20937
293.20761
293.20593
293.20433
293.20282
293.20138
293.20004
293.1988
293.20587
293.20349
293.20118
293.19894
293.19674
293.19459
293.19246
293.19036
293.18827
293.1862
293.18415
293.18213
293.18013
293.17817
293.17625
293.17438
293.17258
293.17085
293.16921
293.16766
293.16622
293.1649
293.17203
293.17018
293.16841
293.1667
293.16506
293.16347
293.16195
293.16049
293.1591
293.15778
293.15652
293.15533
293.15421
293.15315
293.15215
293.15121
293.15031
293.14946
293.14866
293.14792
293.14725
293.14665
293.14658
293.14541
293.14427
293.14314
293.14202
293.1409
293.13976
293.1386
293.13742
293.13622
293.13501
293.13378
293.13254
293.13129
293.13005
293.12881
293.12759
293.12638
293.12522
293.12411
293.1231
293.12222
293.12416
293.12317
293.12223
293.12133
293.12048
293.11965
293.11886
293.11811
293.1174
293.11672
293.1161
293.11552
293.11498
293.11448
293.11402
293.11358
293.11315
293.11274
293.11232
293.11191
293.11152
293.11116
293.10043
293.09985
293.09928
293.09871
293.09816
293.09761
293.09706
293.0965
293.09595
293.09538
293.0948
293.09419
293.09357
293.09293
293.09228
293.09163
293.09099
293.09037
293.0898
293.08929
293.08887
293.08854
293.08038
293.08002
293.07969
293.07938
293.0791
293.07885
293.07861
293.0784
293.07821
293.07806
293.07795
293.07789
293.07787
293.07789
293.07793
293.078
293.07807
293.07813
293.07819
293.07823
293.07829
293.07835
293.07716
293.07703
293.07687
293.07667
293.0765
293.07632
293.07615
293.07601
293.07589
293.07581
293.07575
293.07572
293.07572
293.07575
293.0758
293.07585
293.07592
293.07599
293.07608
293.07616
293.07626
293.07638
293.09207
293.0918
293.09151
293.09119
293.09082
293.0904
293.08996
293.08954
293.08909
293.08864
293.08816
293.08768
293.0872
293.08672
293.08624
293.08578
293.08532
293.08487
293.08442
293.08399
293.08367
293.08347
293.08142
293.08109
293.08081
293.08056
293.08028
293.07995
293.07958
293.0792
293.0788
293.07838
293.07795
293.07751
293.07706
293.0766
293.07615
293.07571
293.0753
293.07493
293.07465
293.07451
293.07444
293.07444
293.02691
293.01657
293.00547
292.99388
292.98242
292.9722
292.96578
292.96725
292.97529
293.08986
293.08118
293.07217
293.06356
293.05615
293.05085
293.04897
293.05268
293.06209
293.15517
293.14804
293.14117
293.13549
293.13188
293.13096
293.13316
293.13922
293.14886
293.22149
293.21599
293.21121
293.20821
293.20789
293.21061
293.21623
293.22453
293.23465
293.28783
293.28391
293.28107
293.28045
293.28288
293.28848
293.29668
293.30657
293.31699
293.35275
293.35038
293.34935
293.35078
293.3554
293.36312
293.37303
293.38379
293.39408
293.4144
293.4136
293.41427
293.41744
293.42367
293.43265
293.44326
293.45405
293.46388
293.47041
293.47134
293.47372
293.47837
293.48561
293.49494
293.50518
293.51542
293.52521
293.51903
293.52181
293.52573
293.53149
293.53931
293.54896
293.55976
293.57014
293.57875
293.55581
293.5621
293.56841
293.57588
293.58508
293.59542
293.6053
293.61383
293.62085
293.57218
293.58638
293.59711
293.60726
293.61737
293.62709
293.63611
293.64389
293.65003
293.54777
293.57954
293.60231
293.61744
293.62946
293.64017
293.6495
293.65715
293.66306
293.5161
293.53499
293.56883
293.59952
293.62049
293.63482
293.64528
293.6529
293.65831
293.51637
293.5138
293.52084
293.5428
293.57156
293.59513
293.61142
293.62213
293.62919
293.50305
293.51044
293.50968
293.50878
293.51579
293.53071
293.54659
293.55937
293.56837
293.48411
293.48351
293.48736
293.49312
293.49655
293.49838
293.50137
293.50553
293.5097
293.45528
293.45817
293.45899
293.4593
293.46135
293.46473
293.46769
293.46975
293.47116
293.42279
293.4224
293.42352
293.42535
293.42637
293.42664
293.42678
293.42693
293.42702
293.38031
293.382
293.38265
293.38283
293.38331
293.38408
293.38463
293.38481
293.38474
293.34032
293.33963
293.3396
293.33985
293.33982
293.33946
293.33895
293.33838
293.33779
293.29085
293.29208
293.29279
293.29314
293.29339
293.29352
293.29342
293.29312
293.29273
293.25074
293.25033
293.25009
293.24992
293.24965
293.24923
293.24872
293.24814
293.24755
293.20557
293.20656
293.20731
293.20781
293.20807
293.20812
293.20798
293.2077
293.20736
293.17827
293.17737
293.17657
293.17591
293.17534
293.1748
293.17427
293.17376
293.17328
293.14548
293.14636
293.14707
293.14757
293.14782
293.14788
293.14778
293.14759
293.14736
293.1279
293.12761
293.12722
293.12679
293.12636
293.12595
293.12557
293.12522
293.12491
293.09894
293.09924
293.09961
293.1
293.10037
293.10064
293.1008
293.10085
293.10082
293.0826
293.08243
293.08222
293.08196
293.08168
293.08139
293.08112
293.08089
293.0807
293.07809
293.07803
293.07794
293.07785
293.07774
293.07763
293.0775
293.07737
293.07727
293.09357
293.09351
293.09341
293.09329
293.09314
293.09295
293.09274
293.09252
293.09231
293.08289
293.0829
293.08285
293.08278
293.08267
293.08252
293.08233
293.08211
293.08187
293.0323
293.09425
293.15878
293.22414
293.28955
293.35345
293.41402
293.46873
293.51544
293.54721
293.5498
293.51822
293.51212
293.51312
293.49957
293.48475
293.4524
293.42376
293.37824
293.34153
293.2894
293.25135
293.20447
293.17924
293.14451
293.12809
293.09872
293.08271
293.07814
293.09363
293.08283
293.0342
293.09545
293.15959
293.22438
293.28929
293.35244
293.41224
293.46583
293.50967
293.53113
293.5152
293.50413
293.51158
293.51359
293.49749
293.48398
293.45091
293.42418
293.3766
293.34288
293.28816
293.25203
293.20349
293.18013
293.1437
293.12822
293.09862
293.08278
293.07814
293.09366
293.08281
293.03702
293.09712
293.16091
293.22498
293.2895
293.35151
293.41027
293.46171
293.49726
293.4968
293.48906
293.5042
293.50851
293.50863
293.49572
293.48199
293.44919
293.42334
293.37515
293.34322
293.28745
293.25187
293.203
293.18014
293.1433
293.12796
293.09864
293.0827
293.07811
293.09366
293.0828
293.04107
293.09879
293.16215
293.22489
293.28936
293.34926
293.40566
293.44723
293.45818
293.46322
293.4839
293.49529
293.49979
293.50107
293.48878
293.47667
293.4442
293.4191
293.37303
293.3398
293.28799
293.24852
293.20428
293.17672
293.14431
293.12623
293.09916
293.08209
293.07799
293.09365
293.08279
293.04728
293.09924
293.16128
293.21945
293.28414
293.33785
293.37197
293.38267
293.4036
293.42851
293.44901
293.46492
293.47041
293.47442
293.46686
293.45167
293.43495
293.39515
293.37183
293.31869
293.29041
293.23412
293.2074
293.16314
293.14614
293.12044
293.10128
293.0795
293.07753
293.09358
293.08263
293.05941
293.09419
293.14841
293.17592
293.21179
293.21708
293.27068
293.29397
293.32976
293.3549
293.37628
293.39227
293.39907
293.40782
293.40346
293.39442
293.37831
293.35384
293.32423
293.28712
293.25106
293.21082
293.17869
293.15148
293.13116
293.11551
293.09272
293.07569
293.07423
293.09178
293.08095
)
;

boundaryField
{
    Side1
    {
        type            empty;
    }
    Inlet
    {
        type            totalTemperature;
        gamma           1.4;
        T0              uniform 294.31799;
        value           uniform 293.00245;
    }
    Side2
    {
        type            empty;
    }
    Outlet
    {
        type            zeroGradient;
    }
    Botwall
    {
        type            zeroGradient;
    }
    Cyli
    {
        type            zeroGradient;
    }
    procBoundary0to1
    {
        type            processor;
        value           nonuniform List<scalar> 
44
(
293.3235
293.3235
293.45015
293.56078
293.56078
293.56866
293.56866
293.55057
293.5512
293.5512
293.55184
293.55184
293.54997
293.551
293.55653
293.55653
293.56135
293.56736
293.57383
293.58017
293.58596
293.58596
293.5909
293.59559
293.6
293.6
293.60487
292.67489
292.65574
293.06866
292.96159
292.87529
292.80857
292.75908
292.67489
292.72381
293.06866
293.17205
292.6401
292.62481
292.60967
292.5928
292.56945
292.52475
)
;
    }
    procBoundary0to2
    {
        type            processor;
        value           nonuniform List<scalar> 
55
(
293.82011
293.79771
293.77027
293.74379
293.71947
293.76728
293.82931
293.68982
293.76728
293.80752
291.99436
292.34232
292.1245
292.34232
292.43245
293.68982
293.71943
293.71943
293.79347
291.36094
291.70984
291.70984
291.99436
292.5152
292.60061
292.69108
292.78168
292.8702
292.95537
293.03591
293.11021
293.17707
293.23564
293.28467
293.32189
293.37336
293.37336
293.38005
293.38488
293.3814
293.34805
293.32925
293.28901
293.26211
293.22359
293.19762
293.16361
293.14606
293.12137
293.11077
293.0882
293.07836
293.07644
293.08331
293.07443
)
;
    }
    procBoundary0to3
    {
        type            processor;
        value           nonuniform List<scalar> 7(293.61068 293.61068 293.61853 293.61853 293.63032 293.63032 293.64987);
    }
}


// ************************************************************************* //
