/*--------------------------------*- C++ -*----------------------------------*\
| =========                 |                                                 |
| \\      /  F ield         | OpenFOAM: The Open Source CFD Toolbox           |
|  \\    /   O peration     | Version:  2406                                  |
|   \\  /    A nd           | Website:  www.openfoam.com                      |
|    \\/     M anipulation  |                                                 |
\*---------------------------------------------------------------------------*/
FoamFile
{
    version     2.0;
    format      ascii;
    arch        "LSB;label=32;scalar=64";
    class       surfaceScalarField;
    location    "0.016";
    object      phi;
}
// * * * * * * * * * * * * * * * * * * * * * * * * * * * * * * * * * * * * * //

dimensions      [1 0 -1 0 0 0 0];

oriented        oriented;

internalField   nonuniform List<scalar> 
45979
(
0.0082501124
-0.0098197415
0.010058572
-0.0084888281
0.0080359985
-0.010248902
0.010463122
0.0078267327
-0.010664578
0.010873944
0.0076187511
-0.011074772
0.011282847
0.0074119422
-0.011481041
0.011687935
0.0072079685
-0.011884183
0.012088233
0.0070083087
-0.012284665
0.012484392
0.0068141339
-0.012683197
0.012877431
0.0066263865
-0.013080577
0.013268375
0.0064456407
-0.013477861
0.01365865
0.0062720483
-0.013876046
0.014049674
0.0061055477
-0.014275911
0.014442439
0.0059458309
-0.014677786
0.014837523
0.0057926826
-0.015081941
0.015235103
0.0056459334
-0.015488683
0.015635441
0.0055053977
-0.015898401
0.016038941
0.0053709081
-0.016311507
0.016445997
0.0052422915
-0.016728486
0.016857099
-0.01714993
0.017272875
0.0082328532
-0.0096277047
-0.008424771
0.0080358625
-0.010051799
0.0078398957
-0.010468507
0.0076447392
-0.01087952
0.0074512162
-0.011287432
0.0072603334
-0.011693224
0.0070731595
-0.012097424
0.0068905491
-0.012500528
0.0067131848
-0.012903163
0.0065414399
-0.013306075
0.0063754542
-0.013710027
0.0062151145
-0.014115545
0.0060603456
-0.014522997
0.0059111056
-0.014932687
0.0057673626
-0.015344932
0.005629065
-0.0157601
0.0054961504
-0.016178592
0.0053685409
-0.01660088
-0.017027523
0.0081771902
-0.0094642274
-0.0083405457
0.0080043888
-0.0098788817
0.0078276567
-0.010291667
0.0076497969
-0.010701563
0.0074723592
-0.011109906
0.0072964748
-0.011517261
0.0071230484
-0.011923928
0.0069528358
-0.012330256
0.0067864263
-0.012736703
0.0066241989
-0.013143805
0.0064663186
-0.013552112
0.0063128606
-0.013962058
0.0061638844
-0.014373999
0.0060194559
-0.014788243
0.0058796394
-0.015205105
0.0057444777
-0.015624932
0.0056139956
-0.016048108
0.0054881919
-0.016475078
-0.016906361
0.0081045715
-0.0093240456
-0.0082446311
0.0079551388
-0.0097293321
0.0077997184
-0.010136138
0.0076410907
-0.010542835
0.0074810954
-0.010949821
0.0073210349
-0.01135712
0.0071619002
-0.011764722
0.0070044816
-0.012172775
0.0068493963
-0.012581563
0.0066970895
-0.012991452
0.006547847
-0.013402831
0.0064018759
-0.013816056
0.0062593458
-0.014231444
0.006120412
-0.01464929
0.0059852159
-0.015069895
0.0058538773
-0.015493583
0.0057264906
-0.015920714
0.0056031183
-0.016351702
-0.01678702
0.0080232919
-0.0092048764
-0.0081423399
0.00789523
-0.0096011559
0.0077604726
-0.010001274
0.0076212033
-0.010403467
0.0074790429
-0.01080757
0.0073352365
-0.011213232
0.0071907981
-0.011620211
0.0070465651
-0.012028477
0.0069032163
-0.012438158
0.0067612846
-0.012849472
0.0066211764
-0.013262682
0.0064832141
-0.013678059
0.006347669
-0.014095871
0.0062147807
-0.014516379
0.0060847637
-0.014939859
0.0059578044
-0.015366609
0.005834058
-0.015796957
0.005713643
-0.016231279
-0.016670003
0.0079365528
-0.0091049994
-0.0080363083
0.0078283701
-0.0094928616
0.0077133379
-0.0098861389
0.0075929032
-0.010282937
0.0074683247
-0.010682903
0.0073407008
-0.011085527
0.0072110107
-0.011490447
0.0070801114
-0.011897513
0.0069487347
-0.012306724
0.0068174912
-0.012718178
0.0066868848
-0.013132031
0.0065573365
-0.013548473
0.0064292074
-0.013967709
0.0063028151
-0.014389959
0.0061784407
-0.014815462
0.0060563306
-0.01524448
0.005936695
-0.015677306
0.0058197027
-0.016114275
-0.016555768
0.0078479478
-0.0090233829
-0.0079294441
0.0077584367
-0.0094032417
0.0076618998
-0.0097895025
0.0075592735
-0.010180217
0.007451499
-0.010575041
0.0073395172
-0.010973465
0.0072242409
-0.011375097
0.0071065147
-0.01177972
0.0069870947
-0.012187245
0.0068666424
-0.012597673
0.0067457299
-0.013011073
0.0066248527
-0.013427555
0.0065044438
-0.013847265
0.0063848861
-0.014270371
0.006266519
-0.014697068
0.0061496413
-0.015127579
0.0060345115
-0.015562157
0.0059213452
-0.016001093
-0.016444722
0.0077612423
-0.0089587386
-0.0078257674
0.0076889332
-0.0093308255
0.0076093374
-0.009709809
0.0075231101
-0.010093898
0.0074309741
-0.010482819
0.0073337316
-0.010876142
0.0072322122
-0.011273505
0.0071272194
-0.011674661
0.0070195008
-0.012079466
0.0069097356
-0.012487853
0.0067985317
-0.01289982
0.0066864312
-0.013315411
0.0065739169
-0.013734711
0.0064614204
-0.014157839
0.006349327
-0.014584944
0.0062379793
-0.015016205
0.0061276768
-0.015451832
0.0060186756
-0.015892073
-0.016337219
0.0076792536
-0.0089095414
-0.0077283342
0.0076223793
-0.0092738452
0.0075580037
-0.0096453365
0.0074865865
-0.01002239
0.0074087157
-0.010404863
0.0073250904
-0.010792438
0.0072364547
-0.011184796
0.0071435492
-0.011581688
0.0070470844
-0.011982939
0.0069477258
-0.012388438
0.0068460873
-0.012798129
0.006742729
-0.013212006
0.0066381609
-0.013630101
0.0065328447
-0.014052485
0.0064271981
-0.014479263
0.0063215955
-0.014910572
0.0062163697
-0.015346581
0.0061118104
-0.015787493
-0.016233557
0.0076037499
-0.0088740918
-0.0076390868
0.0075604978
-0.009230489
0.0075095054
-0.0095942469
0.0074512233
-0.0099640164
0.0073861725
-0.010339727
0.0073149571
-0.010721143
0.007238226
-0.01110799
0.0071566405
-0.011500033
0.0070708525
-0.011897087
0.0069814898
-0.012299016
0.006889146
-0.012705731
0.0067943769
-0.013117187
0.0066976977
-0.013533376
0.0065995832
-0.013954329
0.0065004682
-0.014380112
0.0064007483
-0.01481082
0.006300779
-0.015246584
0.0062008763
-0.015687568
-0.016133979
0.0075350992
-0.0088506276
-0.0075584544
0.0075036902
-0.0091989779
0.0074644434
-0.0095549041
0.0074178075
-0.0099172902
0.0073642505
-0.010286085
0.0073042906
-0.010661103
0.0072384853
-0.01104211
0.0071674135
-0.011428891
0.0070916592
-0.011821267
0.0070117978
-0.012219094
0.0069283875
-0.012622264
0.0068419615
-0.013030708
0.0067530236
-0.01344439
0.0066620465
-0.013863309
0.0065694693
-0.014287495
0.0064756967
-0.014717013
0.0063810982
-0.015151956
0.006286007
-0.015592453
-0.016038674
0.0074729043
-0.008837487
-0.0074859394
0.0074518428
-0.0091778169
0.0074229858
-0.0095259529
0.0073867388
-0.0098809538
0.007343514
-0.010242776
0.0072937577
-0.010611267
0.0072379497
-0.010986226
0.0071765937
-0.011367464
0.0071102059
-0.011754812
0.007039306
-0.012148131
0.0069644072
-0.012547307
0.0068860095
-0.012952257
0.0068045939
-0.013362925
0.0067206189
-0.013779289
0.0066345166
-0.014201353
0.0065466913
-0.014629153
0.0064575168
-0.015062753
0.0063673352
-0.015502249
-0.015947779
0.0074169392
-0.0088332476
-0.0074210762
0.0074049439
-0.0091657245
0.0073852847
-0.0095062011
0.0073583078
-0.0098538883
0.0073243681
-0.010208752
0.0072838492
-0.010570667
0.0072371639
-0.010939465
0.0071847494
-0.011314977
0.00712706
-0.011697055
0.0070645592
-0.012085567
0.0069977122
-0.012480401
0.00692698
-0.01288147
0.0068528132
-0.013288708
0.0067756474
-0.013702078
0.0066958993
-0.014121565
0.0066139639
-0.014547184
0.0065302116
-0.014978972
0.0064449858
-0.015417001
-0.015861381
0.0073671429
-0.008836669
-0.0073636215
0.0073630502
-0.0091615368
0.0073514911
-0.0094945508
0.0073327485
-0.009835058
0.0073071209
-0.01018304
0.0072749341
-0.0105384
0.007236542
-0.010900997
0.0071923222
-0.011270685
0.0071426713
-0.011647336
0.0070879989
-0.012030831
0.0070287225
-0.012421065
0.0069652607
-0.012817954
0.006898029
-0.013221427
0.0068274347
-0.013631439
0.0067538724
-0.014047965
0.0066777212
-0.014471
0.006599341
-0.014900566
0.0065190702
-0.015336711
-0.015779522
0.0073234685
-0.0088466274
-0.0073134124
0.0073261968
-0.0091641721
0.0073217052
-0.0094899696
0.0073102202
-0.0098234867
0.0072919864
-0.010164724
0.0072672755
-0.010513611
0.0072363861
-0.010870032
0.0071996412
-0.01123387
0.0071573832
-0.011605011
0.0071099705
-0.011983356
0.0070577728
-0.01236881
0.0070011658
-0.012761294
0.0069405276
-0.013160742
0.0068762329
-0.013567103
0.00680865
-0.013980346
0.0067381369
-0.014400458
0.0066650374
-0.014827444
0.0065896787
-0.015261337
-0.015702205
0.0072857792
-0.0088620598
-0.0072702517
0.0072943085
-0.0091726107
0.0072959145
-0.0094914884
0.0072907702
-0.0098182583
0.0072790674
-0.01015294
0.0072610246
-0.010495491
0.0072368882
-0.010845823
0.0072069286
-0.011203841
0.0071714376
-0.011569456
0.0071307245
-0.011942583
0.0070851126
-0.012323144
0.0070349348
-0.012711067
0.00698053
-0.013106293
0.0069222389
-0.013508774
0.0068604
-0.013918475
0.0067953462
-0.014335379
0.0067274011
-0.014759481
0.006656876
-0.015190802
-0.015629394
0.0072536313
-0.0088820704
-0.0072335287
0.0072670843
-0.0091859761
0.007273932
-0.0094982519
0.0072743017
-0.0098185471
0.0072683389
-0.0101469
0.0072562149
-0.010483294
0.0072381278
-0.010827667
0.0072143002
-0.011179949
0.0071849762
-0.011540072
0.0071504186
-0.011907971
0.0071109061
-0.012283581
0.0070667295
-0.012666846
0.0070181886
-0.013057713
0.0069655887
-0.013456141
0.0069092369
-0.013862097
0.0068494384
-0.01427556
0.006786493
-0.014696522
0.0067206928
-0.015124996
-0.015561022
0.0072265867
-0.008905877
-0.0072026916
0.0072441748
-0.0092034807
0.0072554889
-0.0095094861
0.0072606194
-0.009823601
0.0072596711
-0.010145879
0.0072527733
-0.010476327
0.0072400806
-0.01081491
0.007221771
-0.01116158
0.0071980441
-0.01151629
0.0071691192
-0.011878996
0.0071352319
-0.012249649
0.0070966333
-0.012628208
0.0070535846
-0.013014631
0.007006355
-0.013408884
0.0069552191
-0.01381094
0.0069004526
-0.01422078
0.0068423303
-0.014638393
0.0067811209
-0.015063788
-0.015496997
0.0072041354
-0.0089326815
-0.0071772479
0.0072251324
-0.0092243997
0.0072402095
-0.0095244887
0.0072494178
-0.0098327385
0.0072528253
-0.01014922
0.0072505213
-0.010473961
0.0072426195
-0.01080695
0.0072292567
-0.011148164
0.0072105914
-0.011497576
0.0071868021
-0.011855163
0.0071580851
-0.012220894
0.0071246513
-0.012594742
0.0070867255
-0.012976679
0.0070445427
-0.013366681
0.0069983434
-0.013764727
0.0069483737
-0.014170803
0.0068948802
-0.0145849
0.0068381081
-0.015007024
-0.015437202
0.0071854328
-0.0089620959
-0.0071559406
0.0072092828
-0.0092481781
0.0072275462
-0.0095426843
0.0072402559
-0.0098453841
0.0072474464
-0.01015635
0.0072491734
-0.010475632
0.0072455162
-0.010803242
0.0072365758
-0.011139177
0.0072224746
-0.011483434
0.0072033536
-0.011836006
0.0071793726
-0.012196882
0.0071507068
-0.012566051
0.0071175447
-0.012943498
0.0070800864
-0.01332921
0.0070385414
-0.013723176
0.0069931247
-0.014125387
0.0069440547
-0.014535837
0.0068915509
-0.014954535
-0.015381503
0.0071698765
-0.0089933134
-0.0071385898
0.0071960452
-0.0092742847
0.0072169814
-0.0095635618
0.0072326708
-0.0098610178
0.0072431244
-0.010166752
0.0072483713
-0.010480831
0.0072484596
-0.010803287
0.0072434599
-0.011134139
0.007233461
-0.011473402
0.0072185717
-0.011821088
0.0071989175
-0.012177205
0.0071746396
-0.012541756
0.0071458931
-0.01291474
0.0071128459
-0.013296157
0.0070756745
-0.013686006
0.007034564
-0.014084284
0.0069897047
-0.014490993
0.0069412887
-0.014906141
-0.015329753
0.0071565607
-0.0090259736
-0.0071238391
0.0071847275
-0.0093023927
0.0072079099
-0.0095866913
0.0072261203
-0.0098791802
0.0072393717
-0.010179959
0.0072476735
-0.010489094
0.0072510512
-0.01080663
0.0072495482
-0.011132606
0.0072432261
-0.011467055
0.0072321628
-0.011810006
0.0072164523
-0.012161481
0.0071962043
-0.012521499
0.0071715424
-0.012890076
0.0071426015
-0.01326722
0.0071095288
-0.013652943
0.0070724789
-0.014047251
0.0070316136
-0.014450151
0.0069870978
-0.014861656
-0.015281792
0.007145929
-0.0090597744
-0.0071120723
0.0071751828
-0.0093315997
0.0071999108
-0.0096113789
0.0072200933
-0.0098993252
0.0072356551
-0.010195487
0.007246559
-0.010499968
0.0072527976
-0.010812843
0.0072543834
-0.011134171
0.007251348
-0.011464004
0.007243738
-0.011802385
0.0072316176
-0.012149355
0.0072150657
-0.012504948
0.0071941746
-0.012869191
0.007169051
-0.013242108
0.0071398104
-0.01362372
0.0071065793
-0.014014044
0.007069491
-0.014413094
0.007028684
-0.014820888
-0.015237453
0.007134632
-0.0090943146
-0.0071000513
0.0071650334
-0.0093619633
0.0071914078
-0.0096377155
0.0072134331
-0.0099213181
0.007231052
-0.010213079
0.0072442537
-0.010513148
0.0072530274
-0.0108216
0.0072573685
-0.011138501
0.0072572852
-0.011463914
0.0072528008
-0.011797899
0.0072439518
-0.01214051
0.00723079
-0.012491795
0.0072133809
-0.012851796
0.0071918001
-0.013220548
0.0071661376
-0.013598085
0.0071364906
-0.013984431
0.0071029653
-0.014379609
0.007065673
-0.014783642
-0.015196564
0.0071237104
-0.0091297306
-0.0070882555
0.0071551335
-0.0093933517
0.0071824697
-0.0096650229
0.0072057374
-0.0099445648
0.0072249638
-0.01023229
0.0072400945
-0.010528267
0.0072510704
-0.010832569
0.0072578522
-0.01114528
0.0072604181
-0.011466482
0.0072587632
-0.011796252
0.0072528991
-0.012134659
0.00724285
-0.012481765
0.0072286534
-0.012837624
0.0072103614
-0.013202287
0.0071880349
-0.013575794
0.0071617456
-0.013958184
0.0071315727
-0.014349485
0.007097603
-0.014749729
-0.015158948
0.0071098961
-0.0091653151
-0.0070742808
0.0071420281
-0.0094254566
0.0071704613
-0.0096934414
0.0071951145
-0.0099692139
0.0072159735
-0.010253146
0.0072329489
-0.010545241
0.0072459719
-0.010845594
0.007254994
-0.011154308
0.0072599828
-0.011471482
0.007260918
-0.011797203
0.0072577911
-0.012131554
0.0072506067
-0.012474608
0.0072393812
-0.012826432
0.0072241411
-0.013187086
0.0072049236
-0.013556622
0.0071817756
-0.013935087
0.007154751
-0.014322519
0.0071239108
-0.014718953
-0.015124428
0.007093722
-0.0092011085
-0.0070579154
0.0071261501
-0.0094578823
0.0071552661
-0.0097225509
0.007181197
-0.0099951307
0.0072035299
-0.010275471
0.0072221433
-0.010563854
0.0072369879
-0.010860445
0.0072480197
-0.011165353
0.0072551984
-0.01147868
0.0072584899
-0.01180052
0.0072578695
-0.012130964
0.0072533218
-0.012470097
0.0072448414
-0.012817994
0.0072324327
-0.013174725
0.0072161098
-0.013540354
0.0071958953
-0.013914934
0.0071718194
-0.01429851
0.0071439185
-0.014691126
-0.015092823
0.0070740485
-0.0092373589
-0.0070377832
0.0071073253
-0.0094911496
0.0071372547
-0.0097524734
0.0071637956
-0.010021669
0.0071870154
-0.010298694
0.0072068501
-0.010583699
0.0072232027
-0.010876814
0.0072359857
-0.011178158
0.007245124
-0.011487846
0.0072505569
-0.011805986
0.007252234
-0.012132681
0.0072501168
-0.012468025
0.007244177
-0.012812106
0.0072343969
-0.013165003
0.007220767
-0.013526788
0.007203288
-0.013897524
0.0071819665
-0.014277264
0.0071568155
-0.014666057
-0.015063948
0.0070476231
-0.0092736718
-0.0070113011
0.0070811717
-0.0095246953
0.0071118653
-0.0097831682
0.0071394692
-0.010049279
0.0071639191
-0.010323155
0.007185136
-0.010604932
0.0072030338
-0.010894734
0.0072175258
-0.011192679
0.0072285318
-0.011498887
0.0072359789
-0.011813476
0.0072398031
-0.012136554
0.0072399505
-0.012468227
0.0072363747
-0.012808591
0.0072290389
-0.013157734
0.0072179148
-0.013515737
0.007202981
-0.01388267
0.0071842235
-0.014258592
0.007161633
-0.014643558
-0.015037616
0.0070141819
-0.0093101767
-0.0069776718
0.0070481565
-0.0095586713
0.0070794591
-0.0098144761
0.0071079534
-0.010077783
0.007133514
-0.010348732
0.0071560239
-0.010627465
0.0071753765
-0.010914117
0.007191476
-0.011208815
0.0072042318
-0.011511686
0.0072135609
-0.011822855
0.0072193878
-0.012142437
0.0072216423
-0.012470545
0.0072202634
-0.012807282
0.0072151974
-0.013152744
0.0072063972
-0.013507018
0.007193822
-0.013870182
0.0071774378
-0.014242301
0.0071572152
-0.014623435
-0.015013632
0.0069720582
-0.0093469485
-0.0069352805
0.0070065053
-0.0095931194
0.0070384685
-0.0098464453
0.0070678108
-0.010107138
0.0070943978
-0.010375339
0.007118104
-0.010651199
0.0071388129
-0.010934861
0.007156415
-0.01122646
0.0071708081
-0.01152613
0.0071818953
-0.011834
0.0071895871
-0.012150194
0.0071938011
-0.012474831
0.0071944599
-0.012808019
0.0071914937
-0.013149862
0.0071848384
-0.013500454
0.0071744357
-0.013859876
0.0071602318
-0.0142282
0.0071421764
-0.014605487
-0.01499179
0.006919404
-0.0093840518
-0.0068822927
0.0069543682
-0.0096280793
0.0069870149
-0.0098790934
0.0070171999
-0.010137334
0.0070447825
-0.010402945
0.0070696338
-0.010676084
0.0070916308
-0.010956899
0.007110653
-0.01124553
0.0071265849
-0.011542118
0.0071393176
-0.011846796
0.0071487478
-0.012159696
0.0071547789
-0.01248094
0.0071573194
-0.012810645
0.0071562841
-0.013148919
0.0071515929
-0.013495861
0.00714317
-0.013851558
0.0071309439
-0.014216084
0.007114844
-0.014589503
-0.01497187
0.0068539725
-0.009421575
-0.0068164334
0.0068895263
-0.0096636149
0.0069229151
-0.0099124686
0.0069539762
-0.0101684
0.0069825587
-0.010431558
0.0070085366
-0.010702104
0.0070317836
-0.010980193
0.0070521678
-0.011265968
0.00706956
-0.011559572
0.0070838391
-0.011861145
0.0070948884
-0.012170822
0.0071025982
-0.012488735
0.0071068638
-0.012815002
0.0071075856
-0.013149739
0.0071046695
-0.01349305
0.007098024
-0.013845024
0.007087559
-0.014205736
0.0070731853
-0.014575253
-0.014953626
0.0067730146
-0.0094596651
-0.0067349151
0.0068092814
-0.0096998634
0.0068435221
-0.0099467015
0.0068755447
-0.010200454
0.0069051824
-0.010461266
0.0069323135
-0.010729315
0.0069568079
-0.011004762
0.0069785226
-0.011287755
0.0069973168
-0.011578441
0.0070130552
-0.011876963
0.0070256102
-0.012183462
0.0070348584
-0.012498074
0.0070406846
-0.012820926
0.0070429783
-0.013152137
0.0070416327
-0.013491815
0.0070365427
-0.013840051
0.0070276016
-0.014196919
0.0070146988
-0.01456248
-0.014936787
0.0066732564
-0.009498545
-0.0066344146
0.0067104043
-0.0097370545
0.0067456647
-0.0099820095
0.0067788161
-0.010233639
0.0068096312
-0.010492097
0.0068379908
-0.010757694
0.0068637618
-0.01103057
0.0068867956
-0.01131084
0.0069069403
-0.011598648
0.0069240494
-0.011894145
0.0069379838
-0.012197478
0.0069486133
-0.012508794
0.006955815
-0.012828227
0.0069594702
-0.0131559
0.0069594632
-0.013491923
0.0069556781
-0.013836389
0.0069479924
-0.014189363
0.0069362712
-0.014550895
-0.014921039
0.0065509909
-0.0095383121
-0.0065112214
0.0065892269
-0.0097752805
0.0066257544
-0.01001853
0.006660224
-0.010268133
0.0066922077
-0.010524162
0.0067218306
-0.010787427
0.006748927
-0.011057778
0.0067732934
-0.011335313
0.00679475
-0.011620205
0.0068131383
-0.011912631
0.0068283147
-0.012212753
0.0068401472
-0.012520728
0.0068485111
-0.012836697
0.0068532866
-0.013160788
0.006854353
-0.013493109
0.0068515858
-0.013833749
0.0068448487
-0.014182761
0.0068339763
-0.014540164
0.006402121
-0.0095790977
-0.0063613519
0.0064413036
-0.0098144369
0.0064786227
-0.010055747
0.0065141349
-0.010303603
0.0065478974
-0.010558083
0.0065792466
-0.01081893
0.0066078754
-0.011086536
0.0066336034
-0.011361153
0.0066562866
-0.011642989
0.0066757902
-0.011932229
0.0066919904
-0.012229048
0.0067047697
-0.012533605
0.006714013
-0.012846044
0.0067196039
-0.01316649
0.0067214186
-0.013495044
0.0067193222
-0.013831781
0.006713162
-0.014176738
-0.014529896
0.0062232894
-0.0096217456
-0.006180592
0.0062648253
-0.0098557358
0.0063049705
-0.010095283
0.0063416761
-0.010340543
0.0063753804
-0.010592773
0.0064070657
-0.010851155
0.0064362787
-0.011116026
0.0064626638
-0.011387716
0.0064860122
-0.011666469
0.0065061571
-0.011952485
0.0065229608
-0.012245955
0.0065362965
-0.012547044
0.00654604
-0.012855894
0.0065520627
-0.013172625
0.0065542287
-0.013497331
0.0065523864
-0.013830069
0.0065463586
-0.014170849
-0.014519618
0.0060030401
-0.0096659444
-0.0059591758
0.0060449001
-0.0098982031
0.0060848103
-0.010136355
0.0061239687
-0.01037999
0.0061608469
-0.010628861
0.0061941405
-0.01088407
0.006224214
-0.011145997
0.0062512023
-0.011414708
0.0062750162
-0.011690337
0.006295541
-0.011973087
0.0063126595
-0.012263161
0.0063262403
-0.012560719
0.0063361398
-0.012865894
0.00634221
-0.013178803
0.0063443011
-0.013499537
0.0063422463
-0.013828138
0.0063358485
-0.014164583
-0.014508781
0.0057354884
-0.0097129795
-0.005688564
0.005780329
-0.0099432171
0.0058220032
-0.010178201
0.0058604094
-0.010418427
0.0058961524
-0.010664592
0.0059292041
-0.01091713
0.0059595945
-0.011176427
0.0059870517
-0.011442234
0.0060113287
-0.0117147
0.0060322358
-0.011994087
0.0060496368
-0.012280658
0.0060633602
-0.012574543
0.0060732137
-0.012875851
0.0060790177
-0.013184712
0.006080618
-0.013501244
0.0060778541
-0.013825487
0.0060705186
-0.014157366
-0.014496744
0.0053953565
-0.0097603018
-0.0053481838
0.0054378649
-0.0099858807
0.0054767958
-0.010217292
0.0055156519
-0.01045744
0.0055547125
-0.010703702
0.0055914492
-0.010953825
0.0056242619
-0.011209238
0.0056534447
-0.01147147
0.0056791395
-0.011740481
0.0057011468
-0.012016187
0.0057193893
-0.012298999
0.0057336381
-0.012588898
0.0057436156
-0.012885939
0.0057490831
-0.013190282
0.005749903
-0.01350215
0.0057459941
-0.013821664
0.0057371815
-0.014148642
-0.014482893
0.0050008449
-0.0098192637
-0.0049419403
0.0050559377
-0.010040996
0.0051037473
-0.010265101
0.0051396852
-0.010493349
0.0051664047
-0.010730495
0.0051910559
-0.01097868
0.005216071
-0.011234477
0.0052416349
-0.011497288
0.0052673195
-0.011766391
0.0052905646
-0.012039578
0.0053099917
-0.012318533
0.0053253008
-0.012604308
0.0053362399
-0.012896977
0.0053423834
-0.013196498
0.0053432616
-0.013503035
0.0053385919
-0.013817005
0.0053281304
-0.014138216
-0.014466958
0.0045271905
-0.0098825184
-0.0044639907
0.0045889549
-0.010102778
0.0046512878
-0.010327441
0.0047153933
-0.010557446
0.0047743437
-0.010789428
0.0048210316
-0.011025344
0.0048532609
-0.011266652
0.0048696787
-0.01151359
0.0048760012
-0.011772618
0.0048819291
-0.012045502
0.0048891939
-0.012325838
0.004896225
-0.012611386
0.004900999
-0.012901793
0.0049023559
-0.013197906
0.0049006561
-0.013501447
0.0048983397
-0.013814857
0.0048977437
-0.014137743
-0.014465406
0.0041060335
-0.00992693
-0.0040616896
0.0041500792
-0.010146875
0.0041935456
-0.010370959
0.0042366037
-0.010600565
0.0042831455
-0.010836034
0.0043355909
-0.011077845
0.004395061
-0.011326143
0.0044619785
-0.011580481
0.0045255249
-0.011836084
0.0045782486
-0.012098119
0.0046205266
-0.012368024
0.0046542844
-0.012645079
0.0046810771
-0.012928537
0.0047002899
-0.013217076
0.004709203
-0.013510327
0.0047055669
-0.01381115
0.0046967819
-0.014128925
-0.014461085
0.0039702871
-0.0099595474
-0.003937625
0.0040019513
-0.010178499
0.0040329897
-0.010401961
0.0040630338
-0.01063058
0.0040919974
-0.01086497
0.0041197569
-0.011105577
0.0041458274
-0.01135219
0.0041685869
-0.011603208
0.0041918147
-0.01185927
0.0042178608
-0.012124161
0.0042481604
-0.012398369
0.0042828941
-0.012679893
0.004322274
-0.012968035
0.0043675615
-0.013262521
0.0044198289
-0.013562753
0.0044786105
-0.013870003
0.0045309195
-0.014181152
-0.014499934
0.0039349387
-0.009997676
-0.0038967784
0.0039722566
-0.01021579
0.0040093525
-0.010439036
0.004046331
-0.010667544
0.0040828513
-0.010901484
0.0041182366
-0.011140962
0.0041521779
-0.01138613
0.0041862365
-0.011637259
0.004221327
-0.011894342
0.004254969
-0.012157764
0.0042844539
-0.012427801
0.0043089762
-0.012704369
0.0043288914
-0.012987913
0.0043451034
-0.013278696
0.0043586379
-0.013576234
0.0043689825
-0.013880283
0.0043804526
-0.014192582
-0.014514973
0.0038615954
-0.010031449
-0.0038277987
0.003894875
-0.010249047
0.0039277505
-0.010471896
0.0039603237
-0.01070011
0.0039926893
-0.010933852
0.0040249866
-0.011173271
0.0040573395
-0.011418503
0.0040897785
-0.011669726
0.004122582
-0.011927179
0.0041558123
-0.012191031
0.0041892729
-0.012461295
0.0042230005
-0.01273812
0.004256707
-0.013021637
0.0042898965
-0.0133119
0.004322607
-0.013608951
0.004355131
-0.013912799
0.0043863313
-0.014223766
-0.014542535
0.0038209649
-0.01006615
-0.0037862595
0.0038554312
-0.010283508
0.0038895508
-0.01050601
0.0039232262
-0.010733782
0.0039563331
-0.01096696
0.0039887432
-0.011205687
0.0040203515
-0.011450122
0.0040510394
-0.011700425
0.0040806244
-0.011956773
0.0041089518
-0.01221936
0.004136045
-0.01248838
0.0041619392
-0.012763995
0.0041866854
-0.013046355
0.0042104484
-0.013335628
0.0042335487
-0.013632013
0.004256506
-0.013935721
0.0042796396
-0.014246875
-0.014565582
0.0037654205
-0.010099306
-0.0037322739
0.0037984468
-0.01031654
0.0038313421
-0.010538909
0.0038641069
-0.01076655
0.0038967573
-0.010999614
0.0039293148
-0.011238249
0.0039617881
-0.011482602
0.0039941641
-0.01173281
0.0040263916
-0.011989011
0.004058355
-0.012251333
0.004089883
-0.012519913
0.0041208014
-0.012794911
0.0041509515
-0.013076493
0.0041801835
-0.013364836
0.0042083281
-0.013660123
0.0042351887
-0.013962538
0.0042606349
-0.014272271
-0.014589479
0.0037178307
-0.01013158
-0.0036855646
0.0037499391
-0.010348653
0.0037818363
-0.010570807
0.0038134589
-0.010798168
0.0038447367
-0.011030884
0.0038755967
-0.011269097
0.0039059693
-0.011512958
0.0039357985
-0.01176262
0.0039650534
-0.012018242
0.0039937377
-0.012279989
0.0040218796
-0.012548023
0.0040495071
-0.012822503
0.0040766378
-0.013103585
0.0041032736
-0.013391432
0.0041293927
-0.013686201
0.00415494
-0.013988045
0.0041798182
-0.01429711
-0.014613548
0.003670028
-0.010163344
-0.0036382774
0.0037017642
-0.0103804
0.003733447
-0.010602498
0.0037650422
-0.010829768
0.0037965137
-0.011062356
0.0038278214
-0.011300401
0.0038589177
-0.011544047
0.0038897407
-0.011793431
0.0039202113
-0.012048696
0.0039502328
-0.012309991
0.0039797003
-0.012577467
0.0040085113
-0.012851287
0.0040365751
-0.01313162
0.0040638122
-0.013418637
0.0040901573
-0.013712513
0.0041155608
-0.014013413
0.00413998
-0.014321491
-0.014636893
0.0036212854
-0.010193969
-0.0035906687
0.0036518292
-0.010410951
0.0036822685
-0.010632942
0.0037125659
-0.010860068
0.0037426832
-0.011092473
0.0037725831
-0.011330298
0.0038022312
-0.011573687
0.0038315986
-0.011822786
0.0038606616
-0.012077743
0.0038893996
-0.012338709
0.0039177894
-0.012605835
0.0039457981
-0.012879272
0.003973378
-0.013159175
0.0040004666
-0.013445702
0.0040269883
-0.013739011
0.0040528611
-0.014039263
0.004078002
-0.01434661
-0.0146612
0.0035756883
-0.01022415
-0.0035455142
0.0036058708
-0.01044114
0.0036360236
-0.010663102
0.0036661094
-0.01089016
0.0036960853
-0.011122453
0.003725904
-0.011360119
0.003755512
-0.011603296
0.0037848502
-0.011852122
0.003813855
-0.012106743
0.0038424602
-0.012367306
0.0038706017
-0.012633964
0.0038982213
-0.012906877
0.0039252675
-0.013186204
0.0039516948
-0.013472109
0.0039774612
-0.013764756
0.0040025239
-0.014064303
0.004026838
-0.0143709
-0.014684693
0.0035282795
-0.010253438
-0.0034989931
0.003557565
-0.010470428
0.0035868223
-0.010692361
0.003616021
-0.010919361
0.0036451297
-0.011151565
0.0036741171
-0.011389109
0.003702952
-0.011632132
0.0037316031
-0.011880774
0.0037600369
-0.012135176
0.0037882173
-0.012395484
0.0038161016
-0.012661845
0.0038436393
-0.012934409
0.0038707715
-0.013213329
0.0038974319
-0.013498762
0.003923549
-0.013790865
0.003949051
-0.014089796
0.0039738682
-0.014395706
-0.014708751
0.0034830208
-0.010282159
-0.003454298
0.0035117688
-0.010499175
0.0035405108
-0.010721104
0.0035692143
-0.010948066
0.0035978432
-0.011180196
0.0036263581
-0.011417626
0.0036547165
-0.011660494
0.0036828737
-0.011908934
0.0037107831
-0.012163088
0.0037383976
-0.012423101
0.0037656718
-0.012689121
0.0037925621
-0.0129613
0.0038190262
-0.013239793
0.003845023
-0.013524757
0.0038705106
-0.01381635
0.0038954439
-0.014114726
0.003919775
-0.014420034
-0.014732427
0.0034371655
-0.010310215
-0.0034091081
0.003465267
-0.010527276
0.003493386
-0.010749223
0.0035214952
-0.010976176
0.0035495644
-0.011208267
0.0035775626
-0.011445628
0.0036054567
-0.011688392
0.0036332122
-0.011936695
0.0036607919
-0.012190674
0.0036881555
-0.012450472
0.0037152585
-0.012716232
0.0037420521
-0.012988102
0.0037684838
-0.013266234
0.0037944976
-0.013550781
0.0038200366
-0.013841899
0.0038450432
-0.014139742
0.0038694629
-0.014444463
-0.014756217
0.0033921532
-0.010337659
-0.0033647066
0.0034196491
-0.01055477
0.0034471684
-0.010776742
0.0034746838
-0.011003692
0.0035021658
-0.011235751
0.0035295826
-0.011473047
0.0035569004
-0.011715714
0.0035840843
-0.011963884
0.0036110974
-0.012217694
0.0036379023
-0.012477285
0.0036644603
-0.012742799
0.0036907324
-0.013014384
0.003716678
-0.013292191
0.0037422555
-0.01357637
0.0037674202
-0.013867076
0.0037921259
-0.01416446
0.0038163238
-0.014468673
-0.014779869
0.003347448
-0.010364547
-0.0033205592
0.003374407
-0.010581728
0.0034014125
-0.010803747
0.0034284393
-0.01103072
0.0034554599
-0.011262774
0.0034824448
-0.011500036
0.0035093626
-0.011742637
0.00353618
-0.011990708
0.0035628616
-0.012244383
0.0035893694
-0.012503801
0.0036156634
-0.012769103
0.0036417011
-0.013040434
0.0036674381
-0.01331794
0.0036928282
-0.013601773
0.0037178245
-0.013892086
0.0037423799
-0.01418903
0.0037664484
-0.014492755
-0.014803421
0.0033030047
-0.010390851
-0.0032766983
0.0033293854
-0.010608108
0.0033558186
-0.01083018
0.0033822807
-0.011057183
0.0034087461
-0.011289241
0.0034351884
-0.011526481
0.0034615785
-0.011769031
0.0034878865
-0.012017021
0.0035140808
-0.012270584
0.0035401284
-0.012529856
0.003565995
-0.012794978
0.0035916441
-0.013066092
0.0036170377
-0.013343344
0.0036421352
-0.013626882
0.0036668939
-0.013916857
0.0036912695
-0.014213418
0.0037152169
-0.014516715
-0.014826907
0.0032591292
-0.01041664
-0.0032333381
0.0032850092
-0.010633987
0.0033109571
-0.010856127
0.0033369501
-0.011083176
0.0033629646
-0.011315257
0.0033889737
-0.011552492
0.0034149498
-0.011795011
0.0034408634
-0.012042939
0.0034666827
-0.012296409
0.0034923749
-0.012555555
0.0035179053
-0.012820516
0.0035432374
-0.013091433
0.0035683331
-0.013368449
0.0035931536
-0.013651712
0.0036176585
-0.013941372