/*--------------------------------*- C++ -*----------------------------------*\
| =========                 |                                                 |
| \\      /  F ield         | OpenFOAM: The Open Source CFD Toolbox           |
|  \\    /   O peration     | Version:  2406                                  |
|   \\  /    A nd           | Website:  www.openfoam.com                      |
|    \\/     M anipulation  |                                                 |
\*---------------------------------------------------------------------------*/
FoamFile
{
    version     2.0;
    format      ascii;
    arch        "LSB;label=32;scalar=64";
    class       volScalarField;
    location    "0.016";
    object      rho;
}
// * * * * * * * * * * * * * * * * * * * * * * * * * * * * * * * * * * * * * //

dimensions      [1 -3 0 0 0 0 0];

internalField   nonuniform List<scalar> 
23203
(
1.2007868
1.2000146
1.1996441
1.1992227
1.1987969
1.1984128
1.1980727
1.1977721
1.1975098
1.197283
1.1970879
1.1969243
1.1967898
1.1966836
1.1966046
1.1965507
1.1965205
1.1965122
1.1965217
1.2022557
1.2017384
1.201246
1.2006967
1.2001881
1.1997419
1.1993497
1.1990037
1.1986991
1.1984301
1.198193
1.1979831
1.1978001
1.1976447
1.1975165
1.1974145
1.1973376
1.1972843
1.1972522
1.2029284
1.2025286
1.2019977
1.2014067
1.2008712
1.2004048
1.1999931
1.1996277
1.1993033
1.1990148
1.1987573
1.1985286
1.1983277
1.1981542
1.1980074
1.1978863
1.1977896
1.197716
1.1976634
1.2034483
1.2031098
1.2025969
1.2020052
1.2014607
1.20098
1.200551
1.2001662
1.1998217
1.1995135
1.1992381
1.198993
1.1987767
1.198588
1.1984258
1.1982889
1.1981759
1.1980855
1.1980156
1.2039102
1.2036035
1.2031171
1.2025412
1.2020019
1.201519
1.201083
1.200688
1.200331
1.2000093
1.1997202
1.1994615
1.1992315
1.1990288
1.1988522
1.1987004
1.1985721
1.1984659
1.1983799
1.2043131
1.2040116
1.2035438
1.2029943
1.2024725
1.201998
1.2015642
1.2011671
1.2008049
1.2004757
1.2001777
1.199909
1.1996683
1.1994541
1.1992653
1.1991007
1.198959
1.198839
1.1987389
1.2046609
1.2043497
1.2038947
1.203376
1.2028787
1.2024192
1.201994
1.2016008
1.2012387
1.2009068
1.200604
1.200329
1.2000805
1.1998576
1.1996591
1.1994839
1.199331
1.1991991
1.1990868
1.2049632
1.2046355
1.2041916
1.2037038
1.2032327
1.2027917
1.2023789
1.2019936
1.2016358
1.2013051
1.2010011
1.2007228
1.2004695
1.2002404
1.2000345
1.1998509
1.1996888
1.199547
1.1994243
1.205221
1.2048817
1.2044493
1.2039898
1.2035441
1.2031223
1.2027241
1.2023494
1.2019988
1.2016724
1.20137
1.2010912
1.2008357
1.2006027
1.2003916
1.2002017
1.2000323
1.1998824
1.1997509
1.205434
1.2050929
1.2046781
1.2042434
1.2038201
1.203417
1.2030341
1.2026716
1.2023302
1.2020102
1.2017118
1.2014349
1.2011793
1.2009446
1.2007303
1.2005361
1.2003611
1.2002048
1.2000662
1.2056055
1.2052724
1.2048786
1.2044667
1.2040643
1.2036796
1.2033125
1.2029632
1.2026323
1.2023205
1.2020279
1.2017547
1.201501
1.2012664
1.2010508
1.2008539
1.2006752
1.200514
1.2003697
1.2057416
1.2054215
1.2050498
1.2046607
1.2042791
1.2039128
1.203562
1.2032267
1.2029075
1.202605
1.2023197
1.2020519
1.2018015
1.2015687
1.2013534
1.2011554
1.2009744
1.2008099
1.2006613
1.2058476
1.2055428
1.2051937
1.2048277
1.2044671
1.2041196
1.2037853
1.2034646
1.2031578
1.2028657
1.2025888
1.2023275
1.2020819
1.2018523
1.2016386
1.2014409
1.2012589
1.2010924
1.2009409
1.2059287
1.2056404
1.2053139
1.2049709
1.2046312
1.2043024
1.203985
1.2036791
1.2033853
1.2031043
1.2028366
1.2025828
1.202343
1.2021177
1.2019069
1.2017107
1.201529
1.2013617
1.2012084
1.20599
1.2057188
1.2054142
1.2050934
1.2047741
1.2044639
1.2041632
1.2038723
1.2035918
1.2033224
1.2030646
1.202819
1.202586
1.2023659
1.2021589
1.2019653
1.201785
1.201618
1.2014639
1.2060369
1.2057822
1.2054981
1.2051983
1.2048987
1.2046065
1.2043223
1.2040464
1.2037793
1.2035216
1.2032742
1.2030374
1.2028117
1.2025976
1.2023954
1.2022052
1.2020272
1.2018614
1.2017076
1.2060705
1.2058317
1.2055672
1.2052876
1.205007
1.2047323
1.2044643
1.2042031
1.2039493
1.2037036
1.2034667
1.2032392
1.2030214
1.2028139
1.202617
1.2024311
1.2022562
1.2020925
1.2019397
1.2060942
1.2058702
1.2056241
1.2053636
1.2051012
1.2048433
1.2045909
1.204344
1.2041035
1.2038698
1.2036436
1.2034255
1.203216
1.2030156
1.2028247
1.2026436
1.2024725
1.2023115
1.2021606
1.206113
1.2059004
1.2056711
1.2054283
1.2051829
1.2049411
1.2047037
1.2044709
1.2042433
1.2040214
1.203806
1.2035975
1.2033965
1.2032036
1.203019
1.2028433
1.2026766
1.2025191
1.2023706
1.2061178
1.2059206
1.2057078
1.2054822
1.2052534
1.2050271
1.2048042
1.204585
1.20437
1.2041598
1.2039551
1.2037563
1.203564
1.2033787
1.2032009
1.203031
1.2028691
1.2027155
1.2025702
1.2061251
1.2059334
1.205736
1.2055271
1.2053141
1.2051027
1.2048938
1.2046878
1.204485
1.2042862
1.204092
1.2039029
1.2037193
1.2035419
1.2033711
1.2032073
1.2030507
1.2029015
1.2027598
1.2061132
1.2059405
1.2057578
1.2055642
1.2053664
1.2051693
1.2049738
1.2047803
1.2045895
1.2044018
1.2042179
1.2040383
1.2038635
1.2036941
1.2035304
1.203373
1.203222
1.2030775
1.2029398
1.2061127
1.2059648
1.2057839
1.2055994
1.2054138
1.2052291
1.2050458
1.2048641
1.2046845
1.2045076
1.2043337
1.2041635
1.2039975
1.2038361
1.2036797
1.2035287
1.2033835
1.2032442
1.2031109
1.2061092
1.2059541
1.2057901
1.2056233
1.2054523
1.2052806
1.2051096
1.2049395
1.2047709
1.2046044
1.2044404
1.2042795
1.2041221
1.2039686
1.2038196
1.2036753
1.2035361
1.2034021
1.2032735
1.2060793
1.2059524
1.2058151
1.2056545
1.2054904
1.2053284
1.2051678
1.2050082
1.2048499
1.2046933
1.2045389
1.204387
1.2042381
1.2040926
1.203951
1.2038135
1.2036804
1.203552
1.2034282
1.2060821
1.205959
1.2058163
1.2056634
1.2055141
1.2053659
1.2052175
1.2050691
1.2049214
1.2047748
1.2046299
1.2044869
1.2043465
1.2042089
1.2040746
1.2039439
1.2038171
1.2036943
1.2035757
1.2060613
1.2059447
1.205809
1.2056703
1.2055364
1.2054006
1.2052632
1.2051252
1.2049875
1.2048504
1.2047145
1.2045803
1.2044481
1.2043183
1.2041913
1.2040674
1.2039469
1.2038298
1.2037164
1.206032
1.2059181
1.2058098
1.2056995
1.2055702
1.2054386
1.2053081
1.2051784
1.2050494
1.204921
1.2047938
1.2046679
1.2045437
1.2044216
1.2043018
1.2041847
1.2040704
1.2039592
1.2038511
1.2060214
1.2059223
1.2058148
1.2057013
1.2055831
1.205464
1.2053446
1.2052251
1.2051056
1.2049864
1.2048679
1.2047503
1.2046341
1.2045195
1.2044069
1.2042964
1.2041884
1.2040829
1.2039802
1.2060005
1.2059095
1.2058086
1.2057048
1.2055978
1.2054892
1.2053797
1.2052694
1.2051589
1.2050484
1.2049382
1.2048287
1.2047202
1.204613
1.2045074
1.2044035
1.2043016
1.2042019
1.2041044
1.2059813
1.2058992
1.2058061
1.2057113
1.2056135
1.205514
1.2054133
1.2053119
1.2052099
1.2051078
1.2050057
1.204904
1.204803
1.2047029
1.204604
1.2045065
1.2044107
1.2043165
1.2042242
1.2059644
1.2058919
1.2058061
1.2057193
1.2056299
1.2055389
1.2054467
1.2053536
1.2052598
1.2051655
1.2050712
1.2049769
1.2048831
1.2047899
1.2046976
1.2046063
1.2045162
1.2044274
1.2043402
1.205951
1.2058885
1.2058095
1.2057298
1.2056481
1.2055649
1.2054807
1.2053954
1.2053093
1.2052225
1.2051355
1.2050484
1.2049614
1.2048748
1.2047887
1.2047033
1.2046187
1.2045351
1.2044526
1.2059403
1.2058881
1.2058155
1.2057426
1.205668
1.2055923
1.2055156
1.2054378
1.205359
1.2052795
1.2051995
1.2051191
1.2050386
1.2049582
1.204878
1.2047981
1.2047188
1.2046399
1.2045619
1.2059322
1.2058909
1.2058255
1.2057601
1.2056927
1.2056241
1.2055542
1.205483
1.2054108
1.2053377
1.205264
1.2051898
1.2051152
1.2050405
1.2049658
1.2048911
1.2048166
1.2047421
1.204668
1.2059325
1.2059043
1.2058467
1.2057849
1.2057186
1.2056558
1.2055932
1.205529
1.2054633
1.2053965
1.2053287
1.2052603
1.2051912
1.2051218
1.2050521
1.2049822
1.204912
1.2048414
1.204771
1.2059413
1.2059292
1.2058804
1.2058076
1.2057354
1.205685
1.2056336
1.2055775
1.2055182
1.2054571
1.2053946
1.2053311
1.2052669
1.205202
1.2051367
1.205071
1.2050048
1.2049379
1.205949
1.2059435
1.2058882
1.2058394
1.2057996
1.2057472
1.2056923
1.2056364
1.2055793
1.2055211
1.205462
1.2054021
1.2053417
1.2052807
1.2052192
1.2051572
1.2050946
1.2050313
1.2059793
1.2059882
1.2059275
1.2058748
1.2058455
1.2058014
1.2057493
1.2056953
1.2056403
1.2055845
1.205528
1.2054712
1.2054139
1.2053563
1.2052982
1.2052395
1.2051799
1.2051193
1.2059983
1.2060167
1.2060066
1.2059806
1.205922
1.2058624
1.2058083
1.2057548
1.2057002
1.2056452
1.2055905
1.2055359
1.2054812
1.2054262
1.2053709
1.2053149
1.2052577
1.205199
1.2060817
1.2061171
1.206084
1.205994
1.2059133
1.2058629
1.2058296
1.2057896
1.2057424
1.2056921
1.2056417
1.2055905
1.2055383
1.2054854
1.2054325
1.2053793
1.2053247
1.2052675
1.2060621
1.206066
1.2060575
1.2060801
1.206066
1.2059917
1.205906
1.2058326
1.2057671
1.2057109
1.2056643
1.2056185
1.2055702
1.2055206
1.205472
1.205425
1.2053759
1.2053206
1.2060783
1.2060644
1.2060178
1.2059545
1.2059195
1.2059184
1.2059172
1.2059168
1.2058835
1.2058103
1.2057369
1.2056739
1.2056172
1.2055621
1.2055054
1.205445
1.2053746
1.2053033
1.2061121
1.2060798
1.2060394
1.2059927
1.205943
1.2058885
1.2058252
1.2057514
1.2057026
1.205687
1.2056634
1.2056283
1.2055846
1.2055362
1.2054874
1.2054433
1.2053852
1.205308
1.2060894
1.2060495
1.2060081
1.2059667
1.2059247
1.2058817
1.2058375
1.2057939
1.2057539
1.2057115
1.2056602
1.2056024
1.2055425
1.2054798
1.2054128
1.2053376
1.2052785
1.2052438
1.2060339
1.2059969
1.2059576
1.2059175
1.2058766
1.2058342
1.2057908
1.2057467
1.2057016
1.205656
1.2056106
1.2055644
1.2055163
1.2054666
1.205415
1.2053645
1.2053178
1.2052672
1.205986
1.2059514
1.2059139
1.2058758
1.2058372
1.2057979
1.2057577
1.2057166
1.2056741
1.2056295
1.2055825
1.2055338
1.2054841
1.2054338
1.2053832
1.2053331
1.2052836
1.2052341
1.2059302
1.2058974
1.205862
1.2058258
1.205789
1.2057512
1.2057125
1.2056728
1.2056323
1.205591
1.2055491
1.2055063
1.2054625
1.2054175
1.2053713
1.2053239
1.205275
1.2052246
1.2058806
1.2058497
1.205816
1.2057816
1.2057466
1.2057106
1.2056736
1.2056355
1.2055963
1.205556
1.2055145
1.205472
1.2054285
1.2053844
1.2053397
1.2052944
1.2052487
1.2052022
1.2058282
1.2057988
1.2057668
1.2057342
1.205701
1.205667
1.2056321
1.2055963
1.2055597
1.2055222
1.2054838
1.2054446
1.2054043
1.2053629
1.2053204
1.2052768
1.2052321
1.2051864
1.2057782
1.2057503
1.2057199
1.2056889
1.2056572
1.2056247
1.2055912
1.2055568
1.2055214
1.2054852
1.205448
1.20541
1.2053712
1.2053315
1.2052912
1.20525
1.2052081
1.2051653
1.2057285
1.2057019
1.2056731
1.2056436
1.2056136
1.2055829
1.2055513
1.2055188
1.2054856
1.2054514
1.2054164
1.2053805
1.2053437
1.2053059
1.2052672
1.2052276
1.205187
1.2051455
1.2056792
1.2056539
1.2056264
1.2055983
1.2055696
1.2055402
1.20551
1.205479
1.2054471
1.2054144
1.2053809
1.2053466
1.2053115
1.2052757
1.205239
1.2052015
1.2051632
1.205124
1.2056312
1.2056071
1.2055809
1.2055542
1.205527
1.2054991
1.2054704
1.2054409
1.2054107
1.2053797
1.2053478
1.2053152
1.2052817
1.2052474
1.2052122
1.2051762
1.2051394
1.2051017
1.2055834
1.2055603
1.2055353
1.2055098
1.2054838
1.2054572
1.2054298
1.2054017
1.2053728
1.2053432
1.2053129
1.2052818
1.20525
1.2052174
1.205184
1.2051499
1.2051149
1.2050791
1.2055366
1.2055147
1.2054909
1.2054666
1.2054418
1.2054164
1.2053903
1.2053635
1.205336
1.2053078
1.2052789
1.2052492
1.2052187
1.2051875
1.2051556
1.2051229
1.2050894
1.2050552
1.2054902
1.2054692
1.2054465
1.2054233
1.2053997
1.2053754
1.2053505
1.205325
1.2052988
1.2052719
1.2052443
1.2052161
1.2051871
1.2051574
1.205127
1.2050959
1.205064
1.2050314
1.2054445
1.2054245
1.2054028
1.2053807
1.2053582
1.2053351
1.2053113
1.2052869
1.2052619
1.2052362
1.2052099
1.2051829
1.2051552
1.2051269
1.2050978
1.2050681
1.2050377
1.2050066
1.2053993
1.2053803
1.2053596
1.2053385
1.205317
1.2052949
1.2052723
1.205249
1.2052252
1.2052007
1.2051756
1.2051499
1.2051235
1.2050965
1.2050688
1.2050405
1.2050115
1.2049817
1.2053548
1.2053366
1.2053168
1.2052967
1.2052762
1.2052551
1.2052335
1.2052114
1.2051886
1.2051652
1.2051413
1.2051167
1.2050916
1.2050658
1.2050394
1.2050123
1.2049846
1.2049563
1.2053108
1.2052935
1.2052746
1.2052554
1.2052358
1.2052158
1.2051952
1.205174
1.2051523
1.2051301
1.2051072
1.2050838
1.2050598
1.2050352
1.20501
1.2049842
1.2049577
1.2049307
1.2052673
1.2052508
1.2052328
1.2052145
1.2051958
1.2051767
1.205157
1.2051369
1.2051162
1.2050949
1.2050731
1.2050508
1.2050279
1.2050044
1.2049804
1.2049557
1.2049305
1.2049047
1.2052245
1.2052087
1.2051915
1.2051741
1.2051563
1.205138
1.2051193
1.2051001
1.2050803
1.2050601
1.2050393
1.205018
1.2049961
1.2049737
1.2049508
1.2049272
1.2049032
1.2048785
1.2051821
1.2051671
1.2051507
1.205134
1.2051171
1.2050997
1.2050818
1.2050635
1.2050446
1.2050253
1.2050055
1.2049852
1.2049643
1.204943
1.2049211
1.2048986
1.2048756
1.2048521
1.2051402
1.2051259
1.2051103
1.2050944
1.2050782
1.2050617
1.2050446
1.2050271
1.2050092
1.2049908
1.2049719
1.2049525
1.2049326
1.2049122
1.2048913
1.2048699
1.2048479
1.2048255
1.2050989
1.2050852
1.2050703
1.2050552
1.2050398
1.205024
1.2050077
1.204991
1.2049739
1.2049564
1.2049384
1.2049199
1.2049009
1.2048815
1.2048615
1.2048411
1.2048202
1.2047987
1.205058
1.205045
1.2050308
1.2050163
1.2050016
1.2049866
1.2049711
1.2049552
1.2049389
1.2049221
1.204905
1.2048873
1.2048693
1.2048507
1.2048317
1.2048122
1.2047922
1.2047718
1.2050176
1.2050052
1.2049916
1.2049779
1.2049639
1.2049495
1.2049348
1.2049196
1.2049041
1.2048881
1.2048717
1.2048549
1.2048377
1.20482
1.2048019
1.2047833
1.2047643
1.2047447
1.2049777
1.2049659
1.204953
1.2049399
1.2049265
1.2049129
1.2048988
1.2048844
1.2048695
1.2048543
1.2048387
1.2048227
1.2048063
1.2047894
1.2047721
1.2047544
1.2047362
1.2047176
1.2049384
1.2049271
1.2049148
1.2049023
1.2048896
1.2048766
1.2048632
1.2048494
1.2048353
1.2048208
1.2048059
1.2047907
1.204775
1.2047589
1.2047424
1.2047255
1.2047082
1.2046904
1.2048996
1.2048889
1.2048772
1.2048653
1.2048532
1.2048408
1.204828
1.2048149
1.2048015
1.2047877
1.2047735
1.2047589
1.204744
1.2047287
1.2047129
1.2046968
1.2046803
1.2046634
1.2048614
1.2048512
1.2048401
1.2048288
1.2048173
1.2048054
1.2047933
1.2047808
1.204768
1.2047549
1.2047414
1.2047275
1.2047133
1.2046987
1.2046837
1.2046683
1.2046526
1.2046364
1.2048239
1.2048142
1.2048036
1.2047928
1.2047818
1.2047706
1.204759
1.2047471
1.204735
1.2047224
1.2047096
1.2046964
1.2046828
1.2046689
1.2046547
1.20464
1.204625
1.2046096
1.204787
1.2047777
1.2047676
1.2047574
1.2047469
1.2047362
1.2047252
1.2047139
1.2047023
1.2046904
1.2046781
1.2046656
1.2046527
1.2046394
1.2046258
1.2046119
1.2045976
1.204583
1.2047507
1.2047419
1.2047322
1.2047225
1.2047125
1.2047023
1.2046918
1.2046811
1.20467
1.2046587
1.204647
1.204635
1.2046228
1.2046102
1.2045972
1.204584
1.2045704
1.2045564
1.2047149
1.2047065
1.2046974
1.2046881
1.2046786
1.2046689
1.2046589
1.2046487
1.2046382
1.2046273
1.2046163
1.2046049
1.2045932
1.2045812
1.2045689
1.2045563
1.2045433
1.2046798
1.2046718
1.2046631
1.2046543
1.2046453
1.204636
1.2046265
1.2046168
1.2046067
1.2045965
1.2045859
1.2045751
1.2045639
1.2045525
1.2045408
1.2045288
1.2045165
1.2046453
1.2046377
1.2046294
1.204621
1.2046124
1.2046036
1.2045946
1.2045853
1.2045758
1.204566
1.204556
1.2045457
1.2045351
1.2045242
1.204513
1.2045016
1.2044899
1.2046113
1.2046041
1.2045962
1.2045883
1.2045801
1.2045718
1.2045632
1.2045544
1.2045453
1.204536
1.2045265
1.2045167
1.2045066
1.2044963
1.2044856
1.2044748
1.2044636
1.204578
1.2045712
1.2045637
1.2045561
1.2045484
1.2045405
1.2045323
1.2045239
1.2045153
1.2045065
1.2044974
1.2044881
1.2044785
1.2044687
1.2044586
1.2044483
1.2044376
1.2045454
1.2045389
1.2045318
1.2045246
1.2045172
1.2045097
1.204502
1.204494
1.2044858
1.2044774
1.2044688
1.20446
1.2044509
1.2044415
1.204432
1.2044221
1.204412
1.2045134
1.2045072
1.2045004
1.2044936
1.2044866
1.2044795
1.2044722
1.2044646
1.2044569
1.2044489
1.2044407
1.2044323
1.2044237
1.2044148
1.2044057
1.2043963
1.2043868
1.2044821
1.2044762
1.2044698
1.2044633
1.2044567
1.2044499
1.2044429
1.2044357
1.2044284
1.2044208
1.2044131
1.2044051
1.2043969
1.2043885
1.2043798
1.204371
1.2043618
1.2044514
1.2044458
1.2044397
1.2044336
1.2044273
1.2044209
1.2044143
1.2044075
1.2044005
1.2043933
1.2043859
1.2043783
1.2043706
1.2043626
1.2043544
1.204346
1.2043373
1.2044215
1.2044162
1.2044104
1.2044045
1.2043986
1.2043925
1.2043862
1.2043798
1.2043731
1.2043663
1.2043593
1.2043521
1.2043447
1.2043372
1.2043294
1.2043214
1.2043132
1.2043922
1.2043872
1.2043817
1.2043762
1.2043705
1.2043647
1.2043588
1.2043527
1.2043464
1.2043399
1.2043333
1.2043264
1.2043194
1.2043122
1.2043048
1.2042973
1.2042895
1.2043637
1.2043589
1.2043537
1.2043485
1.2043431
1.2043376
1.204332
1.2043262
1.2043202
1.2043141
1.2043078
1.2043013
1.2042946
1.2042878
1.2042808
1.2042736
1.2042662
1.2043359
1.2043313
1.2043264
1.2043214
1.2043164
1.2043112
1.2043058
1.2043003
1.2042946
1.2042888
1.2042829
1.2042767
1.2042704
1.2042639
1.2042573
1.2042504
1.2042434
1.2043087
1.2043045
1.2042998
1.2042951
1.2042903
1.2042854
1.2042803
1.2042751
1.2042697
1.2042642
1.2042585
1.2042527
1.2042467
1.2042405
1.2042342
1.2042277
1.2042211
1.2042823
1.2042783
1.2042739
1.2042694
1.2042649
1.2042602
1.2042554
1.2042504
1.2042454
1.2042401
1.2042348
1.2042292
1.2042236
1.2042177
1.2042117
1.2042056
1.2041992
1.2042566
1.2042528
1.2042486
1.2042444
1.2042401
1.2042357
1.2042311
1.2042265
1.2042216
1.2042167
1.2042116
1.2042064
1.204201
1.2041955
1.2041898
1.2041839
1.2041779
1.2042317
1.204228
1.2042241
1.2042201
1.204216
1.2042118
1.2042075
1.2042031
1.2041985
1.2041939
1.204189
1.2041841
1.204179
1.2041737
1.2041684
1.2041628
1.2041571
1.2042074
1.204204
1.2042002
1.2041965
1.2041926
1.2041886
1.2041846
1.2041804
1.2041761
1.2041716
1.2041671
1.2041624
1.2041576
1.2041526
1.2041475
1.2041423
1.2041369
1.2041839
1.2041806
1.2041771
1.2041735
1.2041699
1.2041661
1.2041623
1.2041583
1.2041542
1.20415
1.2041457
1.2041413
1.2041367
1.204132
1.2041272
1.2041222
1.2041171
1.2041611
1.204158
1.2041547
1.2041513
1.2041478
1.2041443
1.2041407
1.2041369
1.2041331
1.2041291
1.204125
1.2041208
1.2041165
1.2041121
1.2041075
1.2041028
1.204098
1.2041391
1.2041362
1.204133
1.2041298
1.2041265
1.2041232
1.2041197
1.2041162
1.2041125
1.2041088
1.2041049
1.2041009
1.2040969
1.2040927
1.2040883
1.2040839
1.2040793
1.2041179
1.2041151
1.2041121
1.2041091
1.204106
1.2041028
1.2040995
1.2040962
1.2040927
1.2040892
1.2040855
1.2040817
1.2040779
1.2040739
1.2040698
1.2040656
1.2040613
1.2040974
1.2040948
1.204092
1.2040891
1.2040862
1.2040832
1.2040801
1.2040769
1.2040736
1.2040702
1.2040668
1.2040632
1.2040595
1.2040558
1.2040519
1.2040479
1.2040438
1.2040778
1.2040753
1.2040726
1.2040699
1.2040671
1.2040643
1.2040613
1.2040583
1.2040552
1.204052
1.2040487
1.2040453
1.2040419
1.2040383
1.2040346
1.2040308
1.204059
1.2040566
1.2040541
1.2040515
1.2040489
1.2040462
1.2040434
1.2040405
1.2040376
1.2040345
1.2040314
1.2040282
1.2040249
1.2040215
1.204018
1.2040144
1.2040409
1.2040387
1.2040363
1.2040338
1.2040313
1.2040288
1.2040261
1.2040234
1.2040206
1.2040177
1.2040148
1.2040117
1.2040086
1.2040054
1.204002
1.2039986
1.2040236
1.2040215
1.2040192
1.2040169
1.2040145
1.2040121
1.2040096
1.204007
1.2040043
1.2040016
1.2039988
1.2039959
1.2039929
1.2039899
1.2039867
1.2039835
1.204007
1.204005
1.2040029
1.2040007
1.2039984
1.2039961
1.2039937
1.2039913
1.2039888
1.2039862
1.2039835
1.2039808
1.203978
1.2039751
1.2039721
1.203969
1.2039912
1.2039893
1.2039872
1.2039852
1.203983
1.2039809
1.2039786
1.2039763
1.2039739
1.2039715
1.2039689
1.2039663
1.2039637
1.2039609
1.2039581
1.2039552
1.2039761
1.2039743
1.2039724
1.2039704
1.2039684
1.2039663
1.2039642
1.203962
1.2039598
1.2039574
1.203955
1.2039526
1.2039501
1.2039474
1.2039448
1.203942
1.2039619
1.2039601
1.2039583
1.2039565
1.2039545
1.2039526
1.2039506
1.2039485
1.2039463
1.2039441
1.2039419
1.2039395
1.2039372
1.2039347
1.2039321
1.2039295
1.2039484
1.2039468
1.2039451
1.2039433
1.2039415
1.2039396
1.2039377
1.2039358
1.2039337
1.2039316
1.2039295
1.2039273
1.203925
1.2039227
1.2039202
1.2039178
1.2039359
1.2039343
1.2039327
1.203931
1.2039293
1.2039275
1.2039257
1.2039238
1.2039219
1.2039199
1.2039179
1.2039158
1.2039136
1.2039114
1.2039091
1.2039067
1.2039242
1.2039227
1.2039212
1.2039196
1.203918
1.2039163
1.2039145
1.2039128
1.2039109
1.203909
1.2039071
1.2039051
1.203903
1.2039009
1.2038987
1.2038965
1.2039134
1.203912
1.2039105
1.203909
1.2039074
1.2039058
1.2039042
1.2039025
1.2039007
1.2038989
1.2038971
1.2038952
1.2038932
1.2038912
1.2038891
1.203887
1.2039034
1.2039021
1.2039007
1.2038992
1.2038977
1.2038962
1.2038946
1.203893
1.2038913
1.2038896
1.2038879
1.203886
1.2038842
1.2038822
1.2038803
1.2038782
1.2038942
1.2038929
1.2038916
1.2038902
1.2038888
1.2038873
1.2038858
1.2038843
1.2038827
1.2038811
1.2038794
1.2038776
1.2038758
1.203874
1.2038721
1.2038702
1.2038857
1.2038845
1.2038833
1.2038819
1.2038806
1.2038792
1.2038778
1.2038763
1.2038748
1.2038732
1.2038716
1.20387
1.2038682
1.2038665
1.2038647
1.2038628
1.2038781
1.2038769
1.2038757
1.2038744
1.2038731
1.2038718
1.2038705
1.203869
1.2038676
1.2038661
1.2038646
1.203863
1.2038614
1.2038597
1.2038579
1.2038562
1.2038712
1.2038701
1.2038689
1.2038677
1.2038665
1.2038652
1.2038639
1.2038626
1.2038612
1.2038597
1.2038583
1.2038568
1.2038552
1.2038536
1.2038519
1.2038652
1.2038641
1.203863
1.2038618
1.2038607
1.2038594
1.2038582
1.2038569
1.2038556
1.2038542
1.2038528
1.2038513
1.2038498
1.2038483
1.2038467
1.2038601
1.203859
1.203858
1.2038569
1.2038557
1.2038545
1.2038533
1.2038521
1.2038508
1.2038495
1.2038481
1.2038467
1.2038453
1.2038438
1.2038423
1.2038559
1.2038549
1.2038539
1.2038528
1.2038517
1.2038506
1.2038494
1.2038482
1.2038469
1.2038457
1.2038444
1.203843
1.2038416
1.2038402
1.2038387
1.2038528
1.2038518
1.2038508
1.2038498
1.2038487
1.2038476
1.2038464
1.2038453
1.2038441
1.2038428
1.2038416
1.2038402
1.2038389
1.2038375
1.2038361
1.2038507
1.2038497
1.2038487
1.2038477
1.2038467
1.2038456
1.2038445
1.2038434
1.2038422
1.203841
1.2038398
1.2038385
1.2038372
1.2038358
1.2038344
1.2038496
1.2038487
1.2038478
1.2038468
1.2038458
1.2038447
1.2038436
1.2038425
1.2038414
1.2038402
1.203839
1.2038378
1.2038365
1.2038352
1.2038338
1.2038497
1.2038488
1.2038478
1.2038469
1.2038459
1.2038449
1.2038438
1.2038427
1.2038416
1.2038405
1.2038393
1.2038381
1.2038368
1.2038355
1.2038342
1.2038508
1.20385
1.203849
1.2038481
1.2038471
1.2038461
1.2038451
1.203844
1.2038429
1.2038418
1.2038406
1.2038394
1.2038382
1.2038369
1.2038356
1.203853
1.2038521
1.2038512
1.2038503
1.2038493
1.2038483
1.2038473
1.2038463
1.2038452
1.2038441
1.2038429
1.2038417
1.2038405
1.2038393
1.203838
1.2038566
1.2038557
1.2038548
1.2038539
1.203853
1.203852
1.203851
1.20385
1.2038489
1.2038478
1.2038466
1.2038455
1.2038443
1.203843
1.2038417
1.2038609
1.20386
1.2038591
1.2038582
1.2038573
1.2038563
1.2038553
1.2038542
1.2038532
1.2038521
1.2038509
1.2038497
1.2038485
1.2038473
1.2038638
1.203863
1.2038621
1.2038612
1.2038603
1.2038593
1.2038584
1.2038573
1.2038563
1.2038552
1.2038541
1.203853
1.2038518
1.2038506
1.1830513
1.1832897
1.1837784
1.1843754
1.1849746
1.1854993
1.1859434
1.1863176
1.1866333
1.1869067
1.1871545
1.1873882
1.1876152
1.1878408
1.1880686
1.1883005
1.1885375
1.1887798
1.1890275
1.1836804
1.1842442
1.1849261
1.1855444
1.1860164
1.1863687
1.1866484
1.1868825
1.187089
1.1872839
1.1874792
1.1876796
1.1878867
1.1881007
1.1883216
1.1885494
1.1887836
1.1890238
1.1841841
1.1847377
1.1853009
1.1857709
1.1861338
1.1864279
1.1866797
1.1869049
1.187116
1.1873226
1.1875305
1.1877422
1.1879587
1.1881809
1.188409
1.1886432
1.1888834
1.189129
1.1846265
1.1851438
1.1856194
1.1860066
1.186309
1.1865575
1.186777
1.1869826
1.1871838
1.1873862
1.187593
1.1878056
1.1880247
1.1882505
1.188483
1.188722
1.1889669
1.1850165
1.1854627
1.1858465
1.1861538
1.1864024
1.1866196
1.1868234
1.1870235
1.1872249
1.1874305
1.187642
1.1878602
1.1880854
1.1883175
1.1885563
1.1888013
1.1890519
1.1853185
1.1856748
1.1859792
1.1862329
1.1864518
1.1866548
1.1868534
1.1870533
1.1872575
1.187468
1.1876855
1.1879103
1.1881425
1.1883817
1.1886274
1.188879
1.1855296
1.1858028
1.1860447
1.1862666
1.1864706
1.1866675
1.1868656
1.1870688
1.1872787
1.1874962
1.1877215
1.1879545
1.1881949
1.1884421
1.1886955
1.1889542
1.185652
1.1858642
1.1860664
1.1862679
1.186464
1.1866604
1.1868625
1.1870724
1.1872906
1.1875172
1.187752
1.1879945
1.188244
1.1885
1.1887616
1.1856878
1.1858622
1.1860438
1.186237
1.1864335
1.1866355
1.186846
1.1870658
1.1872948
1.1875324
1.1877781
1.1880312
1.1882908
1.1885562
1.1888264
1.1856533
1.1858102
1.1859853
1.1861799
1.1863835
1.1865958
1.1868182
1.1870507
1.1872926
1.1875429
1.1878009
1.1880656
1.1883361
1.1886114
1.1855622
1.1857165
1.185896
1.1860999
1.1863163
1.1865431
1.1867807
1.1870285
1.1872853
1.18755
1.1878214
1.1880986
1.1883806
1.1886664
1.1854234
1.1855866
1.1857795
1.1859998
1.1862341
1.1864795
1.1867354
1.1870009
1.1872744
1.1875548
1.1878408
1.1881312
1.1884252
1.1887217
1.1852431
1.185425
1.1856394
1.1858824
1.1861395
1.1864071
1.1866842
1.1869695
1.1872615
1.1875588
1.1878601
1.1881645
1.1884708
1.185026
1.1852359
1.1854794
1.185751
1.1860353
1.1863284
1.1866292
1.1869363
1.1872481
1.1875633
1.1878806
1.1881992
1.1885181
1.1847774
1.1850239
1.1853038
1.1856093
1.1859248
1.1862464
1.186573
1.1869034
1.187236
1.1875698
1.1879035
1.1882365
1.188568
1.1845036
1.1847952
1.1851177
1.1854616
1.1858116
1.186164
1.1865181
1.1868728
1.187227
1.1875798
1.18793
1.1882774
1.1842129
1.1845568
1.1849271
1.185313
1.1856997
1.1860846
1.1864672
1.1868468
1.187223
1.1875949
1.1879614
1.1883228
1.1839154
1.1843172
1.1847388
1.1851687
1.1855937
1.1860117
1.1864231
1.1868277
1.187226
1.1876169
1.1879987
1.1883736
1.1836224
1.1840852
1.1845599
1.1850345
1.1854977
1.1859488
1.1863885
1.1868174
1.1872385
1.1876478
1.1880428
1.1884307
1.1833456
1.1838699
1.1843974
1.1849157
1.1854164
1.1858996
1.1863664
1.1868184
1.1872628
1.1876883
1.1880942
1.1830961
1.1836798
1.1842583
1.1848179
1.1853542
1.1858678
1.186361
1.1868358
1.1872949
1.1877348
1.1881583
1.1828814
1.1835248
1.1841493
1.1847473
1.1853157
1.1858566
1.1863731
1.1868675
1.1873417
1.187796
1.1882325
1.1827143
1.1834106
1.1840761
1.1847074
1.1853039
1.1858688
1.1864056
1.1869169
1.187405
1.1878714
1.1883181
1.1826018
1.1833437
1.1840436
1.1847024
1.1853223
1.1859071
1.1864607
1.1869861
1.1874857
1.1879618
1.1884164
1.1825499
1.1833298
1.1840565
1.1847363
1.1853741
1.1859742
1.1865407
1.1870767
1.187585
1.1880681
1.1885284
1.1825638
1.1833731
1.1841183
1.184812
1.1854617
1.1860722
1.1866473
1.1871902
1.1877038
1.1881908
1.1886544
1.182647
1.1834768
1.1842318
1.1849316
1.1855869
1.1862022
1.1867815
1.1873275
1.1878424
1.1883301
1.1887952
1.1828011
1.1836428
1.1843984
1.1850963
1.1857502
1.186365
1.1869447
1.1874918
1.1880061
1.1884926
1.1889596
1.1830278
1.1838755
1.1846233
1.1853115
1.1859575
1.1865665
1.1871444
1.1876954
1.1882167
1.1887051
1.1891701
1.1833371
1.1841866
1.1849213
1.1855978
1.1862337
1.1868319
1.1874001
1.1879449
1.1884574
1.1889341
1.1893856
1.1837125
1.1845432
1.1852538
1.1859133
1.1865381
1.187126
1.1876775
1.1881973
1.1886778
1.1891209
1.1895535
1.1899698
1.1841154
1.184921
1.1856004
1.1862257
1.1868154
1.1873742
1.1879054
1.1884193
1.1888782
1.1892914
1.1896933
1.1900803
1.1844938
1.1852821
1.1859257
1.1865192
1.1870837
1.1876173
1.188113
1.188566
1.1890252
1.1894958
1.1899204
1.1903163
1.1851487
1.1858804
1.1864608
1.186995
1.1875115
1.1880072
1.1884779
1.1889225
1.1893602
1.1897887
1.190193
1.1905758
1.1858856
1.1865547
1.1870733
1.1875513
1.188017
1.1884674
1.1888999
1.1893145
1.1897167
1.1901074
1.1904837
1.1908453
1.191194
1.1866284
1.1872456
1.1877041
1.1881269
1.1885427
1.1889478
1.1893396
1.1897183
1.1900862
1.1904446
1.1907929
1.1911307
1.1914584
1.1874157
1.1879784
1.1883725
1.1887361
1.189099
1.1894562
1.1898046
1.1901445
1.1904768
1.1908024
1.1911211
1.1914328
1.1917374
1.1882579
1.1887606
1.1890846
1.189384
1.1896898
1.1899956
1.1902975
1.1905954
1.1908896
1.1911804
1.1914677
1.1917511
1.1920305
1.1923056
1.1891543
1.1895919
1.1898406
1.190071
1.1903155
1.1905661
1.1908182
1.191071
1.1913245
1.1915783
1.1918321
1.1920853
1.1923377
1.1925888
1.1901022
1.1904708
1.1906396
1.1907967
1.190976
1.1911679
1.1913668
1.1915716
1.1917816
1.1919961
1.1922143
1.1924355
1.192659
1.1928842
1.1910984
1.1913949
1.1914802
1.1915605
1.191671
1.1918008
1.1919433
1.1920971
1.192261
1.1924339
1.1926144
1.1928016
1.1929943
1.1931918
1.193393
1.1921391
1.1923615
1.1923608
1.1923613
1.1924
1.1924647
1.1925479
1.1926477
1.1927628
1.1928916
1.1930324
1.1931836
1.1933439
1.193512
1.1936869
1.1932203
1.1933674
1.1932795
1.1931985
1.1931627
1.1931595
1.1931805
1.1932235
1.1932871
1.1933694
1.1934683
1.1935818
1.193708
1.193845
1.1939915
1.194147
1.1943372
1.1944078
1.1942339
1.1940716
1.1939592
1.1938854
1.1938413
1.1938245
1.1938336
1.1938667
1.1939216
1.1939956
1.1940863
1.1941909
1.1943067
1.1944349
1.1954827
1.1954721
1.1952163
1.1949782
1.1947885
1.1946416
1.1945294
1.1944493
1.1944002
1.1943809
1.1943891
1.1944219
1.1944761
1.194548
1.1946315
1.1947275
1.1948473
1.1966501
1.1965432
1.1962138
1.195906
1.1956412
1.1954215
1.1952397
1.1950934
1.1949824
1.194907
1.194866
1.1948558
1.1948723
1.1949122
1.194964
1.1950236
1.1951198
1.1978835
1.1976689
1.1972477
1.196846
1.196513
1.1962281
1.1959806
1.1957698
1.1955973
1.1954652
1.195374
1.1953194
1.1952959
1.1952995
1.1953231
1.1953615
1.1954256
1.1955047
1.1992653
1.198937
1.1984556
1.1979646
1.1975459
1.1971862
1.1968689
1.1965942
1.1963641
1.1961795
1.19604
1.1959367
1.1958655
1.1958242
1.1958085
1.1958131
1.1958395
1.1958849
1.2006088
1.2003105
1.1999714
1.1995081
1.199023
1.1985819
1.1981792
1.1978175
1.197507
1.1972504
1.1970441
1.196878
1.1967411
1.1966334
1.1965545
1.1965011
1.1964724
1.1964668
1.1964804
1.1841237
1.184423
1.1847688
1.185178
1.1855803
1.1859675
1.1863205
1.1866317
1.1869066
1.1871555
1.1873874
1.18761
1.1878284
1.1880463
1.188266
1.1884892
1.1887167
1.1889489
1.189186
1.1840361
1.1843321
1.1846912
1.1850963
1.1855037
1.1858938
1.1862512
1.1865687
1.1868514
1.1871074
1.1873472
1.1875772
1.1878018
1.1880244
1.1882474
1.1884726
1.1887012