/*--------------------------------*- C++ -*----------------------------------*\
| =========                 |                                                 |
| \\      /  F ield         | OpenFOAM: The Open Source CFD Toolbox           |
|  \\    /   O peration     | Version:  2406                                  |
|   \\  /    A nd           | Website:  www.openfoam.com                      |
|    \\/     M anipulation  |                                                 |
\*---------------------------------------------------------------------------*/
FoamFile
{
    version     2.0;
    format      ascii;
    arch        "LSB;label=32;scalar=64";
    class       volVectorField;
    location    "0.016";
    object      U;
}
// * * * * * * * * * * * * * * * * * * * * * * * * * * * * * * * * * * * * * //

dimensions      [0 1 -1 0 0 0 0];

internalField   nonuniform List<vector> 
23203
(
(41.526472 29.475405 -4.5518262e-21)
(42.48363 28.673707 1.8280846e-20)
(43.379081 27.908438 -1.0713335e-20)
(44.197675 27.165771 -1.0243989e-20)
(44.946013 26.425666 -9.2786598e-21)
(45.627493 25.689128 7.759791e-21)
(46.25116 24.965644 6.4118723e-21)
(46.822247 24.260368 0)
(47.346571 23.577004 -4.1941838e-21)
(47.830732 22.9181 -2.0462819e-24)
(48.282787 22.285295 -3.2276284e-21)
(48.704202 21.677747 -3.0892085e-21)
(49.096698 21.09448 0)
(49.461605 20.53463 0)
(49.800471 19.997585 2.7508581e-21)
(50.115303 19.482791 -1.1867434e-24)
(50.407953 18.989702 -5.0661314e-21)
(50.680382 18.517751 -2.4078351e-21)
(50.934888 18.06628 -1.5040505e-25)
(40.783083 28.874844 -5.6528639e-21)
(41.782711 28.095515 -1.6320526e-20)
(42.680325 27.39921 0)
(43.50117 26.720257 -9.80744e-21)
(44.258841 26.043469 1.8646448e-20)
(44.959113 25.371246 -8.8812087e-21)
(45.606687 24.709211 6.4409652e-24)
(46.205619 24.06113 0)
(46.760161 23.429825 7.7429406e-21)
(47.274943 22.817289 1.4819553e-20)
(47.754556 22.224547 -1.7064042e-24)
(48.201822 21.651532 1.3634286e-20)
(48.618947 21.097913 0)
(49.007734 20.563475 -6.2963913e-21)
(49.369957 20.048135 1.2117472e-20)
(49.707531 19.551795 -2.5070821e-24)
(50.022353 19.074296 5.6206376e-21)
(50.316433 18.615449 5.4209696e-21)
(50.592005 18.174949 0)
(40.005461 28.112882 -1.4711317e-23)
(40.973969 27.430547 -1.0057708e-20)
(41.875648 26.824447 -4.7992449e-21)
(42.713132 26.221603 4.5800919e-21)
(43.492449 25.614473 8.7625597e-21)
(44.217875 25.008156 -8.3845119e-21)
(44.893064 24.407858 -8.0308007e-21)
(45.52148 23.816786 -7.6964065e-21)
(46.106686 23.23733 3.3151664e-24)
(46.652382 22.671269 0)
(47.162077 22.119624 1.388613e-24)
(47.638557 21.582795 -1.0912667e-24)
(48.084033 21.061004 9.7629037e-25)
(48.500382 20.554487 -6.0898773e-21)
(48.889405 20.063514 1.174537e-20)
(49.252951 19.588314 -1.1333392e-20)
(49.592895 19.129043 1.0944219e-20)
(49.911207 18.685791 0)
(50.210031 18.258523 -5.1109182e-21)
(39.355604 27.316736 9.5234756e-21)
(40.292616 26.726986 -9.3132332e-21)
(41.1843 26.207817 4.4645231e-21)
(42.024715 25.684067 0)
(42.814232 25.149727 -8.2294501e-21)
(43.554632 24.610667 1.5820835e-20)
(44.248209 24.072291 7.6042486e-21)
(44.897513 23.537884 -7.3212868e-21)
(45.505322 23.009852 0)
(46.074552 22.490061 6.7921234e-21)
(46.608021 21.979808 0)
(47.108166 21.479946 -6.3171924e-21)
(47.577068 20.991131 9.8911994e-25)
(48.016579 20.513944 -5.8884773e-21)
(48.428472 20.048931 0)
(48.814524 19.596578 0)
(49.17654 19.157286 8.797165e-25)
(49.516401 18.73137 -5.1507552e-21)
(49.836113 18.319002 4.9893995e-21)
(38.805783 26.514023 4.3981849e-21)
(39.712856 26.008556 8.6423063e-21)
(40.587211 25.568624 -4.1660795e-21)
(41.421265 25.120281 8.0287748e-21)
(42.212171 24.657143 -7.7423133e-21)
(42.959462 24.184365 -7.4688959e-21)
(43.663975 23.707095 0)
(44.327232 23.228663 -9.21333e-25)
(44.951174 22.751593 6.7251195e-21)
(45.537979 22.277939 3.3243226e-24)
(46.089862 21.809312 6.2835526e-21)
(46.608888 21.346953 6.0745086e-21)
(47.096942 20.891876 1.8152687e-24)
(47.555775 20.444963 5.6917758e-21)
(47.987073 20.007008 5.5113434e-21)
(48.392515 19.578714 -6.0611367e-25)
(48.773802 19.160689 -5.1762027e-21)
(49.132697 18.753432 8.033159e-25)
(49.471055 18.357292 7.0738412e-25)
(38.339166 25.706934 0)
(39.220678 25.287175 -4.0204746e-21)
(40.075321 24.921048 7.7866788e-21)
(40.897193 24.542758 -7.5381676e-21)
(41.682421 24.146887 -1.4586585e-20)
(42.42929 23.737514 2.1189373e-20)
(43.13762 23.319174 6.8380564e-21)
(43.808087 22.895084 -1.324886e-20)
(44.441891 22.467836 6.4164853e-21)
(45.040546 22.03965 -1.2438258e-20)
(45.605717 21.612383 -1.2057564e-20)
(46.139074 21.187574 5.8469915e-21)
(46.642235 20.766527 -1.1339451e-20)
(47.116766 20.350381 0)
(47.564204 19.940143 0)
(47.986087 19.53671 0)
(48.383977 19.140861 0)
(48.759491 18.753255 0)
(49.11432 18.374396 -9.5024247e-21)
(37.95357 24.913215 0)
(38.810674 24.575968 -3.7542338e-21)
(39.64377 24.277506 1.4588986e-20)
(40.448954 23.963055 -1.0628694e-20)
(41.222629 23.629117 6.8844325e-21)
(41.962713 23.27882 -6.6866195e-21)
(42.668474 22.91598 -6.4954406e-21)
(43.339983 22.543578 1.2618022e-20)
(43.977831 22.164182 -6.1309142e-21)
(44.582966 21.780082 5.9565786e-21)
(45.156548 21.393282 1.7362514e-20)
(45.699844 21.005521 -1.6875124e-20)
(46.214162 20.61831 1.6404628e-20)
(46.700825 20.232983 -5.3176138e-21)
(47.16117 19.850724 0)
(47.596556 19.472586 0)
(48.008377 19.09949 1.1733858e-24)
(48.398079 18.732233 4.7640695e-21)
(48.767182 18.371453 4.6368915e-21)
(37.645584 24.150129 0)
(38.476904 23.886449 -3.5152665e-21)
(39.286257 23.648119 -3.4250396e-21)
(40.071059 23.390689 -6.6764589e-21)
(40.828486 23.112524 6.5064561e-21)
(41.556602 22.816028 1.2675172e-20)
(42.254449 22.504347 0)
(42.921701 22.180165 -6.0128511e-21)
(43.558488 21.845923 5.8596176e-21)
(44.165282 21.503876 -5.7059924e-21)
(44.742802 21.156073 5.5622196e-21)
(45.29193 20.804342 5.4166836e-21)
(45.813648 20.450316 0)
(46.309009 20.095456 0)
(46.779118 19.741069 5.0089897e-21)
(47.225129 19.388326 4.8265017e-25)
(47.648243 19.038262 -4.7579372e-21)
(48.049726 18.691783 -4.6388275e-21)
(48.430913 18.349642 -4.5253415e-21)
(37.408291 23.425667 4.2492468e-21)
(38.211841 23.225666 6.5973555e-21)
(38.995264 23.039752 -9.6738667e-21)
(39.756753 22.832446 9.4562314e-21)
(40.494361 22.603646 3.0801892e-21)
(41.206516 22.355283 -6.0181783e-21)
(41.892212 22.089957 -5.8782436e-21)
(42.550878 21.810033 0)
(43.182306 21.51775 -5.603588e-21)
(43.786594 21.215241 0)
(44.364088 20.904496 -1.0684304e-20)
(44.915321 20.587344 -1.0431504e-20)
(45.440966 20.265456 5.0933446e-21)
(45.941802 19.940349 0)
(46.418689 19.613402 0)
(46.872564 19.285859 -4.7390323e-21)
(47.304424 18.958833 0)
(47.715341 18.633313 -4.5212907e-21)
(48.106468 18.310144 -1.4575954e-24)
(37.235086 22.74824 -1.9600293e-21)
(38.007846 22.598327 6.2081769e-21)
(38.763056 22.456477 3.0401934e-21)
(39.498984 22.292507 -5.9652099e-21)
(40.214238 22.106825 2.9206914e-21)
(40.90754 21.900982 -1.1445875e-20)
(41.577895 21.677145 5.6015504e-21)
(42.224584 21.437355 -2.6962487e-27)
(42.847164 21.183599 -5.366835e-21)
(43.445456 20.91782 1.5758647e-20)
(44.019507 20.64188 1.8012266e-25)
(44.569555 20.357535 1.0054215e-20)
(45.095993 20.066421 -9.8370413e-21)
(45.599341 19.770055 4.8117576e-21)
(46.080225 19.469833 0)
(46.539359 19.167031 0)
(46.977537 18.862807 0)
(47.395636 18.558201 4.4049237e-21)
(47.794628 18.254124 8.6205581e-21)
(37.117007 22.113235 7.5115736e-21)
(37.856941 22.00367 -8.7870763e-21)
(38.582261 21.899028 5.7552437e-21)
(39.291146 21.772431 -8.4831087e-21)
(39.98239 21.624294 0)
(40.654848 21.455856 5.4493828e-21)
(41.30754 21.268939 5.3492476e-21)
(41.939667 21.065281 -5.2462026e-21)
(42.550639 20.846608 -1.5497099e-24)
(43.140078 20.614645 -1.5140226e-20)
(43.707805 20.371087 -4.9453346e-21)
(44.25382 20.117565 -1.6428745e-25)
(44.77828 19.855636 0)
(45.281473 19.586766 -1.220927e-24)
(45.763805 19.312325 -8.8574249e-25)
(46.225782 19.033584 -8.9473667e-21)
(46.667999 18.751712 0)
(47.091146 18.467774 0)
(47.496015 18.182719 4.2102152e-21)
(37.046044 21.514912 -2.9308744e-24)
(37.752291 21.439494 -2.7706092e-21)
(38.446808 21.366721 0)
(39.127722 21.272456 5.37052e-21)
(39.79384 21.157061 -5.2874631e-21)
(40.444052 21.021525 -5.2009787e-21)
(41.077383 20.867383 1.4685527e-24)
(41.692989 20.696116 -5.0277411e-21)
(42.290188 20.509208 4.9395644e-21)
(42.868467 20.308168 9.7063497e-21)
(43.42748 20.094509 -9.5355031e-21)
(43.967041 19.869719 9.3632749e-21)
(44.487113 19.635239 -1.0530169e-24)
(44.987786 19.392451 -1.2473205e-24)
(45.46927 19.14267 0)
(45.93188 18.88713 4.348205e-21)
(46.376027 18.626982 -4.2681959e-21)
(46.802221 18.363288 6.3655634e-25)
(47.211087 18.097012 4.114111e-21)
(37.015706 20.950764 -3.3912056e-21)
(37.688188 20.904342 1.1972256e-24)
(38.35156 20.85884 5.1859586e-21)
(39.003968 20.792509 -5.5621957e-25)
(39.64421 20.705636 0)
(40.271183 20.59899 4.9698328e-21)
(40.883908 20.473869 -9.7941679e-21)
(41.481516 20.331532 9.6449248e-21)
(42.063261 20.173248 -9.4988931e-21)
(42.628537 20.000328 0)
(43.176878 19.814106 4.6001417e-21)
(43.707955 19.615915 -4.5244067e-21)
(44.221574 19.407067 4.4511688e-21)
(44.717661 19.188842 4.3763326e-21)
(45.196257 18.962472 -8.607073e-21)
(45.657507 18.729132 4.2314303e-21)
(46.101655 18.489932 0)
(46.529048 18.24591 0)
(46.940151 17.998022 -4.0194089e-21)
(37.020366 20.419012 -6.4482681e-21)
(37.659501 20.397054 9.9897784e-21)
(38.291807 20.374729 0)
(38.915525 20.332387 2.4396842e-21)
(39.529473 20.270235 -7.2298564e-21)
(40.132561 20.18885 4.7601355e-21)
(40.72381 20.089321 -1.1123229e-24)
(41.302332 19.972711 -4.6351186e-21)
(41.867342 19.840103 9.1419338e-21)
(42.418169 19.692626 0)
(42.954258 19.531442 -8.8834988e-21)
(43.475173 19.35773 8.755203e-21)
(43.980595 19.172669 -4.3132712e-21)
(44.470316 18.977424 4.2476137e-21)
(44.944236 18.773131 -8.3672243e-21)
(45.402352 18.560889 -1.6083702e-25)
(45.844759 18.341748 0)
(46.271658 18.116705 -3.9933116e-21)
(46.683367 17.886688 7.8641449e-21)
(37.054997 19.918045 -3.0676225e-21)
(37.661489 19.916477 -2.3796846e-21)
(38.263129 19.913629 2.3570229e-21)
(38.85829 19.891694 2.3331286e-21)
(39.445843 19.850803 4.6164665e-21)
(40.02472 19.791365 4.5661226e-21)
(40.593949 19.71428 4.5131171e-21)
(41.152637 19.620437 8.9198101e-21)
(41.699976 19.510749 -8.8117482e-21)
(42.235249 19.386177 7.0206725e-26)
(42.757838 19.247724 -1.0275647e-24)
(43.267228 19.096421 -4.240552e-21)
(43.763003 18.933312 0)
(44.244847 18.759441 4.1269162e-21)
(44.712543 18.575843 -4.0713395e-21)
(45.165964 18.383528 4.0141284e-21)
(45.605076 18.183474 0)
(46.029948 17.976621 -3.9040157e-21)
(46.440768 17.763855 3.8494622e-21)
(37.114883 19.446118 1.4677263e-21)
(37.689682 19.461222 1.8188929e-20)
(38.261347 19.474501 -9.0211474e-21)
(38.828393 19.469731 6.7054762e-21)
(39.389747 19.446965 -2.2175837e-21)
(39.944382 19.406459 -2.632974e-20)
(40.491346 19.348939 1.3036035e-20)
(41.029751 19.275136 4.2985701e-21)
(41.558781 19.185806 -8.5108442e-21)
(42.077693 19.081756 -1.1256718e-24)
(42.585828 18.963841 4.1596906e-21)
(43.082611 18.83295 8.2232993e-21)
(43.567555 18.689996 -1.7766326e-24)
(44.040259 18.535903 -8.0301048e-21)
(44.500411 18.371599 7.9303245e-21)
(44.94778 18.197999 -1.1750566e-20)
(45.382223 18.016003 0)
(45.803696 17.82648 3.8184545e-21)
(46.212269 17.630265 9.5349466e-25)
(37.19587 19.000618 4.2125871e-24)
(37.740104 19.029324 8.711498e-21)
(38.282699 19.05586 6.4871928e-21)
(38.822298 19.065423 -8.589142e-21)
(39.35789 19.058001 -2.1305585e-21)
(39.888497 19.033723 8.4522858e-21)
(40.413199 18.993163 7.4023137e-25)
(40.931128 18.936908 4.1524096e-21)
(41.44147 18.865574 -4.113824e-21)
(41.943474 18.779826 -4.0725494e-21)
(42.436455 18.680383 4.0351987e-21)
(42.9198 18.568001 -7.986364e-21)
(43.392968 18.443467 1.5807976e-20)
(43.855496 18.307588 -3.9102801e-21)
(44.306994 18.161184 -7.7342806e-21)
(44.747149 18.005074 1.1475139e-20)
(45.175726 17.840072 7.5642525e-21)
(45.592582 17.666973 -7.480907e-21)
(45.997687 17.486547 -3.6977774e-21)
(37.294391 18.579174 5.3612963e-21)
(37.809302 18.618809 0)
(38.323855 18.656092 0)
(38.836824 18.677491 8.2656583e-21)
(39.347266 18.68295 2.0510363e-21)
(39.854252 18.672486 -2.039192e-20)
(40.356901 18.646541 -4.0464977e-21)
(40.854374 18.605572 4.0187137e-21)
(41.34587 18.55007 -3.9864009e-21)
(41.830641 18.480574 0)
(42.307992 18.397674 3.9187158e-21)
(42.777286 18.302004 3.884806e-21)
(43.237948 18.194233 3.8494491e-21)
(43.689466 18.075055 8.3591526e-25)
(44.131395 17.945185 3.7772877e-21)
(44.563352 17.805345 0)
(44.985029 17.656261 0)
(45.396201 17.498649 -3.6676674e-21)
(45.79675 17.333211 0)
(37.407055 18.179409 1.2934985e-21)
(37.894047 18.227597 0)
(38.381746 18.273405 0)
(38.86906 18.304446 -7.9754128e-21)
(39.355122 18.320617 1.5867971e-20)
(39.839061 18.32183 -7.8896999e-21)
(40.320041 18.308407 3.9206892e-21)
(40.797256 18.280691 1.1684554e-20)
(41.269933 18.239057 7.7361341e-21)
(41.737335 18.183932 -7.6841956e-21)
(42.198771 18.11579 7.6260797e-21)
(42.653593 18.035153 -1.513701e-20)
(43.101206 17.942578 -3.752815e-21)
(43.541065 17.838654 3.7256104e-21)
(43.972682 17.723995 -3.6933707e-21)
(44.395624 17.599228 0)
(44.809522 17.46499 -7.2627217e-21)
(45.214083 17.321917 1.0801867e-20)
(45.609113 17.170639 0)
(37.531534 17.798094 2.474236e-21)
(37.991823 17.853011 -1.7487966e-20)
(38.453826 17.905628 7.7461559e-21)
(38.916508 17.944521 5.7853796e-21)
(39.379045 17.969569 -1.7856416e-24)
(39.840615 17.980615 -1.147103e-20)
(40.300429 17.977876 -7.6085189e-21)
(40.757721 17.961602 0)
(41.211752 17.93207 -3.7625183e-21)
(41.661806 17.889605 0)
(42.107202 17.834582 0)
(42.547296 17.767419 -3.6932275e-21)
(42.98148 17.688573 0)
(43.409192 17.598534 1.0931306e-20)
(43.829912 17.497818 -7.2373003e-21)
(44.24317 17.386963 0)
(44.64855 17.266518 3.5667202e-21)
(45.045703 17.13704 0)
(45.434374 16.999083 0)
(37.665311 17.432902 -5.2316728e-26)
(38.100359 17.493102 3.7616005e-21)
(38.537897 17.550886 7.5029455e-21)
(38.976997 17.59603 -5.6120447e-21)
(39.416903 17.628346 7.4559422e-21)
(39.856845 17.647598 -3.7158035e-21)
(40.296081 17.653917 3.699793e-21)
(40.733888 17.64747 -7.3676553e-21)
(41.169562 17.628452 3.667937e-21)
(41.602415 17.5971 0)
(42.031783 17.553698 0)
(42.45703 17.498575 0)
(42.877548 17.432093 3.5922744e-21)
(43.292765 17.354652 -6.1086562e-25)
(43.702142 17.266678 -1.065299e-20)
(44.105182 17.16862 -7.0584268e-21)
(44.501432 17.060946 1.4033341e-20)
(44.890502 16.944131 -6.9741194e-21)
(45.272084 16.818658 0)
(37.80636 17.080844 1.1372087e-21)
(38.217819 17.145075 5.4764756e-21)
(38.632064 17.207087 -9.1130924e-21)
(39.048602 17.257209 0)
(39.466778 17.295394 0)
(39.885872 17.321418 0)
(40.305183 17.335352 0)
(40.724027 17.337293 0)
(41.141732 17.327365 1.0746833e-20)
(41.557638 17.30573 -7.1385507e-21)
(41.971104 17.272593 -3.5547544e-21)
(42.381505 17.228196 -1.0617894e-20)
(42.788241 17.172821 6.8252122e-25)
(43.190736 17.10678 7.0152473e-21)
(43.588444 17.030417 3.4907976e-21)
(43.980849 16.944098 3.4746177e-21)
(44.367473 16.848211 3.4571523e-21)
(44.747893 16.743154 -6.8813072e-21)
(45.121757 16.629338 0)
(37.950836 16.743919 -3.1626431e-21)
(38.341074 16.808036 -5.3215098e-21)
(38.733674 16.872981 1.0654581e-20)
(39.12906 16.926549 -8.8656056e-21)
(39.526658 16.969179 1.3819954e-24)
(39.925851 17.000622 1.3721866e-24)
(40.326017 17.020858 7.0531308e-21)
(40.726527 17.029899 -3.517872e-21)
(41.126751 17.027794 3.5075251e-21)
(41.526065 17.014629 -6.9973421e-21)
(41.923852 16.990534 -3.4872768e-21)
(42.319509 16.955676 1.7381721e-20)
(42.712449 16.910257 -1.0394195e-20)
(43.102101 16.854511 -3.4509913e-21)
(43.487918 16.788705 6.8805035e-21)
(43.869374 16.713127 -6.8544457e-21)
(44.245975 16.62809 -3.414677e-21)
(44.617273 16.533918 3.4007646e-21)
(44.982882 16.430949 -1.0167641e-20)
(38.101714 16.41127 -1.090076e-21)
(38.470253 16.477212 1.2054234e-20)
(38.842131 16.54429 -8.6773321e-21)
(39.217305 16.600794 8.6703328e-21)
(39.595244 16.647197 -1.7339463e-21)
(39.975399 16.683191 -8.6538416e-21)
(40.35719 16.708746 -1.0369011e-20)
(40.740022 16.723849 1.3803737e-20)
(41.123301 16.728501 6.888491e-21)
(41.506434 16.722732 -6.8768693e-21)
(41.888837 16.706607 0)
(42.269928 16.680226 0)
(42.649138 16.643723 6.8292214e-21)
(43.02591 16.597263 -6.813353e-21)
(43.399699 16.541038 -3.3968549e-21)
(43.769978 16.475269 1.6943403e-20)
(44.136244 16.400194 -1.5815909e-24)
(44.498033 16.31607 -3.3716525e-21)
(44.854932 16.223167 6.723395e-21)
(38.254337 16.084286 9.5983682e-22)
(38.601953 16.154292 5.0721127e-21)
(38.955187 16.220721 -6.8066265e-21)
(39.311522 16.279093 1.7014889e-21)
(39.670986 16.328121 -1.0356269e-25)
(40.033127 16.367601 1.7002018e-21)
(40.397407 16.397491 3.398231e-21)
(40.763282 16.417705 6.7912579e-21)
(41.130203 16.428169 -6.7847069e-21)
(41.497621 16.428848 6.7766479e-21)
(41.864985 16.419744 -6.7694216e-21)
(42.231745 16.400897 0)
(42.597355 16.372376 0)
(42.961273 16.334282 -3.3692082e-21)
(43.322966 16.286743 6.7304727e-21)
(43.681911 16.229913 -6.7183411e-21)
(44.037603 16.163967 1.0062601e-20)
(44.389564 16.089095 3.3482245e-21)
(44.737367 16.005502 -6.689296e-21)
(38.409826 15.759753 -9.5364069e-22)
(38.739309 15.828621 -4.4316428e-26)
(39.07345 15.896718 0)
(39.411471 15.957095 -8.37496e-21)
(39.753327 16.008531 8.3790144e-21)
(40.098298 16.051185 6.703593e-21)
(40.445823 16.084941 -1.3408974e-20)
(40.795397 16.109657 -3.3507395e-21)
(41.146518 16.125228 7.698904e-25)
(41.498677 16.131589 6.7011324e-21)
(41.851362 16.128705 0)
(42.204052 16.116567 3.3467284e-21)
(42.556227 16.095197 -1.3382816e-20)
(42.907364 16.06464 3.3445923e-21)
(43.256945 16.024968 -6.6838712e-21)
(43.604454 15.976276 0)
(43.949387 15.918677 6.6761083e-21)
(44.291264 15.852302 -3.3374421e-21)
(44.62964 15.777295 -3.3354171e-21)
(38.565986 15.436042 -3.7132902e-21)
(38.878152 15.504397 1.4866333e-20)
(39.195856 15.572011 -1.1488003e-20)
(39.517061 15.633923 6.6221423e-21)
(39.842095 15.687372 8.2840621e-21)
(40.170484 15.732699 -1.3265665e-20)
(40.501808 15.769706 3.319815e-21)
(40.835615 15.798251 9.9618989e-21)
(41.171427 15.81823 -3.3230639e-21)
(41.508761 15.829555 0)
(41.847125 15.832155 -3.3254558e-21)
(42.186023 15.825983 3.3263592e-21)
(42.524955 15.811012 3.327945e-21)
(42.863418 15.787239 -3.3282943e-21)
(43.200908 15.754684 9.9909942e-21)
(43.53692 15.713386 -6.6628606e-21)
(43.870956 15.663404 1.0000519e-20)
(44.202534 15.604811 0)
(44.5312 15.537697 0)
(38.723598 15.110736 -9.15563e-22)
(39.019211 15.178959 0)
(39.319491 15.248967 -1.6303125e-21)
(39.625519 15.309256 6.5704524e-21)
(39.935037 15.363716 -6.5804749e-21)
(40.247966 15.410749 -6.5883347e-21)
(40.564029 15.45015 3.299196e-21)
(40.882843 15.481783 -3.3023047e-21)
(41.203986 15.50549 9.9197103e-21)
(41.527013 15.521123 -1.3242054e-20)
(41.851469 15.528556 9.9435195e-21)
(42.176889 15.527689 0)
(42.502799 15.518449 3.700935e-25)
(42.828721 15.500782 -3.3262978e-21)
(43.154169 15.474659 -3.3310559e-21)
(43.478653 15.440069 0)
(43.801684 15.39702 3.3402102e-21)
(44.122784 15.345534 -1.0037897e-20)
(44.441492 15.285645 6.7031409e-21)
(38.88246 14.777283 -1.7043493e-21)
(39.163105 14.845136 1.3052072e-20)
(39.44837 14.914217 -6.5387482e-21)
(39.738247 14.976539 -6.5501117e-21)
(40.03253 15.032345 6.563097e-21)
(40.330658 15.081241 -6.5741002e-21)
(40.632161 15.123057 9.8802455e-21)
(40.936629 15.157621 0)
(41.243661 15.184756 4.357678e-25)
(41.552851 15.204292 6.6233295e-21)
(41.863779 15.216079 -6.6350428e-21)
(42.176014 15.219987 8.9293053e-25)
(42.489116 15.215906 3.3316064e-21)
(42.802629 15.203747 6.6755654e-21)
(43.116091 15.183437 -6.6915718e-21)
(43.429029 15.154923 0)
(43.740966 15.118168 -6.7222974e-21)
(44.051428 15.073145 3.7512297e-25)
(44.359953 15.019839 1.351883e-20)
(39.041721 14.436053 2.4639385e-21)
(39.308062 14.503455 -6.5350847e-21)
(39.579193 14.572425 6.5499921e-21)
(39.854919 14.635287 0)
(40.134932 14.692189 6.1047356e-26)
(40.418837 14.742743 0)
(40.706253 14.786719 3.3040796e-21)
(40.99681 14.823909 -8.4495286e-25)
(41.290134 14.854114 -6.6407208e-21)
(41.585845 14.877148 0)
(41.883552 14.892841 -6.6740451e-21)
(42.182852 14.901036 3.3465124e-21)
(42.483327 14.901593 0)
(42.784548 14.89439 -6.7305817e-21)
(43.086073 14.879319 1.012781e-20)
(43.387447 14.856289 0)
(43.688205 14.825219 0)
(43.987881 14.786041 3.4102819e-21)
(44.286011 14.738694 -6.847076e-21)
(39.202145 14.083907 1.3061674e-24)
(39.455204 14.150923 6.5844106e-21)
(39.712943 14.219933 -1.6499539e-21)
(39.975152 14.283248 -4.9617261e-21)
(40.241567 14.341078 4.9752788e-21)
(40.511876 14.393044 -1.6627276e-21)
(40.785759 14.438895 0)
(41.062886 14.478399 -3.3441921e-21)
(41.342916 14.511335 -3.3539506e-21)
(41.6255 14.537495 3.3646298e-21)
(41.910274 14.556683 0)
(42.196863 14.568718 3.3867685e-21)
(42.484875 14.573433 0)
(42.773904 14.570674 0)
(43.063529 14.560303 0)
(43.353313 14.542191 0)
(43.642804 14.516223 0)
(43.931544 14.482289 -6.9393576e-21)
(44.219069 14.440288 7.7858678e-25)
(39.363861 13.71791 0)
(39.6044 13.784561 0)
(39.849421 13.853686 1.6738294e-21)
(40.098764 13.917447 5.0348002e-21)
(40.352211 13.976124 -6.7329728e-21)
(40.609502 14.029354 -7.3648011e-26)
(40.870363 14.07688 -3.3870928e-21)
(41.134503 14.118454 3.3981322e-21)
(41.401616 14.153834 -3.4102035e-21)
(41.671385 14.18279 -3.4224906e-21)
(41.943478 14.205103 6.8713182e-21)
(42.217547 14.220568 -1.7249312e-20)
(42.493228 14.228992 6.9296011e-21)
(42.770139 14.230193 0)
(43.047879 14.224004 0)
(43.326029 14.210266 0)
(43.604152 14.188828 -3.5327956e-21)
(43.881797 14.159546 0)
(44.1585 14.122275 3.5732364e-21)
(39.527199 13.334491 -2.9004721e-21)
(39.755857 13.40084 1.7070174e-21)
(39.988772 13.470216 -1.7114635e-21)
(40.225827 13.534497 0)
(40.46684 13.594018 0)
(40.711598 13.648441 1.7271548e-21)
(40.959868 13.697513 1.7330792e-21)
(41.211394 13.740979 -6.9582208e-21)
(41.465906 13.778574 1.0479326e-20)
(41.723119 13.810045 7.0149379e-21)
(41.982731 13.835152 -7.5063351e-25)
(42.244425 13.853667 -3.8735386e-25)
(42.507865 13.865374 0)
(42.772694 13.870068 3.5754099e-21)
(43.038533 13.867556 -7.1918287e-21)
(43.304981 13.857652 3.6168599e-21)
(43.571612 13.840177 -3.6386815e-21)
(43.837983 13.814948 7.3249958e-21)
(44.10363 13.781782 3.6874083e-21)
(39.692695 12.92936 0)
(39.910036 12.995573 -1.7614909e-21)
(40.131394 13.065426 -7.0638497e-21)
(40.356656 13.13039 -1.7705446e-21)
(40.585663 13.190852 7.1075807e-21)
(40.818263 13.246493 0)
(41.054265 13.297071 1.7896244e-21)
(41.293448 13.342318 0)
(41.535577 13.381954 3.6095655e-21)
(41.7804 13.415704 7.2520939e-21)
(42.027649 13.443305 -7.2887607e-21)
(42.277039 13.46451 -3.6632484e-21)
(42.528265 13.479085 1.105149e-20)
(42.780996 13.486807 -3.8380731e-25)
(43.034876 13.487463 0)
(43.289518 13.480847 -7.5066147e-21)
(43.544503 13.466752 1.5119726e-20)
(43.799391 13.444961 -1.523099e-20)
(44.053722 13.415251 3.8379099e-21)
(39.861153 12.497527 -5.2591496e-21)
(40.067762 12.563847 1.2866756e-20)
(40.278024 12.634498 3.684958e-21)
(40.49178 12.700428 -6.3922641e-26)
(40.708941 12.762066 0)
(40.929573 12.819057 1.8603378e-21)
(41.153505 12.87118 0)
(41.380514 12.918163 -3.7514202e-21)
(41.610382 12.959705 -3.7686969e-21)
(41.84289 12.995514 0)
(42.077808 13.025312 0)
(42.314888 13.04884 1.1489984e-20)
(42.55386 13.065852 -1.9270102e-20)
(42.794421 13.076115 -3.8790097e-21)
(43.036235 13.079405 -3.9064077e-21)
(43.278926 13.075501 3.9348822e-21)
(43.522076 13.064175 -1.1897825e-20)
(43.765234 13.045173 0)
(44.007951 13.018227 4.0335455e-21)
(40.033251 12.033488 6.0770641e-22)
(40.229696 12.100258 -5.8363765e-26)
(40.429267 12.172178 7.3694693e-26)
(40.631583 12.239333 -6.9981306e-26)
(40.836858 12.302443 0)
(41.045713 12.360762 -1.9661487e-21)
(41.257736 12.414418 -1.9741098e-21)
(41.47264 12.463116 2.3793302e-20)
(41.690231 12.506468 -1.5940792e-20)
(41.910351 12.544135 1.2017845e-20)
(42.13283 12.57583 -1.2088469e-20)
(42.357474 12.601294 4.0541345e-21)
(42.584052 12.620283 0)
(42.812292 12.632568 -1.6440686e-20)
(43.041874 12.637922 1.6566578e-20)
(43.272426 12.636117 4.1751603e-21)
(43.503515 12.626911 1.6841098e-20)
(43.73466 12.60999 -1.699474e-20)
(43.9654 12.585089 -1.7160549e-20)
(40.209198 11.53169 4.1632635e-21)
(40.395629 11.598991 -1.4635426e-20)
(40.585047 11.672009 -2.0938691e-21)
(40.778128 11.737449 -7.8597387e-26)
(40.971918 11.804614 -1.4730157e-20)
(41.16874 11.864751 1.2048192e-24)
(41.368288 11.920324 2.1197357e-20)
(41.570502 11.970862 1.2773691e-20)
(41.775301 12.015897 -1.7117124e-20)
(41.982597 12.055114 4.302308e-21)
(42.192278 12.088277 -4.3280116e-21)
(42.404187 12.115164 0)
(42.618118 12.13556 -1.7547186e-20)
(42.833808 12.149251 1.7681718e-20)
(43.050936 12.156014 -1.3367951e-20)
(43.269113 12.155618 3.1463606e-20)
(43.487868 12.147787 -1.3608677e-20)
(43.706581 12.132185 0)
(40.390939 10.988688 -1.0503135e-21)
(40.567398 11.057236 -1.8370363e-20)
(40.745306 11.132954 0)
(40.925504 11.206163 2.2807331e-21)
(41.110545 11.267944 -2.0755596e-20)
(41.2961 11.328108 3.7006321e-20)
(41.483227 11.384044 -2.0890153e-20)
(41.672505 11.434962 -1.3983427e-20)
(41.8642 11.480487 1.8735529e-20)
(42.058374 11.520274 0)
(42.25499 11.554053 1.8948316e-20)
(42.453926 11.581587 -2.3844436e-20)
(42.654983 11.602647 0)
(42.857895 11.617004 1.9364703e-20)
(43.062321 11.62442 -1.9532149e-20)
(43.267837 11.624639 0)
(43.473909 11.61736 0)
(43.679856 11.602223 5.0291251e-21)
(40.581237 10.390015 8.0825047e-22)
(40.748797 10.455593 -2.0715392e-20)
(40.918718 10.526412 -2.5617218e-21)
(41.086129 10.602811 2.5910828e-21)
(41.255505 10.669733 1.1864625e-24)
(41.426935 10.732569 2.0784878e-20)
(41.600681 10.789629 -2.3447169e-20)
(41.776771 10.841019 2.0917992e-20)
(41.955275 10.886719 2.1006374e-20)
(42.136252 10.926619 -1.583561e-20)
(42.319706 10.960495 2.1234794e-20)
(42.505526 10.988114 -1.6031737e-20)
(42.693513 11.009228 0)
(42.883401 11.023576 5.4259631e-21)
(43.07484 11.030895 5.4737863e-21)
(43.267369 11.03091 0)
(43.460388 11.023297 0)
(43.653121 11.007665 -2.8227909e-20)
(40.779254 9.7205646 0)
(40.935226 9.7866035 0)
(41.088819 9.8691362 5.967497e-21)
(41.244955 9.9352541 -3.0138445e-21)
(41.400234 10.001878 0)
(41.558005 10.063489 2.4113794e-20)
(41.718911 10.119655 -2.4152948e-20)
(41.88222 10.170826 -6.0527467e-21)
(42.047716 10.216668 0)
(42.215508 10.256736 4.0075338e-25)
(42.385715 10.290692 0)
(42.558216 10.31828 0)
(42.732808 10.339185 0)
(42.909261 10.353074 1.8775826e-20)
(43.087276 10.359655 -5.6817275e-20)
(43.266382 10.358663 2.5494747e-20)
(43.445882 10.349784 2.5758902e-20)
(43.624876 10.332613 -2.6057218e-20)
(40.986365 8.9671268 2.980158e-20)
(41.122873 9.0116909 0)
(41.268463 9.0772232 2.5405515e-20)
(41.41498 9.1476018 2.8897128e-20)
(41.560654 9.2169395 -5.4283193e-20)
(41.703569 9.2867474 5.8363346e-20)
(41.848111 9.3454685 3.6437371e-21)
(41.995405 9.3987978 -2.1883664e-20)
(42.145443 9.4465602 2.1916349e-20)
(42.298316 9.4883606 -3.6627649e-20)
(42.454175 9.5234909 0)
(42.612447 9.5518328 -7.3875565e-21)
(42.772722 9.5730196 0)
(42.934797 9.5865748 2.9914227e-20)
(43.098522 9.5921641 -3.76803e-20)
(43.263455 9.5895622 0)
(43.428675 9.5785906 0)
(43.59312 9.5588618 7.7566093e-21)
(41.208075 8.0978649 1.3107349e-20)
(41.320276 8.1709074 0)
(41.429546 8.2727016 3.7069686e-20)
(41.552059 8.3450539 -2.2741457e-20)
(41.68996 8.3883536 -4.5078625e-21)
(41.831476 8.4304857 0)
(41.972203 8.4766578 3.6167008e-20)
(42.115026 8.5199518 -4.508119e-20)
(42.257094 8.5637319 9.0485905e-21)
(42.395889 8.6082749 0)
(42.535187 8.6446697 0)
(42.676447 8.674032 -2.748469e-20)
(42.819694 8.6965405 2.7589384e-20)
(42.964531 8.7114804 -2.7721023e-20)
(43.110618 8.7181251 9.298556e-21)
(43.25769 8.7152838 3.7427294e-20)
(43.404583 8.7023582 0)
(43.551728 8.6790367 -9.4580162e-21)
(41.498501 7.1558526 -4.4426992e-20)
(41.594471 7.2302354 6.3196263e-21)
(41.681007 7.3328127 0)
(41.761396 7.4346722 6.1277534e-21)
(41.840793 7.559417 -5.9076663e-21)
(41.941241 7.6412379 4.6777855e-20)
(42.053075 7.7078475 -9.275073e-20)
(42.172066 7.7574086 4.6041885e-20)
(42.307523 7.7554852 0)
(42.44631 7.7684374 0)
(42.583464 7.783189 4.5023055e-20)
(42.718387 7.7967018 -8.9863287e-20)
(42.850981 7.8072445 5.6062423e-20)
(42.982373 7.8126381 4.3889907e-25)
(43.115086 7.8118918 3.3564633e-20)
(43.252424 7.8085586 -3.3166253e-24)
(43.392625 7.8005728 -1.115625e-20)
(43.53057 7.8068596 -3.3705717e-24)
(41.752793 6.3293705 8.072907e-21)
(41.847217 6.3832317 -7.895816e-21)
(41.939133 6.4538782 6.9668156e-20)
(42.03262 6.5260373 7.5977417e-21)
(42.119695 6.6004742 -5.9795405e-20)
(42.197149 6.6825625 -7.3587728e-21)
(42.270812 6.7728962 7.2525695e-21)
(42.346112 6.8631314 -4.9971886e-20)
(42.424012 7.010691 2.5280277e-24)
(42.531152 7.0923825 5.3948897e-20)
(42.648676 7.1681648 4.01126e-20)
(42.768131 7.2296988 -3.9666199e-20)
(42.885203 7.2798689 -1.3075132e-20)
(42.999866 7.3188437 -1.6430498e-25)
(43.115658 7.3448722 -3.8363871e-20)
(43.239103 7.3588575 5.0598626e-20)
(43.384828 7.3230427 1.2105349e-20)
(43.531833 7.3202654 0)
(41.900535 5.9797272 2.7699779e-24)
(41.984015 6.0299517 1.3666625e-19)
(42.067192 6.0821681 -7.553071e-20)
(42.153808 6.1323637 -1.6496918e-20)
(42.245745 6.1803908 8.1103253e-21)
(42.34559 6.2257174 7.9770066e-21)
(42.451874 6.2674375 -7.8476568e-21)
(42.553766 6.3122494 -7.7035911e-21)
(42.648998 6.3517706 -1.5104808e-20)
(42.747457 6.3852211 -5.9613642e-20)
(42.851713 6.4288378 7.3557708e-20)
(42.957073 6.4848902 -1.4470008e-20)
(43.062025 6.5452483 5.6917606e-20)
(43.161983 6.6135001 -1.2592541e-19)
(43.255065 6.691372 -1.3755264e-20)
(43.351913 6.7734527 4.0188145e-24)
(43.454954 6.8995116 5.0830643e-20)
(43.581336 6.9578448 1.2572899e-20)
(42.054122 5.8011318 -7.7829683e-20)
(42.132238 5.861229 1.2785451e-19)
(42.211981 5.9228543 -6.7073848e-20)
(42.292865 5.982495 -6.5971836e-20)
(42.374578 6.0412463 5.6781258e-20)
(42.457108 6.098904 -7.9775848e-21)
(42.541264 6.1547392 0)
(42.627115 6.208777 -6.1719019e-20)
(42.71268 6.264492 1.5175506e-20)
(42.804853 6.3210522 7.4587714e-20)
(42.907964 6.3722627 -4.3992198e-20)
(43.016143 6.4152485 7.2072156e-20)