/*--------------------------------*- C++ -*----------------------------------*\
| =========                 |                                                 |
| \\      /  F ield         | OpenFOAM: The Open Source CFD Toolbox           |
|  \\    /   O peration     | Version:  2406                                  |
|   \\  /    A nd           | Website:  www.openfoam.com                      |
|    \\/     M anipulation  |                                                 |
\*---------------------------------------------------------------------------*/
FoamFile
{
    version     2.0;
    format      ascii;
    arch        "LSB;label=32;scalar=64";
    class       volScalarField;
    location    "0.034";
    object      k;
}
// * * * * * * * * * * * * * * * * * * * * * * * * * * * * * * * * * * * * * //

dimensions      [0 2 -2 0 0 0 0];

internalField   nonuniform List<scalar> 
35803
(
822.69624
803.14699
777.26604
744.77912
705.52837
659.5491
607.3269
549.85708
488.59734
425.35146
361.80863
299.61712
240.27115
184.99352
134.67774
90.023415
51.661705
21.55774
6.1607888
2.0607484
1.224711
0.91317121
0.72772988
0.61641308
0.54355658
0.49163509
0.4632967
0.42679492
0.41525706
0.3997962
0.39166461
809.66863
788.06877
760.61739
727.31347
687.94625
642.48173
591.28082
535.20739
475.62466
414.16893
352.42206
291.86228
233.95739
179.9197
130.65353
86.880523
49.317556
20.152906
5.5813913
1.9681873
1.1970517
0.90144391
0.72134813
0.61258709
0.5412618
0.49043931
0.46283566
0.42650072
0.41506615
0.39981
0.39168532
790.54459
767.67235
739.4507
705.88959
666.83665
622.26387
572.46483
518.17865
460.61578
401.25227
341.54941
282.88402
226.65851
174.06513
126.01977
83.269095
46.62213
18.533347
5.0559165
1.8806011
1.1812745
0.89483683
0.71773552
0.61015689
0.53971853
0.48962629
0.46260812
0.42632875
0.41496015
0.3998916
0.39170755
763.7231
740.23511
712.04482
679.02225
640.99512
597.93471
550.09207
498.10447
443.02149
386.16037
328.86175
272.42239
218.1711
167.27291
120.65756
79.100094
43.518657
16.687957
4.5457692
1.7930429
1.1581208
0.88419643
0.71171907
0.60611548
0.53731848
0.48846664
0.46228069
0.42612788
0.41482263
0.39994677
0.39173395
728.61782
705.30151
677.8684
646.10984
609.81558
568.92943
523.65197
474.52116
422.4332
368.5435
314.07432
260.24309
208.30496
159.39206
114.45011
74.283891
39.949036
14.637518
4.0396117
1.7045254
1.1359403
0.87390906
0.70604245
0.60213759
0.53512132
0.48742927
0.46199442
0.42593859
0.41473221
0.40004168
0.39176536
684.81283
662.47574
636.52757
606.7269
572.84337
534.78814
492.70102
447.01431
398.47186
348.06572
296.89686
246.1003
196.8554
150.25659
107.26821
68.723232
35.857544
12.428073
3.5420622
1.6161951
1.1104737
0.86121915
0.69888892
0.59724115
0.53257223
0.48617907
0.46154289
0.42567057
0.41460275
0.40013048
0.39180221
632.23719
611.63175
587.85071
560.65516
529.81037
495.20121
456.90366
415.23949
370.79964
324.41116
277.04439
229.74305
183.60634
139.68638
98.970533
62.315825
31.201626
10.136
3.0662196
1.5323144
1.0843569
0.84768857
0.69135553
0.59233425
0.53005282
0.48493241
0.46098134
0.42533073
0.41442946
0.40025298
0.39184487
571.32693
553.12779
532.07432
508.02846
480.7578
450.12386
416.13892
379.01529
339.19467
297.33909
254.27618
210.94235
168.34873
127.49947
89.411776
54.965057
25.976108
7.8949713
2.6298555
1.4562196
1.0559123
0.83197758
0.68248545
0.58662312
0.52705235
0.48344534
0.4602179
0.42486429
0.41428005
0.40038289
0.39189324
503.3768
487.96053
470.03059
449.51667
426.1957
399.91038
370.61575
338.42387
303.63668
266.75384
228.44858
189.53004
150.90871
113.5332
78.457211
46.600937
20.270155
6.043216
2.2524062
1.3798722
1.0263034
0.81500527
0.67284062
0.58002831
0.52373576
0.48172192
0.45931234
0.42437009
0.41421501
0.40054376
0.3919459
430.45725
417.93739
403.26819
386.41993
367.18277
345.38885
320.94829
293.88773
264.38235
232.77492
199.57574
165.44797
131.18662
97.677058
66.019248
37.208008
14.353413
4.4582305
1.9339867
1.3085693
0.99474428
0.79609042
0.66161896
0.57233066
0.5197565
0.47951472
0.45818722
0.42379146
0.41418113
0.40070724
0.39199869
354.94065
345.22339
333.72481
320.44236
305.18832
287.7966
268.14744
246.1992
222.0171
195.79901
167.89312
138.80648
109.20921
79.922211
52.103887
26.909897
8.9975585
3.2008072
1.6771809
1.2380446
0.96180463
0.77610702
0.64900334
0.56395744
0.51528127
0.47685354
0.45694077
0.4232163
0.41408517
0.40087823
0.3920371
279.32778
272.1715
263.59368
253.60261
242.03938
228.75334
213.614
196.53142
177.48305
156.54364
133.91318
109.9465
85.19767
60.443939
36.897829
16.218619
5.5057838
2.3534562
1.4941772
1.1700844
0.92693737
0.75440044
0.63421108
0.55450078
0.51002297
0.47373131
0.455599
0.42263371
0.41391138
0.4010269
0.39209354
206.17915
201.15166
195.09005
187.99105
179.7066
170.091
159.01069
146.34983
132.03031
116.03924
98.454074
79.497011
59.663353
39.763638
21.008174
7.9920432
3.2555924
1.8203647
1.3680774
1.1009833
0.88998108
0.73126966
0.61761495
0.54451624
0.50395994
0.47048097
0.45426331
0.42207011
0.41375567
0.40112543
0.39216299
137.57273
134.26047
130.25508
125.54166
120.00783
113.52621
105.96061
97.179028
87.073603
75.581798
62.664488
48.442453
33.593315
19.380615
9.2612945
3.9330768
2.1380301
1.5395953
1.2423279
1.0399476
0.85058642
0.70358432
0.59941227
0.53312707
0.49694739
0.46665198
0.45218057
0.42152613
0.4136758
0.40117959
0.39221653
75.699508
73.741739
71.369388
68.560589
65.224047
61.259881
56.567072
51.039057
44.603702
37.267924
29.334109
21.376127
13.871691
7.7941532
3.9738237
2.2601764
1.6737985
1.3865422
1.1544607
0.97061746
0.80520533
0.67452176
0.57949937
0.52089386
0.48927459
0.46214916
0.44954007
0.42098273
0.41359973
0.40122486
0.39226732
30.924983
30.033323
28.98906
27.781424
26.3419
24.597653
22.50011
20.018836
17.164345
14.011224
10.750326
7.7178494
5.1765145
3.2859495
2.1477369
1.6669215
1.4517082
1.2362671
1.0447119
0.90383732
0.75883622
0.64277755
0.5574844
0.5078094
0.48039137
0.45720789
0.44655508
0.42036902
0.41348028
0.40126439
0.39231799
10.16327
9.9196449
9.610302
9.2342763
8.7781248
8.2291715
7.570443
6.798295
5.8976184
4.9215497
3.9421917
3.027459
2.3038713
1.7942167
1.522433
1.3840153
1.2256251
1.0634209
0.9365763
0.81150947
0.70916985
0.61033887
0.53315175
0.49369136
0.47084423
0.45169043
0.44376107
0.41947755
0.41317559
0.4013017
0.3923743
3.3817025
3.3431048
3.2790398
3.1865654
3.0655643
2.9120281
2.723718
2.509949
2.2647417
2.0015286
1.7529858
1.5044554
1.3671327
1.2775336
1.2335346
1.0987988
1.0271785
0.93216986
0.8062671
0.73093512
0.65446437
0.57245441
0.50970606
0.47870083
0.46031218
0.4456713
0.4398509
0.41806833
0.41254513
0.40135085
0.3924489
1.4418805
1.4337783
1.4190536
1.3970329
1.3681498
1.3317096
1.2857761
1.2273891
1.1638521
1.0936678
1.03162
0.98054729
0.96659534
0.97134329
0.92998572
0.88785475
0.80103788
0.73434267
0.6912267
0.63215443
0.59095862
0.53881399
0.48269123
0.46368406
0.44918244
0.43939811
0.43618203
0.4159752
0.4112684
0.40142701
0.39263122
0.88542766
0.88072292
0.87506828
0.868092
0.85977473
0.84975913
0.83798437
0.8238976
0.81189053
0.80001714
0.77687876
0.75700454
0.73843428
0.71474155
0.68178414
0.66632991
0.64968604
0.63464196
0.5933885
0.55957404
0.53255313
0.500648
0.46250998
0.44782759
0.43834768
0.43299275
0.43090714
0.41347772
0.40934543
0.40159139
0.39271723
0.69305466
0.69076156
0.6890037
0.68774053
0.68713203
0.68664856
0.68646383
0.68532843
0.68039661
0.66995624
0.65241108
0.63526035
0.62563211
0.6071941
0.58100466
0.56721258
0.55314585
0.54286845
0.54204423
0.51915967
0.499816
0.4757853
0.44414908
0.43359093
0.42995458
0.42724652
0.42618744
0.41066842
0.40679388
0.40195358
0.39290378
0.58382492
0.5817552
0.57903779
0.57506157
0.57065748
0.56713333
0.56412352
0.5615975
0.55956052
0.55811148
0.56125057
0.56792433
0.56052046
0.54265012
0.53012198
0.51811935
0.50380326
0.49260186
0.4833226
0.48755568
0.47666093
0.45922855
0.43390567
0.42138168
0.42267439
0.42200658
0.42108829
0.4078047
0.40408891
0.40206624
0.39333974
0.50478913
0.50431178
0.50407111
0.50433702
0.50500869
0.50561035
0.5062908
0.50674722
0.5062594
0.50365844
0.49619777
0.48893332
0.48469425
0.48251475
0.47942713
0.48010253
0.47382422
0.46032365
0.45239427
0.45208905
0.45659249
0.44995666
0.42593527
0.41471227
0.41868263
0.41540188
0.4157942
0.40535834
0.40209852
0.40002853
0.39354197
0.46217719
0.46166226
0.46084806
0.4596572
0.45853026
0.45793101
0.45758965
0.45728426
0.4567176
0.45578782
0.45429981
0.45510822
0.45355953
0.45071852
0.44944768
0.44383228
0.43983893
0.44087201
0.43744924
0.43390363
0.43375215
0.43678243
0.42180613
0.41035781
0.41322342
0.41069131
0.41072064
0.40353267
0.40094173
0.39819705
0.39383464
0.43039247
0.43059398
0.43099595
0.43156983
0.43232877
0.43320898
0.43412618
0.43482721
0.43476374
0.43364497
0.43071596
0.42590682
0.42385601
0.42346972
0.42287397
0.42359056
0.42364284
0.42202537
0.42735238
0.42465109
0.42399883
0.42360044
0.41431538
0.40493952
0.40779121
0.40662889
0.40756139
0.40158771
0.39948966
0.39811207
0.39397419
0.41295
0.41288023
0.41272829
0.41248999
0.41221851
0.41192269
0.41159998
0.41131622
0.41119503
0.41093717
0.41033039
0.40985976
0.40956436
0.40962398
0.41008912
0.40904724
0.40920512
0.41184745
0.41084806
0.41010838
0.41062518
0.41462341
0.40671105
0.40023168
0.40220353
0.40405454
0.40290085
0.39976116
0.39853836
0.39712095
0.39477124
0.40352024
0.40351171
0.40345863
0.40336481
0.40327395
0.40320807
0.40318869
0.40322938
0.40331304
0.40340746
0.40332104
0.40286362
0.40236489
0.4018842
0.40178541
0.40181959
0.40218336
0.40276036
0.40258748
0.40187641
0.40275337
0.40742087
0.40256908
0.39826052
0.39920632
0.40076122
0.40034011
0.39806704
0.39770758
0.39623324
0.39568933
0.39925784
0.39923931
0.39918862
0.39911483
0.39903603
0.39895727
0.39887505
0.39880981
0.39878493
0.39876227
0.39872735
0.39866388
0.39863488
0.39876732
0.39888847
0.39887709
0.39872871
0.39881801
0.39917449
0.39897382
0.39942121
0.40191468
0.40023642
0.39742524
0.39757851
0.3989178
0.39812098
0.39726462
0.3972684
0.39600695
0.39573386
0.39736399
0.39733284
0.39730324
0.39727942
0.39726334
0.39725651
0.39726207
0.39728182
0.39731192
0.39733066
0.39733998
0.39735058
0.39737539
0.39741104
0.39744275
0.39750229
0.39755431
0.39764456
0.39803066
0.39803054
0.39811805
0.39938179
0.39840258
0.39713528
0.39701517
0.39779765
0.39724112
0.39690289
0.39681975
0.39627949
0.39662203
0.3970217
0.39700724
0.39699066
0.39697444
0.39696055
0.39695072
0.3969445
0.39694183
0.3969389
0.39693038
0.39692448
0.39692739
0.39693969
0.39696619
0.39702094
0.39714256
0.39730744
0.39748125
0.39773274
0.39783649
0.39786943
0.39817857
0.39780728
0.39795483
0.39719067
0.39764171
0.39710505
0.39689123
0.39679546
0.3970348
0.39711368
0.39765219
0.39764559
0.39763466
0.39762002
0.39760323
0.39758626
0.39757071
0.39755759
0.39754732
0.39753946
0.39753298
0.39752781
0.39752711
0.39753682
0.3975648
0.3976155
0.39769349
0.39775312
0.39779287
0.39784564
0.39786177
0.39762056
0.39748151
0.39832626
0.39746074
0.3976687
0.3973829
0.39732071
0.39728835
0.39737558
0.39734677
125.87774
164.8355
207.85194
244.67424
295.77878
361.42798
420.79296
459.87221
474.52624
469.95302
446.64482
403.04875
350.37416
292.77799
234.08602
177.62354
125.79825
79.911709
42.140886
16.693867
4.979293
1.7141968
0.97271451
0.74181656
0.61823437
0.53030924
0.48128016
0.44372802
0.42977658
0.40096477
0.39074568
148.96748
194.66716
233.59907
272.94918
332.92961
395.53669
444.82771
473.28284
480.05256
471.02593
442.06112
396.52983
343.28073
285.91652
227.95933
172.45917
121.63972
76.705551
39.933455
15.50184
4.57006
1.6285331
0.95080904
0.73447201
0.6144782
0.52854388
0.48041332
0.44330843
0.42950958
0.40082114
0.39074681
177.55951
218.05146
247.86168
296.82696
360.75328
419.73905
461.89964
482.71838
483.97606
470.58263
436.84761
390.00569
336.37384
279.29809
222.0676
167.49683
117.645
73.626738
37.829842
14.397121
4.2206154
1.5547544
0.93722367
0.72963557
0.61184857
0.52736632
0.47981254
0.44300735
0.42927164
0.40067989
0.39074842
204.80627
233.47993
269.83734
328.4017
390.77443
442.6178
476.5453
490.11273
486.74115
468.69121
431.37068
383.53957
329.6517
272.90904
216.39812
162.72652
113.80592
70.668108
35.825306
13.371601
3.911405
1.4895977
0.92280885
0.72412912
0.60881761
0.52595583
0.47909493
0.44265197
0.42901793
0.40054287
0.39075099
223.22608
248.26562
297.99918
360.02802
418.09397
462.5014
488.71241
495.98841
489.03613
465.51942
425.80036
377.15867
323.11167
266.73925
210.94084
158.13988
110.11541
67.824308
33.918093
12.417739
3.6338723
1.4315319
0.91015009
0.71913046
0.6060128
0.52467154
0.47843456
0.44232307
0.42876709
0.40040993
0.39075471
233.73281
271.63988
330.50099
391.33494
443.06456
479.74968
498.76106
500.7836
489.89319
461.60357
420.20353
370.88155
316.75533
260.78315
205.68863
153.7302
106.56743
65.090544
32.103887
11.52997
3.382964
1.3796156
0.89827899
0.7141924
0.60318871
0.52335202
0.4777456
0.44197631
0.42850809
0.4002828
0.39075982
250.96185
304.08963
364.61266
420.66777
465.19522
494.44871
506.93306
504.62288
489.49909
457.38521
414.62591
364.72413
310.58613
255.03725
200.63576
149.49168
103.15656
62.462787
30.378298
10.704192
3.1558216
1.3331694
0.88732144
0.70947154
0.60045409
0.52206687
0.47706315
0.44162862
0.42824596
0.4001602
0.39076644
280.76407
339.24044
397.30223
447.20269
484.50718
506.85412
513.61705
507.85198
487.74661
453.01904
409.09088
358.70076
304.60829
249.49921
195.77743
145.41912
99.87788
59.936241
28.737479
9.9371607
2.9503955
1.2916427
0.87710736
0.70489618
0.59777166
0.52078366
0.47636542
0.44126623
0.42797821
0.40004313
0.39077458
316.5498
374.78245
427.78459
470.85407
501.20475
517.25225
519.21877
509.68271
485.16973
448.57074
403.61948
352.8254
298.82626
244.16734
191.1095
141.50788
96.726937
57.506724
27.176817
9.2260768
2.7649609
1.2546227
0.8675787
0.70048559
0.59516637
0.51951764
0.47565776
0.44089042
0.42770675
0.39993177
0.39078425
354.01861
408.44677
455.2589
491.60241
515.52853
525.90584
524.00816
510.27004
482.31284
444.09552
398.23305
347.11129
293.2443
239.04028
186.62825
137.75372
93.699746
55.173113
25.692589
8.5682096
2.5979509
1.2219364
0.8586524
0.69622506
0.59263572
0.51826326
0.47493374
0.44049537
0.42743142
0.39982616
0.39079544
390.29704
439.19968
479.67686
509.70937
527.78268
533.19729
527.92328
509.93136
479.28991
439.61823
392.95205
341.57067
287.86622
234.11678
182.3303
134.15276
90.792695
52.933167
24.281464
7.9627742
2.4478633
1.193192
0.8502638
0.69211536
0.59018742
0.51702493
0.47419486
0.44007979
0.4271527
0.39972573
0.39080809
423.69073
466.79363
501.24535
525.47167
538.24951
539.4612
530.76292
508.76611
476.1266
435.16689
387.797
336.21455
282.69526
229.39554
178.21246
130.70144
88.003249
50.785426
22.939642
7.4069755
2.3131523
1.1672161
0.842357
0.68815236
0.58782184
0.51580194
0.47344261
0.43964188
0.42686989
0.39963048
0.39082217
453.96355
491.4063
520.24809
539.1786
547.16593
544.98178
532.25381
507.2829
472.89615
430.7731
382.78725
331.05257
277.73401
224.87519
174.27168
127.39647
85.329864
48.728533
21.665382
6.8956199
2.1924072
1.1438804
0.83489437
0.68433499
0.58553918
0.51459488
0.47268375
0.43918243
0.42658181
0.39954029
0.39083758
481.10332
513.26314
536.97664
551.11628
554.89721
549.61266
532.93523
505.63586
469.63916
426.465
377.94025
326.093
272.98445
220.55424
170.50505
124.23467
82.768417
46.760911
20.458754
6.4254368
2.084352
1.1228144
0.82783588
0.68066141
0.58333626
0.5134025
0.47192773
0.43870352
0.42628669
0.39945513
0.39085427
505.3608
532.67445
551.72926
561.54123
561.73784
553.2742
533.21065
503.86314
466.39015
422.26894
373.27152
321.34285
268.44801
216.43106
166.90975
121.21306
80.316706
44.880814
19.318897
5.994091
1.9878154
1.1037647
0.82115125
0.67713028
0.58120868
0.51222356
0.47118364
0.43820869
0.42598284
0.39937499
0.39087212
527.03218
549.94391
564.77811
570.65395
567.96794
555.89611
533.2431
502.00586
463.18462
418.20929
368.79474
316.80796
264.12558
212.50396
163.48302
118.32882
77.97457
43.086778
18.2446
5.5994906
1.9017055
1.0864853
0.81481272
0.67373959
0.57915105
0.51105683
0.47045862
0.43770149
0.42566901
0.39929993
0.39089103
546.43488
565.3638
576.38541
578.80544
573.33595
557.89741
533.05409
500.10583
460.05681
414.30798
364.52171
312.49312
260.01764
208.77113
160.22219
115.57916
75.739809
41.377528
17.23426
5.2396238
1.8250062
1.0707669
0.80879709
0.67048673
0.57715824
0.5099022
0.46975822
0.43718481
0.42534461
0.39923004
0.39091088
563.86852
579.19637
586.76099
586.22476
577.84899
559.52451
532.72017
498.21089
457.03861
410.58441
360.46259
308.40223
256.12428
205.23072
157.12464
112.96247
73.6103
39.751874
16.285979
4.9124963
1.7567755
1.0564489
0.80308389
0.66736793
0.57522596
0.50876113
0.46908515
0.43666064
0.42500965
0.39916545
0.39093152
579.60671
591.67762
596.09847
593.06649
581.57981
560.94915
532.31326
496.36467
454.15838
407.05552
356.62603
304.53841
252.44531
201.88082
154.18775
110.47577
71.584123
38.2084
15.397651
4.6160909
1.696144
1.0433499
0.79765458
0.66437823
0.57335101
0.5076369
0.46844137
0.43613084
0.42466446
0.39910631
0.3909528
593.8943
603.02406
604.65829
599.19477
584.88362
562.21609
531.88561
494.60514
451.44102
403.736
353.01936
300.90413
248.98029
198.71953
151.40891
108.11517
69.656792
36.745651
14.567055
4.3483573
1.6423135
1.0313098
0.79249414
0.66151139
0.57153119
0.50653435
0.4678292
0.43559802
0.42430947
0.3990528
0.39097461
606.94788
613.40304
612.63291
604.65289
587.93177
563.38935
531.4854
492.96581
448.90827
400.63852
349.64876
297.50133
245.72863
195.74502
148.78575
105.87875
67.824157
35.361542
13.791901
4.1072513
1.5945604
1.0202194
0.78758893
0.65876005
0.56976516
0.50545929
0.46725164
0.43506615
0.42394507
0.39900506
0.39099686
618.96649
622.98131
620.1148
609.57879
590.82362
564.52568
531.15498
491.47594
446.57904
397.77401
346.51945
294.3315
242.6896
192.95555
146.31819
103.76476
66.084579
34.053871
13.069792
3.8907726
1.5522314
1.0099754
0.78292692
0.65611607
0.56805274
0.50441777
0.46671151
0.43454044
0.42357159
0.39896312
0.39101953
630.1299
631.93936
627.06654
614.20994
593.60581
565.67216
530.93134
490.16084
444.46968
395.15182
343.63582
291.39582
239.86243
190.34917
144.00369
101.77181
64.435527
32.819997
12.398377
3.6977109
1.5147462
1.0004939
0.77849748
0.6535709
0.56639534
0.50341547
0.46621064
0.4340262
0.42318933
0.39892692
0.39104264
640.58086
640.41963
633.55683
618.65944
596.33532
566.87174
530.84722
489.04223
442.59435
392.77999
341.00156
288.69523
237.24628
187.92594
141.83796
99.898205
62.876867
31.656411
11.775559
3.5262968
1.4815831
0.99170222
0.7742913
0.65111619
0.5647963
0.50245721
0.46574996
0.4335278
0.42279859
0.39889644
0.39106624
650.43601
648.56722
639.65379
622.99915
599.06034
568.16122
530.91614
488.13854
440.96527
390.6654
338.61979
286.23051
234.84054
185.684
139.82045
98.142386
61.408104
30.560602
11.199507
3.3736524
1.4522892
0.98354
0.77030042
0.64874439
0.56326045
0.50154672
0.46532998
0.43304856
0.42239975
0.39887168
0.3910904
659.81881
656.32797
645.54126
627.26899
601.82287
569.5721
531.14594
487.46707
439.59311
388.814
336.49315
284.00212
232.64778
183.62013
137.95001
96.502993
60.028291
29.530375
10.668519
3.2379112
1.4265258
0.97595633
0.76651814
0.6464494
0.56179301
0.50068641
0.46495051
0.43259086
0.42199342
0.39885257
0.39111517
668.81089
663.777
651.29513
631.51627
604.65921
571.13529
531.5938
487.04529
438.48724
387.23101
334.62363
282.0137
230.6661
181.73462
136.22548
94.978846
58.736143
28.563228
10.180835
3.1175963
1.4041417
0.96890863
0.762939
0.64422717
0.5603982
0.4998771
0.46461099
0.43215627
0.42158054
0.39883898
0.39114057
677.48936
670.96826
656.96847
635.77669
607.59631
572.87617
532.30372
486.88638
437.65566
385.92086
333.01549
280.26424
228.89166
180.02663
134.64588
93.568926
57.530263
27.656736
9.7346175
3.0113979
1.3845333
0.96236111
0.75955849
0.64207597
0.55907864
0.49911744
0.46431138
0.43174589
0.42116302
0.39883076
0.39116633
685.92974
677.95428
662.58771
640.07606
610.65575
574.80738
533.25403
486.97972
437.10429
384.89078
331.67715
278.7509
227.32548
178.49529
133.21045
92.272386
56.409269
26.808628
9.3280114
2.918129
1.3672594
0.95628592
0.756373
0.63999635
0.55783643
0.49840379
0.46405499
0.43135762
0.42074298
0.39882767
0.39119223
694.14622
684.80029
668.17265
644.43486
613.85549
576.94287
534.44543
487.33398
436.84162
384.15369
330.60591
277.47734
225.96766
177.14005
131.91863
91.08858
55.371878
26.016798
8.9592102
2.8367049
1.3521377
0.95065898
0.75338019
0.63799112
0.55667144
0.49773281
0.46384191
0.43099104
0.42032226
0.3988301
0.39121807
702.14507
691.5441
673.74717
648.87089
617.20905
579.29439
535.90552
488.02772
436.88109
383.7058
329.7976
276.44402
224.81828
175.96066
130.77009
90.017064
54.416974
25.279304
8.6264626
2.7661167
1.3386261
0.94542178
0.75057786
0.6360651
0.55558088
0.49710325
0.46366972
0.43064702
0.41990425
0.39883794
0.39124368
709.95114
698.20575
679.33089
653.40808
620.74296
581.88912
537.65531
489.03687
437.22163
383.54248
329.25685
275.65095
223.87762
174.95706
129.76471
89.057559
53.54363
24.594404
8.3310508
2.7040208
1.3256045
0.94056073
0.74796168
0.63422427
0.55456244
0.49651493
0.46353467
0.43032529
0.4194931
0.39885023
0.39126891
717.78496
704.9498
685.04555
658.13568
624.52888
584.78248
539.7262
490.35911
437.89596
383.65708
328.98465
275.09875
223.14607
174.1294
128.90256
88.210682
52.751381
23.964508
8.0673096
2.6462491
1.3134033
0.93607188
0.74552649
0.63247466
0.55361559
0.49596979
0.46343127
0.43002447
0.41909339
0.3988667
0.39129369
725.90896
711.99574
691.06074
663.16038
628.61133
587.99705
542.10134
491.98186
438.86405
384.08043
328.98345
274.78849
222.62425
173.47803
128.18385
87.476542
52.040709
23.390632
7.8314529
2.5926115
1.3019443
0.93194996
0.74326688
0.63082142
0.55274076
0.49547188
0.46335246
0.42974204
0.41870927
0.39888752
0.39131793
734.15424
719.25625
697.33707
668.46755
632.97548
591.47204
544.75194
493.89692
440.13413
384.80166
329.24434
274.72118
222.31301
173.00352
127.60904
86.854977
51.412435
22.872977
7.6209675
2.5427401
1.2912582
0.9281918
0.74117669
0.62926813
0.55193768
0.49502621
0.46329055
0.4294757
0.41834406
0.39891256
0.39134163
741.65798
726.088
703.42369
673.77267
637.47823
595.15593
547.68131
496.11285
441.70887
385.81783
329.79283
274.88724
222.21316
172.70669
127.17886
86.346848
50.8675
22.411321
7.4335325
2.4963198
1.2813401
0.92479512
0.73924977
0.62781629
0.55120293
0.49463507
0.46323932
0.42922383
0.41799999
0.3989418
0.39136483
748.37498
732.32673
709.13906
678.92028
642.01109
599.03148
550.87067
498.62694
443.59011
387.1311
330.61733
275.31424
222.31567
172.58828
126.89423
85.953016
50.407131
22.005237
7.2671074
2.4530618
1.2721929
0.92175856
0.73748027
0.62646545
0.55053003
0.49429439
0.46319286
0.42898512
0.41767825
0.39897538
0.39138754
755.04687
738.461
714.77495
684.06377
646.63208
603.08644
554.31234
501.43638
445.77942
388.74404
331.71992
275.98972
222.64629
172.64382
126.75608
85.674534
50.032789
21.654292
7.1199096
2.4126993
1.2638174
0.91908126
0.73586332
0.62521369
0.5499099
0.49399509
0.46314941
0.42875819
0.41737953
0.39901332
0.39140975
761.81295
744.6529
720.4599
689.28441
651.38292
607.33366
558.00629
504.54008
448.27818
390.65919
333.10363
276.91592
223.19336
172.88853
126.76492
85.512623
49.74614
21.358215
6.9903638
2.3749805
1.2562164
0.91676279
0.73439536
0.62405832
0.54932994
0.49373042
0.46311007
0.42854163
0.41710427
0.3990556
0.39143149
768.66119
750.93604
726.24361
694.6262
656.29374
611.78862
561.95623
507.93843
451.08812
392.8792
334.77176
278.09598
223.9592
173.31643
126.92458
85.468717
49.549037
21.117038
6.8770478
2.3396638
1.2493958
0.91480309
0.73307457
0.62299644
0.54877465
0.49349915
0.46307667
0.42833502
0.41685259
0.39910219
0.39145284
775.52704
757.27933
732.12311
700.1012
661.37963
616.46266
566.16696
511.63276
454.21127
395.40702
336.72801
279.53348
224.94675
173.92968
127.23551
85.542653
49.443462
20.931219
6.7786351
2.3065133
1.2433656
0.91320271
0.73190102
0.6220254
0.54822902
0.49329614
0.4630559
0.42814008
0.41662364
0.39915299
0.39147394
782.32743
763.62383
738.06725
705.70049
666.64389
621.3627
570.64378
515.62491
457.64969
398.24599
338.97642
281.2324
226.1594
174.7308
127.69962
85.739914
49.431607
20.801762
6.693832
2.2752959
1.2381422
0.91196254
0.73087651
0.62114276
0.54768403
0.49311597
0.46305705
0.42796058
0.41641508
0.39920799
0.39149487
788.96831
769.90203
744.03541
711.40615
672.08359
626.49294
575.39362
519.91653
461.40529
401.40013
341.52162
283.19732
227.60105
175.72275
128.31902
86.060108
49.515705
20.73035
6.621302
2.2457748
1.2337494
0.91108281
0.73000375
0.62034587
0.54713601
0.49295362
0.46308818
0.42780355
0.41622329
0.39926712
0.39151568
795.36442
776.05553
749.99231
717.20125
677.69476
631.85701
580.42512
524.51332
465.47871
404.87411
344.36868
285.43319
229.27599
176.90883
129.09607
86.505148
49.69779
20.719489
6.5595649
2.2176999
1.2302196
0.91056119
0.72928542
0.61963127
0.54658295
0.4928033
0.46312261
0.42767318
0.41604479
0.39933032
0.39153636
801.4667
782.05238
755.91937
723.07727
683.47675
637.46079
585.74657
529.42449
469.87287
408.67166
347.52273
287.94537
231.18905
178.2928
130.03344
87.07701
49.980085
20.772807
6.5068627
2.190799
1.2275983
0.91039264
0.72872485
0.6189949
0.54603278
0.4926564
0.463143
0.42755745
0.41587785
0.39939756
0.3915569
807.27683
787.89499
761.82022
729.03618
689.43686
643.31222
591.3656
534.65711
474.59484
412.79752
350.9895
290.73986
233.34566
179.87902
131.13416
87.777689
50.364791
20.895243
6.4610282
2.1647933
1.2259624
0.91054266
0.7283305
0.61843451
0.54550492
0.49250076
0.46313336
0.4274225
0.41572305
0.39946891
0.39157763
812.8147
793.59526
767.70936
735.08197
695.58064
649.42407
597.28305
540.21492
479.65314
417.25742
354.77462
293.82265
235.75148
181.67217
132.40149
88.609115
50.853542
21.093598
6.4193677
2.1394519
1.2254559
0.91114728
0.72812093
0.61795161
0.54501274
0.49232822
0.4630854
0.42723739
0.41558209
0.3995444
0.39159811
818.02307
799.11331
773.56813
741.20254
701.88564
655.77568
603.49232
546.09657
485.04689
422.05353
358.8819
297.19869
238.4117
183.67685
133.83859
89.573072
51.447262
21.37711
6.3786999
2.1146522
1.2259325
0.91198595
0.72811163
0.61754247
0.54456409
0.49213168
0.46309724
0.42702656
0.41545528
0.39962368
0.39161917
822.26929
803.62285
778.47116
746.46076
707.44698
661.52078
609.23942
551.64368
490.20308
426.71138
362.92902
300.56608
241.09306
185.71567
135.31094
90.56721
52.06492
21.692298
6.334386
2.0907739
1.2270684
0.91286645
0.72820136
0.61717455
0.54415257
0.49191673
0.46319794
0.4268548
0.41534111
0.39970629
0.39164122
122.81164
160.55354
206.92799
244.44193
289.43725
351.59831
410.60577
451.71936
469.39467
466.65449
446.18453
404.46129
352.67018
295.45241
236.84164
180.18933
128.0192
81.734757
43.464344
17.417679
5.176067
1.7439308
0.98057678
0.74503372
0.62000137
0.53105433
0.48167741
0.44393885
0.42996571
0.4010918
0.39073913
127.37396
162.85692
207.61725
244.45062
285.66539
345.41162
403.64979
445.27222
464.32309
463.17583
443.8457
403.43615
352.40424
295.74242
237.49268
181.01153
128.87116
82.546544
44.139806
17.836426
5.3091199
1.7705742
0.98597862
0.74736364
0.62127581
0.53154042
0.48193018
0.4440734
0.43009168
0.40117946
0.39073134
132.64245
166.65727
209.08544
244.53798
282.3616
339.49983
396.85116
438.90184
459.24237
459.42477
441.14379
402.13003
352.03868
295.99548
238.11905
181.81878
129.71578
83.354579
44.818089
18.261133
5.4472442
1.7968082
0.99153406
0.74972607
0.62253702
0.53203209
0.48218885
0.44421415
0.43021841
0.40126827
0.39072285
137.25902
170.21562
210.81936
244.81501
279.57374
333.92366
390.22888
432.60581
454.12791
455.43849
438.38705
400.75157
351.61697
296.20854
238.71876
182.60987
130.55236
84.158908
45.498707
18.690705
5.5899714
1.8236343
0.99727215
0.7521376
0.62379678
0.53253913
0.48246008
0.44436465
0.43034807
0.40135951
0.39071354
141.60551
173.58069
212.55268
245.23048
277.22617
328.69101
383.79046
426.38207
448.97047
451.42214
435.57271
399.30198
351.1374
296.37988
239.29059
183.384
131.38032
84.95912
46.181324
19.124365
5.7371428
1.8513476
1.0031597
0.75457709
0.62504487
0.53305964
0.48274193
0.44452264
0.43047913
0.40145363
0.39070326
145.8249
176.80235
214.20395
245.64466
275.23229
323.79415
377.54371
420.232
443.71866
447.3738
432.69753
397.78627
350.5998
296.50868
239.83383
184.14058
132.19922
85.755028
46.865645
19.561097
5.8887925
1.8800433
1.0091761
0.75702876
0.62627425
0.53359342
0.48303397
0.44468638
0.43061064
0.40155094
0.3906919
149.97218
179.91625
215.77168
246.07934
273.55056
319.22869
371.49954
414.16456
438.43844
443.29826
429.76516
396.20609
350.00461
296.59441
240.34797
184.87917
133.00867
86.546466
47.551394
19.999165
6.0450114
1.9097809
1.0153216
0.7594887
0.62748539
0.53414392
0.48333845
0.4448556
0.43074164
0.4016515
0.39067937
154.09506
182.95732
217.26527
246.55247
272.15936
314.98907
365.67
408.20586
433.41114
439.20891
426.78028
394.56269
349.35232
296.63651
240.83259
185.59933
133.8083
87.333172
48.238314
20.437885
6.2058771
1.9406079
1.0216032
0.76195742
0.62868198
0.53471587
0.48365841
0.44503052
0.43087147
0.40175545
0.39066569
158.2378
185.97548
218.75542
247.09485
271.02957
311.07136
360.06461
402.36594
428.44027
435.10631
423.74672
392.8577
348.64354
296.63473
241.28726
186.30063
134.59775
88.11494
48.926184
20.876716
6.3714413
1.9725683
1.0280266
0.76443529
0.62986827
0.53531395
0.48399668
0.44521116
0.43100165
0.40186306
0.39065104
162.42474
189.00886
220.27617
247.65242
270.14621
307.46386
354.69073
396.64076
423.30556
430.98405
420.66702
391.09342
347.87903
296.59708
241.71163
186.98265
135.37663
88.891562
49.614852
21.315204
6.5417432
2.005703
1.0345957
0.76692201
0.63104866
0.53594277
0.48435557
0.44539735
0.43113179
0.40197492
0.3906358
166.66878
192.08475
221.85148
248.21834
269.47906
304.15371
349.55395
391.03971
418.20532
426.84643
417.54188
389.27345
347.05953
296.51189
242.10517
187.64496
136.14459
89.662821
50.304265
21.752789
6.7167963
2.0400549
1.0413139
0.76941738
0.63222822
0.53660715
0.48473693
0.4455887
0.43126143
0.40209139
0.39062065
170.97734
195.22072
223.49743
248.78518
269.01344