/*--------------------------------*- C++ -*----------------------------------*\
| =========                 |                                                 |
| \\      /  F ield         | OpenFOAM: The Open Source CFD Toolbox           |
|  \\    /   O peration     | Version:  2406                                  |
|   \\  /    A nd           | Website:  www.openfoam.com                      |
|    \\/     M anipulation  |                                                 |
\*---------------------------------------------------------------------------*/
FoamFile
{
    version     2.0;
    format      ascii;
    arch        "LSB;label=32;scalar=64";
    class       volScalarField;
    location    "0.034";
    object      Ma;
}
// * * * * * * * * * * * * * * * * * * * * * * * * * * * * * * * * * * * * * //

dimensions      [0 0 0 0 0 0 0];

internalField   nonuniform List<scalar> 
35803
(
0.15752961
0.15857507
0.15960376
0.16066968
0.16170757
0.1627093
0.1636552
0.16457512
0.1656103
0.16686054
0.16837111
0.16992358
0.17160022
0.17336856
0.17517452
0.1766559
0.1771711
0.17565099
0.17183946
0.16893945
0.16732548
0.16613237
0.16470004
0.1634574
0.16156382
0.16077898
0.15938257
0.15899821
0.15804868
0.1574767
0.15003182
0.15462704
0.15580193
0.15705826
0.15833155
0.15959773
0.16084819
0.16207426
0.1632917
0.16458737
0.16604469
0.16767924
0.16936829
0.1711515
0.17299405
0.1748411
0.17632055
0.17677095
0.1751342
0.17132364
0.16860548
0.16709956
0.16595444
0.16455551
0.16333716
0.16146192
0.16069974
0.15932793
0.15895628
0.15800614
0.15744706
0.15002819
0.1508772
0.15227109
0.1538368
0.15541977
0.15699562
0.15855961
0.16010596
0.16164814
0.16323523
0.16493705
0.1667604
0.16861982
0.17053717
0.17247699
0.17438365
0.17587718
0.17628096
0.17453641
0.17075943
0.16825399
0.16685595
0.16576102
0.16440086
0.16321102
0.16135616
0.16062293
0.15927677
0.15891198
0.15795854
0.15741433
0.15001913
0.14703964
0.14863407
0.15045214
0.15232088
0.15419881
0.15607603
0.15794501
0.15980873
0.16169799
0.16365987
0.16569914
0.16774713
0.16981462
0.17186448
0.17383686
0.17534134
0.17568867
0.17382611
0.17011159
0.16785208
0.16657188
0.16553307
0.16421844
0.16305731
0.16123141
0.16053117
0.15922613
0.15885854
0.15790559
0.15737847
0.15000479
0.14322509
0.14499071
0.14700836
0.14911708
0.15126756
0.15344032
0.15562148
0.15780289
0.1599961
0.16222555
0.16449213
0.16674191
0.1689727
0.17114359
0.17318659
0.17469647
0.17497094
0.17297855
0.16937237
0.16740071
0.16624627
0.1652704
0.16401037
0.16287815
0.16109529
0.160415
0.15916587
0.15879508
0.15784822
0.15733897
0.14998515
0.13952955
0.14142649
0.14359188
0.14588777
0.14826583
0.15069879
0.15316471
0.15564439
0.15813088
0.16062775
0.16312741
0.165587
0.16799073
0.17029121
0.17240816
0.17391607
0.17409634
0.17196772
0.16853755
0.16689173
0.16587248
0.16496635
0.16377114
0.16266933
0.16095303
0.16027636
0.15907876
0.15871114
0.15777952
0.15729357
0.14995952
0.13607291
0.13805227
0.14031147
0.14273767
0.14528705
0.14792797
0.15063211
0.15337117
0.15612303
0.15887293
0.16160201
0.164271
0.16685058
0.16928382
0.17147322
0.17296707
0.17302473
0.17075903
0.16761083
0.1663173
0.16544415
0.16461537
0.16349739
0.16243199
0.16080668
0.16012424
0.15896488
0.15859324
0.15769301
0.15723704
0.14992725
0.13295578
0.13500015
0.13730829
0.13980312
0.14245511
0.14523412
0.14810967
0.15104822
0.15401698
0.15698628
0.1599248
0.16278968
0.16553735
0.16809738
0.17034851
0.17180911
0.17170468
0.16930534
0.16660595
0.16566769
0.1649533
0.16421108
0.16318362
0.16215897
0.16064871
0.15995354
0.15882695
0.15845372
0.15759465
0.15716887
0.14988851
0.1304423
0.13247719
0.13476155
0.13724576
0.13991354
0.14274176
0.14570205
0.14875946
0.15187498
0.15500799
0.15811516
0.16114492
0.1640379
0.16670548
0.16899433
0.17038806
0.17006579
0.16759536
0.16554121
0.16493236
0.16439006
0.16374782
0.16282346
0.1618415
0.16046667
0.15975879
0.15866035
0.15829503
0.1574949
0.15708765
0.14984407
0.12865155
0.1305977
0.13278419
0.13517935
0.13777702
0.14056242
0.14351235
0.14659445
0.14976858
0.1529883
0.15620077
0.15934344
0.16233946
0.16507658
0.16735888
0.16862093
0.16801501
0.16568414
0.16441877
0.16410126
0.16374323
0.16321991
0.1624081
0.16147945
0.16024176
0.15953431
0.15846194
0.15811894
0.15737233
0.15699046
0.1497947
0.12757709
0.12938872
0.13142698
0.13367143
0.13612427
0.13878024
0.14162454
0.1446313
0.14776435
0.15097691
0.15421053
0.15739194
0.16042517
0.16316747
0.16536316
0.16638322
0.16544553
0.1636841
0.16321726
0.16316463
0.16300167
0.16261917
0.16192734
0.16106507
0.15996079
0.15928232
0.15823979
0.15792828
0.15722732
0.15687559
0.14973426
0.12717754
0.12881578
0.13067119
0.13272316
0.13497316
0.13742413
0.14007422
0.14290858
0.14589912
0.14900272
0.1521588
0.15528432
0.15826149
0.16090696
0.16287738
0.16347588
0.16246825
0.16177419
0.16191376
0.16211787
0.16215516
0.16193075
0.16137118
0.16059622
0.15962862
0.15900716
0.15800565
0.157722
0.15705541
0.15674213
0.14971784
0.12746352
0.12884666
0.13043367
0.13221871
0.13420593
0.13639636
0.13878966
0.14137879
0.14414263
0.14704223
0.15001641
0.15297237
0.15576419
0.15815143
0.15966163
0.15977985
0.15956104
0.15993182
0.1605161
0.16096231
0.16120676
0.16113206
0.16073219
0.16006943
0.15923882
0.15869179
0.15776576
0.15750006
0.15686582
0.15658757
0.14968329
0.12806317
0.12921874
0.13054376
0.13203329
0.13370522
0.13557816
0.13765874
0.13993975
0.14239797
0.14499217
0.14765581
0.15028057
0.15268701
0.15460898
0.15560196
0.15598176
0.15702555
0.15816604
0.15903271
0.15970342
0.16012976
0.16023886
0.16000189
0.15947742
0.158791
0.15828731
0.15749336
0.15726274
0.15665035
0.15640908
0.14964781
0.12861137
0.12953338
0.13062084
0.13186558
0.13326318
0.1348188
0.13653939
0.13842718
0.14046801
0.14262719
0.14484393
0.14699956
0.14890482
0.15040487
0.15155758
0.15319363
0.15497223
0.15635726
0.15747432
0.15834291
0.15896232
0.15925015
0.15918015
0.15882237
0.15828194
0.15783595
0.15717772
0.15699854
0.15640498
0.1562049
0.14960881
0.12855868
0.12916157
0.12991719
0.1308515
0.13198708
0.13331081
0.13477641
0.13640547
0.13812347
0.13990692
0.14170763
0.14351864
0.14531854
0.14705204
0.14898866
0.15108898
0.15294536
0.15455201
0.1558486
0.15691002
0.15772325
0.15818766
0.1582896
0.15809457
0.1577107
0.15733657
0.15682036
0.15668483
0.15611329
0.15597259
0.14956548
0.12955477
0.13000495
0.13052267
0.13110955
0.13179155
0.13263135
0.13366645
0.13490337
0.13632469
0.13785777
0.13954735
0.14143601
0.14333763
0.1451541
0.14704802
0.14899706
0.15096195
0.15268248
0.15416441
0.15542502
0.15643721
0.15707199
0.15734331
0.1573081
0.15707631
0.156789
0.15641401
0.15629623
0.15576755
0.155706
0.14951632
0.13154822
0.131958
0.13242243
0.13294352
0.13352034
0.13414354
0.13477907
0.13541557
0.13615901
0.13722664
0.1386444
0.14033427
0.14219557
0.14398499
0.14571087
0.14744153
0.14916453
0.15089458
0.15248957
0.15391927
0.1551128
0.15592971
0.1563549
0.15647452
0.1563724
0.15620223
0.15594735
0.15585399
0.155368
0.1553923
0.14946068
0.13284418
0.13314399
0.13349732
0.13391601
0.13441648
0.1350242
0.13576568
0.13662221
0.13743842
0.13821626
0.13901356
0.13997332
0.14137244
0.14302222
0.14490571
0.14657146
0.1480499
0.14958042
0.15109947
0.1525179
0.15378797
0.15475927
0.15533447
0.15559136
0.15562229
0.15555842
0.1554279
0.15537144
0.15492532
0.15502172
0.1493664
0.13530269
0.13551594
0.13575928
0.13603348
0.13633939
0.13667701
0.13704918
0.13747251
0.1379895
0.1386269
0.13941441
0.14025978
0.14117448
0.14247359
0.14391514
0.14553769
0.14721206
0.14879639
0.15018421
0.15141578
0.15255042
0.15360143
0.15431946
0.1546833
0.1548311
0.15486941
0.15486497
0.1548598
0.15445946
0.15462926
0.14932326
0.13683562
0.1370025
0.13719931
0.13743072
0.137705
0.1380345
0.13843155
0.13890091
0.13943834
0.14003933
0.14069583
0.14138715
0.14202014
0.14264538
0.14356504
0.14474695
0.14610213
0.14768011
0.14932054
0.15060953
0.15156599
0.15255265
0.15336937
0.1537921
0.15403332
0.15413976
0.15427584
0.15432888
0.1539691
0.15423675
0.14925408
0.13927534
0.13939406
0.13953068
0.13968706
0.13986466
0.14006173
0.14027728
0.14051717
0.14079453
0.14113145
0.14156219
0.14213948
0.14290785
0.14365681
0.14416779
0.14474305
0.14572598
0.14678523
0.14800648
0.1495115
0.15073666
0.15170538
0.15254703
0.15296199
0.1532606
0.15337513
0.15363292
0.15376872
0.15344993
0.15353071
0.14912659
0.14071147
0.14079751
0.14089961
0.14102069
0.14116497
0.1413386
0.14154886
0.14180244
0.14210366
0.14245099
0.14283405
0.14323257
0.14362466
0.14413248
0.14486816
0.14553024
0.14597964
0.14656135
0.14739891
0.14839232
0.14951367
0.15086078
0.15185814
0.15217815
0.1524555
0.15259292
0.15292531
0.15314939
0.15288346
0.15295209
0.14906505
0.14286296
0.14291662
0.1429773
0.14304519
0.14312092
0.14320463
0.14329646
0.14339753
0.14351154
0.14364805
0.14382807
0.14409473
0.14443845
0.14482287
0.14523693
0.14583607
0.14646864
0.1469805
0.14730767
0.14798699
0.14879728
0.14991802
0.15108877
0.15134855
0.15159095
0.1518171
0.1521876
0.15246073
0.15227077
0.1524576
0.14888138
0.14405604
0.14409948
0.14415206
0.14421576
0.14429337
0.14438846
0.14450534
0.1446484
0.14482036
0.14501826
0.14522604
0.14540369
0.14558742
0.1458085
0.14608542
0.14630489
0.14663777
0.14716573
0.14768673
0.1480433
0.14864693
0.14951047
0.15029624
0.15051008
0.15072507
0.15107149
0.15143242
0.15175191
0.15160873
0.15169589
0.14878396
0.14577378
0.14579411
0.14581701
0.1458425
0.14587067
0.14590121
0.14593297
0.14596395
0.14599257
0.14602069
0.14605764
0.14612359
0.14622598
0.14636579
0.14655875
0.14686327
0.14709806
0.14734512
0.14787882
0.14838498
0.14879486
0.14932639
0.14990562
0.14995169
0.14999806
0.15042778
0.15074316
0.15106421
0.15093075
0.15085139
0.14868549
0.14675521
0.14676392
0.14677484
0.14678807
0.14680434
0.14682474
0.14685122
0.14688774
0.14694123
0.14701688
0.14710961
0.14720578
0.14729039
0.14735264
0.14738007
0.14741109
0.14757923
0.14782729
0.14809635
0.14841228
0.14873455
0.14914628
0.14969267
0.149648
0.14951652
0.14993612
0.15013155
0.15045926
0.150363
0.15032553
0.14855973
0.14801633
0.14801981
0.14802317
0.148026
0.14802807
0.14802925
0.14802935
0.14802725
0.14801984
0.1480046
0.14798616
0.14797234
0.1479722
0.14799741
0.1480608
0.14813392
0.14817676
0.14821773
0.14826324
0.14840407
0.14853577
0.14881628
0.14944283
0.14938433
0.14906855
0.14943002
0.14956995
0.14989183
0.14985657
0.15009788
0.14849048
0.14870291
0.14870399
0.14870502
0.14870535
0.14870429
0.14870148
0.14869711
0.14869145
0.14868444
0.14867569
0.14866486
0.14865053
0.14863336
0.14861202
0.14859012
0.14856567
0.14853751
0.1484981
0.14844352
0.14845031
0.14850625
0.14867227
0.14911794
0.14904375
0.14860355
0.14888581
0.14904312
0.14929068
0.14937354
0.14970352
0.14845903
0.1490272
0.14902005
0.1490121
0.14900317
0.14899283
0.14898062
0.14896664
0.14895125
0.14893455
0.14891707
0.14889953
0.14888075
0.14885895
0.148833
0.14880337
0.14877195
0.14874111
0.1487251
0.14870321
0.14867075
0.14861553
0.14862747
0.14896033
0.14886064
0.1483888
0.14862494
0.14879711
0.14892104
0.14908204
0.14918831
0.14847863
0.14924069
0.14923043
0.14921922
0.14920762
0.14919626
0.14918565
0.14917592
0.14916675
0.14915741
0.14914716
0.14913565
0.14912349
0.14911276
0.1491067
0.14910888
0.14911786
0.14912573
0.14913497
0.14912537
0.14911597
0.14913234
0.14900676
0.14897276
0.14887735
0.14846236
0.14862394
0.14887207
0.14879584
0.14900703
0.14896733
0.14867663
0.017025553
0.032158687
0.058716007
0.092248244
0.11801949
0.13370273
0.14314716
0.14969602
0.15495048
0.15952484
0.16364481
0.16742084
0.17091091
0.17414589
0.17713807
0.17983029
0.18217464
0.18368472
0.18390048
0.18165393
0.17671702
0.17278841
0.17008185
0.16786644
0.16534666
0.16364696
0.16178668
0.16100371
0.15987279
0.15862556
0.15047822
0.025952646
0.048014238
0.080670107
0.11066767
0.12903954
0.13952885
0.14643725
0.15186491
0.15657104
0.1608097
0.16468642
0.16826893
0.17159693
0.17469428
0.17756564
0.18015016
0.18238116
0.18375469
0.18381548
0.18137325
0.17639414
0.17258308
0.16994002
0.16775023
0.16525124
0.16357651
0.16173232
0.16096303
0.15983534
0.15859329
0.15046492
0.037987953
0.065639502
0.097758452
0.12073472
0.13416463
0.14244422
0.14844877
0.15343367
0.15785243
0.16186829
0.16556115
0.16898723
0.17217971
0.17515973
0.1779266
0.18041656
0.18254423
0.1837963
0.18371858
0.18110061
0.17609714
0.17240038
0.16981076
0.16764426
0.16516389
0.16351116
0.16168061
0.16092304
0.15979832
0.15855618
0.15044872
0.053980443
0.08518232
0.11215266
0.12879788
0.13856526
0.14514243
0.1503667
0.15493511
0.15907731
0.16287935
0.16639626
0.16967211
0.17273443
0.17560184
0.17826808
0.18066597
0.18268987
0.18382242
0.18361254
0.18081741
0.17580179
0.17221866
0.16967943
0.16753597
0.16507467
0.16344457
0.16162826
0.16088265
0.15976112
0.15851855
0.15043206
0.073884872
0.10287497
0.12280197
0.13446673
0.14185502
0.14738845
0.15209762
0.15634494
0.1602455
0.16384928
0.16719864
0.17032946
0.17326578
0.17602408
0.17859247
0.18089995
0.18281991
0.18383897
0.18349694
0.18052321
0.1755091
0.17204109
0.1695493
0.16742859
0.16498622
0.16337854
0.16157618
0.16084204
0.15972369
0.15848153
0.15041555
0.094139153
0.11654556
0.13023421
0.13862013
0.14454032
0.1493885
0.153709
0.15768167
0.16136074
0.16477766
0.16796629
0.17095688
0.17377135
0.17642417
0.17889769
0.18111677
0.18293395
0.18384442
0.18336803
0.18021916
0.17522027
0.17186741
0.16942
0.16732162
0.16489801
0.16331265
0.16152412
0.16080115
0.15968602
0.1584432
0.15039939
0.11033487
0.12601677
0.13545458
0.14182981
0.14683811
0.1512122
0.15522261
0.15895252
0.1624255
0.16566481
0.16869852
0.17155347
0.17425034
0.17680143
0.17918319
0.18131611
0.18303265
0.18383915
0.18322431
0.17990629
0.17493634
0.17169758
0.16929162
0.16721526
0.16481026
0.16324706
0.16147216
0.16076001
0.15964814
0.15840688
0.15038357
0.12195524
0.13246878
0.13929916
0.14447375
0.1488927
0.15291218
0.15665856
0.16016572
0.16344381
0.16651262
0.16939627
0.17211984
0.17470321
0.1771562
0.17944928
0.18149844
0.18311749
0.18382566
0.18306496
0.17958556
0.17465803
0.17153133
0.1691641
0.1671095
0.16472293
0.16318176
0.16142032
0.16071862
0.15961006
0.1583747
0.15036809
0.12960046
0.13697084
0.14232492
0.14677865
0.15078756
0.15451949
0.15802947
0.16132712
0.1644189
0.16732259
0.17006033
0.17265657
0.17513036
0.17748877
0.1796962
0.18166417
0.18318866
0.18380157
0.18289091
0.17925637
0.17438612
0.17136841
0.16903742
0.16700436
0.16463608
0.16311676
0.16136859
0.16067702
0.1595718
0.15834695
0.1503529
0.13484792
0.14042309
0.1449054
0.14888062
0.15257229
0.15605396
0.15934397
0.16244126
0.16535292
0.1680957
0.17069125
0.17316402
0.17553206
0.17779931
0.17992413
0.18181363
0.18324572
0.18376312
0.18270138
0.17892112
0.17412122
0.17120857
0.16891157
0.16689988
0.16454971
0.16305209
0.161317
0.16063521
0.1595334
0.15832012
0.15033797
0.13874288
0.14328713
0.14722196
0.15084923
0.15427563
0.15752855
0.16060819
0.16351137
0.16624734
0.16883259
0.17128943
0.17364251
0.17590851
0.17808799
0.18013325
0.18194701
0.18328805
0.18371172
0.18249739
0.17858212
0.1738636
0.17105155
0.16878656
0.16679607
0.16446387
0.16298775
0.16126556
0.16059322
0.15949486
0.15829397
0.15032327
0.14190861
0.1458293
0.14938262
0.15272882
0.15591715
0.15895235
0.16182664
0.16453991
0.16710317
0.16953373
0.17185521
0.17409229
0.17625991
0.17835494
0.18032374
0.18206409
0.1833153
0.18364728
0.1822801
0.1782427
0.17361324
0.17089712
0.16866236
0.16669295
0.16437857
0.16292376
0.16121427
0.16055108
0.1594562
0.15826837
0.15030877
0.14469403
0.14819362
0.15144812
0.15454671
0.15750983
0.16033149
0.16300283
0.16552851
0.167921
0.17019944
0.17238888
0.1745136
0.17658643
0.17860033
0.18049574
0.18216449
0.18332859
0.18357098
0.18205123
0.17790258
0.17337003
0.17074504
0.16853899
0.16659056
0.16429383
0.16286014
0.16116317
0.16050882
0.15941743
0.15824324
0.15029448
0.14728383
0.15046143
0.15345613
0.15632099
0.15906234
0.16167013
0.16413913
0.16647797
0.16870111
0.17082994
0.17289063
0.1749066
0.17688822
0.1788243
0.18064942
0.1822485
0.18332801
0.1834829
0.18181086
0.17756306
0.17313386
0.17059514
0.16841646
0.16648889
0.16420969
0.1627969
0.16111225
0.16046646
0.15937859
0.15821851
0.15028041
0.14978186
0.15268108
0.15543003
0.158063
0.16057996
0.16297092
0.16523667
0.16738853
0.16944358
0.17142534
0.1733606
0.17527145
0.17716544
0.17902699
0.18078491
0.18231574
0.18331284
0.18338373
0.18155987
0.17722517
0.17290454
0.17044723
0.16829477
0.16638799
0.16412617
0.16273404
0.16106153
0.16042403
0.15933968
0.15819413
0.15026659
0.15224632
0.15488106
0.15738392
0.15977938
0.16206532
0.16423522
0.16629565
0.16826006
0.1701483
0.17198565
0.17379888
0.17560826
0.17741818
0.17920853
0.18090228
0.18236518
0.18328297
0.18327477
0.18129836
0.17689032
0.1726818
0.17030114
0.16817394
0.16628785
0.16404327
0.16267158
0.16101102
0.16038157
0.15930072
0.15817007
0.15025309
0.15471104
0.15707811
0.15932548
0.16147298
0.16351908
0.16546313
0.16731551
0.16909203
0.17081501
0.17251079
0.17420549
0.1759171
0.17764656
0.17936905
0.18100148
0.18239636
0.18323844
0.18315625
0.18102721
0.17655883
0.17246536
0.17015675
0.16805397
0.1661885
0.16396103
0.16260954
0.16096073
0.16033909
0.15926173
0.15814629
0.15023995
0.1571951
0.15928035
0.16125706
0.16314338
0.16494029
0.16665339
0.1682951
0.16988365
0.17144329
0.17300058
0.17458041
0.17619802
0.17785067
0.17950869
0.18108208
0.1824096
0.18318333
0.18302799
0.18074722
0.17623137
0.17225496
0.17001392
0.16793489
0.16608994
0.16387946
0.16254792
0.16091067
0.16029662
0.15922274
0.1581228
0.1502272
0.15970564
0.16148828
0.16317619
0.16478725
0.16632636
0.16780366
0.16923272
0.1706339
0.17203259
0.1734548
0.17492356
0.17645105
0.17803059
0.17962764
0.18114448
0.18240849
0.18312221
0.18289008
0.18045917
0.17590863
0.17205033
0.16987256
0.16781671
0.1659922
0.16379857
0.16248673
0.16086084
0.16025419
0.15918375
0.15809958
0.15021486
0.16223779
0.16369485
0.16507587
0.16639879
0.16767304
0.16891076
0.17012627
0.17134152
0.17258225
0.17387311
0.17523481
0.17667617
0.17818644
0.17972603
0.18118932
0.18239395
0.18305021
0.18274302
0.18016394
0.17559119
0.17185119
0.16973258
0.16769944
0.16589527
0.16371838
0.16242599
0.16081126
0.16021183
0.1591448
0.15807662
0.15020291
0.16477475
0.16588599
0.16694492
0.1679701
0.16897463
0.16997081
0.17097332
0.1720051
0.17309148
0.17425515
0.17551403
0.17687338
0.17831829
0.17980375
0.18121558
0.1823667
0.18297116
0.1825846
0.17986225
0.17527951
0.17165724
0.16959391
0.1675831
0.16579918
0.16363889
0.16236571
0.16076195
0.16016956
0.15910591
0.15805392
0.15019134
0.16728979
0.16804174
0.16876896
0.16949157
0.17022442
0.17097941
0.17177113
0.17262304
0.17355944
0.17460049
0.17576101
0.17704267
0.17842617
0.17985955
0.18122348
0.18232817
0.18288399
0.18241516
0.17955478
0.17497401
0.17146817
0.16945649
0.16746771
0.16570394
0.16356013
0.1623059
0.16071291
0.16012742
0.15906708
0.15803146
0.15018017
0.16974961
0.17013732
0.17053174
0.1709526
0.17141513
0.17193163
0.17251677
0.17319366
0.17398517
0.17490867
0.17597557
0.177184
0.17850986
0.1798931
0.1812172
0.1822782
0.18278786
0.18223422
0.1792424
0.17467499
0.17128367
0.16932028
0.16735329
0.16560956
0.16348209
0.16224659
0.16066415
0.16008542
0.15902836
0.15800924
0.15016944
0.17211722
0.17214523
0.17221715
0.17234229
0.17253904
0.17282206
0.17320708
0.17371519
0.17436768
0.17517922
0.17615753
0.17729711
0.17856778
0.17990571
0.18119684
0.18221544
0.18268103
0.1820408
0.17892622
0.17438274
0.17110346
0.16918527
0.16723985
0.16551605
0.16340481
0.16218777
0.16061567
0.16004357
0.15898975
0.15798719
0.15015921
0.17436251
0.17404753
0.17380802
0.1736482
0.17358779
0.17364536
0.17383879
0.17418575
0.17470599
0.17541176
0.17630657
0.17738094
0.17859834
0.1799011
0.18116068
0.18213993
0.18256407
0.18183727
0.1786075
0.17409751
0.17092721
0.16905143
0.16712743
0.16542344
0.16332828
0.16212947
0.16056746
0.16000192
0.15895126
0.15796539
0.15014958
0.17645683
0.17582362
0.17528671
0.17485681
0.17455314
0.17439769
0.1744092
0.17460314
0.17499905
0.17560585
0.17642177
0.17743176
0.17860433
0.17987983
0.18110801
0.18205175
0.1824366
0.18162372
0.17828732
0.17381946
0.17075466
0.16891876
0.16701603
0.16533174
0.16325251
0.16207172
0.16051952
0.15996045
0.15891293
0.15794376
0.15014064
0.17837072
0.17744788
0.17663829
0.17595761
0.17542888
0.17507456
0.17491402
0.17496661
0.17524534
0.17576032
0.17649927
0.17745041
0.1785917
0.17983986
0.18103925
0.18195103
0.18229865
0.18140125
0.1779673
0.17354867
0.17058555
0.16878727
0.16690568
0.16524098
0.16317744
0.16201457
0.16047185
0.1599192
0.15887476
0.15792214
0.15013248
0.1800822
0.17890338
0.17784978
0.17694187
0.17620766
0.17567138
0.17535398
0.17527311
0.17544293
0.17587079
0.17653593
0.17744608
0.17855838
0.1797794
0.18095457
0.18183795
0.18215044
0.18117093
0.17764867
0.17328508
0.17041964
0.16865699
0.16679638
0.16515119
0.16310306
0.161958
0.16042446
0.15987818
0.15883677
0.15790069
0.15012482
0.18157456
0.18017625
0.1789098
0.17780117
0.17688356
0.17618436
0.17572419
0.17551926
0.17558641
0.1759285
0.17654078
0.17741939
0.17850024
0.17969875
0.18085405
0.18171276
0.1819923
0.18093373
0.17733245
0.17302858
0.17025669
0.16852796
0.16668814
0.16506237
0.16302952
0.16190191
0.16037738
0.1598374
0.15879897
0.15787951
0.15011748
0.1828344
0.18125451
0.17980843
0.17852805
0.17745058
0.1766065
0.17601711
0.17569734
0.17566491
0.17594307
0.1765223
0.17736594
0.17841779
0.17959808
0.18073778
0.18157572
0.18182461
0.18069059
0.17701955
0.17277897
0.17009653
0.16840015
0.16658103
0.16497455
0.16295683
0.16184636
0.16033055
0.15979687
0.15876138
0.15785858
0.1501104
0.1838488
0.18212483
0.18053422
0.17911346
0.17790039
0.17692489
0.17621253
0.17578864
0.17569102
0.17593183
0.17647512
0.17728265
0.17831113
0.17947738
0.1806058
0.18142694
0.18164782
0.18044244
0.17671064
0.17253612
0.16993903
0.16827359
0.1664751
0.16488775
0.16288495
0.16179137
0.16028392
0.1597566
0.158724
0.1578379
0.15010357
0.18459515
0.18276556
0.18106496
0.17953158
0.17820464
0.17711501
0.17630508
0.1758201
0.17568779
0.17589013
0.17639162
0.17716988
0.17818011
0.17933658
0.18045815
0.18126594
0.18146219
0.18019023
0.1764063
0.17229991
0.16978402
0.16814834
0.16637034
0.16480201
0.16281388
0.16173696
0.16023716
0.15971662
0.15868683
0.15781748
0.15009706
0.18503157
0.18313889
0.181369
0.17975923
0.17835336
0.17718995
0.17633299
0.17581658
0.17564723
0.1758061
0.1762725
0.17702769
0.17802461
0.17917562
0.1802948
0.18109599
0.18126815
0.17993489
0.17610683
0.17207016
0.16963136
0.16802442
0.16626677
0.16471735
0.16274364
0.16168316
0.16019058
0.15967694
0.15864989
0.15779736
0.15009098
0.18523909
0.18331244
0.18150487
0.17985322
0.17840037
0.17720572
0.17632634
0.17576762
0.17555491
0.17567655
0.17611766
0.17685595
0.17784453
0.17899444
0.18011587
0.18091395
0.18106679
0.17967716
0.17581256
0.17184669
0.16948097
0.16790189
0.16616443
0.1646338
0.16267421
0.16163003
0.16014414
0.15963757
0.15861319
0.15777756
0.1500854
0.18532226
0.18338062
0.18155381
0.17988078
0.17840378
0.17718573
0.17626006
0.17565253
0.17540439
0.17550144
0.17592669
0.17665447
0.17763978
0.17879302
0.17992167
0.18072247
0.1808582
0.17941785
0.17552379
0.17162937
0.16933276
0.16778078
0.16606335
0.1645514
0.16260553
0.16157769
0.16009791
0.1595985
0.15857671
0.15775811
0.15008034
0.18519074
0.1832891
0.1814781
0.17980629
0.17832318
0.17707664
0.17610542
0.17546609
0.1751967
0.1752808
0.17569915
0.17642309
0.17741033
0.17857131
0.17971217
0.18052068
0.18064327
0.17915763
0.17524077
0.17141805
0.16918666
0.16766113
0.16596355
0.16447018
0.16253748
0.16152617
0.16005197
0.15955972
0.15854046
0.15773904
0.15007578
0.18471322
0.18291942
0.18117854
0.17954939
0.17808622
0.17683822
0.17585714
0.17520713
0.17493204
0.17501375
0.17543458
0.17616166
0.17715613
0.17832927
0.17948739
0.18030895
0.18042268
0.17889718
0.17496367
0.17121258
0.16904262
0.16754297
0.16586507
0.16439016
0.16246995
0.16147519
0.16000612
0.15952127
0.15850444
0.1577204
0.15007163
0.18395083
0.18229004
0.18065218
0.1791004
0.17769027
0.17647515
0.17551276
0.17487405
0.17460873
0.17469946
0.17513254
0.17587005
0.17687717
0.17806689
0.17924733
0.18008757
0.18019703
0.17863714
0.17469269
0.17101275
0.16890061
0.16742634
0.16576795
0.16431137
0.1624028
0.16142425
0.15996051
0.15948315
0.15846864
0.15770224
0.15006781
0.18297828
0.18145345
0.17993137
0.17847799
0.17714637
0.17599095
0.17507145
0.17446512
0.17422517
0.17433713
0.17479258
0.17554811
0.17657347
0.17778418
0.17899197
0.17985673
0.17996691
0.17837813
0.17442792
0.1708184
0.16876063
0.16731129
0.16567221
0.16423385
0.16233584
0.16137295
0.15991501
0.15944536
0.15843306
0.15768462
0.15006423
0.18180887
0.18042231
0.17902589
0.17768862
0.17645833
0.17538677
0.17453294
0.17397948
0.17377984
0.17392603
0.17441426
0.17519573
0.17624505
0.17748119
0.1787213
0.17961653
0.17973288
0.17812074
0.17416946
0.17062934
0.16862268
0.16719784
0.1655779
0.16415763
0.16226873
0.16132122
0.15986977
0.15940761
0.1583977
0.15766751
0.1500608
0.18042624
0.17918591
0.17793097
0.17673082
0.17562597
0.17466271
0.17389754
0.17341695
0.17327121
0.1734655
0.17399716
0.17481276
0.17589197
0.17715798
0.1784353
0.17936703
0.1794955
0.17786559
0.17391735
0.17044545
0.16848679
0.16708605
0.16548507
0.16408273
0.16220088
0.16126903
0.15982523
0.15936959
0.15836252
0.15765082
0.1500574
0.17879567
0.17772209
0.17663553
0.17560018
0.17464813
0.17381889
0.1731663
0.17277788
0.17269778
0.17295499
0.17354088
0.17439904
0.17551429
0.17681468
0.17813396
0.17910819
0.17925533
0.17761328
0.17367166
0.17026657
0.16835299
0.16697596
0.16539375
0.1640092
0.16213177
0.1612164
0.15978164
0.15933155
0.15832748
0.15763456
0.15005403
0.1768825
0.17601097
0.17513065
0.17429398
0.1735248
0.1728561
0.17234147
0.17206151
0.17205914
0.17239418
0.17304508
0.17395442
0.17511212
0.17645146
0.17781733
0.17883993
0.17901257
0.1773644
0.17343241
0.17009258
0.1682213
0.16686757
0.16530397
0.16393704
0.16206043
0.16116293
0.15973843
0.15929392
0.15829255
0.15761877
0.15005084
0.17467804
0.17405086
0.17341847
0.17281567
0.17225911
0.17177758
0.17142493
0.17126594
0.17135743
0.17178273
0.17250945
0.17347878
0.17468559
0.17606861
0.1774855
0.17856211
0.17876656
0.17711936
0.17319956
0.16992325
0.16809167
0.16676085
0.16521568
0.16386627
0.16198565
0.16110822
0.15969282
0.15925605
0.15825772
0.15760213
0.15004804
0.17221594
0.17186772
0.17151742
0.17117773
0.17085875
0.17058956
0.1704168
0.17039201
0.1705951
0.17112066
0.17193365
0.17297192
0.1742348
0.17566641
0.17713866
0.17827448
0.17851828
0.17687866
0.17297297
0.16975831
0.16796405
0.16665578
0.16512892
0.16379692
0.16190964
0.16105168
0.15964037
0.15921565
0.1582231
0.15758365
0.15004534
0.16956343
0.16950929
0.16945959
0.16939972
0.16933683
0.16929809
0.16931475
0.16944142
0.16977321
0.17040859
0.1713171
0.17243323
0.17375946
0.17524487
0.17677685
0.17797662
0.17826731
0.17664318
0.17275263
0.16959781
0.16783871
0.16655268
0.16504398
0.16372921
0.16183591
0.16099448
0.15958007
0.15917008
0.15818879
0.15756425
0.15004159
0.1667806
0.16701095
0.16726819
0.16749548
0.16769718
0.16789431
0.16811365
0.16841123
0.16888505
0.1696431
0.17065679
0.17185987
0.17325735
0.17480245
0.17639882
0.17766751
0.17801375
0.17641472
0.17253984
0.16944307
0.16771666
0.16645245
0.16496165
0.16366364
0.16176562
0.1609379
0.15952024
0.1591203
0.15815465
0.15754379
0.15004182
0.16386756
0.16435989
0.16491735
0.16543978
0.16591283
0.16635638
0.16679675
0.16728389
0.16790831
0.16880999
0.16994536
0.17124619
0.17272405
0.17433582
0.17600142
0.17734548
0.17775723
0.17619595
0.17233807
0.16929646
0.16759899
0.16635568
0.16488229
0.16360029
0.16169954
0.16088252
0.15947127
0.15907233
0.15812005
0.15752134
0.15004097
0.16083643
0.16145836
0.16224075
0.16305513
0.16383158
0.16456501
0.16526707
0.16597285
0.16676292
0.16784494
0.16914053
0.17055912
0.17213232
0.17382236
0.17556603
0.17699772
0.17749347
0.17598677
0.17215381
0.1691572
0.16748383
0.16626008
0.16480354
0.16353747
0.16163757
0.16082979
0.15942901
0.15903217
0.15808415
0.15749863
0.15003767
0.014841666
0.027816606
0.052398516
0.086006984
0.11354484
0.13091824
0.14144865
0.1485285
0.15404496
0.15877611
0.16301579
0.16689379
0.17047543
0.17379341
0.17686202
0.17962437
0.18204108
0.18363657
0.18396804
0.18184413
0.17694747
0.17294192
0.17019404
0.16795739
0.16542219
0.16370477
0.16183416
0.1610414
0.15990703
0.1586634
0.15048494
0.017045873
0.03012339
0.053377689
0.085190364
0.11259386
0.13031105
0.1410576
0.1482463
0.15380007
0.15854207
0.16279076
0.16668554
0.17029259
0.17364112
0.17674213
0.17953651
0.18198209
0.18361198
0.18400012
0.18194248
0.1770828
0.17303304
0.17026555
0.16801755
0.16547468
0.16374614
0.16186889
0.16106992
0.15993219
0.15868978
0.15048939
0.018719817
0.031624596
0.053796462
0.084222298
0.11155022
0.12956811
0.14053269
0.14785063
0.1534643
0.15823502
0.16250646
0.1664284
0.17006899
0.17345489
0.17659432
0.17942644
0.18190626
0.18358385
0.18402485
0.18204988
0.17722923
0.17312877
0.17033778
0.1680782
0.16552754
0.16378812
0.16190419
0.16109896
0.15995769
0.15871305
0.15049374
0.020117439
0.032687094
0.053836308
0.083066866
0.11031945
0.12868867
0.13993392
0.14741433
0.15310567
0.15791387
0.16221181
0.16616199
0.16983625
0.17325967
0.17643789
0.17930867
0.18182341
0.18355059
0.18404782
0.18215668
0.17737918
0.17322968
0.17041344
0.16814166
0.16558258
0.16383193
0.16194112
0.16112924
0.15998402
0.15873614
0.15049802
0.021464881
0.033761601
0.053942551
0.081954288
0.10902355
0.1277559
0.13931311
0.14697095
0.15274713
0.15759518
0.16191915
0.16589564
0.16960144
0.17306075
0.17627677
0.17918596
0.18173554
0.18351227
0.18406818
0.18226003
0.17752868
0.17333273
0.17049068
0.16820658
0.16563883
0.16387674
0.16197898
0.16116019
0.16001033
0.15875889
0.15050224
0.0227885
0.034837856
0.054165068
0.080984742
0.10775733
0.12681916
0.13868984
0.1465289
0.15239306
0.15728195
0.16163094
0.16563161
0.16936663
0.17285995
0.17611244
0.17905946
0.1816436
0.18346945
0.18408478
0.18235878
0.17767637
0.17343615
0.17056793
0.16827171
0.16569534
0.16392185
0.16201718
0.1611913
0.1600365
0.15878164
0.15050644