/*--------------------------------*- C++ -*----------------------------------*\
| =========                 |                                                 |
| \\      /  F ield         | OpenFOAM: The Open Source CFD Toolbox           |
|  \\    /   O peration     | Version:  2406                                  |
|   \\  /    A nd           | Website:  www.openfoam.com                      |
|    \\/     M anipulation  |                                                 |
\*---------------------------------------------------------------------------*/
FoamFile
{
    version     2.0;
    format      ascii;
    arch        "LSB;label=32;scalar=64";
    class       surfaceScalarField;
    location    "0.034";
    object      phi;
}
// * * * * * * * * * * * * * * * * * * * * * * * * * * * * * * * * * * * * * //

dimensions      [1 0 -1 0 0 0 0];

oriented        oriented;

internalField   nonuniform List<scalar> 
71073
(
0.0086325122
-0.011676034
0.011942316
-0.0089011894
0.0083658066
-0.01377755
0.014041191
0.008076154
-0.016238308
0.016525753
0.0077601714
-0.019128126
0.019442677
0.0074222484
-0.022518566
0.022855996
0.0070693177
-0.026486099
0.026839302
0.0067099317
-0.031115187
0.031475566
0.0063533992
-0.036507685
0.036865632
0.0060078233
-0.042797338
0.043144243
0.0056763309
-0.050161744
0.050494298
0.0053604627
-0.058788918
0.059105554
0.0050622537
-0.068851634
0.069150418
0.004779967
-0.0806013
0.080884051
0.0045078736
-0.0943104
0.0945828
0.0042369328
-0.11027917
0.11055018
0.0039512463
-0.12861529
0.12890076
0.0036126445
-0.14909149
0.14942976
0.0031508277
-0.17081853
0.17128029
0.0026448245
-0.19329121
0.19379706
0.0022565366
-0.21952172
0.21990856
0.0019459592
-0.25077668
0.2510845
0.001664571
-0.28697571
0.2872556
0.0014050319
-0.32774786
0.32800824
0.0011603873
-0.37458467
0.37482909
0.00093993188
-0.42649312
0.42671547
0.00074961913
-0.48835251
0.48854184
0.00056651579
-0.55701966
0.55719895
0.00040413754
-0.63917267
0.63933397
0.00022518424
-0.73057218
0.7307504
8.3841301e-05
-0.83725213
0.83740014
-0.9170711
0.91710116
0.0097696394
-0.011421008
-0.010019103
0.0094865465
-0.013491127
0.0091771738
-0.015926618
0.0088413327
-0.018790303
0.0084810601
-0.022156246
0.0081015484
-0.026104496
0.0077111031
-0.030722815
0.0073199353
-0.036114671
0.0069374705
-0.04241327
0.0065654965
-0.049788627
0.0062060668
-0.058428677
0.0058634008
-0.06850835
0.0055367744
-0.080274157
0.0052204461
-0.093993731
0.0049034597
-0.10996213
0.0045645716
-0.12827668
0.0041616266
-0.14868895
0.0036195349
-0.17027653
0.0030349799
-0.19270687
0.0025939318
-0.21908235
0.00223837
-0.2504243
0.0019141339
-0.28665325
0.0016163098
-0.32744912
0.0013333825
-0.37430201
0.0010807402
-0.42624057
0.000860681
-0.48813421
0.00065161949
-0.55681527
0.00046445675
-0.63898688
0.0002587821
-0.73036694
9.5625206e-05
-0.83708073
-0.91703779
0.010966398
-0.011179619
-0.011202015
0.01068935
-0.013209595
0.010376655
-0.015610371
0.010031749
-0.0184422
0.0096572134
-0.021778748
0.0092576521
-0.025702316
0.0088411344
-0.030304107
0.0084183789
-0.03569022
0.0079986915
-0.041992136
0.0075854823
-0.049374262
0.0071801227
-0.058022499
0.0067892658
-0.068116839
0.0064130218
-0.079897349
0.0060459765
-0.093626323
0.005675247
-0.10959137
0.0052736211
-0.12787539
0.0047919825
-0.1482078
0.0041544091
-0.16963911
0.0034838009
-0.19203656
0.0029859098
-0.2185864
0.0025789241
-0.25002098
0.0022049217
-0.28628136
0.00186302
-0.32710621
0.0015350098
-0.37397436
0.0012451851
-0.4259534
0.0009897655
-0.4878808
0.00075070685
-0.55658096
0.00053443665
-0.63877217
0.00029771217
-0.73013034
0.0001087646
-0.83688235
-0.91699958
0.012231629
-0.010959773
-0.012449034
0.011972316
-0.01294787
0.011671301
-0.015306919
0.011330707
-0.018099082
0.01095318
-0.021398757
0.010543183
-0.025290115
0.010108321
-0.029867527
0.0096590771
-0.03523952
0.0092050312
-0.041536875
0.0087511588
-0.048919414
0.0082994179
-0.057569961
0.0078573866
-0.067674108
0.0074263773
-0.079465726
0.0070015366
-0.093201104
0.0065680595
-0.10915789
0.0060923078
-0.12740008
0.0055144767
-0.14763056
0.0047629035
-0.16888777
0.0039979785
-0.19127203
0.0034373827
-0.21802804
0.0029710824
-0.24955889
0.0025394096
-0.28585222
0.002147146
-0.32671285
0.0017665081
-0.37359415
0.0014346028
-0.42562736
0.0011376345
-0.48758606
0.00086504571
-0.55631234
0.00061452169
-0.63852292
0.00034236455
-0.72985805
0.00012316376
-0.83665294
-0.91695667
0.013562259
-0.010769194
-0.013752827
0.013330245
-0.012715435
0.013053603
-0.015029482
0.012731539
-0.017775871
0.0123652
-0.02103108
0.011958017
-0.024881594
0.011516457
-0.029424795
0.011049938
-0.034771941
0.01056804
-0.041054016
0.01007702
-0.04842753
0.0095802866
-0.057072416
0.0090855853
-0.067178644
0.0085953467
-0.078974827
0.0081053607
-0.09271074
0.0075988391
-0.10865144
0.0070353505
-0.12683714
0.0063401188
-0.14693606
0.0054528465
-0.16800086
0.0045865592
-0.19040629
0.0039566502
-0.21740071
0.0034228342
-0.24902992
0.0029248705
-0.28535731
0.0024753056
-0.3262621
0.0020331822
-0.37315248
0.0016536612
-0.42525767
0.0013071347
-0.48724226
0.00099773252
-0.55600428
0.00070665979
-0.63823134
0.00039373845
-0.72954492
0.000138878
-0.83638701
-0.9169052
0.014946871
-0.010615317
-0.015101201
0.014752183
-0.012521012
0.014512057
-0.014789371
0.014223172
-0.017486711
0.013884229
-0.020691611
0.013496354
-0.024493029
0.013063748
-0.028991425
0.012593767
-0.034301137
0.012095067
-0.040554449
0.011574617
-0.0479062
0.011037243
-0.056534157
0.010490683
-0.066631248
0.0099381223
-0.078421575
0.0093758058
-0.09214807
0.0087845921
-0.10806038
0.0081170514
-0.1261703
0.0072782614
-0.14609817
0.0062308658
-0.16695398
0.0052606499
-0.18943681
0.0045531047
-0.21669613
0.0039426958
-0.24842509
0.0033687236
-0.28478703
0.0028537633
-0.32574586
0.0023402546
-0.37263949
0.0019067965
-0.42483877
0.0015013902
-0.48684045
0.0011511073
-0.5556487
0.0008125385
-0.6378891
0.00045277847
-0.72918481
0.00015591171
-0.83607737
-0.916842
0.016369415
-0.010506455
-0.016478291
0.0162226
-0.012374213
0.016031637
-0.014598353
0.015791321
-0.017246201
0.01549748
-0.020397387
0.015147916
-0.024142897
0.01474341
-0.028586194
0.014288104
-0.033844972
0.01378847
-0.040053861
0.013251078
-0.047367815
0.012681482
-0.055963579
0.012087052
-0.066035929
0.011471199
-0.077805035
0.010829962
-0.091506549
0.010140665
-0.10737138
0.0093492005
-0.12537974
0.0083348634
-0.14508495
0.0071017789
-0.16572164
0.0060331305
-0.18836913
0.0052370701
-0.21590349
0.0045400547
-0.24773449
0.0038795899
-0.28413106
0.0032899451
-0.32515483
0.0026947445
-0.37204503
0.0021998995
-0.42436364
0.0017245838
-0.4863697
0.0013275467
-0.55523331
0.00093410608
-0.63748588
0.00052065242
-0.72877015
0.00017421039
-0.83571469
-0.916765
0.017810307
-0.010450922
-0.017865441
0.017723003
-0.01228653
0.01759585
-0.014470722
0.01742082
-0.017070651
0.017190652
-0.020166572
0.016899592
-0.023851033
0.016544411
-0.028230065
0.016125092
-0.033424591
0.015644578
-0.039572222
0.015107437
-0.046829555
0.014518588
-0.055373683
0.013884166
-0.065400616
0.013206832
-0.077127079
0.012481049
-0.090780609
0.011677243
-0.10656807
0.01073734
-0.12444101
0.0095096463
-0.14385868
0.0080692242
-0.16428228
0.0069173296
-0.18721852
0.0060197824
-0.21500987
0.0052247994
-0.24694691
0.0044669199
-0.28337866
0.0037918989
-0.32447832
0.0031048374
-0.371359
0.002539158
-0.42382212
0.0019809101
-0.48581682
0.0015310158
-0.5547433
0.0010737069
-0.63701068
0.00059850543
-0.72829235
0.0001936001
-0.83528802
-0.91667401
0.019284265
-0.010454588
-0.01928
0.019262857
-0.012264451
0.019207228
-0.014414327
0.019107931
-0.016970485
0.018955092
-0.020012747
0.018739448
-0.023634287
0.018453356
-0.027942778
0.018091737
-0.033061724
0.017652544
-0.039131788
0.017136341
-0.046312187
0.016545306
-0.054781627
0.015882725
-0.064737233
0.015148768
-0.07639265
0.014334105
-0.089965998
0.013400315
-0.10563505
0.012272929
-0.12331512
0.010781612
-0.14236918
0.009141252
-0.16264341
0.0079245329
-0.18600348
0.0069131658
-0.21400302
0.0060071009
-0.24604939
0.0051410727
-0.28251931
0.0043674676
-0.32370309
0.0035785117
-0.37057125
0.0029305271
-0.42320049
0.0022758758
-0.4851678
0.0017656372
-0.55416316
0.0012343995
-0.63645121
0.00068798614
-0.7277416
0.00021384791
-0.83478535
-0.91657117
0.020814116
-0.010515343
-0.020752659
0.020857965
-0.012307487
0.020875051
-0.014430478
0.020854962
-0.01694934
0.020786279
-0.0199429
0.020656905
-0.023503665
0.020454862
-0.02773944
0.020169526
-0.032775101
0.019792672
-0.038753719
0.019318851
-0.045837294
0.018744903
-0.054206809
0.01806876
-0.06406049
0.017285168
-0.075608842
0.016377024
-0.089058217
0.015290115
-0.10454927
0.013923232
-0.12195016
0.012127039
-0.14057532
0.010337222
-0.16085564
0.0090616032
-0.18473004
0.0079286598
-0.21287527
0.0068970208
-0.24502764
0.0059124871
-0.28154294
0.0050245923
-0.32281339
0.0041234784
-0.36967121
0.0033799086
-0.42248266
0.0026151594
-0.48440845
0.0020354482
-0.55347231
0.0014181718
-0.63579438
0.00079108039
-0.72710971
0.00023459314
-0.83419366
-0.91645966
0.022409171
-0.010626515
-0.022297192
0.022512446
-0.012409846
0.02259927
-0.014516278
0.022658074
-0.017007025
0.022675628
-0.019959268
0.022637404
-0.023464217
0.022527687
-0.027628506
0.022330734
-0.032576995
0.022031911
-0.038453872
0.021618428
-0.045422977
0.021079249
-0.05366704
0.020403656
-0.06338462
0.019576402
-0.07478175
0.018565602
-0.088048206
0.017286739
-0.10327199
0.015603047
-0.12026892
0.013518726
-0.13849398
0.011686655
-0.15902634
0.010336153
-0.18338236
0.0090746728
-0.21161975
0.0079035682
-0.243868
0.0067904285
-0.28043976
0.0057718145
-0.32179272
0.0047491193
-0.36864925
0.0038950853
-0.42165176
0.0030030576
-0.48352119
0.0023457417
-0.55265957
0.0016262809
-0.63502591
0.00090966756
-0.72638823
0.00026208362
-0.833505
-0.91602589
0.024092922
-0.01078737
-0.023931198
0.024250298
-0.01256624
0.024396185
-0.014661102
0.024522216
-0.017131988
0.024615604
-0.020051612
0.024660042
-0.023507629
0.024637421
-0.02760492
0.02452815
-0.032466874
0.024311638
-0.03823668
0.023966894
-0.04507777
0.023472539
-0.053172493
0.022804964
-0.062717212
0.021931849
-0.073909308
0.020795153
-0.08691284
0.019254355
-0.10173334
0.01717154
-0.11818921
0.014953537
-0.13627975
0.013205472
-0.15728193
0.011763473
-0.18194403
0.010354829
-0.21021788
0.0090274407
-0.2425539
0.0077828137
-0.27920722
0.0066147834
-0.32062224
0.0054646472
-0.36749946
0.0044848188
-0.42069303
0.0034491188
-0.48248926
0.0027011238
-0.55175414
0.0018618994
-0.63413388
0.0010450335
-0.72556468
0.00029041541
-0.83270384
-0.91589699
0.025786736
-0.010990789
-0.025582545
0.025993172
-0.012772006
0.026192283
-0.014859677
0.026373764
-0.01731298
0.026526726
-0.020204043
0.026636802
-0.023617192
0.026685854
-0.027653529
0.026651882
-0.032432568
0.026508926
-0.038093543
0.026227251
-0.044796113
0.025773032
-0.052718568
0.02510458
-0.062049481
0.024160493
-0.072966543
0.022836247
-0.085590549
0.020951643
-0.099851551
0.018575389
-0.11581692
0.016509087
-0.13421811
0.01485975
-0.15563725
0.013264708
-0.18035356
0.01177646
-0.20873745
0.010298301
-0.24109121
0.0088749623
-0.27779821
0.0075575106
-0.31930177
0.0062783273
-0.36622048
0.0051568187
-0.41959179
0.0039724655
-0.48130819
0.0031035985
-0.55077483
0.0021290821
-0.63310987
0.0011981191
-0.72461967
0.00031711215
-0.83177204
-0.91575831
0.027239437
-0.011207442
-0.027022137
0.027464891
-0.012996825
0.027693875
-0.015088068
0.027917578
-0.017536162
0.028121686
-0.020407736
0.028289353
-0.023784579
0.028400775
-0.027764833
0.028430629
-0.032462482
0.028345991
-0.038009157
0.028105918
-0.044556506
0.027660781
-0.052274195
0.02694446
-0.061334463
0.02585468
-0.071878861
0.024258872
-0.083997458
0.022172042
-0.097768506
0.020018307
-0.11366835
0.018160963
-0.13236648
0.016533433
-0.15401529
0.014959341
-0.17878497
0.013322505
-0.20710968
0.011681415
-0.23946793
0.010090744
-0.27622415
0.0086108075
-0.31781791
0.0071971679
-0.36480751
0.0059169723
-0.41833344
0.0045802527
-0.47997818
0.003560839
-0.5497044
0.0024315957
-0.63193338
0.0013705592
-0.72352243
0.00034168718
-0.83069265
-0.91561012
0.028218833
-0.011404953
-0.028021115
0.02841975
-0.013197601
0.028619788
-0.015288059
0.028816847
-0.017733289
0.029006517
-0.020597609
0.029174244
-0.02395267
0.029296357
-0.027887472
0.029339845
-0.032506622
0.029263176
-0.037933238
0.029009248
-0.044303402
0.028506704
-0.051772608
0.02767218
-0.060501428
0.026438039
-0.070647531
0.024821816
-0.082385479
0.023092099
-0.096044402
0.021540477
-0.1121237
0.020029855
-0.13086285
0.018409793
-0.15240139
0.016678997
-0.17706035
0.01493452
-0.20537561
0.013177883
-0.2377319
0.011437406
-0.27450237
0.0097793667
-0.31615423
0.0082250625
-0.36325554
0.0067705815
-0.41690607
0.0052690638
-0.47849195
0.0040782586
-0.54852082
0.0027737191
-0.63057178
0.0015634995
-0.72223889
0.0003626477
-0.82944734
-0.91545256
0.027740067
-0.011617538
-0.027527772
0.027955706
-0.0134137
0.028163878
-0.015496868
0.028348991
-0.01791921
0.028494739
-0.020744279
0.028591742
-0.024050616
0.028632748
-0.027929348
0.028607937
-0.0324825
0.028504731
-0.037830591
0.028266958
-0.044066154
0.027835223
-0.051341365
0.027188392
-0.059855826
0.026333472
-0.069795511
0.02535595
-0.081413233
0.024348074
-0.095044123
0.023192043
-0.11097665
0.021764249
-0.12944346
0.020153691
-0.15079727
0.018448674
-0.17536174
0.016616036
-0.20355515
0.014750871
-0.23589071
0.012871227
-0.27264223
0.011047226
-0.31432171
0.0093488835
-0.36156335
0.0077205551
-0.41531508
0.0060459329
-0.4768455
0.0046617004
-0.54717747
0.0031583277
-0.62899992
0.0017776269
-0.72073958
0.00037756686
-0.82800907
-0.91529288
0.025703023
-0.011894887
-0.025426683
0.026008915
-0.0137208
0.026343532
-0.015832939
0.026700838
-0.018278291
0.027064422
-0.021110029
0.027406229
-0.024395016
0.027677318
-0.028203503
0.027809321
-0.032618163
0.027758929
-0.037784317
0.02757048
-0.043882182
0.027324831
-0.051100917
0.027098475
-0.059634528
0.026761108
-0.069461234
0.026229202
-0.080884015
0.025480127
-0.09430077
0.02448586
-0.10999038
0.023271579
-0.12823796
0.021796671
-0.14932887
0.020088763
-0.17366049
0.018258964
-0.20174027
0.016312944
-0.2339726
0.014350002
-0.27069736
0.012438039
-0.31239627
0.010568246
-0.35970559
0.0087605892
-0.413561
0.0069131405
-0.47504401
0.0053144929
-0.54563122
0.0035908355
-0.62722565
0.0020147969
-0.71899406
0.00038311861
-0.82634194
-0.9151406
0.023025813
-0.012126972
-0.022794852
0.023284383
-0.013980641
0.023573414
-0.016123418
0.023894926
-0.018601396
0.024254083
-0.021471005
0.024657058
-0.02480012
0.025116967
-0.028665922
0.025655253
-0.033159384
0.026201225
-0.038333956
0.026654809
-0.044340862
0.026853101
-0.051306039
0.026748668
-0.059540032
0.026664644
-0.069387967
0.026481024
-0.080708036
0.026022828
-0.093848093
0.025271018
-0.10924324
0.02421999
-0.12719258
0.022941946
-0.14805775
0.021469859
-0.17219712
0.019747699
-0.20003748
0.017847281
-0.23210454
0.015880688
-0.26874373
0.013866578
-0.310361
0.011858644
-0.35771559
0.0098497245
-0.41162503
0.0078667307
-0.47312753
0.0060358834
-0.54386906
0.0040704864
-0.62526956
0.0022749641
-0.71699944
0.00037096186
-0.82440734
-0.91500463
0.022596025
-0.012332685
-0.022390689
0.0228226
-0.014207662
0.023070689
-0.016372033
0.023340807
-0.018872146
0.02363146
-0.021762445
0.023937242
-0.02510692
0.02425101
-0.028981054
0.024559934
-0.033470182
0.024883414
-0.038659796
0.025207357
-0.044667017
0.025559479
-0.051659528
0.025767672
-0.05974878
0.025631426
-0.069256825
0.025554845
-0.08064383
0.025595223
-0.093901994
0.025324312
-0.10898148
0.024656623
-0.12653094
0.023700014
-0.14711119
0.022477438
-0.17098938
0.020999771
-0.1985859
0.019202815
-0.23034256
0.017269392
-0.26681207
0.015325349
-0.30838766
0.013224656
-0.35563786
0.011038442
-0.40952364
0.0089044461
-0.4710707
0.0068252644
-0.54188626
0.0046096982
-0.62313999
0.0025658289
-0.71480002
0.00034828938
-0.82216931
-0.91381872
0.021808385
-0.012542848
-0.021597336
0.022044493
-0.014442844
0.022307146
-0.016633766
0.022596976
-0.019161124
0.022913096
-0.02207787
0.023252396
-0.025445802
0.023608393
-0.029337053
0.023974116
-0.033836459
0.024362083
-0.039048968
0.024793067
-0.045100014
0.025258011
-0.052127813
0.025766623
-0.060261294
0.026085924
-0.069578883
0.02587965
-0.080443778
0.025330435
-0.093367756
0.025023958
-0.10869535
0.024743907
-0.12626779
0.024138518
-0.1465227
0.023222336
-0.17009488
0.021976527
-0.19737035
0.02040459
-0.22879789
0.018639222
-0.26502967
0.016685672
-0.30640493
0.014555058
-0.35354247
0.012313664
-0.40736798
0.0099644089
-0.46879539
0.0076674156
-0.53970945
0.0052332389
-0.62084857
0.0029130807
-0.71245178
0.00043632009
-0.81968399
-0.91373824
0.021308127
-0.012733487
-0.021119073
0.021520687
-0.014657304
0.021759077
-0.01687444
0.022025857
-0.019430632
0.02232383
-0.022379082
0.022655858
-0.025781659
0.023024625
-0.029710345
0.023431536
-0.034248782
0.023869692
-0.039493805
0.024319715
-0.045558636
0.02475721
-0.05257659
0.025194043
-0.060713278
0.025774619
-0.070179149
0.026390826
-0.081079688
0.026525343
-0.09351875
0.025944446
-0.10813524
0.025257117
-0.1256113
0.024709704
-0.14600692
0.023954176
-0.16936661
0.022854654
-0.1962882
0.02137101
-0.22730736
0.019720486
-0.26333704
0.018007721
-0.30468231
0.015875943
-0.35147532
0.01350473
-0.40508381
0.011065179
-0.46642005
0.0085552985
-0.53733918
0.0059399614
-0.61838513
0.0033151545
-0.70991794
0.00039696794
-0.81678165
-0.91368101
0.020377583
-0.012920624
-0.020196779
0.02058194
-0.014868944
0.020812205
-0.017113045
0.021070548
-0.01969849
0.021358611
-0.022677955
0.021676978
-0.026112253
0.022024827
-0.030071955
0.022400405
-0.034639764
0.02280228
-0.039912834
0.023230092
-0.046005496
0.023685059
-0.053052868
0.024163039
-0.061214686
0.024626853
-0.070668456
0.025131351
-0.081611666
0.025846418
-0.094263328
0.026414321
-0.10872792
0.026195787
-0.12540582
0.025280314
-0.14509396
0.024335693
-0.16841361
0.023424004
-0.19535064
0.022298414
-0.22612161
0.02082262
-0.26180481
0.019104528
-0.30299068
0.017027792
-0.34950035
0.014719698
-0.40286733
0.012121877
-0.46385758
0.009408061
-0.5347033
0.0066471007
-0.61569285
0.0036818353
-0.70707836
0.00025135516
-0.81342779
-0.91207056
0.019349257
-0.013084173
-0.019187113
0.019532827
-0.015054013
0.019739926
-0.017321722
0.019972459
-0.019932722
0.020232242
-0.022939555
0.020521159
-0.026403077
0.020841082
-0.030393828
0.021192958
-0.034993543
0.021575328
-0.040296896
0.021982145
-0.046413506
0.022400025
-0.053470687
0.022805399
-0.06161862
0.023163322
-0.071022424
0.02346831
-0.081909029
0.023804298
-0.094586684
0.024451673
-0.10936183
0.025282511
-0.1262236
0.025563731
-0.1453377
0.024859409
-0.16764985
0.023800865
-0.19423284
0.022746015
-0.22500292
0.021642693
-0.26067794
0.020202281
-0.30159868
0.01814633
-0.34752595
0.015697288
-0.40047862
0.013124222
-0.4613078
0.010244844
-0.53183204
0.0072661168
-0.61269111
0.0040515329
-0.7038798
0.00071367631
-0.81015266
-0.91214683
0.018438162
-0.013237178
-0.018278402
0.018619443
-0.015227543
0.018824659
-0.017518034
0.019056402
-0.020154193
0.019317343
-0.023188643
0.019610073
-0.026682131
0.019936883
-0.030704854
0.020299613
-0.035338045
0.020699559
-0.040675774
0.021137361
-0.046826928
0.021612249
-0.053917475
0.022121329
-0.062094983
0.022671085
-0.071534481
0.023231305
-0.082426649
0.023663072
-0.09497157
0.023790821
-0.10943966
0.023872659
-0.12625934
0.024470369
-0.14591222
0.0249861
-0.16816487
0.024527984
-0.19378104
0.023481265
-0.22397865
0.022276373
-0.25952745
0.020857445
-0.30025401
0.018908147
-0.34561327
0.016488263
-0.3980478
0.013871228
-0.45870552
0.01095669
-0.52898077
0.0078268227
-0.60954618
0.0044600125
-0.70040485
0.00047447436
-0.80602747
-0.90999077
0.016832778
-0.0133623
-0.016703089
0.016980322
-0.015369824
0.017148001
-0.017679656
0.017338367
-0.020337581
0.017554208
-0.023396451
0.01779856
-0.026917251
0.018074632
-0.030970348
0.018385544
-0.035636903
0.018733797
-0.041010404
0.019120336
-0.047198279
0.019542411
-0.054322999
0.019984948
-0.062520177
0.020427729
-0.071960137
0.020859351
-0.082842641
0.021319455
-0.095419192
0.021828928
-0.10994181
0.022251207
-0.12667993
0.022393372
-0.14606677
0.022739882
-0.16854619
0.023204528
-0.19429302
0.023147399
-0.22400809
0.022086844
-0.25860983
0.020682535
-0.29893112
0.018985523
-0.34394855
0.016746951
-0.39579799
0.014387382
-0.45635293
0.01143655
-0.52601783
0.0082571981
-0.60632214
0.0049099675
-0.69700543
0.0012215355
-0.80225941
-0.90976631
0.015604456
-0.013479328
-0.015487433
0.015737353
-0.01550267
0.015887821
-0.017829992
0.016057498
-0.020506996
0.016247833
-0.023586329
0.016459905
-0.027128583
0.016694197
-0.031203503
0.016950526
-0.035891543
0.017228443
-0.041285886
0.017527973
-0.047494392
0.017850991
-0.054641353
0.018208395
-0.062871414
0.018604877
-0.072348771
0.019032052
-0.083260326
0.019438689
-0.095814919
0.019795595
-0.11028696
0.020063236
-0.12693628
0.020109711
-0.14610468
0.019974895
-0.16842698
0.020057696
-0.19440251
0.020285085
-0.22425144
0.020229492
-0.25860514
0.019338256
-0.29816971
0.018148416
-0.34292982
0.016296249
-0.39413884
0.014168592
-0.45437439
0.011588154
-0.52344315
0.0085925386
-0.60326273
0.0050441579
-0.69341347
0.00045424602
-0.79750916
-0.90857509
0.01391023
-0.013569055
-0.013823777
0.014008816
-0.015604971
0.014121116
-0.017946494
0.014248895
-0.020639501
0.01439413
-0.023736844
0.014559075
-0.027299378
0.014746361
-0.031397202
0.014959053
-0.036111174
0.015200417
-0.041534597
0.01547307
-0.047774598
0.015777881
-0.054953684
0.016110311
-0.063211069
0.016460522
-0.072705621
0.016814766
-0.083620172
0.017164545
-0.096168267
0.017486366
-0.11060736
0.017847895
-0.12728766
0.018348404
-0.14658942
0.018774995
-0.16884973
0.018856832
-0.19447421
0.018460059
-0.22386561
0.017777348
-0.25791755
0.017265359
-0.29767978
0.016411287
-0.34214259
0.014970253
-0.39280457
0.013381188
-0.45284423
0.011201611
-0.5212023
0.0086615937
-0.60062649
0.0056146804
-0.69023364
0.0021006632
-0.79410134
-0.90776785
0.013389981
-0.013645836
-0.013317379
0.013472789
-0.015692733
0.013566861
-0.018046477
0.013673192
-0.020752936
0.013792575
-0.023864826
0.013925553
-0.027442816
0.014072374
-0.031556774
0.014232476
-0.036286796
0.014403514
-0.041724508
0.014581612
-0.047975498
0.01476314
-0.055162471
0.014948505
-0.06342852
0.015144501
-0.072938501
0.015367967
-0.083884747
0.015647766
-0.096492271
0.015996425
-0.11100316
0.016326262
-0.1276697
0.016485125
-0.14680442
0.016357731
-0.1687547
0.015970557
-0.19412863
0.015578242
-0.22351352
0.015185949
-0.25752517
0.014741688
-0.2971742
0.014107877
-0.34143914
0.0130189
-0.39161676
0.011578151
-0.45127454
0.009956125
-0.5194501
0.0079369416
-0.59841722
0.0060413593
-0.68816182
0.0039958911
-0.79230267
-0.90669332
0.011407951
-0.013678223
-0.011377067
0.011442709
-0.015729688
0.01148182
-0.018088789
0.011525806
-0.020801537
0.011575374
-0.023920915
0.011631547
-0.027507884
0.011695849
-0.031632664
0.011770973
-0.036376165
0.011861661
-0.041831469
0.011974396
-0.048105526
0.012115398
-0.055321257
0.01228911
-0.063620389
0.012497052
-0.073165194
0.012732882
-0.084140471
0.012976774
-0.09675878
0.013211951
-0.11126613
0.01345076
-0.12794186
0.013721942
-0.14711084
0.01404114
-0.16910305
0.014219124
-0.19432874
0.014035956
-0.22333763
0.01350005
-0.25696273
0.01270225
-0.29635192
0.011872237
-0.34063349
0.010875385
-0.39069905
0.0095691712
-0.45005362
0.0081850194
-0.51805244
0.0065486746
-0.59651961
0.0049388178
-0.6862287
0.0037014184
-0.79096952
-0.90652854
0.010502532
-0.013685673
-0.010492718
0.010513179
-0.015737603
0.010524593
-0.018097082
0.010536722
-0.020810154
0.010549498
-0.023929816
0.01056283
-0.027517045
0.010576544
-0.031641985
0.010590238
-0.036385328
0.010603224
-0.04183984
0.010614658
-0.048112141
0.010623762
-0.055324858
0.010629442
-0.063619233
0.01063094
-0.073157919
0.010629892
-0.084128616
0.010631498
-0.096748098
0.010645034
-0.11126703
0.010683445
-0.12796802
0.010768371
-0.14718189
0.010943643
-0.16925706
0.011262849
-0.19461252
0.011770999
-0.22379186
0.012077456
-0.25719827
0.011768733
-0.29598001
0.011282231
-0.34018206
0.010506497
-0.39008724
0.0090901869
-0.44881608
0.0076413297
-0.51671768
0.0056356127
-0.59450273
0.0041331075
-0.68446331
0.0020120231
-0.78843608
-0.90526269
0.0074375014
-0.007470843
0.0073992886
0.0073554629
0.0073055719
0.0072491696
0.0071857643
0.007114754
0.0070354213
0.0069469494
0.0068484814
0.0067390712
0.006617413
0.0064815872
0.0063283621
0.0061520093
0.0059430471
0.0056927733
0.0053874157
0.0050397589
0.0046762333
0.004272469
0.0039667369
0.0033898545
0.0029055817
0.0034354053
0.0038806125
0.0039415649
0.0037238976
0.0026271796
4.7647521e-05
0.0019027197
-0.0019188213
0.0012572103
-0.0012411684
0.0031793126
-0.0042398623
0.0029632085
0.0051927558
-0.0085083649
0.0064948521
0.0072800964
-0.01416925
0.012081837
0.008795255
-0.019733684
0.018218459
0.0097273046
-0.025000409
0.024068297
0.01031297
-0.030407386
0.029821669
0.010731479
-0.036379922
0.035961375
0.011069865
-0.0431995
0.042861089
0.011359843
-0.051072514
0.050782525
0.011610867
-0.060193007
0.059941982
0.011824264
-0.070775021
0.070561625
0.011997467
-0.083059249
0.082886039
0.012126358
-0.097319321
0.09719043
0.012203937
-0.11386225
0.11378473
0.012220968
-0.13298874
0.13297184
0.01215514
-0.15502865
0.15509471
0.011963399
-0.17988921
0.18008152
0.011580246
-0.20732126
0.20770469
0.010916863
-0.23574168
0.23640402
0.010108684
-0.26429603
0.26510301
0.009366536
-0.29778499
0.2985276
0.008634543
-0.33757618
0.33830924
0.007850836
-0.38363536
0.38441858
0.0070054561
-0.43495369
0.43579754
0.006102783
-0.49552838
0.49642793
0.005115412
-0.56368812
0.56466662
0.0040257655
-0.64559144
0.64666858
0.0028023778
-0.7374321
0.73865283
0.0014462438
-0.84181952
0.84320925
-0.91810227
0.91947037
0.0025621795
-0.0028792832
-0.0016017664
0.0042463806
-0.0059241053
0.0063948247
-0.010656852
0.0081104119
-0.015884886
0.0091676259
-0.020790948
0.0098027645
-0.025635594
0.010241354
-0.030846012
0.010592327
-0.03673092
0.010895564
-0.043502749
0.011162751
-0.051339702
0.011396378
-0.060426624
0.011595028
-0.070973664
0.011755246
-0.083219467
0.011872646
-0.097436714
0.011940079
-0.11392962
0.01194804
-0.13299656
0.011872234
-0.1549526
0.011672562
-0.17968898
0.011283169
-0.20693163
0.01061658
-0.23507617
0.0098225563
-0.26350323
0.0091019401
-0.29706389
0.008388332
-0.3368615
0.0076239307
-0.38287148
0.0068001874
-0.43413144
0.0059219122
-0.49465318
0.0049616065
-0.56273683
0.0039023758
-0.6445443
0.0027139952
-0.73624583
0.0014000356
-0.84047009
-0.91671858
0.003335375
-0.0041602451
-0.0020544588
0.0052613353
-0.0078501034
0.0071516593
-0.012547214
0.0084249935
-0.017158261
0.0091982742
-0.021564268
0.0097035262
-0.026140879
0.010084664
-0.031227171
0.01040548
-0.037051744
0.01068847
-0.043785737
0.01093962
-0.05159084
0.011159459
-0.060646444
0.011345669
-0.071159859
0.011494562
-0.083368354
0.01160179
-0.097543928
0.011660213
-0.11398797
0.01166012
-0.13299632
0.011575406
-0.15486762
0.011369816
-0.17948284
0.010975921
-0.20653754
0.010307965
-0.23440934
0.0095297243
-0.26272622
0.0088307801
-0.29636445
0.0081356731
-0.33616531
0.0073910094
-0.38212735
0.0065893738
-0.43333127
0.0057360171
-0.49380284
0.004803443
-0.56181341
0.0037753999
-0.64352792
0.0026229397
-0.735095
0.0013524189
-0.83916403
-0.91538339
0.0042808504
-0.0057764187
-0.0026647218
0.0061971857
-0.0097664721
0.0076796138
-0.014029674
0.0085943637
-0.018073045
0.0091643676
-0.022134301
0.0095722647
-0.026548795
0.0099065693
-0.031561481
0.010200966
-0.037346134
0.010465473
-0.044050228
0.01070169
-0.051827032
0.010908434
-0.060853158
0.011082695
-0.071334096
0.011220674
-0.08350632
0.011318099
-0.097641332
0.011367843
-0.11403763
0.011359948
-0.13298828
0.011266856
-0.15477426
0.011056465
-0.17927191
0.010658428
-0.20613931
0.0099899783
-0.23374206
0.0092289505
-0.26196645
0.0085518483
-0.29568683
0.0078755244
-0.3354879
0.0071511933
-0.38140358
0.0063723758
-0.43255388
0.0055447385
-0.49297813
0.0046407743
-0.56091875
0.0036448942
-0.64254323
0.0025293922
-0.73398071
0.0013035056
-0.83790442
-0.91409809
0.0052914883
-0.007574989
-0.003492956
0.0069032145
-0.011378221
0.0079620432
-0.015088527
0.0086123733
-0.018723399
0.009053933
-0.022575878
0.0094019545
-0.02689682
0.0097049211
-0.031864435
0.0099789734
-0.037620163
0.010227559
-0.044298783
0.010450116
-0.052049552
0.01064444
-0.061047442
0.010807174
-0.071496798
0.01093457
-0.083633695
0.011022475
-0.097729212
0.011063779
-0.11407886
0.011048278
-0.13297262
0.010947592
-0.15467329
0.010733118
-0.17905688
0.010330745
-0.20573678
0.0096629407
-0.23307547
0.0089205728
-0.26122536
0.0082654967
-0.29503124
0.0076083012
-0.3348296
0.0069048883
-0.38070075
0.0061495569
-0.43179992
0.0053483726
-0.4921798
0.0044738251
-0.56005366
0.0035110112
-0.64159115
0.002433464
-0.73290403
0.0012533413
-0.83669324
-0.91286407
0.0061323444
-0.0092128575
-0.0044945015
0.0073209611
-0.012566853
0.008055627
-0.01582321
0.0085346648
-0.019202451
0.0088960958
-0.022937312
0.009204515
-0.027205226
0.0094840532
-0.032143943
0.0097410878
-0.037877156
0.009975449
-0.044533099
0.0101853
-0.052259354
0.010367766
-0.061229856
0.010519359
-0.071648351
0.01063649
-0.083750798
0.010715149
-0.097807839
0.010748266
-0.11411189
0.010725437
-0.13294964
0.010617932
-0.1545655
0.010400037
-0.17883843
0.0099932962
-0.2053299
0.0093272609
-0.23241069
0.0086049424
-0.26050435
0.0079719888
-0.29439775
0.007334265
-0.33419077
0.0066523311
-0.3800194
0.0059211281
-0.43107003
0.0051471013
-0.49140854
0.0043027562
-0.55921892
0.0033738896
-0.64067254
0.0023352532
-0.731866
0.0012019616
-0.83553263
-0.91168242
0.0066866579
-0.010459355
-0.0054401846
0.0074967029
-0.013376911
0.0080164915
-0.016343007
0.0083918851
-0.019577846
0.0087034852
-0.023248899
0.0089846616
-0.02748637
0.0092459365
-0.032405169
0.0094883314
-0.038119492
0.0097097938
-0.044754499
0.009907691
-0.052457188
0.010078769
-0.061400872
0.010219573
-0.071789104
0.010326747
-0.083857936
0.010396437
-0.097877493
0.010421639