/*--------------------------------*- C++ -*----------------------------------*\
| =========                 |                                                 |
| \\      /  F ield         | OpenFOAM: The Open Source CFD Toolbox           |
|  \\    /   O peration     | Version:  2406                                  |
|   \\  /    A nd           | Website:  www.openfoam.com                      |
|    \\/     M anipulation  |                                                 |
\*---------------------------------------------------------------------------*/
FoamFile
{
    version     2.0;
    format      ascii;
    arch        "LSB;label=32;scalar=64";
    class       surfaceScalarField;
    location    "0.01";
    object      phi;
}
// * * * * * * * * * * * * * * * * * * * * * * * * * * * * * * * * * * * * * //

dimensions      [1 0 -1 0 0 0 0];

oriented        oriented;

internalField   nonuniform List<scalar> 
4031
(
0.00024529246
0.70034077
5.9676069e-05
0.78111865
0.86472
0.00028672443
0.080903175
0.00063863615
0.092682766
0.00095223898
0.10589239
0.0012177969
0.12071579
0.0014306312
0.1373879
0.0015901401
0.15619503
0.0016983745
0.17746541
0.0017596623
0.20158589
0.0017789756
0.22901164
0.0017620051
0.26022578
0.0017138907
0.29578335
0.0016365707
0.33628748
0.0015321962
0.38229177
0.0013983766
0.43429426
0.0012180347
0.49265228
0.00096256553
0.55694263
0.00061234108
0.62541097
0.00026251846
0.7007146
6.4703185e-05
0.78135257
0.86482276
-0.0020832787
0.0150685
0.0020560459
-0.0020905535
0.017825592
-0.0020757621
0.020945534
-0.0020255706
0.024522349
-0.0019279161
0.028651881
-0.0017731443
0.033425096
-0.0015566591
0.038930589
-0.0012806612
0.045254066
-0.00095281913
0.052482958
-0.00058600242
0.06070669
-0.0001976441
0.070016642
0.00019227786
0.08051195
0.00056428776
0.092309296
0.00090193694
0.1055531
0.0011930748
0.12042283
0.0014308777
0.13714806
0.0016132851
0.15601038
0.0017412529
0.17733498
0.0018184381
0.201506
0.0018504333
0.22897674
0.0018416418
0.26023143
0.0017973159
0.29582433
0.0017217655
0.33635987
0.0016163453
0.38239505
0.0014783397
0.4344322
0.0012903122
0.49284397
0.0010236615
0.55722297
0.00065436881
0.6258047
0.00028094023
0.70111227
7.0269244e-05
0.78160342
0.86493812
-0.0022225082
0.015086696
0.0022039837
-0.0022202028
0.017822919
-0.002193942
0.020918858
-0.0021367506
0.024464682
-0.0020374165
0.028552
-0.0018857261
0.033272776
-0.0016754053
0.038719542
-0.0014059605
0.044983786
-0.001082372
0.052158412
-0.00071516084
0.060338385
-0.00032007518
0.069620315
8.3506896e-05
0.080106967
0.00047541521
0.091915818
0.00083750837
0.10518925
0.0011553484
0.12010302
0.0014198561
0.13688137
0.0016272449
0.15580058
0.0017771635
0.1771824
0.0018724135
0.20140783
0.0019183566
0.22892766
0.0019192881
0.26022711
0.0018809018
0.29585913
0.0018082286
0.33642919
0.0017025576
0.38249851
0.0015607912
0.43457402
0.0013652927
0.49304371
0.0010876785
0.55751608
0.00069887989
0.62622143
0.00030063349
0.70153526
7.634214e-05
0.78187172
0.86506886
-0.0024167704
0.015088938
0.0024141966
-0.0023976967
0.017803472
-0.0023564335
0.020877164
-0.0022872845
0.024395034
-0.0021805106
0.028444649
-0.0020262145
0.033117811
-0.0018170609
0.038509613
-0.0015503786
0.044716209
-0.00122863
0.051835634
-0.00085987444
0.059968451
-0.00045787097
0.069216971
-4.0899474e-05
0.079688483
0.00037073216
0.091502487
0.00075757717
0.1048005
0.0011031149
0.11975536
0.0013959855
0.13658614
0.0016304413
0.15556351
0.0018046128
0.17700535
0.0019202453
0.20128902
0.0019822432
0.22886224
0.0019947048
0.26021097
0.001963856
0.29588613
0.0018953607
0.33649408
0.0017903943
0.38260115
0.0016453824
0.43471916
0.0014427589
0.49325121
0.0011545729
0.55782152
0.00074592345
0.62666105
0.00032165637
0.70198542
8.2910443e-05
0.78215811
0.86521743
-0.0026571136
0.01507663
0.0026690845
-0.0026219516
0.017767919
-0.0025644475
0.020819204
-0.0024800774
0.024310134
-0.0023611845
0.028325139
-0.0021989619
0.03295487
-0.0019858078
0.038295625
-0.0017175569
0.044446991
-0.0013945358
0.051511497
-0.0010224245
0.059595062
-0.00061277844
0.06880587
-0.00018235887
0.079256418
0.00024891401
0.091069365
0.00066075044
0.1043866
0.0010348534
0.11937895
0.0013576269
0.1362608
0.0016211991
0.15529709
0.0018219737
0.17680144
0.0019604341
0.20114712
0.002040822
0.22877814
0.002066807
0.26018098
0.0020452091
0.29590357
0.0019824081
0.33655301
0.001879257
0.38270182
0.0017315879
0.43486699
0.0015223538
0.49346587
0.0012242458
0.55813856
0.00079554627
0.62712349
0.00034406813
0.70246457
8.9881918e-05
0.78246341
0.86538547
-0.0029669594
0.015036654
0.0030065882
-0.0029060964
0.017706642
-0.0028251524
0.020737774
-0.0027198666
0.02420428
-0.0025834674
0.028188075
-0.0024078834
0.032778509
-0.0021854544
0.038072288
-0.0019109817
0.044171464
-0.0015830576
0.051182357
-0.0012051795
0.059215789
-0.00078664265
0.068385744
-0.00034236365
0.078810341
0.00010861207
0.09061637
0.00054563847
0.10394731
0.00094903229
0.11897303
0.001303107
0.13590392
0.0015977657
0.15499934
0.0018275046
0.17656828
0.0019913335
0.20097954
0.0020926455
0.22867278
0.0021358319
0.26013345
0.002125593
0.29590933
0.0020684993
0.33660594
0.0019684313
0.38279923
0.0018188074
0.43501683
0.0016037065
0.49368671
0.0012965702
0.55846632
0.00084776392
0.62760879
0.00036792401
0.70297459
9.7145395e-05
0.78278864
0.86557397
-0.0033213801
0.014977263
0.0033803892
-0.003238717
0.017623526
-0.0031343649
0.02063289
-0.0030060891
0.024075382
-0.0028487146
0.028029971
-0.0026553622
0.032584301
-0.0024188642
0.037834792
-0.0021335885
0.043885029
-0.0017968933
0.050844324
-0.0014104199
0.058827782
-0.00098129753
0.067954878
-0.00052239204
0.078349464
-5.148803e-05
0.090143251
0.00041090717
0.10348244
0.00084416394
0.11853701
0.0012307523
0.13551427
0.0015583369
0.15466837
0.0018193605
0.17630354
0.0020111586
0.20078367
0.00213603
0.22854352
0.0021982706
0.26006653
0.002201403
0.29590138
0.0021525397
0.33665035
0.0020570463
0.3828919
0.0019064524
0.43516771
0.0016865809
0.49391236
0.0013713915
0.55880379
0.00090255587
0.62811691
0.00039327721
0.70351708
0.00010459843
0.78313498
0.86578342
-0.0037368123
0.01488875
0.0038248906
-0.0036261157
0.017512319
-0.0034942809
0.020500457
-0.0033395404
0.02391994
-0.0031576178
0.027847227
-0.0029425517
0.032368276
-0.0026877305
0.037578856
-0.0023874185
0.043583428
-0.0020381577
0.050493579
-0.0016400895
0.058428019
-0.0011983567
0.067511221
-0.0007237886
0.077872726
-0.00023260263
0.089649631
0.00025531791
0.1029918
0.00071884776
0.11807046
0.0011389383
0.13509083
0.0015011008
0.15430251
0.0017956298
0.17600495
0.0020179916
0.20055688
0.0021691395
0.22838761
0.0022524406
0.25997817
0.0022711274
0.29587755
0.0022332574
0.33668348
0.0021440638
0.38297811
0.0019939837
0.43531822
0.0017708713
0.49414132
0.0014484788
0.55915005
0.00095985554
0.62864763
0.00042018806
0.70409343
0.00011212909
0.78350382
0.86601367
-0.0041937653
0.014775791
0.0043062009
-0.0040568189
0.017374767
-0.0038977573
0.020340692
-0.0037157672
0.023737134
-0.0035075931
0.027638107
-0.0032682791
0.032127867
-0.0029919641
0.037301277
-0.0026731428
0.043263155
-0.0023079466
0.050126725
-0.0018954136
0.058013601
-0.0014389973
0.067052674
-0.00094761379
0.077378947
-0.00043571936
0.089135057
7.7812326e-05
0.10247528
0.00057183345
0.11757313
0.0010261504
0.13463285
0.0014242827
0.15390035
0.0017543593
0.17567047
0.0020098216
0.20029662
0.0021900161
0.22820227
0.0022972
0.25986555
0.0023338339
0.29583542
0.0023091787
0.33670312
0.0022282988
0.38305586
0.0020808615
0.43546631
0.0018564604
0.49437231
0.0015275131
0.55950441
0.0010195312
0.62920049
0.00044872336
0.70470476
0.0001197251
0.78389665
0.86626397
-0.0046827436
0.014639932
0.0048179452
-0.004521543
0.017212818
-0.0043367565
0.02015505
-0.00412823
0.02352763
-0.0038936495
0.02740241
-0.00362905
0.031861994
-0.003329414
0.03700019
-0.0029897057
0.042921798
-0.002605995
0.049741147
-0.0021766237
0.057582123
-0.0017037217
0.066577406
-0.0011944585
0.076867038
-0.0006614859
0.088599136
-0.00012237886
0.1019329
0.00040211189
0.11704501
0.00089104598
0.13413992
0.0013262131
0.15346081
0.0016936209
0.17529829
0.0019845721
0.2000005
0.0021965826
0.22798474
0.0023306423
0.25972567
0.0023904226
0.29576982
0.0023817654
0.3367065
0.0023084051
0.38312599
0.0021657082
0.43561007
0.0019423419
0.49460348
0.0016080641
0.55986561
0.001081374
0.62977473
0.00047895953
0.70535186
0.00012745162
0.78431506
0.86653307
-0.0051947262
0.014483036
0.0053508039
-0.005011139
0.01702831
-0.0048024115
0.019945281
-0.0045688239
0.023292867
-0.0043087853
0.027141047
-0.0040191744
0.031570891
-0.0036957734
0.036675112
-0.0033341067
0.042558248
-0.0029304177
0.049335348
-0.0024826795
0.057132026
-0.0019920502
0.066084147
-0.0014641962
0.076336261
-0.00091000641
0.088041707
-0.00034560194
0.10136491
0.00020900277
0.11648646
0.00073254601
0.13361205
0.0012053957
0.15298323
0.001611565
0.17488698
0.0019401569
0.19966636
0.0021866486
0.22773234
0.0023505652
0.25955558
0.0024361274
0.29567811
0.0024460883
0.33669105
0.0023828631
0.38318595
0.0022471331
0.43574752
0.0020274923
0.49483198
0.0016895989
0.56023184
0.001145071
0.63036938
0.00051097731
0.70603503
0.00013550822
0.78476068
0.86681965
-0.0057140717
0.014309225
0.0058868618
-0.0055117391
0.016824842
-0.0052823186
0.019714594
-0.0050265093
0.023035647
-0.0047433535
0.026856322
-0.0044304734
0.031256266
-0.0040843896
0.03632709
-0.0037011945
0.042172902
-0.0032774424
0.048909211
-0.0028109786
0.056662922
-0.002302263
0.065572513
-0.0017557095
0.075786487
-0.0011806312
0.087463081
-0.00059162541
0.10077201
-7.6904501e-06
0.11589825
0.0005499298
0.13304975
0.0010605949
0.15246748
0.0015064952
0.17443558
0.001874528
0.19929242
0.0021579636
0.22744264
0.002354578
0.25935244
0.0024671263
0.29555912
0.0024982597
0.33665424
0.0024501954
0.38323085
0.0023241093
0.43587551
0.0021106832
0.49505514
0.0017711991
0.56060097
0.0012101885
0.63098298
0.00054486207
0.70675394
0.00014423398
0.78523506
0.86712296
-0.0062213865
0.014124368
0.0064050116
-0.006005773
0.016607869
-0.0057606598
0.019467978
-0.00548715
0.022760476
-0.0051848767
0.026552216
-0.0048521393
0.030921511
-0.0044861471
0.035958877
-0.004083543
0.041767855
-0.0036412326
0.048464217
-0.0031570929
0.056175838
-0.0026310979
0.065043289
-0.002066659
0.075218511
-0.0014717614
0.086864311
-0.00085948689
0.1001555
-0.0002476351
0.11528178
0.00034295173
0.13245414
0.00089094071
0.15191405
0.0013769573
0.1739437
0.0017857601
0.19887734
0.0021082798
0.2271135
0.0023403122
0.25911357
0.0024829327
0.2954098
0.0025380129
0.33659334
0.0025093363
0.3832566
0.0023962782
0.43599057
0.0021902368
0.49527171
0.0018515549
0.56097062
0.0012761711
0.63161331
0.00058070515
0.70750743
0.00015403236
0.78573966
0.86744314
-0.0066957502
0.013935373
0.0068833259
-0.0064737245
0.016384279
-0.0062195113
0.019212038
-0.0059344624
0.022473526
-0.005618724
0.026234388
-0.0052712163
0.030571712
-0.0048897925
0.035574945
-0.0044716186
0.04134694
-0.0040139321
0.048003539
-0.0035147214
0.055673365
-0.0029736658
0.064498679
-0.0023934105
0.074634386
-0.0017807625
0.086247454
-0.0011473663
0.099517526
-0.00050972872
0.11463917
0.00011195577
0.13182707
0.00069603066
0.15132417
0.0012218342
0.17341168
0.0016721258
0.19842042
0.0020354279
0.22674323
0.0023053639
0.25883648
0.0024810964
0.29522714
0.0025627447
0.33650576
0.0025575928
0.3832587
0.0024620695
0.43608859
0.0022649299
0.49548096
0.0019292074
0.56133863
0.0013423118
0.63225741
0.00061859708
0.70829337
0.00016532623
0.78627589
0.86778128
-0.0071177284
0.013749418
0.0073021186
-0.0068967224
0.016161544
-0.0066408982
0.018954303
-0.0063516273
0.022182147
-0.006029398
0.025909842
-0.0056736354
0.03021341
-0.0052827562
0.03518129
-0.0048544125
0.04091557
-0.0043861478
0.04753198
-0.0038760781
0.055159716
-0.0033236847
0.063942402
-0.0027310178
0.07403751
-0.0021038479
0.085615725
-0.001452471
0.098861216
-0.00079208319
0.11397345
-0.00014203065
0.13117127
0.00047602518
0.15069994
0.0010404492
0.17284066
0.0015321973
0.19792168
0.0019373954
0.22633072
0.0022473429
0.25851908
0.0024592407
0.29500811
0.0025757957
0.33638322
0.0025954584
0.38323606
0.0025145024
0.43617264
0.0023321854
0.49567711
0.0020024878
0.56170194
0.0014077301
0.6329115
0.00065862798
0.70910861
0.00017842708
0.78684519
0.86813938
-0.0074687778
0.013573973
0.0076425682
-0.0072567424
0.015947671
-0.0070075516
0.018703073
-0.0067223221
0.021894658
-0.0064016532
0.025586679
-0.006045317
0.029854331
-0.005652189
0.034785157
-0.0052203621
0.040480461
-0.0047476738
0.047055718
-0.0042323606
0.054640521
-0.0036737556
0.06337959
-0.0030733859
0.073432588
-0.0024361063
0.084973528
-0.0017709761
0.098190781
-0.0010918915
0.11328865
-0.00041719559
0.13049044
0.00023174659
0.15004443
0.00083265822
0.17223275
0.0013649422
0.19738202
0.0018124072
0.22587558
0.0021639214
0.25815981
0.0024143752
0.29475032
0.0025644588
0.33622716
0.002610832
0.38318699
0.002552461
0.43623499
0.0023892262
0.49585573
0.002069294
0.56205686
0.0014713403
0.63357062
0.00070087283
0.70994889
0.0001934913
0.78744912
0.86852036
-0.0077434261
0.013414409
0.0079012815
-0.0075464886
0.015748829
-0.0073106977
0.01846516
-0.0070366947
0.021618293
-0.0067249655
0.02527233
-0.0063754448
0.029501915
-0.0059873273
0.034393853
-0.0055590546
0.040048694
-0.0050887053
0.046581551
-0.0045745888
0.054122247
-0.0040158706
0.062816358
-0.0034135661
0.072825395
-0.0027716514
0.084326332
-0.0020980958
0.097511534
-0.001405459
0.1125899
-0.00071091577
0.12978934
-3.5262194e-05
0.14936178
0.00059892638
0.17159114
0.0011698138
0.19680333
0.0016590269
0.22537832
0.0020529501
0.25775783
0.002343883
0.29445187
0.0025297911
0.33603532
0.0026054318
0.38310903
0.0025730242
0.43627237
0.0024326216
0.49601301
0.0021268919
0.56239903
0.0015318349
0.63422834
0.00074537658
0.71080888
0.00021068138
0.7880891
0.86892825
-0.0079463803
0.01327316
0.008085931
-0.0077678266
0.015568366
-0.0075496285
0.018244813
-0.0072918183
0.021358071
-0.0069945839
0.024972398
-0.0066578423
0.029162173
-0.006280957
0.034013644
-0.0058626116
0.039626685
-0.0054010529
0.046115969
-0.0048945964
0.053611389
-0.0043421942
0.062259158
-0.0037443493
0.072222339
-0.0031041735
0.083680515
-0.0024284555
0.09682973
-0.0017283889
0.11188329
-0.0010198398
0.12907378
-0.00032274997
0.14865723
0.00034040462
0.1709201
0.00094684239
0.19618864
0.0014762635
0.22484042
0.0019125906
0.2573131
0.0022453914
0.29411138
0.0024696924
0.33580516
0.0025763973
0.38300047
0.0025718155
0.4362829
0.0024576477
0.49614563
0.0021716578
0.56272283
0.0015877085
0.63487611
0.00079209539
0.711682
0.00023057012
0.78876574
0.86936808
-0.0080901226
0.013150254
0.0082111495
-0.0079308217
0.015406973
-0.0077318009
0.018043471
-0.0074924738
0.021116177
-0.0072126834
0.024689774
-0.006892279
0.02883864
-0.0065307502
0.033648662
-0.0061269907
0.039219114
-0.0056793875
0.045664167
-0.0051862202
0.053113608
-0.0046461766
0.061714061
-0.004059185
0.071629833
-0.0034274214
0.08304276
-0.002756389
0.096152217
-0.0020557877
0.11117571
-0.0013399747
0.1283505
-0.00062772312
0.14793703
5.8943197e-05
0.17022505
0.00069669405
0.19554215
0.0012636537
0.22426455
0.0017414071
0.2568266
0.0021167751
0.29372813
0.0023821365
0.33553407
0.0025315683
0.38284973
0.0025565194
0.43626493
0.0024601308
0.49626231
0.002201455
0.56302077
0.0016373896
0.63550546
0.00084087773
0.71256049
0.00025421249
0.78947804
0.86984561
-0.0082009492
0.013041876
0.0083078139
-0.0080572443
0.01526151
-0.0078746149
0.0178588
-0.0076519627
0.020891155
-0.0073888057
0.024423892
-0.0070849001
0.028531634
-0.0067398345
0.033300105
-0.0063527055
0.038828084
-0.0059220483
0.045229175
-0.0054461046
0.052632869
-0.0049232658
0.061185938
-0.0043527991
0.07105357
-0.0037358383
0.082419472
-0.0030764665
0.095485975
-0.0023826331
0.11047446
-0.0016669415
0.12762686
-0.00094668698
0.14720831
-0.00024302269
0.16951247
0.00042067463
0.19486921
0.0010213237
0.22365452
0.001538437
0.25630038
0.0019561696
0.29330236
0.0022642503
0.33522042
0.0024576913
0.38265571
0.0025119269
0.43621893
0.0024380979
0.49635823
0.0022161433
0.5632839
0.0016795321
0.63610955
0.00089118485
0.71343578
0.00028227354
0.79022335
0.870367
-0.0082943369
0.012943949
0.008390537
-0.0081626758
0.015127914
-0.0079929703
0.017686927
-0.00778372
0.02067947
-0.007534289
0.024171715
-0.007244552
0.028238793
-0.0069144201
0.032966465
-0.0065433985
0.03845311
-0.0061303364
0.044811678
-0.0056735365
0.052171119
-0.0051711176
0.060678024
-0.0046216441
0.070498031
-0.0040250562
0.081816231
-0.0033838328
0.094837502
-0.0027040414
0.10978682
-0.0019962187
0.12691061
-0.0012757636
0.14647889
-0.00056247722
0.16878975
0.00012070624
0.19417626
0.00075001588
0.22301536
0.001303262
0.25573768
0.0017620812
0.29283536
0.0021132438
0.33486391
0.0023473925
0.38242176
0.0024426405
0.43613372
0.0024052511
0.4964197
0.0022153246
0.56351685
0.0017126585
0.63668249
0.00094193574
0.71429862
0.00031321821
0.79099948
0.87093911
-0.0083696918
0.012854818
0.0084570568
-0.0082483564
0.015004591
-0.0080899263
0.017526268
-0.0078924203
0.020479464
-0.0076549513
0.023931433
-0.0073774946
0.027958162
-0.0070604159
0.0326458
-0.006703914
0.038092557
-0.0063075292
0.044410729
-0.0058700003
0.051728468
-0.0053894524
0.060191759
-0.004863881
0.069966119
-0.0042920691
0.081237436
-0.003674752
0.094212552
-0.0030158876
0.10911968
-0.0023236259
0.12620944
-0.0016110612
0.14575685
-0.00089617129
0.1680649
-0.00020083173
0.19347064
0.00045107031
0.22235315
0.0010360755
0.25514288
0.0015336148
0.29232954
0.0019276247
0.33446484
0.0022054259
0.38214498
0.0023501163
0.43600077
0.0023551412
0.49644103
0.0021968267
0.56372014
0.0017352628
0.63721766
0.00099141595
0.71513939
0.00034486276
0.79180474
0.87156777
-0.0083835573
0.012776512
0.0084603089
-0.0082750173
0.014894266
-0.0081310297
0.017380237
-0.0079489784
0.020295065
-0.0077274432
0.023707192
-0.0074661471
0.027693744
-0.0071655989
0.032341658
-0.0068265314
0.037749372
-0.0064492421
0.04402875
-0.0060331817
0.051307104
-0.005576887
0.059729507
-0.0050782246
0.069460817
-0.004535159
0.080687034
-0.0039468871
0.093616245
-0.0033152034
0.10847928
-0.0026457689
0.12553063
-0.0019490737
0.14505017
-0.0012407856
0.16734613
-0.00054118369
0.19276025
0.00012637129
0.22167485
0.00073769932
0.25452145
0.0012705391
0.29178836
0.0017063812
0.33402426
0.002030025
0.38182321
0.0022303886
0.4358137
0.0022839046
0.49641613
0.0021598583
0.56389135
0.0017457763
0.63770819
0.001037089
0.71594849
0.0003740664
0.79263797
0.87225399
-0.0083207848
0.012713336
0.00838221
-0.0082300932
0.014801564
-0.0081059764
0.017253819
-0.0079451192
0.020131586
-0.0077453715
0.023504464
-0.0075058967
0.027450886
-0.0072270184
0.032058942
-0.0069097634
0.03742777
-0.0065551415
0.043669211
-0.0061634984
0.05090991
-0.0057341339
0.059293902
-0.0052652223
0.068984932
-0.0047543322
0.080168418
-0.0041994529
0.093052894
-0.0036003923
0.10787103
-0.0029603106
0.12488068
-0.0022869387
0.14436631
-0.0015932827
0.16664149
-0.00089751049
0.19205321
-0.00022183904
0.22098801
0.00040952318
0.25387967
0.00097326117
0.2912163
0.0014489365
0.33354421
0.0018197737
0.38145515
0.0020786184
0.43556952
0.0021852557
0.4963403
0.0021033186
0.56402254
0.001743633
0.6381463
0.0010761007
0.71671806
0.0003975619
0.79349799
0.87299655
-0.0080963425
0.012676814
0.0081309995
-0.0080360502
0.014739134
-0.007945469
0.017160794
-0.007820409
0.020003738
-0.0076576402
0.023338518
-0.0074552445
0.027244879
-0.0072126987
0.031812306
-0.006930599
0.037141054
-0.0066100895
0.043343507
-0.0062521634
0.050546145
-0.0058569968
0.058892182
-0.0054235267
0.068544133
-0.0049495824
0.079686336
-0.0044326575
0.092527031
-0.0038711935
0.10729987
-0.0032662079
0.1242653
-0.0026228019
0.1437119
-0.0019512056
0.16595841
-0.0012671199
0.19135739
-0.00059105079
0.22030036
5.3559997e-05
0.25322435
0.00064271857
0.29061885
0.0011550584
0.33302788
0.0015730727
0.38104075
0.0018947895
0.43526361
0.0020596773
0.49620779
0.0020247703
0.56410803
0.0017273298
0.63852175
0.0011064527
0.7174399
0.00041601638
0.79437973
0.87379792
-0.0076658862
0.01267726
0.00766334
-0.0076492968
0.014720172
-0.0076078698
0.01711669
-0.0075359499
0.019928785
-0.0074287739
0.023227887
-0.0072829951
0.027095171
-0.0070964554
0.03162133
-0.0068683777
0.036908004
-0.0065991415
0.04306872
-0.0062896611
0.050230473
-0.0059406046
0.058536213
-0.0055517264
0.068147546
-0.005121612
0.079247664
-0.0046480264
0.092044032
-0.0041289375
0.10677056
-0.0035639656
0.12368939
-0.0029560732
0.14309246
-0.0023129783
0.16530331
-0.0016478023
0.19068002
-0.00097890106
0.21961951
-0.00032844003
0.25256296
0.00028022255
0.29000181
0.0008246968
0.33247967
0.0012862571
0.38058348
0.001654881
0.43491149
0.0018783724
0.49601785
0.0019153483
0.56412243
0.0016917486
0.63881979
0.0011270681
0.71810046
0.00043235318
0.79527151
0.87466781
-0.0070784438
0.012720194
0.0070331152
-0.0071088762
0.014747852
-0.0071209315
0.017125623
-0.0071103535
0.019914697
-0.0070712388
0.023184853
-0.0069967247
0.027016293
-0.0068819295
0.03150166
-0.0067243796
0.036744987
-0.0065227694
0.042860979
-0.0062768361
0.049977699
-0.0059868592
0.058238662
-0.0056529094
0.067805261
-0.0052743173
0.078859938
-0.0048496036
0.091609355
-0.0043770755
0.10628725
-0.0038559171
0.12315671
-0.0032877496
0.14251217
-0.002678245
0.16468126
-0.0020381
0.19002716
-0.0013832195
0.21895223
-0.00073383785
0.25190234
-0.00011244976
0.28937181
0.00045845059
0.33190507
0.00095871635
0.38008792
0.001370107
0.43451741
0.0016524276
0.49577087
0.0017712171
0.56405508
0.0016331251
0.6390261
0.0011388315
0.71868053
0.0004497183
0.79615419
0.87562009
-0.0064288252
0.012817753
0.0063284691
-0.0065174137
0.014833346
-0.0065890998
0.017193817
-0.0066389214
0.019960538
-0.0066632277
0.023204653
-0.0066587462
0.02700678
-0.0066196461
0.031456969
-0.0065384428
0.036657601
-0.0064111256
0.04272684
-0.00623614
0.049795204
-0.0060126129
0.058006898
-0.0057400508
0.06752371
-0.0054179824
0.078528106
-0.0050456436
0.091226454
-0.0046220467
0.10585228
-0.0041466371
0.12266918
-0.0036205118
0.14197331
-0.0030479025
0.16409548
-0.0024373577
0.1894033
-0.0018022892
0.21830419
-0.0011606146
0.25124888
-0.0005332221
0.28873529
5.8142313e-05
0.33130948
0.00059197354
0.37955878
0.0010468508
0.43408014
0.0013931405
0.49546058
0.0015956201
0.56390395
0.0015495478
0.6391341
0.0011445196
0.71915574
0.00046543759
0.79700577
0.87665846
-0.0058125049
0.012965528
0.005661272
-0.0059590508
0.014976046
-0.0060947282
0.017325264
-0.0062124509
0.020073659
-0.0063048941
0.023292053
-0.0063655389
0.027061782
-0.0063903637
0.031475482
-0.0063769669
0.036637208
-0.0063194116
0.042661589
-0.0062123696
0.049679761
-0.0060529297
0.057838357
-0.0058398082
0.067300771
-0.0055725125
0.078250253
-0.005250788
0.090893414
-0.0048744111
0.10546383
-0.0044433997
0.12222536
-0.003958874
0.14147532
-0.003424153
0.16354683
-0.002845885
0.18881092
-0.0022349863
0.21767947
-0.0016067601
0.25060796
-0.00097990012
0.2880983
-0.00037491727
0.3306993
0.00018766984
0.37899963
0.00068488061
0.43359972
0.0010951802
0.49508617
0.0013779222
0.56367173
0.0014347031
0.63913374
0.0011462625
0.71949507
0.00048052811
0.79779156
0.87775637
-0.0054532972
0.013136936
0.0052780687
-0.0056294104
0.015147891
-0.0058016322
0.017492695
-0.0059636991
0.020230402
-0.0061075819
0.0234301
-0.0062242634
0.027172199
-0.0063049398
0.031549557
-0.0063426353
0.036667999
-0.0063343255
0.042645002
-0.0062761524
0.04961164
-0.0061633158
0.057715308
-0.0059942843
0.06712106
-0.0057687634
0.07801338
-0.0054870195
0.090599572
-0.0051494946
0.10511343
-0.0047567249
0.12181894
-0.0043097332
0.14101397
-0.0038109298
0.16303311
-0.0032652487
0.18825004
-0.0026810716
0.21708024
-0.0020707648
0.24998351
-0.0014502019
0.28746584
-0.00083760565
0.33007935
-0.00025223235
0.37841515
0.00028433028
0.43307737
0.00075473067
0.49464932
0.0011032646
0.56337188
0.001268538
0.63902345
0.0011381862
0.71965942
0.00050854703
0.79846163
0.87883739
-0.0055408184
0.013300847
0.0053728977
-0.0057110189
0.015313612
-0.0058793921
0.017656063
-0.0060408092
0.020386231
-0.0061891417
0.023572204
-0.0063171287
0.027293235
-0.0064163109
0.031640929
-0.0064774969
0.036720341
-0.0064932834
0.042651793
-0.0064583395
0.049567729
-0.0063702281
0.057616946
-0.0062266302
0.066966193
-0.0060268474
0.077801464
-0.0057713489
0.090331091
-0.0054610802
0.10478932
-0.0050971757
0.12144034
-0.0046807175
0.140582
-0.0042133124
0.1625495
-0.0036982593
0.18771829
-0.0031414032
0.21650654
-0.0025518919
0.24937765
-0.0019423109
0.28684156
-0.0013279381
0.32945405
-0.0007256723
0.37780936
-0.00015441645
0.43251544
0.00037313304
0.49415046
0.00080980733
0.56298096
0.0010905313
0.63880052
0.0011035211
0.71967511
0.00055109846
0.79897864
0.87983178
-0.0060642703
0.013438712
0.0059225729
-0.00620789
0.015452912
-0.0063497926
0.017793104
-0.0064853815
0.020516352
-0.0066090432
0.023689731
-0.006714287
0.027391615
-0.0067939807
0.031712973
-0.0068410043
0.036758926
-0.0068476777
0.04264928
-0.0068076678
0.049517783
-0.0067165056
0.057514963
-0.0065723328
0.06681018
-0.0063749902
0.077591259
-0.0061255818
0.090067812
-0.0058257749
0.10447463
-0.0054771564
0.12107581
-0.0050808411
0.14016877
-0.004637627
0.16208841
-0.0041489427
0.18721091
-0.0036179118
0.21595622
-0.0030503013
0.24879056
-0.0024550099
0.28622749
-0.0018437903
0.32882657
-0.0012303885
0.37718564
-0.00063018092
0.43191661
-5.2690601e-05
0.49359346
0.00045716185
0.56251285
0.00083615446
0.63848533
0.0010041738
0.71954674
0.00057261586
0.79933941
0.88073997
-0.0067352576
0.013550857
0.0066196868
-0.0068523447
0.015566103
-0.006967761
0.017904103
-0.0070773428
0.020620935
-0.0071758738
0.023782615
-0.007257254
0.027466624
-0.0073147233
0.031763266
-0.0073411826
0.036777319
-0.0073291877
0.042628268
-0.0072722982
0.049450876
-0.0071665061
0.057398077
-0.0070099508
0.066641374
-0.0068029842
0.077370848
-0.0065476144
0.089797789
-0.0062466064
0.10415774
-0.0059024538
0.12071449
-0.0055167009
0.1397645
-0.0050898781
0.16164171
-0.004621987
0.18672179
-0.0041136095
0.21542532
-0.0035671842
0.24822046
-0.0029877855
0.28562376
-0.0023833056
0.32819845
-0.0017638169
0.3765463
-0.0011406945
0.4312834
-0.00052081113
0.49298236
6.0434797e-05
0.56196358
0.0005640845
0.63805391
0.00088733899
0.71928015
0.00053174097
0.79964984
0.88163535
-0.0071638516
0.013652538
0.0070591121
-0.0072705695
0.015669273
-0.0073765516
0.018005894
-0.0074780224
0.020717578
-0.0075702541
0.023869419
-0.007647779
0.027538036
-0.0077044294
0.03181304
-0.0077332112
0.036798502
-0.0077263991
0.042613046
-0.0076768221
0.049391793
-0.0075793795
0.057289893
-0.0074314507
0.066481371
-0.0072327224
0.077158599
-0.006985094
0.089535073
-0.0066919139
0.1038478
-0.0063567499
0.12036083
-0.0059823332
0.13936978
-0.0055700122
0.16120716
-0.005119794
0.18624726
-0.0046311085
0.21491005
-0.0041040405
0.24766433
-0.0035404941
0.28502867
-0.002944658
0.32756936
-0.0023226502
0.3758919
-0.0016815889
0.4306168
-0.0010262198
0.49231883
-0.00038326461
0.56134197
0.00023019466
0.63750836
0.00070137807
0.7188827
0.00044795334
0.79992711
0.88261377
-0.0071046554
0.013768214
0.0069858801
-0.0072274437
0.015788551
-0.007351838
0.018126311
-0.0074745921
0.020835818
-0.007591507
0.023981209
-0.007697274
0.027637988
-0.0077855472
0.031894699
-0.0078492989
0.03685463
-0.0078828267
0.042637804
-0.0078808088
0.049379862
-0.0078355517
0.057233446
-0.0077386657
0.066371835
-0.0075868281
0.076992493
-0.0073804084
0.089312604
-0.0071218964
0.10357129
-0.0068151374
0.12003395
-0.0064642853
0.13899647
-0.006072542
0.16079037
-0.005641513
0.1857882
-0.005171454
0.21440844
-0.004661913
0.24711906
-0.0041129468
0.28443921
-0.0035257423
0.32693692
-0.0029025213
0.37522053
-0.0022456073
0.42991449
-0.0015545343
0.49159646
-0.0008381051
0.56062701
-0.00013243599
0.6368596
0.00047442092
0.71837017
0.00035202189
0.80015691
0.88370243
-0.0066565262
0.013915165
0.0065059265
-0.0068156745
0.015943591
-0.0069814716
0.018287481
-0.0071510455
0.021000185
-0.0073203738
0.024144685
-0.0074841485
0.027795191
-0.0076357019
0.032038871
-0.0077668753
0.036977475
-0.0078682837
0.042729771
-0.0079323332
0.049433183
-0.0079540051
0.057242961
-0.007929542
0.066333658
-0.0078507837
0.076898257
-0.0077125967
0.089156951
-0.0075142956
0.10335328
-0.0072581116
0.11975553
-0.0069480062
0.13866124
-0.0065882569
0.1604021
-0.0061824543
0.18534982
-0.0057328838
0.21392131
-0.005240203
0.24658264
-0.0047041336
0.28385193
-0.0041239733
0.32629723
-0.0034985897
0.37452816
-0.0028254762
0.42917185
-0.0020985483
0.49080937
-0.0013151382
0.55981642
-0.00051272422
0.63609208
0.00021591046
0.71774223
0.00017847208
0.8003758
0.88482965
-0.0063091382
0.014080715
0.006138873
-0.0064912325
0.016120479
-0.0066838032
0.018474271
-0.0068847487
0.021194601
-0.0070909138
0.024343444
-0.0072978774
0.027993819
-0.0074998287
0.032231514
-0.0076895705
0.037156838
-0.0078578281
0.042886481
-0.0079935835
0.049556133
-0.0080868085
0.05732194
-0.0081295262
0.066360403
-0.0081171339
0.076867941
-0.008044494
0.089064236
-0.0079075709
0.10319383
-0.0077056337
0.11952819
-0.0074410311
0.1383678
-0.0071178501
0.16004589
-0.0067405419
0.18493424
-0.006312729
0.2134486
-0.0058363132
0.24605298
-0.005311254
0.28326323
-0.0047356714
0.32564581
-0.0041055713
0.37380973
-0.003414211
0.42838334
-0.0026519679
0.4899524
-0.0018197326
0.55891637
-0.00093010235
0.63519706
-8.2221048e-05
0.71697547
-7.8925939e-05
0.80056672
0.88599699
-0.0065375081
0.014236922
0.0063758788
-0.0067112101
0.016288067
-0.0068960764
0.018652251
-0.0070905512
0.021381326
-0.0072922281
0.024536412
-0.0074976447
0.028189462
-0.0077021252
0.032425044
-0.0078997403
0.037342206
-0.0080833611
0.043056424
-0.0082440863
0.049701601
-0.0083708733
0.057431756
-0.0084518373
0.06642256
-0.0084793864
0.076874582
-0.0084468386
0.0890083
-0.0083499852
0.10307073
-0.0081869006
0.11933548
-0.0079580476
0.13810521
-0.0076661702
0.15971515
-0.0073149381
0.18453764
-0.0069076173
0.2129876
-0.0064462517
0.24552734
-0.0059304597
0.2826699
-0.005356998
0.32497889
-0.0047190344
0.37306092
-0.0040056848
0.42754372