/*--------------------------------*- C++ -*----------------------------------*\
| =========                 |                                                 |
| \\      /  F ield         | OpenFOAM: The Open Source CFD Toolbox           |
|  \\    /   O peration     | Version:  2406                                  |
|   \\  /    A nd           | Website:  www.openfoam.com                      |
|    \\/     M anipulation  |                                                 |
\*---------------------------------------------------------------------------*/
FoamFile
{
    version     2.0;
    format      ascii;
    arch        "LSB;label=32;scalar=64";
    class       volScalarField;
    location    "0.01";
    object      T;
}
// * * * * * * * * * * * * * * * * * * * * * * * * * * * * * * * * * * * * * //

dimensions      [0 0 0 1 0 0 0];

internalField   nonuniform List<scalar> 
8260
(
292.60626
292.60791
292.61108
292.62083
292.63563
292.65338
292.67195
292.68944
292.70377
292.71328
292.71657
292.71251
292.70046
292.6811
292.65625
292.63211
292.63765
292.71819
292.79264
292.82685
292.84965
292.87023
292.89204
292.91089
292.92699
292.94144
292.95787
292.96944
292.98458
293.00317
293.14727
292.68646
292.68035
292.67795
292.68086
292.68757
292.69689
292.70757
292.71796
292.72626
292.73076
292.73005
292.72285
292.70843
292.68715
292.66163
292.63798
292.64752
292.73248
292.80119
292.83207
292.85368
292.87347
292.89464
292.91293
292.92863
292.94277
292.95901
292.97028
292.98523
293.00436
293.14541
292.77251
292.76082
292.75204
292.74751
292.74605
292.74698
292.74949
292.75225
292.75378
292.75265
292.7472
292.73619
292.71882
292.69511
292.66842
292.64505
292.66036
292.7482
292.80978
292.83753
292.85795
292.87689
292.89736
292.91509
292.93039
292.94421
292.96027
292.97122
292.98661
293.00562
293.1428
292.86008
292.84362
292.82902
292.81759
292.80861
292.80166
292.79624
292.79141
292.78595
292.77858
292.76783
292.75244
292.73159
292.70507
292.67688
292.65418
292.67739
292.76574
292.81925
292.84385
292.86298
292.88095
292.90059
292.91765
292.93246
292.94592
292.96174
292.97234
292.98859
293.0069
293.13978
292.94682
292.9265
292.90708
292.88972
292.87404
292.85985
292.84691
292.83464
292.82211
292.80822
292.79174
292.77152
292.74672
292.71708
292.68721
292.66611
292.69923
292.78493
292.82957
292.85102
292.86869
292.88555
292.90423
292.92054
292.93479
292.94786
292.96337
292.97361
292.99036
293.00816
293.13684
293.03141
293.00839
292.98528
292.96306
292.94162
292.92097
292.9011
292.88169
292.86215
292.84163
292.81914
292.79367
292.7645
292.73144
292.69987
292.68198
292.7261
292.80538
292.84088
292.85915
292.87521
292.89084
292.9084
292.92386
292.93745
292.95009
292.96519
292.97511
292.9917
293.00938
293.13338
293.11251
293.08777
293.06214
293.03624
293.01016
292.98405
292.95805
292.93209
292.90585
292.87878
292.85014
292.81915
292.78526
292.74857
292.7156
292.70359
292.75876
292.82662
292.85326
292.86835
292.88261
292.89686
292.9131
292.92761
292.94044
292.95263
292.9672
292.97677
292.99266
293.01049
293.12939
293.18839
293.16286
293.13571
293.10735
293.07791
293.04756
293.01651
292.98486
292.95253
292.91926
292.88459
292.84802
292.80924
292.76894
292.73556
292.73348
292.79682
292.84829
292.86685
292.87878
292.89101
292.90374
292.91846
292.93188
292.94384
292.95555
292.96943
292.9786
292.99304
293.01139
293.1247
293.25741
293.23197
293.2043
293.17463
293.14305
293.10971
293.07483
293.03859
293.0011
292.96231
292.92206
292.88013
292.83658
292.79325
292.76195
292.77532
292.83814
292.87037
292.88178
292.89056
292.90052
292.91155
292.92453
292.93671
292.94767
292.95887
292.97192
292.98066
292.99331
293.01206
293.11898
293.31837
293.29349
293.26612
293.23614
293.20352
293.16842
293.13101
293.0915
293.05006
293.0068
292.96179
292.91512
292.8674
292.82289
292.79919
292.83075
292.87866
292.89286
292.89825
292.90384
292.91127
292.92038
292.93142
292.94219
292.95204
292.96262
292.97471
292.98299
292.9944
293.01256
293.11269
293.37017
293.34581
293.31884
293.28921
293.25668
293.22118
293.18273
293.14148
293.09758
293.05125
293.00275
292.95253
292.90227
292.86132
292.85548
292.89422
292.91541
292.91618
292.91639
292.9187
292.92338
292.93032
292.93919
292.94839
292.95701
292.96685
292.97788
292.98561
292.99588
293.01297
293.10614
293.41004
293.38717
293.36166
293.33315
293.30149
293.26654
293.22823
293.18658
293.14173
293.09396
293.04381
292.9926
292.94527
292.91844
292.93368
292.95216
292.94892
292.94032
292.93594
292.9352
292.93697
292.94144
292.94788
292.95539
292.96271
292.9716
292.98146
292.98857
292.99776
293.01312
293.09926
293.43801
293.41703
293.39322
293.3664
293.33634
293.30283
293.26575
293.22509
293.1811
293.13444
293.0866
293.04122
293.00894
293.00494
293.00963
292.99709
292.97964
292.96582
292.95708
292.95293
292.95208
292.95379
292.95749
292.96319
292.9692
292.97691
292.98553
292.99193
292.99996
293.01301
293.09378
293.45045
293.43129
293.41007
293.38656
293.35994
293.32966
293.2958
293.25883
293.21961
293.17975
293.14267
293.11415
293.09885
293.0873
293.06198
293.03451
293.01112
292.992
292.97921
292.97207
292.96826
292.96734
292.96816
292.97179
292.97648
292.9828
292.99005
292.99566
293.00258
293.01281
293.09158
293.46011
293.44292
293.42301
293.40098
293.37771
293.35332
293.32732
293.29986
293.27152
293.2435
293.21731
293.19305
293.16662
293.13226
293.0985
293.06808
293.0413
293.01862
293.00227
292.99184
292.98543
292.98189
292.97981
292.98113
292.9844
292.98921
292.99496
292.99967
293.00566
293.01263
293.09491
293.47233
293.4634
293.45335
293.44066
293.42379
293.40255
293.37723
293.3497
293.32263
293.29473
293.26496
293.23257
293.19671
293.16276
293.12985
293.09892
293.0703
293.04447
293.02523
293.01221
293.00289
292.997
292.99221
292.99118
292.99276
292.99606
293.0001
293.00376
293.00917
293.01279
293.11216
293.43865
293.42976
293.42022
293.41035
293.40076
293.39214
293.38432
293.37234
293.35066
293.32163
293.28805
293.2552
293.22262
293.18894
293.15563
293.12441
293.09535
293.0686
293.04702
293.03182
293.02052
293.0118
293.00505
293.00153
293.00135
293.00313
293.00527
293.00765
293.01293
293.01326
293.10143
293.4227
293.41596
293.40799
293.39839
293.38656
293.37186
293.35463
293.33751
293.32198
293.30859
293.29532
293.2701
293.2397
293.20852
293.17651
293.14588
293.11762
293.09081
293.06652
293.04956
293.03715
293.02578
293.01719
293.01203
293.01
293.00991
293.01026
293.01104
293.01658
293.01356
293.09415
293.38173
293.37641
293.3705
293.36394
293.35673
293.34887
293.34007
293.32968
293.31673
293.29895
293.27805
293.26359
293.24747
293.22011
293.19097
293.16144
293.13413
293.11017
293.08417
293.06427
293.05124
293.03796
293.02825
293.02178
293.0181
293.01584
293.01467
293.01359
293.01966
293.01359
293.10597
293.35316
293.34926
293.34469
293.33924
293.33269
293.3248
293.31546
293.30477
293.29311
293.28146
293.26909
293.25073
293.23162
293.21873
293.19629
293.17061
293.14527
293.12314
293.09961
293.07665
293.061
293.04723
293.03681
293.02975
293.02481
293.02032
293.01779
293.01493
293.02188
293.01308
293.09178
293.30737
293.30415
293.30052
293.29643
293.29182
293.2867
293.281
293.27449
293.26666
293.2567
293.24468
293.23329
293.2205
293.20353
293.19204
293.17081
293.14776
293.12592
293.10732
293.08573
293.06544
293.05162
293.04183
293.03401
293.0291
293.02253
293.01858
293.01433
293.02322
293.00954
293.06578
293.26962
293.26743
293.26484
293.26176
293.25805
293.25361
293.2483
293.24205
293.23496
293.22725
293.21875
293.20794
293.19568
293.1838
293.16901
293.16113
293.14117
293.12056
293.10251
293.08533
293.06476
293.05003
293.04136
293.03317
293.02893
293.02141
293.01598
293.01064
293.02168
293.00508
293.08081
293.21481
293.21293
293.21079
293.20839
293.2057
293.20273
293.19947
293.19585
293.19168
293.18665
293.18057
293.17394
293.16618
293.15616
293.14567
293.13174
293.1248
293.1059
293.08881
293.07305
293.05744
293.04304
293.03325
293.02635
293.02249
293.01605
293.00922
293.00265
293.01346
292.99755
293.06865
293.16912
293.16799
293.16663
293.16497
293.16296
293.16054
293.15766
293.15424
293.15026
293.14575
293.14065
293.13458
293.12754
293.1198
293.11063
293.10171
293.09011
293.08442
293.06818
293.05366
293.04128
293.03072
293.01955
293.01376
293.00998
293.00616
292.99866
292.99058
292.99921
292.98661
293.03053
293.11208
293.11109
293.10997
293.1087
293.1073
293.10573
293.104
293.10209
293.09995
293.09747
293.09455
293.09116
293.08712
293.0822
293.07631
293.06805
293.06044
293.05111
293.0442
293.03138
293.02142
293.01353
293.00521
292.99876
292.9956
292.99303
292.98585
292.9772
292.9822
292.97327
293.00022
293.07463
293.07424
293.07374
293.07311
293.07232
293.07132
293.07008
293.06852
293.06659
293.0642
293.06133
293.05796
293.05413
293.04981
293.04503
293.0405
293.03401
293.02723
293.01755
293.01048
293.00329
292.99839
292.99295
292.98762
292.9844
292.98115
292.97509
292.96811
292.96641
292.95803
293.00596
293.03659
293.03629
293.03595
293.03555
293.0351
293.03456
293.03394
293.03322
293.03237
293.03143
293.03038
293.02922
293.02789
293.02627
293.02387
293.02027
293.01661
293.01221
293.00812
293.00014
292.99296
292.9894
292.9868
292.98362
292.98009
292.97683
292.97254
292.96689
292.96055
292.94998
292.99903
293.01782
293.01784
293.01784
293.01782
293.01778
293.01769
293.01754
293.01732
293.01698
293.01648
293.01574
293.01466
293.01319
293.01142
293.00964
293.00787
293.00601
293.00384
293.0019
293.00183
292.99792
292.99341
292.99052
292.98828
292.98633
292.98343
292.982
292.97554
292.96689
292.95101
293.02776
293.00243
293.00259
293.00275
293.00293
293.00311
293.0033
293.00349
293.00368
293.00387
293.00404
293.00416
293.00423
293.00427
293.00426
293.00426
293.00427
293.0045
293.00474
293.00431
293.00549
293.00534
293.00258
293.00111
292.9999
292.99958
292.99856
292.99803
292.99046
292.98601
292.97414
293.01658
292.99666
292.99678
292.99693
292.99712
292.99736
292.99767
292.99807
292.99856
292.99919
292.99996
293.00091
293.00204
293.00329
293.00457
293.00569
293.00648
293.0071
293.00789
293.00879
293.01121
293.013
293.01204
293.01242
293.01376
293.0142
293.01613
293.01477
293.00768
293.01142
292.99949
293.01888
293.00835
293.00841
293.00848
293.00857
293.00868
293.00883
293.009
293.00922
293.00947
293.00975
293.01008
293.01046
293.01088
293.01128
293.01156
293.01163
293.01109
293.01084
293.01354
293.0108
293.01228
293.01764
293.01839
293.02493
293.02631
293.03204
293.03035
293.03028
293.0315
293.02931
293.00915
293.9527
293.80458
293.65392
293.51521
293.39452
293.28827
293.19189
293.10485
293.02464
292.95245
292.88812
292.831
292.77964
292.73224
292.68691
292.64034
292.59456
292.55471
292.56424
292.64402
292.72583
292.77686
292.81505
292.84693
292.87432
292.89745
292.92101
292.93484
292.94441
292.96221
292.97829
293.74434
293.60805
293.49491
293.39484
293.3007
293.21053
293.12563
293.04744
292.97543
292.91103
292.85391
292.80305
292.75683
292.71355
292.67133
292.62751
292.58407
292.55117
292.56981
292.6577
292.73532
292.78258
292.81934
292.85039
292.87707
292.8997
292.92304
292.93656
292.94626
292.96558
292.98823
293.66431
293.54684
293.43968
293.33827
293.24217
293.15302
293.07195
292.9989
292.93358
292.87588
292.8249
292.77932
292.73742
292.69761
292.65793
292.61664
292.57526
292.54888
292.57737
292.67072
292.74314
292.7873
292.82302
292.85339
292.87948
292.9017
292.92487
292.93815
292.94788
292.96855
292.9969
293.57743
293.46377
293.35988
293.26315
293.17353
293.09176
293.01827
292.95277
292.89485
292.8439
292.79883
292.75818
292.72025
292.68355
292.64604
292.6072
292.56814
292.54789
292.58637
292.68328
292.7506
292.79212
292.8269
292.85655
292.88201
292.90379
292.92673
292.9398
292.94965
292.97146
293.00593
293.48035
293.37305
293.2765
293.18732
293.1055
293.03181
292.9664
292.90883
292.8584
292.81416
292.77482
292.73886
292.70465
292.67081
292.6353
292.59879
292.56246
292.54796
292.59674
292.69541
292.75748
292.79673
292.83066
292.85962
292.88448
292.90584
292.92853
292.94143
292.95146
292.97425
293.016
293.36967
293.27458
293.18828
293.10864
293.03644
292.97231
292.91605
292.867
292.82424
292.78662
292.75281
292.72129
292.69056
292.65937
292.62574
292.59145
292.55835
292.54928
292.60867
292.707
292.76392
292.80127
292.83441
292.86268
292.88695
292.90789
292.9303
292.94306
292.95339
292.97692
293.02791
293.25277
293.1708
293.09612
293.02805
292.96737
292.91411
292.86777
292.82759
292.79253
292.76139
292.73285
292.70551
292.67801
292.64926
292.61751
292.58534
292.55574
292.55191
292.62181
292.71787
292.76992
292.80569
292.83809
292.86569
292.88938
292.90991
292.93204
292.9447
292.95545
292.97947
293.04224
293.12538
293.0598
293.00029
292.9467
292.8993
292.85789
292.82198
292.79081
292.76335
292.73846
292.71493
292.69149
292.667
292.64048
292.61065
292.58058
292.55397
292.55572
292.63582
292.72793
292.7756
292.81003
292.84172
292.86867
292.89179
292.91192
292.93374
292.94634
292.95761
292.98188
293.05695
292.99169
292.94588
292.90438
292.86688
292.83352
292.80438
292.77908
292.75685
292.73678
292.71786
292.69903
292.67922
292.65748
292.63297
292.60508
292.5768
292.55255
292.56103
292.65026
292.73713
292.78099
292.81428
292.84529
292.87159
292.89418
292.91391
292.93541
292.94797
292.95977
292.98414
293.07141
292.85966
292.83449
292.81156
292.79026
292.77099
292.75422
292.73944
292.72589
292.71288
292.69959
292.68516
292.66868
292.6494
292.62664
292.60068
292.57386
292.55191
292.56828
292.66458
292.74554
292.78618
292.81844
292.84879
292.87448
292.89653
292.91588
292.93704
292.9496
292.96189
292.98615
293.07818
292.73296
292.72862
292.72337
292.7179
292.71271
292.70807
292.70335
292.69806
292.69172
292.68368
292.67329
292.65982
292.64271
292.62171
292.59741
292.57167
292.55238
292.57737
292.6783
292.75322
292.79119
292.82253
292.85221
292.87731
292.89885
292.91782
292.93863
292.95121
292.96394
292.98773
293.08939
292.61436
292.62924
292.64145
292.65167
292.66008
292.66654
292.67105
292.67348
292.67333
292.6701
292.66337
292.65258
292.63747
292.61819
292.59538
292.57055
292.55403
292.58788
292.69116
292.76029
292.79605
292.82652
292.85557
292.8801
292.90113
292.91973
292.94017
292.9528
292.96584
292.98879
293.09943
292.5082
292.54021
292.56832
292.59266
292.61323
292.62998
292.64297
292.65223
292.65765
292.65879
292.65536
292.64709
292.63421
292.61628
292.59415
292.57033
292.55673
292.59901
292.70308
292.76685
292.8008
292.83043
292.85884
292.88282
292.90337
292.92161
292.94166
292.95434
292.96758
292.98956
293.10819
292.41896
292.46461
292.50581
292.54203
292.57301
292.59868
292.61909
292.6344
292.64477
292.64991
292.64962
292.64394
292.63261
292.61538
292.59373
292.57108
292.56037
292.61058
292.71409
292.77301
292.80543
292.83424
292.86203
292.88549
292.90557
292.92345
292.9431
292.95585
292.96919
292.99032
293.11579
292.3512
292.4066
292.45684
292.5016
292.54053
292.57338
292.60005
292.62082
292.63559
292.64427
292.64674
292.64264
292.63202
292.61562
292.59444
292.57285
292.56489
292.62236
292.72419
292.77882
292.80996
292.83796
292.86514
292.8881
292.90772
292.92525
292.94448
292.9573
292.97068
292.99106
293.12259
292.30011
292.36506
292.42215
292.4727
292.51718
292.55542
292.58709
292.61234
292.6307
292.64164
292.64536
292.64235
292.63273
292.61707
292.59627
292.57552
292.57019
292.63404
292.73339
292.78438
292.81437
292.84158
292.86818
292.89065
292.90984
292.92703
292.94583
292.9587
292.97214
292.99193
293.12869
292.25202
292.32749
292.39369
292.45135
292.50127
292.54397
292.57962
292.60749
292.62746
292.64016
292.64551
292.64361
292.63479
292.61972
292.59919
292.57888
292.57621
292.64538
292.74191
292.78975
292.8187
292.84513
292.87115
292.89315
292.91192
292.92876
292.94716
292.96004
292.97364
292.99284
293.13398
292.22287
292.29774
292.36786
292.43108
292.48641
292.5336
292.57274
292.60361
292.62618
292.64076
292.64752
292.64655
292.63826
292.62358
292.60324
292.58316
292.58286
292.65627
292.74982
292.79495
292.82293
292.84859
292.87404
292.8956
292.91396
292.93047
292.94848
292.96134
292.97521
292.99381
293.13847
292.22745
292.29561
292.36164
292.42363
292.47979
292.52886
292.57015
292.60316
292.62758
292.64369
292.65151
292.65116
292.64313
292.62862
292.60833
292.58845
292.59007
292.66663
292.75718
292.79999
292.82708
292.85197
292.87686
292.89798
292.91596
292.93214
292.94981
292.96259
292.97683
292.99493
293.14219
292.24887
292.31109
292.37182
292.42978
292.48355
292.53176
292.57323
292.6068
292.63205
292.64905
292.65749
292.65746
292.64944
292.63485
292.6144
292.59451
292.59776
292.67642
292.76407
292.80489
292.83114
292.85527
292.87961
292.9003
292.91792
292.93378
292.95114
292.9638
292.97848
292.99616
293.14511
292.28505
292.33987
292.3943
292.44692
292.49654
292.54201
292.58184
292.61457
292.63972
292.65681
292.66543
292.66543
292.65718
292.64225
292.6214
292.60133
292.6058
292.68569
292.77052
292.80963
292.83508
292.85846
292.88226
292.90255
292.91982
292.93538
292.95248
292.96498
292.98015
292.9975
293.14719
292.33598
292.38096
292.42722
292.47311
292.51726
292.55852
292.59522
292.62612
292.65036
292.66686
292.67519
292.67494
292.66624
292.65075
292.6293
292.60892
292.61407
292.69445
292.77651
292.81413
292.83885
292.8615
292.88478
292.9047
292.92165
292.93693
292.95381
292.96613
292.9816
292.99891
293.14822
292.40145
292.43331
292.46836
292.50567
292.54313
292.57905
292.61204
292.64056
292.6632
292.6787
292.68641
292.6857
292.67643
292.66018
292.63798
292.617
292.62242
292.70252
292.78186
292.81831
292.8424
292.86437
292.88718
292.90676
292.92342
292.93844
292.95513
292.96724
292.98266
293.00032
293.14841
292.48741
292.50467
292.52439
292.5489
292.57691
292.60601
292.63392
292.65883
292.6789
292.69291
292.69956
292.69807
292.68803
292.67075
292.64748
292.62504
292.62996
292.70923
292.78649
292.8222
292.84579
292.86714
292.8895
292.90877
292.92518
292.93993
292.9565
292.96836
292.98363
293.00169
293.14802
293.95429
293.83245
293.6848
293.54379
293.41949
293.31111
293.21402
293.12437
293.0433
292.96991
292.90385
292.84474
292.79141
292.74226
292.69554
292.64804
292.60128
292.55896
292.5631
292.63724
292.72115
292.77385
292.81267
292.84497
292.87272
292.89613
292.91974
292.93379
292.94342
292.95992
292.9739
293.92645
293.80752
293.66732
293.53385
293.4151
293.31066
293.21699
293.13061
293.05149
292.97908
292.91315
292.85347
292.79923
292.74901
292.70121
292.65292
292.60521
292.56211
292.56225
292.633
292.71838
292.77199
292.81104
292.84351
292.87145
292.89503
292.91858
292.93276
292.94238
292.95778
292.96851
293.902
293.79099
293.65592
293.5289
293.41549
293.31458
293.22344
293.13916
293.06123
292.98937
292.92333
292.863
292.80776
292.7564
292.70744
292.65828
292.60945
292.56518
292.56123
292.62798
292.71504
292.76982
292.8092
292.84189
292.87004
292.8938
292.91729
292.93168
292.94135
292.95563
292.96375
293.87991
293.77944
293.6497
293.52712
293.41705
293.31871
293.22958
293.14691
293.07015
292.99901
292.93314
292.87241
292.81639
292.76405
292.71401
292.66405
292.61421
292.56852
292.56069
292.62277
292.71126
292.76735
292.80713
292.84007
292.86847
292.89245
292.91585
292.93054
292.94039
292.95345
292.96078
293.85764
293.77
293.64551
293.52596
293.41835
293.32212
293.2348
293.15376
293.07834
293.00814
292.94269
292.88181
292.82522
292.77203
292.72101
292.67033
292.61947
292.57231
292.56061
292.61758
292.70721
292.76469
292.80489
292.83809
292.86675
292.89095
292.91426
292.92927
292.93943
292.95123
292.95909
293.83387
293.75943
293.64122
293.52453
293.41919
293.32491
293.23933
293.15998
293.08602
293.01691
292.95209
292.89132
292.83435
292.78044
292.72854
292.67716
292.62526
292.57664
292.56098
292.61247
292.70295
292.76188
292.80254
292.83603
292.86499
292.88942
292.91263
292.92803
292.93802
292.94849
292.95531
293.8087
293.74704
293.63632
293.52297
293.41981
293.32735
293.24345
293.16579
293.09335
293.02545
292.96143
292.90101
292.84383
292.78935
292.73664
292.68455
292.63168
292.5817
292.56178
292.60747
292.69852
292.759
292.80011
292.83388
292.86311
292.88777
292.91081
292.92651
292.93623
292.94576
292.951
293.78338
293.73357
293.63143
293.52189
293.42078
293.32992
293.24754
293.17149
293.10056
293.0339
292.9708
292.91081
292.85359
292.79868
292.74528
292.69243
292.6387
292.58755
292.56303
292.6026
292.69388
292.75602
292.7976
292.83163
292.86113
292.88603
292.9089
292.92483
292.93417
292.94305
292.94661
293.7588
293.71918
293.62626
293.52106
293.42203
293.3326
293.25159
293.17705
293.1076
293.04225
292.98015
292.92075
292.86365
292.80844
292.75445
292.70084
292.64635
292.59415
292.56487
292.59796
292.68901
292.75292
292.79499
292.82927
292.85906
292.88419
292.90687
292.92293
292.93184
292.94034
292.94243
293.73555
293.70404
293.62055
293.52022
293.42347
293.33546
293.25575
293.18263
293.11462
293.05058
292.98956
292.93086
292.87403
292.81866
292.76416
292.70983
292.65458
292.60133
292.56781
292.59362
292.68391
292.7497
292.79229
292.82682
292.85687
292.88224
292.90473
292.92081
292.92925
292.93781
292.93843
293.71384
293.68834
293.61422
293.51931
293.42514
293.33862
293.26018
293.18842
293.1218
293.05907
292.99914
292.94122
292.88476
292.82935
292.77445
292.71943
292.6634
292.60905
292.57183
292.58985
292.67857
292.74637
292.78951
292.82426
292.85458
292.88017
292.90248
292.91851
292.92644
292.93546
292.93358
293.69349
293.67207
293.60704
293.51811
293.42698
293.34218
293.26508
293.19465
293.12936
293.06789
293.00906
292.95195
292.89593
292.84055
292.78531
292.72966
292.67285
292.61725
292.57658
292.58715
292.67306
292.74295
292.78665
292.8216
292.85216
292.87799
292.9001
292.91601
292.92344
292.93339
292.92884
293.67553
293.65592
293.59902
293.51666
293.42916
293.34641
293.27076
293.20163
293.13761
293.07731
293.01951
292.96318
292.90762
292.85232
292.79681
292.74056
292.68298
292.62613
292.58207
292.58546
292.6674
292.73943
292.78372
292.81884
292.84964
292.87567
292.89761
292.91333
292.92033
292.93156
292.92431
293.66052
293.64175
293.59169
293.51545
293.43194
293.35162
293.27761
293.20977
293.14691
293.08766
293.03074
292.97511
292.91996
292.86474
292.80898
292.75215
292.69383
292.63592
292.58851
292.58484
292.6617
292.73583
292.78073
292.81599
292.84698
292.87321
292.89498
292.91043
292.91715
292.92995
292.91892
293.64816
293.62922
293.5847
293.51595
293.43696
293.35903
293.28647
293.2197
293.15775
293.0993
293.04307
292.98796
292.93311
292.87792
292.82189
292.76452
292.70547
292.64658
292.59605
292.58536
292.65606
292.73217
292.77769
292.81306
292.8442
292.87059
292.89221
292.90727
292.91389
292.9285
292.91391
293.64113
293.62132
293.58009
293.51748
293.4436
293.36871
293.29779
293.23198
293.17065
293.11266
293.05681
293.00197
292.94724
292.89197
292.83563
292.77774
292.71804
292.65825
292.60502
292.58699
292.65062
292.72846
292.77462
292.81003
292.84129
292.86781
292.88928
292.90389
292.91057
292.92709
292.90873
293.64225
293.62084
293.58088
293.52162
293.45217
293.38078
293.31192
293.24708
293.18611
293.1282
293.07228
293.01736
292.96252
292.90701
292.8503
292.79192
292.73178
292.67126
292.6155
292.58962
292.64543
292.72474
292.77152
292.80693
292.83823
292.86485
292.88618
292.90026
292.90717
292.92555
292.90344
293.65022
293.62693
293.58802
293.53294
293.46722
293.3982
293.33052
293.26597
293.20475
293.14632
293.08983
293.03436
292.97906
292.92314
292.86598
292.80715
292.74668
292.68555
292.62664
292.59304
292.64101
292.72101
292.7684
292.80375
292.83503
292.8617
292.8829
292.89632
292.90372
292.92393
292.89904
293.66787
293.64174
293.60236
293.54955
293.48686
293.42005
293.35325
293.28855
293.22655
293.16709
293.10953
293.05309
292.99695
292.94038
292.88267
292.82335
292.7624
292.70031
292.63878
292.59845
292.63741
292.71732
292.76529
292.80053
292.83168
292.85834
292.87941
292.89214
292.90007
292.92218
292.89626
293.68886
293.66089
293.62045
293.56831
293.50834
293.44398
293.37836
293.31363
293.25078
293.19005
293.13113
293.07341
293.01616
292.95868
292.90031
292.84042
292.77881
292.71559
292.65238
292.60571
292.63421
292.71358
292.76218
292.79721
292.82821
292.85476
292.87572
292.88767
292.89623
292.92035
292.8965
293.70644
293.67717
293.63684
293.5871
293.52998
293.46805
293.40389
293.33953
293.27614
293.21428
293.154
293.09491
293.03642
292.97792
292.91875
292.85824
292.79593
292.73171
292.66701
292.61488
292.63167
292.70986
292.75905
292.79387
292.82453
292.85091
292.87177
292.88295
292.89209
292.91843
292.89895
293.71489
293.68635
293.64874
293.6024
293.54866
293.48967
293.42762
293.36432
293.30102
293.23854
293.17722
293.11693
293.0573
292.99778
292.93778
292.87664
292.81367
292.74853
292.68232
292.62584
292.63111
292.70599
292.75597
292.79041
292.82071
292.84678
292.86754
292.87802
292.88763
292.91649
292.90179
293.71317
293.68789
293.65411
293.612
293.5625
293.50721
293.44798
293.38647
293.32401
293.26158
293.19976
293.1387
293.07819
293.01785
292.95712
292.89538
292.83186
292.76597
292.69846
292.63788
292.63273
292.70222
292.75273
292.78688
292.81668
292.8423
292.8628
292.87284
292.88288
292.91447
292.90502
293.70226
293.68118
293.65235
293.61548
293.571
293.52006
293.46424
293.40515
293.34418
293.28246
293.22076
293.15942
293.09846
293.0376
292.97639
292.9142
292.8503
292.78393
292.71561
292.6514
292.63503
292.69888
292.74973
292.78321
292.8123
292.8374
292.8577
292.86739
292.87776
292.91237
292.90897
293.68398
293.66735
293.6439
293.61292
293.57419
293.52831
293.47651
293.42034
293.36132
293.30077
293.23966
293.17852
293.11752
293.05653
292.99514
292.93279
292.86871
292.80219
292.73336
292.66639
292.63832
292.69523
292.74617
292.77934
292.80785
292.83211
292.85196
292.86162
292.87245
292.91023
292.91336
293.66037
293.64782
293.62962
293.60468
293.57221
293.53208
293.48498
293.43228
293.37562
293.31656
293.25633
293.1957
293.13501
293.07421
293.01298
292.95076
292.8868
292.82036
292.75128
292.68245
292.64283
292.69144
292.74315
292.77539
292.80286
292.82619
292.8457
292.8554
292.86708
292.90808
292.91796
293.63516
293.62548
293.61136
293.59164
293.56513
293.53107
293.48941
293.44098
293.38729
293.3301
293.27096
293.211
293.15078
293.0904
293.02959
292.96778
292.9042
292.83804
292.76884
292.69862
292.64978
292.68749
292.73906
292.77109
292.79736
292.81976
292.83872
292.84865
292.86123
292.90469
292.92177
293.6115
293.6032
293.59162
293.57562
293.55391
293.52532
293.48921
293.44568
293.39578
293.34114
293.28355
293.22447
293.16485
293.10502
293.04479
292.98359
292.92061
292.85493
292.78588
292.71469
292.6579
292.68315
292.73532
292.76672
292.7921
292.81285
292.83087
292.84128
292.85504
292.90045
292.92207
293.59511
293.58736
293.57661
293.56211
293.54293
293.51797
293.48627
293.44727
293.40134
293.34971
293.29411
293.23623
293.17736
293.11813
293.05853
292.99805
292.93581
292.87079
292.80208
292.73025
292.6677
292.68011
292.73167
292.76223
292.785
292.80483
292.82244
292.83323
292.84765
292.8956
292.91783
293.58212
293.57496
293.56559
293.55306
293.53615
293.51368
293.48468
293.44872
293.40593
293.357
293.30337
293.24675
293.18865
293.13
293.07098
293.01119
292.94974
292.8855
292.81738
292.74546
292.67863
292.6771
292.72719
292.75663
292.77797
292.79686
292.81288
292.82441
292.83929
292.88799
292.91178
293.57652
293.56887
293.55926
293.54703
293.53126
293.51076
293.48439
293.45124
293.41095
293.36418
293.31221
293.2567
293.19927
293.14106
293.08248
293.02323
292.96247
292.89903
292.83171
292.7602
292.69041
292.67522
292.72105
292.75104
292.77104
292.78787
292.8029
292.81471
292.82929
292.87676
292.9078
293.57446
293.56708
293.5578
293.54597
293.53073
293.51109
293.48592
293.45429
293.41591
293.37113
293.32081
293.26636
293.2095
293.15158
293.09323
293.03433
292.97411
292.91139
292.84486
292.77386
292.70159
292.6741
292.71562
292.74447
292.76262
292.77773
292.79224
292.80422
292.81822
292.86319
292.90379
293.56812
293.56137
293.55274
293.5416
293.52716
293.50856
293.4849
293.45533
293.41922
293.37651
293.32799
293.27496
293.219
293.16148
293.1033
293.04458
292.98471
292.92255
292.85672
292.78622
292.71292
292.67379
292.70931
292.73677
292.75425
292.7681
292.7806
292.7925
292.80595
292.84909
292.8966
293.5542
293.54843
293.54094
293.53113
293.51823
293.50138
293.47968
293.45233
293.41877
293.37886
293.33282
293.28164
293.227
293.17028
293.11245
293.05392
292.99431
292.93259
292.86736
292.79739
292.72372
292.67406
292.70177
292.72982
292.74487
292.75695
292.76938
292.78025
292.79176
292.8354
292.88526
293.53011
293.52545
293.51934
293.51121
293.50039
293.48605
293.46726
293.44311
293.41283
293.37588
293.33269
293.28445
293.23214
293.17701
293.12013
293.0621
293.00285
292.94155
292.87691
292.80759
292.73404
292.67546
292.69479
292.72156
292.73492
292.74702
292.75775
292.76697
292.77643
292.82228
292.86958
293.49389
293.4902
293.48537
293.47895
293.47035
293.45884
293.44351
293.42333
293.39735
293.36532
293.32723
293.28324
293.23422
293.18143
293.12608
293.06896
293.01026
292.94948
292.88549
292.81695
292.74376
292.67847
292.68802
292.71347
292.72582
292.73631
292.74524
292.75255
292.75893
292.81133
292.85153
293.45001
293.4467
293.44256
293.43727
293.43043
293.42143
293.40953
293.3938
293.3734
293.34739
293.31515
293.27659
293.23219
293.18293
293.12998
293.07436
293.01658
292.9565
292.89326
292.82561
292.75298
292.68376
292.6806
292.70602
292.71664
292.72499
292.73361
292.73854
292.74085
292.80143
292.8389
293.40639
293.40289
293.39878
293.39382
293.3877
293.37996
293.37008
293.35747
293.34134
293.32072
293.29461
293.2624
293.22398
293.17977
293.13064
293.0776
293.0215
292.96256
292.90027
292.83365
292.76173
292.68911
292.67382
292.69758
292.70728
292.71524
292.72166
292.72381
292.72468
292.78981
292.8273
293.37143
293.36719
293.3625
293.3572
293.35113
293.34402
293.3354
293.32459
293.31087
293.29352
293.27176
293.24469
293.21169
293.17266
293.12798
293.07841
293.02476
292.96747
292.90645
292.84099
292.76993
292.69504
292.66771
292.68873
292.69869
292.70472
292.70914
292.70917
292.70954
292.77558
292.8163
293.35313
293.3475
293.34142
293.33485
293.3277
293.3198
293.3109
293.30054
293.28805
293.27259
293.25325
293.22931
293.20011
293.16514
293.12435
293.07806
293.02688
292.97138
292.91171
292.8474
292.77732
292.70198
292.66252
292.67948
292.68875
292.69298
292.6956
292.69349
292.69474