/*--------------------------------*- C++ -*----------------------------------*\
| =========                 |                                                 |
| \\      /  F ield         | OpenFOAM: The Open Source CFD Toolbox           |
|  \\    /   O peration     | Version:  2406                                  |
|   \\  /    A nd           | Website:  www.openfoam.com                      |
|    \\/     M anipulation  |                                                 |
\*---------------------------------------------------------------------------*/
FoamFile
{
    version     2.0;
    format      ascii;
    arch        "LSB;label=32;scalar=64";
    class       volScalarField;
    location    "0.009";
    object      nut;
}
// * * * * * * * * * * * * * * * * * * * * * * * * * * * * * * * * * * * * * //

dimensions      [0 2 -1 0 0 0 0];

internalField   nonuniform List<scalar> 
8260
(
0.034208323
0.038832925
0.044259765
0.050401003
0.057114023
0.064246561
0.071607905
0.078942281
0.085904887
0.092007459
0.096564255
0.098635886
0.096959011
0.089957406
0.075892181
0.053764749
0.028813753
0.013251118
0.0083152205
0.0068211021
0.00601442
0.0054679118
0.0050602896
0.0047800908
0.0045558987
0.0043952251
0.0042939773
0.0042175766
0.0041676203
0.0041351634
0.0041130139
0.040442347
0.04519867
0.050425263
0.0561865
0.062442042
0.069077485
0.075913457
0.082693943
0.089068359
0.094540891
0.098401033
0.099689754
0.097127955
0.089149092
0.074063946
0.051295898
0.026421956
0.012441099
0.0081001679
0.0067388991
0.0059675076
0.0054349014
0.0050409287
0.0047694247
0.004549371
0.00439168
0.0042918946
0.0042162329
0.0041666838
0.0041345092
0.0041126753
0.047599336
0.052176614
0.05714784
0.062545463
0.068343482
0.074450437
0.08070297
0.086852324
0.092544316
0.097272887
0.10031353
0.10068617
0.097097053
0.087996858
0.071776326
0.048292923
0.023995235
0.011611037
0.0079373768
0.0066991224
0.0059422921
0.0054170745
0.0050307391
0.0047638283
0.0045459499
0.0043898401
0.0042907948
0.0042154951
0.0041660221
0.0041339619
0.004112267
0.055765774
0.059976106
0.064571053
0.069531534
0.074817543
0.080337977
0.085934853
0.091363287
0.096265611
0.10012559
0.10220719
0.10151164
0.096733614
0.086351292
0.068875492
0.044678425
0.02145938
0.010880031
0.007806859
0.0066387668
0.0058988318
0.0053855709
0.0050122805
0.0047534138
0.004539508
0.0043863849
0.0042886359
0.0042140575
0.0041649461
0.0041331676
0.0041117845
0.064939499
0.068641536
0.07275338
0.077177277
0.081861204
0.086706816
0.091552664
0.096151083
0.10013787
0.10298615
0.10394805
0.10200893
0.095857757
0.084014839
0.06516732
0.040364301
0.018828658
0.010177245
0.0076588135
0.0065818806
0.0058594992
0.0053579349
0.0049962595
0.0047443811
0.0045339586
0.0043834643
0.0042868307
0.0042128641
0.0041639665
0.0041323815
0.0041112309
0.074949803
0.078084905
0.081615712
0.085401251
0.089379548
0.093443368
0.097423338
0.10106376
0.10399008
0.10566302
0.10532242
0.10194067
0.094211218
0.080718269
0.060408681
0.035297322
0.016465752
0.0095328365
0.0075242073
0.0065126367
0.0058079356
0.0053209649
0.0049742634
0.0047317113
0.004526111
0.0043792995
0.0042841881
0.0042111253
0.00416265
0.004131371
0.0041105927
0.085491192
0.08802458
0.090898851
0.093956546
0.097127584
0.10029615
0.10328337
0.10582266
0.10752641
0.10784125
0.10599451
0.10094982
0.091423137
0.076095241
0.054306449
0.029531979
0.014278311
0.0089548255
0.0073807844
0.0064399571
0.0057550842
0.005284097
0.0049523711
0.0047189822
0.0045182727
0.0043752274
0.0042815856
0.0042094368
0.0041613171
0.0041302962
0.0041098575
0.096058486
0.097963615
0.10012125
0.10237438
0.10464429
0.1068058
0.10866935
0.1099558
0.11026303
0.10902279
0.10545088
0.098509005
0.086969289
0.069659307
0.046552812
0.023357128
0.012281118
0.0084958826
0.0072420925
0.0063551384
0.0056910305
0.0052389881
0.0049250162
0.004702751
0.0045082806
0.0043699977
0.0042781673
0.0042072321
0.0041596566
0.0041289857
0.0041090134
0.10584702
0.10710143
0.10849232
0.1098748
0.11115946
0.1122096
0.11282293
0.11270592
0.11144083
0.10844517
0.10292645
0.09385564
0.080126486
0.060800573
0.036976956
0.018019732
0.010613748
0.0081780655
0.0070887416
0.0062618579
0.0056229236
0.0051917921
0.0048963764
0.0046853808
0.0044976665
0.0043645577
0.0042745385
0.0042049423
0.0041578994
0.0041275577
0.0041080517
0.11359577
0.11418921
0.11477349
0.1152321
0.11546221
0.11531274
0.11456547
0.11290975
0.10991171
0.10497777
0.097315369
0.085921255
0.069937638
0.048876565
0.026060126
0.01399298
0.009333666
0.007835437
0.0069224022
0.0061532709
0.0055433879
0.0051360127
0.004862208
0.0046641076
0.0044847522
0.0043578453
0.0042699799
0.0042020869
0.0041557851
0.0041258638
0.0041069633
0.1174076
0.11734005
0.11710218
0.11660907
0.11574239
0.11433451
0.11214835
0.10885432
0.10400499
0.097006398
0.087087802
0.073287871
0.055296875
0.033604109
0.01757281
0.01105416
0.0085567434
0.0075766157
0.00673606
0.006031604
0.0054582463
0.0050763079
0.0048260249
0.0046409496
0.004470732
0.0043505103
0.0042649302
0.004198993
0.0041534856
0.0041239783
0.0041057337
0.11450805
0.11377133
0.11273339
0.11131062
0.10936259
0.1066997
0.1030636
0.098107546
0.091384361
0.082334752
0.070283298
0.054253689
0.035412533
0.020329961
0.01248712
0.0092106252
0.0081464141
0.0072154501
0.0065222072
0.0058860078
0.0053620548
0.0050080034
0.0047840198
0.0046138537
0.0044542487
0.0043414459
0.0042586562
0.004195192
0.0041507315
0.0041217307
0.0041043369
0.10100292
0.099699491
0.097960774
0.095701292
0.092743793
0.088893444
0.083881503
0.077351777
0.068919867
0.058193728
0.044998901
0.031651192
0.02037394
0.01314375
0.0096301673
0.0084739255
0.0074888984
0.0069077043
0.0062809591
0.0057308324
0.0052540742
0.0049369406
0.0047389416
0.0045850136
0.0044364625
0.0043311901
0.0042514319
0.0041909672
0.0041476239
0.0041191473
0.0041024297
0.072054526
0.070216954
0.06792873
0.065214866
0.062002988
0.058117939
0.053394411
0.047680803
0.040974262
0.033337306
0.025070658
0.017636502
0.012350875
0.0095330864
0.0083988647
0.0077630992
0.0070910509
0.0064720126
0.0059988965
0.0055465984
0.0051433047
0.0048576269
0.0046874132
0.0045519098
0.0044159562
0.0043188257
0.0042425659
0.0041858238
0.0041438487
0.0041160459
0.0040999009
0.041258552
0.040072763
0.038602329
0.036837731
0.034651235
0.031953032
0.028793335
0.02541672
0.021745425
0.017829205
0.013877743
0.010652176
0.008802207
0.0079923484
0.0078208824
0.007023231
0.0063821885
0.0060744236
0.0057076585
0.0053629533
0.0050212808
0.0047781684
0.0046340144
0.0045160415
0.0043939631
0.0043052809
0.0042322633
0.0041800508
0.0041394681
0.0041124698
0.0040969907
0.020430813
0.019999685
0.01936079
0.018545279
0.017520905
0.01627736
0.014844191
0.013325917
0.01177519
0.010219475
0.0088259048
0.0077781757
0.0073211303
0.0074098055
0.0068506021
0.0064374336
0.0061079403
0.0056466891
0.0053837294
0.0051518303
0.0049170884
0.0046897807
0.0045776676
0.0044753666
0.0043688295
0.0042896914
0.0042202131
0.0041729541
0.0041342395
0.0041083069
0.0040938465
0.010635704
0.010529539
0.010312268
0.010009381
0.0096304164
0.0091841334
0.0087027435
0.0082071343
0.0077153244
0.0072342801
0.0069979031
0.0067612127
0.0067549378
0.0064271621
0.0063587572
0.0060464694
0.0056512287
0.0053359717
0.0051233851
0.0049953706
0.0048015555
0.0046118726
0.0045225756
0.0044332568
0.0043428694
0.0042723463
0.0042069299
0.0041653171
0.004128274
0.0041037396
0.004090684
0.0070056662
0.0069765541
0.0069108318
0.0068192521
0.0067070362
0.0065568351
0.0064445752
0.006358921
0.0063174354
0.0063166128
0.0062330513
0.0061368042
0.0059840015
0.0058417661
0.005650118
0.0055239921
0.0054159759
0.0051550758
0.0049743866
0.0048611272
0.004709029
0.0045506926
0.0044619364
0.0043878736
0.0043136541
0.0042530253
0.0041924263
0.004156131
0.0041214949
0.0040987655
0.0040864489
0.0058027682
0.0057721078
0.0057479762
0.0057295188
0.0057217151
0.0057323183
0.0057781539
0.005766316
0.0057734061
0.0057607034
0.0057569417
0.005713761
0.0056069394
0.0054745372
0.0053111227
0.0052883995
0.0051611794
0.0050038398
0.0048778034
0.004789273
0.0046552673
0.0044902533
0.0043996033
0.0043471519
0.0042852793
0.0042310806
0.0041784959
0.0041465228
0.0041141459
0.0040931744
0.0040819037
0.0053338899
0.0053349133
0.0053386941
0.0053477832
0.0053661056
0.0053916324
0.0053695355
0.0053456619
0.0053026896
0.0052447195
0.0051972464
0.0051882622
0.0052165386
0.0051788338
0.0050776461
0.0049489388
0.0048927844
0.004783386
0.0047426343
0.004695848
0.0045770152
0.004447532
0.0043371555
0.0043023851
0.004253393
0.0042093762
0.0041637247
0.0041351454
0.0041062847
0.0040872499
0.0040771214
0.0049658477
0.0049615227
0.0049532464
0.004934434
0.0049067673
0.0048679509
0.0048689374
0.0048681625
0.0048601764
0.0048476033
0.0048338798
0.0048070938
0.0047657743
0.0047668757
0.0047984805
0.0047739066
0.0046678476
0.0045909641
0.0045422002
0.0045169075
0.0044994294
0.0043935931
0.0042850454
0.0042664514
0.0042246704
0.004184289
0.004151249
0.0041235547
0.0040981121
0.0040813935
0.004071829
0.0046222849
0.0046225043
0.0046207633
0.004616869
0.0046140192
0.0046209932
0.0046315187
0.0046306676
0.0046268232
0.0046131651
0.004574503
0.0045452381
0.004520337
0.0045098233
0.0044902408
0.0044802518
0.0045060194
0.0044783916
0.0044143086
0.0043512902
0.0043411775
0.004344831
0.004247885
0.0042193396
0.0041983479
0.0041628544
0.0041368847
0.004110752
0.0040907448
0.0040754385
0.0040667586
0.0044388561
0.0044394119
0.0044378615
0.0044342727
0.0044273364
0.0044162132
0.0044048137
0.0044020082
0.0043974354
0.0043930419
0.0043889906
0.0043884393
0.0043754132
0.0043543239
0.0043427394
0.0043298898
0.0043335278
0.0043455545
0.0043311444
0.0042736603
0.0042453111
0.0042523422
0.0042179218
0.0041817396
0.0041754557
0.0041406319
0.0041249856
0.0040995773
0.004082961
0.0040694001
0.004061582
0.0042810951
0.0042827299
0.0042829404
0.004282073
0.0042807411
0.0042804513
0.0042847355
0.0042876643
0.004287684
0.0042858074
0.0042798591
0.004272883
0.0042671718
0.0042607185
0.0042487593
0.0042487597
0.0042399871
0.0042372165
0.0042213146
0.0042111562
0.0041918354
0.0041789745
0.0041882026
0.0041446012
0.0041550521
0.0041260449
0.004109634
0.0040881792
0.0040759147
0.0040634387
0.0040568246
0.0041995044
0.0042010711
0.0042011677
0.0042000211
0.0041976562
0.0041940144
0.0041886777
0.0041837318
0.0041828507
0.0041833849
0.0041841646
0.0041841241
0.0041839468
0.0041857522
0.0041919849
0.004180604
0.0041729952
0.0041663759
0.0041643003
0.0041529372
0.0041612895
0.0041432722
0.004156371
0.0041262717
0.0041265369
0.0041134586
0.0040954177
0.004080619
0.0040681075
0.0040573609
0.0040515076
0.0041246911
0.0041251544
0.0041249123
0.0041242423
0.0041236539
0.0041234541
0.004123904
0.0041264429
0.0041304823
0.0041349034
0.0041396721
0.0041427441
0.0041425682
0.0041396957
0.0041363259
0.0041374531
0.0041288825
0.0041265884
0.0041305998
0.004124037
0.0041373072
0.0041251166
0.0041229448
0.004114869
0.004093761
0.0040982895
0.0040804217
0.0040709111
0.0040598541
0.0040517997
0.0040462072
0.0040864791
0.0040869273
0.0040869227
0.004086724
0.0040866236
0.004086716
0.0040869045
0.004086915
0.0040867211
0.0040874072
0.0040892236
0.0040909203
0.0040910072
0.0040899672
0.0040897911
0.0040918039
0.0040973033
0.0040952053
0.004094422
0.0041026973
0.0040929113
0.0041047163
0.0040891709
0.0041014956
0.0040773263
0.0040763919
0.004070516
0.0040616082
0.0040516766
0.0040465693
0.0040428636
0.0040579322
0.0040583962
0.0040586564
0.0040588465
0.0040591168
0.0040595086
0.0040600103
0.0040606067
0.0040613051
0.0040621848
0.0040635638
0.0040654362
0.0040674004
0.004067943
0.0040675816
0.0040675679
0.0040682501
0.0040696079
0.0040697042
0.0040732992
0.0040697903
0.0040738061
0.0040701132
0.0040712618
0.0040677936
0.0040605021
0.0040571043
0.0040520467
0.00404702
0.0040429551
0.0040409254
0.0040468621
0.0040471012
0.0040471971
0.0040472625
0.0040473747
0.004047548
0.0040477789
0.0040480657
0.004048412
0.004048792
0.0040491315
0.0040497718
0.0040510304
0.0040527821
0.0040537491
0.0040544014
0.0040545926
0.0040559208
0.0040587297
0.0040561498
0.0040571962
0.0040557985
0.0040583143
0.0040555502
0.004055821
0.0040527929
0.0040501975
0.0040472957
0.0040440843
0.0040410743
0.0040373345
0.0040415684
0.004041722
0.0040417839
0.0040417975
0.0040418075
0.004041837
0.0040418883
0.0040419609
0.0040420677
0.0040422296
0.0040424857
0.0040435347
0.0040447658
0.0040456893
0.004045789
0.0040456274
0.0040457852
0.0040460045
0.0040465566
0.004047236
0.0040488573
0.0040482983
0.0040503325
0.0040492984
0.0040489562
0.0040480709
0.004046687
0.0040450071
0.0040407126
0.004037419
0.0040371534
0.0040366873
0.0040368537
0.0040370501
0.0040372833
0.0040375608
0.0040378861
0.0040382573
0.0040386597
0.0040390642
0.0040394565
0.0040399057
0.0040406098
0.0040415462
0.0040419169
0.0040419368
0.0040417017
0.0040415292
0.0040415908
0.0040421097
0.004043357
0.004044135
0.0040448398
0.004044707
0.0040455691
0.0040450572
0.0040447371
0.0040439586
0.0040419164
0.0040400645
0.0040392598
0.0040380047
0.00078630462
0.0016872727
0.0033562559
0.0058180761
0.0090658514
0.013187996
0.018268277
0.024351151
0.031499376
0.03927385
0.047795706
0.056681472
0.065268887
0.072521998
0.076882244
0.076128643
0.067459234
0.049757334
0.028450336
0.01372066
0.0078771385
0.006166247
0.0054158324
0.004966895
0.0046611765
0.0044616775
0.0043343267
0.0042479159
0.0041921755
0.0041534766
0.0041228749
0.0019214331
0.0038227439
0.0062720414
0.0092213759
0.012832389
0.017202567
0.022393341
0.028691863
0.035646284
0.043362748
0.051710544
0.060254423
0.068288393
0.074723968
0.077952469
0.075727123
0.065330288
0.046325768
0.025125965
0.012119378
0.0074391536
0.0060357076
0.0053624799
0.0049391977
0.0046458689
0.0044530078
0.0043296326
0.0042451194
0.0041905943
0.0041525115
0.0041227938
0.0034896734
0.0055048911
0.0080056482
0.011148834
0.015045297
0.019772773
0.025423843
0.031889946
0.039038262
0.046866287
0.05514234
0.063408287
0.070927306
0.076569515
0.078687534
0.075027942
0.06300736
0.042992519
0.022496798
0.011082662
0.0071042932
0.0059788311
0.0053385536
0.0049265897
0.0046387921
0.0044488577
0.004327322
0.0042435651
0.0041895416
0.0041517171
0.0041226962
0.0050087741
0.0072447657
0.010070887
0.013555482
0.017735921
0.022726162
0.028593726
0.035107174
0.042354322
0.050200011
0.058349887
0.066307614
0.073293671
0.07813343
0.079143985
0.074079897
0.060531121
0.039784589
0.0202003
0.010067859
0.0069237454
0.0059097228
0.0053022042
0.0049065476
0.0046274103
0.0044421536
0.004323574
0.0042412011
0.0041881153
0.0041508003
0.0041225829
0.0065299633
0.0090749591
0.012192955
0.015932041
0.020374637
0.025629401
0.031574778
0.038241162
0.045577127
0.053400914
0.061386857
0.069004666
0.075433415
0.07945621
0.079359829
0.07291952
0.057938964
0.03670662
0.018166443
0.0094352353
0.0067409404
0.0058603889
0.0052786446
0.0048938672
0.0046202597
0.0044379141
0.0043211869
0.0042395631
0.004186991
0.0041499858
0.0041224265
0.0081249655
0.010928636
0.014287319
0.018266618
0.023004777
0.028437894
0.034538949
0.04133522
0.048719981
0.056484057
0.064273186
0.071522683
0.077371966
0.080565389
0.079364958
0.071572884
0.055271592
0.033757217
0.016370718
0.0087566117
0.0066208901
0.0058106904
0.0052502191
0.0048779459
0.0046111268
0.0044324276
0.0043180713
0.0042375265
0.0041856717
0.0041491026
0.0041222164
0.0096792392
0.012733745
0.016351601
0.020619654
0.025581267
0.031183892
0.037459905
0.044364444
0.051770803
0.059448282
0.067015164
0.073873739
0.079126553
0.08148308
0.079185628
0.070073405
0.052565422
0.030963825
0.014824181
0.0083469467
0.0065106738
0.0057692688
0.0052285894
0.0048662209
0.0046044845
0.0044284135
0.0043157764
0.0042359171
0.004184527
0.0041482794
0.0041219625
0.011187155
0.014515136
0.01840279
0.022965122
0.028108077
0.033900055
0.040325948
0.047315055
0.054721133
0.062290793
0.06961551
0.076066303
0.080711656
0.082229747
0.078847635
0.068458936
0.049850546
0.028370298
0.013563776
0.0079355531
0.0064296083
0.0057300911
0.0052055947
0.0048533748
0.0045970956
0.0044238712
0.0043131537
0.0042341355
0.004183293
0.0041474209
0.0041216668
0.012692474
0.016277679
0.020440916
0.025229151
0.030581441
0.036557264
0.043118409
0.050175559
0.057564
0.065008901
0.072076468
0.078108341
0.082141633
0.08282653
0.078381954
0.0667618
0.047181031
0.026009799
0.012503015
0.0076688161
0.006356846
0.0056954266
0.0051865235
0.0048430863
0.0045912665
0.0044202492
0.0043110489
0.0042326189
0.0041821672
0.0041466006
0.0041213276
0.014150655
0.017996934
0.022436502
0.027424075
0.032993499
0.039145159
0.045827828
0.052937941
0.060293948
0.067600869
0.074401085
0.080008646
0.083431817
0.083295776
0.077822237
0.065018284
0.044584666
0.023900999
0.011667352
0.0074374648
0.0062990372
0.0056634176
0.0051676041
0.0048326996
0.0045853204
0.0044164775
0.0043088356
0.0042310503
0.0041810093
0.0041457663
0.0041209435
0.015593791
0.019693479
0.024370377
0.029566906
0.035344056
0.041656063
0.048445585
0.055595006
0.062906539
0.070066079
0.076593583
0.081777248
0.084598721
0.083661504
0.077197219
0.063265828
0.042091419
0.022054297
0.010966095
0.0072752197
0.0062470903
0.0056346257
0.005151236
0.0048240173
0.0045804334
0.0044133218
0.0043069702
0.0042296588
0.0041799226
0.0041449604
0.00412052
0.016994498
0.021348412
0.02623681
0.031652285
0.037622053
0.044079205
0.05096302
0.05814024
0.065398256
0.072404956
0.078659306
0.083425284
0.085659554
0.083952559
0.076537113
0.061538325
0.039741099
0.020471917
0.010424851
0.0071501299
0.0062032815
0.0056084399
0.0051356755
0.0048157111
0.0045757337
0.0044102131
0.0043051152
0.0042282773
0.0041788317
0.0041441547
0.0041200789
0.018369688
0.022955271
0.028050845
0.033671663
0.039808048
0.046405211
0.053372472
0.060567841
0.067766383
0.074618762
0.080604425
0.084964668
0.086633729
0.084188727
0.075867356
0.059871945
0.037561412
0.019143351
0.0099978578
0.0070525587
0.0061639616
0.0055849675
0.0051220282
0.0048086515
0.0045718075
0.0044075541
0.004303511
0.0042270248
0.0041777908
0.0041433731
0.0041196237
0.019714837
0.024509245
0.029808348
0.035617132
0.041896952
0.048628219
0.055665849
0.062872174
0.070009064
0.076710782
0.082437205
0.086412147
0.087541429
0.084389838
0.075211548
0.058291639
0.035574866
0.018053082
0.0096843471
0.0069778329
0.006129947
0.0055639381
0.0051095001
0.0048021728
0.0045681957
0.0044050471
0.0043019789
0.0042258139
0.0041767604
0.0041425999
0.0041191555
0.021039216
0.026017328
0.031503686
0.037483466
0.043912468
0.050719994
0.057838805
0.065052212
0.072127599
0.078688854
0.084170265
0.087779363
0.088400388
0.084587821
0.074609289
0.056816824
0.033797791
0.017186108
0.0094678622
0.0069218921
0.0060998281
0.0055453154
0.0050986097
0.0047966873
0.0045651779
0.0044029013
0.0043006413
0.0042247053
0.0041757698
0.0041418501
0.0041186725
0.022320384
0.027474135
0.033129766
0.039261019
0.045818796
0.052725551
0.059866648
0.067101292
0.07412283
0.080548634
0.085804531
0.089074538
0.089228518
0.084809338
0.074094797
0.055470424
0.032240834
0.016533258
0.0093199123
0.0068767805
0.0060739397
0.0055289113
0.005088994
0.0047918621
0.0045625089
0.0044009638
0.0042994045
0.0042236536
0.0041747991
0.0041411158
0.0041181728
0.0235023
0.028832711
0.034651239
0.040924785
0.047598564
0.054591241
0.061776398
0.068984497
0.075956601
0.0822815
0.08733823
0.090310782
0.090044646
0.085078764
0.073699325
0.054302738
0.030951021
0.015988833
0.0091613046
0.0068379556
0.006051851
0.0055146361
0.0050808778
0.0047878852
0.0045603174
0.0043993396
0.0042983282
0.0042226892
0.0041738637
0.0041404008
0.0041176565
0.024567847
0.03003623
0.035994359
0.042398062
0.049187268
0.056271037
0.063516886
0.07073849
0.07765928
0.083864665
0.088768478
0.091497459
0.090865195
0.085418253
0.073449961
0.053362586
0.02991657
0.015535114
0.0090281221
0.0068103887
0.0060337092
0.0055023423
0.0050740734
0.0047845912
0.0045584753
0.0043979509
0.0042973636
0.0042217892
0.0041729541
0.0041396999
0.0041171241
0.025688172
0.031217573
0.037249645
0.043736894
0.050607461
0.057762939
0.065063892
0.07231361
0.079221203
0.085361256
0.090123902
0.092619332
0.091702345
0.085847043
0.073369513
0.052682222
0.029123527
0.015155556
0.0089059939
0.0067887078
0.0060194726
0.0054919682
0.0050686572
0.0047820652
0.0045570452
0.0043968488
0.0042965394
0.0042209695
0.0041720792
0.0041390135
0.0041165764
0.026800266
0.032367428
0.038435849
0.044964823
0.051882246
0.059086185
0.066429316
0.073707441
0.080617335
0.086721019
0.091392649
0.093737984
0.092570863
0.086356281
0.073475636
0.052286728
0.028563087
0.014836412
0.0087985648
0.0067754083
0.0060092398
0.0054834913
0.0050645371
0.0047802354
0.0045559804
0.0043959976
0.0042958325
0.0042202196
0.0041712352
0.0041383374
0.0041160144
0.027878225
0.033453361
0.039527682
0.04606733
0.053002692
0.060235027
0.067609102
0.074916414
0.081843699
0.087941451
0.092567963
0.094817423
0.09347908
0.087017456
0.073775875
0.052201679
0.028236455
0.014558904
0.0086999998
0.0067696391
0.006003234
0.0054770172
0.0050617616
0.0047791514
0.0045553404
0.0043954225
0.0042952564
0.0042195467
0.0041704264
0.0041376692
0.0041154387
0.028914142
0.034462887
0.040509063
0.047029037
0.053954409
0.061200274
0.068620659
0.075982735
0.082960446
0.089070279
0.093671397
0.095864257
0.094426293
0.087800525
0.074306427
0.052446683
0.028167682
0.014298433
0.0086064766
0.0067731902
0.0060017565
0.0054726961
0.0050602917
0.0047787732
0.0045551092
0.0043950997
0.0042947926
0.0042189407
0.0041696475
0.0041370033
0.0041148501
0.029913601
0.035376008
0.041343896
0.04781095
0.054735508
0.062010046
0.069471675
0.076872193
0.083876215
0.090023673
0.094658478
0.096865327
0.09540976
0.088710106
0.075054937
0.05303739
0.028342631
0.014030622
0.0085126095
0.0067854942
0.0060036075
0.0054705537
0.0050600267
0.0047789248
0.0045551757
0.0043950069
0.0042944267
0.004218394
0.004168894
0.0041363359
0.0041142475
0.030880013
0.036164639
0.04196169
0.048295052
0.05514417
0.062392777
0.069867301
0.077320325
0.084407823
0.090649922
0.095380153
0.097669617
0.096266055
0.089573811
0.075841194
0.05375155
0.02875021
0.013669916
0.0084184794
0.0068022302
0.0060088677
0.0054701987
0.0050603573
0.0047794983
0.0045554942
0.0043950479
0.0042941248
0.0042178951
0.0041681625
0.0041356683
0.0041136261
0.00080756072
0.00163719
0.0032098765
0.0055427818
0.0086348812
0.012511733
0.017307864
0.023116848
0.030032509
0.037644309
0.046064254
0.054940006
0.063637707
0.071174888
0.076039157
0.076041706
0.068338186
0.051380049
0.029947673
0.014193107
0.0080035419
0.0062005958
0.0054293211
0.0049739625
0.004665234
0.004464313
0.0043359169
0.0042491139
0.0041929872
0.0041541116
0.0041227929
0.00085785821
0.0016864715
0.0032331791
0.005502877
0.0085106359
0.012324144
0.017046817
0.022765022
0.029562645
0.03709713
0.045387337
0.054156229
0.062828135
0.070426711
0.075467296
0.075791795
0.068588368
0.052114848
0.03073477
0.014536793
0.0080842448
0.0062199078
0.0054366547
0.004977744
0.004667427
0.0044661894
0.0043370905
0.0042499823
0.004193585
0.0041545307
0.0041227093
0.00091913972
0.0017383714
0.0032654096
0.0054954384
0.008446256
0.012184618
0.016809419
0.022410798
0.029057625
0.036480048
0.044662919
0.053349975
0.061990211
0.069643994
0.074858303
0.075509209
0.068817634
0.052861145
0.031570874
0.014923923
0.00817322
0.006241479
0.0054453097
0.0049824341
0.0046702245
0.0044678115
0.0043380992
0.0042508202
0.0041941732
0.0041550534
0.0041226443
0.00098836758
0.0017937105
0.0032976369
0.0054870364
0.0083802873
0.012042813
0.016569344
0.022047097
0.02854953
0.035853459
0.043923697
0.052521155
0.061123796
0.068825937
0.074210392
0.075191256
0.069021749
0.053620627
0.032453232
0.015353797
0.008276384
0.0062624889
0.0054524442
0.0049859193
0.0046722509
0.0044702627
0.0043396445
0.0042518915
0.0041949132
0.004155519
0.0041224836
0.0010678496
0.0018548918
0.0033318963
0.0054799274
0.0083151461
0.011901141
0.01632887
0.021683147
0.028039763
0.035220292
0.043171595
0.051672747
0.060229788
0.067972582
0.073522471
0.074835624
0.069196422
0.054388786
0.033370439
0.015827057
0.0083875354
0.0062897961
0.0054642013
0.0049925504
0.0046762942
0.0044721082
0.0043407965
0.0042528575
0.0041955872
0.004156067
0.0041224242
0.001161317
0.001924108
0.003369013
0.0054744831
0.0082519982
0.011761663
0.016090821
0.021323887
0.027531566
0.03458321
0.042408939
0.050806474
0.059309181
0.067084104
0.072793548
0.074439938
0.069339706
0.055159511
0.034325504
0.016349613
0.0085207581
0.006313624
0.0054716935
0.0049961719
0.0046784545
0.0044745448
0.0043423339
0.0042540082
0.0041963938
0.0041566553
0.0041223402
0.0012716839
0.0020051994
0.0034152256
0.0054773503
0.0081969233
0.011629704
0.015859587
0.020970235
0.027029226
0.033945725
0.041639067
0.049925607
0.058364777
0.066163054
0.072024701
0.074002374
0.069448301
0.055924118
0.035343662
0.016922166
0.008657555
0.006341918
0.0054820679
0.00500165
0.0046818183
0.00447719
0.0043439831
0.004255236
0.0041972681
0.0041572823
0.0041222886
0.0014064425
0.0021082763
0.0034742217
0.0054899381
0.0081509276
0.011506773
0.015637561
0.020626218
0.026541495
0.033313353
0.040868174
0.049036499
0.057401163
0.065214559
0.071218887
0.073521748
0.069518081
0.056679212
0.036425734
0.017551362
0.0088255549
0.0063722685
0.0054928877
0.0050073609
0.0046853785
0.0044800218
0.0043457865
0.0042565694
0.0041982209
0.0041579514
0.0041222863
0.0015674763
0.0022284493
0.0035513187
0.0055187924
0.0081205396
0.011399178
0.015430467
0.020295466
0.026054412
0.032687383
0.040098709
0.048141001
0.056424432
0.0642383
0.070374274
0.072995073
0.069544161
0.057424546
0.037551502
0.018242051
0.0090013783
0.0064054505
0.0055046996
0.0050135896
0.0046892524
0.0044831279
0.0043477107
0.0042579856
0.004199246
0.0041586653
0.0041223031
0.0017554945
0.0023761151
0.0036528661
0.0055703145
0.0081119732
0.0113129
0.015243957
0.019983675
0.025588051
0.032073531
0.03933553
0.04724391
0.055440668
0.06323752
0.06949212
0.07242119
0.069521963
0.058151298
0.038715868
0.01899925
0.0092101785
0.0064412062
0.0055167011
0.005019931
0.0046933408
0.0044864373
0.004349845
0.0042595518
0.0042003643
0.0041594312
0.0041223002
0.0019788376
0.00256003
0.0037881635
0.0056531062
0.0081330272
0.011255075
0.015084616
0.019697991
0.025152767
0.031482909
0.038584811
0.046349785
0.054442362
0.062214971
0.06857418
0.071799449
0.069447365
0.058843074
0.039912885
0.019827906
0.0094376166
0.0064807882
0.0055304744
0.0050272666
0.0046979142
0.0044901389
0.0043521085
0.0042612001
0.004201536
0.004160253
0.0041223044
0.0022395602
0.0027868275
0.003966795
0.0057780744
0.0081938774
0.011234804
0.014960942
0.019444666
0.02475011
0.030916275
0.037852204
0.045464152
0.053440917
0.061174668
0.067622793
0.071129724
0.069316615
0.059491331
0.041115453
0.02072571
0.0096989014
0.0065242378
0.0055438023
0.0050344349
0.0047027009
0.0044940261
0.0043546405
0.0042630511
0.0042028023
0.0041611454
0.0041223107
0.0025348794
0.003066255
0.0042077856
0.0059576721
0.0083049685
0.011261372
0.014882096
0.019231101
0.024383277
0.030365584
0.037140689
0.044592343
0.052441521
0.060121006
0.066640874
0.070412523
0.069126561
0.060089708
0.0423124
0.021696656
0.0099907088
0.0065719128
0.0055601135
0.0050433244
0.0047082091
0.00449847
0.0043573153
0.0042649576
0.0042040774
0.0041621094
0.0041223835
0.002867711
0.0034005621
0.0045041815
0.0062025359
0.00847756
0.011344728
0.014855665
0.019065752
0.024058668
0.029862981
0.036459175
0.043740415
0.051449569
0.059058169
0.065631792
0.06964908
0.068874693
0.060628352
0.043511723
0.022741653
0.010320657
0.0066273128
0.0055754925
0.0050520248
0.004713996
0.004503058
0.0043603012
0.0042671223
0.0042054631
0.0041631756
0.0041224888
0.0032563434
0.0038047117
0.0048775637
0.0065200151
0.0087212763
0.011494176
0.014889265
0.018956082
0.023782853
0.029408016
0.035822588
0.042915528
0.050470141
0.057984577
0.064599054
0.068841488
0.068560004
0.061096646
0.044706082
0.023857592
0.01069283
0.0066854857
0.0055946546
0.0050626422
0.0047206523
0.0045083803
0.004363478
0.0042692838
0.0042068237
0.0041643268
0.0041226803
0.0037337408
0.0043053037
0.0053563051
0.0069435102
0.0090490141
0.01171631
0.014987589
0.018906703
0.023560278
0.029000726
0.035216522
0.042120976
0.049509864
0.05692761
0.063549026
0.06799297
0.068183712
0.061488658
0.045890428
0.025046382
0.011109604
0.0067580221
0.0056146246
0.0050748317
0.0047280723
0.0045138583
0.004366938
0.0042717596
0.0042083694
0.004165631
0.0041229373
0.004324921
0.0049051757
0.0059238347
0.0074331819
0.0094533468
0.012009491
0.015149923
0.018917401
0.023391665
0.028640897
0.034645403
0.041358334
0.048572423
0.055877116
0.062486124
0.067107242
0.067748385
0.061807763
0.047055247
0.026295194
0.011583484
0.0068429459
0.0056363882
0.0050864611
0.0047359282
0.0045201394
0.0043707291
0.0042741814
0.0042099169
0.0041670117
0.004123286
0.0050556867
0.005614997
0.0065770627
0.007999115
0.0099211363
0.012362015
0.015367973
0.018981871
0.023273836
0.028329184
0.034129401
0.040632635
0.047659988
0.054829968
0.061413323
0.066187547
0.067253765
0.062058166
0.048202715
0.027641676
0.012110398
0.0069499202
0.0056661385
0.005105139
0.0047460546
0.0045267686
0.0043746371
0.0042769794
0.0042117857
0.0041685732
0.0041237114
0.0059207503
0.0064363289
0.0073229988
0.0086504594
0.010462159
0.012766774
0.015629857
0.019088233
0.023198251
0.028058737
0.033651497
0.03994165
0.046773597
0.053796182
0.060334263
0.065236708
0.066698158
0.062228505
0.049292398
0.029038201
0.012710495
0.0070682135
0.0056914141
0.0051172844
0.0047552224
0.0045340602
0.0043792115
0.0042797908
0.0042137347
0.0041700805
0.0041242603
0.0069281212
0.0073706986
0.0081509158
0.0093505899
0.011019819
0.01319632
0.015916072
0.019219333
0.023151294
0.027818336
0.033204081
0.039282879
0.04591148
0.052776627
0.059252042
0.06425786
0.06608325
0.062313315
0.050316834
0.030463329
0.013369717
0.0072128554
0.0057338477
0.0051424615
0.0047688311
0.0045420429
0.0043835612
0.0042830031
0.0042160556
0.0041716732
0.0041249424
0.0080352812
0.0083995209
0.009048737
0.010092351
0.011601308
0.013632277
0.016202914
0.019353057
0.023114813
0.027593805
0.032778002
0.038648212
0.045071994
0.051769849
0.058159862