/*--------------------------------*- C++ -*----------------------------------*\
| =========                 |                                                 |
| \\      /  F ield         | OpenFOAM: The Open Source CFD Toolbox           |
|  \\    /   O peration     | Version:  2406                                  |
|   \\  /    A nd           | Website:  www.openfoam.com                      |
|    \\/     M anipulation  |                                                 |
\*---------------------------------------------------------------------------*/
FoamFile
{
    version     2.0;
    format      ascii;
    arch        "LSB;label=32;scalar=64";
    class       volVectorField;
    location    "0.02";
    object      UMean;
}
// * * * * * * * * * * * * * * * * * * * * * * * * * * * * * * * * * * * * * //

dimensions      [0 1 -1 0 0 0 0];

internalField   nonuniform List<vector> 
92813
(
(40.193575 30.230834 -4.9059846e-21)
(41.058841 29.46586 1.653119e-20)
(41.88364 28.747458 -1.0073849e-20)
(42.654839 28.06173 -1.0215914e-20)
(43.365677 27.384117 -8.5049572e-21)
(44.025326 26.718255 6.795515e-21)
(44.640534 26.071051 5.3036505e-21)
(45.216919 25.446852 0)
(45.760445 24.848201 -2.9726356e-21)
(46.276616 24.276135 -1.1949882e-24)
(46.7705 23.730626 -1.4905801e-21)
(47.24691 23.210907 -1.0075394e-21)
(47.710213 22.715631 0)
(48.163858 22.242915 0)
(48.608402 21.790667 1.6833307e-22)
(49.04508 21.357044 -8.4896192e-26)
(49.473429 20.940298 -1.7672118e-21)
(49.890477 20.538922 -1.8554228e-21)
(50.292837 20.152222 2.4359268e-25)
(50.679378 19.779958 -8.5550921e-21)
(51.049651 19.422139 0)
(51.403148 19.079064 0)
(51.742639 18.749553 0)
(52.070051 18.432312 5.4259838e-21)
(52.386246 18.126194 -1.0714056e-20)
(52.691626 17.830042 -5.2978749e-21)
(52.986263 17.542697 0)
(53.269985 17.263003 0)
(53.542414 16.989798 5.200598e-21)
(53.802987 16.721915 -1.5591868e-20)
(54.05099 16.458155 -1.0421287e-20)
(54.285531 16.197287 5.2414905e-21)
(54.505428 15.938004 -1.5871574e-20)
(54.70931 15.679078 0)
(54.895838 15.419096 0)
(55.06343 15.156449 -1.6746217e-20)
(55.210044 14.889823 1.1477994e-20)
(55.334625 14.617296 -1.1870257e-20)
(55.434441 14.336734 1.2354687e-20)
(55.503806 14.045938 -3.2263233e-20)
(55.542477 13.746511 -4.7594698e-20)
(55.551317 13.431704 1.4506204e-20)
(55.524868 13.101505 3.8942772e-20)
(55.461171 12.754534 3.3647153e-20)
(55.359655 12.389669 9.1454326e-21)
(55.221057 12.007302 3.0029842e-20)
(55.04816 11.609046 0)
(54.846926 11.198702 0)
(54.628315 10.783621 0)
(54.409998 10.376403 5.8090665e-20)
(54.214156 9.9936445 6.2177547e-20)
(54.057998 9.6482066 6.5088052e-20)
(53.944244 9.3413687 1.6710072e-20)
(53.863294 9.0649772 -1.6942135e-20)
(53.802678 8.8092546 6.8225495e-20)
(53.753019 8.5671608 -8.5521967e-20)
(53.708877 8.3346675 -4.2781405e-20)
(53.667531 8.1097297 3.6766462e-25)
(53.627702 7.8913072 -1.448801e-19)
(53.588894 7.6788151 0)
(53.550976 7.4719403 1.2673129e-19)
(53.513748 7.2704533 -1.3439779e-19)
(53.477114 7.0740851 8.3429502e-21)
(53.441096 6.8826409 1.4076177e-19)
(53.405612 6.6959795 1.2316511e-19)
(53.370555 6.5138863 8.136571e-21)
(53.335975 6.3361909 1.1280354e-19)
(53.301911 6.162776 2.5515877e-19)
(53.268244 5.9934965 1.5776768e-20)
(53.235023 5.8281801 -7.7956313e-21)
(53.202293 5.6667364 1.3093363e-19)
(53.169941 5.5090331 -1.5211714e-20)
(53.138014 5.3549252 1.2762485e-19)
(53.106574 5.2043248 1.2591944e-19)
(53.075524 5.0571229 1.9957232e-25)
(53.044905 4.9131924 2.3047117e-19)
(53.014762 4.7724461 -7.0978891e-21)
(52.985029 4.6347908 2.1678815e-19)
(52.955737 4.500112 1.3775305e-20)
(52.926912 4.3683304 -6.7817846e-21)
(52.898533 4.2393553 -2.1362792e-19)
(52.870618 4.1130935 0)
(52.843172 3.9894654 -2.1330329e-19)
(52.816193 3.8683836 -1.9710571e-19)
(52.789699 3.7497721 3.1636754e-24)
(52.763682 3.633547 0)
(52.738147 3.5196355 -1.8741614e-19)
(52.713107 3.4079592 -5.94257e-21)
(52.688542 3.2984444 2.5175005e-24)
(52.664472 3.1910205 0)
(52.6409 3.085612 0)
(52.617813 2.9821552 -3.5454234e-19)
(52.595229 2.8805743 -4.0157123e-24)
(52.573151 2.7808049 -5.3442004e-21)
(52.551576 2.6827821 1.049743e-20)
(52.530511 2.5864314 3.1955017e-19)
(52.509964 2.4916981 3.2383135e-19)
(52.489934 2.3985034 -3.1301637e-19)
(52.470424 2.3067965 0)
(52.45144 2.2164958 -3.0642601e-19)
(52.432988 2.127553 0)
(52.415067 2.0398847 2.9056991e-19)
(52.39768 1.9534424 4.5259861e-21)
(52.380837 1.8681496 0)
(52.36453 1.7839446 -2.7892098e-19)
(52.348763 1.7007603 0)
(52.333546 1.6185264 2.6844001e-19)
(52.318888 1.5371675 -2.6552163e-19)
(52.304792 1.456618 4.0388681e-21)
(52.291269 1.376798 -1.9813384e-21)
(52.278324 1.2976403 0)
(52.265965 1.2190557 0)
(52.254198 1.1409707 4.7692358e-19)
(52.243035 1.0632904 -1.3927723e-26)
(52.232485 0.98593609 -4.5886013e-19)
(52.222563 0.90879794 0)
(52.213268 0.8318005 2.4061129e-24)
(52.204627 0.75480142 0)
(52.196618 0.67775462 -4.2614826e-19)
(52.18932 0.60043504 -2.1523378e-24)
(52.182664 0.52290719 0)
(52.176826 0.44469845 -4.0157602e-19)
(52.171596 0.36624278 3.9379682e-19)
(52.167397 0.28641562 0)
(52.163792 0.20661174 0)
(52.161564 0.12426113 3.714152e-19)
(52.159901 0.042574061 -3.5935311e-19)
(39.467197 29.746627 -6.0104202e-21)
(40.395604 29.012527 -1.7325596e-20)
(41.23857 28.358257 0)
(42.020591 27.727912 -1.0359959e-20)
(42.751961 27.106296 1.9687998e-20)
(43.438377 26.495368 -9.3846385e-21)
(44.08419 25.899809 6.6899986e-24)
(44.69351 25.322699 0)
(45.270607 24.766011 8.2491379e-21)
(45.819762 24.230886 1.5861772e-20)
(46.345181 23.717726 -2.173603e-24)
(46.850924 23.226256 1.4767568e-20)
(47.34065 22.755534 0)
(47.817137 22.303963 -6.9262264e-21)
(48.281723 21.869675 1.3450519e-20)
(48.734998 21.450956 -3.013544e-24)
(49.176535 21.046299 6.3701194e-21)
(49.604891 20.654558 6.2170325e-21)
(50.018456 20.275289 0)
(50.416488 19.908537 0)
(50.798851 19.554388 5.8430518e-21)
(51.165738 19.212897 1.1337214e-24)
(51.518362 18.88361 -5.6580572e-21)
(51.857864 18.565722 -5.581895e-21)
(52.184974 18.258242 1.1037716e-20)
(52.500082 17.960092 -5.4714123e-21)
(52.803295 17.670176 5.4346774e-21)
(53.09448 17.387383 1.0826415e-20)
(53.373301 17.110589 -5.4048417e-21)
(53.639227 16.838649 1.623648e-20)
(53.891558 16.570388 -5.4367898e-21)
(54.129399 16.304588 5.4799651e-21)
(54.351615 16.039879 -1.1081652e-20)
(54.556864 15.775094 5.624499e-21)
(54.743769 15.508794 -1.7206454e-20)
(54.910724 15.239345 2.3509369e-20)
(55.055826 14.965308 0)
(55.177544 14.684998 1.2546777e-20)
(55.272873 14.395984 6.5406591e-21)
(55.338033 14.094398 2.7365481e-20)
(55.371866 13.786206 -1.4447304e-20)
(55.37387 13.460569 7.7170964e-21)
(55.339828 13.119465 -2.4865567e-20)
(55.268614 12.761066 -8.9547914e-21)
(55.159937 12.384683 3.8939609e-20)
(55.015188 11.991158 0)
(54.838166 11.582705 0)
(54.636379 11.164102 3.8431459e-20)
(54.423 10.744364 7.0017514e-20)
(54.217703 10.338147 -1.5126023e-20)
(54.042005 9.9624309 -4.8071511e-20)
(53.90843 9.627017 -6.6468669e-20)
(53.814272 9.329073 0)
(53.747713 9.0585898 0)
(53.697028 8.8061416 -6.8733041e-20)
(53.654456 8.5656881 5.159627e-20)
(53.615831 8.3339894 8.5894091e-20)
(53.579166 8.109455 0)
(53.543533 7.8912609 1.7070157e-20)
(53.508614 7.6789195 -1.6986271e-20)
(53.474363 7.4721646 1.688728e-20)
(53.440589 7.2707819 1.1740637e-19)
(53.407218 7.0745025 -1.41488e-19)
(53.374303 6.8831388 8.2581452e-21)
(53.34176 6.6965557 -2.5351565e-19)
(53.309487 6.5145308 1.2957377e-19)
(53.27756 6.3369008 -2.5645432e-19)
(53.246025 6.1635498 -1.3474664e-19)
(53.214755 5.9943302 -1.2536319e-19)
(53.18382 5.8290703 1.3160449e-19)
(53.153272 5.6676819 -1.5289448e-20)
(53.12299 5.5100294 7.5458911e-21)
(53.093039 5.35597 0)
(53.063488 5.2054154 0)
(53.034232 5.0582557 -2.3168192e-19)
(53.005326 4.9143646 -2.283384e-19)
(52.976819 4.7736539 7.030677e-21)
(52.948644 4.6360311 -2.2852346e-19)
(52.92084 4.5013812 2.1821501e-19)
(52.893437 4.369625 6.7131992e-21)
(52.866413 4.2406719 -6.6070628e-21)
(52.839791 4.1144287 0)
(52.81358 3.9908155 -2.1106168e-19)
(52.787781 3.8697452 2.0130141e-19)
(52.762414 3.7511422 -1.917766e-19)
(52.737471 3.6349215 0)
(52.712962 3.5210118 -2.8936149e-24)
(52.688901 3.4093338 0)
(52.665272 3.2998141 -1.8483747e-19)
(52.642094 3.1923829 0)
(52.619375 3.0869635 1.7845685e-19)
(52.597101 2.9834936 1.7531461e-19)
(52.575293 2.881897 6.8884733e-19)
(52.553956 2.7821094 5.2858334e-21)
(52.533087 2.6840661 3.2704557e-19)
(52.512697 2.5876927 -6.5251231e-19)
(52.492792 2.492935 5.0083962e-21)
(52.473375 2.3997135 3.0471288e-19)
(52.454449 2.3079787 -3.0398613e-19)
(52.436022 2.2176478 3.031569e-19)
(52.418099 2.1286739 0)
(52.400682 2.0409753 2.4999307e-24)
(52.383774 1.9545018 0)
(52.367388 1.8691747 0)
(52.351514 1.7849331 0)
(52.336158 1.7017075 2.7097081e-19)
(52.32133 1.6194322 2.0764636e-21)
(52.30704 1.5380354 -2.0382526e-21)
(52.293292 1.4574466 2.5803033e-19)
(52.280097 1.3775861 -5.0441445e-19)
(52.267463 1.2983867 1.9256753e-21)
(52.255395 1.2197602 4.8366879e-19)
(52.2439 1.1416318 -1.8535306e-21)
(52.232992 1.0639082 0)
(52.222679 0.98650937 4.5845323e-19)
(52.212977 0.90932659 -3.4998315e-21)
(52.203885 0.83228375 -8.7716208e-19)
(52.19543 0.75523985 0)
(52.187589 0.6781474 -2.255992e-24)
(52.180443 0.60078135 4.1546749e-19)
(52.173921 0.5232045 -7.9440728e-22)
(52.168201 0.44495026 3.9893857e-19)
(52.163069 0.36644199 -7.8247388e-19)
(52.158953 0.28656993 0)
(52.155412 0.20671049 0)
(52.153222 0.12429602 -8.8206809e-23)
(52.151578 0.042586397 8.7135982e-23)
(38.713388 29.115248 -1.4270993e-23)
(39.628031 28.471711 -1.0565464e-20)
(40.485704 27.900187 -5.0297427e-21)
(41.290865 27.338024 4.7968661e-21)
(42.049293 26.778123 9.1830185e-21)
(42.7652 26.224662 -8.8027904e-21)
(43.442204 25.682072 -8.4555109e-21)
(44.083808 25.153056 -8.13476e-21)
(44.693563 24.639448 3.1496327e-24)
(45.275052 24.142497 0)
(45.831835 23.662864 1.5813737e-24)
(46.367352 23.200613 -7.458666e-25)
(46.884726 22.755197 1.0699684e-24)
(47.386427 22.325509 -6.7067207e-21)
(47.873948 21.910179 1.3062508e-20)
(48.347958 21.507844 -1.2740101e-20)
(48.808343 21.11726 1.2446303e-20)
(49.25433 20.737517 0)
(49.684939 20.36827 -5.9665705e-21)
(50.09961 20.009568 -5.8570523e-21)
(50.498232 19.661533 -7.3821031e-25)
(50.881027 19.324275 -5.6726441e-21)
(51.248714 18.997649 5.5983957e-21)
(51.602136 18.681145 -1.1077191e-20)
(51.941953 18.373987 0)
(52.268568 18.07526 0)
(52.582125 17.783983 1.0850995e-20)
(52.882539 17.499128 -1.0825405e-20)
(53.169513 17.219634 -5.4166445e-21)
(53.442554 16.944399 -5.4339453e-21)
(53.700984 16.67228 1.0939741e-20)
(53.943913 16.402077 -1.1048798e-20)
(54.170252 16.132414 1.6797365e-20)
(54.378686 15.86214 5.6982081e-21)
(54.5678 15.589774 1.7468562e-20)
(54.735974 15.313683 2.7814391e-24)
(54.881361 15.03234 6.1788918e-21)
(55.002128 14.744162 -6.4161287e-21)
(55.095115 14.446397 -6.7083701e-21)
(55.158079 14.135526 -2.8137878e-20)
(55.189101 13.817623 2.9795686e-20)
(55.186352 13.481059 -3.1936525e-20)
(55.147127 13.12913 3.4373422e-20)
(55.070834 12.759537 0)
(54.957553 12.372149 5.0628503e-20)
(54.809361 11.96831 8.8983064e-25)
(54.631101 11.551028 4.8565852e-20)
(54.43191 11.126384 -1.1970872e-19)
(54.227086 10.705397 -1.0130883e-19)
(54.037494 10.304388 8.8393653e-25)
(53.882414 9.9390645 -1.6293429e-20)
(53.769142 9.6148359 5.0300236e-20)
(53.691035 9.3253072 8.5107894e-20)
(53.63578 9.0598877 0)
(53.593045 8.8101517 6.8722647e-20)
(53.556504 8.5711196 4.1105539e-24)
(53.522896 8.3402128 1.7147533e-20)
(53.490691 8.1161781 1.1964899e-19)
(53.45916 7.8983352 0)
(53.428084 7.6862591 0)
(53.397476 7.4797137 1.6819321e-20)
(53.367143 7.278497 -1.6697749e-20)
(53.337027 7.0823405 2.4846861e-19)
(53.307211 6.8910622 -1.1493614e-19)
(53.277611 6.7045368 1.6260031e-20)
(53.248125 6.5225366 -1.609609e-20)
(53.218854 6.3449065 -4.6266928e-24)
(53.189852 6.1715324 0)
(53.160985 6.0022686 -7.7829575e-21)
(53.132341 5.8369449 -1.1531277e-19)
(53.10398 5.6754757 -7.5901353e-21)
(53.075776 5.5177264 7.4903656e-21)
(53.047806 5.3635573 1.2561859e-19)
(53.020149 5.2128798 1.8785568e-25)
(52.992694 5.0655866 2.2984735e-19)
(52.965507 4.9215536 -7.078135e-21)
(52.938643 4.7806916 -6.9730675e-21)
(52.912032 4.6429115 6.8672744e-21)
(52.88572 4.5080985 -2.163656e-19)
(52.859743 4.376174 0)
(52.834079 4.247049 -6.549856e-21)
(52.808756 4.1206311 -1.3695595e-25)
(52.783784 3.9968406 6.334768e-21)
(52.759167 3.8755917 -1.9326802e-19)
(52.73493 3.7568095 -6.1303523e-21)
(52.711065 3.6404087 6.0271662e-21)
(52.687585 3.5263198 1.895863e-19)
(52.664507 3.4144628 -1.1645988e-20)
(52.641815 3.3047652 -1.7739378e-19)
(52.619533 3.1971581 0)
(52.597668 3.0915638 -1.767699e-19)
(52.576209 2.9879217 0)
(52.555179 2.8861549 -5.3261622e-21)
(52.534584 2.7861995 5.2350981e-21)
(52.514424 2.6879915 -3.2903545e-19)
(52.494708 2.5914559 6.4619934e-19)
(52.475447 2.4965393 -3.2218627e-19)
(52.456644 2.4031615 9.7338239e-21)
(52.438302 2.3112739 3.0101485e-19)
(52.420432 2.2207929 -3.0019054e-19)
(52.403039 2.1316728 -4.6037716e-21)
(52.386127 2.0438298 -2.8922809e-19)
(52.3697 1.9572158 -2.7500546e-19)
(52.353769 1.871751 -8.7064196e-21)
(52.338329 1.7873757 4.2721486e-21)
(52.323383 1.7040205 -2.6829894e-19)
(52.308945 1.6216185 0)
(52.295024 1.5400953 2.018172e-21)
(52.281625 1.4593834 -2.5545247e-19)
(52.26876 1.3794032 -3.3619611e-24)
(52.256436 1.3000865 0)
(52.244659 1.2213453 -4.7884176e-19)
(52.233438 1.1431048 4.6977987e-19)
(52.222786 1.0652708 4.6086297e-19)
(52.212711 0.98776416 -4.5209463e-19)
(52.203229 0.91047573 -4.4176789e-19)
(52.19434 0.83332844 -2.4491249e-24)
(52.186071 0.75618238 -2.5002939e-21)
(52.1784 0.67898757 4.1846555e-19)
(52.171406 0.60152341 8.0177205e-22)
(52.165019 0.52384578 0)
(52.159417 0.44549565 0)
(52.154384 0.36688631 3.8732147e-19)
(52.150351 0.28692091 3.7978352e-19)
(52.146874 0.20695782 0)
(52.144724 0.12444097 -7.2995254e-19)
(52.143099 0.042642589 0)
(38.079632 28.445864 9.9333701e-21)
(38.976683 27.88701 -9.714705e-21)
(39.834616 27.394346 4.65155e-21)
(40.650169 26.903122 0)
(41.424726 26.407911 -8.589644e-21)
(42.160575 25.913615 1.6556752e-20)
(42.860211 25.424901 7.9872369e-21)
(43.526272 24.944604 -7.725113e-21)
(44.161546 24.474697 0)
(44.768922 24.016621 7.2518299e-21)
(45.351318 23.571295 0)
(45.911569 23.139102 -6.8476958e-21)
(46.452271 22.719892 1.053349e-24)
(46.975544 22.313054 -6.5018657e-21)
(47.482838 21.917705 0)
(47.974957 21.532885 0)
(48.452078 21.157694 9.7840835e-25)
(48.913862 20.791477 -5.9636061e-21)
(49.359748 20.433961 5.8594168e-21)
(49.78935 20.085166 5.7652239e-21)
(50.202551 19.745218 -8.2567587e-25)
(50.599509 19.414243 0)
(50.980719 19.092211 -5.5484098e-21)
(51.346806 18.778806 5.4949363e-21)
(51.698305 18.473463 5.4608918e-21)
(52.035566 18.175449 5.4329142e-21)
(52.358727 17.883922 -2.1677297e-20)
(52.667713 17.597962 0)
(52.962246 17.316585 -5.4334376e-21)
(53.241852 17.038747 5.4628815e-21)
(53.505863 16.76335 -1.6533708e-20)
(53.753394 16.489206 5.5772293e-21)
(53.983368 16.214998 0)
(54.194505 15.939518 -1.7331502e-20)
(54.38535 15.661282 -5.9210931e-21)
(54.554261 15.378657 -6.0948186e-21)
(54.6994 15.090048 -2.5246993e-20)
(54.818747 14.793984 2.6300215e-20)
(54.909316 14.486807 7.2168211e-25)
(54.969358 14.168197 -3.6170725e-20)
(54.997083 13.839617 0)
(54.98934 13.492129 3.3072683e-20)
(54.944922 13.129392 -3.5659274e-20)
(54.863635 12.748827 0)
(54.746085 12.350919 -5.2657867e-20)
(54.595153 11.937588 1.1518887e-20)
(54.416925 11.512816 -6.3082644e-20)
(54.222426 11.08429 8.2676961e-20)
(54.029021 10.665115 1.0432933e-19)
(53.857783 10.27237 0)
(53.724366 9.9189175 4.9477294e-20)
(53.630757 9.605497 1.687159e-20)
(53.5675 9.3232915 -1.7058043e-20)
(53.522634 9.0620272 1.7143906e-20)
(53.487365 8.8144682 1.7165303e-20)
(53.456664 8.5765867 -1.7143644e-20)
(53.428027 8.3463378 0)
(53.400298 8.1227271 7.5664748e-24)
(53.372905 7.9051786 1.6957091e-20)
(53.345718 7.6933169 -1.685726e-20)
(53.318805 7.4869294 0)
(53.291963 7.2858259 1.6616509e-20)
(53.265152 7.089739 -2.8011258e-19)
(53.238487 6.8984931 -1.6327699e-20)
(53.211879 6.7119743 1.6162709e-20)
(53.18523 6.5299494 -1.1200153e-19)
(53.158663 6.352274 -1.5829945e-20)
(53.132244 6.1788346 -1.2515163e-19)
(53.105828 6.0094887 0)
(53.07952 5.8440684 0)
(53.053394 5.6824898 0)
(53.027311 5.5246196 -1.1149697e-19)
(53.001367 5.3703224 3.5205618e-24)
(52.975647 5.2195075 -7.2279944e-21)
(52.950036 5.0720709 0)
(52.924609 4.9278909 -2.2461875e-19)
(52.899427 4.7868757 -6.9139971e-21)
(52.874419 4.6489404 2.2467624e-19)
(52.849639 4.51397 -6.702604e-21)
(52.825124 4.3818857 -2.0450285e-19)
(52.800857 4.2526004 -2.0772177e-19)
(52.776866 4.1260218 0)
(52.753168 4.0020701 4.0827048e-19)
(52.729767 3.8806608 1.8530317e-19)
(52.706691 3.7617191 6.0733824e-21)
(52.683935 3.6451591 -1.9106235e-19)
(52.661513 3.5309133 -1.8779997e-19)
(52.639447 3.4189004 0)
(52.61772 3.3090484 1.7569477e-19)
(52.596359 3.2012898 5.5685546e-21)
(52.575374 3.0955451 0)
(52.554755 2.9917554 1.6659096e-19)
(52.534527 2.8898432 -3.2724801e-19)
(52.514697 2.7897447 7.7639291e-26)
(52.495267 2.6913963 3.2579826e-19)
(52.476247 2.5947226 -6.4479129e-19)
(52.457651 2.4996708 0)
(52.43948 2.40616 3.083831e-19)
(52.421742 2.3141426 0)
(52.404447 2.2235338 2.9253799e-19)
(52.387601 2.1342892 9.1154348e-21)
(52.371211 2.0463236 -4.4736919e-21)
(52.355279 1.95959 -2.4214655e-24)
(52.339819 1.8740078 -2.7578984e-19)
(52.324826 1.7895175 -2.6642128e-19)
(52.310305 1.7060494 -4.1496543e-21)
(52.296269 1.6235375 0)
(52.282729 1.5419062 0)
(52.269691 1.4610886 -2.5087768e-19)
(52.257166 1.3810044 4.9236427e-19)
(52.245162 1.3015865 0)
(52.233686 1.2227451 0)
(52.222748 1.1444068 -4.6677631e-19)
(52.212359 1.0664769 -9.1049748e-19)
(52.20253 0.98887516 1.7478838e-21)
(52.193276 0.91149372 8.7787175e-19)
(52.184597 0.8342546 8.5945675e-19)
(52.17652 0.75701835 -4.2231977e-19)
(52.169024 0.67973284 0)
(52.162187 0.60218155 -7.9354913e-22)
(52.155939 0.52441449 -3.9773947e-19)
(52.150459 0.44597917 0)
(52.145529 0.36727923 0)
(52.14158 0.28723078 -3.7553091e-19)
(52.13817 0.20717421 -5.3982162e-22)
(52.136061 0.12456302 3.6140856e-19)
(52.134457 0.042690551 0)
(37.539818 27.759128 4.557293e-21)
(38.418631 27.276982 8.973386e-21)
(39.268936 26.856331 -4.3253588e-21)
(40.085881 26.432994 8.3466055e-21)
(40.86827 26.001341 -8.0676122e-21)
(41.616512 25.565794 -7.8092116e-21)
(42.331828 25.130864 0)
(43.015896 24.699436 -1.0560878e-24)
(43.670712 24.273606 7.1422359e-21)
(44.298472 23.854995 3.3063694e-24)
(44.901471 23.444758 6.7722618e-21)
(45.48198 23.043573 6.603678e-21)
(46.04211 22.651663 1.7121008e-24)
(46.583643 22.268853 6.3101124e-21)
(47.107905 21.894702 6.1785692e-21)
(47.615734 21.528642 -4.2369365e-25)
(48.10749 21.170117 -5.9487722e-21)
(48.583133 20.818714 9.8512136e-25)
(49.04242 20.474258 9.1691178e-25)
(49.485132 20.136775 -5.6796006e-21)
(49.911197 19.80639 -8.9051823e-26)
(50.320732 19.483231 5.5512955e-21)
(50.714073 19.167316 -2.4919934e-25)
(51.091648 18.85846 1.6388855e-20)
(51.453848 18.556265 -1.6308463e-20)
(51.800933 18.26016 -1.0844783e-20)
(52.132996 17.96944 1.6255176e-20)
(52.449944 17.683296 0)
(52.751492 17.400833 0)
(53.037164 17.121072 1.6494514e-20)
(53.306287 16.842969 -5.5597845e-21)
(53.557976 16.565349 -5.6384078e-21)
(53.791144 16.28696 -2.2957966e-20)
(54.004524 16.006556 5.86669e-21)
(54.196638 15.722634 1.8079188e-20)
(54.365804 15.433572 6.2217516e-21)
(54.510168 15.137769 -1.2920195e-20)
(54.627566 14.83381 -6.7454939e-21)
(54.715541 14.517034 -2.8279154e-20)
(54.772123 14.190906 3.7281224e-20)
(54.795815 13.851065 7.9689146e-21)
(54.78284 13.492875 -8.5757575e-21)
(54.733194 13.119332 0)
(54.647019 12.728015 1.0053367e-20)
(54.525617 12.320061 -1.0960901e-20)
(54.372842 11.89809 0)
(54.196286 11.467293 5.2416571e-20)
(54.009081 11.037241 -1.4251512e-20)
(53.830288 10.622935 -3.0606438e-20)
(53.679834 10.240955 -1.6125577e-20)
(53.56858 9.9000881 0)
(53.493658 9.5967925 -8.475067e-20)
(53.444004 9.320978 -3.4173081e-20)
(53.408657 9.063245 3.428106e-20)
(53.380408 8.817563 -5.1426054e-20)
(53.355367 8.5807317 -6.8440942e-20)
(53.331657 8.3511383 0)
(53.308419 8.1279919 7.6728119e-24)
(53.285201 7.910793 1.6891019e-20)
(53.26195 7.699208 -1.3427517e-19)
(53.238784 7.4930417 -1.6662931e-20)
(53.215481 7.2921138 -1.3224283e-19)
(53.192022 7.096159 1.3108162e-19)
(53.168557 6.905006 -1.2985081e-19)
(53.144988 6.7185534 2.5708007e-19)
(53.12122 6.5365613 -1.2717226e-19)
(53.097402 6.358898 1.2574062e-19)
(53.07361 6.1854481 1.2426379e-19)
(53.049684 6.0160727 -1.0740558e-19)
(53.025755 5.8506075 -1.5148625e-20)
(53.001901 5.688968 -1.1960317e-19)
(52.977977 5.5310231 1.1798423e-19)
(52.954095 5.3766425 -1.3089068e-19)
(52.930346 5.2257318 7.1680393e-21)
(52.906611 5.078191 7.0639069e-21)
(52.882975 4.9339011 2.2268695e-19)
(52.859505 4.792767 0)
(52.836129 4.6547086 -2.1593733e-19)
(52.812907 4.5196106 6.642562e-21)
(52.789882 4.3873939 2.0918094e-19)
(52.767035 4.2579735 2.0581256e-19)
(52.744402 4.1312574 -6.3267586e-21)
(52.722 4.0071657 -3.9820149e-19)
(52.699836 3.8856151 1.9579947e-19)
(52.677942 3.7665315 0)
(52.656315 3.6498279 1.8922638e-19)
(52.63497 3.5354395 1.8017064e-19)
(52.613933 3.4232832 5.7115288e-21)
(52.593189 3.3132883 1.7397847e-19)
(52.572766 3.2053883 5.5137667e-21)
(52.552676 3.099502 0)
(52.532912 2.9955726 2.2467873e-24)
(52.5135 2.8935219 5.2255666e-21)
(52.494449 2.7932862 -3.3356958e-19)
(52.475761 2.6948026 -6.450338e-19)
(52.457451 2.5979952 3.2160889e-19)
(52.43953 2.502812 -4.8579341e-21)
(52.422004 2.4091713 -6.1049108e-19)
(52.40488 2.3170266 2.9497244e-19)
(52.388169 2.2262922 9.1919868e-21)
(52.37188 2.1369246 5.3158859e-26)
(52.35602 2.0488376 5.0509621e-26)
(52.340592 1.9619853 2.7377022e-19)
(52.325611 1.8762862 2.7720584e-19)
(52.311073 1.7916814 -4.1873404e-21)
(52.296984 1.7081008 2.6283244e-19)
(52.283358 1.6254785 -2.0143718e-21)
(52.270206 1.5437389 2.5698475e-19)
(52.257534 1.4628155 4.9262861e-19)
(52.245355 1.3826267 3.8065481e-21)
(52.233677 1.3031063 -3.7346628e-21)
(52.222508 1.2241644 -1.4168316e-26)
(52.211856 1.1457271 -4.6009316e-19)
(52.201736 1.0676999 4.5312012e-19)
(52.192157 0.99000282 -4.4277784e-19)
(52.183134 0.91252726 -4.3433515e-19)
(52.174669 0.83519487 2.5005171e-24)
(52.166788 0.75786717 4.1788097e-19)
(52.15947 0.68049081 0)
(52.152794 0.60285025 4.0202667e-19)
(52.146687 0.52499223 3.9509294e-19)
(52.141331 0.44647108 2.7111061e-27)
(52.136506 0.36767871 -3.8004148e-19)
(52.132643 0.287546 0)
(52.1293 0.20739515 -3.6468182e-19)
(52.127233 0.1246884 8.7259651e-23)
(52.125651 0.042740594 -8.4583939e-23)
(37.079834 27.058035 0)
(37.941087 26.650861 -4.1633422e-21)
(38.780086 26.297152 8.0720462e-21)
(39.592587 25.937361 -7.8311244e-21)
(40.376189 25.56632 -1.5201733e-20)
(41.130057 25.187606 2.217253e-20)
(41.854441 24.805235 7.1912147e-21)
(42.55022 24.421971 -1.4014186e-20)
(43.218679 24.039944 6.8326316e-21)
(43.861377 23.660887 -1.3344299e-20)
(44.480024 23.286139 -1.3043893e-20)
(45.076369 22.916627 6.3831641e-21)
(45.652075 22.552886 -1.2503269e-20)
(46.208596 22.195107 0)
(46.747079 21.843228 0)
(47.268317 21.497038 0)
(47.772748 21.156283 0)
(48.260513 20.820776 0)
(48.731562 20.490456 -1.1331441e-20)
(49.185807 20.165391 -1.1202179e-20)
(49.623218 19.845715 -5.5451401e-21)
(50.043885 19.531564 -5.4966598e-21)
(50.448023 19.222989 -1.092316e-20)
(50.835905 18.919892 0)
(51.207784 18.621998 -5.4192304e-21)
(51.563819 18.328866 1.62446e-20)
(51.904036 18.039916 0)
(52.228297 17.754444 0)
(52.536289 17.471642 5.4849789e-21)
(52.827513 17.190603 -5.5363837e-21)
(53.101279 16.910334 1.1223434e-20)
(53.356687 16.629676 1.1410717e-20)
(53.592626 16.347447 -2.3487457e-24)
(53.807822 16.062386 0)
(54.000775 15.772943 -1.2289046e-20)
(54.169776 15.477518 0)
(54.312915 15.174626 1.986475e-20)
(54.427902 14.862703 6.8186219e-25)
(54.51299 14.536489 -1.1191961e-24)
(54.565838 14.202109 3.8542464e-20)
(54.584886 13.851052 -3.3055955e-20)
(54.566591 13.482414 -3.563174e-20)
(54.511803 13.098076 0)
(54.421048 12.696301 0)
(54.296469 12.278882 0)
(54.143099 11.849318 -3.741828e-20)
(53.970326 11.414295 -6.7990714e-20)
(53.793458 10.985472 -1.4710028e-20)
(53.632479 10.579169 -4.7011988e-20)
(53.504619 10.209963 0)
(53.415278 9.8818364 0)
(53.357709 9.587835 6.8011298e-20)
(53.320393 9.3176175 0)
(53.293778 9.0629729 -8.5619082e-20)
(53.272168 8.8190046 1.7104503e-20)
(53.252647 8.5832157 1.7066602e-20)
(53.233834 8.3543397 5.1006869e-20)
(53.215104 8.1317455 -1.353419e-19)
(53.196093 7.9149892 1.3455468e-19)
(53.176817 7.7037768 1.1693092e-19)
(53.157442 7.4979225 1.6577389e-20)
(53.137719 7.2972551 1.4794482e-19)
(53.117653 7.1015138 1.3031635e-19)
(53.097428 6.9105293 -1.6135415e-20)
(53.076939 6.7242135 -1.2769715e-19)
(53.056089 6.5423195 2.5260328e-19)
(53.03506 6.3647311 1.4045952e-19)
(53.013931 6.1913274 -1.5418902e-20)
(52.992533 6.0219756 2.5885973e-19)
(52.971015 5.8565158 3.6141838e-25)
(52.949469 5.6948608 8.8981082e-20)
(52.927737 5.5368833 1.3164844e-19)
(52.905948 5.3824594 0)
(52.884203 5.2314888 0)
(52.862373 5.0838772 0)
(52.840557 4.9395092 0)
(52.818829 4.7982846 0)
(52.797112 4.6601297 0)
(52.775475 4.5249291 2.0402503e-19)
(52.753964 4.3926028 6.4760545e-21)
(52.732563 4.2630685 2.0388012e-19)
(52.711311 4.1362347 0)
(52.690228 4.012021 1.9717993e-19)
(52.669324 3.8903462 3.5972389e-24)
(52.648633 3.7711365 5.9570307e-21)
(52.628155 3.6543039 -5.8552566e-21)
(52.607908 3.5397866 -1.8990172e-19)
(52.587919 3.4274997 1.1309522e-20)
(52.568175 3.3173737 -1.1109338e-20)
(52.548708 3.2093433 1.0916693e-20)
(52.529532 3.1033256 -1.7157871e-19)
(52.510639 2.9992661 2.3444582e-24)
(52.492058 2.8970859 -5.1721873e-21)
(52.473801 2.7967212 3.199908e-19)
(52.455871 2.6981102 3.2418703e-19)
(52.438283 2.6011763 0)
(52.421051 2.5058685 3.0769776e-19)
(52.404182 2.4121042 2.9735533e-19)
(52.387684 2.3198381 4.6363696e-21)
(52.37157 2.2289835 0)
(52.355849 2.1394982 -4.4639085e-21)
(52.340529 2.0512945 -2.7602397e-19)
(52.325616 1.964328 0)
(52.311124 1.8785161 -2.742896e-19)
(52.29705 1.7938006 8.2798266e-21)
(52.283403 1.7101111 -5.2824037e-19)
(52.270194 1.6273823 3.9863114e-21)
(52.257437 1.5455365 -2.503401e-19)
(52.245139 1.4645107 -2.4562182e-19)
(52.233313 1.3842203 -4.8206949e-19)
(52.221968 1.3045998 0)
(52.211112 1.2255596 0)
(52.200754 1.1470257 4.53415e-19)
(52.190907 1.0689034 4.4829077e-19)
(52.181583 0.99111234 4.3975128e-19)
(52.172797 0.9135449 4.2634323e-19)
(52.16455 0.83612051 -4.1984205e-19)
(52.156868 0.75870339 1.6147764e-21)
(52.149733 0.68123667 -7.9179201e-22)
(52.143219 0.60350928 -7.9545938e-19)
(52.137258 0.5255617 -7.6191392e-22)
(52.132027 0.44695562 -3.8258042e-19)
(52.12731 0.36807241 7.5011891e-19)
(52.123534 0.28785674 3.6824729e-19)
(52.120261 0.20761275 7.2154557e-19)
(52.118236 0.12481142 3.5367711e-19)
(52.116678 0.042790596 3.4265056e-19)
(36.695077 26.350207 0)
(37.539171 26.017303 -3.883567e-21)
(38.364519 25.726121 1.5124248e-20)
(39.168107 25.425268 -1.1051877e-20)
(39.947365 25.111038 7.1862556e-21)
(40.700891 24.786216 -7.0129341e-21)
(41.428335 24.454207 -6.8504801e-21)
(42.129978 24.117545 1.3393527e-20)
(42.806522 23.778312 -6.5546205e-21)
(43.458962 23.438282 6.4193516e-21)
(44.088486 23.098904 1.8877845e-20)
(44.696359 22.761285 -1.8525373e-20)
(45.283832 22.426202 1.8198191e-20)
(45.852036 22.094133 -5.9658782e-21)
(46.401907 21.765321 0)
(46.934138 21.439852 0)
(47.449169 21.117735 1.1879358e-24)
(47.947214 20.79898 5.6427724e-21)
(48.428328 20.483651 5.5809898e-21)
(48.892495 20.171873 5.5277414e-21)
(49.33971 19.86381 5.4842937e-21)
(49.77003 19.559612 5.4508758e-21)
(50.183577 19.259358 -1.0855453e-20)
(50.580501 18.963011 1.6235964e-20)
(50.960931 18.670386 5.4091234e-21)
(51.324922 18.381145 5.4155901e-21)
(51.672417 18.094811 0)
(52.003217 17.810775 0)
(52.316962 17.528311 1.656532e-20)
(52.613113 17.246576 -1.6764714e-20)
(52.890942 16.964636 0)
(53.149529 16.681336 5.7850499e-21)
(53.387728 16.395567 1.7747484e-20)
(53.604231 16.106077 0)
(53.797518 15.811239 -6.2776274e-21)
(53.96587 15.509532 -6.4472082e-25)
(54.107321 15.199555 2.040706e-20)
(54.219397 14.879522 2.1437543e-20)
(54.301194 14.543998 -7.5208412e-21)
(54.350028 14.200941 4.9285239e-24)
(54.364019 13.838675 -5.0521733e-24)
(54.340375 13.459744 3.706238e-20)
(54.280627 13.064755 0)
(54.185792 12.652951 -1.0911509e-20)
(54.058994 12.22685 5.9493458e-20)
(53.906702 11.791076 1.2972733e-20)
(53.74036 11.35413 6.9603227e-25)
(53.57726 10.929759 -1.514544e-20)
(53.437074 10.534537 7.9957222e-20)
(53.332824 10.179509 6.1828972e-25)
(53.26446 9.8637743 -1.6881644e-20)
(53.222684 9.5781395 -6.8149198e-20)
(53.196484 9.3128261 6.8384323e-20)
(53.177907 9.0609418 6.8401481e-20)
(53.162624 8.8186029 1.3655882e-19)
(53.148511 8.5838957 0)
(53.134576 8.3558266 -6.7759843e-20)
(53.120373 8.1338907 0)
(53.105601 7.9176817 -2.6786322e-19)
(53.090337 7.7069484 -1.3296845e-19)
(53.074793 7.5015046 -1.6487287e-20)
(53.058689 7.3011881 1.6342359e-20)
(53.042053 7.1057474 -1.295023e-19)
(53.02511 6.9150112 1.4421967e-19)
(53.007739 6.7289061 -3.1706821e-20)
(52.989846 6.5471785 -1.0972517e-19)
(52.971643 6.3697313 -1.2392677e-19)
(52.953216 6.1964332 0)
(52.934379 6.0271603 -1.0574962e-19)
(52.915311 5.8617592 -1.3418626e-19)
(52.896106 5.7001367 0)
(52.876599 5.5421709 -1.3053257e-19)
(52.856936 5.3877469 2.8594994e-20)
(52.837225 5.2367548 -1.4089247e-20)
(52.817332 5.0891083 0)
(52.797366 4.9446967 -2.1872428e-19)
(52.777407 4.8034127 -1.3459664e-20)
(52.757377 4.6651905 1.3248817e-20)
(52.737351 4.5299148 -2.0861448e-19)
(52.717382 4.3975039 2.1167532e-19)
(52.697451 4.2678793 4.4375325e-24)
(52.677603 4.1409497 -1.2411398e-20)
(52.657863 4.0166343 2.0134623e-19)
(52.63824 3.8948541 -1.9198327e-19)
(52.618774 3.7755358 0)
(52.599465 3.6585903 1.8549045e-19)
(52.580336 3.5439594 1.7658708e-19)
(52.561414 3.4315557 5.5972419e-21)
(52.542689 3.3213114 -1.7597405e-19)
(52.524196 3.2131627 1.6747173e-19)
(52.505949 3.1070246 1.8041824e-19)
(52.487943 3.0028453 -1.7198874e-19)
(52.470209 2.900545 -5.1184128e-21)
(52.452761 2.8000602 5.0261339e-21)