/*--------------------------------*- C++ -*----------------------------------*\
| =========                 |                                                 |
| \\      /  F ield         | OpenFOAM: The Open Source CFD Toolbox           |
|  \\    /   O peration     | Version:  2406                                  |
|   \\  /    A nd           | Website:  www.openfoam.com                      |
|    \\/     M anipulation  |                                                 |
\*---------------------------------------------------------------------------*/
FoamFile
{
    version     2.0;
    format      ascii;
    arch        "LSB;label=32;scalar=64";
    class       volScalarField;
    location    "0.002";
    object      alphat;
}
// * * * * * * * * * * * * * * * * * * * * * * * * * * * * * * * * * * * * * //

dimensions      [1 -1 -1 0 0 0 0];

internalField   nonuniform List<scalar> 
8951
(
0.01395023
0.013920688
0.013885841
0.013846081
0.013801983
0.013754375
0.013704072
0.013651845
0.01359855
0.013545004
0.013491921
0.013439981
0.013389779
0.013341906
0.013296962
0.013255514
0.013218135
0.013185448
0.013158168
0.013137104
0.01312321
0.013117622
0.013121716
0.013137164
0.013165974
0.013210546
0.013273745
0.013358972
0.013470112
0.013611431
0.013787669
0.014004255
0.014267573
0.014581767
0.014948732
0.015389211
0.015910335
0.016516923
0.017217321
0.018019416
0.018930178
0.019955127
0.021097681
0.022358313
0.023733611
0.025215505
0.026790966
0.028442439
0.030148903
0.031887434
0.033635149
0.035370907
0.037076455
0.038736892
0.040340483
0.041878109
0.043342711
0.044728908
0.046032686
0.047251098
0.048382205
0.049425721
0.050388745
0.051288958
0.052085488
0.052782337
0.053398093
0.053935917
0.054398791
0.054789617
0.055111347
0.055367057
0.055559953
0.055693329
0.055770513
0.055794807
0.055769446
0.055697559
0.055582152
0.055426095
0.055232121
0.055002853
0.054740826
0.054448547
0.054128498
0.053783218
0.053415388
0.053027931
0.052624175
0.052207986
0.051783752
0.051356642
0.05093445
0.050528113
0.050151057
0.049818193
0.049539628
0.049307978
0.049082521
0.048771291
0.048209689
0.047135563
0.045171585
0.041849057
0.036755609
0.029930449
0.022304983
0.015467375
0.010586376
0.0077251182
0.0062702381
0.0055877606
0.0052701343
0.0051098182
0.0050127925
0.0049411868
0.0048807992
0.0048258704
0.0047749142
0.0047272032
0.0046818469
0.0046390754
0.0045991159
0.0045612382
0.004525227
0.0044918989
0.0044608972
0.0044313717
0.0044033229
0.0043774607
0.0043535953
0.0043311009
0.0043089806
0.0042876692
0.0042670921
0.0042480209
0.0042304629
0.0042136736
0.0041976938
0.0041822159
0.0041672181
0.0041520676
0.0041375147
0.0041235785
0.0041104251
0.0040981599
0.0040864068
0.0040749512
0.0040631691
0.0040520904
0.0040412598
0.0040304891
0.0040214095
0.004011933
0.0040012016
0.0039920705
0.0039824701
0.0039722075
0.0039600996
0.003947935
0.0039371725
0.0039286233
0.0039195174
0.0039111573
0.0039002852
0.0038913787
0.0038806295
0.0038688757
0.0038601236
0.0038498047
0.0038367329
0.0038283491
0.0038205901
0.0038143298
0.0038015756
0.0037936355
0.0037752859
0.014174743
0.014150913
0.01412227
0.014089167
0.014052321
0.014012458
0.013970474
0.013927094
0.013883136
0.013839399
0.013796555
0.013755256
0.013716034
0.013679354
0.013645712
0.013615607
0.013589534
0.013568024
0.013551695
0.013541277
0.013537631
0.013541798
0.013555035
0.013578867
0.013615134
0.013666031
0.013734151
0.013822561
0.013934875
0.014075155
0.014247746
0.014457396
0.014709528
0.015009224
0.015357455
0.015768382
0.016254586
0.016819648
0.01747059
0.018215186
0.019060742
0.020013648
0.021078901
0.022259488
0.023555583
0.024963683
0.026475913
0.028079788
0.029758612
0.031492448
0.033259561
0.035038168
0.036807958
0.038551134
0.040252857
0.041901118
0.043486324
0.045000847
0.046438707
0.047795276
0.049067038
0.050251601
0.051349093
0.052371174
0.053321654
0.054162612
0.054908619
0.055572012
0.056155524
0.056661984
0.057094236
0.057455219
0.057748021
0.057975871
0.058142097
0.05825007
0.058303144
0.058304615
0.058257682
0.05816543
0.058030815
0.057856665
0.057645704
0.057400581
0.057123917
0.056818325
0.056486484
0.056131232
0.05575567
0.055363296
0.054958135
0.054544874
0.05412919
0.053719075
0.053325514
0.052961664
0.052640999
0.052370445
0.052137443
0.051893862
0.051537754
0.050891774
0.049678944
0.047507535
0.043900003
0.038448339
0.031218094
0.023194179
0.016030678
0.010933873
0.007954535
0.006442475
0.0057339414
0.0054044639
0.0052382971
0.0051380535
0.0050644569
0.0050026693
0.0049466983
0.0048949016
0.004846524
0.0048006717
0.0047575159
0.0047172642
0.0046792054
0.0046431516
0.0046098167
0.0045788716
0.0045494989
0.0045216716
0.0044960559
0.0044724689
0.0044502852
0.0044285993
0.0044077935
0.0043877707
0.0043692851
0.0043522736
0.0043360832
0.0043207442
0.0043058837
0.0042915543
0.0042771541
0.0042633953
0.0042502855
0.0042379799
0.0042265817
0.0042157044
0.0042051722
0.004194355
0.0041843651
0.0041746451
0.0041650554
0.0041569132
0.0041484849
0.0041391212
0.0041308912
0.00412241
0.0041131314
0.0041024898
0.0040916521
0.0040821581
0.0040747819
0.0040669984
0.0040598639
0.0040505448
0.0040428976
0.0040336821
0.0040236319
0.0040161397
0.0040073938
0.0039963126
0.0039893339
0.0039830657
0.0039780179
0.0039676596
0.0039610516
0.0039453528
0.014378408
0.014356038
0.014330007
0.01430089
0.014269459
0.014236404
0.014202608
0.014168849
0.014135809
0.014104174
0.014074531
0.014047344
0.014022987
0.014001816
0.013984229
0.013970634
0.013961468
0.013957244
0.013958591
0.013966277
0.013981237
0.014004614
0.014037798
0.014082467
0.014140626
0.014214642
0.014307285
0.014421796
0.014561972
0.014732015
0.014936269
0.015179346
0.015466289
0.015798899
0.016183956
0.016638772
0.017166355
0.017772677
0.018464918
0.019250336
0.020135731
0.021127027
0.022228822
0.023443796
0.024771952
0.026209819
0.027749837
0.029380139
0.031084915
0.03284529
0.034640645
0.036450178
0.038254286
0.040035524
0.041779037
0.043472517
0.045105887
0.046670955
0.04816114
0.049571208
0.050897088
0.052136034
0.053289107
0.05437144
0.055370266
0.056258327
0.057054675
0.057766592
0.058396647
0.058947535
0.05942203
0.059823045
0.060153665
0.060417128
0.060616787
0.060756043
0.060838296
0.060866893
0.060845097
0.060776062
0.060662817
0.060508273
0.060315241
0.060086458
0.059824637
0.059532486
0.059212786
0.05886848
0.058502776
0.058119229
0.057721997
0.05731604
0.056907047
0.056503008
0.056114679
0.055754372
0.055433556
0.055155548
0.054902467
0.054619022
0.054194078
0.05343918
0.052065386
0.049670998
0.04577494
0.039978366
0.032373597
0.023991128
0.016537554
0.011248077
0.0081623516
0.0065984103
0.0058660125
0.0055255892
0.0053539468
0.0052506767
0.0051751907
0.0051120553
0.0050550733
0.0050024589
0.0049534324
0.0049070944
0.0048635594
0.0048230139
0.0047847699
0.0047486611
0.0047152943
0.0046843735
0.0046551156
0.0046274611
0.0046020352
0.0045786596
0.004556716
0.004535389
0.0045150042
0.0044954479
0.0044774374
0.0044608797
0.0044451641
0.0044303492
0.00441601
0.0044022386
0.0043884702
0.0043753744
0.0043629569
0.0043513574
0.0043406752
0.0043305329
0.0043207843
0.0043108266
0.0043017309
0.0042929107
0.0042843998
0.0042770229
0.0042694703
0.0042613326
0.0042538133
0.0042462767
0.0042378137
0.0042284333
0.0042187721
0.0042103484
0.0042039253
0.0041973008
0.0041911649
0.0041832273
0.0041766096
0.0041687229
0.0041601829
0.0041537031
0.0041463183
0.0041370273
0.0041311941
0.004126175
0.0041220889
0.0041138562
0.0041083566
0.0040950713
0.014587147
0.014568739
0.014547996
0.014525572
0.014502225
0.014478806
0.014456053
0.014434683
0.014415304
0.014398448
0.014384473
0.014373651
0.014366222
0.014362437
0.014362598
0.014367038
0.01437616
0.014390478
0.014410653
0.014437512
0.01447208
0.014515617
0.01456965
0.014636005
0.014716844
0.014814688
0.014932459
0.015073539
0.015241885
0.015441798
0.015677512
0.015953269
0.016272709
0.016636546
0.017061315
0.017555457
0.018121338
0.018765886
0.019496073
0.020318745
0.021240299
0.022266312
0.0234011
0.02464715
0.026004399
0.027469507
0.029035292
0.030690534
0.0324203
0.034206736
0.036030265
0.037870987
0.039709932
0.04152995
0.043316147
0.045055904
0.046738667
0.048355676
0.049899744
0.051365029
0.052746911
0.054042414
0.055254344
0.056397969
0.057445541
0.058385054
0.059234117
0.059996981
0.060676021
0.061273792
0.061792989
0.062236485
0.062607348
0.06290882
0.063144264
0.06331711
0.063430796
0.063488718
0.063494196
0.06345045
0.063360582
0.063227583
0.063054343
0.062843689
0.062598419
0.062321332
0.062015301
0.061683362
0.061328767
0.060955184
0.060567008
0.060169144
0.059767281
0.05936941
0.058985825
0.058627739
0.058304327
0.058015012
0.057736316
0.057405561
0.056902312
0.056027128
0.054479727
0.051849618
0.047653868
0.041504012
0.033518928
0.024773926
0.017028572
0.011546975
0.008356129
0.0067414767
0.0059858556
0.005634781
0.0054578061
0.0053515882
0.005274251
0.0052097851
0.0051517985
0.0050983685
0.0050486894
0.0050018558
0.0049579258
0.0049170668
0.0048786153
0.0048424211
0.0048089836
0.0047780443
0.0047488548
0.0047213208
0.0046960263
0.0046727962
0.0046510249
0.004629986
0.0046099448
0.0045907745
0.0045731475
0.0045569475
0.0045416156
0.004527212
0.0045132951
0.0044999845
0.0044867405
0.004474191
0.0044623443
0.0044513233
0.004441222
0.0044316958
0.0044225939
0.0044133576
0.0044050213
0.004397001
0.0043892647
0.0043826572
0.0043758798
0.0043685381
0.0043617918
0.0043550134
0.0043473575
0.0043387165
0.0043302373
0.0043227152
0.0043170459
0.0043114337
0.0043060664
0.0042993756
0.0042935699
0.0042868171
0.0042795917
0.0042739164
0.0042676871
0.0042599682
0.0042550774
0.0042510594
0.0042477403
0.0042413268
0.0042367605
0.0042255833
0.014815963
0.014805741
0.014793734
0.014780845
0.014767907
0.014755783
0.014745218
0.014736678
0.014730725
0.014727867
0.014728379
0.01473241
0.014740067
0.014751463
0.014766747
0.014786137
0.014809915
0.014838471
0.014872344
0.014912244
0.014959078
0.015013974
0.015078316
0.015153768
0.015242297
0.015346207
0.015468153
0.015611181
0.015778785
0.015975056
0.016204371
0.016470688
0.016777557
0.017125464
0.017522774
0.017985439
0.01851469
0.019115708
0.019795192
0.020559826
0.021416131
0.022370204
0.023427373
0.024591771
0.025865784
0.027249376
0.028739405
0.030329117
0.032007958
0.033761855
0.035573928
0.037425576
0.039297728
0.041171982
0.043031442
0.04486115
0.046648179
0.048381498
0.050051784
0.051651241
0.053173419
0.054613165
0.055967437
0.057241857
0.058446455
0.059544555
0.060539393
0.061443603
0.062259877
0.062990399
0.063637573
0.064204002
0.064692505
0.065106121
0.065448082
0.065721757
0.065930595
0.066078065
0.066167606
0.066202593
0.066186307
0.066121919
0.066012492
0.065860998
0.065670344
0.065443408
0.065183072
0.064892291
0.064574134
0.064231944
0.063869614
0.063491496
0.063102368
0.062708026
0.062316254
0.061936698
0.061579218
0.061250413
0.060945541
0.060635278
0.060249362
0.059658006
0.058651022
0.056917478
0.054039293
0.049533278
0.043022375
0.034651688
0.02554078
0.017502762
0.011830323
0.0085360303
0.0068719146
0.0060938094
0.0057324287
0.0055502893
0.0054412297
0.0053621044
0.0052963505
0.0052373873
0.0051831608
0.0051328395
0.0050855122
0.0050411829
0.0049999994
0.0049613276
0.0049250244
0.0048914848
0.004860492
0.0048313316
0.0048038731
0.0047786598
0.0047555188
0.0047338629
0.0047130513
0.0046932871
0.0046744322
0.004657112
0.0046411853
0.0046261539
0.0046120702
0.0045984875
0.004585551
0.0045727378
0.004560633
0.0045492507
0.0045387012
0.0045290681
0.0045200425
0.0045114779
0.0045028501
0.0044951442
0.004487776
0.0044806852
0.0044747111
0.0044685612
0.0044618543
0.004455794
0.0044496047
0.0044426123
0.0044346992
0.0044269946
0.0044203253
0.0044152601
0.0044105042
0.0044057182
0.0044001257
0.0043949574
0.0043891602
0.004383053
0.0043780212
0.0043727481
0.0043663842
0.0043622786
0.0043590203
0.0043563186
0.0043514214
0.0043476288
0.004338258
0.015040414
0.015038034
0.015035531
0.015033992
0.015034201
0.015036814
0.015042313
0.015051111
0.015063544
0.015079892
0.015100171
0.015124342
0.01515236
0.015184219
0.015219976
0.015259787
0.015303906
0.015352738
0.015406867
0.015467071
0.015534353
0.015609953
0.015695382
0.015792435
0.015903212
0.016030141
0.016175988
0.016343899
0.016537453
0.016760856
0.017018541
0.017313934
0.017648856
0.018023726
0.018455371
0.018951126
0.019512376
0.020145266
0.020856258
0.021651793
0.022538144
0.023521196
0.024606113
0.025796926
0.027095998
0.028503385
0.030016208
0.03162817
0.03332939
0.035106634
0.036943955
0.038823662
0.040727448
0.042637428
0.044536923
0.046410902
0.048246128
0.0500311
0.051755937
0.053412235
0.054992938
0.056492385
0.057907657
0.059248614
0.060512254
0.061664378
0.062717854
0.063679655
0.064551843
0.065336393
0.06603555
0.066651807
0.067187915
0.067646871
0.068031885
0.068346322
0.068593641
0.068777335
0.068900883
0.068967705
0.068981138
0.068944418
0.068860677
0.06873296
0.068564249
0.068357495
0.068115652
0.067841697
0.067538781
0.067210454
0.066860575
0.066493357
0.066113611
0.065727062
0.065341143
0.064964659
0.064605867
0.064268517
0.063943446
0.063595262
0.063145968
0.062456437
0.061306045
0.059373972
0.056235806
0.051409564
0.044530525
0.035769642
0.026290317
0.017959666
0.012098259
0.0087025014
0.0069901879
0.0061903675
0.0058190536
0.0056319334
0.005520155
0.0054393184
0.0053723331
0.0053124382
0.0052574528
0.0052065167
0.0051587134
0.0051139937
0.0050724878
0.0050335941
0.0049971692
0.004963508
0.004932438
0.0049032777
0.0048758597
0.0048506876
0.0048275908
0.0048060048
0.0047853696
0.0047658256
0.0047472247
0.0047301454
0.0047144212
0.0046996197
0.0046857788
0.0046724555
0.0046598158
0.0046473511
0.0046356032
0.0046245935
0.0046144225
0.0046051594
0.0045965345
0.0045884073
0.0045802907
0.0045731015
0.0045662669
0.0045597123
0.0045542416
0.0045486004
0.0045424211
0.0045368964
0.0045311809
0.0045247068
0.0045174024
0.0045103726
0.0045043609
0.0044998924
0.0044956372
0.0044914041
0.0044867259
0.0044820696
0.0044770687
0.0044718899
0.0044673849
0.0044628639
0.0044576772
0.0044542232
0.0044515045
0.0044493158
0.0044456274
0.0044424602
0.004434639
0.015281559
0.015290232
0.015300953
0.015314455
0.01533137
0.01535207
0.015376931
0.015406007
0.015439639
0.015477617
0.015519777
0.015565912
0.015615838
0.015669442
0.015726715
0.015787774
0.015852875
0.015922462
0.015997183
0.016077904
0.01616573
0.016262024
0.01636842
0.01648684
0.0166195
0.016768937
0.016938009
0.017129938
0.017348367
0.017597598
0.017882104
0.018204434
0.018563245
0.018966165
0.019429532
0.019954191
0.020544186
0.021205581
0.021944614
0.022767532
0.023680439
0.024689076
0.025798514
0.027012748
0.028334178
0.029763013
0.031296672
0.032929347
0.034651827
0.036451695
0.03831389
0.040221576
0.042157156
0.044103216
0.046043268
0.0479622
0.049846471
0.051684123
0.053464717
0.05517925
0.056820064
0.058381038
0.059860032
0.061269878
0.062591476
0.063802208
0.064916815
0.065938664
0.066869304
0.067710475
0.068464247
0.069132989
0.069719366
0.070226321
0.070657028
0.071014838
0.071303211
0.071525657
0.071685682
0.071786751
0.071832249
0.071825469
0.071769606
0.071667772
0.071523017
0.071338354
0.071116744
0.07086125
0.070575212
0.070262145
0.06992578
0.06957033
0.06920053
0.068821917
0.068441424
0.068066817
0.067704501
0.067355119
0.067004848
0.066612033
0.06609084
0.065292872
0.063987461
0.06184472
0.058435179
0.053279457
0.046025975
0.036871148
0.027021837
0.018399397
0.012351299
0.0088561659
0.0070969605
0.0062761573
0.0058952743
0.0057033739
0.0055890093
0.0055065506
0.0054384047
0.0053776351
0.0053219399
0.0052704276
0.005222178
0.0051770901
0.0051352774
0.0050961722
0.0050596226
0.0050258311
0.0049946712
0.0049654923
0.0049380901
0.0049129298
0.0048898437
0.0048682936
0.0048477938
0.0048284234
0.0048100247
0.0047931306
0.0047775512
0.0047629202
0.0047492588
0.0047361329
0.0047237234
0.0047115364
0.0047000708
0.0046893556
0.0046794829
0.0046705068
0.0046621974
0.0046544207
0.0046467298
0.0046399578
0.0046335554
0.004627442
0.0046223647
0.0046171295
0.0046113884
0.0046062689
0.0046009241
0.0045948586
0.0045880524
0.0045815879
0.0045761024
0.0045720895
0.0045682842
0.0045644754
0.004560445
0.0045562642
0.0045519185
0.0045474977
0.0045434331
0.0045394946
0.0045352936
0.0045323969
0.0045300322
0.0045283159
0.0045254645
0.0045228406
0.0045163422
0.015545548
0.015569109
0.015596932
0.015629185
0.015666335
0.015708513
0.015755625
0.01580795
0.015865114
0.015926754
0.015992506
0.016062007
0.016134952
0.016211153
0.016290555
0.01637327
0.016459585
0.016550005
0.01664526
0.016746314
0.01685439
0.016970969
0.017097808
0.017236941
0.017390694
0.017561693
0.017752873
0.017967511
0.018209299
0.018482597
0.018791914
0.019137979
0.019518708
0.019949249
0.020439761
0.020990114
0.021605581
0.022292101
0.023055748
0.023902634
0.024838749
0.025869753
0.027000681
0.028235543
0.02957683
0.031024943
0.03257764
0.034229612
0.035972316
0.037794124
0.039680822
0.041616379
0.043583858
0.045566281
0.047547332
0.049511818
0.051445902
0.053337178
0.055174662
0.056948755
0.05865121
0.060275542
0.061821517
0.063300742
0.064680912
0.065954289
0.067132515
0.068216897
0.069208556
0.070108981
0.070920047
0.071643984
0.072283356
0.072841035
0.073320148
0.073724017
0.074056097
0.074319902
0.074518961
0.074656772
0.074736762
0.074762274
0.074736559
0.07466279
0.074544069
0.074383404
0.074183846
0.07394864
0.073681077
0.07338455
0.073062796
0.072719949
0.072360578
0.07198992
0.071614253
0.071240102
0.070871775
0.070506572
0.07012578
0.069681327
0.069079479
0.06816271
0.066690762
0.064325554
0.060633836
0.05514018
0.047506803
0.037955191
0.027735239
0.018822499
0.012590215
0.0089977974
0.0071929793
0.0063518867
0.0059617795
0.0057653142
0.0056485042
0.005564523
0.0054952982
0.0054337228
0.0053773782
0.0053253392
0.005276682
0.0052312565
0.0051891588
0.0051498615
0.0051131945
0.0050792754
0.0050480222
0.0050188143
0.0049914115
0.0049662435
0.0049431453
0.0049216076
0.0049012113
0.0048819775
0.0048637388
0.0048469842
0.0048315036
0.0048169949
0.0048034623
0.0047904836
0.0047782488
0.0047662798
0.0047550345
0.0047445487
0.0047349072
0.0047261491
0.0047180837
0.0047105843
0.0047032448
0.0046968047
0.004690749
0.0046849951
0.0046802194
0.0046753037
0.0046699233
0.0046651023
0.0046600402
0.0046542923
0.0046479011
0.0046418961
0.0046368287
0.0046331584
0.0046296908
0.0046262859
0.004622668
0.0046189313
0.0046150848
0.0046112976
0.0046076
0.0046041423
0.0046006664
0.0045982407
0.0045961398
0.0045948585
0.0045925279
0.0045904072
0.0045849766
0.015799982
0.015838486
0.015881707
0.015930502
0.015985233
0.016046011
0.01611246
0.016184828
0.016262616
0.016345199
0.016432036
0.016522581
0.016616336
0.016712913
0.016812073
0.016913754
0.017018092
0.017125429
0.017236351
0.017351686
0.017472507
0.017600157
0.017736234
0.01788261
0.018041425
0.0182151
0.018406338
0.018618135
0.018853804
0.019117067
0.0194123
0.019744063
0.020110136
0.020512231
0.020967883
0.021481436
0.022054269
0.022691938
0.023400261
0.024185202
0.025052783
0.026008932
0.027059278
0.028208865
0.02946176
0.030820588
0.03228598
0.033856051
0.035526007
0.03728796
0.03913105
0.04104187
0.043005149
0.045004569
0.047023561
0.04904597
0.051056522
0.053041098
0.054986856
0.05688228
0.058717186
0.060482746
0.062172266
0.063788842
0.065336248
0.066777284
0.068116807
0.069361106
0.070510517
0.071565784
0.072528124
0.073399203
0.074181092
0.074876238
0.075487427
0.076017725
0.076470414
0.076848927
0.077156778
0.077397506
0.077574635
0.077691625
0.077751859
0.077758638
0.077715184
0.077624575
0.077489915
0.077314437
0.077101312
0.07685372
0.076575066
0.076269021
0.075939569
0.075591034
0.075228234
0.074856628
0.074481304
0.07410424
0.07371915
0.07330225
0.072798915
0.072107506
0.071061557
0.069411744
0.066812696
0.062828688
0.056989467
0.04897163
0.039021309
0.028430894
0.019229824
0.012815954
0.0091282814
0.00727907
0.0064183278
0.0060193115
0.0058185065
0.0056993976
0.0056140016
0.0055437882
0.0054814841
0.0054245584
0.00537205
0.0053230316
0.0052773074
0.0052349584
0.0051954908
0.0051587178
0.0051246796
0.005093338
0.0050640995
0.0050366887
0.0050115014
0.004988377
0.0049668367
0.0049465204
0.0049273951
0.0049092826
0.0048926313
0.0048772143
0.0048627898
0.0048493463
0.0048364751
0.0048243705
0.0048125702
0.0048014945
0.004791185
0.0047817195
0.0047731236
0.0047652435
0.0047579609
0.0047509092
0.0047447289
0.0047389492
0.0047334853
0.0047289362
0.0047242684
0.004719182
0.0047145744
0.0047097223
0.0047042182
0.0046981698
0.0046925327
0.0046877961
0.0046843759
0.0046811645
0.0046780664
0.0046747737
0.0046714244
0.0046679806
0.0046646002
0.0046612931
0.0046582551
0.0046552394
0.0046531584
0.0046513593
0.0046504007
0.0046484184
0.0046467299
0.0046421225
0.016107741
0.016168557
0.016235257
0.016308722
0.016389229
0.016476218
0.016569913
0.016669621
0.016774503
0.016883801
0.016996774
0.017112726
0.017231066
0.017351355
0.017473341
0.017596988
0.017722482
0.017850245
0.017980961
0.018115562
0.01825524
0.018401452
0.018555914
0.018720604
0.018897758
0.019089883
0.019299735
0.01953036
0.0197851
0.020067691
0.020382454
0.020733849
0.021117368
0.021539377
0.022016698
0.022549804
0.023141964
0.023798642
0.024525565
0.025328628
0.026213808
0.027187009
0.028253871
0.029419482
0.030688007
0.032062233
0.033543048
0.035128949
0.036815657
0.038595933
0.040459657
0.042394195
0.044384997
0.046416331
0.048472015
0.050536049
0.052593086
0.054628737
0.056629743
0.058584068
0.060480953
0.062311018
0.064067611
0.065758218
0.067371709
0.068877458
0.070285877
0.07159865
0.07281559
0.073937064
0.074964004
0.075897846
0.076740485
0.077494234
0.078161775
0.078746096
0.07925043
0.079678176
0.080032832
0.080317941
0.080537041
0.080693615
0.080791079
0.08083277
0.080821878
0.080761578
0.080655155
0.080505741
0.080316407
0.080090355
0.079830933
0.079541685
0.079226381
0.078889016
0.078533865
0.078165407
0.077787094
0.077398356
0.076989085
0.076530274
0.075960647
0.075170691
0.073985258
0.072146531
0.069302801
0.065017104
0.058825538
0.050419567
0.040069498
0.029109542
0.019622462
0.013029597
0.0092485839
0.0073561036
0.0064762737
0.006068653
0.0058637329
0.0057424736
0.0056557753
0.0055846691
0.0055217191
0.0054642858
0.0054113705
0.0053620422
0.0053160629
0.0052735046
0.0052338924
0.0051970311
0.0051628873
0.0051314667
0.0051022002
0.0050747797
0.0050495699
0.0050264138
0.0050048627
0.0049846101
0.0049655722
0.00494756
0.0049309841
0.0049156044
0.0049012353
0.0048878509
0.0048750565
0.0048630471
0.0048513758
0.004840429
0.0048302537
0.0048209201
0.0048124418
0.0048046999
0.0047975849
0.004790767
0.0047847871
0.0047792252
0.0047739933
0.0047696105
0.0047651328
0.0047602836
0.0047558224
0.0047511219
0.0047458035
0.0047400353
0.0047346895
0.0047302118
0.0047269693
0.0047239495
0.0047210829
0.0047180511
0.0047150022
0.0047118747
0.0047087945
0.0047058363
0.0047031079
0.0047004431
0.0046986083
0.0046970937
0.0046963286
0.0046946717
0.0046932702
0.0046892819
0.016456963
0.016543102
0.01663648
0.016737693
0.016846214
0.016962372
0.017085124
0.01721347
0.017346438
0.017483073
0.017622475
0.017763844
0.017906539
0.018050108
0.018194325
0.018339206
0.018485011
0.01863226
0.018781741
0.018934501
0.019091849
0.019255356
0.019426849
0.019608392
0.019802312
0.020011183
0.020237816
0.020485289
0.020756967
0.02105658
0.021388308
0.02175639
0.022155627
0.022595243
0.023090453
0.023640097
0.024248548
0.024921175
0.025663653
0.026481848
0.027381722
0.028369195
0.029449945
0.030629137
0.031911062
0.033298697
0.034793213
0.036393497
0.038095791
0.039893492
0.041777197
0.043735015
0.045753082
0.047816225
0.049908635
0.052014465
0.054118304
0.056205513
0.058262431
0.06027652
0.06223646
0.064132379
0.065958613
0.067724402
0.069403381
0.070977958
0.072457522
0.07384114
0.075128099
0.076318384
0.077412621
0.078411998
0.079318218
0.080133437
0.080860219
0.08150146
0.082060324
0.082540167
0.082944457
0.083276732
0.083540531
0.083739346
0.083876605
0.083955625
0.083979686
0.083952132
0.083876115
0.083754683
0.083590942
0.083388044
0.083149224
0.082877847
0.082577409
0.082251485
0.081903677
0.081537323
0.081154043
0.0807505
0.080312582
0.079805898
0.079162466
0.07826498
0.076929914
0.074891581
0.071792926
0.067196881
0.060647043
0.051850139
0.041100131
0.029772214
0.020001686
0.013232327
0.0093597251
0.0074249691
0.0065265381
0.0061106083
0.0059017873
0.0057785239
0.0056906377
0.0056187371
0.0055552267
0.0054973617
0.0054441043
0.0053945204
0.0053483327
0.0053056031
0.00526588
0.005228954
0.005194724
0.0051632376
0.0051339502
0.0051065231
0.0050812917
0.0050581032
0.0050365391
0.0050163407
0.0049973764
0.0049794448
0.0049629231
0.0049475622
0.0049332274
0.0049198804
0.0049071399
0.004895199
0.0048836253
0.0048727754
0.0048627013
0.0048534649
0.0048450696
0.0048374287
0.0048304418
0.0048238129
0.0048179851
0.004812594
0.0048075461
0.0048032825
0.004798949
0.0047942891
0.0047899228
0.0047853281
0.0047801502
0.0047746093
0.0047694918
0.0047652141
0.0047620938
0.0047592151
0.0047565191
0.0047536979
0.0047508755
0.004747999
0.0047451593
0.0047424591
0.0047399787
0.0047375838
0.0047359303
0.0047346313
0.0047339887
0.0047325904
0.0047314044
0.0047278984
0.016853839
0.016967955
0.017090564
0.017221429
0.017360883
0.017507561
0.017660283
0.017817889
0.017979202
0.018143108
0.018308602
0.01847483
0.018641145
0.018807121
0.018972585
0.019137628
0.019302603
0.01946814
0.019635135
0.019804745
0.0199784
0.020157763
0.020344763
0.020541549
0.020750524
0.020974318
0.021215792
0.021478049
0.02176446
0.022078728
0.022424838
0.022806765
0.023220215
0.023674692
0.024184278
0.024747639
0.025369491
0.026055177
0.026810355
0.027640888
0.028552756
0.029551917
0.030644119
0.031834628
0.033127885
0.03452708
0.036033682
0.037646984
0.039363744
0.041177986
0.043081004
0.045061617
0.047106623
0.049201388
0.051330461
0.053478154
0.055629006
0.057768146
0.059881532
0.061956143
0.063980116
0.06594318
0.067841999
0.06968238
0.071427908
0.07307476
0.074627701
0.076084502
0.077443953
0.078705645
0.079869879
0.08093758
0.081910234
0.082789824
0.083578778
0.08427988
0.084896217
0.08543108
0.085887897
0.08627019
0.086581483
0.086825235
0.08700488
0.087123824
0.087185452
0.087192981
0.087149491
0.087058071
0.086921781
0.086743676
0.086526841
0.086274406
0.085989521
0.08567525
0.085334395
0.08496899
0.08457863
0.084157008
0.083685835
0.083125212
0.082400427
0.081386501
0.079891884
0.077643678
0.074280473
0.069366209
0.062453021
0.053263231
0.042113899
0.030420183
0.02036892
0.013425407
0.0094627583
0.0074865614
0.0065699469
0.0061459826
0.0059334584
0.0058083317
0.0057193706
0.0056467738
0.0055827883
0.0055245676
0.0054710335
0.0054212487
0.0053749005
0.0053320341
0.0052922373
0.0052552712
0.0052209797
0.0051894447
0.005160147
0.0051327204
0.0051074729
0.0050842555
0.0050626798
0.0050425294
0.0050236295
0.0050057653
0.0049892831
0.0049739288
0.0049596136
0.0049462888
0.0049335856
0.0049216934
0.004910193
0.0048994152
0.0048894173
0.0048802514
0.0048719126
0.0048643441
0.0048574543
0.0048509774
0.0048452631
0.0048400053
0.0048351019
0.0048309216
0.0048266965
0.0048221859
0.0048178761
0.0048133523
0.0048082802
0.0048029222
0.0047979824
0.0047938568
0.0047908171
0.00478804
0.0047854681
0.0047828145
0.00478016
0.0047774814
0.004774835
0.0047723203
0.0047700365
0.0047678524
0.0047663472
0.0047651659
0.0047646127
0.0047634153
0.0047623854
0.0047592615
0.017303078
0.017446841
0.017600455
0.017763659
0.017934786
0.018112489
0.01829539
0.018482109
0.018671316
0.018861796
0.019052494
0.019242552
0.019431351
0.019618523
0.019803974
0.019987884
0.020170708
0.02035319
0.020536319
0.020721365
0.02090986
0.021103561
0.021304477
0.021514848
0.021737132
0.021974009
0.022228374
0.02250335
0.022802308
0.023128898
0.023486924
0.023880037
0.024306158
0.024772687
0.025293515
0.025867904
0.026500452
0.027196504
0.027961728
0.02880201
0.029723372
0.030731834
0.031833232
0.033032959
0.034335624
0.035744649
0.037261816
0.038886831
0.040616971
0.04244687
0.044368502
0.046371373
0.048442918
0.050569023
0.052734596
0.054924111
0.057122073
0.059313401
0.061483697
0.063619472
0.065708346
0.067739746
0.069714567
0.071627069
0.073441959
0.075163857
0.076792332
0.07832461
0.079758997
0.081094675
0.082331602
0.083470418
0.084512374
0.08545926
0.08631335
0.087077297
0.087754095
0.088346955
0.088859251
0.089294477
0.089656066
0.089947509
0.090172331
0.090333954
0.090435653
0.090480587
0.090471875
0.09041256
0.090305619
0.090153977
0.089960523
0.089728096
0.089459431
0.089156982
0.08882262
0.088456916
0.088057256
0.087614175
0.087105045
0.086484371
0.08567071
0.084531578
0.082867788
0.080399917
0.07676318
0.071523641
0.064242859
0.054659043
0.043111759
0.031054922
0.020725714
0.013610161
0.0095587516
0.0075417733
0.0066073213
0.0061755647
0.0059595151
0.0058326574
0.0057427307
0.0056695326
0.0056051552
0.0055466524
0.0054929049
0.005442973
0.0053965115
0.0053535508
0.0053137101
0.0052767275
0.0052423979
0.0052108349
0.00518154
0.0051541242
0.0051288693
0.0051056292
0.0050840464
0.0050639416
0.0050451003
0.0050272933
0.0050108401
0.0049954856
0.0049811812
0.004967869
0.0049551916
0.0049433339
0.0049318882
0.0049211639
0.0049112232
0.0049021079
0.0048938058
0.0048862882
0.0048794711
0.0048731161
0.0048674853
0.0048623309
0.0048575403
0.0048534164
0.0048492723
0.0048448783
0.0048405969
0.0048361182
0.0048311258
0.0048259138
0.0048211111
0.0048170996
0.0048141101
0.0048114044
0.0048089214
0.0048063992
0.0048038677
0.0048013441
0.0047988514
0.0047964681
0.0047943384
0.0047923204
0.0047909273
0.0047898032
0.0047893111
0.00478827
0.0047873515
0.0047845209
0.017806149
0.017981513
0.018168379
0.018364095
0.018567001
0.018775497
0.018988003
0.019202992
0.01941904
0.01963489
0.019849485
0.020062007
0.020271894
0.020478855
0.020682893
0.02088427
0.021083548
0.02128157
0.021479426
0.021678483
0.021880356
0.022086896
0.022300184
0.022522519
0.022756414
0.023004588
0.023269963
0.023555674
0.023865087
0.024201794
0.024569453
0.024971363
0.025408345
0.025884599
0.026413558
0.026996578
0.027637321
0.028341254
0.02911408
0.029961729
0.030890281
0.03190584