/*--------------------------------*- C++ -*----------------------------------*\
| =========                 |                                                 |
| \\      /  F ield         | OpenFOAM: The Open Source CFD Toolbox           |
|  \\    /   O peration     | Version:  2406                                  |
|   \\  /    A nd           | Website:  www.openfoam.com                      |
|    \\/     M anipulation  |                                                 |
\*---------------------------------------------------------------------------*/
FoamFile
{
    version     2.0;
    format      ascii;
    arch        "LSB;label=32;scalar=64";
    class       volScalarField;
    location    "0.002";
    object      Ma;
}
// * * * * * * * * * * * * * * * * * * * * * * * * * * * * * * * * * * * * * //

dimensions      [0 0 0 0 0 0 0];

internalField   nonuniform List<scalar> 
8951
(
0.075393659
0.075008415
0.074688343
0.074432694
0.074240181
0.074106651
0.074030083
0.074009842
0.074042326
0.07412949
0.074272289
0.074466356
0.074706208
0.074990515
0.075317855
0.075685478
0.076090995
0.076532012
0.077006518
0.077512367
0.078047676
0.078610689
0.079199633
0.07981299
0.080449626
0.081108844
0.081790344
0.082494145
0.083220578
0.083970225
0.084743949
0.085542993
0.086368784
0.087223023
0.088106865
0.089020805
0.089965566
0.090941115
0.09194579
0.092976378
0.094029205
0.095100182
0.096183732
0.09727408
0.098365828
0.099453805
0.10053357
0.10160159
0.10265543
0.10369357
0.10471522
0.10572033
0.10670948
0.10768376
0.10864457
0.10959339
0.11053172
0.11146089
0.11238203
0.11329605
0.11420354
0.11510486
0.11600007
0.11688863
0.11777045
0.11864563
0.11951371
0.12037432
0.12122718
0.12207205
0.12290885
0.1237376
0.12455849
0.12537189
0.12617828
0.12697828
0.1277726
0.12856202
0.12934732
0.13012929
0.13090864
0.13168603
0.13246201
0.13323702
0.13401139
0.13478533
0.1355589
0.13633196
0.13710411
0.13787463
0.13864227
0.13940538
0.14016201
0.14090895
0.14164221
0.14235771
0.14305036
0.14371356
0.14434128
0.14492807
0.14547102
0.14597054
0.14642802
0.14684164
0.14720728
0.14751262
0.14771796
0.14781136
0.14782166
0.14780212
0.14776307
0.14774353
0.14774896
0.1477889
0.14785953
0.14792808
0.14800573
0.14809327
0.1481871
0.14828777
0.14839337
0.14850394
0.14861505
0.14873229
0.14885099
0.14897476
0.14909719
0.14922641
0.14935255
0.14948143
0.14961064
0.14974257
0.149874
0.15000474
0.15013351
0.15026051
0.15038898
0.15051914
0.15065123
0.15078604
0.15092063
0.15105225
0.1511771
0.15129496
0.15140425
0.15150181
0.1515871
0.15165744
0.1517048
0.15172598
0.15173381
0.15171841
0.15168754
0.15164265
0.15159136
0.15153697
0.15149819
0.15147927
0.15145633
0.15145785
0.15146338
0.15147928
0.15150775
0.15154465
0.1515752
0.15159542
0.15160233
0.15159138
0.15156479
0.15152879
0.15148114
0.1514089
0.15133476
0.15129602
0.15127289
0.15124403
0.15119875
0.073700588
0.073315774
0.072994917
0.072738692
0.072547667
0.072418189
0.072346336
0.072330583
0.072369565
0.072466687
0.072618993
0.072824484
0.073079251
0.073379612
0.073724588
0.074112309
0.07454007
0.075005517
0.075506425
0.076040747
0.076606371
0.077201433
0.077824212
0.078473013
0.0791464
0.079843303
0.080563053
0.081305342
0.082070133
0.08285767
0.083668426
0.084503089
0.085362641
0.08624821
0.087161016
0.08810171
0.089070308
0.090066885
0.091090637
0.09213942
0.093209787
0.094297888
0.095399452
0.096509027
0.097621247
0.098731167
0.099834116
0.1009261
0.102004
0.10306567
0.10410976
0.10513567
0.10614347
0.10713386
0.10810803
0.10906743
0.11001364
0.1109482
0.11187254
0.11278787
0.11369519
0.11459518
0.1154883
0.11637462
0.11725375
0.11812585
0.11899096
0.11984868
0.12069872
0.12154086
0.12237494
0.12320088
0.12401878
0.12482884
0.12563144
0.12642707
0.12721635
0.12799999
0.12877874
0.12955338
0.13032463
0.13109321
0.13185973
0.1326247
0.13338854
0.13415155
0.13491391
0.13567565
0.13643664
0.13719643
0.13795431
0.13870903
0.13945894
0.14020207
0.14093526
0.14165465
0.14235622
0.14303504
0.14368491
0.14430013
0.14487564
0.14540911
0.14590153
0.14635418
0.14676539
0.14713175
0.14744133
0.14765608
0.14776139
0.14777978
0.14777081
0.14774395
0.14772965
0.14773979
0.14778885
0.1478599
0.14792903
0.14800778
0.1480961
0.14819052
0.14829159
0.1483975
0.14850819
0.14861929
0.14873656
0.1488553
0.14897913
0.14910143
0.14923054
0.14935661
0.1494854
0.14961452
0.14974623
0.14987732
0.15000792
0.15013665
0.15026376
0.15039236
0.15052249
0.15065448
0.15078914
0.15092345
0.15105474
0.15117939
0.15129709
0.15140613
0.15150335
0.15158813
0.1516581
0.15170506
0.15172603
0.15173363
0.15171801
0.15168704
0.15164203
0.15159059
0.15153674
0.1514981
0.15147879
0.15145597
0.15145746
0.15146327
0.15147926
0.15150767
0.15154423
0.15157445
0.15159452
0.15160112
0.15159007
0.15156355
0.15152756
0.15147956
0.15140765
0.15133468
0.15129557
0.15127167
0.15124232
0.15119777
0.071557467
0.07124361
0.070992271
0.0708052
0.070682458
0.070618379
0.070611709
0.070660156
0.070769286
0.070935101
0.071153836
0.071424269
0.071742911
0.072106987
0.072515375
0.072965903
0.073455952
0.073983248
0.074545664
0.075141138
0.075767617
0.076423273
0.077106437
0.077815496
0.078549087
0.079306193
0.080086156
0.080888634
0.081713511
0.082560923
0.083431196
0.08432481
0.085242487
0.086185043
0.087153228
0.088147204
0.089166498
0.090210636
0.091278258
0.092366831
0.093472754
0.09459212
0.095720585
0.096852906
0.097984144
0.099109792
0.10022562
0.10132804
0.10241428
0.10348243
0.10453132
0.10556047
0.10657009
0.10756098
0.10853438
0.10949181
0.1104349
0.11136526
0.11228438
0.11319357
0.11409389
0.11498614
0.11587083
0.11674804
0.1176176
0.11847984
0.11933473
0.12018197
0.12102135
0.12185268
0.12267587
0.1234909
0.12429787
0.12509703
0.12588877
0.12667359
0.12745211
0.12822502
0.12899305
0.12975696
0.13051745
0.13127521
0.13203081
0.13278473
0.13353737
0.134289
0.13503977
0.1357897
0.13653862
0.1372861
0.13803138
0.13877324
0.13951004
0.14023979
0.14095938
0.14166507
0.14235294
0.14301821
0.14365505
0.14425811
0.14482274
0.14534718
0.14583279
0.14628079
0.14668973
0.14705683
0.14737049
0.1475945
0.14771101
0.14773889
0.14773876
0.14772388
0.14771548
0.14773098
0.14778985
0.14785988
0.14792988
0.14800979
0.14809892
0.14819394
0.14829542
0.14840165
0.14851243
0.14862353
0.14874085
0.14885962
0.14898348
0.14910563
0.14923464
0.14936064
0.14948933
0.14961835
0.14974984
0.14988057
0.15001104
0.15013971
0.15026701
0.15039567
0.15052582
0.15065772
0.15079219
0.15092617
0.15105718
0.15118163
0.15129914
0.15140796
0.15150484
0.15158906
0.15165869
0.15170529
0.15172606
0.15173345
0.15171761
0.15168655
0.15164145
0.15158987
0.15153658
0.15149807
0.15147838
0.15145569
0.15145715
0.15146321
0.15147927
0.15150761
0.15154388
0.15157369
0.15159358
0.15159994
0.15158875
0.15156229
0.15152631
0.15147802
0.15140643
0.1513346
0.15129511
0.15127044
0.15124057
0.15119681
0.069428743
0.069190419
0.069013816
0.068900961
0.06884838
0.068853977
0.06891737
0.069041913
0.069223837
0.069459871
0.069747658
0.070085987
0.070471556
0.070902015
0.071376
0.071891193
0.072445081
0.073035484
0.073660341
0.074317611
0.075005317
0.075721689
0.076465127
0.077234096
0.078027302
0.07884377
0.079682836
0.080544109
0.081427375
0.082332643
0.083260065
0.084209907
0.085182662
0.086178814
0.087198661
0.088241867
0.089307582
0.09039488
0.091501959
0.092626021
0.093763404
0.094910201
0.096062093
0.097214109
0.098361712
0.099500809
0.10062756
0.10173873
0.10283185
0.10390521
0.10495778
0.10598922
0.10699983
0.10799047
0.10896246
0.10991736
0.11085683
0.11178255
0.11269608
0.1135988
0.11449184
0.11537609
0.11625213
0.11712004
0.1179799
0.11883215
0.11967671
0.12051337
0.12134199
0.12216245
0.12297469
0.12377874
0.12457475
0.12536297
0.12614381
0.12691778
0.12768548
0.12844762
0.12920489
0.12995804
0.13070774
0.13145464
0.13219929
0.13294214
0.13368356
0.1344238
0.13516298
0.1359011
0.13663798
0.13737318
0.13810592
0.13883499
0.13955877
0.14027524
0.14098137
0.14167354
0.14234791
0.14299991
0.143624
0.14421522
0.14476938
0.14528518
0.14576426
0.14620779
0.1466146
0.14698249
0.14730012
0.14753304
0.14766036
0.14769869
0.14770747
0.14770199
0.14770073
0.14772374
0.14779081
0.14785938
0.1479306
0.14801172
0.1481017
0.14819733
0.14829923
0.14840576
0.14851663
0.14862772
0.1487451
0.14886387
0.14898778
0.14910976
0.14923867
0.14936459
0.14949319
0.14962211
0.14975336
0.14988374
0.15001409
0.15014271
0.15027018
0.15039894
0.15052902
0.15066091
0.1507952
0.15092884
0.15105957
0.15118381
0.15130112
0.15140974
0.1515063
0.15159003
0.15165927
0.15170554
0.15172614
0.15173329
0.15171722
0.15168608
0.15164089
0.1515892
0.15153649
0.15149808
0.15147801
0.15145547
0.15145692
0.15146316
0.15147931
0.15150756
0.1515435
0.15157293
0.15159264
0.15159876
0.15158744
0.15156101
0.15152507
0.15147651
0.15140525
0.1513345
0.15129464
0.15126919
0.1512388
0.15119587
0.067551614
0.067330944
0.067172615
0.06707566
0.067039597
0.067061448
0.067143921
0.067288612
0.06749052
0.067746847
0.068055909
0.068415684
0.06882457
0.06927945
0.069778198
0.070319236
0.070900208
0.071518719
0.072172691
0.072860128
0.073579044
0.074327559
0.07510398
0.075906787
0.076734526
0.077585963
0.07846016
0.079356433
0.080274328
0.08121353
0.082173901
0.083155419
0.084158163
0.085182378
0.086228248
0.087295597
0.088383678
0.089491364
0.090617347
0.091759493
0.092914843
0.094079743
0.095250326
0.096422381
0.097591243
0.098752742
0.099903153
0.10103899
0.10215733
0.10325595
0.1043333
0.10538851
0.10642132
0.1074321
0.1084218
0.10939176
0.11034358
0.11127896
0.11219963
0.11310721
0.11400314
0.11488864
0.11576466
0.11663183
0.11749027
0.11834034
0.11918247
0.1200166
0.1208426
0.1216604
0.12246993
0.12327117
0.12406421
0.1248492
0.12562645
0.12639636
0.12715944
0.12791631
0.12866764
0.12941413
0.13015648
0.13089537
0.13163139
0.13236507
0.13309684
0.13382704
0.13455588
0.13528349
0.13600983
0.13673471
0.13745766
0.13817793
0.1388943
0.13960515
0.14030847
0.1410013
0.14168014
0.14234123
0.14298022
0.14359186
0.14417158
0.14471564
0.14522315
0.14569596
0.1461352
0.14654003
0.14690873
0.14723021
0.14747164
0.14760949
0.14765882
0.14767723
0.147679
0.14768508
0.14771905
0.14779046
0.14785844
0.1479312
0.14801358
0.14810442
0.14820067
0.14830299
0.14840983
0.14852079
0.14863187
0.14874928
0.14886807
0.14899199
0.14911379
0.14924262
0.14936846
0.14949696
0.14962577
0.14975678
0.14988681
0.15001706
0.15014565
0.15027328
0.15040216
0.15053213
0.15066403
0.15079817
0.15093145
0.15106192
0.15118594
0.15130305
0.15141149
0.15150772
0.15159104
0.15165985
0.15170581
0.15172625
0.15173315
0.15171684
0.15168566
0.15164039
0.15158859
0.15153648
0.15149815
0.15147767
0.15145534
0.15145673
0.15146316
0.15147936
0.15150753
0.15154311
0.15157217
0.1515917
0.15159758
0.15158614
0.15155973
0.15152382
0.15147504
0.15140411
0.1513344
0.15129416
0.15126793
0.15123702
0.15119493
0.065416027
0.06528156
0.065207094
0.065193676
0.065237889
0.065344937
0.065512916
0.065739419
0.066020371
0.066353959
0.066738895
0.067173006
0.06765436
0.068180079
0.068748152
0.069356853
0.070003862
0.070686918
0.071404055
0.072153358
0.072932933
0.073741014
0.074576007
0.07543648
0.076321059
0.077228567
0.078158102
0.079108943
0.080080569
0.081072593
0.082084716
0.083116684
0.084168469
0.085240122
0.086331448
0.087441851
0.088570305
0.089715448
0.090875666
0.092048592
0.093231185
0.094419842
0.095610782
0.096799949
0.097982994
0.099156079
0.10031581
0.10145901
0.10258302
0.10368582
0.10476604
0.10582289
0.10685618
0.10786638
0.10885447
0.10982183
0.11077005
0.11170089
0.11261613
0.11351742
0.11440628
0.11528399
0.11615157
0.11700966
0.11785852
0.11869869
0.1195306
0.12035421
0.12116947
0.12197639
0.12277494
0.12356515
0.12434714
0.12512111
0.12588735
0.12664631
0.12739849
0.1281445
0.12888501
0.1296207
0.13035225
0.13108029
0.13180542
0.13252813
0.13324882
0.1339678
0.13468527
0.13540133
0.13611592
0.13682884
0.13753962
0.13824749
0.13895124
0.13964927
0.14033957
0.14101927
0.14168497
0.14233302
0.14295927
0.14355878
0.14412733
0.14466163
0.14516119
0.14562796
0.14606308
0.14646604
0.14683553
0.14716072
0.14741021
0.14755843
0.14761902
0.14764716
0.14765565
0.1476701
0.14771584
0.1477886
0.14785717
0.1479317
0.14801539
0.14810711
0.14820399
0.14830672
0.14841386
0.1485249
0.14863597
0.14875341
0.14887222
0.14899614
0.14911775
0.14924649
0.14937225
0.14950066
0.14962935
0.1497601
0.1498898
0.15001995
0.15014852
0.15027632
0.15040532
0.15053519
0.15066709
0.15080109
0.15093401
0.15106423
0.15118803
0.15130494
0.1514132
0.15150912
0.15159206
0.15166044
0.15170609
0.15172641
0.15173302
0.1517165
0.15168528
0.15163993
0.15158804
0.15153655
0.1514983
0.15147739
0.15145527
0.15145662
0.15146322
0.15147945
0.15150751
0.15154273
0.15157141
0.15159076
0.1515964
0.15158484
0.15155844
0.15152257
0.15147361
0.15140301
0.15133429
0.15129367
0.15126667
0.15123524
0.15119399
0.06334257
0.063296944
0.06331149
0.063386808
0.063523253
0.063720439
0.063974838
0.064284948
0.064647557
0.065061034
0.065523863
0.066033724
0.066588534
0.067185653
0.06782313
0.06849917
0.069211546
0.069958151
0.070737155
0.071546745
0.072385152
0.073250745
0.074142045
0.075057712
0.075996458
0.076957156
0.077938945
0.078941066
0.079962962
0.081004135
0.082064058
0.08314241
0.084239058
0.085353791
0.086486056
0.087634941
0.088799225
0.089977342
0.091167444
0.092367017
0.093572994
0.094781858
0.095989941
0.097193374
0.098388113
0.099570626
0.1007378
0.10188674
0.103015
0.10412077
0.10520277
0.10626029
0.10729325
0.10830215
0.109288
0.11025218
0.11119632
0.11212221
0.11303164
0.11392634
0.11480786
0.11567755
0.1165365
0.11738535
0.1182245
0.11905469
0.11987628
0.12068929
0.12149378
0.12228977
0.1230773
0.12385646
0.12462739
0.1253903
0.12614554
0.12689353
0.1276348
0.12836995
0.12909962
0.1298245
0.13054524
0.13126245
0.13197669
0.13268843
0.13339805
0.13410583
0.13481195
0.13551649
0.13621938
0.1369204
0.13761908
0.13831463
0.13900587
0.1396912
0.14036864
0.14103538
0.14168814
0.14232339
0.14293717
0.14352485
0.14408257
0.14460746
0.14509935
0.1455603
0.14599147
0.14639265
0.1467629
0.14709164
0.14734879
0.14750723
0.14757919
0.14761691
0.14763261
0.1476561
0.14771267
0.14778571
0.14785565
0.14793211
0.14801713
0.14810976
0.14820727
0.14831043
0.14841787
0.14852898
0.14864001
0.1487575
0.14887633
0.14900021
0.14912163
0.14925029
0.14937596
0.14950428
0.14963285
0.14976332
0.14989269
0.15002276
0.15015132
0.15027928
0.15040842
0.1505382
0.15067009
0.15080394
0.15093653
0.15106649
0.15119007
0.15130679
0.15141488
0.15151048
0.15159306
0.15166104
0.15170639
0.1517266
0.15173292
0.15171619
0.15168494
0.15163953
0.15158757
0.15153671
0.15149851
0.15147719
0.15145529
0.1514566
0.15146333
0.15147958
0.15150752
0.15154237
0.15157064
0.15158981
0.15159521
0.15158355
0.15155715
0.15152132
0.15147224
0.15140196
0.15133417
0.15129319
0.15126541
0.15123347
0.15119307
0.061348362
0.061396891
0.06150925
0.061682611
0.061913999
0.062202256
0.062545242
0.062941398
0.063387836
0.063882761
0.064424396
0.065010384
0.065638607
0.066306638
0.06701258
0.067754656
0.068530781
0.069339026
0.07017772
0.071045183
0.071939799
0.072860088
0.073804709
0.074772397
0.075761972
0.076772365
0.077802796
0.078852416
0.079920513
0.081006632
0.082110142
0.083230536
0.084367584
0.085520843
0.086689421
0.087872208
0.089067822
0.090274535
0.091490329
0.092712606
0.093938318
0.095164053
0.096386279
0.097601325
0.098805439
0.099995359
0.10116822
0.10232137
0.10345255
0.1045601
0.10564285
0.10670016
0.10773199
0.10873889
0.10972189
0.11068237
0.11162199
0.11254252
0.11344581
0.11433362
0.11520756
0.11606903
0.11691916
0.11775861
0.11858799
0.1194081
0.12021929
0.12102165
0.12181531
0.12260035
0.12337685
0.12414494
0.12490479
0.12565665
0.12640087
0.1271379
0.12786826
0.12859254
0.12931139
0.13002546
0.13073539
0.13144177
0.13214514
0.13284593
0.1335445
0.13424111
0.13493592
0.13562899
0.13632024
0.13700943
0.13769608
0.13837942
0.13905825
0.13973102
0.14039575
0.14104971
0.14168974
0.14231244
0.14291404
0.14349019
0.1440374
0.14455321
0.14503769
0.14549303
0.14592039
0.14631987
0.14669084
0.14702297
0.14728739
0.14745595
0.14753934
0.14758649
0.14761023
0.14764353
0.14770818
0.14778203
0.14785395
0.14793244
0.14801883
0.14811237
0.14821053
0.14831411
0.14842185
0.14853301
0.14864403
0.14876156
0.1488804
0.14900421
0.14912545
0.14925403
0.14937959
0.14950782
0.14963626
0.14976646
0.14989549
0.15002548
0.15015405
0.15028219
0.15041147
0.15054115
0.15067303
0.15080673
0.150939
0.15106871
0.15119207
0.15130859
0.15141653
0.15151182
0.15159405
0.15166163
0.15170671
0.15172682
0.15173283
0.15171593
0.15168464
0.15163918
0.15158718
0.15153696
0.1514988
0.15147707
0.1514554
0.15145667
0.1514635
0.15147975
0.15150755
0.15154201
0.15156988
0.15158886
0.15159402
0.15158227
0.15155584
0.15152008
0.15147092
0.15140095
0.15133406
0.1512927
0.15126416
0.15123171
0.15119217
0.059359393
0.059454949
0.05960948
0.059824477
0.060096967
0.060424834
0.060806404
0.061240115
0.061723969
0.062255217
0.062831913
0.06345211
0.064113488
0.064813977
0.06555135
0.066323802
0.067129647
0.067966986
0.068834101
0.069729494
0.070651656
0.071599141
0.07257064
0.073564967
0.074580939
0.075617525
0.076673668
0.077748489
0.078841272
0.079951313
0.081078001
0.082220552
0.083378431
0.084551302
0.085738448
0.086938726
0.088150908
0.089373468
0.090604557
0.091842044
0.093083294
0.094325309
0.095564796
0.09679837
0.09802256
0.099233884
0.10042932
0.10160621
0.10276212
0.10389496
0.10500318
0.10608569
0.10714193
0.10817189
0.10917614
0.11015571
0.11111199
0.11204664
0.11296145
0.11385828
0.11473894
0.11560507
0.11645814
0.11729928
0.1181292
0.11894874
0.11975869
0.12055942
0.12135109
0.12213389
0.12290796
0.12367342
0.12443043
0.1251792
0.12592001
0.12665323
0.1273793
0.12809876
0.12881219
0.12952022
0.1302235
0.13092264
0.13161821
0.13231072
0.13300059
0.13368814
0.13437363
0.13505717
0.13573883
0.1364185
0.13709595
0.13777067
0.1384419
0.13910846
0.13976881
0.14042099
0.14106236
0.14168989
0.14230028
0.14288998
0.14345491
0.14399193
0.14449896
0.14497629
0.1454262
0.1458499
0.14624774
0.14661934
0.14695471
0.14722605
0.14740459
0.14749944
0.14755604
0.1475886
0.14763189
0.14770221
0.14777781
0.14785211
0.1479327
0.14802049
0.14811497
0.14821378
0.14831777
0.14842582
0.14853702
0.14864809
0.14876557
0.14888443
0.14900816
0.14912921
0.1492577
0.14938314
0.14951128
0.14963958
0.1497695
0.14989821
0.15002812
0.15015672
0.15028504
0.15041445
0.15054405
0.15067591
0.15080944
0.15094142
0.15107089
0.15119402
0.15131035
0.15141815
0.15151314
0.15159501
0.15166223
0.15170704
0.15172706
0.15173277
0.15171571
0.15168438
0.15163888
0.15158686
0.15153729
0.1514992
0.151477
0.15145561
0.15145683
0.15146373
0.15147997
0.15150762
0.15154167
0.15156912
0.15158791
0.15159282
0.15158099
0.15155454
0.15151883
0.15146965
0.15139998
0.15133395
0.15129221
0.15126292
0.15122999
0.1511913
0.057483354
0.057690489
0.057953133
0.058271871
0.058645591
0.059071751
0.059548348
0.06007376
0.060645633
0.061261348
0.061918877
0.062616195
0.063351083
0.064121587
0.06492569
0.065761735
0.066628188
0.067523378
0.06844583
0.069394219
0.07036725
0.071363661
0.072382425
0.073422429
0.074482483
0.075561609
0.076659012
0.077773837
0.078905377
0.080052805
0.081215409
0.082392378
0.083583131
0.084787205
0.086003623
0.08723109
0.088468288
0.089713575
0.090965016
0.092220412
0.093477127
0.094732232
0.095982561
0.097224882
0.098455917
0.099672427
0.1008716
0.10205097
0.10320828
0.10434157
0.10544941
0.10653075
0.10758509
0.10861246
0.10961343
0.11058903
0.11154064
0.11246991
0.11337864
0.11426872
0.11514198
0.1160001
0.11684459
0.11767659
0.1184969
0.11930653
0.12010626
0.12089647
0.12167743
0.12244935
0.12321243
0.12396685
0.12471279
0.1254505
0.12618028
0.1269025
0.12761764
0.12832621
0.12902881
0.12972605
0.13041856
0.13110694
0.13179173
0.13247342
0.1331524
0.13382898
0.13450338
0.13517573
0.13584604
0.13651422
0.13718
0.1378429
0.13850213
0.13915655
0.13980463
0.14044445
0.14107343
0.14168868
0.14228702
0.14286509
0.14341911
0.14394625
0.14444479
0.14491521
0.14535987
0.14578003
0.14617627
0.14654842
0.14688685
0.1471648
0.14735317
0.14745948
0.14752566
0.14756766
0.14762032
0.14769533
0.14777325
0.14785018
0.14793291
0.14802211
0.14811754
0.14821701
0.14832142
0.14842979
0.14854103
0.14865238
0.14876949
0.14888842
0.14901207
0.14913293
0.1492613
0.14938662
0.14951465
0.14964283
0.14977246
0.14990084
0.15003067
0.15015933
0.15028783
0.15041737
0.15054689
0.15067875
0.1508121
0.1509438
0.15107304
0.15119593
0.15131207
0.15141974
0.15151445
0.15159597
0.15166282
0.15170738
0.15172733
0.15173273
0.15171553
0.15168416
0.15163864
0.15158663
0.1515377
0.15149971
0.15147696
0.15145591
0.15145707
0.15146401
0.15148026
0.15150773
0.15154134
0.15156837
0.15158696
0.15159162
0.15157972
0.15155323
0.15151759
0.15146843
0.15139905
0.15133384
0.15129173
0.15126169
0.1512283
0.15119048
0.055750898
0.056070544
0.05644265
0.056867372
0.057343918
0.057869252
0.058441168
0.059057788
0.059716598
0.060415109
0.061151279
0.061923099
0.062728517
0.063565753
0.064433034
0.065328909
0.066252028
0.067201006
0.068174632
0.069171797
0.07019146
0.071232505
0.072294004
0.073375
0.07447446
0.07559167
0.076725851
0.077876089
0.079041664
0.080221777
0.081415636
0.082622404
0.083841444
0.085072142
0.086313332
0.087563634
0.088821646
0.090085639
0.091353627
0.092623374
0.093892269
0.095157466
0.096415928
0.097664574
0.098900309
0.10012012
0.10132136
0.10250175
0.10365915
0.10479176
0.10589819
0.10697749
0.10802916
0.10905326
0.11005035
0.11102145
0.11196794
0.11289144
0.11379377
0.11467683
0.11554245
0.11639238
0.11722813
0.11805085
0.11886148
0.11966115
0.1204506
0.12123027
0.12200048
0.12276152
0.12351363
0.12425701
0.1249919
0.12571857
0.12643733
0.12714859
0.12785282
0.12855054
0.12924233
0.12992882
0.13061059
0.13128824
0.13196229
0.13263319
0.13330134
0.133967
0.13463038
0.1352916
0.13595064
0.13660741
0.13726164
0.13791282
0.13856019
0.13920261
0.13983858
0.14046621
0.14108301
0.14168621
0.14227275
0.14283949
0.14338288
0.14390046
0.14439078
0.14485451
0.14529409
0.14571081
0.14610548
0.1464781
0.14681943
0.14710368
0.14730172
0.14741947
0.14749542
0.1475472
0.1476085
0.14768786
0.14776848
0.14784818
0.14793306
0.14802371
0.1481201
0.14822023
0.14832507
0.14843374
0.148545
0.14865643
0.14877348
0.14889239
0.14901592
0.14913659
0.14926484
0.14939003
0.14951794
0.149646
0.14977535
0.14990339
0.15003315
0.15016187
0.15029055
0.15042022
0.15054969
0.15068154
0.1508147
0.15094614
0.15107515
0.1511978
0.15131375
0.1514213
0.15151574
0.15159692
0.15166342
0.15170774
0.15172762
0.15173269
0.15171539
0.15168399
0.15163846
0.15158647
0.15153819
0.15150031
0.15147697
0.1514563
0.1514574
0.15146437
0.15148061
0.15150788
0.15154102
0.15156762
0.15158601
0.15159041
0.15157845
0.15155191
0.15151636
0.15146727
0.15139816
0.15133375
0.15129125
0.15126049
0.15122667
0.15118971
0.054176989
0.054610571
0.055093538
0.055625433
0.056204967
0.056828876
0.057494822
0.058200707
0.058943997
0.05972235
0.060533785
0.061376403
0.062248392
0.063148177
0.064074291
0.065025543
0.066000806
0.06699908
0.068019372
0.06906061
0.070121988
0.071202813
0.07230226
0.073419626
0.074553965
0.075704588
0.076870761
0.078051678
0.079246592
0.080454713
0.081675212
0.082907229
0.084150058
0.085402927
0.086664565
0.08793354
0.089208369
0.090487271
0.091768229
0.093048995
0.094327005
0.0955995
0.096863572
0.098116288
0.099354725
0.10057606
0.10177781
0.10295782
0.1041141
0.10524493
0.10634901
0.1074254
0.10847366
0.10949384
0.11048648
0.1114526
0.11239354
0.11331091
0.11420653
0.11508231
0.11594009
0.11678165
0.11760852
0.11842185
0.11922276
0.1200124
0.12079153
0.12156064
0.1223201
0.12307026
0.1238114
0.12454377
0.12526763
0.12598329
0.12669107
0.1273914
0.12808476
0.12877166
0.12945269
0.13012845
0.13079953
0.1314665
0.13212985
0.13279003
0.13344739
0.1341022
0.13475464
0.1354048
0.13605267
0.13669813
0.1373409
0.13798049
0.13861613
0.1392467
0.13987073
0.14048636
0.1410912
0.14168258
0.14225759
0.14281326
0.14334634
0.14385463
0.144337
0.14479425
0.1452289
0.14564229
0.14603541
0.14640839
0.14675245
0.14704272
0.14725024
0.14737939
0.14746532
0.14752699
0.14759634
0.14767998
0.14776356
0.14784612
0.14793318
0.14802528
0.14812264
0.14822345
0.1483287
0.14843766
0.14854896
0.14866044
0.14877745
0.14889632
0.14901974
0.1491402
0.14926832
0.14939336
0.14952115
0.14964909
0.14977815
0.14990586
0.15003554
0.15016435
0.15029322
0.15042301
0.15055243
0.15068428
0.15081725
0.15094845
0.15107723
0.15119963
0.1513154
0.15142284
0.15151702
0.15159785
0.15166401
0.15170811
0.15172793
0.15173266
0.1517153
0.15168387
0.15163833
0.1515864
0.15153876
0.151501
0.15147706
0.15145675
0.1514578
0.15146481
0.15148103
0.15150808
0.15154073
0.15156689
0.15158508
0.15158921
0.15157718
0.1515506
0.15151514
0.15146615
0.15139733
0.15133367
0.15129078
0.15125932
0.15122509
0.15118899
0.052776504
0.053324859
0.05391889
0.054557355
0.055238393
0.055958709
0.056715893
0.057507725
0.058331759
0.059185836
0.060068113
0.060976903
0.061910691
0.062868152
0.063848259
0.064850049
0.065872506
0.066914873
0.067976632
0.06905688
0.070155232
0.071271126
0.0724038
0.073552678
0.074717081
0.075896354
0.077089808
0.07829672
0.079516344
0.080747893
0.081990526
0.083243373
0.08450564
0.085776416
0.087054388
0.088338088
0.089625967
0.09091621
0.09220679
0.093495468
0.094779737
0.096056931
0.097324267
0.098578951
0.099818218
0.10103941
0.1022402
0.10341852
0.10457251
0.10570054
0.10680135
0.10787404
0.10891817
0.1099338
0.11092146
0.11188212
0.11281711
0.11372801
0.11461664
0.11548489
0.11633465
0.11716769
0.11798554
0.11878939
0.11958054
0.12036011
0.12112889
0.12188742
0.12263614
0.12337544
0.12410563
0.12482701
0.12553988
0.12624456
0.12694141
0.12763086
0.12831338
0.12898951
0.12965983
0.13032492
0.13098536
0.13164169
0.13229441
0.13294392
0.13359057
0.1342346
0.13487617
0.13551536
0.13615214
0.1367864
0.13741785
0.13804598
0.13867003
0.13928891
0.13990117
0.14050501
0.1410981
0.14167789
0.14224163
0.14278653
0.14330957
0.14380887
0.14428353
0.14473451
0.14516437
0.1455745
0.14596607
0.14633934
0.14668595
0.14698198
0.14719878
0.14733926
0.14743535
0.14750686
0.14758384
0.1476718
0.14775854
0.14784401
0.14793327
0.14802683
0.14812517
0.14822666
0.14833234
0.14844156
0.14855292
0.14866446
0.1487814
0.14890021
0.1490235
0.14914376
0.14927173
0.14939662
0.14952427
0.1496521
0.14978087
0.14990826
0.15003786
0.15016678
0.15029581
0.15042572
0.15055512
0.15068698
0.15081975
0.15095072
0.15107927
0.15120142
0.15131702
0.15142435
0.15151829
0.15159878
0.15166459
0.15170849
0.15172825
0.15173265
0.15171523
0.15168379
0.15163825
0.15158642
0.15153941
0.15150176
0.15147724
0.15145724
0.15145826
0.15146533
0.15148152
0.15150832
0.15154046
0.15156616
0.15158415
0.151588
0.15157593
0.1515493
0.15151393
0.15146508
0.15139655
0.15133361
0.15129032
0.15125818
0.15122357
0.15118835
0.051562052
0.052224566
0.052928093
0.053670743
0.054450206
0.055263275
0.056107539
0.056980768
0.057880697
0.058805403
0.059753248
0.060722942
0.06171328
0.062723117
0.063751662
0.064798432
0.065862647
0.066944042
0.068042262
0.06915671
0.070287102
0.071433057
0.072594083
0.073769705
0.074959426
0.076162658
0.077378775
0.078607114
0.079846947
0.081097499
0.082357928
0.083627361
0.084904912
0.086189557
0.087479977
0.088774688
0.090072081
0.09137033
0.092667411
0.093961109
0.095248981
0.096528456
0.097796871
0.099051562
0.10028991
0.10150941
0.10270784
0.10388324
0.10503383
0.10615807
0.10725473
0.10832295
0.10936229
0.11037278
0.11135493
0.11230969
0.11323834
0.11414245
0.11502382
0.11588434
0.11672588
0.11755026
0.11835897
0.11915329
0.11993463
0.12070411
0.12146252
0.12221047
0.12294846
0.12367692
0.1243962
0.12510664
0.12580856
0.1265023
0.12718827
0.12786687
0.12853862
0.12920404
0.1298637
0.13051818
0.13116803
0.1318138
0.13245594
0.13309486
0.13373087
0.1343642
0.13499499
0.13562331
0.13624912
0.13687229
0.13749253
0.13810934
0.13872196
0.13932932
0.13993
0.14052223
0.1411038
0.14167225
0.14222498
0.14275938
0.14327268
0.14376325
0.14423044
0.14467533
0.14510054
0.1455075
0.14589752
0.14627095
0.14661996
0.1469215
0.14714735
0.1472991
0.14740547
0.1474867
0.14757104
0.14766339
0.14775345
0.14784187
0.14793332
0.14802836
0.1481277
0.14822987
0.14833597
0.14844544
0.14855688
0.14866847
0.14878531
0.14890405
0.1490272
0.14914726
0.14927506
0.1493998
0.14952732
0.14965502
0.14978351
0.14991059
0.1500401
0.15016914
0.15029835
0.15042837
0.15055776
0.15068963
0.15082221
0.15095295
0.15108128
0.15120318
0.1513186
0.15142584
0.15151954
0.15159969
0.15166518
0.15170887
0.15172859
0.15173266
0.15171521
0.15168376
0.15163823
0.15158653
0.15154012
0.15150263
0.15147753
0.15145776
0.15145878
0.15146593
0.1514821
0.15150861
0.15154021
0.15156545
0.15158323
0.15158679
0.15157468
0.15154801
0.15151272
0.15146406
0.15139584
0.15133357
0.15128988
0.15125707
0.15122211
0.15118777
0.049808444
0.050542674
0.051316894
0.052126621
0.052969445
0.053842803
0.054743653
0.055669669
0.056618716
0.057588794
0.058578367
0.059586011
0.060610694
0.061651606
0.062707928
0.063779399
0.064865778
0.065966638
0.067081878
0.068211364
0.069354926
0.070512405
0.071683587
0.0728682
0.074065901
0.075276324
0.07649897
0.077733284
0.078978655
0.080234384
0.081499713
0.082773808
0.084055794
0.085344698
0.08663942
0.087938644
0.089240886
0.090544495
0.091847643
0.093148322
0.094444353
0.09573336
0.097012868
0.098280325
0.099533193
0.10076898
0.10198532
0.10318008
0.10435138
0.10549753
0.10661704
0.10770872
0.10877173
0.10980562
0.11081041
0.11178657
0.112735
0.11365695
0.11455397
0.11542782
0.1162804
0.11711359
0.11792917
0.11872863
0.11951339
0.12028489
0.12104424
0.12179227
0.12252966
0.12325695
0.12397459
0.124683
0.12538254
0.12607356
0.12675643
0.12743156
0.1280994
0.12876043
0.1294152
0.13006426
0.13070819
0.13134753
0.1319828
0.13261445
0.13324285
0.13386831
0.13449102
0.13511113
0.13572868
0.13634364
0.13695585
0.13756501
0.13817065
0.138772
0.13936801
0.13995729
0.14053814
0.1411084
0.14166576
0.14220774
0.14273191
0.14323574
0.14371785
0.14417781