/*--------------------------------*- C++ -*----------------------------------*\
| =========                 |                                                 |
| \\      /  F ield         | OpenFOAM: The Open Source CFD Toolbox           |
|  \\    /   O peration     | Version:  2406                                  |
|   \\  /    A nd           | Website:  www.openfoam.com                      |
|    \\/     M anipulation  |                                                 |
\*---------------------------------------------------------------------------*/
FoamFile
{
    version     2.0;
    format      ascii;
    arch        "LSB;label=32;scalar=64";
    class       volScalarField;
    location    "0.002";
    object      omega;
}
// * * * * * * * * * * * * * * * * * * * * * * * * * * * * * * * * * * * * * //

dimensions      [0 0 -1 0 0 0 0];

internalField   nonuniform List<scalar> 
8951
(
18786.117
18436.714
18090.937
17750.1
17415.175
17086.841
16765.641
16451.861
16145.681
15847.104
15556.115
15272.543
14996.104
14726.435
14463.124
14205.661
13953.506
13706.112
13462.964
13223.555
12987.404
12754.045
12523.048
12294.019
12066.592
11840.463
11615.397
11391.223
11167.829
10945.176
10723.287
10502.237
10282.112
10062.959
9844.6213
9627.0068
9410.0548
9193.5212
8977.0199
8760.1878
8542.7335
8324.5047
8105.6799
7886.943
7669.592
7455.5222
7247.0209
7046.4059
6855.6691
6676.2057
6508.6399
6352.8312
6208.008
6072.9776
5946.3561
5826.7568
5712.9018
5603.6613
5498.0634
5395.2926
5294.6667
5195.6201
5097.7625
5000.9538
4904.7321
4808.5454
4712.0837
4615.1203
4517.4891
4419.0604
4319.7241
4219.3807
4117.939
4015.3173
3911.4451
3806.2644
3699.7293
3591.8058
3482.4693
3371.7037
3259.4978
3145.8425
3030.7271
2914.1352
2796.045
2676.4249
2555.2319
2432.4109
2307.8946
2181.6051
2053.4675
1923.4233
1791.3742
1657.2099
1520.9158
1382.6632
1243.0257
1103.2712
965.47552
832.37019
706.98206
592.19682
490.32566
402.80974
330.23814
272.5566
229.23384
198.90677
179.06992
166.50545
158.47936
153.06348
149.08987
145.91766
143.25304
140.92748
138.86386
137.01396
135.33087
133.80898
132.4243
131.15212
129.99432
128.9457
127.99767
127.13095
126.35091
125.65084
125.0156
124.43428
123.91544
123.45177
123.05264
122.69797
122.38212
122.09612
121.83113
121.60365
121.40068
121.22415
121.07248
120.95841
120.86265
120.78251
120.72216
120.67911
120.656
120.65659
120.69238
120.74132
120.80612
120.88982
120.94477
121.01186
121.1162
121.1725
121.23492
121.30927
121.44173
121.60617
121.75595
121.87948
122.04038
122.18679
122.42063
122.59066
122.81985
123.09415
123.26411
123.49216
123.82469
124.03252
124.21067
124.35351
124.70493
124.92789
125.41545
18933.764
18570.27
18210.338
17855.703
17507.422
17166.38
16833.155
16508.199
16191.743
15883.907
15584.611
15293.759
15011.05
14736.076
14468.396
14207.5
13952.804
13703.713
13459.642
13220.034
12984.347
12752.075
12522.738
12295.897
12071.153
11848.149
11626.597
11406.273
11187.014
10968.718
10751.344
10534.91
10319.454
10104.994
9891.4396
9678.6078
9466.4012
9254.6335
9042.9711
8830.9906
8618.3149
8404.6634
8189.9353
7974.3796
7758.7356
7544.306
7332.9153
7126.7095
6927.8378
6738.1426
6558.9191
6390.7723
6233.6254
6086.8369
5949.3836
5820.0596
5697.637
5580.9641
5469.0057
5360.8584
5255.7508
5153.0279
5052.1481
4952.7525
4854.6424
4757.288
4660.1996
4563.0848
4465.7143
4367.9125
4269.5381
4170.4704
4070.6012
3969.8333
3868.0809
3765.2708
3661.3431
3556.2511
3449.9597
3342.4445
3233.6891
3123.6833
3012.4191
2899.8877
2786.0764
2670.9675
2554.5356
2436.7456
2317.5522
2196.901
2074.7302
1950.9838
1825.6184
1698.5624
1569.7495
1439.2181
1307.2058
1174.3423
1041.8881
911.80828
786.61735
669.04758
561.65922
466.46207
384.66596
316.71552
262.51829
221.63323
192.90169
174.05976
162.10639
154.44429
149.25702
145.43836
142.38082
139.80352
137.54766
135.54043
133.7353
132.08912
130.59597
129.23304
127.97795
126.83309
125.79294
124.84835
123.98235
123.20011
122.4946
121.85111
121.26064
120.73094
120.25465
119.83877
119.46506
119.12802
118.82098
118.53483
118.28503
118.05896
117.85619
117.67711
117.53289
117.40595
117.29426
117.20159
117.12578
117.06897
117.03328
117.0327
117.04048
117.0635
117.1027
117.12125
117.14829
117.20108
117.22047
117.23934
117.27173
117.34524
117.45356
117.5511
117.62807
117.7363
117.83386
118.00374
118.12172
118.28677
118.48821
118.60502
118.76642
119.0126
119.16109
119.27853
119.3727
119.62363
119.78766
120.15132
18697.503
18323.383
17954.478
17592.365
17238.088
16892.417
16555.866
16228.788
15911.349
15603.565
15305.286
15016.235
14735.976
14464.009
14199.797
13942.732
13692.159
13447.429
13207.914
12973.014
12742.159
12514.817
12290.497
12068.754
11849.188
11631.452
11415.267
11200.419
10986.746
10774.147
10562.579
10352.036
10142.506
9933.9088
9726.0661
9518.8162
9311.9891
9105.3007
8898.3632
8690.7424
8482.0642
8272.0769
8060.7376
7848.3571
7635.7128
7424.0938
7215.2437
7011.174
6813.8843
6625.091
6446.0153
6277.2628
6118.8292
5970.2007
5830.512
5698.7177
5573.7312
5454.5133
5340.1134
5229.6886
5122.5069
5017.9385
4915.4656
4814.7501
4715.5211
4617.2242
4519.4244
4421.8338
4324.2187
4226.3944
4128.2093
4029.5331
3930.2503
3830.2585
3729.468
3627.8032
3525.2024
3421.6175
3317.0129
3211.3635
3104.6532
2996.8721
2888.0132
2778.0699
2667.0324
2554.8876
2441.6154
2327.1882
2211.5701
2094.7182
1976.5859
1857.1331
1736.3313
1614.1343
1490.5146
1365.5554
1239.5431
1113.137
987.56336
864.66139
746.73239
636.2376
535.45206
446.13222
369.30315
305.30388
254.0319
215.15627
187.73014
169.71078
158.27399
150.92771
145.94044
142.25929
139.30427
136.80658
134.61519
132.66058
130.89794
129.28737
127.82272
126.48225
125.24565
124.11555
123.08618
122.14813
121.28614
120.50524
119.79822
119.15078
118.55557
118.01946
117.53507
117.10746
116.72016
116.36774
116.04515
115.74409
115.47735
115.23422
115.01238
114.81269
114.64543
114.49467
114.35886
114.2413
114.14076
114.05834
113.99478
113.96491
113.94212
113.93447
113.93766
113.92951
113.9267
113.93849
113.93139
113.91729
113.91816
113.94659
114.01082
114.06898
114.11201
114.17966
114.24172
114.36181
114.44178
114.55801
114.70291
114.78162
114.89255
115.07145
115.17699
115.24992
115.30987
115.48393
115.60482
115.87215
18428.555
18045.346
17669.107
17301.319
16942.883
16594.476
16256.608
15929.388
15612.96
15307.22
15011.823
14726.332
14450.2
14182.826
13923.571
13671.731
13426.587
13187.437
12953.611
12724.471
12499.422
12277.917
12059.453
11843.584
11629.914
11418.104
11207.883
10999.04
10791.413
10584.898
10379.44
10175.002
9971.5017
9768.7617
9566.5901
9364.8121
9163.1704
8961.3194
8758.8423
8555.3098
8350.3668
8143.8024
7935.6335
7726.2268
7516.3878
7307.3852
7100.8841
6898.7742
6702.9235
6514.9406
6335.9874
6166.6761
6007.0716
5856.7769
5715.0687
5581.0446
5453.7446
5332.2314
5215.6316
5103.158
4994.1155
4887.8997
4784.0164
4682.141
4581.9257
4482.8226
4384.4389
4286.4863
4188.7268
4090.9674
3993.0477
3894.829
3796.1895
3697.0218
3597.2332
3496.7457
3395.4958
3293.4343
3190.5246
3086.7415
2982.0685
2876.4962
2770.0184
2662.6302
2554.3246
2445.0922
2334.9181
2223.7812
2111.654
1998.5044
1884.2989
1769.012
1652.6286
1535.1263
1416.5118
1296.9065
1176.6351
1056.3728
937.30255
821.13959
709.98615
606.05748
511.37451
427.47139
355.21431
294.85523
246.28966
209.28817
183.0901
165.84561
154.89078
147.83961
143.03753
139.48276
136.62239
134.19862
132.06759
130.16266
128.44064
126.86449
125.42792
124.11021
122.89289
121.77873
120.76168
119.83233
118.97671
118.19977
117.49419
116.8461
116.24954
115.71048
115.22153
114.78621
114.38967
114.0265
113.69294
113.38151
113.10265
112.84693
112.61129
112.39649
112.2118
112.04299
111.88889
111.75233
111.6331
111.53133
111.44694
111.3944
111.34809
111.31584
111.29475
111.26307
111.23657
111.22304
111.19122
111.15291
111.12651
111.12885
111.15442
111.18256
111.201
111.23693
111.27401
111.35428
111.40692
111.48588
111.58677
111.63804
111.7107
111.83717
111.91087
111.95185
111.98726
112.10309
112.19159
112.3848
18524.578
18126.74
17736.388
17354.978
16983.707
16623.379
16274.596
15937.626
15612.57
15299.376
14997.733
14707.134
14427.004
14156.679
13895.455
13642.587
13397.289
13158.781
12926.316
12699.185
12476.723
12258.317
12043.408
11831.492
11622.123
11414.91
11209.525
11005.701
10803.23
10601.946
10401.736
10202.532
10004.252
9806.732
9609.7401
9413.1002
9216.5794
9019.8597
8822.5592
8624.2515
8424.5251
8223.0558
8019.6803
7814.4734
7607.8508
7400.6368
7194.0738
6989.7518
6789.45
6594.9207
6407.6799
6228.8421
6059.0301
5898.374
5746.5829
5603.0607
5467.0329
5337.6535
5214.077
5095.5013
4981.1904
4870.484
4762.8031
4657.6778
4554.7849
4453.7062
4353.9233
4255.0706
4156.8579
4059.043
3961.4259
3863.838
3766.1337
3668.1855
3569.8819
3471.1271
3371.8409
3271.9584
3171.4291
3070.2157
2968.2923
2865.6425
2762.2566
2658.1296
2553.2577
2447.6364
2341.2596
2234.1169
2126.1931
2017.4683
1907.92
1797.5265
1686.2748
1574.1628
1461.1893
1347.3913
1232.9221
1118.1348
1003.7095
890.77942
780.93892
676.10537
578.27125
489.23115
410.32438
342.2807
285.28076
239.224
203.97306
178.93004
162.41431
151.90811
145.13081
140.49999
137.0616
134.28827
131.93289
129.85815
127.9999
126.31646
124.77329
123.36402
122.06887
120.87105
119.77332
118.76951
117.85023
117.00249
116.23127
115.52919
114.88283
114.28737
113.74788
113.25696
112.81699
112.41456
112.0442
111.70329
111.3849
111.09754
110.83284
110.58733
110.36165
110.16391
109.98152
109.8137
109.66294
109.52967
109.4133
109.31325
109.24315
109.17896
109.12822
109.08849
109.03905
108.9949
108.96267
108.91086
108.85504
108.80794
108.78757
108.78863
108.79134
108.79157
108.80301
108.82261
108.87119
108.90407
108.95449
109.02129
109.05247
109.09635
109.18191
109.23144
109.25022
109.26766
109.33967
109.40377
109.53987
18197.562
17792.916
17398.098
17014.128
16642.043
16282.502
15935.884
15602.399
15281.935
14974.203
14678.715
14394.815
14121.793
13858.869
13605.232
13360.044
13122.449
12891.619
12666.768
12447.16
12232.113
12021.003
11813.269
11608.41
11405.985
11205.613
11006.972
10809.804
10613.896
10419.082
10225.238
10032.274
9840.0565
9648.3431
9456.9096
9265.5638
9074.0132
8881.9057
8688.8422
8494.4019
8298.2001
8099.9519
7899.5437
7697.1045
7493.0904
7288.3368
7084.0553
6881.7639
6683.1418
6489.8393
6303.293
6124.579
5954.333
5792.746
5639.623
5494.4819
5356.663
5225.4223
5099.9984
4979.6542
4863.7012
4751.5126
4642.5341
4536.3218
4432.5368
4330.7104
4230.3634
4131.1449
4032.7631
3934.9718
3837.5646
3740.3662
3643.2249
3546.0082
3448.6008
3350.9044
3252.8367
3154.3313
3055.3365
2955.8144
2855.7382
2755.0914
2653.8643
2552.0522
2449.6528
2346.6635
2243.081
2138.8988
2034.107
1928.6926
1822.6417
1715.9429
1608.5941
1500.6053
1391.9945
1282.8246
1173.275
1063.7189
954.8321
847.69361
743.78135
644.84161
552.66539
468.84588
394.55173
330.39571
276.50046
232.77345
199.15946
175.20241
159.3708
149.28211
142.75739
138.28501
134.95394
132.25997
129.96765
127.94516
126.13059
124.48361
122.97184
121.58888
120.31585
119.13741
118.05625
117.06618
116.15784
115.319
114.55471
113.85762
113.21468
112.6221
112.084
111.59303
111.15074
110.74495
110.37012
110.0246
109.70183
109.40873
109.13784
108.88546
108.6521
108.4447
108.25219
108.0742
107.91294
107.76918
107.64189
107.53021
107.44653
107.36881
107.30405
107.25
107.18746
107.13005
107.08346
107.01695
106.94799
106.88569
106.84772
106.82903
106.81338
106.79729
106.79493
106.79954
106.82383
106.84202
106.87059
106.91119
106.92723
106.95014
107.00312
107.03411
107.0382
107.04194
107.08181
107.12768
107.21908
17837.561
17429.776
17033.571
16650.173
16280.234
15924.344
15582.739
15255.354
14941.858
14641.759
14354.397
14078.975
13814.649
13560.531
13315.715
13079.285
12850.334
12627.998
12411.467
12199.988
11992.874
11789.501
11589.314
11391.818
11196.585
11003.244
10811.484
10621.048
10431.728
10243.35
10055.781
9868.9039
9682.5237
9496.3623
9310.2181
9123.8537
8936.9407
8749.11
8559.9596
8369.0856
8176.1369
7980.8714
7783.2251
7583.375
7381.81
7179.3685
6977.229
6776.8403
6579.7911
6387.6418
6201.7599
6023.1908
5852.5842
5690.1868
5535.8906
5389.3155
5249.9044
5117.0057
4989.9345
4868.0135
4750.5987
4637.0948
4526.973
4419.8148
4315.2493
4212.7843
4111.9777
4012.4861
3914.016
3816.3177
3719.1796
3622.4204
3525.883
3429.4306
3332.9448
3236.3247
3139.4861
3042.3614
2944.8978
2847.0561
2748.8094
2650.1403
2551.0393
2451.502
2351.5268
2251.1131
2150.2597
2048.9636
1947.2198
1845.0213
1742.3617
1639.2385
1535.6594
1431.6453
1327.2313
1222.5024
1117.6586
1013.0856
909.44804
807.7679
709.41169
615.96796
529.04573
450.05904
380.0272
319.46275
268.44148
226.88151
194.79981
171.86351
156.67349
146.97304
140.68119
136.35509
133.1221
130.50026
128.26585
126.29166
124.51778
122.90509
121.42312
120.06535
118.81382
117.65442
116.58972
115.61358
114.71671
113.88741
113.13087
112.43979
111.8015
111.21304
110.67766
110.18806
109.7452
109.33797
108.96072
108.61269
108.28748
107.99073
107.7158
107.45881
107.2202
107.00573
106.80577
106.62038
106.45146
106.29994
106.16456
106.04434
105.95024
105.86232
105.78699
105.722
105.64989
105.58262
105.52495
105.44784
105.36915
105.29556
105.24413
105.20986
105.18041
105.15252
105.13867
105.13256
105.14066
105.14641
105.15825
105.1788
105.18311
105.19085
105.2184
105.2346
105.22956
105.22168
105.24067
105.27187
105.32798
17449.074
17041.797
16647.659
16268.002
15903.428
15554.247
15220.414
14901.621
14597.334
14306.868
14029.397
13763.99
13509.687
13265.506
13030.467
12803.598
12583.959
12370.666
12162.9
11959.908
11761.007
11565.584
11373.096
11183.064
10995.072
10808.765
10623.842
10440.053
10257.188
10075.07
9893.5521
9712.4894
9531.6304
9350.7057
9169.5136
8987.7735
8805.1411
8621.2423
8435.6835
8248.0854
8058.1337
7865.6306
7670.5586
7473.1365
7273.8775
7073.6169
6873.4976
6674.9033
6479.3403
6288.2887
6103.0567
5924.6639
5753.7744
5590.6862
5435.3689
5287.5342
5146.7171
5012.3496
4883.8165
4760.4958
4641.7852
4527.1199
4415.9969
4308.0186
4202.7739
4099.7723
3998.6003
3898.918
3800.4312
3702.887
3606.0691
3509.7912
3413.8917
3318.23
3222.6847
3127.1527
3031.5484
2935.8024
2839.8611
2743.6844
2647.2444
2550.5234
2453.5117
2356.2048
2258.602
2160.7038
2062.5112
1964.0242
1865.242
1766.1628
1666.7867
1567.1191
1467.1762
1366.9888
1266.6069
1166.1338
1065.7853
965.95356
867.28597
770.74647
677.59569
589.27707
507.23548
432.72569
366.63625
309.39403
261.03732
221.49623
190.85034
168.87359
154.28494
144.94533
138.86816
134.6764
131.53241
128.97606
126.79464
124.86492
123.12882
121.54827
120.09444
118.7607
117.52991
116.38904
115.34046
114.37827
113.4931
112.67368
111.9254
111.24104
110.60824
110.02476
109.49302
109.00583
108.5637
108.1565
107.77837
107.42938
107.10317
106.80434
106.527
106.26712
106.0251
105.80556
105.60021
105.40957
105.23517
105.07799
104.93671
104.81029
104.70827
104.61273
104.5295
104.45618
104.37719
104.30269
104.23652
104.15186
104.06608
103.98419
103.92226
103.87592
103.8361
103.79972
103.77769
103.76216
103.76047
103.75547
103.75532
103.76005
103.75522
103.75127
103.76099
103.7654
103.75395
103.73608
103.7427
103.76124
103.79057
17457.676
17038.945
16634.935
16246.301
15873.871
15517.858
15178.249
14854.744
14546.804
14253.697
13974.559
13708.416
13454.223
13210.927
12977.477
12752.84
12536.016
12326.052
12122.063
11923.237
11728.832
11538.184
11350.699
11165.852
10983.184
10802.3
10622.859
10444.572
10267.194
10090.518
9914.3631
9738.569
9562.9574
9387.2478
9211.1936
9034.5723
8857.0778
8678.3614
8498.0535
8315.7767
8131.1809
7943.9899
7754.0491
7561.3829
7366.2449
7169.1653
6970.9711
6772.7679
6575.8777
6381.7318
6191.7389
6007.155
5828.9784
5657.887
5494.2251
5338.0323
5189.1023
5047.0532
4911.3925
4781.5692
4657.0124
4537.1587
4421.4731
4309.4803
4200.7928
4094.9627
3991.5183
3890.0651
3790.2657
3691.8252
3594.4881
3498.0343
3402.2731
3307.039
3212.1882
3117.5967
3023.1594
2928.7889
2834.415
2739.9824
2645.4505
2550.7905
2455.9841
2361.0209
2265.8968
2170.6112
2075.1658
1979.5632
1883.8063
1787.8973
1691.8394
1595.6381
1499.3057
1402.8659
1306.3582
1209.8454
1113.4456
1017.3862
922.06058
828.0945
736.39358
648.11851
564.57961
487.07378
416.71419
354.27499
300.10987
254.22735
216.57005
187.27109
166.19659
152.17148
143.16718
137.28793
133.2188
130.15477
127.65792
125.52483
123.63591
121.93478
120.38428
118.95695
117.64603
116.43514
115.31219
114.27934
113.33084
112.45736
111.64794
110.90818
110.23096
109.60419
109.02626
108.49879
108.01473
107.57433
107.16823
106.79038
106.44157
106.11541
105.81567
105.53715
105.27567
105.03163
104.80856
104.59941
104.40516
104.22695
104.06572
103.92025
103.78942
103.68144
103.58028
103.49118
103.41158
103.32775
103.24805
103.17539
103.08546
102.99461
102.90669
102.83663
102.78101
102.73337
102.69099
102.66307
102.64083
102.63188
102.6181
102.60882
102.60366
102.58978
102.57629
102.57501
102.57109
102.5528
102.52795
102.52668
102.53491
102.54458
17026.797
16612.813
16216.122
15836.718
15474.812
15130.272
14802.793
14491.829
14196.625
13916.268
13649.737
13395.94
13153.749
12922.048
12699.743
12485.781
12279.154
12078.92
11884.209
11694.232
11508.272
11325.69
11145.922
10968.467
10792.891
10618.82
10445.929
10273.941
10102.621
9931.7616
9761.1822
9590.7072
9420.1254
9249.1584
9077.5731
8905.1221
8731.4897
8556.3307
8379.2862
8200.0005
8018.1545
7833.51
7645.9521
7455.5423
7262.5618
7067.5514
6871.3248
6674.9501
6479.6904
6286.9087
6097.9496
5914.0231
5736.1091
5564.8985
5400.7773
5243.8476
5093.977
4950.8581
4814.0673
4683.1125
4557.4702
4436.614
4320.0378
4207.2957
4097.996
3991.6684
3887.8665
3786.2073
3686.3559
3588.0168
3490.9327
3394.8801
3299.6649
3205.1179
3111.0926
3017.4629
2924.1217
2830.9803
2737.967
2645.0257
2552.1146
2459.2041
2366.2751
2273.3168
2180.3248
2087.2987
1994.2411
1901.1559
1808.0481
1714.9229
1621.7873
1528.6519
1435.5346
1342.4655
1249.4921
1156.6875
1064.1821
972.2106
881.16323
791.6412
704.49235
620.78346
541.70294
468.41441
401.90518
342.84928
291.53798
247.95644
212.05961
184.02562
163.79986
150.30276
141.61003
135.91304
131.95489
128.96248
126.5196
124.43044
122.57885
120.91
119.38753
117.9851
116.69578
115.5039
114.39815
113.38068
112.44539
111.58346
110.78394
110.05277
109.38291
108.76248
108.19042
107.66762
107.18717
106.74922
106.34501
105.96828
105.62047
105.29511
104.99533
104.71654
104.45441
104.2094
103.98397
103.77224
103.57566
103.3949
103.23086
103.0825
102.94863
102.8362
102.73098
102.63758
102.55329
102.46615
102.38278
102.30524
102.21172
102.11733
102.02512
101.9488
101.88607
101.8326
101.78605
101.75393
101.72696
101.71251
101.69232
101.67624
101.66404
101.64245
101.62234
101.61296
101.60322
101.57878
101.55005
101.54171
101.54327
101.53877
16582.643
16178.621
15793.402
15426.639
15078.167
14747.585
14434.331
14137.631
13856.54
13589.994
13336.857
13095.956
12866.112
12646.179
12435.054
12231.688
12035.091
11844.35
11658.629
11477.17
11299.295
11124.401
10951.954
10781.482
10612.58
10444.895
10278.12
10111.993
9946.2857
9780.7969
9615.342
9449.731
9283.7293
9117.0771
8949.5429
8780.8607
8610.7156
8438.7708
8264.6828
8088.12
7908.7952
7726.5054
7541.1721
7352.8879
7161.9553
6968.9192
6774.577
6579.9582
6386.2708
6194.8147
6006.8768
5823.626
5646.0261
5474.7797
5310.3101
5152.7755
5002.1093
4858.0719
4720.3023
4588.3626
4461.7738
4340.0441
4222.6966
4109.3139
3999.4882
3892.7456
3788.6626
3686.8645
3587.0181
3488.8286
3392.0366
3296.4162
3201.7702
3107.9268
3014.7368
2922.072
2829.824
2737.9025
2646.2347
2554.7633
2463.4454
2372.2507
2281.1592
2190.1594
2099.2464
2008.4201
1917.6834
1827.0415
1736.5007
1646.069
1555.7565
1465.578
1375.5564
1285.7273
1196.1445
1106.8904
1018.1042
930.0248
843.03584
757.71166
674.84364
595.41071
520.48984
451.12464
388.19054
332.27392
283.61291
242.17453
207.9254
181.0808
161.65384
148.65141
140.24816
134.71851
130.8601
127.93183
125.53771
123.48836
121.67082
120.03172
118.53534
117.15624
115.88733
114.71353
113.6242
112.62141
111.69902
110.84839
110.0586
109.33593
108.67347
108.05953
107.49347
106.97555
106.49902
106.06402
105.66227
105.28727
104.94103
104.61698
104.31779
104.03941
103.77733
103.53211
103.30521
103.09184
102.89389
102.71153
102.54561
102.39537
102.25948
102.14382
102.0357
101.9392
101.85146
101.76215
101.6763
101.59511
101.49923
101.40247
101.30725
101.2262
101.15804
101.10027
101.0509
101.01583
100.98563
100.96697
100.94224
100.92105
100.90339
100.87633
100.85125
100.83579
100.82182
100.79292
100.76194
100.74819
100.74488
100.72977
16135.011
15745.383
15375.142
15023.856
14691.155
14376.425
14078.883
13797.563
13531.375
13279.148
13039.674
12811.737
12594.147
12385.761
12185.495
11992.327
11805.311
11623.576
11446.331
11272.863
11102.541
10934.795
10769.132
10605.11
10442.353
10280.53
10119.355
9958.5795
9797.9837
9637.3696
9476.5505
9315.3246
9153.4449
8990.673
8826.7737
8661.4711
8494.4564
8325.4048
8153.991
7979.9084
7802.9004
7622.7965
7439.5498
7253.2784
7064.2998
6873.1582
6680.6311
6487.71
6295.5503
6105.3939
5918.4752
5735.926
5558.6954
5387.4965
5222.7857
5064.7711
4913.4455
4768.6306
4630.0225
4497.2333
4369.8255
4247.3409
4129.3322
4015.4052
3905.1317
3798.0501
3693.7547
3591.8767
3492.0856
3394.0868
3297.6201
3202.4572
3108.3987
3015.2701
2922.9205
2831.2197
2740.0578
2649.3433
2559.0022
2468.976
2379.221
2289.7056
2200.409
2111.319
2022.4302
1933.7422
1845.2583
1756.9843
1668.9279
1581.0989
1493.5104
1406.1806
1319.1364
1232.4181
1146.0851
1060.2268
974.98888
890.61177
807.46959
726.10837
647.26488
571.8361
500.7973
435.08408
375.4724
322.47185
276.27538
236.83618
204.13148
178.40648
159.73172
147.19266
139.05826
133.68168
129.91255
127.04171
124.69144
122.67804
120.8915
119.27976
117.80763
116.45037
115.20066
114.04402
112.97033
111.98139
111.07151
110.23185
109.45157
108.73722
108.08211
107.47466
106.91463
106.40165
105.92919
105.49749
105.0986
104.72574
104.38144
104.05905
103.7609
103.48337
103.22185
102.97699
102.74929
102.53499
102.33639
102.15315
101.98606
101.83468
101.69756
101.57959
101.46946
101.37077
101.28054
101.18991
101.10244
101.0186
100.92125
100.82297
100.72571
100.64112
100.56886
100.50797
100.45673
100.41966
100.38731
100.36548
100.33763
100.3126
100.29072
100.25985
100.23109
100.211
100.19359
100.1624
100.12992
100.11209
100.10533
100.0821
15693.743
15322.07
14969.442
14635.702
14320.376
14022.675
13741.638
13476.164
13225.064
12987.11
12761.066
12545.718
12339.893
12142.483
11952.449
11768.821
11590.705
11417.289
11247.835
11081.68
10918.24
10756.99
10597.471
10439.281
10282.067
10125.523
9969.381
9813.4053
9657.3854
9501.127
9344.4412
9187.1183
9028.9082
8869.5893
8708.9238
8546.6326
8382.4158
8215.9629
8046.9679
7875.149
7700.2779
7522.2131
7340.9343
7156.5798
6969.4763
6780.163
6589.3954
6398.1266
6207.4623
6018.5908
5832.6982
5650.8826
5474.0794
5303.0107
5138.1618
4979.7856
4827.9283
4682.4669
4543.15
4409.6363
4281.5271
4158.3962
4039.8278
3925.4405
3814.7916
3707.4405
3602.9934
3501.0877
3401.3954
3303.6225
3207.5084
3112.8233
3019.3655
2926.9589
2835.4504
2744.7087
2654.6223
2565.0986
2476.0622
2387.4538
2299.2285
2211.3535
2123.8072
2036.5765
1949.6554
1863.0431
1776.7427
1690.7607
1605.1055
1519.7888
1434.8256
1350.2372
1266.0537
1182.3192
1099.0977
1016.4841
934.62853
853.77016
774.27153
696.64966
621.58882
549.90988
482.49533
420.18362
363.66218
313.37338
269.47175
231.90013
200.64511
175.9752
158.0092
145.90414
138.01923
132.78213
129.09281
126.27328
123.96228
121.98125
120.22288
118.63627
117.18665
115.84979
114.61814
113.47773
112.41887
111.44316
110.54518
109.71605
108.94496
108.23872
107.59083
106.9898
106.43571
105.92763
105.4593
105.03112
104.63532
104.26489
103.92275
103.60223
103.30541
103.02908
102.76845
102.52433
102.29635
102.08166
101.88293
101.69934
101.53159
101.37965
101.24186
101.1223
101.01083
100.91064
100.81867
100.72732
100.6389
100.55316
100.45497
100.35579
100.25722
100.17005
100.09469
100.0316
99.979171
99.940774
99.907055
99.882888
99.852964
99.825081
99.799959
99.766455
99.735051
99.711374
99.691337
99.659146
99.625768
99.604854
99.595663
99.566403
15268.619
14917.009
14583.555
14268.546
13971.381
13691.123
13426.686
13176.886
12940.491
12716.26
12502.974
12299.455
12104.58
11917.299
11736.636
11561.686
11391.62
11225.69
11063.216
10903.592
10746.278
10590.798
10436.729
10283.701
10131.388
9979.5064
9827.8053
9676.0619
9524.0738
9371.6501
9218.5998
9064.7099
8909.7345
8753.4595
8595.6507
8436.0293
8274.3063
8110.1863
7943.3826
7773.6368
7600.7462
7424.5946
7245.1832
7062.6653
6877.3722
6689.8339
6500.7819
6311.1318
6121.9418
5934.3501
5749.4983
5568.4533
5392.1375
5221.2802
5056.3923
4897.7666
4745.497
4599.511
4459.6057
4325.4825
4196.7797
4073.1025
3954.067
3839.293
3728.3362
3620.7777
3516.2331
3414.3451
3314.7889
3217.2717
3121.5325
3027.3404
2934.4923
2842.8105
2752.1404
2662.3492
2573.3244
2484.972
2397.2158
2309.9952
2223.264
2136.9887
2051.1463
1965.723
1880.7118
1796.1115
1711.9249
1628.1585
1544.8216
1461.9269
1379.4914
1297.5383
1216.1006
1135.2255
1054.9805
975.46445
896.83005
819.31335
743.2636
669.16858
597.66244
529.49551
465.46582
406.32433
352.67976
304.91547
263.15345
227.32891
197.43648
173.76195
156.46421
144.7656
137.11199
132.00166
128.38359
125.60977
123.33381
121.38186
119.64907
118.08552
116.65677
115.33895
114.12424
112.99915
111.95433
110.99118
110.10453
109.28548
108.52316
107.82478
107.18389
106.58917
106.04089
105.5376
105.07337
104.6488
104.25624
103.8884
103.54853
103.22999
102.93472
102.65977
102.40028
102.15716
101.92926
101.71457
101.51612
101.33255
101.16453
101.01242
100.8744
100.7538
100.64146
100.54031
100.44715
100.35551
100.26663
100.17957
100.08098
99.981362
99.88202
99.792994
99.715343
99.650737
99.597587
99.558365
99.523824
99.49797
99.466721
99.436733
99.409165
99.373852
99.340592
99.314144
99.292188
99.259715
99.22589
99.202717
99.191801
99.158131
15219.826
14869.033
14537.157
14223.391
13927.415
13648.393
13385.267
13136.878
12902.014
12679.45
12467.978
12266.426
12073.685
11888.7
11710.497
11538.176
11370.905
11207.928
11048.56
10892.185
10738.251
10586.268
10435.798
10286.456
10137.902
9989.8357
9841.9932
9694.1409
9546.067
9397.5761
9248.48
9098.5868
8947.683
8795.5321
8641.9195
8486.619
8329.3564
8169.8535
8007.8297
7843.0172
7675.1791
7504.135
7329.7899
7152.1622
6971.4152
6787.8804
6602.0756
6414.7068
6226.6523
6038.925
5852.6164
5668.8267
5488.5933
5312.826
5142.2598
4977.4279
4818.6584
4666.0885
4519.6915
4379.3089
4244.6825
4115.4853
3991.3537
3871.9335
3756.8389
3645.6366
3537.9262
3433.3315
3331.5008
3232.1126
3134.8754
3039.5285
2945.8405
2853.607
2762.6491
2672.8111
2583.9588
2495.9787
2408.7757
2322.2725
2236.4074
2151.1331
2066.4149
1982.2288
1898.5596
1815.3997
1732.747
1650.604
1568.977
1487.8758
1407.3137
1327.3091
1247.887
1169.0824
1090.9448
1013.5445
936.98313
861.41405
787.06861
714.28162
643.51178
575.34574
510.46858
449.60143
393.41656
342.45258
297.04107
257.27643
223.08842
194.47835
171.74387
155.07667
143.75872
136.31937
131.32405
127.76954
125.03632
122.79152
120.86565
119.15608
117.61368
116.20427
114.90421
113.70537
112.59473
111.56315
110.61189
109.73603
108.92661
108.17264
107.48179
106.84766
106.25906
105.71641
105.21774
104.75756
104.33662
103.94734
103.58217
103.2446
102.92809
102.63449
102.36103
102.10282
101.86088
101.63334
101.41893
101.22102
101.03774
100.86973
100.71774
100.57978
100.45857
100.34571
100.24398
100.15008
100.05845
99.969444
99.881522
99.782814
99.683072
99.583348
99.493052
99.413716
99.348108
99.29456
99.254866
99.21988
99.192842
99.160807
99.129279
99.099898
99.063357
99.028822
99.000267
98.976941
98.944574
98.910635
98.885855
98.8737
98.836836
14830.442
14499.417
14187.482
13893.238
13615.819
13354.203
13107.266
12873.832
12652.711
12442.727
12242.735
12051.642
11868.42
11692.103
11521.8
11356.693
11196.029
11039.124
10885.358
10734.176
10585.076
10437.612
10291.389
10146.053
10001.292
9856.8291
9712.4182
9567.8405
9422.8942
9277.3894
9131.1403
8983.9547
8835.6212
8685.9137
8534.6163
8381.507
8226.3243
8068.7982
7908.663
7745.6681
7579.5957
7410.2848
7237.6574
7061.7449
6882.7162
6700.8994
6516.7972
6331.0891
6144.6166
5958.3493
5773.3344
5590.6333
5411.2557
5236.0989
5065.9016
4901.2166
4742.4033
4589.6378
4442.9354
4302.1785
4167.1467
4037.546
3913.0452
3793.3128
3677.9578
3566.5667
3458.7538
3354.1505
3252.4111
3153.2174
3056.2799
2961.3386
2868.1616
2776.544
2686.3058
2597.2903
2509.3624
2422.4075
2336.3296
2251.0501
2166.5064
2082.65
1999.445
1916.8662
1834.8972
1753.5293
1672.7596
1592.5899
1513.0264
1434.0787
1355.7608
1278.0919
1201.0982
1124.8163
1049.2975
974.61368
900.86827
828.214
756.87612
687.17424
619.53852
554.5107
492.71566
434.80462
381.379
332.91493
289.69852
251.80073
219.14764
191.74586
169.90012
153.82833
142.86724
135.62599
130.73494
127.23704
124.53981
122.32266
120.42015
118.73165
117.20866
115.81718
114.53368
113.34969
112.25266
111.23359
110.29354
109.42792
108.62768
107.88168
107.19801
106.57034
105.98763
105.45038
104.95615
104.49993
104.08261
103.6966
103.3341
102.99881
102.68433
102.39244
102.12053
101.86367
101.623
101.396
101.1821
100.98492
100.8021
100.63428
100.48261
100.34493
100.22344
100.11031
100.00829
99.91396
99.822541
99.733654
99.64519
99.546558
99.446909
99.34708
99.255958
99.175415
99.109182
99.055441
99.015522
98.980342
98.952503
98.92006
98.887419
98.856717
98.819357
98.783968
98.753851
98.729553
98.697478
98.663664
98.637773
98.624721
98.585563
14473.917
14163.625
13871.374
13595.777
13335.76
13090.222
12858.033
12638.052
12429.15
12230.23
12040.235
11858.167
11683.089
11514.134
11350.497
11191.44
11036.29
10884.432
10735.308
10588.417
10443.307
10299.573
10156.854
10014.828
9873.2056
9731.73
9590.1725
9448.3266
9305.9982
9163.0018
9019.1534
8874.2614
8728.1181
8580.5056
8431.2109
8280.0115
8126.6606
7970.8983
7812.4715
7651.1454
7486.7187
7319.0466
7148.0644
6973.8124
6796.4615
6616.3328
6433.9121
6249.8512
6064.9553
5880.1527
5696.4484
5514.8671
5336.392
5161.9077
4992.1553
4827.7041
4668.9414
4516.0786
4369.169
4228.1332
4092.7861
3962.8656
3838.0738
3718.0922
3602.5328
3491.0039
3383.1318
3278.556
3176.9368
3077.9595
2981.3371
2886.8105
2794.1478
2703.144
2613.6181