/*--------------------------------*- C++ -*----------------------------------*\
| =========                 |                                                 |
| \\      /  F ield         | OpenFOAM: The Open Source CFD Toolbox           |
|  \\    /   O peration     | Version:  2406                                  |
|   \\  /    A nd           | Website:  www.openfoam.com                      |
|    \\/     M anipulation  |                                                 |
\*---------------------------------------------------------------------------*/
FoamFile
{
    version     2.0;
    format      ascii;
    arch        "LSB;label=32;scalar=64";
    class       volScalarField;
    location    "0.008";
    object      alphat;
}
// * * * * * * * * * * * * * * * * * * * * * * * * * * * * * * * * * * * * * //

dimensions      [1 -1 -1 0 0 0 0];

internalField   nonuniform List<scalar> 
8951
(
0.012350872
0.01242005
0.012490122
0.012561508
0.012635516
0.012712926
0.012795033
0.012882932
0.01297753
0.013079395
0.013188275
0.013303081
0.013422422
0.013543731
0.013663783
0.013779338
0.013887116
0.013983931
0.01406686
0.014133364
0.01418134
0.014208982
0.014213777
0.014194804
0.014153567
0.014090865
0.014005545
0.013897103
0.013766132
0.01361361
0.013440704
0.013248607
0.013038508
0.01281159
0.012568956
0.012311587
0.01204036
0.011756431
0.011461741
0.011158926
0.010851122
0.010542396
0.010237849
0.0099435213
0.0096667816
0.0094164753
0.009202666
0.0090365527
0.008929359
0.0088907553
0.0089274134
0.0090421136
0.0092309611
0.009481187
0.0097690453
0.010080736
0.010427418
0.010782289
0.011122406
0.011435092
0.011709867
0.011943834
0.012136209
0.012261175
0.012320841
0.012322499
0.012257186
0.012119184
0.01190698
0.011622573
0.011271173
0.01086126
0.010404564
0.0099162853
0.0094159456
0.0089282462
0.0084831332
0.00811271
0.007848085
0.0077135614
0.0077194141
0.0078495554
0.0080571703
0.0083662709
0.0088422425
0.0093853003
0.0099538816
0.010531589
0.011100793
0.011644156
0.012146339
0.012592849
0.012970071
0.013264413
0.013466034
0.013594304
0.013622609
0.013469254
0.013218782
0.01291643
0.012588934
0.012269234
0.011991003
0.011784248
0.011671007
0.011663054
0.011746638
0.011895598
0.012210667
0.012676995
0.013182616
0.013710752
0.014242863
0.01476061
0.01524786
0.015690169
0.016073854
0.016387037
0.016623871
0.016798254
0.016899632
0.016896583
0.016850639
0.016792061
0.016739248
0.016706948
0.016697755
0.01673079
0.01686727
0.017064568
0.017300164
0.017566643
0.017853755
0.018147973
0.018431566
0.01868823
0.018906421
0.019081798
0.019224318
0.019328573
0.019351698
0.01929527
0.019198825
0.019070423
0.018920114
0.01875957
0.01859754
0.018455601
0.018337433
0.018244087
0.018172861
0.018121146
0.018083898
0.018059566
0.018045665
0.018037884
0.018037463
0.018035159
0.018037425
0.018032151
0.01802737
0.018013623
0.017996036
0.017971249
0.017937382
0.017896118
0.017838202
0.017778856
0.017688841
0.017608504
0.017478361
0.017379313
0.01719275
0.017059803
0.016817769
0.016679024
0.016364799
0.01247415
0.01255459
0.012634591
0.01271513
0.012796763
0.012880614
0.01296806
0.013059913
0.013156995
0.013259921
0.013368901
0.013483271
0.013601587
0.013722006
0.013841708
0.013957673
0.014066803
0.014166018
0.014252406
0.014323368
0.014376688
0.014410515
0.014423081
0.014412445
0.014378719
0.014323364
0.014246752
0.014147827
0.014026534
0.013883713
0.013720478
0.013538072
0.013337741
0.013120716
0.012888185
0.012641247
0.012380899
0.012108126
0.011824352
0.011531629
0.011232519
0.010930262
0.010629096
0.010334201
0.010051904
0.0097899346
0.0095574438
0.0093649145
0.0092230691
0.0091425275
0.0091317986
0.009196011
0.0093364097
0.0095474339
0.0098148231
0.010114582
0.010439206
0.010794836
0.011151672
0.011491547
0.011802284
0.012074373
0.012307322
0.012495535
0.012613296
0.012669132
0.012665093
0.012592227
0.01244547
0.012223696
0.011929192
0.011567529
0.011147711
0.010682308
0.010187836
0.0096856061
0.0092022676
0.0087691069
0.0084183967
0.0081800079
0.0080756986
0.0081112906
0.0082639297
0.0084893942
0.0088330164
0.0093400915
0.0098990682
0.010482733
0.01107436
0.011656438
0.012211812
0.012725282
0.013182392
0.013569476
0.013872872
0.014081672
0.014213361
0.014251544
0.014114091
0.01387533
0.01358524
0.013269217
0.01295901
0.012687297
0.012483541
0.012370001
0.012360206
0.012447376
0.012600104
0.012905637
0.013367684
0.013871728
0.01440033
0.014934677
0.015456205
0.015948416
0.016396438
0.01678625
0.017105813
0.01734901
0.017528526
0.017640866
0.017649983
0.017611219
0.01755871
0.017510576
0.017482277
0.017481055
0.017518913
0.017653348
0.017852423
0.018091968
0.01836376
0.018657377
0.018958678
0.019249928
0.019514961
0.019742135
0.01992738
0.020080993
0.020193764
0.02022221
0.020173583
0.020083667
0.019960209
0.019813255
0.019655038
0.019497335
0.019358034
0.019242423
0.019151956
0.019083956
0.019035697
0.019003286
0.018984433
0.018977144
0.018976173
0.018983459
0.018989344
0.019000052
0.019003621
0.019007749
0.019003109
0.018994523
0.018978442
0.018952995
0.018919626
0.018869082
0.018816345
0.018732165
0.018656889
0.018530426
0.018435111
0.018249484
0.018118975
0.017876201
0.017738802
0.017421342
0.012676548
0.012768098
0.012858673
0.012949318
0.013040757
0.013134052
0.013230397
0.013330602
0.013435265
0.013544701
0.013658779
0.013776454
0.013895963
0.014015191
0.014131323
0.014241439
0.014342591
0.01443193
0.014506853
0.014565084
0.014604691
0.014623974
0.014621363
0.014595834
0.014547831
0.014478892
0.014388919
0.01427709
0.014143777
0.013990007
0.013816992
0.013626035
0.013418428
0.01319543
0.012958236
0.012707957
0.012445633
0.012172386
0.011889773
0.011599901
0.011305452
0.011009816
0.010717397
0.010433575
0.010164944
0.0099195392
0.0097067179
0.0095367946
0.0094202214
0.0093668306
0.0093838825
0.0094749374
0.0096399319
0.0098718051
0.010154895
0.010465834
0.010803322
0.011166031
0.01152493
0.011864983
0.012174654
0.012445246
0.012678055
0.012862852
0.012975872
0.013029505
0.013021205
0.012942533
0.012788983
0.012559729
0.012257293
0.011887573
0.011460089
0.010988254
0.01048989
0.0099880063
0.0095109567
0.0090910242
0.0087603273
0.0085472868
0.0084711146
0.0085335484
0.0087053479
0.008948207
0.0093261924
0.0098563402
0.010429874
0.011026924
0.011630983
0.012224711
0.012791146
0.013315198
0.01378244
0.01417916
0.014491664
0.014708295
0.014843991
0.014892617
0.014772716
0.014546744
0.014269625
0.013965553
0.013665069
0.013399858
0.013198857
0.013084585
0.013072056
0.013160591
0.013316469
0.013611198
0.014066341
0.014566925
0.01509426
0.015629254
0.016153132
0.016649053
0.017101748
0.017496902
0.017822343
0.018071792
0.018256502
0.018379321
0.018401313
0.018369913
0.018323714
0.01828056
0.018256374
0.0182624
0.018305598
0.018436889
0.018637887
0.018880221
0.019156143
0.01945507
0.019762315
0.020060235
0.020332778
0.020568258
0.020763
0.020927234
0.021047936
0.021081692
0.021041282
0.02095823
0.020840142
0.020697271
0.020542047
0.020388602
0.020252436
0.020139566
0.020052073
0.019986967
0.019942508
0.019914975
0.019901277
0.019900344
0.019906112
0.019920905
0.019934879
0.019953897
0.019966263
0.019979238
0.019983695
0.019984089
0.019976741
0.019959748
0.01993433
0.019891239
0.019845175
0.019766962
0.019696794
0.01957422
0.019482668
0.019298331
0.019170327
0.018927427
0.018790925
0.018471494
0.012887895
0.01298913
0.013089306
0.01318916
0.013289481
0.013391245
0.013495475
0.013602856
0.013713722
0.013828086
0.013945514
0.014064608
0.014183361
0.014299524
0.014410334
0.014513033
0.014604874
0.014683257
0.014745923
0.014790894
0.014816453
0.014821163
0.01480369
0.014763654
0.014702091
0.014620224
0.014517559
0.014393679
0.014249297
0.014085566
0.013903775
0.013705271
0.013491386
0.013263404
0.013022538
0.012769927
0.012506684
0.012234063
0.011953731
0.011667885
0.011379334
0.011091624
0.01080932
0.010538018
0.010284592
0.010057273
0.0098654697
0.0097193346
0.0096288437
0.0096029048
0.0096474765
0.0097645645
0.0099530694
0.010204524
0.010501791
0.01082367
0.011173748
0.011542124
0.011903317
0.012244159
0.012553772
0.012824062
0.01305728
0.013240038
0.01335093
0.013403775
0.013392824
0.013310275
0.013152057
0.012917572
0.01260954
0.012234157
0.011801435
0.011325612
0.010825762
0.01032643
0.0098573824
0.0094515512
0.0091406134
0.0089513917
0.0089006876
0.0089867917
0.0091744506
0.0094343799
0.0098439427
0.010391302
0.0109773
0.011585868
0.012200772
0.012804845
0.013381316
0.013915182
0.014392039
0.01479813
0.015119761
0.015344883
0.01548515
0.015544599
0.015443742
0.015231529
0.014968
0.014676276
0.01438569
0.014126939
0.013928459
0.013813057
0.01379696
0.013884531
0.014043073
0.014325988
0.014771616
0.015267016
0.015791476
0.016325643
0.016850565
0.01734908
0.017805547
0.018205371
0.018536252
0.018791755
0.018981841
0.019114475
0.019149746
0.019125848
0.019086084
0.019048073
0.019028051
0.019040063
0.01908946
0.019217541
0.019419358
0.019663679
0.019942867
0.0202461
0.020558341
0.020862078
0.021141374
0.021384553
0.021588444
0.021762799
0.021890754
0.021929813
0.021897897
0.021821902
0.021709478
0.021571107
0.021419755
0.021270216
0.021137667
0.021027724
0.020942979
0.020881318
0.020840571
0.020817683
0.020809093
0.020814326
0.020826777
0.020848929
0.020870918
0.020898162
0.020919303
0.020941102
0.020954673
0.020964061
0.020965494
0.020957012
0.020939614
0.02090407
0.020864745
0.020792634
0.02072762
0.020609136
0.020521371
0.020338651
0.020213222
0.019970721
0.01983482
0.019514406
0.012992925
0.013106177
0.01321653
0.01332534
0.013433401
0.013541563
0.013650692
0.013761614
0.01387482
0.013990351
0.014107946
0.014226909
0.014345542
0.01446167
0.014573031
0.014676967
0.014770922
0.014852391
0.014919033
0.014968985
0.015000708
0.015012149
0.015002127
0.014970297
0.01491672
0.01484255
0.014748499
0.014634018
0.014499116
0.014344742
0.014172132
0.013982631
0.013777625
0.01355848
0.013326509
0.013082956
0.012829014
0.012565884
0.012294949
0.012017989
0.011737312
0.011455859
0.011177338
0.010906479
0.010649098
0.010412291
0.010204432
0.010034865
0.0099134298
0.0098495541
0.0098510909
0.0099226408
0.010064841
0.010275752
0.010545499
0.010855364
0.011188538
0.011550585
0.011923882
0.012287782
0.012630231
0.012940942
0.013212267
0.013446495
0.013629058
0.013740442
0.013793953
0.013782178
0.013697857
0.013537258
0.013299946
0.012988807
0.012610303
0.012174905
0.011697625
0.011198686
0.010703946
0.010244262
0.0098528867
0.0095608289
0.0093932583
0.0093648084
0.0094711519
0.0096715828
0.0099480399
0.010384561
0.010944529
0.011540643
0.012158777
0.012782877
0.013395941
0.013981377
0.01452425
0.015010172
0.015425347
0.015756109
0.015990266
0.016135963
0.016206192
0.016125639
0.015928091
0.015678674
0.015399612
0.015119058
0.014866737
0.014670601
0.014553738
0.014533374
0.014617684
0.014778398
0.015049159
0.015482209
0.015971027
0.016491086
0.017023009
0.01754771
0.018047741
0.01850711
0.01891096
0.019246857
0.019508224
0.019703886
0.019845733
0.01989449
0.019878289
0.019845096
0.019812381
0.019796585
0.019813477
0.019869576
0.019994636
0.020196144
0.020441731
0.020723334
0.021029915
0.021346237
0.021654962
0.021940266
0.022190555
0.022403263
0.022587193
0.02272168
0.022766144
0.02274294
0.022674175
0.022567696
0.022434226
0.022287228
0.022141917
0.022013024
0.021906292
0.021824537
0.021766213
0.021729155
0.021710812
0.021707279
0.021718499
0.021737556
0.021766928
0.021796845
0.021832229
0.021862114
0.021892708
0.021915401
0.021933792
0.021944052
0.021944135
0.021934824
0.02190692
0.021874407
0.02180853
0.021748728
0.021634532
0.021550591
0.021369811
0.021247039
0.021005367
0.02086991
0.020549342
0.013209229
0.013330807
0.013449133
0.013565431
0.013680581
0.013795429
0.013910683
0.014026953
0.01414449
0.014263041
0.014382112
0.014500805
0.014617167
0.014728952
0.014833974
0.014929741
0.015013918
0.015084333
0.015139201
0.01517643
0.015194161
0.01519137
0.01516756
0.015122447
0.015056482
0.01497069
0.014865388
0.014740189
0.014595456
0.01443228
0.014251952
0.014055859
0.013845421
0.013622037
0.013387058
0.01314178
0.012887467
0.012625431
0.012357184
0.012084629
0.011810202
0.011536982
0.011268843
0.011010687
0.010768527
0.010549629
0.010362403
0.010216059
0.010120025
0.010082989
0.010111717
0.010209509
0.010375923
0.01060804
0.010894773
0.011215658
0.011561286
0.011934118
0.012312169
0.012679412
0.013024436
0.013337589
0.013611369
0.013847311
0.01403182
0.014146182
0.014201952
0.014191329
0.014107464
0.013946869
0.013709232
0.013397568
0.01301857
0.01258312
0.012106929
0.011611204
0.011122866
0.010673525
0.010296453
0.01002184
0.0098732394
0.0098634167
0.0099863465
0.010197202
0.010488584
0.010946473
0.011515239
0.012119081
0.012744775
0.013376372
0.013997031
0.014590322
0.015141364
0.015635769
0.016059719
0.016399598
0.016643238
0.016795447
0.01687604
0.016816774
0.016634785
0.016399924
0.016133776
0.015863365
0.015617466
0.015423554
0.01530497
0.015279774
0.015358697
0.015520882
0.015779937
0.016196843
0.016678036
0.017192254
0.01772057
0.01824383
0.01874433
0.019205761
0.019613016
0.019953522
0.020220558
0.020421963
0.020572559
0.020634817
0.020626539
0.020600059
0.020572791
0.020561298
0.020582197
0.020644951
0.020767679
0.020967604
0.021213815
0.021497008
0.021806026
0.022125554
0.022438455
0.022729045
0.02298587
0.023207096
0.023399967
0.023540227
0.023590356
0.023575997
0.023514608
0.023414347
0.023286163
0.023143943
0.023003162
0.02287811
0.022774742
0.022696073
0.022641111
0.022607728
0.022593829
0.022595293
0.022612335
0.022637907
0.02267436
0.022712109
0.022755548
0.022794132
0.02283349
0.022865303
0.022892705
0.022911833
0.022920531
0.022919379
0.022899204
0.022873583
0.02281407
0.022759549
0.022649841
0.02256977
0.022391252
0.022271228
0.022030744
0.021895706
0.0215757
0.01343239
0.013560538
0.01368544
0.013807993
0.013929026
0.014049307
0.014169335
0.014289493
0.014409773
0.014529655
0.014648472
0.014765165
0.014877595
0.014983538
0.015080973
0.015167741
0.015241993
0.015301206
0.015343252
0.015367111
0.015371437
0.015355587
0.015319022
0.015261908
0.015184849
0.01508856
0.014973189
0.014838581
0.014685349
0.014514661
0.014327843
0.014126309
0.013911511
0.013684888
0.013447846
0.01320175
0.012947962
0.012687919
0.012423275
0.01215607
0.011888881
0.011624933
0.011368269
0.011123957
0.010898178
0.010698298
0.010532675
0.010410283
0.01034004
0.010329803
0.01038519
0.010508308
0.01069801
0.010950113
0.011252252
0.011583681
0.011942703
0.012324638
0.012707973
0.013079394
0.013428141
0.013745125
0.014022877
0.014261361
0.014449983
0.014569758
0.014629483
0.01462207
0.01454094
0.014382776
0.014147345
0.013837764
0.013460911
0.013028021
0.012555392
0.012065026
0.01158462
0.011146208
0.010782832
0.010523776
0.010391097
0.01039601
0.010531685
0.01075138
0.011054972
0.011528236
0.012102509
0.012711694
0.013342903
0.013980264
0.01460709
0.015207097
0.015765438
0.016267722
0.016700115
0.017049074
0.017302559
0.017462358
0.017552912
0.017515471
0.017349951
0.017130026
0.016876996
0.01661683
0.016377373
0.016185626
0.016065128
0.016034656
0.01610644
0.016268823
0.016516957
0.016914926
0.0173872
0.017894195
0.018417596
0.018938236
0.019438195
0.019900874
0.020310932
0.020655651
0.02092816
0.021135436
0.021294428
0.021370057
0.021369936
0.021350318
0.021328642
0.021321535
0.021345887
0.021414551
0.021536338
0.021733065
0.021979421
0.022263412
0.022574003
0.022895897
0.02321219
0.02350736
0.02377017
0.023999659
0.024200703
0.024345959
0.02440222
0.024396716
0.024342829
0.024249041
0.02412651
0.023989452
0.023853476
0.023732446
0.02363259
0.023557112
0.023505534
0.023475814
0.023466262
0.023472655
0.023495363
0.023527345
0.023570744
0.023616219
0.023667625
0.023714856
0.023762942
0.023803864
0.023840282
0.023868316
0.02388568
0.023892753
0.023880401
0.023861754
0.023808737
0.02375958
0.023654556
0.023578415
0.023402484
0.023285304
0.02304635
0.022911812
0.022592975
0.013660283
0.013793484
0.013923698
0.014051263
0.014176915
0.014301294
0.014424664
0.014547186
0.014668593
0.014788149
0.01490508
0.015018194
0.015125294
0.015224576
0.015314138
0.015391421
0.015454191
0.015501186
0.015530987
0.015542366
0.015534353
0.015506539
0.01545862
0.015391068
0.015304319
0.015198891
0.015074889
0.014932365
0.014772091
0.014595268
0.014403231
0.014197419
0.013979317
0.013750413
0.013512186
0.013266097
0.013013631
0.012756369
0.012496123
0.01223509
0.011975998
0.01172223
0.011477994
0.01124851
0.011040084
0.010860111
0.010716809
0.010618819
0.010574462
0.010590703
0.010672023
0.010819508
0.011031407
0.011302278
0.011618046
0.011960481
0.012333181
0.012723254
0.013112466
0.013488999
0.013842689
0.014164888
0.014448207
0.014690244
0.014884865
0.015012533
0.015077956
0.015075825
0.014999696
0.014846357
0.014615627
0.014310689
0.01393856
0.01351075
0.013044014
0.012560929
0.012089679
0.011662416
0.011311749
0.011066037
0.010946025
0.010961684
0.011106286
0.011333386
0.011645987
0.012128492
0.012705329
0.013317477
0.013952137
0.014593506
0.01522505
0.015830609
0.016395357
0.016904894
0.017345376
0.017703352
0.017966962
0.018135382
0.018235542
0.018220028
0.018071955
0.017867274
0.01762753
0.017377712
0.017144752
0.016955168
0.016832633
0.016796539
0.016860103
0.017020075
0.017259062
0.017635985
0.018097744
0.018596173
0.019113407
0.019630293
0.020128735
0.020591872
0.021004147
0.02135269
0.021630474
0.02184371
0.022010827
0.022099584
0.022107853
0.02209525
0.022079313
0.022076667
0.022104347
0.022177154
0.022300095
0.022492256
0.022738095
0.023022122
0.023333471
0.02365693
0.023975853
0.024274922
0.02454319
0.024780738
0.024989002
0.025138491
0.025201608
0.025204804
0.02515852
0.025071448
0.024954909
0.024823363
0.02469244
0.024575616
0.024479416
0.02440723
0.024359057
0.024332988
0.024327693
0.024338936
0.024367163
0.024405439
0.024455649
0.024508739
0.024568023
0.024623838
0.024680611
0.024730626
0.024776062
0.024813034
0.024839113
0.024854483
0.024850044
0.024838462
0.024792072
0.02474837
0.02464823
0.024576089
0.024403071
0.024288837
0.024051795
0.023917871
0.023600737
0.013748234
0.013889916
0.01402768
0.014162056
0.014293375
0.014422337
0.01454943
0.014674672
0.014798027
0.014918985
0.015036686
0.015150347
0.015259355
0.015360687
0.015452095
0.015531738
0.015598197
0.015650049
0.015685723
0.015704064
0.015704025
0.015684976
0.015646683
0.01558921
0.015512913
0.015418096
0.015305159
0.015174193
0.015025411
0.014859664
0.014678145
0.014482191
0.014273257
0.014052863
0.013822568
0.013583941
0.013338571
0.013088091
0.012834254
0.012579049
0.01232485
0.012074549
0.011831695
0.011600656
0.011386781
0.011196449
0.011037011
0.010916451
0.010843022
0.010824357
0.010866492
0.010972853
0.011143685
0.011376596
0.011665003
0.011992324
0.012347542
0.012733271
0.013131074
0.013526843
0.013909477
0.014269338
0.014598093
0.014888493
0.015135583
0.015337443
0.01547541
0.015548373
0.015553553
0.015484612
0.015338401
0.015114763
0.014816913
0.014451955
0.014031586
0.013572869
0.01309873
0.012637553
0.01222134
0.011882117
0.01164735
0.011536688
0.011559174
0.011708934
0.011942004
0.012260199
0.012745931
0.013322611
0.013935357
0.014571395
0.01521501
0.01584981
0.016459741
0.017029986
0.017546131
0.017994329
0.018361227
0.01863516
0.018813166
0.018922644
0.01892868
0.018799271
0.018610008
0.018383683
0.018144322
0.017917949
0.017730583
0.017605962
0.017563991
0.017618721
0.017772944
0.018004969
0.01835959
0.018808936
0.019297502
0.019807375
0.020319417
0.020815397
0.021278227
0.021692146
0.022044127
0.02232698
0.022546228
0.022721267
0.022822815
0.022839707
0.022834269
0.022824213
0.022826107
0.022857031
0.022932528
0.023057819
0.023245037
0.023489423
0.023772764
0.024084104
0.024408364
0.024729184
0.025031495
0.025304721
0.025550185
0.025764467
0.02591764
0.025988348
0.026000013
0.025961419
0.025881284
0.025771052
0.025645334
0.025519688
0.025407254
0.025314847
0.025246049
0.025201305
0.025178875
0.025177749
0.025193758
0.025227363
0.025271811
0.025328697
0.025389283
0.025456351
0.025520679
0.025586094
0.02564518
0.025699633
0.025745574
0.025780415
0.025804152
0.025807718
0.025803295
0.025763666
0.025725522
0.025630464
0.025562406
0.025392629
0.025281451
0.025046743
0.024913544
0.024598611
0.013974507
0.014120201
0.014261364
0.014398629
0.014532414
0.014663359
0.014791769
0.014917445
0.015040233
0.015160096
0.015275432
0.015385209
0.015487685
0.015580784
0.015662991
0.015733218
0.015789801
0.015831218
0.015856435
0.015864511
0.015854475
0.015826075
0.015779326
0.015714271
0.015631144
0.01553016
0.015411601
0.015275547
0.015122306
0.014952743
0.014768019
0.014569457
0.014358525
0.014136791
0.013905899
0.013667541
0.013423458
0.013175469
0.012925522
0.012675812
0.012428909
0.012187887
0.011956465
0.011739162
0.011541426
0.011369657
0.011231072
0.011133323
0.011084346
0.011090881
0.011158092
0.011288455
0.011481523
0.011734232
0.012038504
0.012376499
0.012746228
0.013143264
0.013549202
0.013952259
0.014341983
0.014709187
0.01504577
0.015344512
0.015598977
0.015808309
0.015958675
0.016041272
0.016055689
0.015995984
0.015859054
0.015644737
0.015356247
0.015000718
0.014589938
0.014141121
0.013677314
0.013226844
0.012821334
0.012492123
0.012265845
0.012161294
0.012186902
0.012338088
0.012575638
0.012896023
0.013379269
0.013953201
0.014564204
0.015199561
0.015843663
0.016480254
0.017093369
0.017668187
0.018190279
0.018645798
0.019021489
0.019305867
0.019494333
0.019612917
0.019639479
0.019530634
0.019356615
0.019143813
0.018915028
0.018695372
0.018510333
0.018383647
0.018335641
0.018381115
0.018526707
0.018752982
0.01908523
0.019520048
0.019997538
0.020498919
0.021005073
0.021497677
0.021959455
0.022374456
0.022729492
0.023017195
0.023242472
0.023425279
0.02353919
0.023564964
0.023566818
0.023562786
0.023569298
0.023603404
0.023680619
0.023808367
0.023991267
0.024233011
0.024515007
0.024825623
0.025149958
0.025471973
0.025776895
0.026054715
0.026307606
0.026526887
0.026683486
0.026762157
0.026782146
0.026751311
0.026678316
0.026574673
0.026455065
0.026334906
0.02622704
0.026138557
0.026073241
0.026031946
0.026013142
0.026016103
0.026036788
0.026075634
0.026126125
0.026189553
0.026257511
0.026332267
0.026405029
0.026479037
0.026547165
0.02661063
0.026665567
0.026709217
0.026741391
0.026753054
0.026755891
0.026723156
0.026690683
0.026600905
0.026537024
0.026370818
0.026262816
0.026030871
0.025898511
0.02558627
0.014201597
0.014349572
0.014492674
0.014631512
0.014766536
0.014898562
0.015027798
0.015153378
0.015274968
0.01539141
0.015501521
0.015604788
0.015700067
0.015785369
0.015859114
0.01592028
0.015967459
0.015999585
0.016015677
0.016014968
0.015996897
0.015961382
0.015908416
0.015837996
0.015750246
0.015645265
0.015523207
0.015384116
0.015228333
0.015056684
0.014870274
0.014670401
0.014458547
0.014236342
0.014005535
0.01376797
0.013525577
0.013280391
0.013034591
0.012790605
0.012551225
0.012319721
0.01209999
0.011896683
0.011715318
0.01156226
0.011444513
0.011369427
0.01134435
0.011375298
0.011466552
0.011619752
0.011833857
0.012105044
0.012423038
0.01277233
0.013157039
0.013564284
0.013978722
0.014389765
0.0147875
0.015163118
0.015508678
0.015816948
0.016080941
0.016298135
0.016461979
0.016556763
0.016582102
0.016533496
0.016407804
0.016204831
0.015927757
0.015583686
0.015184395
0.014747094
0.014294738
0.013855364
0.013460036
0.013139339
0.01291916
0.012817665
0.012843006
0.012991974
0.013232342
0.013551771
0.014027245
0.014595894
0.015202853
0.015835497
0.016478344
0.017115265
0.017730371
0.018308831
0.018836195
0.019298619
0.019682936
0.019977809
0.020177494
0.020305059
0.020350952
0.020264431
0.020105526
0.019906338
0.019688267
0.019475491
0.019292944
0.019164284
0.019110175
0.019146119
0.019280807
0.019501468
0.019812464
0.0202303
0.020695683
0.021187508
0.021686772
0.02217512
0.022635119
0.023050647
0.023408352
0.023700675
0.023931964
0.024122419
0.024248131
0.024283182
0.024292377
0.024294508
0.02430572
0.024342953
0.024421484
0.024550512
0.02473095
0.024968453
0.02524856
0.025557788
0.025881512
0.026204049
0.026510984
0.026793163
0.027052671
0.027276046
0.027436132
0.027522858
0.027551049
0.027528027
0.02746235
0.027365551
0.027252303
0.02713782
0.027034693
0.02695026
0.026888514
0.026850691
0.0268355
0.026842469
0.026867735
0.026911689
0.026968089
0.027037924
0.027113125
0.027195469
0.027276581
0.027359127
0.027436262
0.027508732
0.027572688
0.027625191
0.027665873
0.027685725
0.027695925
0.027670221
0.02764354
0.027559242
0.027499642
0.027337337
0.027232639
0.027003877
0.026872484
0.02656343
0.014427887
0.014577159
0.014721516
0.014861356
0.014997081
0.015128951
0.015256301
0.015378908
0.015496453
0.015608026
0.015712877
0.015810008
0.015898291
0.015975837
0.016041526
0.016094498
0.01613343
0.016157716
0.016166395
0.0161591
0.016135416
0.016095275
0.016038612
0.015965348
0.015875458
0.015768893
0.015645655
0.015505723
0.015349406
0.015177446
0.014990878
0.014790961
0.014579196
0.01435729
0.014127122
0.013890717
0.013650229
0.013407949
0.013166316
0.012928028
0.012696127
0.012474093
0.012266005
0.012076631
0.011911533
0.011776973
0.011679471
0.01162667
0.011624688
0.011678983
0.011793046
0.011967797
0.01220164
0.012489841
0.012818901
0.01318185
0.013580428
0.013997313
0.014420587
0.014840227
0.015246773
0.015631722
0.015987248
0.016306095
0.01658129
0.016807466
0.016984436
0.017094404
0.017132087
0.017096234
0.016983509
0.016793669
0.016529823
0.016198985
0.015812821
0.015388385
0.014948352
0.014520272
0.014134509
0.013820858
0.013604544
0.013503323
0.013525376
0.013668772
0.013909686
0.014225729
0.014688661
0.015249465
0.015850118
0.016478061
0.017117935
0.017753738
0.018369644
0.018950807
0.019482756
0.019951645
0.020344386
0.020649743
0.020861257
0.020997815
0.021061925
0.020998883
0.020855209
0.020669742
0.020462541
0.020256847
0.020077007
0.019946532
0.019886342
0.019912584
0.020034941
0.020248605
0.020541162
0.020938772
0.021391383
0.021872653
0.022364073
0.022847312
0.023304824
0.023720329
0.024080313
0.024377011
0.024614261
0.024812269
0.024949182
0.024993866
0.025010453
0.025018887
0.025034881
0.025075203
0.025154904
0.025283814
0.025463422
0.025695631
0.025973175
0.026280398
0.026602867
0.026925288
0.027233672
0.027520096
0.027785072
0.028011746
0.028175723
0.028270341
0.028306611
0.028291437
0.028233233
0.028143501
0.028036832
0.027928201
0.027829975
0.027749712
0.02769162
0.02765729
0.027645697
0.027656597
0.027686348
0.027735282
0.027797453
0.027873557
0.027955869
0.028045696
0.028135065
0.02822609
0.028312192
0.028393657
0.028466651
0.02852805
0.028577311
0.028605444
0.028623115
0.028604577
0.028583817
0.028505198
0.028449996
0.028291919
0.028190666
0.027965493
0.027835204
0.02752984
0.014654539
0.014802643
0.014945807
0.015084215
0.015218085
0.015347464
0.015472044
0.015591377
0.015704875
0.015811666
0.015910866
0.016001776
0.01608326
0.016153603
0.016212204
0.016258215
0.016290584
0.016308979
0.016312656
0.016301373
0.016274805
0.016232836
0.0161753
0.016101984
0.016012673
0.015907132
0.015785187
0.015646709
0.015491919
0.015321443
0.015136231
0.014937488
0.014726749
0.014505808
0.014276699
0.014041657
0.0138031
0.013563604
0.013325905
0.013093015
0.012868249
0.012655319
0.012458483
0.012282616
0.012133294
0.012016314
0.011938845
0.011907167
0.011927107
0.012003404
0.012138844
0.012333729
0.012585874
0.012888857
0.013228127
0.013606172
0.014016658
0.014443184
0.014875551
0.015304261
0.015720245
0.016115251
0.01648154
0.016811838
0.017099164
0.01733682
0.017525285
0.017652374
0.017704396
0.017682724
0.017584455
0.017409285
0.017160224
0.016844133
0.016472475
0.016062007
0.015634958
0.015218235
0.014841393
0.014533423
0.014318973
0.01421557
0.014231697
0.014366715
0.014604645
0.014916282
0.015362442
0.015912683
0.016504816
0.017126118
0.017761337
0.018394591
0.019010113
0.019593038
0.020128871
0.020603763
0.021004686
0.021320461
0.021544218
0.021690047
0.021771221
0.02173231
0.021604191
0.021432578
0.021236425
0.021038052
0.020861181
0.020729116
0.020662951
0.02067941
0.020789012
0.020992144
0.021270791
0.021645319
0.022084153
0.022553913
0.023036578
0.023513886
0.023968217
0.024383152
0.024745018
0.02504583
0.02528896
0.025494437
0.025641992
0.025696489
0.025720586
0.02573546
0.025756324
0.025799715
0.025880473
0.026008525
0.02618735
0.026414719
0.026688628
0.026993287
0.027313895
0.027635598
0.027944906
0.0282356
0.028504467
0.028733937
0.028902382
0.029004545
0.029048758
0.029041446
0.028990844
0.028908372
0.028808475
0.028705856
0.028612681
0.028536702
0.028482344
0.028451531
0.028443518
0.028458278
0.028492415
0.0285462
0.028614002
0.028696237
0.028785521
0.028882724
0.028980253
0.029079692
0.029174714
0.029265159
0.029347208
0.029417543
0.029475451
0.029511956
0.029537209
0.029525976
0.029511273
0.029438532
0.029387855
0.02923433
0.029136669
0.028915481
0.028786443
0.028485281
0.014873069
0.01501859
0.015160041
0.015296618
0.015428329
0.015555115
0.015676507
0.01579195
0.015900935
0.016002611
0.016096213
0.016181279
0.016256644
0.016320884
0.01637379
0.016414669
0.016442723
0.016457748
0.016459208
0.016446892
0.016420493
0.016379792
0.016324463
0.016254098
0.016168256
0.016066477
0.015948388
0.015813706
0.015662516
0.015495304
0.015312928
0.015116515
0.014907658
0.014688248
0.01446049
0.01422686
0.013990085
0.013753073
0.013518887
0.013290824
0.013072484
0.012867884
0.012681538
0.012518323
0.012383576
0.012283713
0.01222492
0.012213036
0.012253394
0.012350073
0.012505259
0.012718722
0.012987504
0.013302398
0.013652631
0.014045616
0.014466566
0.014902548
0.015344106
0.015782171
0.016208016
0.016613584
0.016991209
0.017333611
0.017633784
0.017884731
0.01808414
0.018228381
0.018297443
0.018291005
0.018208434
0.018049224
0.017816252
0.017516174
0.017160156
0.016764541
0.016350971
0.015945584
0.015577052
0.015273558
0.015059245
0.014951564
0.014959509
0.01508375
0.015314733
0.015621349
0.016047571
0.016584312
0.01716577
0.017778557
0.018407481
0.019036781
0.019650744
0.020234487
0.020773493
0.021253903
0.021662727
0.021988804
0.022224912
0.022380897
0.022477586
0.022463116
0.022351069
0.022193473
0.022008568
0.021817786
0.021644194
0.021510824
0.021438871
0.021445557
0.021542176