/*--------------------------------*- C++ -*----------------------------------*\
| =========                 |                                                 |
| \\      /  F ield         | OpenFOAM: The Open Source CFD Toolbox           |
|  \\    /   O peration     | Version:  2406                                  |
|   \\  /    A nd           | Website:  www.openfoam.com                      |
|    \\/     M anipulation  |                                                 |
\*---------------------------------------------------------------------------*/
FoamFile
{
    version     2.0;
    format      ascii;
    arch        "LSB;label=32;scalar=64";
    class       volScalarField;
    location    "0.008";
    object      k;
}
// * * * * * * * * * * * * * * * * * * * * * * * * * * * * * * * * * * * * * //

dimensions      [0 2 -2 0 0 0 0];

internalField   nonuniform List<scalar> 
8951
(
217.37459
215.17426
213.01539
210.90143
208.83704
206.82815
204.88149
203.00117
201.18907
199.44473
197.75699
196.10536
194.46432
192.8044
191.09593
189.31092
187.42521
185.41805
183.27355
180.98341
178.54361
175.95113
173.18176
170.23747
167.16876
164.00193
160.71133
157.2847
153.73387
150.07324
146.31604
142.47319
138.55366
134.56466
130.51157
126.39753
122.22455
118.00028
113.74377
109.47989
105.23552
101.04347
96.940193
92.965095
89.162234
85.58599
82.296472
79.360394
76.842792
74.792753
73.242121
72.196848
71.61525
71.405572
71.405805
71.543502
71.930255
72.401071
72.826541
73.148953
73.323747
73.344848
73.217197
72.794039
72.092444
71.153219
69.921996
68.374051
66.511852
64.351323
61.919064
59.253949
56.408161
53.447604
50.453678
47.527081
44.790434
42.381796
40.442873
39.085656
38.34396
38.124036
38.200416
38.706565
39.95516
41.484202
43.10743
44.755375
46.35839
47.851775
49.179275
50.289247
51.133495
51.66933
51.873435
51.830493
51.439979
50.394416
49.00734
47.439753
45.790303
44.186297
42.757185
41.612313
40.825563
40.43152
40.376182
40.563133
41.317659
42.560023
43.895617
45.260363
46.587034
47.808362
48.864988
49.710056
50.312141
50.662801
50.78705
50.77078
50.612267
50.232418
49.814689
49.444068
49.174229
49.048405
49.063333
49.240223
49.690532
50.268475
50.901549
51.552679
52.178712
52.737295
53.193103
53.521626
53.71255
53.777807
53.769152
53.689642
53.434183
53.025557
52.584993
52.135964
51.700273
51.299495
50.946054
50.648469
50.405274
50.212271
50.054858
49.921417
49.793298
49.66784
49.526634
49.37933
49.199225
49.008764
48.766078
48.51028
48.184058
47.856345
47.440221
47.046549
46.545243
46.095245
45.511727
45.022868
44.358719
43.845875
43.10069
42.585404
41.748593
41.218744
40.29377
39.793086
38.508878
222.74024
220.55162
218.38837
216.2546
214.15424
212.09179
210.0724
208.10099
206.1785
204.30381
202.47368
200.67289
198.87861
197.0656
195.20638
193.2753
191.24924
189.10942
186.84073
184.43299
181.88338
179.19108
176.35026
173.34447
170.19364
166.94752
163.61726
160.17604
156.62054
152.96454
149.22174
145.404
141.52072
137.57922
133.58491
129.54143
125.45077
121.31537
117.14489
112.95749
108.77496
104.62305
100.53381
96.542803
92.690683
89.023716
85.59579
82.46985
79.707298
77.367435
75.490606
74.09808
73.18665
72.705707
72.557706
72.584513
72.761482
73.161894
73.603322
73.991451
74.271655
74.404644
74.398062
74.227995
73.750369
73.019319
72.043259
70.7703
69.180727
67.278156
65.078676
62.609751
59.912159
57.041352
54.068355
51.081685
48.19001
45.521679
43.214914
41.403512
40.183466
39.565014
39.424333
39.555911
40.190957
41.54068
43.098194
44.745826
46.414843
48.037828
49.551486
50.900411
52.033175
52.901695
53.463526
53.691003
53.660005
53.308027
52.326384
50.98733
49.468088
47.861194
46.28798
44.872765
43.722461
42.912454
42.484538
42.409408
42.573342
43.254939
44.439339
45.727538
47.054146
48.35164
49.552737
50.597974
51.440105
52.046903
52.408427
52.5463
52.539044
52.403253
52.045117
51.629291
51.253001
50.969499
50.82347
50.823429
50.965125
51.360974
51.898746
52.493684
53.110072
53.705353
54.237736
54.672063
54.983566
55.161724
55.219327
55.208367
55.121188
54.853243
54.442844
53.998947
53.544133
53.100299
52.688868
52.322688
52.010436
51.751256
51.541532
51.367267
51.21749
51.074083
50.934345
50.779694
50.619558
50.427337
50.224174
49.96987
49.701079
49.363496
49.022059
48.594451
48.185717
47.672256
47.206079
46.609775
46.103977
45.426972
44.897605
44.139712
43.610268
42.761855
42.222871
41.28808
40.783022
39.479167
225.87076
223.71085
221.56172
219.42869
217.31669
215.22972
213.17166
211.14524
209.1481
207.17665
205.22583
203.27709
201.30677
199.29149
197.20696
195.03244
192.75001
190.3463
187.81192
185.142
182.33816
179.40002
176.32263
173.10011
169.76537
166.36245
162.88696
159.31655
155.65511
151.91677
148.11401
144.25711
140.35384
136.40982
132.42868
128.41263
124.36285
120.2824
116.18106
112.07546
107.9865
103.93922
99.965183
96.100172
92.384589
88.867313
85.602399
82.648545
80.065154
77.904721
76.198776
74.957876
74.172396
73.784392
73.690899
73.743453
73.962517
74.367373
74.784404
75.141848
75.388572
75.489843
75.463819
75.258868
74.744178
73.99466
72.991607
71.6885
70.069414
68.138443
65.911682
63.417377
60.698148
57.812694
54.837081
51.866574
49.016767
46.420147
44.213486
42.521611
41.424921
40.91285
40.834846
41.020067
41.781357
43.195562
44.777276
46.444044
48.130085
49.770086
51.302014
52.671053
53.826016
54.718873
55.307501
55.561007
55.544159
55.232003
54.318733
53.030092
51.560059
49.995608
48.452134
47.049024
45.891012
45.055152
44.589382
44.485881
44.623929
45.229059
46.347974
47.583918
48.868152
50.132785
51.310562
52.341901
53.179089
53.788995
54.160059
54.310744
54.311765
54.195902
53.86008
53.445446
53.062913
52.765191
52.597544
52.577994
52.688032
53.028061
53.523443
54.078509
54.658444
55.22136
55.726031
56.137456
56.430662
56.595024
56.644389
56.629767
56.533082
56.252053
55.839591
55.391564
54.930172
54.477395
54.054513
53.674664
53.346811
53.070672
52.843184
52.651023
52.483826
52.323986
52.168753
51.999533
51.82531
51.619874
51.402871
51.135898
50.853124
50.503196
50.147142
49.707146
49.282548
48.756146
48.273058
47.663334
47.139921
46.449589
45.903041
45.132207
44.587981
43.727913
43.179304
42.234766
41.723851
40.401603
228.93613
226.77663
224.61594
222.45799
220.30812
218.16923
216.04358
213.93153
211.82752
209.72651
207.62266
205.4948
203.32003
201.07828
198.74934
196.31795
193.77135
191.10155
188.30481
185.38074
182.33376
179.16412
175.86801
172.45282
168.96144
165.42357
161.82417
158.14883
154.40608
150.60924
146.76926
142.89473
138.99175
135.06425
131.11436
127.14306
123.15107
119.14184
115.12478
111.11541
107.1338
103.20442
99.358385
95.631523
92.065018
88.70762
85.613632
82.83892
80.438029
78.45636
76.917327
75.82067
75.153564
74.851383
74.805053
74.886049
75.148873
75.552988
75.952055
76.286929
76.510522
76.591486
76.553147
76.325062
75.791602
75.033721
74.014878
72.694282
71.058609
69.111944
66.870264
64.362496
61.632983
58.743521
55.774935
52.828562
50.025671
47.501338
45.389541
43.805542
42.815337
42.391615
42.36006
42.5974
43.470344
44.923347
46.521888
48.201911
49.900556
51.554292
53.10216
54.489783
55.666125
56.583259
57.199347
57.481541
57.480902
57.209221
56.368223
55.131969
53.711674
52.189287
50.674393
49.281659
48.113854
47.249772
46.742494
46.601958
46.711865
47.237763
48.283633
49.462799
50.700578
51.928764
53.080195
54.095162
54.925414
55.536819
55.916075
56.078519
56.087657
55.988818
55.675443
55.261565
54.872282
54.55981
54.369488
54.325904
54.407223
54.691198
55.14171
55.655309
56.197238
56.726309
57.201866
57.589072
57.862802
58.012432
58.053015
58.033428
57.925372
57.630914
57.216084
56.763166
56.294447
55.831973
55.396882
55.002532
54.658213
54.364225
54.118032
53.907022
53.721402
53.544084
53.372254
53.187436
52.997995
52.778329
52.546472
52.265872
51.968234
51.605073
51.233616
50.780417
50.339262
49.799217
49.298599
48.67489
48.1333
47.429225
46.864955
46.080984
45.52146
44.649684
44.091054
43.136627
42.618764
41.279127
234.01722
231.85159
229.67047
227.47306
225.26455
223.0506
220.83247
218.6106
216.3831
214.14171
211.88113
209.59588
207.26278
204.86129
202.37583
199.79088
197.09681
194.2859
191.35534
188.30712
185.14638
181.87218
178.48481
174.99393
171.41984
167.80035
164.14989
160.45096
156.69696
152.89849
149.06736
145.21284
141.34181
137.45875
133.56606
129.66456
125.75434
121.83589
117.91276
113.99393
110.09407
106.23245
102.43311
98.726743
95.149243
91.742265
88.55437
85.638026
83.046584
80.829718
79.024776
77.647083
76.687494
76.132247
75.9094
75.903224
76.019726
76.325871
76.728597
77.117285
77.438982
77.650867
77.723732
77.680167
77.443016
76.908423
76.152245
75.129699
73.804789
72.165782
70.216418
67.972458
65.463381
62.735068
59.852132
56.899677
53.98417
51.231191
48.776979
46.751711
45.261011
44.358273
44.004278
44.004391
44.291024
45.25333
46.72579
48.332739
50.019761
51.726219
53.390038
54.951144
56.355469
57.552047
58.493097
59.13702
59.449867
59.468349
59.236134
58.470406
57.288259
55.917915
54.437012
52.949539
51.565658
50.386318
49.492004
48.94013
48.754246
48.833877
49.279955
50.243774
51.362626
52.550065
53.738293
54.860362
55.856439
56.677682
57.288873
57.674866
57.847913
57.86499
57.780503
57.489186
57.075853
56.679411
56.351749
56.137981
56.066581
56.120811
56.34981
56.752832
57.223571
57.726091
58.219956
58.665077
59.026807
59.279937
59.413948
59.445257
59.41933
59.29799
58.990064
58.572476
58.113933
57.637188
57.164327
56.71633
56.306756
55.945201
55.632571
55.366843
55.136118
54.931174
54.735441
54.54601
54.34465
54.138974
53.904142
53.656522
53.361414
53.048121
52.670916
52.283357
51.816213
51.357898
50.803572
50.284893
49.646691
49.086453
48.36826
47.785827
46.988543
46.413293
45.529757
44.960773
43.996077
43.470596
42.114448
236.73477
234.53967
232.3123
230.0532
227.76925
225.4659
223.14219
220.79696
218.4264
216.02029
213.57458
211.085
208.52691
205.88374
203.14517
200.30079
197.34633
194.27975
191.1069
187.82628
184.43854
180.95327
177.37804
173.72813
170.02931
166.30877
162.57041
158.79908
154.99392
151.16565
147.32428
143.47736
139.6301
135.78547
131.94457
128.10724
124.27297
120.44212
116.61829
112.81007
109.03143
105.30096
101.64237
98.08594
94.667589
91.429037
88.417878
85.684663
83.279231
81.245374
79.613402
78.390714
77.562984
77.112677
76.963197
76.990849
77.155276
77.500671
77.905761
78.292558
78.611755
78.824303
78.901273
78.860008
78.629112
78.109591
77.365696
76.352017
75.036104
73.40702
71.46794
69.234311
66.735999
64.020174
61.15386
58.225762
55.346362
52.644167
50.255335
48.305609
46.891426
46.055699
45.752358
45.773004
46.101051
47.126842
48.603313
50.210104
51.897565
53.606681
55.276563
56.84784
58.26663
59.481982
60.446266
61.118101
61.46297
61.504048
61.308838
60.620321
59.493941
58.173526
56.733398
55.272246
53.895922
52.70365
51.777446
51.178472
50.939717
50.986387
51.354571
52.225732
53.281808
54.41521
55.560046
56.649745
57.62437
58.434451
59.043613
59.434783
59.617178
59.641858
59.56949
59.299338
58.886477
58.482567
58.139368
57.901608
57.799543
57.826841
58.00334
58.355916
58.782715
59.244572
59.701976
60.115419
60.450479
60.681935
60.799487
60.821113
60.787289
60.650727
60.329713
59.908825
59.443943
58.958527
58.474649
58.01312
57.587679
57.20822
56.876247
56.59025
56.339045
56.113967
55.898975
55.691039
55.472273
55.249446
54.998585
54.734387
54.423967
54.094305
53.702314
53.298031
52.816269
52.340267
51.771081
51.233891
50.580737
50.001461
49.268811
48.667857
47.857107
47.265771
46.370439
45.7908
44.815334
44.281972
42.910046
239.16771
236.91718
234.61974
232.27564
229.89323
227.47708
225.02371
222.53084
219.99336
217.4001
214.7497
212.03966
209.24438
206.35287
203.36066
200.26416
197.06708
193.76377
190.35673
186.85628
183.26989
179.6064
175.87877
172.10828
168.31775
164.52376
160.72513
156.91037
153.08195
149.24958
145.42133
141.60306
137.79843
134.00913
130.23526
126.476
122.73052
118.99926
115.28586
111.59862
107.951
104.361
100.85207
97.454137
94.202918
91.139734
88.310657
85.763833
83.544895
81.691852
80.227809
79.152882
78.452633
78.100971
78.017633
78.080923
78.303852
78.681356
79.097318
79.492085
79.82019
80.045662
80.139127
80.108227
79.898518
79.409403
78.68868
77.69647
76.402628
74.796403
72.880249
70.669199
68.193317
65.500732
62.660372
59.763699
56.924014
54.271428
51.940997
50.053775
48.697906
47.908033
47.635933
47.669452
48.025972
49.088316
50.555813
52.153846
53.834901
55.541177
57.212756
58.790785
60.221459
61.453798
62.440313
63.139816
63.517534
63.584418
63.423719
62.812721
61.743799
60.473105
59.072964
57.637125
56.267309
55.061043
54.101649
53.453598
53.155874
53.165175
53.458427
54.228858
55.218797
56.294562
57.392644
58.446978
59.397549
60.194238
60.799458
61.194153
61.384557
61.416344
61.354207
61.103971
60.691585
60.279993
59.921008
59.658886
59.524436
59.523063
59.65148
59.949811
60.33211
60.752185
61.171977
61.552574
61.859829
62.068589
62.16889
62.180535
62.136962
61.983254
61.650073
61.225104
60.753193
60.258507
59.763043
59.287426
58.845554
58.447613
58.095688
57.788779
57.516423
57.27049
57.035484
56.808227
56.571266
56.330469
56.062787
55.781279
55.45481
55.108141
54.700689
54.27913
53.782135
53.28799
52.703421
52.147337
51.478818
50.880183
50.132774
49.513012
48.68866
48.080939
47.173801
46.58322
45.596572
45.055386
43.668168
241.22811
238.89956
236.51152
234.06207
231.56113
229.01184
226.40824
223.74782
221.02485
218.22844
215.3613
212.42242
209.38688
206.2548
203.02597
199.69284
196.25597
192.7271
189.11617
185.42962
181.67779
177.87328
174.03423
170.18189
166.33187
162.49416
158.66523
154.83681
151.01279
147.20119
143.40817
139.63798
135.89294
132.17375
128.47988
124.81021
121.16393
117.54171
113.94738
110.38911
106.87996
103.43756
100.08511
96.852106
93.77384
90.890739
88.246877
85.887424
83.853583
82.177516
80.875396
79.942252
79.363659
79.1052
79.080102
79.187282
79.474616
79.882422
80.317858
80.73087
81.079412
81.329674
81.452084
81.440345
81.264661
80.820993
80.134285
79.175771
77.916486
76.345409
74.464168
72.287268
69.844748
67.185312
64.379187
61.519651
58.72164
56.115657
53.834892
51.995775
50.679399
49.914276
49.654551
49.693818
50.063778
51.13576
52.582816
54.163416
55.830953
57.528585
59.197161
60.778185
62.217831
63.465054
64.472477
65.199068
65.609946
65.705458
65.576858
65.042107
64.032561
62.811165
61.450178
60.038762
58.674653
57.45366
56.460136
55.761489
55.401068
55.364377
55.58882
56.252626
57.172042
58.186618
59.234663
60.250652
61.174533
61.955528
62.554806
62.951287
63.148281
63.186538
63.133017
62.901181
62.489322
62.069916
61.694997
61.408291
61.241105
61.206574
61.293243
61.534298
61.87109
62.248372
62.629503
62.976163
63.254536
63.439627
63.521944
63.523434
63.467838
63.29516
62.951374
62.52121
62.041607
61.537101
61.02954
60.539345
60.080556
59.663638
59.291241
58.962865
58.668773
58.401349
58.145656
57.898351
57.642478
57.382977
57.097752
56.798278
56.455091
56.090839
55.667313
55.227988
54.715205
54.202522
53.602098
53.026799
52.342544
51.724291
50.961853
50.32306
49.484986
48.860629
47.941706
47.33991
46.341946
45.793022
44.390829
245.17914
242.82628
240.40668
237.91157
235.34027
232.70473
230.00611
227.23657
224.39443
221.47409
218.46659
215.38024
212.22434
208.96352
205.59762
202.1298
198.56844
194.92585
191.20835
187.4262
183.59071
179.71283
175.81048
171.9033
168.00638
164.13034
160.28079
156.4528
152.64045
148.84758
145.08025
141.34277
137.63796
133.96709
130.33023
126.72661
123.15521
119.6156
116.10894
112.63941
109.21529
105.84941
102.55915
99.367459
96.303344
93.401348
90.70052
88.242467
86.069185
84.217127
82.712648
81.565937
80.768895
80.305635
80.135581
80.1594
80.327217
80.678651
81.118832
81.582603
82.024169
82.404346
82.690642
82.853533
82.872057
82.739204
82.355141
81.713461
80.800187
79.587041
78.062457
76.227162
74.095016
71.695774
69.078294
66.313432
63.495326
60.739408
58.175539
55.934508
54.128448
52.832845
52.072141
51.806491
51.844221
52.211721
53.26744
54.683461
56.237851
57.884531
59.567437
61.228003
62.807947
64.253339
65.513031
66.539724
67.292475
67.736321
67.862841
67.764071
67.302591
66.355158
65.182198
63.859492
62.471743
61.112788
59.876649
58.848418
58.098093
57.672914
57.579422
57.742446
58.296414
59.139916
60.089817
61.084626
62.059319
62.953843
63.716781
64.308035
64.704487
64.906578
64.950542
64.904235
64.689084
64.277845
63.850556
63.459656
63.148291
62.948278
62.877072
62.925805
63.109349
63.398932
63.732517
64.074041
64.385749
64.634221
64.794723
64.858378
64.849692
64.779227
64.586347
64.23353
63.796963
63.309049
62.794221
62.274108
61.768912
61.292792
60.856484
60.463175
60.112863
59.796532
59.507061
59.230086
58.962091
58.686656
58.4078
58.104374
57.786347
57.425836
57.043489
56.603333
56.14581
55.616736
55.085175
54.468471
53.873691
53.173371
52.535294
51.757585
51.099593
50.247695
49.606496
48.675841
48.062567
47.053395
46.496725
45.079838
246.32915
243.8913
241.36784
238.75279
236.04787
233.26663
230.40762
227.46271
224.43278
221.32302
218.11704
214.825
211.4416
207.94774
204.35852
200.68732
196.93833
193.1237
189.25369
185.34189
181.39871
177.44138
173.48848
169.55479
165.6511
161.78416
157.95586
154.16034
150.39292
146.65649
142.95499
139.29107
135.66635
132.08141
128.53609
125.02984
121.56217
118.1334
114.74548
111.40323
108.11523
104.89432
101.75776
98.72824
95.834114
93.108882
90.589701
88.315121
86.324859
84.649292
83.309706
82.311436
81.644471
81.290715
81.20162
81.273559
81.517657
81.926208
82.405941
82.906914
83.386962
83.809241
84.141944
84.354982
84.418816
84.331736
84.019355
83.43465
82.577135
81.420527
79.952587
78.17308
76.095091
73.747825
71.179837
68.46192
65.688145
62.973416
60.446097
58.234258
56.446229
55.1534
54.378143
54.088709
54.117229
54.466489
55.481674
56.856479
58.375791
59.99409
61.655943
63.303214
64.877706
66.32532
67.594765
68.638773
69.416413
69.892565
70.051965
69.980937
69.587463
68.707266
67.580701
66.295369
64.93067
63.576555
62.325156
61.262002
60.459356
59.968103
59.808656
59.914479
60.359108
61.12059
62.00253
62.941015
63.871491
64.733978
65.476441
66.057517
66.452053
66.657681
66.706479
66.666151
66.465767
66.055368
65.620139
65.213304
64.877341
64.644583
64.534583
64.546233
64.674758
64.914801
65.203956
65.505029
65.780846
65.998458
66.133504
66.178158
66.158388
66.070743
65.857192
65.496011
65.052131
64.555335
64.029728
63.496664
62.976105
62.482314
62.026275
61.611696
61.239058
60.900065
60.588068
60.289291
60.00004
59.704463
59.405673
59.083456
58.746353
58.367971
57.967072
57.509784
57.033683
56.487867
55.937138
55.303776
54.689297
53.972619
53.314559
52.521371
51.844059
50.978248
50.320041
49.377734
48.752743
47.732528
47.168106
45.736826
246.89413
244.36017
241.72345
238.98058
236.13668
233.21092
230.1998
227.08937
223.88235
220.57147
217.15143
213.64489
210.05368
206.36336
202.59178
198.75186
194.85102
190.9066
186.92864
182.93158
178.93152
174.94502
170.9872
167.06903
163.19752
159.37565
155.60197
151.86975
148.17458
144.51777
140.90124
137.32618
133.7933
130.30288
126.855
123.44977
120.08772
116.77034
113.5007
110.28459
107.13117
104.0535
101.06886
98.19963
95.473396
92.922299
90.581139
88.485932
86.672179
85.165874
83.983329
83.126091
82.582889
82.332483
82.314105
82.443259
82.77051
83.233413
83.759331
84.305773
84.833414
85.307181
85.695487
85.967426
86.090016
86.052166
85.817775
85.303884
84.51094
83.419865
82.017344
80.302108
78.286333
75.998391
73.486077
70.819447
68.091647
65.416165
62.919201
60.725946
58.941522
57.634682
56.827644
56.497129
56.507929
56.824348
57.776727
59.100193
60.575506
62.157759
63.792024
65.420462
66.984859
68.43089
69.707085
70.766144
71.567056
72.074427
72.268006
72.222853
71.891523
71.083157
70.001136
68.752298
67.410179
66.060821
64.794339
63.696396
62.841211
62.283152
62.05071
62.100106
62.439595
63.111876
63.923064
64.802267
65.685653
66.513411
67.232939
67.80162
68.19229
68.399835
68.452495
68.41704
68.229183
67.820277
67.376896
66.954264
66.593892
66.328588
66.17928
66.15127
66.230567
66.417696
66.661982
66.921862
67.160926
67.346781
67.455569
67.48119
67.448628
67.341827
67.107947
66.738404
66.286444
65.780242
65.243443
64.697082
64.160859
63.649123
63.173086
62.736952
62.341675
61.979671
61.644744
61.323717
61.012722
60.696486
60.377253
60.035716
59.679075
59.28233
58.862476
58.387607
57.892597
57.329636
56.759496
56.109137
55.474786
54.741492
54.063335
53.254484
52.557772
51.677975
51.002635
50.048773
49.411855
48.38076
47.808605
46.363272
246.8276
244.20105
241.45886
238.59748
235.62442
232.55377
229.36953
226.07408
222.6746
219.17087
215.56773
211.88382
208.11972
204.26709
200.34925
196.38301
192.37763
188.34934
184.31293
180.28503
176.28072
172.31444
168.39775
164.53787
160.73782
156.9968
153.31035
149.67069
146.07286
142.51628
139.00104
135.52705
132.0945
128.70379
125.3557
122.05151
118.79321
115.58393
112.42825
109.33328
106.3091
103.3692
100.53104
97.816624
95.252712
92.8697
90.698113
88.776296
87.130789
85.784669
84.750193
84.026055
83.599823
83.445919
83.484998
83.691189
84.098049
84.615846
85.194008
85.793222
86.376363
86.909604
87.36127
87.699578
87.891152
87.909428
87.751548
87.324054
86.602688
85.584662
84.254849
82.610908
80.663976
78.441318
75.989519
73.377269
70.696032
68.057141
65.584129
63.399265
61.605078
60.269016
59.414877
59.027393
59.009299
59.281352
60.150882
61.412577
62.83492
64.373365
65.973335
67.577185
69.126598
70.566981
71.846642
72.918189
73.740427
74.277548
74.505945
74.485192
74.210444
73.476349
72.437928
71.224815
69.904953
68.56049
67.279376
66.147117
65.239584
64.614431
64.304776
64.293718
64.537525
65.110944
65.849686
66.666781
67.500261
68.290603
68.984701
69.538719
69.923516
70.131305
70.186774
70.155178
69.977568
69.570735
69.119072
68.680866
68.29639
67.998851
67.810461
67.739692
67.774905
67.90724
68.105856
68.323899
68.525427
68.678692
68.760491
68.767333
68.719453
68.591848
68.338825
67.960338
67.499605
66.983511
66.435153
65.875198
65.32307
64.793179
64.296946
63.839045
63.420889
63.035597
62.677409
62.333751
62.000593
61.663245
61.323129
60.961801
60.585216
60.169672
59.730509
59.237659
58.723453
58.142988
57.553235
56.885584
56.231226
55.481093
54.782761
53.958092
53.241938
52.348095
51.65553
50.690226
50.041198
48.999377
48.419532
46.960521
246.14665
243.41128
240.54441
237.54768
234.42963
231.20151
227.85994
224.40522
220.84507
217.18295
213.42594
209.59555
205.69579
201.72398
197.70693
193.66189
189.60183
185.54532
181.50696
177.50317
173.5473
169.65092
165.82163
162.06249
158.37239
154.7468
151.17846
147.65822
144.18
140.74123
137.3404
133.97637
130.64924
127.35995
124.11043
120.9036
117.74344
114.6351
111.58508
108.60228
105.69803
102.88652
100.18547
97.616567
95.20562
92.978641
90.970906
89.210344
87.722091
86.525224
85.628675
85.029012
84.712102
84.642909
84.738214
85.034274
85.511879
86.088382
86.723898
87.38185
88.026849
88.625891
89.147026
89.557663
89.82392
89.911872
89.822156
89.490646
88.850319
87.911338
86.659994
85.092894
83.220013
81.067246
78.679552
76.123688
73.488791
70.883449
68.428154
66.242284
64.426361
63.047668
62.133025
61.675141
61.611678
61.833771
62.602617
63.791289
65.15164
66.638455
68.197302
69.770623
71.299943
72.730371
74.009954
75.091136
75.932438
76.497503
76.760532
76.763572
76.5397
75.880554
74.885532
73.707518
72.40974
71.070512
69.775476
68.609697
67.650394
66.958245
66.570479
66.488168
66.651083
67.117199
67.780686
68.532926
69.31375
70.064005
70.730159
71.267201
71.644072
71.850385
71.907536
71.878854
71.709376
71.304753
70.844924
70.391455
69.983282
69.653937
69.426812
69.312012
69.304038
69.383708
69.53479
69.710465
69.873753
69.993667
70.047827
70.036459
69.969721
69.820409
69.549847
69.161445
68.691293
68.164861
67.604618
67.030822
66.462604
65.914409
65.397847
64.918035
64.476828
64.068041
63.686331
63.319728
62.964056
62.605206
62.243826
61.862297
61.465415
61.030688
60.571908
60.060722
59.527077
58.928794
58.319265
57.634062
56.959601
56.192435
55.473885
54.633267
53.897661
52.989726
52.279881
51.303254
50.641956
49.58956
49.002087
47.529802
244.7288
241.88811
238.91414
235.80192
232.56337
229.2062
225.73195
222.14273
218.45012
214.66023
210.78715
206.852
202.86136
198.81873
194.75477
190.68733
186.63025
182.60339
178.62053
174.6964
170.84174
167.06446
163.36775
159.75021
156.20657
152.72871
149.30662
145.92952
142.58982
139.28303
136.00636
132.75776
129.53777
126.34824
123.19264
120.07598
117.00481
113.98685
111.03088
108.14748
105.34944
102.65238
100.07505
97.638075
95.364543
93.284659
91.425893
89.813165
88.468803
87.408395
86.638355
86.153604
85.93686
85.93658
86.096908
86.48476
87.027447
87.664843
88.36134
89.082326
89.793759
90.463082
91.057974
91.54512
91.890087
92.057051
92.032452
91.79635
91.249574
90.393395
89.224777
87.738631
85.943657
83.86414
81.543034
79.044678
76.455349
73.880421
71.437085
69.241895
67.393867
65.961053
64.974389
64.434483
64.307456
64.475663
65.130286
66.233612
67.522971
68.950336
70.461145
71.997845
73.501775
74.91772
76.193434
77.281127
78.138935
78.72984
79.026133
79.054431
78.874328
78.289616
77.338485
76.195093
74.919359
73.585897
72.277891
71.079689
70.06956
69.310908
68.844817
68.682987
68.773409
69.130811
69.714292
70.399033
71.124535
71.832063
72.467751
72.985474
73.352323
73.555401
73.613053
73.58638
73.423042
73.020427
72.552735
72.084396
71.653029
71.292411
71.02701
70.868525
70.814595
70.847251
70.947895
71.08086
71.205287
71.29117
71.317506
71.287281
71.198793
71.02784
70.740492
70.341335
69.861168
69.323991
68.751578
68.163742
67.5793
67.012712
66.475749
65.973946
65.509587
65.077162
64.671734
64.281938
63.903467
63.522783
63.139819
62.737732
62.320253
61.866007
61.387347
60.857518
60.304228
59.687853
59.05842
58.355443
57.660814
56.876452
56.137674
55.281
54.52596
53.6039
52.876752
51.888922
51.215217
50.152395
49.557372
48.072246
245.38188
242.61228
239.69243
236.62796
233.41883
230.07874
226.61773
223.03835
219.34634
215.55692
211.68005
207.7339
203.74269
199.71473
195.65731
191.6044
187.57395
183.58008
179.64218
175.77248
171.98297
168.28089
164.66986
161.14831
157.71029
154.3465
151.04526
147.79391
144.57983
141.39376
138.22952
135.08365
131.95477
128.84227
125.7491
122.68062
119.64422
116.64852
113.70462
110.82496
108.02298
105.31366
102.71397
100.24222
97.91924
95.769874
93.819206
92.091896
90.610635
89.394378
88.455728
87.799327
87.418707
87.290727
87.343061
87.583006
88.053215
88.658191
89.357269
90.116634
90.903089
91.68356
92.425661
93.096668
93.66263
94.088556
94.338665
94.384042
94.233273
93.791427
93.021696
91.938717
90.536304
88.82186
86.817848
84.564891
82.124498
79.579656
77.032173
74.595749
72.38418
70.495394
68.998914
67.930538
67.29873
67.089929
67.200078
67.731899
68.736231
69.94592
71.306096
72.761911
74.255782
75.728863
77.125601
78.39343
79.484254
80.355733
80.970097
81.29791
81.35279
81.20999
80.697567
79.791486
78.682332
77.428721
76.101725
74.781921
73.552675
72.493004
71.668734
71.124619
70.878128
70.897885
71.151477
71.648487
72.263402
72.931022
73.593225
74.195928
74.691969
75.046668
75.244717
75.301648
75.276105
75.116997
74.715938
74.240824
73.758078
73.304102
72.912847
72.609747
72.408035
72.307298
72.294335
72.345277
72.434363
72.519394
72.570667
72.569577
72.518119
72.406388
72.214282
71.910259
71.499611
71.008881
70.460589
69.875759
69.273729
68.672981
68.087965
67.530588
67.006778
66.519227
66.063084
65.633809
65.22063
64.819139
64.416347
64.011536
63.58859
63.15026
62.676208
62.177447
61.628708
61.055607
60.420904
59.771473
59.050532
58.335703
57.534009
56.775021
55.902206
55.127777
54.191574
53.447129
52.448216
51.761987
50.688875
50.086408
48.588896
242.66632
239.84616
236.86585
233.73243
230.45118
227.03776
223.50408
219.85415
216.0987
212.25585
208.33965
204.37213
200.3798
196.37189
192.36036
188.37987
184.44757
180.57769
176.78755
173.08709
169.48462
165.98326
162.58185
159.27395
156.04908
152.89412
149.79392
146.73343
143.70033
140.682
137.67015
134.65764
131.64389
128.63095
125.6236
122.62951
119.65896
116.72442
113.83944
111.01938
108.2806
105.64047
103.11744
100.73087
98.502719
96.455656
94.613146
92.997473
91.628529
90.522227
89.688676
89.131407
88.842595
88.786612
88.886673
89.210313
89.750015
90.4157
91.175598
91.997786
92.850104
93.700123
94.515479
95.263028
95.908242
96.415632
96.749175
96.873707
96.795496
96.461352
95.785084
94.789323
93.472213
91.839835
89.912652
87.728674
85.34624
82.844715
80.322069
77.888374
75.654729
73.718273
72.150488
70.992456
70.260441
69.953398
69.99897
70.405936
71.294641
72.417209
73.702629
75.096497
76.541257
77.977901
79.350537
80.606257
81.696595
82.578657
83.213843
83.571095
83.653305
83.542605
83.098649
82.239536
81.164161
79.93284
78.61316
77.282929
76.024277
74.916664
74.02803
73.40658
73.07407
73.016915
73.179656
73.580836
74.124316
74.731604
75.345942
75.913161
76.385147
76.725544
76.916747
76.971705
76.946414
76.789676
76.389543
75.907551
75.410923
74.934997
74.513832
74.173724
73.929366
73.782355
73.721992
73.726966
73.770187
73.815423
73.831681
73.803874
73.727359
73.59274
73.379399
73.058661
72.635869
72.134075
71.574333
70.976879
70.360542
69.743455
69.140029
68.56228
68.016504
67.505782
67.025904
66.572711
66.136023
65.711347
65.286233
64.859364
64.415309
63.955922
63.461822
62.942781
62.374905
61.781862
61.128633
60.459139
59.72008
58.985044
58.16591
57.386755
56.497739
55.703987
54.753633
53.991927
52.982046
52.283201
51.199903
50.590144
49.080718
239.34373
236.49291
233.47573
230.30102
226.97887
223.52672
219.95752
216.27857
212.50563
208.65917
204.75731
200.82555
196.89071
192.96346
189.06041
185.21429
181.44097
177.75409
174.16774
170.68876
167.32116
164.06345
160.90956
157.84818
154.8645
151.94308
149.06589
146.21368
143.36871
140.51972
137.65772
134.77762
131.87739
128.9596
126.0307
123.10073
120.18288
117.29286
114.44799
111.66702
108.96953
106.37564
103.90577
101.58093
99.423123
97.454441
95.69667
94.169928
92.891552
91.874806
91.127743
90.653273
90.442086
90.438618
90.586464
90.988665
91.587153
92.309479
93.127369
94.010254
94.926703
95.844727
96.731836
97.554463
98.277568
98.865235
99.281134
99.489111
99.478135
99.243746
98.671621
97.762536