/*--------------------------------*- C++ -*----------------------------------*\
| =========                 |                                                 |
| \\      /  F ield         | OpenFOAM: The Open Source CFD Toolbox           |
|  \\    /   O peration     | Version:  2406                                  |
|   \\  /    A nd           | Website:  www.openfoam.com                      |
|    \\/     M anipulation  |                                                 |
\*---------------------------------------------------------------------------*/
FoamFile
{
    version     2.0;
    format      ascii;
    arch        "LSB;label=32;scalar=64";
    class       volScalarField;
    location    "0.008";
    object      p;
}
// * * * * * * * * * * * * * * * * * * * * * * * * * * * * * * * * * * * * * //

dimensions      [1 -1 -2 0 0 0 0];

internalField   nonuniform List<scalar> 
8951
(
100897.77
100913.42
100928.21
100942.13
100955.17
100967.35
100978.68
100989.16
100998.83
101007.68
101015.78
101023.14
101029.81
101035.83
101041.25
101046.13
101050.47
101054.33
101057.88
101060.96
101063.71
101066.11
101067.32
101069.44
101072.07
101073.93
101075.18
101076.46
101077.68
101078.87
101080.08
101081.34
101082.73
101084.28
101086.06
101088.13
101090.52
101093.14
101096.04
101099.41
101103.21
101107.26
101111.29
101115.81
101121.09
101126.23
101131.2
101135.98
101140.49
101144.67
101148.45
101151.73
101154.55
101156.95
101158.92
101160.64
101161.76
101162.85
101163.64
101164.23
101164.5
101164.85
101165.52
101166.25
101167.3
101168.28
101169.08
101170.04
101171.15
101172.41
101173.8
101175.3
101176.89
101178.56
101180.34
101182.19
101184.09
101186.21
101187.84
101189.08
101191.19
101192.96
101194.51
101195.78
101196.74
101197.3
101197.82
101197.93
101197.85
101197.84
101197.9
101197.89
101198.22
101198.55
101199.1
101199.85
101200.83
101202.07
101203.52
101205.15
101206.92
101208.77
101210.66
101212.51
101214.31
101215.93
101217.38
101218.76
101219.94
101220.99
101222
101223.03
101224.11
101225.31
101226.7
101228.27
101230.09
101232.12
101234.33
101236.58
101238.82
101240.99
101243
101244.8
101246.39
101247.83
101249.23
101250.65
101252.12
101253.71
101255.44
101257.31
101259.32
101261.48
101263.8
101266.26
101268.88
101271.61
101274.44
101277.3
101280.16
101282.99
101285.82
101288.69
101291.68
101294.78
101298.03
101301.36
101304.72
101307.97
101311.13
101314.07
101316.89
101319.52
101322.1
101324.57
101327.08
101329.51
101332.05
101334.46
101337.1
101339.45
101342.13
101344.35
101347.06
101349.24
101352.26
101354.54
101358.45
101361.42
101367
101369.93
101376.53
101380.79
101392.76
101398.91
101458.9
100886.67
100902.93
100918.35
100932.88
100946.54
100959.32
100971.25
100982.31
100992.55
101001.97
101010.58
101018.46
101025.6
101032.08
101037.91
101043.16
101047.89
101052.08
101055.8
101059.26
101062.25
101064.8
101066.78
101068.12
101070.8
101073.11
101074.61
101075.84
101077.08
101078.25
101079.4
101080.58
101081.84
101083.22
101084.79
101086.6
101088.71
101091.14
101093.8
101096.79
101100.22
101104.06
101108.24
101112.5
101116.94
101121.81
101127.09
101132.14
101136.86
101141.26
101145.35
101149.03
101152.22
101154.93
101157.26
101159.15
101160.83
101161.86
101162.98
101163.68
101164.07
101164.38
101165.15
101165.69
101166.36
101167.36
101168.35
101169.16
101170.14
101171.27
101172.54
101173.94
101175.45
101177.07
101178.74
101180.54
101182.4
101184.32
101186.42
101188.02
101189.36
101191.43
101193.17
101194.68
101195.91
101196.84
101197.39
101197.88
101197.96
101197.89
101197.85
101197.91
101197.88
101198.23
101198.56
101199.11
101199.85
101200.82
101202.05
101203.5
101205.13
101206.89
101208.74
101210.63
101212.48
101214.3
101215.92
101217.38
101218.77
101219.96
101221.02
101222.04
101223.07
101224.15
101225.36
101226.74
101228.31
101230.12
101232.15
101234.34
101236.58
101238.8
101240.96
101242.95
101244.74
101246.32
101247.76
101249.17
101250.59
101252.07
101253.67
101255.4
101257.27
101259.28
101261.44
101263.75
101266.21
101268.82
101271.55
101274.37
101277.22
101280.07
101282.89
101285.72
101288.59
101291.57
101294.67
101297.93
101301.25
101304.61
101307.86
101311.01
101313.95
101316.77
101319.4
101321.98
101324.44
101326.95
101329.37
101331.92
101334.32
101336.95
101339.3
101341.98
101344.2
101346.9
101349.07
101352.09
101354.36
101358.26
101361.2
101366.78
101369.68
101376.31
101380.48
101392.58
101398.07
101459.75
100891.64
100907.62
100922.74
100936.98
100950.33
100962.82
100974.46
100985.23
100995.19
101004.35
101012.7
101020.35
101027.27
101033.55
101039.2
101044.29
101048.89
101052.92
101056.53
101059.99
101062.88
101065.12
101066.64
101068.98
101071.6
101073.54
101074.95
101076.21
101077.47
101078.66
101079.85
101081.07
101082.38
101083.83
101085.47
101087.36
101089.55
101092.03
101094.78
101097.87
101101.36
101105.26
101109.46
101113.81
101118.5
101123.16
101128.06
101133.17
101137.86
101142.12
101146.09
101149.61
101152.68
101155.27
101157.48
101159.28
101160.91
101161.82
101162.89
101163.36
101163.83
101164.44
101165.17
101165.58
101166.29
101167.27
101168.24
101169.1
101170.12
101171.29
101172.6
101174.04
101175.59
101177.26
101178.97
101180.79
101182.68
101184.62
101186.69
101188.28
101189.71
101191.73
101193.43
101194.89
101196.08
101196.95
101197.47
101197.91
101197.96
101197.87
101197.8
101197.87
101197.82
101198.18
101198.5
101199.05
101199.8
101200.78
101202.01
101203.47
101205.1
101206.87
101208.73
101210.63
101212.49
101214.31
101215.94
101217.4
101218.79
101219.99
101221.05
101222.07
101223.11
101224.19
101225.39
101226.77
101228.34
101230.15
101232.17
101234.36
101236.58
101238.78
101240.93
101242.91
101244.68
101246.26
101247.7
101249.11
101250.53
101252.02
101253.62
101255.36
101257.23
101259.24
101261.4
101263.71
101266.17
101268.77
101271.49
101274.3
101277.15
101279.99
101282.8
101285.63
101288.49
101291.47
101294.57
101297.83
101301.15
101304.51
101307.76
101310.91
101313.84
101316.65
101319.28
101321.86
101324.32
101326.83
101329.24
101331.79
101334.18
101336.81
101339.16
101341.82
101344.04
101346.74
101348.91
101351.93
101354.18
101358.08
101360.98
101366.55
101369.44
101376.09
101380.17
101392.39
101397.14
101460.36
100895.62
100911.32
100926.16
100940.12
100953.2
100965.42
100976.79
100987.3
100997.02
101005.94
101014.05
101021.51
101028.24
101034.36
101039.86
101044.83
101049.32
101053.24
101056.79
101060.31
101062.95
101064.77
101066.76
101069.62
101071.89
101073.65
101075.1
101076.43
101077.74
101078.99
101080.25
101081.55
101082.95
101084.48
101086.22
101088.2
101090.48
101093.04
101095.88
101099.06
101102.62
101106.56
101110.77
101115.15
101119.85
101124.65
101129.3
101134.12
101138.69
101142.9
101146.75
101150.07
101153.03
101155.5
101157.6
101159.31
101160.84
101161.66
101162.51
101163.07
101163.73
101164.36
101164.93
101165.35
101166.11
101167.07
101168.04
101168.95
101170.02
101171.24
101172.61
101174.1
101175.7
101177.41
101179.19
101181.05
101182.97
101184.92
101186.97
101188.57
101190.07
101192.04
101193.7
101195.11
101196.24
101197.06
101197.54
101197.93
101197.95
101197.84
101197.75
101197.8
101197.75
101198.09
101198.41
101198.97
101199.72
101200.71
101201.95
101203.41
101205.06
101206.84
101208.71
101210.62
101212.5
101214.32
101215.95
101217.42
101218.81
101220.01
101221.08
101222.1
101223.13
101224.21
101225.41
101226.79
101228.36
101230.16
101232.18
101234.36
101236.57
101238.76
101240.89
101242.86
101244.62
101246.2
101247.64
101249.04
101250.47
101251.97
101253.57
101255.31
101257.19
101259.2
101261.36
101263.66
101266.12
101268.72
101271.43
101274.23
101277.07
101279.9
101282.71
101285.53
101288.39
101291.37
101294.47
101297.73
101301.05
101304.41
101307.66
101310.8
101313.73
101316.54
101319.16
101321.74
101324.2
101326.7
101329.12
101331.65
101334.05
101336.67
101339.01
101341.67
101343.89
101346.59
101348.75
101351.77
101354.01
101357.9
101360.76
101366.33
101369.18
101375.86
101379.84
101392.18
101396.04
101460.72
100882.81
100899.11
100914.54
100929.13
100942.82
100955.64
100967.6
100978.73
100989
100998.49
101007.2
101015.1
101022.39
101028.95
101034.93
101040.3
101045.16
101049.58
101053.38
101056.92
101060.41
101062.52
101064.54
101067.41
101069.94
101071.97
101073.71
101075.22
101076.63
101078
101079.32
101080.66
101082.04
101083.53
101085.16
101086.99
101089.07
101091.43
101094.08
101097.01
101100.27
101103.88
101107.86
101112.08
101116.47
101121.14
101125.91
101130.61
101135.1
101139.48
101143.65
101147.33
101150.46
101153.32
101155.68
101157.67
101159.28
101160.57
101161.58
101162.16
101162.98
101163.56
101164.09
101164.63
101165.09
101165.89
101166.85
101167.82
101168.77
101169.9
101171.18
101172.59
101174.14
101175.8
101177.55
101179.38
101181.28
101183.24
101185.21
101187.24
101188.85
101190.41
101192.34
101193.96
101195.32
101196.39
101197.16
101197.6
101197.94
101197.93
101197.8
101197.7
101197.73
101197.67
101198
101198.31
101198.87
101199.64
101200.63
101201.87
101203.35
101205
101206.8
101208.68
101210.6
101212.49
101214.32
101215.96
101217.44
101218.82
101220.03
101221.1
101222.12
101223.15
101224.23
101225.42
101226.8
101228.37
101230.17
101232.18
101234.35
101236.56
101238.74
101240.85
101242.81
101244.57
101246.13
101247.57
101248.98
101250.41
101251.91
101253.52
101255.26
101257.14
101259.15
101261.31
101263.62
101266.07
101268.66
101271.37
101274.16
101276.99
101279.81
101282.61
101285.43
101288.29
101291.27
101294.37
101297.63
101300.95
101304.3
101307.55
101310.69
101313.62
101316.42
101319.04
101321.62
101324.07
101326.58
101328.99
101331.52
101333.91
101336.53
101338.87
101341.52
101343.74
101346.43
101348.59
101351.61
101353.83
101357.71
101360.54
101366.11
101368.93
101375.63
101379.5
101391.9
101394.73
101460.84
100886.28
100902.31
100917.48
100931.82
100945.25
100957.81
100969.52
100980.41
100990.45
100999.74
101008.24
101015.94
101023.1
101029.5
101035.34
101040.6
101045.39
101049.76
101053.43
101056.93
101060.01
101062.13
101065
101067.89
101070.01
101072
101073.78
101075.35
101076.82
101078.26
101079.66
101081.07
101082.55
101084.13
101085.86
101087.79
101089.96
101092.41
101095.14
101098.16
101101.49
101105.16
101109.16
101113.39
101117.78
101122.4
101127.08
101131.72
101136.08
101140.34
101144.35
101147.87
101150.88
101153.57
101155.83
101157.71
101159.22
101160.27
101161.49
101162
101162.77
101163.29
101163.79
101164.33
101164.84
101165.66
101166.61
101167.6
101168.6
101169.77
101171.1
101172.57
101174.17
101175.88
101177.68
101179.56
101181.5
101183.48
101185.47
101187.5
101189.12
101190.74
101192.62
101194.2
101195.51
101196.54
101197.26
101197.66
101197.94
101197.91
101197.77
101197.65
101197.66
101197.6
101197.91
101198.22
101198.78
101199.55
101200.55
101201.8
101203.28
101204.95
101206.76
101208.65
101210.58
101212.48
101214.31
101215.96
101217.44
101218.83
101220.04
101221.12
101222.14
101223.16
101224.24
101225.44
101226.82
101228.38
101230.18
101232.19
101234.34
101236.54
101238.71
101240.81
101242.76
101244.5
101246.07
101247.51
101248.91
101250.34
101251.85
101253.47
101255.22
101257.1
101259.11
101261.27
101263.57
101266.02
101268.6
101271.31
101274.1
101276.91
101279.73
101282.52
101285.33
101288.19
101291.17
101294.27
101297.53
101300.85
101304.2
101307.44
101310.58
101313.51
101316.31
101318.93
101321.5
101323.95
101326.45
101328.86
101331.39
101333.78
101336.39
101338.72
101341.38
101343.59
101346.28
101348.43
101351.45
101353.66
101357.53
101360.32
101365.88
101368.67
101375.39
101379.16
101391.52
101393.23
101460.72
100889.44
100905.2
100920.12
100934.21
100947.39
100959.7
100971.18
100981.84
100991.66
101000.77
101009.07
101016.58
101023.61
101029.87
101035.59
101040.77
101045.51
101049.85
101053.33
101056.75
101059.21
101062.4
101065.45
101067.96
101069.98
101072.01
101073.82
101075.45
101077
101078.51
101079.99
101081.5
101083.07
101084.75
101086.58
101088.61
101090.87
101093.41
101096.22
101099.32
101102.72
101106.44
101110.47
101114.7
101119.07
101123.64
101128.23
101132.75
101137.02
101141.18
101144.96
101148.35
101151.3
101153.81
101155.94
101157.72
101159.14
101160.13
101161.28
101161.79
101162.5
101162.98
101163.49
101164.03
101164.57
101165.41
101166.35
101167.36
101168.4
101169.63
101171
101172.53
101174.18
101175.94
101177.79
101179.72
101181.69
101183.71
101185.72
101187.74
101189.39
101191.04
101192.88
101194.43
101195.69
101196.67
101197.34
101197.71
101197.95
101197.89
101197.74
101197.6
101197.59
101197.53
101197.82
101198.13
101198.69
101199.47
101200.47
101201.72
101203.22
101204.89
101206.71
101208.61
101210.55
101212.46
101214.3
101215.96
101217.44
101218.83
101220.05
101221.13
101222.15
101223.18
101224.26
101225.46
101226.83
101228.4
101230.19
101232.19
101234.34
101236.53
101238.69
101240.77
101242.71
101244.44
101246
101247.44
101248.84
101250.28
101251.8
101253.42
101255.17
101257.05
101259.07
101261.22
101263.52
101265.97
101268.55
101271.25
101274.03
101276.84
101279.64
101282.43
101285.23
101288.09
101291.06
101294.17
101297.42
101300.75
101304.1
101307.34
101310.47
101313.4
101316.2
101318.81
101321.38
101323.83
101326.33
101328.74
101331.26
101333.65
101336.25
101338.58
101341.23
101343.44
101346.12
101348.28
101351.29
101353.48
101357.34
101360.1
101365.65
101368.4
101375.14
101378.81
101391.04
101391.54
101460.37
100892.28
100907.78
100922.44
100936.31
100949.22
100961.29
100972.55
100983
100992.6
101001.55
101009.66
101017
101023.94
101030.06
101035.66
101040.8
101045.5
101049.74
101053.06
101056.17
101059.08
101062.72
101065.45
101067.82
101069.91
101071.97
101073.82
101075.53
101077.16
101078.74
101080.32
101081.92
101083.59
101085.37
101087.31
101089.44
101091.81
101094.43
101097.33
101100.51
101103.97
101107.74
101111.78
101116
101120.35
101124.85
101129.36
101133.76
101137.93
101141.94
101145.54
101148.77
101151.64
101154
101156.03
101157.7
101159.03
101159.99
101161.04
101161.53
101162.2
101162.67
101163.17
101163.71
101164.28
101165.13
101166.08
101167.11
101168.19
101169.47
101170.89
101172.47
101174.17
101175.98
101177.89
101179.86
101181.87
101183.91
101185.95
101187.97
101189.64
101191.33
101193.13
101194.64
101195.87
101196.8
101197.43
101197.77
101197.96
101197.88
101197.71
101197.56
101197.53
101197.46
101197.73
101198.03
101198.6
101199.38
101200.39
101201.65
101203.14
101204.83
101206.65
101208.57
101210.52
101212.43
101214.27
101215.94
101217.44
101218.83
101220.05
101221.15
101222.17
101223.2
101224.28
101225.47
101226.84
101228.41
101230.2
101232.19
101234.33
101236.51
101238.66
101240.73
101242.65
101244.38
101245.93
101247.37
101248.78
101250.22
101251.74
101253.36
101255.12
101257
101259.02
101261.18
101263.48
101265.92
101268.5
101271.19
101273.96
101276.76
101279.56
101282.33
101285.14
101287.99
101290.96
101294.06
101297.32
101300.64
101303.99
101307.23
101310.37
101313.29
101316.08
101318.7
101321.26
101323.71
101326.21
101328.61
101331.13
101333.51
101336.12
101338.44
101341.08
101343.29
101345.97
101348.12
101351.13
101353.31
101357.16
101359.87
101365.42
101368.14
101374.89
101378.46
101390.47
101389.73
101459.8
100878.7
100894.82
100910.04
100924.46
100938.12
100950.76
100962.6
100973.64
100983.89
100993.3
101002.11
101010.03
101017.21
101024.1
101030.07
101035.54
101040.71
101045.21
101049.07
101052.75
101055.9
101059.34
101062.64
101065.2
101067.61
101069.77
101071.88
101073.78
101075.57
101077.28
101078.96
101080.63
101082.33
101084.11
101086.01
101088.05
101090.29
101092.76
101095.47
101098.45
101101.71
101105.23
101109.03
101113.08
101117.29
101121.61
101126.04
101130.45
101134.74
101138.79
101142.65
101146.1
101149.18
101151.91
101154.17
101156.08
101157.66
101158.9
101159.82
101160.78
101161.26
101161.9
101162.35
101162.84
101163.38
101163.97
101164.83
101165.78
101166.84
101167.97
101169.3
101170.77
101172.4
101174.15
101176.01
101177.96
101179.98
101182.03
101184.1
101186.15
101188.18
101189.88
101191.6
101193.37
101194.84
101196.03
101196.93
101197.51
101197.82
101197.97
101197.86
101197.68
101197.51
101197.46
101197.39
101197.64
101197.95
101198.51
101199.3
101200.31
101201.57
101203.07
101204.76
101206.6
101208.52
101210.47
101212.4
101214.25
101215.92
101217.43
101218.82
101220.05
101221.15
101222.18
101223.21
101224.29
101225.49
101226.86
101228.42
101230.21
101232.2
101234.33
101236.49
101238.63
101240.69
101242.6
101244.32
101245.86
101247.3
101248.71
101250.15
101251.68
101253.31
101255.07
101256.96
101258.98
101261.13
101263.43
101265.87
101268.44
101271.13
101273.89
101276.68
101279.47
101282.24
101285.04
101287.89
101290.86
101293.96
101297.22
101300.54
101303.89
101307.13
101310.26
101313.18
101315.97
101318.58
101321.15
101323.6
101326.09
101328.49
101331.01
101333.39
101335.98
101338.3
101340.94
101343.14
101345.82
101347.97
101350.97
101353.14
101356.97
101359.65
101365.18
101367.87
101374.64
101378.11
101389.87
101387.87
101459.02
100881.23
100897.06
100911.98
100926.18
100939.65
100952.01
100963.62
100974.47
100984.52
100993.76
101002.46
101010.16
101017.2
101024.11
101029.9
101035.15
101040.42
101044.42
101048.49
101052.57
101056
101059.22
101062.27
101064.88
101067.34
101069.57
101071.72
101073.7
101075.57
101077.37
101079.15
101080.92
101082.74
101084.63
101086.64
101088.8
101091.15
101093.72
101096.52
101099.59
101102.91
101106.49
101110.32
101114.37
101118.57
101122.85
101127.21
101131.52
101135.69
101139.61
101143.32
101146.62
101149.57
101152.16
101154.3
101156.11
101157.59
101158.76
101159.63
101160.5
101160.97
101161.57
101162
101162.49
101163.03
101163.64
101164.51
101165.48
101166.55
101167.74
101169.11
101170.63
101172.31
101174.11
101176.02
101178.02
101180.07
101182.16
101184.26
101186.34
101188.37
101190.11
101191.86
101193.58
101195.03
101196.18
101197.05
101197.59
101197.87
101197.99
101197.85
101197.65
101197.47
101197.4
101197.32
101197.55
101197.86
101198.42
101199.21
101200.23
101201.49
101202.99
101204.69
101206.53
101208.46
101210.43
101212.35
101214.21
101215.89
101217.41
101218.81
101220.04
101221.16
101222.19
101223.22
101224.3
101225.5
101226.87
101228.43
101230.22
101232.2
101234.32
101236.48
101238.6
101240.65
101242.54
101244.25
101245.79
101247.23
101248.64
101250.09
101251.62
101253.26
101255.02
101256.91
101258.93
101261.09
101263.39
101265.82
101268.39
101271.07
101273.83
101276.61
101279.39
101282.15
101284.95
101287.79
101290.76
101293.86
101297.12
101300.44
101303.79
101307.03
101310.15
101313.07
101315.86
101318.47
101321.03
101323.48
101325.97
101328.37
101330.88
101333.26
101335.85
101338.17
101340.8
101343
101345.68
101347.82
101350.81
101352.97
101356.79
101359.42
101364.95
101367.59
101374.38
101377.76
101389.3
101385.97
101458.06
100883.5
100899.02
100913.64
100927.64
100940.95
100952.97
100964.38
100975.05
100984.92
100993.99
101002.63
101010.07
101016.97
101023.89
101029.54
101034.54
101039.65
101043.91
101048.25
101052.35
101055.64
101058.79
101061.81
101064.48
101066.99
101069.29
101071.5
101073.55
101075.52
101077.42
101079.3
101081.19
101083.12
101085.14
101087.27
101089.55
101092.01
101094.68
101097.58
101100.73
101104.12
101107.75
101111.61
101115.66
101119.82
101124.06
101128.34
101132.55
101136.6
101140.4
101143.96
101147.11
101149.93
101152.38
101154.41
101156.11
101157.5
101158.59
101159.41
101160.21
101160.66
101161.23
101161.65
101162.13
101162.67
101163.3
101164.18
101165.15
101166.26
101167.49
101168.9
101170.47
101172.19
101174.05
101176.01
101178.05
101180.15
101182.27
101184.4
101186.5
101188.55
101190.32
101192.09
101193.79
101195.2
101196.33
101197.16
101197.66
101197.93
101198
101197.85
101197.63
101197.44
101197.34
101197.25
101197.47
101197.78
101198.34
101199.13
101200.15
101201.41
101202.92
101204.62
101206.47
101208.4
101210.37
101212.31
101214.17
101215.86
101217.39
101218.79
101220.03
101221.15
101222.2
101223.23
101224.32
101225.51
101226.88
101228.44
101230.23
101232.2
101234.31
101236.46
101238.57
101240.6
101242.49
101244.19
101245.72
101247.16
101248.57
101250.02
101251.55
101253.2
101254.97
101256.86
101258.89
101261.05
101263.34
101265.77
101268.34
101271.01
101273.76
101276.54
101279.31
101282.06
101284.85
101287.69
101290.66
101293.76
101297.02
101300.34
101303.69
101306.92
101310.05
101312.96
101315.75
101318.36
101320.92
101323.37
101325.85
101328.25
101330.76
101333.13
101335.72
101338.03
101340.66
101342.85
101345.53
101347.66
101350.66
101352.8
101356.6
101359.2
101364.71
101367.31
101374.11
101377.41
101388.79
101384.08
101456.93
100885.33
100900.73
100915.19
100928.84
100941.97
100953.68
100964.88
100975.39
100985.08
100994
101002.57
101009.78
101016.52
101023.09
101029.03
101034.18
101038.85
101043.7
101047.81
101051.72
101055.04
101058.24
101061.26
101063.99
101066.55
101068.92
101071.21
101073.35
101075.41
101077.43
101079.42
101081.43
101083.49
101085.62
101087.88
101090.28
101092.86
101095.64
101098.64
101101.87
101105.33
101109
101112.88
101116.92
101121.06
101125.25
101129.44
101133.54
101137.47
101141.14
101144.56
101147.57
101150.26
101152.57
101154.49
101156.1
101157.39
101158.4
101159.17
101159.91
101160.34
101160.87
101161.27
101161.75
101162.29
101162.94
101163.82
101164.82
101165.95
101167.22
101168.68
101170.29
101172.06
101173.97
101175.97
101178.06
101180.2
101182.36
101184.52
101186.65
101188.71
101190.52
101192.3
101193.97
101195.36
101196.46
101197.26
101197.74
101197.98
101198.02
101197.84
101197.61
101197.4
101197.28
101197.19
101197.39
101197.7
101198.26
101199.05
101200.08
101201.33
101202.84
101204.55
101206.4
101208.34
101210.31
101212.25
101214.12
101215.82
101217.36
101218.77
101220.01
101221.15
101222.2
101223.24
101224.33
101225.53
101226.9
101228.46
101230.24
101232.2
101234.3
101236.44
101238.54
101240.56
101242.43
101244.12
101245.65
101247.09
101248.5
101249.95
101251.49
101253.14
101254.92
101256.82
101258.84
101261
101263.3
101265.73
101268.29
101270.95
101273.7
101276.46
101279.22
101281.98
101284.76
101287.6
101290.57
101293.67
101296.92
101300.24
101303.58
101306.82
101309.94
101312.86
101315.64
101318.25
101320.81
101323.25
101325.74
101328.13
101330.64
101333.01
101335.59
101337.9
101340.52
101342.71
101345.38
101347.51
101350.5
101352.63
101356.42
101358.97
101364.47
101367.03
101373.85
101377.06
101388.35
101382.19
101455.66
100886.85
100902.14
100916.48
100929.77
100942.49
100954.33
100965.25
100975.51
100985.02
100993.75
101001.94
101009.46
101016.13
101022.14
101028.35
101033.73
101038.35
101043.01
101047.07
101050.92
101054.32
101057.57
101060.62
101063.4
101066.02
101068.47
101070.84
101073.08
101075.25
101077.38
101079.49
101081.63
101083.81
101086.09
101088.47
101091
101093.7
101096.59
101099.69
101103
101106.52
101110.24
101114.13
101118.16
101122.26
101126.4
101130.51
101134.5
101138.31
101141.85
101145.12
101148
101150.56
101152.74
101154.56
101156.06
101157.26
101158.21
101158.92
101159.59
101159.99
101160.49
101160.89
101161.36
101161.9
101162.57
101163.46
101164.47
101165.63
101166.94
101168.44
101170.1
101171.92
101173.86
101175.92
101178.05
101180.23
101182.43
101184.62
101186.77
101188.86
101190.7
101192.49
101194.14
101195.51
101196.59
101197.36
101197.81
101198.03
101198.05
101197.84
101197.6
101197.37
101197.23
101197.13
101197.32
101197.62
101198.18
101198.97
101200
101201.26
101202.76
101204.47
101206.33
101208.27
101210.25
101212.19
101214.07
101215.78
101217.32
101218.74
101219.99
101221.14
101222.2
101223.24
101224.34
101225.54
101226.91
101228.47
101230.24
101232.2
101234.29
101236.42
101238.51
101240.52
101242.38
101244.06
101245.58
101247.02
101248.43
101249.89
101251.43
101253.09
101254.87
101256.77
101258.8
101260.96
101263.25
101265.68
101268.24
101270.9
101273.64
101276.39
101279.14
101281.89
101284.67
101287.5
101290.47
101293.57
101296.82
101300.14
101303.48
101306.72
101309.84
101312.75
101315.54
101318.14
101320.7
101323.14
101325.63
101328.02
101330.52
101332.88
101335.46
101337.77
101340.38
101342.57
101345.24
101347.37
101350.35
101352.46
101356.23
101358.75
101364.23
101366.75
101373.58
101376.72
101387.98
101380.33
101454.25
100888.32
100903.32
100917.38
100930.46
100942.76
100954.73
100965.42
100975.44
100984.76
100993.33
101001.1
101008.92
101015.62
101021.47
101027.54
101032.84
101037.55
101042.09
101046.17
101050.02
101053.49
101056.77
101059.85
101062.7
101065.39
101067.93
101070.38
101072.72
101075.01
101077.26
101079.51
101081.78
101084.1
101086.51
101089.03
101091.7
101094.52
101097.52
101100.71
101104.1
101107.69
101111.44
101115.35
101119.37
101123.44
101127.51
101131.54
101135.43
101139.11
101142.52
101145.65
101148.4
101150.83
101152.89
101154.6
101156
101157.12
101157.99
101158.66
101159.26
101159.64
101160.11
101160.5
101160.97
101161.51
101162.19
101163.08
101164.11
101165.3
101166.65
101168.18
101169.89
101171.75
101173.74
101175.84
101178.02
101180.24
101182.48
101184.7
101186.88
101188.98
101190.85
101192.67
101194.3
101195.65
101196.7
101197.46
101197.88
101198.09
101198.07
101197.85
101197.59
101197.35
101197.18
101197.08
101197.25
101197.55
101198.1
101198.89
101199.92
101201.18
101202.68
101204.39
101206.25
101208.2
101210.18
101212.13
101214.01
101215.72
101217.28
101218.71
101219.97
101221.12
101222.2
101223.25
101224.35
101225.55
101226.92
101228.48
101230.25
101232.2
101234.28
101236.4
101238.48
101240.47
101242.32
101243.99
101245.51
101246.94
101248.36
101249.82
101251.37
101253.03
101254.81
101256.72
101258.75
101260.92
101263.21
101265.63
101268.19
101270.84
101273.57
101276.32
101279.06
101281.8
101284.57
101287.41
101290.37
101293.47
101296.72
101300.04
101303.38
101306.61
101309.73
101312.64
101315.43
101318.03
101320.59
101323.03
101325.51
101327.9
101330.4
101332.76
101335.33
101337.64
101340.24
101342.43
101345.1
101347.22
101350.19
101352.29
101356.04
101358.52
101363.99
101366.46
101373.3
101376.37
101387.68
101378.48
101452.74
100874.25
100889.59
100904.28
100918.06
100930.95
100943.07
100954.76
100965.28
100975.14
100984.3
100992.75
101000.47
101008.09
101014.72
101020.64
101026.55
101031.76
101036.54
101041.02
101045.14
101048.99
101052.52
101055.84
101058.96
101061.88
101064.65
101067.28
101069.83
101072.29
101074.7
101077.08
101079.46
101081.87
101084.34
101086.89
101089.56
101092.35
101095.3
101098.42
101101.71
101105.18
101108.83
101112.62
101116.54
101120.54
101124.58
101128.59
101132.53
101136.31
101139.87
101143.16
101146.15
101148.78
101151.08
101153.02
101154.62
101155.93
101156.96
101157.75
101158.36
101158.92
101159.29
101159.73
101160.1
101160.56
101161.1
101161.79
101162.7
101163.74
101164.96
101166.34
101167.92
101169.67
101171.57
101173.61
101175.75
101177.97
101180.23
101182.5
101184.76
101186.96
101189.09
101190.99
101192.82
101194.44
101195.78
101196.81
101197.54
101197.94
101198.14
101198.1
101197.85
101197.58
101197.32
101197.14
101197.03
101197.18
101197.48
101198.03
101198.82
101199.85
101201.1
101202.6
101204.31
101206.17
101208.12
101210.11
101212.06
101213.94
101215.67
101217.24
101218.67
101219.95
101221.11
101222.19
101223.25
101224.35
101225.56
101226.93
101228.49
101230.26
101232.2
101234.27
101236.38
101238.45
101240.43
101242.26
101243.92
101245.44
101246.87
101248.29
101249.75
101251.3
101252.97
101254.76
101256.67
101258.71
101260.87
101263.17
101265.59
101268.14
101270.79
101273.51
101276.25
101278.98
101281.72
101284.48
101287.31
101290.27
101293.37
101296.63
101299.94
101303.28
101306.51
101309.63
101312.54
101315.32
101317.93
101320.48
101322.92
101325.4
101327.79
101330.29
101332.64
101335.21
101337.51
101340.11
101342.3
101344.96
101347.07
101350.04
101352.12
101355.86
101358.29
101363.74
101366.17
101373.03
101376.01
101387.44
101376.67
101451.12
100875.55
100890.64
100905.03
100918.55
100931.25
100943.2
100954.56
100964.93
100974.65
100983.66
100992
100999.68
101007.08
101013.62
101019.59
101025.38
101030.56
101035.36
101039.83
101043.96
101047.83
101051.4
101054.78
101057.95
101060.94
101063.8
101066.53
101069.19
101071.77
101074.3
101076.82
101079.35
101081.91
101084.52
101087.23
101090.03
101092.97
101096.05
101099.28
101102.67
101106.22
101109.93
101113.76
101117.69
101121.68
101125.67
101129.62
101133.48
101137.15
101140.6
101143.76
101146.62
101149.12
101151.3
101153.13
101154.63
101155.83
101156.77
101157.5
101158.08
101158.59
101158.94
101159.34
101159.7
101160.15
101160.69
101161.39
101162.31
101163.37
101164.61
101166.03
101167.64
101169.43
101171.38
101173.46
101175.64
101177.9
101180.2
101182.51
101184.8
101187.03
101189.18
101191.11
101192.95
101194.56
101195.89
101196.9
101197.62
101198.01
101198.19
101198.14
101197.87
101197.58
101197.31
101197.1
101196.98
101197.13
101197.42
101197.96
101198.75
101199.77
101201.03
101202.52
101204.23
101206.09
101208.04
101210.03
101211.98
101213.87
101215.6
101217.18
101218.63
101219.91
101221.08
101222.18
101223.25
101224.36
101225.57
101226.95
101228.5
101230.27
101232.2
101234.26
101236.36
101238.42
101240.39
101242.21
101243.86
101245.37
101246.8
101248.22
101249.68
101251.24
101252.91
101254.71
101256.62
101258.66
101260.83
101263.12
101265.54
101268.09
101270.73
101273.44
101276.17
101278.9
101281.63
101284.39
101287.22
101290.18
101293.28
101296.53
101299.84
101303.18
101306.41
101309.53
101312.44
101315.22
101317.82
101320.38
101322.82
101325.29
101327.68
101330.17
101332.52
101335.09
101337.38
101339.98
101342.16
101344.82
101346.93
101349.89
101351.95
101355.67
101358.07
101363.49
101365.88
101372.75
101375.66
101387.19
101374.88
101449.41
100876.67
100891.5
100905.6
100918.87
100931.36
100943.11
100954.2
100964.41
100973.97
100982.85
100991.07
100998.68
101005.9
101012.39
101018.36
101024.06
101029.21
101034.02
101038.48
101042.63
101046.52
101050.15
101053.57
101056.81
101059.89
101062.84
101065.68
101068.45
101071.15
101073.83
101076.49
101079.16
101081.87
101084.64
101087.5
101090.45
101093.53
101096.74
101100.09
101103.58
101107.22
101110.98
101114.85
101118.79
101122.76
101126.72
101130.61
101134.38
101137.96
101141.28
101144.33
101147.06
101149.44
101151.5
101153.21
101154.59
101155.72
101156.59
101157.27
101157.8
101158.25
101158.57
101158.94
101159.29
101159.73
101160.28
101160.99
101161.91
101162.99
101164.25
101165.71
101167.36
101169.18
101171.17
101173.29
101175.51
101177.81
101180.15