/*--------------------------------*- C++ -*----------------------------------*\
| =========                 |                                                 |
| \\      /  F ield         | OpenFOAM: The Open Source CFD Toolbox           |
|  \\    /   O peration     | Version:  2406                                  |
|   \\  /    A nd           | Website:  www.openfoam.com                      |
|    \\/     M anipulation  |                                                 |
\*---------------------------------------------------------------------------*/
FoamFile
{
    version     2.0;
    format      ascii;
    arch        "LSB;label=32;scalar=64";
    class       volScalarField;
    location    "0.08";
    object      T;
}
// * * * * * * * * * * * * * * * * * * * * * * * * * * * * * * * * * * * * * //

dimensions      [0 0 0 1 0 0 0];

internalField   nonuniform List<scalar> 
2065
(
292.4463
292.44822
292.45153
292.46145
292.47641
292.49428
292.51301
292.53068
292.54525
292.55507
292.55876
292.55524
292.54387
292.52538
292.5017
292.4794
292.48742
292.57163
292.65159
292.69278
292.72279
292.74925
292.77539
292.80127
292.82806
292.85265
292.88008
292.90304
292.9252
292.96833
293.10087
292.52656
292.52067
292.51841
292.52147
292.52831
292.53778
292.54862
292.55922
292.56777
292.57259
292.5723
292.56565
292.55193
292.53152
292.50718
292.48538
292.49753
292.58634
292.66063
292.69842
292.72715
292.75271
292.77815
292.80345
292.82984
292.85404
292.88128
292.90397
292.92605
292.97008
293.09981
292.61272
292.6012
292.59255
292.58814
292.58681
292.58788
292.59056
292.59354
292.59533
292.59455
292.58955
292.5791
292.56244
292.53961
292.51412
292.49263
292.51073
292.60257
292.66977
292.70436
292.73184
292.75647
292.78117
292.80585
292.83181
292.85561
292.88264
292.90506
292.92702
292.97149
293.09899
292.70041
292.68409
292.6696
292.65829
292.64943
292.64261
292.63736
292.63276
292.62758
292.62058
292.61029
292.59548
292.57536
292.54973
292.52276
292.50197
292.52825
292.62071
292.67987
292.71122
292.73734
292.7609
292.78473
292.80869
292.83411
292.85746
292.88423
292.90631
292.92815
292.97226
293.0989
292.78728
292.76709
292.74776
292.7305
292.71493
292.70088
292.68812
292.67608
292.66385
292.65034
292.63435
292.61472
292.59066
292.56193
292.53331
292.5142
292.55053
292.64057
292.69089
292.71898
292.74358
292.76593
292.78876
292.81192
292.83672
292.85958
292.88604
292.90775
292.92945
292.97251
293.0986
292.87203
292.84911
292.82609
292.80396
292.78263
292.76213
292.74243
292.72326
292.70403
292.6839
292.66191
292.63706
292.60866
292.57654
292.54627
292.5305
292.57809
292.66186
292.70298
292.72775
292.75066
292.77167
292.79336
292.81562
292.83969
292.86202
292.88808
292.9094
292.93096
292.97251
293.09674
292.95331
292.92867
292.90311
292.8773
292.85133
292.82536
292.79955
292.77383
292.74791
292.72124
292.69312
292.66278
292.62969
292.59399
292.5624
292.55275
292.61165
292.68407
292.7162
292.73762
292.75866
292.77816
292.79858
292.81985
292.84302
292.86482
292.89038
292.9113
292.93271
292.9722
293.09589
293.0294
293.00396
292.97687
292.9486
292.91927
292.88907
292.8582
292.8268
292.79481
292.76196
292.72784
292.69194
292.65401
292.61478
292.58294
292.58354
292.65086
292.70688
292.73069
292.74872
292.76768
292.78552
292.8045
292.82468
292.8468
292.86804
292.89296
292.91347
292.93473
292.97153
293.09506
293.09865
293.07331
293.0457
293.01612
292.98465
292.95146
292.91677
292.8808
292.84366
292.80532
292.76564
292.72444
292.68181
292.63968
292.61017
292.62672
292.69359
292.7303
292.74661
292.76119
292.77782
292.79381
292.81119
292.83018
292.85106
292.87174
292.89586
292.91594
292.93705
292.97081
293.09437
293.15988
293.13513
293.10782
293.07793
293.04542
293.01047
292.97327
292.93404
292.89298
292.85021
292.80582
292.75996
292.71327
292.67019
292.64876
292.68394
292.73581
292.75436
292.76417
292.77517
292.78922
292.80315
292.81876
292.83643
292.85591
292.87596
292.89914
292.91875
292.93965
292.97051
293.09393
293.212
293.18779
293.16088
293.13133
293.09895
293.06362
293.02542
292.98448
292.941
292.89521
292.84742
292.79812
292.7491
292.71001
292.70709
292.74967
292.77458
292.77941
292.78347
292.79073
292.80201
292.81364
292.82728
292.84349
292.86142
292.88077
292.9029
292.92197
292.94253
292.97078
293.09102
293.25215
293.22952
293.20427
293.176
293.1445
293.1097
293.0716
293.03029
292.98591
292.93877
292.88945
292.8394
292.79372
292.76936
292.78807
292.81009
292.81034
292.80552
292.8042
292.80793
292.81627
292.82536
292.83685
292.85143
292.86772
292.88621
292.9072
292.92566
292.94571
292.97172
293.09258
293.28075
293.26023
293.23687
293.21022
293.18024
293.14689
293.1101
293.06989
293.02652
292.98066
292.93391
292.89013
292.86009
292.85895
292.86704
292.85795
292.84382
292.83303
292.82655
292.82627
292.83192
292.83838
292.84757
292.86025
292.87492
292.89232
292.91211
292.92987
292.94924
292.97333
293.09756
293.29502
293.27575
293.25439
293.23122
293.20522
293.17562
293.14235
293.10592
293.06732
293.02839
292.99279
292.96638
292.95351
292.9446
292.92247
292.89844
292.87805
292.86162
292.85021
292.84607
292.84838
292.85286
292.85952
292.86997
292.8831
292.89919
292.91766
292.93463
292.95322
292.97569
293.09281
293.30718
293.29023
293.27059
293.24896
293.22617
293.2023
293.17692
293.14987
293.12186
293.09518
293.07126
293.0492
293.02489
292.99284
292.96193
292.93478
292.91074
292.89088
292.87554
292.86709
292.86613
292.86832
292.87257
292.88073
292.89217
292.9069
292.92389
292.9399
292.95764
292.97866
293.10428
293.32198
293.31333
293.30367
293.29155
293.2755
293.25548
293.23173
293.20473
293.17764
293.15148
293.12378
293.09255
293.05794
293.0261
292.99582
292.96773
292.94179
292.91936
292.90177
292.89007
292.88501
292.8845
292.88657
292.89257
292.90209
292.91544
292.93085
292.94564
292.96243
292.98252
293.08902
293.29154
293.28268
293.27332
293.26361
293.25362
293.24395
293.23528
293.22678
293.21172
293.18487
293.15059
293.1175
293.08629
293.05421
293.02334
292.99523
292.96894
292.9455
292.92728
292.91397
292.90511
292.9013
292.90135
292.90534
292.91289
292.92462
292.93853
292.95179
292.96741
292.98736
293.0948
293.28389
293.27785
293.27035
293.26109
293.24997
293.23638
293.21949
293.20004
293.18198
293.16801
293.15546
293.13289
293.10473
293.0755
293.04631
293.01898
292.9947
292.97028
292.95056
292.93649
292.92584
292.91913
292.91623
292.91886
292.9246
292.93431
292.94671
292.95826
292.97244
292.99264
293.10553
293.24067
293.23537
293.22954
293.22307
293.21589
293.20811
293.19985
293.19064
293.17941
293.16442
293.14704
293.13378
293.11769
293.09084
293.06299
293.03824
293.01581
292.99427
292.97293
292.9567
292.94501
292.93734
292.93198
292.93261
292.93678
292.94457
292.95508
292.96479
292.97719
292.99694
293.10718
293.22229
293.21871
293.21448
293.20941
293.20335
293.19607
293.18729
293.17686
293.16519
293.15311
293.14017
293.1228
293.10652
293.09708
293.07645
293.05145
293.03233
293.01384
292.99484
292.97582
292.96198
292.95509
292.94853
292.94622
292.94893
292.95516
292.96355
292.97103
292.98122
292.99935
293.10905
293.18166
293.17852
293.17501
293.17109
293.16664
293.16164
293.15614
293.15026
293.14364
293.13558
293.12597
293.11657
293.10514
293.08933
293.08184
293.06632
293.04352
293.02676
293.01229
292.9954
292.97879
292.97094
292.96481
292.96003
292.9608
292.96525
292.97182
292.97658
292.98433
292.9982
293.10971
293.16237
293.16046
293.15817
293.15541
293.15213
293.14823
293.1436
293.13805
293.13148
293.12392
293.11536
293.10494
293.09418
293.08514
293.07115
293.06271
293.04997
293.0332
293.02213
293.00866
292.99527
292.98515
292.97933
292.97335
292.97193
292.97463
292.97886
292.98116
292.98618
292.99502
293.09947
293.1247
293.12306
293.12124
293.1192
293.11688
293.11425
293.11125
293.10787
293.10419
293.1002
293.0958
293.09106
293.0848
293.07587
293.06782
293.05505
293.04421
293.03499
293.02402
293.01612
293.00681
292.99884
292.98998
292.98436
292.98194
292.98267
292.98419
292.98414
292.98657
292.99163
293.07132
293.10755
293.10666
293.1056
293.10432
293.10279
293.10096
293.09875
293.09608
293.09281
293.08882
293.08396
293.07793
293.07145
293.06515
293.0574
293.05241
293.04667
293.03342
293.02018
293.01307
293.01033
293.00566
292.99665
292.99163
292.98967
292.98875
292.98831
292.98588
292.986
292.98753
293.06802
293.0745
293.07382
293.07304
293.07214
293.07109
293.06987
293.06844
293.06677
293.06483
293.06266
293.06041
293.05834
293.05587
293.05238
293.04814
293.0409
293.03541
293.03375
293.02294
293.01083
293.00694
293.00373
292.99914
292.9957
292.99499
292.99358
292.99209
292.98807
292.98617
292.98316
293.03092
293.05699
293.05658
293.05607
293.05545
293.05471
293.05383
293.05276
293.05147
293.04988
293.04791
293.04545
293.04236
293.03855
293.03403
293.02917
293.02576
293.02136
293.01638
293.01582
293.01278
293.00635
293.00065
292.99902
292.9985
292.99847
292.99812
292.99635
292.99197
292.98921
292.98277
293.02288
293.03086
293.03057
293.03022
293.02981
293.0293
293.02869
293.02793
293.02701
293.02589
293.02454
293.02295
293.02124
293.01969
293.01833
293.01657
293.01374
293.0109
293.00744
293.00376
293.00263
292.99974
292.99819
292.99882
292.99919
292.99914
293.0004
292.99985
292.99547
292.99288
292.97971
292.99997
293.0245
293.0243
293.02403
293.02368
293.02322
293.02261
293.02183
293.02094
293.01999
293.01891
293.0176
293.01598
293.01409
293.01206
293.01005
293.00792
293.0059
293.00373
292.99943
292.99301
292.99108
292.99431
292.99642
292.99551
292.9944
292.99579
292.99719
292.9942
292.99463
292.97159
293.01371
293.02454
293.02419
293.02377
293.02328
293.02268
293.02196
293.02111
293.02016
293.01913
293.01798
293.01669
293.01523
293.01357
293.01166
293.00942
293.0068
293.00381
293.00008
292.99731
292.99736
292.99702
292.9953
292.98976
292.98474
292.98309
292.98095
292.9797
292.97666
292.97992
292.95426
293.00054
293.02405
293.02353
293.02294
293.02234
293.02175
293.02118
293.02066
293.02016
293.01964
293.01912
293.01858
293.01797
293.01713
293.01601
293.01446
293.01237
293.00995
293.00812
293.00523
293.00153
292.99674
292.98823
292.97555
292.96942
292.96882
292.96426
292.96177
292.95849
292.96645
292.94989
292.9934
293.0187
293.01859
293.01846
293.01829
293.01809
293.01783
293.01751
293.01713
293.01668
293.01615
293.01554
293.01484
293.01402
293.01299
293.01172
293.01007
293.00766
293.00507
293.00431
293.0039
292.998
292.97975
292.9732
292.98127
292.97801
292.97647
292.98164
292.98572
292.99541
293.00387
293.01902
293.79548
293.647
293.49591
293.35613
293.23357
293.1263
293.02938
292.94219
292.86204
292.79016
292.72639
292.67007
292.61974
292.57361
292.52978
292.48495
292.44071
292.40281
292.4133
292.49645
292.58656
292.64623
292.69106
292.7316
292.77107
292.80498
292.83958
292.86814
292.89474
292.94881
293.08074
293.58637
293.44955
293.33571
293.23463
293.13945
293.04871
292.96354
292.88527
292.81332
292.74919
292.69259
292.64247
292.59723
292.55519
292.51444
292.47234
292.43042
292.39931
292.41895
292.51071
292.59686
292.6525
292.69577
292.73552
292.77425
292.80757
292.84167
292.86996
292.89615
292.95011
293.08247
293.50699
293.38862
293.28055
293.17827
293.08144
292.99174
292.91036
292.83716
292.77188
292.71444
292.66393
292.61905
292.5781
292.53949
292.50126
292.46165
292.42175
292.39716
292.42661
292.52443
292.6055
292.6578
292.69997
292.73903
292.77711
292.80994
292.84359
292.87167
292.89744
292.95105
293.08378
293.41996
293.30536
293.20067
293.10323
293.01302
292.93081
292.85702
292.79139
292.73352
292.68282
292.63819
292.59821
292.56119
292.52566
292.48959
292.45236
292.41482
292.39636
292.43582
292.53777
292.61377
292.66319
292.70431
292.74265
292.78002
292.81235
292.84553
292.87336
292.89874
292.95174
293.08501
293.32246
293.21449
293.11731
293.02756
292.94525
292.87117
292.8055
292.74782
292.69743
292.65341
292.61449
292.57917
292.54585
292.51316
292.47905
292.44408
292.4094
292.39656
292.44646
292.55071
292.62144
292.66836
292.70855
292.74619
292.78286
292.81473
292.84745
292.87504
292.90004
292.95229
293.08604
293.21181
293.11612
293.02926
292.94911
292.87646
292.81197
292.75547
292.70632
292.6636
292.6262
292.59278
292.56188
292.53202
292.50195
292.46972
292.43689
292.4056
292.39797
292.45873
292.56315
292.62864
292.67344
292.71277
292.74969
292.78565
292.81708
292.84935
292.87669
292.90135
292.95286
293.08672
293.09494
293.01246
292.93727
292.86873
292.80764
292.75405
292.7075
292.66722
292.6322
292.60126
292.57311
292.54636
292.51971
292.49206
292.46169
292.43095
292.40324
292.40066
292.47232
292.57489
292.63537
292.67838
292.7169
292.75311
292.78839
292.8194
292.85123
292.87831
292.90266
292.95345
293.08712
292.96775
292.90162
292.84162
292.78758
292.7398
292.69809
292.66198
292.63072
292.60331
292.57861
292.55545
292.53259
292.50891
292.48348
292.455
292.42629
292.4016
292.40459
292.48685
292.58581
292.64175
292.68323
292.72097
292.75648
292.79107
292.82169
292.85309
292.87991
292.90397
292.95393
293.08733
292.83409
292.78781
292.74586
292.70794
292.67423
292.64482
292.61934
292.59702
292.577
292.55827
292.5398
292.52054
292.49961
292.47615
292.44955
292.42263
292.40042
292.41017
292.5019
292.59588
292.64781
292.68797
292.72496
292.75977
292.79369
292.82394
292.85492
292.88147
292.90529
292.95442
293.08759
292.70211
292.67649
292.65315
292.63146
292.61188
292.59486
292.57992
292.5663
292.55334
292.54024
292.52615
292.51021
292.49174
292.46999
292.4452
292.41987
292.4001
292.4177
292.51686
292.60511
292.65364
292.69262
292.72886
292.76298
292.79627
292.82614
292.85673
292.88301
292.90663
292.95503
293.08794
292.57539
292.57063
292.56501
292.55923
292.55376
292.54891
292.54403
292.53868
292.53239
292.52455
292.5145
292.50156
292.48526
292.4652
292.44203
292.41795
292.40087
292.42707
292.53125
292.6136
292.65926
292.69718
292.73267
292.76612
292.79879
292.8283
292.85851
292.88453
292.90797
292.95572
293.08854
292.45666
292.47122
292.48315
292.49309
292.50126
292.50752
292.51191
292.51428
292.51419
292.51118
292.5048
292.49455
292.4802
292.4618
292.44014
292.41711
292.40274
292.43787
292.5448
292.62143
292.66472
292.70163
292.73638
292.76918
292.80126
292.8304
292.86026
292.88601
292.90933
292.95625
293.08939
292.35026
292.38212
292.41001
292.43413
292.45448
292.47108
292.48398
292.4932
292.4987
292.50006
292.497
292.48927
292.47704
292.46
292.43908
292.4171
292.40558
292.44931
292.55741
292.62872
292.67002
292.70597
292.74
292.77216
292.80369
292.83245
292.86198
292.88747
292.91068
292.95697
293.09052
292.26099
292.30647
292.34747
292.38349
292.41428
292.43984
292.46021
292.47554
292.48598
292.49132
292.49138
292.4862
292.47551
292.45925
292.43884
292.41804
292.40933
292.46122
292.5691
292.63555
292.67519
292.71021
292.74352
292.77505
292.80607
292.83444
292.86367
292.88891
292.91202
292.9579
293.0922
292.19284
292.24815
292.29828
292.34292
292.38174
292.41453
292.4412
292.46202
292.47688
292.48573
292.48854
292.48498
292.47506
292.45965
292.43973
292.41999
292.41393
292.47336
292.57986
292.64199
292.68021
292.71434
292.74693
292.77785
292.80838
292.83638
292.86534
292.89032
292.91336
292.95891
293.0931
292.14207
292.20674
292.26358
292.31398
292.35836
292.39654
292.42817
292.45348
292.47201
292.48318
292.48725
292.48479
292.47589
292.46123
292.44172
292.42269
292.4193
292.48543
292.58967
292.6481
292.68509
292.71834
292.75023
292.78058
292.81064
292.83826
292.86698
292.89172
292.91468
292.95997
293.09323
292.09419
292.16925
292.23515
292.29263
292.34245
292.38512
292.42078
292.44872
292.46884
292.48179
292.4875
292.48613
292.47805
292.46398
292.44479
292.42616
292.42536
292.49714
292.59875
292.65397
292.68984
292.72223
292.75343
292.78322
292.81285
292.84008
292.86858
292.89309
292.91598
292.96091
293.09338
292.06389
292.13882
292.20895
292.27218
292.32752
292.37475
292.41394
292.4449
292.46763
292.48246
292.4896
292.48915
292.48159
292.4679
292.44892
292.43064
292.43208
292.50837
292.60716
292.65961
292.69447
292.72603
292.75654
292.78579
292.81499
292.84186
292.87016
292.89444
292.91725
292.9617
293.0954
292.06838
292.13648
292.20254
292.26459
292.32083
292.36998
292.41136
292.4445
292.46909
292.48546
292.49365
292.49382
292.48652
292.47298
292.45403
292.43596
292.4394
292.51904
292.61494
292.66504
292.69898
292.72971
292.75955
292.78827
292.81707
292.84357
292.8717
292.89575
292.91848
292.96252
293.09775
292.08954
292.1518
292.21261
292.27066
292.32454
292.37286
292.41444
292.44815
292.47359
292.49085
292.49967
292.50016
292.49286
292.47922
292.46009
292.44196
292.44717
292.52912
292.62218
292.67025
292.70336
292.73329
292.76247
292.79067
292.81907
292.84523
292.87319
292.89704
292.91967
292.96338
293.09957
292.12562
292.18052
292.23503
292.28775
292.33748
292.38307
292.42303
292.45592
292.48127
292.49864
292.50764
292.50816
292.50061
292.48661
292.46706
292.4487
292.45529
292.53863
292.62893
292.67523
292.70757
292.73673
292.76525
292.79295
292.82099
292.84681
292.87462
292.89827
292.9208
292.96453
293.09967
292.1764
292.22151
292.26789
292.31389
292.35815
292.39954
292.43639
292.46746
292.49191
292.50868
292.51741
292.51768
292.50968
292.49508
292.47489
292.45625
292.46366
292.54758
292.63513
292.67989
292.71156
292.73998
292.76787
292.7951
292.82279
292.8483
292.87599
292.89947
292.92189
292.96538
293.10073
292.24171
292.27376
292.30897
292.34639
292.38395
292.42003
292.45318
292.48188
292.50473
292.52051
292.52862
292.52843
292.51985
292.50449
292.4835
292.46434
292.47209
292.55578
292.64061
292.68413
292.71524
292.743
292.77031
292.7971
292.82449
292.84971
292.87731
292.90064
292.92297
292.96625
293.10148
292.32755
292.345
292.36491
292.38961
292.41773
292.44693
292.47501
292.5001
292.5204
292.5347
292.54174
292.54078
292.53143
292.51501
292.49293
292.47235
292.47968
292.56253
292.64526
292.688
292.7187
292.74589
292.77267
292.79905
292.82618
292.85113
292.87867
292.90184
292.92411
292.96718
293.10161
293.79594
293.67331
293.52528
293.38328
293.25774
293.14839
293.05083
292.96108
292.88018
292.8072
292.7418
292.68357
292.63135
292.58351
292.53832
292.49256
292.44739
292.40708
292.41215
292.48936
292.58147
292.64285
292.68836
292.72933
292.7692
292.80343
292.83834
292.86701
292.89399
292.94797
293.07959
293.76909
293.65011
293.50695
293.37179
293.25218
293.14705
293.05302
292.9666
292.88778
292.81594
292.7508
292.69212
292.63906
292.59021
292.54397
292.49742
292.45132
292.41025
292.41136
292.48498
292.57854
292.64085
292.68664
292.72783
292.76789
292.80231
292.8374
292.86608
292.89341
292.94728
293.0781
293.74562
293.63258
293.49512
293.36576
293.25122
293.14978
293.05846
292.97434
292.89689
292.82576
292.76066
292.70145
292.6475
292.59757
292.5502
292.50276
292.45557
292.41333
292.41043
292.47983
292.575
292.63853
292.6847
292.72614
292.76642
292.80106
292.83634
292.86505
292.89275
292.94663
293.07667
293.72407
293.62036
293.48798
293.36282
293.25144
293.15262
293.06348
292.98119
292.90512
292.83491
292.77016
292.7107
292.65606
292.60521
292.55679
292.50855
292.46038
292.41669
292.41001
292.47451
292.571
292.63585
292.68247
292.72422
292.76475
292.79965
292.83515
292.86389
292.89202
292.94601
293.07517
293.70228
293.61023
293.48239
293.36023
293.25122
293.1546
293.0675
292.98708
292.9126
292.84355
292.77942
292.71998
292.66486
292.61322
292.56384
292.51488
292.46572
292.42051
292.41005
292.46926
292.56674
292.63296
292.68004
292.72211
292.76292
292.79808
292.83382
292.86263
293.67694
293.59802
293.47612
293.35679
293.25021
293.15579
293.07073
292.99231
292.91957
292.85187
292.78857
293.79043
293.76641
293.73694
293.70795
293.68093
293.73576
293.80078
292.29771
292.38822
293.6551
293.77781
293.87237
293.89663
293.68983
293.83636
293.92978
293.88489
293.75346
293.76479
293.90769
293.97509
293.87645
293.75133
293.63525
293.96284
294.01376
293.87991
293.7667
293.65944
293.53997
293.96398
293.8863
293.80033
293.68684
293.559
293.43754
293.78038
293.80266
293.67308
293.53759
293.41672
293.31205
293.57921
293.51938
293.44196
293.35015
293.25947
293.17818
293.3111
293.28755
293.2328
293.16052
293.09239
293.03265
293.02638
292.98591
292.97796
292.95024
292.91426
292.87811
292.72544
292.73029
292.75034
292.74741
292.73707
292.72423
292.42759
292.45723
292.5173
292.54965
292.56645
292.57546
292.1195
292.229
292.31543
292.37157
292.40986
292.43745
291.77297
292.02369
292.14343
292.216
292.27115
292.31429
291.55168
291.84287
292.00017
292.09163
292.15869
292.21259
291.36355
291.67737
291.87597
291.98936
292.06901
292.13391
291.33974
291.55259
291.73283
291.87538
291.98332
292.06898
291.29174
291.52118
291.66492
291.79045
291.90916
292.00889
291.21596
291.4917
291.67397
291.79655
291.89447
291.98319
291.18728
291.45842
291.65025
291.78863
291.89823
291.99112
291.19123
291.47286
291.66186
291.80363
291.91763
292.01361
291.23433
291.50589
291.69691
291.84073
291.95634
292.05328
291.31376
291.57227
291.75877
291.90029
292.01442
292.11007
291.66356
291.84323
291.97984
292.09036
292.18336
291.94877
292.07947
292.186
292.27669
292.47121
292.55679
292.64742
292.73815
292.82674
292.91197
292.99253
293.06684
293.13367
293.19221
293.24118
293.27814
293.32929
293.30272
293.33668
293.31458
293.34208
293.32412
293.33897
293.33035
293.30722
293.29989
293.29224
293.28861
293.24808
293.24478
293.22655
293.22472
293.18574
293.18396
293.1642
293.1635
293.12668
293.12582
293.10812
293.10796
293.07499
293.07482
293.05713
293.05712
293.03116
293.03102
293.02489
293.02469
293.02524
293.0249
293.02511
293.02458
293.01888
293.01877
)
;

boundaryField
{
    Side1
    {
        type            empty;
    }
    Inlet
    {
        type            totalTemperature;
        gamma           1.4;
        T0              uniform 294.31799;
        value           nonuniform List<scalar> 
92
(
292.98642
294.31799
292.98687
292.98717
294.31799
292.98785
292.98824
292.9887
292.98928
294.31799
292.99059
294.31799
292.9922
292.99327
292.99462
294.31799
292.99806
294.31799
293.00171
293.00341
294.31799
294.31799
293.00792
294.31799
293.01105
294.31799
294.31799
293.01784
293.01998
294.31799
293.00245
293.00245
293.00245
293.00245
293.00245
293.00245
293.00245
293.00245
293.00245
293.00245
293.00245
293.00245
293.00245
293.00245
293.00245
293.00245
293.00245
293.00245
293.00245
293.00245
293.00245
293.00245
293.00245
293.00245
293.00245
293.00245
293.00245
293.00245
293.00245
293.00245
293.01878
293.00245
292.98103
292.98131
292.98164
292.98197
292.9823
292.98261
292.98289
292.98316
292.98339
292.98358
292.98376
292.98393
292.98409
292.98426
292.99042
292.99057
292.98471
292.9849
292.98507
294.31799
292.98542
292.98563
292.98588
292.98616
292.98071
292.98044
292.98017
292.9799
293.00245
293.00245
)
;
    }
    Side2
    {
        type            empty;
    }
    Outlet
    {
        type            zeroGradient;
    }
    Botwall
    {
        type            zeroGradient;
    }
    Cyli
    {
        type            zeroGradient;
    }
    procBoundary2to0
    {
        type            processor;
        value           nonuniform List<scalar> 
55
(
293.67958
293.66307
293.64675
293.63217
293.61901
293.641
293.68508
293.60287
293.64927
293.64927
292.06597
292.19202
292.19202
292.4004
292.48327
293.58954
293.58954
293.57195
293.57195
291.4111
291.4111
291.7774
291.7774
292.56335
292.65317
292.74144
292.82705
292.90945
292.98771
293.0606
293.12712
293.18655
293.23792
293.27992
293.31079
293.31079
293.35471
293.35759
293.35839
293.34704
293.31433
293.2957
293.25146
293.22846
293.18762
293.16498
293.12767
293.10832
293.07526
293.05717
293.03133
293.0251
293.02557
293.0256
293.01902
)
;
    }
    procBoundary2to3
    {
        type            processor;
        value           nonuniform List<scalar> 
35
(
292.8912
292.9453
293.07362
292.72937
292.67397
292.62168
292.57143
292.52177
292.4716
292.4249
292.4105
292.46413
292.56228
292.62993
292.67749
292.71986
292.76096
292.7964
292.83238
292.8912
292.86126
293.65018
293.65486
293.58363
293.4692
293.35311
293.24886
293.15655
293.07351
292.99713
292.92622
292.85998
292.72937
292.79768
293.65486
)
;
    }
}


// ************************************************************************* //
