/*--------------------------------*- C++ -*----------------------------------*\
| =========                 |                                                 |
| \\      /  F ield         | OpenFOAM: The Open Source CFD Toolbox           |
|  \\    /   O peration     | Version:  2406                                  |
|   \\  /    A nd           | Website:  www.openfoam.com                      |
|    \\/     M anipulation  |                                                 |
\*---------------------------------------------------------------------------*/
FoamFile
{
    version     2.0;
    format      ascii;
    arch        "LSB;label=32;scalar=64";
    class       volScalarField;
    location    "0.00105933";
    object      alphat;
}
// * * * * * * * * * * * * * * * * * * * * * * * * * * * * * * * * * * * * * //

dimensions      [1 -1 -1 0 0 0 0];

internalField   nonuniform List<scalar> 
8950
(
0.0020581169
0.0022536322
0.0024428001
0.0026228914
0.0027954104
0.0029623244
0.003125572
0.0032870199
0.0034479962
0.0036095026
0.0037726732
0.0039394546
0.0041083265
0.0042777538
0.0044461981
0.0046122293
0.0047742902
0.0049303799
0.0050792424
0.0052215205
0.005358642
0.0054877197
0.005610011
0.0057277296
0.0058447481
0.0059645305
0.0060908197
0.0062288562
0.0063857881
0.0065678915
0.0067791536
0.0070254476
0.0073026446
0.0076071063
0.0079501692
0.0083270223
0.008730455
0.0091555135
0.0095965421
0.01004858
0.010506139
0.010963069
0.01141424
0.011854252
0.012278911
0.012686082
0.013070104
0.01343038
0.0137673
0.01408493
0.014378293
0.014643056
0.014880987
0.015093977
0.015283306
0.015449964
0.015595597
0.015721778
0.01582978
0.015921844
0.015999854
0.016065762
0.016121723
0.016170298
0.016214471
0.016258253
0.016306353
0.016364601
0.016440344
0.016542282
0.016681066
0.01686936
0.017121674
0.017454344
0.017883797
0.018426206
0.019130898
0.020092961
0.0021331591
0.0023033841
0.0025035333
0.0026975941
0.002884038
0.0030642341
0.0032400408
0.0034131262
0.0035847002
0.0037556033
0.0039265267
0.0040975931
0.0042674935
0.0044346707
0.0045974168
0.004753957
0.0049025002
0.0050415465
0.0051702228
0.0052878096
0.0053975374
0.0054990472
0.0055916605
0.0056805848
0.0057696203
0.005862214
0.0059616819
0.0060747446
0.006210241
0.0063753705
0.0065750076
0.0068134767
0.0070846829
0.0073912756
0.0077438872
0.0081327982
0.0085522506
0.0089962947
0.009458912
0.0099339822
0.010415263
0.010896084
0.011370156
0.011831277
0.012276662
0.012703162
0.013106643
0.013485359
0.013837481
0.014169239
0.014475877
0.014751331
0.014999811
0.015222787
0.015421577
0.015598533
0.015754631
0.015891108
0.016009648
0.016112507
0.016201864
0.016280072
0.016349664
0.016413492
0.016475747
0.016541364
0.016615971
0.016706442
0.016821367
0.016970633
0.017166114
0.017421588
0.017752312
0.018174228
0.018700445
0.019355746
0.020223183
0.0023395594
0.0025310461
0.0027446769
0.0029508718
0.0031489659
0.0033405283
0.0035272199
0.0037102678
0.003890352
0.0040676769
0.0042419596
0.0044122779
0.0045770993
0.0047346989
0.0048832678
0.0050210423
0.0051465398
0.005258804
0.0053574796
0.0054429936
0.0055158107
0.0055817756
0.0056395345
0.0056920323
0.0057452359
0.0058035657
0.0058748282
0.0059662424
0.0060839038
0.006233251
0.0064212921
0.0066511511
0.0069162605
0.0072277995
0.0075894053
0.0079906609
0.0084257534
0.0088881852
0.0093714345
0.0098676335
0.010369204
0.010869102
0.0113623
0.011844063
0.012309726
0.012754222
0.013172964
0.013564718
0.01393011
0.014275587
0.014593232
0.014878344
0.015136406
0.01536866
0.015576631
0.015762312
0.015927077
0.016072442
0.016200524
0.016313773
0.016414729
0.01650614
0.016591069
0.016673234
0.016757609
0.016849991
0.016956937
0.017086356
0.01724798
0.017452826
0.017713696
0.018044916
0.018461798
0.018978179
0.019605508
0.020395559
0.021427708
0.0026724417
0.0028897103
0.0031165494
0.0033349938
0.003544793
0.003747144
0.0039430902
0.0041331321
0.0043171986
0.0044947051
0.004664591
0.004825418
0.0049755476
0.005113332
0.0052372257
0.0053459635
0.005438816
0.0055156715
0.0055770152
0.0056240417
0.0056588213
0.0056838653
0.0057065482
0.0057261948
0.0057476253
0.0057776342
0.0058230352
0.0058913662
0.0059922185
0.0061325477
0.0063145384
0.0065362724
0.0068020797
0.0071239509
0.0074954145
0.0079104547
0.0083618993
0.0088414396
0.0093410079
0.0098536126
0.010372615
0.010891868
0.011404585
0.011903807
0.012383709
0.012839737
0.013269216
0.013672068
0.014049083
0.014405504
0.014730232
0.015022928
0.015288633
0.015528517
0.015744233
0.015937747
0.016110767
0.016265067
0.016403296
0.016528128
0.016642379
0.016749305
0.016852779
0.016957323
0.017068705
0.01719357
0.017339373
0.017515133
0.017731424
0.018000179
0.018334767
0.018749514
0.019258644
0.019870348
0.020617439
0.021550335
0.022758005
0.0030990331
0.0033467653
0.0035925358
0.0038261638
0.0040473113
0.0042575227
0.0044573392
0.0046467388
0.0048252415
0.0049919113
0.0051454874
0.0052845994
0.0054079301
0.0055143366
0.0056029748
0.0056734942
0.0057262091
0.0057619764
0.0057822043
0.0057891025
0.0057856805
0.0057758609
0.0057637088
0.0057574717
0.0057524893
0.0057613745
0.0057906511
0.0058469776
0.0059378151
0.0060703919
0.0062479771
0.0064728488
0.0067524489
0.0070864945
0.0074711707
0.00789933
0.0083630094
0.0088564028
0.0093724671
0.0099030696
0.010439938
0.010974903
0.011499908
0.012008893
0.012497127
0.012961558
0.013399742
0.013810816
0.014196865
0.014559581
0.014887789
0.015186205
0.015457692
0.015703691
0.015926033
0.01612683
0.016308127
0.016472123
0.016621653
0.01675962
0.016889401
0.017014953
0.017140937
0.017272691
0.017416733
0.017580371
0.017772028
0.018001704
0.018280506
0.01862092
0.019036452
0.019540586
0.020141529
0.020863994
0.021735071
0.022817037
0.0035865683
0.0038672988
0.0041351301
0.0043826887
0.004611855
0.0048235647
0.0050181059
0.0051958113
0.0053565936
0.0054998113
0.0056246843
0.0057304804
0.005816629
0.0058828485
0.0059292939
0.005956732
0.0059665525
0.0059605117
0.0059410146
0.0059113221
0.0058751967
0.0058368525
0.0058008227
0.0057723317
0.0057545877
0.0057552983
0.0057749698
0.0058290263
0.0059197289
0.0060536952
0.0062365873
0.006473446
0.0067683793
0.0071162397
0.0075133055
0.0079551617
0.0084354665
0.008946504
0.0094789067
0.010022956
0.010570467
0.011113533
0.011645192
0.012160489
0.012654474
0.013124323
0.013567128
0.01398186
0.014373942
0.014737445
0.015067413
0.01536935
0.015644928
0.015895864
0.01612419
0.016332387
0.016522663
0.016697368
0.01685962
0.017012951
0.017161321
0.017309546
0.017462786
0.017627218
0.017809996
0.018019066
0.018263712
0.018554531
0.018903033
0.019321793
0.01982355
0.020416515
0.021121286
0.021958168
0.022953739
0.024183903
0.0041019996
0.0044138771
0.004700888
0.0049585003
0.0051865314
0.0053883441
0.0055660922
0.0057210576
0.0058532831
0.0059629543
0.0060504031
0.0061158288
0.0061596126
0.0061825002
0.0061857149
0.0061710999
0.0061409247
0.0060978048
0.0060452766
0.0059873009
0.0059278281
0.005871097
0.0058215878
0.0057839339
0.0057625806
0.0057639815
0.0057913193
0.0058481281
0.0059496082
0.006098087
0.0062984338
0.0065511007
0.0068572747
0.007219357
0.0076340875
0.0080943473
0.008591688
0.0091162697
0.0096593138
0.010211759
0.010765414
0.01131265
0.011847447
0.012364637
0.012859665
0.013328847
0.013770495
0.014186549
0.014579406
0.014939562
0.015270072
0.015573704
0.015852156
0.016107392
0.016341968
0.016558109
0.016757934
0.016944694
0.017122049
0.017294015
0.017465105
0.01764065
0.017826432
0.018029326
0.018257067
0.018518222
0.018822588
0.019181078
0.019605268
0.020107016
0.020694511
0.021385278
0.022198005
0.023146991
0.024268983
0.025651009
0.0046076084
0.0049483833
0.0052500472
0.0055114078
0.0057283983
0.0059104621
0.0060611979
0.0061837284
0.0062799825
0.0063513185
0.0063986238
0.0064228082
0.0064253288
0.0064079797
0.006372838
0.0063226551
0.0062603734
0.0061896339
0.0061147534
0.006039507
0.0059678973
0.0059040141
0.0058522008
0.0058169391
0.0058027796
0.0058146183
0.0058583784
0.0059330782
0.0060516596
0.0062228819
0.0064416632
0.0067137902
0.0070434414
0.0074279237
0.0078609749
0.0083354951
0.0088435952
0.0093761274
0.0099241059
0.010478865
0.011032494
0.011577856
0.01210868
0.01262054
0.013109565
0.013572878
0.014009823
0.014424944
0.014811652
0.015167911
0.015497211
0.015801279
0.016082057
0.016342007
0.01658305
0.016807514
0.01701865
0.017220159
0.017415945
0.017610268
0.017808612
0.0180165
0.018240339
0.018487551
0.018766331
0.019085649
0.019455565
0.019886974
0.02039078
0.020974943
0.021654668
0.022447642
0.023364623
0.024425144
0.025676697
0.027224047
0.0050965525
0.0054555975
0.0057580827
0.0060101822
0.0062111605
0.0063706271
0.0064930049
0.0065810508
0.0066393334
0.0066713603
0.006679747
0.0066667783
0.0066344722
0.006585134
0.0065212953
0.0064462418
0.0063636696
0.0062775186
0.0061920666
0.0061110505
0.0060384207
0.0059779422
0.0059338977
0.005910737
0.0059126187
0.0059438969
0.0060096803
0.0061107431
0.0062498205
0.0064430467
0.0066893379
0.0069912728
0.0073462047
0.0077499666
0.0081974009
0.0086816676
0.0091947972
0.009728139
0.010273224
0.010822086
0.011367464
0.011902942
0.012423142
0.012923953
0.013402031
0.01385547
0.014286749
0.01469406
0.015072221
0.015423979
0.015750988
0.016055161
0.016338738
0.016603245
0.016851392
0.01708643
0.017311642
0.017531019
0.017748577
0.017969908
0.018200194
0.018445539
0.018712832
0.019009852
0.019345054
0.019727594
0.020167507
0.020675003
0.021257584
0.021928694
0.022704928
0.023595575
0.024614618
0.025785323
0.027166776
0.0055732167
0.0059373136
0.0062331261
0.006467589
0.0066454069
0.0067771962
0.0068697288
0.0069286465
0.006957846
0.006960736
0.0069400873
0.0068993225
0.0068418004
0.0067706339
0.0066891225
0.0066008224
0.0065093492
0.0064187236
0.0063330878
0.0062559531
0.0061910324
0.0061421358
0.006113538
0.0061094063
0.0061331784
0.0061881343
0.0062764148
0.0064024875
0.0065694244
0.006794474
0.0070711748
0.0073968104
0.0077698573
0.0081865178
0.0086413356
0.0091275831
0.0096376767
0.01016371
0.010698038
0.01123355
0.011763816
0.012283256
0.012787253
0.013272185
0.013735431
0.014177368
0.014599003
0.014993749
0.015363779
0.015710249
0.016034904
0.016339624
0.016625711
0.016896054
0.017153732
0.017401915
0.017644139
0.017884523
0.018128576
0.018381183
0.018648074
0.01893572
0.019251308
0.019602772
0.019998634
0.020447997
0.020960273
0.021542556
0.022206963
0.02296876
0.023836399
0.024821636
0.025939554
0.027217155
0.028717301
0.00603591
0.0063957775
0.0066778568
0.0068916602
0.0070468918
0.0071545183
0.0072227535
0.0072581553
0.0072657435
0.0072494394
0.0072134238
0.0071604778
0.0070935839
0.0070158829
0.0069306984
0.0068415771
0.0067521751
0.0066663256
0.0065880565
0.0065217648
0.0064709287
0.0064394106
0.0064309029
0.006447981
0.0064937683
0.0065717136
0.0066871142
0.0068440523
0.0070422256
0.0072919259
0.0075886693
0.0079296636
0.0083125461
0.0087332702
0.0091864313
0.009665693
0.010164163
0.010674843
0.011191035
0.011706549
0.012215839
0.012714138
0.013197526
0.013663026
0.014109211
0.014538663
0.014944404
0.015327512
0.015689146
0.016030598
0.016353268
0.016658457
0.016948953
0.017227437
0.017497156
0.017761039
0.018023434
0.018289504
0.018563867
0.018851882
0.019159597
0.019493668
0.019861388
0.02027066
0.020729897
0.021247621
0.021830359
0.022489398
0.023238484
0.024085447
0.025040832
0.026116639
0.027329229
0.028709272
0.030321857
0.0064861675
0.0068361826
0.0071020931
0.0072960968
0.0074316618
0.0075207187
0.0075726333
0.0075946923
0.0075924134
0.0075701943
0.0075312359
0.0074786589
0.007415399
0.0073444444
0.0072688572
0.0071918534
0.007116794
0.0070471352
0.0069863321
0.0069385125
0.0069073675
0.0068966041
0.0069093551
0.0069488394
0.0070188673
0.0071226705
0.0072631356
0.0074429457
0.0076621905
0.0079272717
0.0082346751
0.0085811457
0.008963929
0.0093789575
0.0098211521
0.010284784
0.010763798
0.01125215
0.011744094
0.012234346
0.012718205
0.01319165
0.013651427
0.014095422
0.014525264
0.014936157
0.015326771
0.015698637
0.016052491
0.016389371
0.016710594
0.017018427
0.017315509
0.01760444
0.01788829
0.018171451
0.018458349
0.018753333
0.019061511
0.019388473
0.019740358
0.020123841
0.020546159
0.02101504
0.02153834
0.022121821
0.022776232
0.023513748
0.024341681
0.02526971
0.026308316
0.02746986
0.028772442
0.030250984
0.031976737
0.0069259677
0.0072642066
0.0075154867
0.0076940423
0.00781597
0.007894477
0.0079397506
0.0079593389
0.0079587963
0.0079422683
0.007912931
0.0078735728
0.0078267068
0.0077748453
0.007720536
0.0076664551
0.0076154509
0.0075705123
0.0075348963
0.0075117064
0.0075046292
0.0075171707
0.0075526021
0.0076142575
0.0077056793
0.0078296731
0.0079881048
0.0081828887
0.0084143659
0.0086852053
0.0089932733
0.009335289
0.0097084258
0.010108839
0.010531956
0.010972771
0.011426101
0.011886828
0.012350102
0.012811481
0.013267027
0.013713395
0.014148117
0.014571621
0.01498102
0.015373407
0.015750039
0.016111447
0.01645835
0.016791827
0.017113765
0.017426196
0.01773161
0.018033397
0.018335325
0.01864124
0.018955204
0.019281992
0.019626793
0.019995226
0.020393384
0.020827825
0.021305631
0.021833981
0.022417963
0.023067941
0.023794432
0.02460438
0.02550671
0.026510932
0.027627533
0.028869639
0.030257493
0.031832179
0.033679289
0.0073555726
0.0076829065
0.0079232788
0.0080922748
0.0082081333
0.0082850502
0.0083335941
0.0083612866
0.0083734258
0.0083737899
0.0083651595
0.0083497466
0.0083295029
0.0083063901
0.0082822572
0.0082591195
0.0082392051
0.0082249689
0.0082191396
0.0082246004
0.0082445125
0.0082820144
0.0083401486
0.0084220213
0.0085306583
0.0086687636
0.0088388433
0.0090412256
0.0092760538
0.0095441321
0.0098442084
0.010173459
0.010529224
0.010908065
0.011306023
0.011718865
0.012142261
0.012571955
0.013003917
0.013434467
0.013860353
0.014278915
0.014689558
0.015091001
0.015479134
0.015854916
0.016218611
0.016570784
0.016912089
0.017243903
0.01756815
0.017887309
0.018204288
0.018522324
0.018844702
0.019175364
0.019518623
0.019879238
0.02026234
0.020673455
0.021118522
0.021603924
0.022136286
0.022719973
0.023365096
0.024080583
0.024873011
0.025750663
0.026722274
0.027797235
0.028986369
0.03030378
0.031772392
0.033443422
0.035433049
0.0077723195
0.0080911059
0.0083250298
0.0084908187
0.0086081869
0.0086919017
0.0087525532
0.0087973779
0.0088312102
0.0088572664
0.0088777318
0.0088942002
0.0089079887
0.0089204587
0.0089327438
0.0089461611
0.0089623178
0.0089831038
0.0090106984
0.0090475083
0.0090961389
0.0091593097
0.0092397824
0.0093403011
0.0094633363
0.0096111527
0.0097864452
0.0099903044
0.010221698
0.010480873
0.010766824
0.011077546
0.01141074
0.011763503
0.012132553
0.012514443
0.012905663
0.01330275
0.013702425
0.014101695
0.014497985
0.014889573
0.015276988
0.015654989
0.016024279
0.016384876
0.016737036
0.017081264
0.017418739
0.017751037
0.018080282
0.018408887
0.018739507
0.019075272
0.01941968
0.019776647
0.020150445
0.020545725
0.020967481
0.021421049
0.021912198
0.022446929
0.023029042
0.023668313
0.024372279
0.025147137
0.026000571
0.026940663
0.027975997
0.029116123
0.030372313
0.031759724
0.033304608
0.035069057
0.008170286
0.0084846767
0.0087148304
0.0088834281
0.0090088157
0.0091060675
0.0091855831
0.0092541369
0.00931597
0.0093736609
0.0094287513
0.0094822001
0.009534773
0.0095871964
0.009639926
0.0096936026
0.0097492201
0.0098080603
0.0098716812
0.0099418894
0.010020716
0.010110383
0.010213224
0.010331598
0.010467737
0.010623715
0.010801394
0.011002629
0.011225979
0.011472875
0.011741585
0.012030892
0.01233904
0.012663767
0.013002488
0.01335255
0.013711228
0.014075803
0.014443681
0.014812502
0.01518036
0.015547367
0.015910275
0.016267577
0.016619822
0.016966954
0.017309309
0.017647723
0.017983568
0.018318467
0.018654312
0.018993573
0.019338965
0.01969359
0.020060885
0.020444658
0.020849057
0.021278569
0.021737982
0.022232434
0.02276742
0.023346206
0.023978112
0.024669537
0.02542631
0.026255501
0.027164618
0.028161588
0.02925509
0.030454888
0.031772679
0.033224926
0.034840434
0.036680507
0.0085422074
0.0088531544
0.0090832631
0.0092592366
0.0093971246
0.0095123389
0.0096149329
0.0097111116
0.0098044852
0.0098970043
0.0099896141
0.010082701
0.010176532
0.010271258
0.010366701
0.010462844
0.010560097
0.010659105
0.010760769
0.010866257
0.010976984
0.011094612
0.011220981
0.011358024
0.011507659
0.011671728
0.011852069
0.012050567
0.012265003
0.012498369
0.012749688
0.013017465
0.013300749
0.01359793
0.013907109
0.014226424
0.014553912
0.014887554
0.015225399
0.015565687
0.015907864
0.016250661
0.016591308
0.016930261
0.017267455
0.017603056
0.0179376
0.018272063
0.018607797
0.018946453
0.019289993
0.019640802
0.020001561
0.020375286
0.020765308
0.021175288
0.021609198
0.022071322
0.022566235
0.023098852
0.02367215
0.024294734
0.024972209
0.025709942
0.026514476
0.027392716
0.028352051
0.029400465
0.030546747
0.031800837
0.033175107
0.034687276
0.036367457
0.038273289
0.0088761059
0.0091892085
0.0094194457
0.0096041322
0.0097565621
0.00989172
0.010019062
0.010144191
0.010270128
0.01039827
0.010529051
0.010662381
0.010798096
0.010935856
0.011074865
0.011214523
0.011354677
0.011495335
0.011636741
0.011779416
0.011924132
0.012071938
0.012224129
0.012382165
0.012547603
0.012722033
0.012907427
0.013105091
0.013313681
0.013535734
0.013771581
0.014020414
0.014281368
0.014553769
0.014836237
0.015127682
0.015426894
0.015732523
0.01604325
0.01635801
0.016677081
0.016997238
0.017318804
0.01764167
0.017965915
0.018291903
0.018620327
0.018952233
0.019288988
0.019632251
0.019983987
0.020346501
0.020722394
0.021114572
0.021526227
0.021960856
0.022422222
0.022914414
0.023441775
0.024007071
0.024618011
0.025279806
0.025997246
0.026776337
0.02762346
0.028545514
0.029549846
0.03064451
0.031838373
0.033141796
0.034567901
0.036135408
0.037875102
0.039841829
0.0091633987
0.0094775124
0.0097090742
0.0099014738
0.01006883
0.010223721
0.010375164
0.010528293
0.010685655
0.010848204
0.011015961
0.011188447
0.011365154
0.011545372
0.011727661
0.011910956
0.012094567
0.012277868
0.012460453
0.012642246
0.012823346
0.013004143
0.013185349
0.01336792
0.013553008
0.013741926
0.013936878
0.014137826
0.014345312
0.014561302
0.014786306
0.015020741
0.015264092
0.015516349
0.015776788
0.016044861
0.016320125
0.016601867
0.016889374
0.017182809
0.017480593
0.017782004
0.018087316
0.01839656
0.018710017
0.019028224
0.019351999
0.019682448
0.020020954
0.020369172
0.020729036
0.021102771
0.021492882
0.021902156
0.022333637
0.022790662
0.023276794
0.023795887
0.024350519
0.024947216
0.025591413
0.026287079
0.027039718
0.027855286
0.028740079
0.029700985
0.03074538
0.031881358
0.033118087
0.034466416
0.03594014
0.037558855
0.039353859
0.041378606
0.0093921145
0.0097048738
0.0099376214
0.010135245
0.010315449
0.010487685
0.010660415
0.010838575
0.01102438
0.011218493
0.011420676
0.011630159
0.011846074
0.01206713
0.012291467
0.012517755
0.012744774
0.012971271
0.013196144
0.013418886
0.013638913
0.013855873
0.014069865
0.014281338
0.014490971
0.014699978
0.014910001
0.015120363
0.015333184
0.015549667
0.015770681
0.015997141
0.016229338
0.016467687
0.016712252
0.01696285
0.017219728
0.017482795
0.01775229
0.018027858
0.018308619
0.018595007
0.0188872
0.019185506
0.01949042
0.019802648
0.020123119
0.020453003
0.020793706
0.021146875
0.021514407
0.021898454
0.022301426
0.022725999
0.023175083
0.023651895
0.024159823
0.024701216
0.025280995
0.025905526
0.026577852
0.027302996
0.028086353
0.028933826
0.029851712
0.030846836
0.031926683
0.033099568
0.034374987
0.035764245
0.037281802
0.038948079
0.040794961
0.042875628
0.0095526935
0.0098607672
0.010093781
0.010292789
0.01048182
0.010666344
0.010855397
0.011053544
0.01126266
0.011483213
0.011714829
0.01195699
0.012208631
0.012467912
0.012732622
0.013001196
0.013271904
0.013542915
0.013812196
0.01407802
0.014339501
0.01459588
0.014846601
0.015091767
0.015331476
0.015566925
0.015797764
0.016025348
0.016250854
0.016475477
0.016700367
0.016926741
0.017155465
0.01738743
0.017623327
0.017863433
0.018108493
0.018359153
0.018616054
0.018878438
0.019147127
0.019422514
0.019705076
0.019995394
0.020294182
0.020602315
0.020920844
0.021251012
0.021594262
0.021952245
0.02232683
0.022720114
0.023134429
0.023572359
0.024036709
0.024530614
0.025057003
0.025617394
0.026219929
0.026867545
0.027564094
0.028314664
0.029124623
0.02999979
0.030946498
0.031971655
0.033082916
0.034288828
0.035599207
0.037025835
0.038583843
0.040294471
0.04219035
0.044325149
0.0096383149
0.0099373827
0.010165252
0.010361731
0.010553959
0.010745763
0.010946106
0.011159256
0.011386853
0.011629367
0.011886095
0.012156628
0.012439668
0.012732747
0.013033717
0.013340678
0.013651559
0.013964326
0.014277428
0.014588523
0.014895308
0.015196018
0.015488866
0.015774069
0.01604865
0.016316125
0.016575455
0.016827752
0.017073775
0.017314702
0.017551904
0.017786745
0.018020425
0.018254283
0.018489474
0.018726761
0.018967284
0.019212565
0.019462348
0.019717642
0.019979345
0.02024821
0.020525013
0.020810611
0.021105948
0.021412078
0.02173019
0.02206162
0.022407868
0.02277061
0.023151711
0.023553237
0.023977463
0.024426875
0.024904294
0.025412872
0.025954318
0.026531996
0.027153464
0.027820605
0.028537865
0.029310186
0.030142963
0.03104204
0.032013837
0.03306539
0.034204514
0.035439998
0.036782008
0.038242822
0.039838243
0.041590353
0.043532712
0.045719992
0.009643363
0.0099274872
0.010143948
0.010333574
0.010521983
0.01071397
0.010918229
0.011139235
0.011379125
0.011638293
0.011916164
0.012210614
0.012520675
0.012844517
0.013179877
0.013524367
0.01387543
0.014230378
0.014586275
0.014940394
0.015290602
0.015635066
0.015970543
0.016298358
0.016618229
0.016926437
0.01722235
0.017506777
0.017781112
0.018046435
0.018304471
0.018556432
0.018803715
0.019048004
0.019290799
0.019533241
0.019777108
0.020023625
0.020273172
0.020527482
0.020787676
0.021054861
0.021330128
0.021614605
0.021909467
0.02221597
0.022535457
0.022869383
0.023219328
0.023587022
0.023974354
0.024383392
0.024816391
0.025275807
0.025764418
0.026285347
0.026839993
0.027432422
0.028069568
0.028753267
0.029488062
0.030278911
0.031131246
0.032050986
0.033044642
0.034119386
0.035283219
0.036545198
0.037915853
0.039407966
0.041038022
0.042828986
0.044815522
0.047053703
0.0095655498
0.0098284317
0.010026809
0.010203755
0.010380944
0.010565782
0.010766965
0.010988874
0.01123345
0.011501106
0.011791623
0.012104383
0.01243833
0.012790319
0.013157391
0.013536802
0.013926219
0.01432257
0.014722531
0.015122807
0.015519767
0.015911457
0.016294642
0.016667849
0.017030245
0.017380362
0.017718583
0.018043677
0.018355546
0.018654399
0.018941528
0.01921894
0.019488185
0.019751316
0.020009921
0.020265456
0.020520388
0.020775161
0.02103142
0.021291013
0.021555402
0.021826005
0.022104231
0.022391477
0.022689157
0.022998731
0.023321716
0.023659704
0.024014387
0.024387572
0.024781206
0.025197392
0.025638412
0.026106754
0.026605093
0.027136475
0.027703003
0.028307726
0.028957905
0.029655612
0.03040529
0.031211944
0.032081061
0.033018645
0.034031321
0.03512642
0.036312153
0.037597853
0.038994428
0.040515168
0.04217725
0.04400457
0.046033062
0.048320598
0.0094067687
0.0096402864
0.0098131499
0.0099710684
0.010129304
0.010299212
0.010489538
0.010704838
0.010947256
0.011217583
0.011515748
0.011841132
0.012191775
0.012564805
0.01295899
0.01337236
0.013800383
0.014238439
0.014681328
0.015127518
0.015572938
0.01601404
0.016447736
0.016871477
0.017283314
0.017681759
0.018065003
0.018432759
0.018785368
0.019124209
0.019449372
0.019761505
0.020061288
0.020351233
0.020633372
0.020909614
0.021182873
0.02145304
0.021722715
0.021993825
0.022268135
0.022547364
0.022833196
0.023127293
0.023431312
0.023746919
0.024075815
0.024419748
0.024780543
0.025160116
0.025560501
0.025983867
0.026432549
0.026909061
0.027416094
0.027956626
0.028533586
0.029149201
0.029810029
0.030519704
0.031282054
0.032102193
0.032985687
0.033938648
0.034967832
0.036080751
0.037285834
0.038592705
0.04001265
0.041559473
0.043251052
0.045112251
0.047180426
0.049515738
0.0091634503
0.0093632797
0.0095065803
0.0096382963
0.009770254
0.0099177056
0.010089619
0.010290885
0.010524037
0.010790297
0.011089957
0.011422684
0.011786162
0.012177788
0.01259591
0.013037741
0.01349878
0.013974896
0.014463288
0.014957876
0.015452579
0.015944527
0.016430484
0.016907285
0.01737257
0.017823451
0.018258135
0.018675711
0.019075883
0.019458708
0.019824823
0.020175672
0.020513374
0.020838614
0.021152358
0.021456406
0.021754638
0.022046993
0.022336423
0.022625036
0.022914843
0.023207817
0.023505893
0.023810976
0.024124953
0.024449703
0.024787116
0.025139116
0.025507675
0.025894841
0.026302758
0.026733693
0.027190055
0.027674422
0.02818954
0.028738418
0.029324168
0.029950085
0.030619826
0.031339565
0.032112705
0.032944329
0.0338401
0.03480625
0.035849683
0.036978099
0.038200161
0.039525787
0.040966643
0.042537046
0.044255581
0.046148097
0.048253476
0.050634799
0.0088449448
0.0090064185
0.0091172605
0.0092133402
0.0093123041
0.0094300527
0.0095762951
0.009756399
0.0099733806
0.010229042
0.010524254
0.010858955
0.011230224
0.011636344
0.012076275
0.012545673
0.01303814
0.013551396
0.014079576
0.014618292
0.015163592
0.015709873
0.016251486
0.016784455
0.017305543
0.017811453
0.0183008
0.018771986
0.019224238
0.019657292
0.020071466
0.020467594
0.020846731
0.021210574
0.021561289
0.021900458
0.022230311
0.02255108
0.022866078
0.023177742
0.023488278
0.023799864
0.024114653
0.024434769
0.024762312
0.025099365
0.025448013
0.025810353
0.026188523
0.026584715
0.027001204
0.027440371
0.02790473
0.028396945
0.028919852
0.029476522
0.030070255
0.030704614
0.031383448
0.032111084
0.0328934
0.033734757
0.034640928
0.035618275
0.036673862
0.037815582
0.039052344
0.04039436
0.041853676
0.043445115
0.045187967
0.047109054
0.049248755
0.05167372
0.0084609368
0.0085808582
0.0086545019
0.0087086387
0.0087683952
0.0088498978
0.0089638478
0.0091162117
0.0093105365
0.0095493905
0.0098343987
0.01016591
0.010540526
0.010957493
0.011416499
0.011908367
0.012431555
0.012981015
0.013550834
0.01413511
0.014728357
0.015325517
0.015921707
0.016512687
0.017092162
0.017656291
0.018202834
0.018730513
0.019238207
0.019725263
0.020191544
0.020637582
0.021064332
0.021472875
0.021864806
0.022241933
0.022608046
0.022963595
0.02330935
0.023649018
0.023985012
0.024319674
0.024655328
0.02499429
0.025338852
0.025691288
0.026053865
0.026428858
0.026818568
0.027225342
0.027651598
0.028099846
0.028572721
0.029072998
0.029603624
0.030167763
0.03076884
0.031410598
0.032097065
0.032832675
0.033621999
0.034471494
0.035386323
0.036372994
0.037438721
0.0385916
0.039840791
0.041196804
0.042672056
0.044281865
0.046046224
0.047992869
0.050163409
0.052627912
0.0080237188
0.0081028112
0.0081316863
0.0081394746
0.0081548527
0.0081951131
0.0082713285
0.0083902668
0.0085561044
0.0087724861
0.0090419131
0.0093649611
0.0097387424
0.010164684
0.010636663
0.011149341
0.011700974
0.012284763
0.012894704
0.013524711
0.014168387
0.014818466
0.015468141
0.016111942
0.016746365
0.017368595
0.017975754
0.018563897
0.01913003
0.019673745
0.020195009
0.020694341
0.021172096
0.021629101
0.022066981
0.022487391
0.022892857
0.023286055
0.023667645
0.02403957
0.024405129
0.024766798
0.025127028
0.025488293
0.025853053
0.026223749
0.026602817
0.026992699
0.027395856
0.027814791
0.028252068
0.028710337
0.029192361
0.029701044
0.030239455
0.030810878
0.031418851
0.032067231
0.032760223
0.033502292
0.034298699
0.035154044
0.036075847
0.037070012
0.038143885
0.039305754
0.040565045
0.041932567
0.043421097
0.045046431
0.046829088
0.048797753
0.050994815
0.053490406
0.0075472546
0.0075851931
0.0075657166
0.0075248816
0.0074925184
0.0074873507
0.0075214565
0.007602932
0.0077358627
0.0079248611
0.0081738346
0.0084837077
0.0088533615
0.0092843132
0.0097648819
0.010296179
0.010873633
0.011490714
0.012140538
0.012814678
0.013505339
0.014204494
0.014906698
0.015606054
0.016297759
0.016977513
0.017641089
0.018286243
0.018911739
0.01951535
0.020095206
0.020649989
0.021180934
0.021689029
0.022175754
0.022642493
0.023091195
0.02352535
0.023944845
0.024353069
0.024751684
0.025143678
0.025531659
0.025918236
0.026306005
0.02669755
0.027095455
0.027502308
0.027920724
0.028353351
0.028802899
0.029272159
0.029764029
0.030281543
0.030827901
0.031406516
0.03202105
0.032675471
0.033374096
0.034121596
0.034923118
0.035784442
0.036710929
0.037710692
0.038790752
0.039959422
0.041226441
0.042602737
0.044101475
0.045739045
0.047536877
0.04952457
0.051744758
0.054258391
0.0024065415
0.0044634332
0.0081218681
0.012682217
0.017022057
0.019989942
0.020857365
0.019610984
0.017393078
0.0025496662
0.0045621575
0.0081528599
0.012622487
0.016877333
0.019782448
0.020577979
0.01935634
0.017123062
0.0027019406
0.0046759267
0.0082116925
0.012603142
0.016763376
0.019584484
0.020308755
0.019101407
0.016864632
0.0028562222
0.0047857398
0.0082629952
0.012579243
0.016647825
0.019385728
0.020046872
0.01884682
0.016614393
0.0030065842
0.0048925611
0.0083098606
0.012550461
0.016530256
0.019186711
0.019791188
0.018593988
0.016371103
0.0031536576
0.0049970989
0.0083523424
0.012518133
0.016410952
0.018987967
0.019540884
0.018344579
0.016133974
0.0032987929
0.0051001012
0.0083917668
0.012483332
0.016290186
0.018790058
0.019295333
0.018097654
0.015902238
0.0034441373
0.0052023135
0.0084290337
0.012446286
0.016168585
0.018593581
0.019054047
0.017853289
0.015675322
0.0035903369
0.0053039316
0.0084647895
0.012407973
0.016047413
0.018399175
0.018816553
0.017611626
0.015452766
0.0037394845
0.0054059885
0.0085003
0.012369821
0.015928824
0.018207342
0.018582706
0.017372656
0.015234154
0.0038917947
0.0055098006
0.0085370316
0.012333085
0.015814585
0.018018377
0.018352551
0.017135793
0.015019064
0.0040553797
0.0056170121
0.0085759974
0.012298495
0.015702354
0.017832835
0.018126032
0.016902622
0.014807369
0.0042231901
0.0057270212
0.0086174609
0.012266605
0.015592088
0.01765033
0.017902984
0.016673044
0.014598859
0.0043915009
0.0058399946
0.0086625301
0.012238248
0.015484925
0.017470338
0.017683093
0.016446823
0.014393304
0.004559502
0.0059562918
0.008712116
0.012214244
0.015381558
0.017293
0.017465365
0.01622348
0.014190407
0.004726679
0.0060763181