/*--------------------------------*- C++ -*----------------------------------*\
| =========                 |                                                 |
| \\      /  F ield         | OpenFOAM: The Open Source CFD Toolbox           |
|  \\    /   O peration     | Version:  2406                                  |
|   \\  /    A nd           | Website:  www.openfoam.com                      |
|    \\/     M anipulation  |                                                 |
\*---------------------------------------------------------------------------*/
FoamFile
{
    version     2.0;
    format      ascii;
    arch        "LSB;label=32;scalar=64";
    class       volScalarField;
    location    "0.06";
    object      p;
}
// * * * * * * * * * * * * * * * * * * * * * * * * * * * * * * * * * * * * * //

dimensions      [1 -1 -2 0 0 0 0];

internalField   nonuniform List<scalar> 
2065
(
101419.3
101423.1
101406.25
100563.63
100623.15
100691.53
100766.69
100845.49
100929.71
101008.36
101078.16
101131.87
101190.05
101238.87
101282.08
101318.32
101350.34
101374.74
101396.33
101409.9
101417.43
101420.61
101402.73
100367.66
100375.54
100383.46
100391.29
100399.72
100409.63
100422.17
100438.56
100460.47
100489.55
100527.29
100574.51
100631.23
100696.74
100769.36
100845.85
100928.33
101005.61
101075.85
101128.4
101186.77
101235.83
101279.29
101315.82
101348
101372.65
101394.32
101407.99
101415.44
101418.04
101399.51
100370.06
100379.61
100389.45
100399.49
100410.19
100422.18
100436.4
100453.92
100476.15
100504.65
100540.89
100585.88
100639.93
100702.61
100772.61
100846.92
100926.84
101002.58
101073.71
101125.17
101183.47
101232.72
101276.41
101313.2
101345.54
101370.44
101392.2
101405.96
101413.32
101415.41
101396.31
100374.41
100385.47
100396.97
100408.86
100421.43
100435.19
100450.86
100469.37
100491.93
100519.95
100554.87
100597.8
100649.29
100709.18
100776.51
100848.57
100925.75
100999.68
101071.19
101122.17
101180.14
101229.55
101273.43
101310.47
101342.98
101368.11
101389.96
101403.8
101411.04
101412.66
101398.58
100381.66
100393.99
100406.84
100420.12
100434.12
100449.22
100466.02
100485.29
100508.06
100535.61
100569.31
100610.32
100659.36
100716.51
100781.11
100850.82
100925.65
100997.46
101068.16
101119.39
101176.79
101226.32
101270.36
101307.63
101340.28
101365.66
101387.58
101401.5
101408.55
101409.66
101399.97
100392.69
100405.93
100419.75
100433.95
100448.86
100464.83
100482.33
100502.03
100524.82
100551.83
100584.34
100623.5
100670.18
100724.63
100786.47
100853.73
100926.32
100996.18
101065.16
101116.9
101173.45
101223.04
101267.2
101304.67
101337.46
101363.07
101385.07
101399.05
101405.9
101406.41
101398.77
100408.35
100422.05
100436.4
100451
100466.27
100482.55
100500.27
100519.98
100542.5
100568.81
100600.08
100637.44
100681.8
100733.6
100792.64
100857.36
100927.63
100995.95
101062.67
101114.7
101170.16
101219.74
101263.97
101301.61
101334.51
101360.35
101382.42
101396.43
101403.08
101402.97
101396.71
100429.18
100442.91
100457.3
100471.74
100486.78
100502.8
100520.2
100539.48
100561.37
100586.75
100616.67
100652.21
100694.3
100743.46
100799.67
100861.76
100929.52
100995.54
101060.52
101113.01
101166.98
101216.44
101260.68
101298.44
101331.44
101357.48
101379.62
101393.66
101400.09
101399.34
101396.47
100455.03
100468.44
100482.46
100496.28
100510.56
100525.79
100542.35
100560.74
100581.64
100605.83
100634.25
100667.93
100707.74
100754.27
100807.63
100866.95
100931.9
100995.27
101058.66
101111.63
101163.93
101213.18
101257.35
101295.18
101328.25
101354.48
101376.66
101390.7
101396.9
101395.56
101396.85
100486.21
100498.74
100511.82
100524.53
100537.56
100551.47
100566.73
100583.83
100603.39
100626.14
100652.93
100684.67
100722.19
100766.09
100816.56
100872.99
100934.7
100995.53
101057.5
101110.59
101161.07
101210
101254.01
101291.84
101324.95
101351.34
101373.55
101387.57
101393.5
101391.71
101397.19
100520.61
100532.11
100544.08
100555.48
100567.02
100579.36
100593.04
100608.58
100626.58
100647.71
100672.75
100702.49
100737.7
100778.98
100826.55
100879.95
100937.95
100996.39
101057.11
101110.02
101158.42
101206.94
101250.68
101288.45
101321.54
101348.06
101370.27
101384.24
101389.89
101387.84
101396.93
100556.89
100567.07
100577.76
100587.82
100597.86
100608.63
100620.7
100634.64
100651.01
100670.47
100693.7
100721.42
100754.35
100793.01
100837.66
100887.92
100941.98
100998.24
101057.85
101109.98
101156.03
101204.05
101247.41
101285.01
101318.03
101344.64
101366.84
101380.72
101386.06
101383.95
101394.16
100593.69
100602.29
100611.58
100620.35
100629.07
100638.44
100649.08
100661.54
100676.4
100694.25
100715.72
100741.48
100772.16
100808.25
100850
100897.1
100947.69
101001.94
101059.88
101110.33
101153.98
101201.39
101244.21
101281.56
101314.45
101341.1
101363.24
101377
101382.01
101379.84
101387.02
100629.08
100636.38
100644.35
100652.02
100659.7
100668.01
100677.55
100688.85
100702.45
100718.9
100738.78
100762.68
100791.18
100824.74
100863.64
100907.67
100955.43
101007.17
101062.61
101110.95
101152.45
101199.02
101241.13
101278.13
101310.8
101337.43
101359.47
101373.12
101377.74
101375.12
101375.58
100663.67
100668.98
100675.46
100682.13
100689.09
100696.81
100705.74
100716.31
100729.02
100744.35
100762.84
100785.03
100811.45
100842.56
100878.65
100919.64
100964.56
101013.1
101064.59
101111.81
101151.87
101197.01
101238.22
101274.73
101307.1
101333.65
101355.53
101369.09
101373.27
101370
101367.5
100697.41
100701.55
100706.35
100711.65
100718.04
100725.42
100734.02
100744.18
100756.27
100770.73
100788.02
100808.63
100833.06
100861.77
100895.06
100932.98
100974.85
101020.07
101067.8
101113.17
101151.96
101195.37
101235.51
101271.42
101303.39
101329.76
101351.43
101364.87
101368.59
101365.06
101356.71
100729.55
100733.09
100738.04
100742.66
100747.79
100754.83
100763.28
100773.15
100784.74
100798.42
100814.58
100833.66
100856.14
100882.44
100912.93
100947.71
100986.36
101028.23
101072.45
101114.9
101152.71
101194.14
101233.08
101268.23
101299.67
101325.77
101347.16
101360.38
101363.72
101360.27
101341.48
100762.87
100765.34
100769.23
100774.52
100780.7
100787.32
100795.11
100804.37
100815.25
100827.99
100842.91
100860.38
100880.82
100904.67
100932.29
100963.87
100999.16
101037.55
101078.01
101118.19
101154.5
101193.37
101230.96
101265.18
101295.99
101321.7
101342.74
101355.63
101358.67
101355.68
101327.39
100801.39
100803.69
100807.05
100811.12
100816.17
100822.3
100829.64
100838.25
100848.24
100859.82
100873.28
100888.95
100907.22
100928.5
100953.18
100981.46
101013.27
101048.03
101084.38
101121.29
101157.01
101193.43
101229.22
101262.36
101292.39
101317.58
101338.16
101350.66
101353.43
101351.26
101321.35
100843.19
100845.57
100848.78
100851.8
100855.59
100861.1
100867.72
100875.32
100884.06
100894.15
100905.85
100919.46
100935.35
100953.91
100975.51
101000.42
101028.66
101059.7
101092.16
101126.46
101160.21
101194.25
101227.96
101259.71
101288.88
101313.42
101333.45
101345.52
101347.98
101346.29
101308.13
100886.24
100888.32
100891.24
100894.66
100898.76
100903.43
100908.85
100915.1
100922.3
100930.63
100940.33
100951.67
100965
100980.69
100999.12
101020.61
101045.24
101072.67
101101.91
101133.42
101163.99
101195.09
101226.91
101257.41
101285.55
101309.28
101328.63
101340.25
101342.27
101340.21
101297.88
100930.31
100932.49
100935.15
100938.32
100942.19
100946.2
100950.7
100955.8
100961.58
100968.21
100975.91
100984.94
100995.67
101008.46
101023.71
101041.75
101062.79
101086.64
101112.57
101140.69
101168.21
101196.46
101226.72
101255.29
101282.36
101305.14
101323.74
101334.86
101336.23
101333.3
101295.04
100972.64
100974.82
100977.82
100981.17
100984.53
100988.03
100991.83
100995.97
101000.54
101005.67
101011.52
101018.38
101026.61
101036.59
101048.74
101063.43
101080.94
101101.23
101123.78
101148.5
101173.68
101197.96
101226.16
101253.8
101279.4
101301.09
101318.8
101329.38
101329.84
101325.57
101298.21
101012.75
101014.98
101017.92
101020.91
101024.03
101027.32
101030.73
101034.22
101037.84
101041.72
101046
101050.95
101056.92
101064.32
101073.58
101085.12
101099.28
101116.14
101135.35
101156.78
101178.21
101199.49
101226.89
101252.95
101276.68
101297.11
101313.83
101323.84
101323.21
101317.03
101302.01
101051.88
101053.31
101055.53
101058.03
101060.72
101063.57
101066.51
101069.43
101072.3
101075.16
101078.16
101081.54
101085.6
101090.76
101097.48
101106.19
101117.3
101130.97
101146.96
101164.86
101182.69
101203.14
101229.01
101252.29
101273.78
101293.22
101308.9
101318.26
101316.41
101307.98
101297.61
101088.76
101089.48
101091.02
101092.85
101094.83
101096.93
101099.1
101101.25
101103.3
101105.22
101107.12
101109.2
101111.73
101115.07
101119.68
101126.02
101134.51
101145.38
101158.51
101173.5
101189.6
101207.82
101230.28
101250.99
101271.6
101289.68
101304.02
101312.7
101309.36
101298.9
101307.65
101123.11
101123.94
101124.63
101125.56
101126.64
101127.77
101128.9
101129.94
101130.87
101131.71
101132.5
101133.41
101134.66
101136.58
101139.56
101144.04
101150.42
101159.01
101169.81
101182.56
101197.02
101211.76
101231.02
101251
101270.26
101286.09
101299.31
101307.24
101302.32
101289.63
101298.72
101145.73
101145.7
101147.37
101149.41
101151.53
101153.6
101154.58
101154.42
101154.14
101153.92
101153.71
101153.63
101153.9
101154.79
101156.63
101159.78
101164.62
101171.46
101180.37
101191.16
101203.69
101215.88
101233.19
101251.29
101268.32
101282.5
101294.87
101301.93
101295.69
101280.05
101300.27
101170.17
101168.92
101168.02
101167.26
101166.5
101165.92
101166.4
101167.86
101169.21
101169.55
101169.04
101168.66
101168.62
101169.13
101170.46
101172.91
101176.83
101182.47
101189.94
101199.04
101209.62
101220.44
101235.22
101250.33
101266.67
101280.18
101290.76
101296.94
101289.94
101271.07
101282.84
101190.53
101189.44
101188.19
101186.79
101185.26
101183.58
101181.87
101180.35
101179.06
101178.7
101179.15
101179.31
101179.33
101179.85
101181.18
101183.51
101187.07
101192.04
101198.5
101206.34
101215.44
101225
101237.15
101250.69
101265.32
101277.41
101286.91
101292.24
101285.5
101264.86
101267.23
101190.91
101190.83
101190.63
101190.31
101189.92
101189.51
101189.05
101188.53
101187.95
101187.36
101186.85
101186.68
101187.12
101188.2
101189.9
101192.39
101195.85
101200.42
101206.17
101213.08
101220.95
101229.28
101239.58
101251.4
101263.92
101275.06
101283.19
101288
101282.37
101261.93
101257.48
101188.26
101188.69
101189.01
101189.28
101189.57
101189.86
101190.16
101190.5
101190.92
101191.49
101192.28
101193.04
101194
101195.61
101197.69
101200.32
101203.7
101207.94
101213.12
101219.21
101226.05
101233.28
101241.92
101252.05
101263.17
101273.03
101279.82
101284.3
101280.51
101261.82
101253.68
101189.19
101189.92
101190.56
101191.18
101191.87
101192.68
101193.62
101194.71
101195.88
101196.67
101197.13
101198.46
101200.66
101202.87
101205.23
101207.94
101211.13
101214.95
101219.48
101224.74
101230.62
101236.87
101244.15
101252.94
101262.34
101270.47
101277.45
101282.02
101279.62
101263.95
101255.25
101194.19
101194.72
101195.25
101195.82
101196.49
101197.33
101198.31
101199.42
101200.54
101202.09
101204.43
101206.86
101208.97
101210.93
101213.07
101215.49
101218.25
101221.45
101225.23
101229.63
101234.6
101240.04
101246.26
101253.95
101262.09
101269.71
101275.87
101279.79
101279.32
101267.96
101260.76
101203.36
101203.66
101204.06
101204.53
101205.11
101205.82
101206.71
101207.94
101209.53
101211.26
101213.04
101214.74
101216.42
101218.19
101220.07
101222.11
101224.37
101226.97
101230.05
101233.68
101237.91
101242.75
101248.29
101255.36
101263
101270.01
101275.07
101278.62
101279.44
101271.73
101270.14
101213.8
101213.86
101214.09
101214.42
101214.82
101215.28
101215.88
101216.84
101218.35
101219.81
101220.87
101221.92
101223.09
101224.35
101225.72
101227.22
101228.95
101231.01
101233.54
101236.66
101240.45
101244.99
101250.32
101257.27
101264.88
101271.75
101276.32
101278.89
101279.46
101273.73
101280.12
101220.95
101220.83
101220.87
101221.01
101221.23
101221.52
101221.85
101221.98
101222.13
101223.07
101224.71
101226.07
101226.96
101227.88
101228.92
101230.11
101231.52
101233.28
101235.56
101238.5
101242.22
101246.84
101252.46
101259.76
101267.91
101275.34
101279.99
101281.04
101279.28
101273.6
101287.88
101228
101227.77
101227.54
101227.37
101227.32
101227.37
101227.45
101227.41
101227.11
101226.64
101226.46
101227.03
101227.95
101228.77
101229.7
101230.85
101232.27
101234.08
101236.43
101239.51
101243.5
101248.54
101254.81
101262.83
101272.02
101280.47
101285.62
101285.75
101280.66
101271.95
101284.43
101227.28
101227.35
101227.42
101227.5
101227.58
101227.66
101227.74
101227.85
101227.99
101228.15
101228.18
101228.12
101228.37
101229.04
101229.95
101231.1
101232.61
101234.58
101237.15
101240.51
101244.88
101250.45
101257.42
101266.17
101276.32
101285.72
101291.53
101291.34
101283.97
101271.71
101276.27
101226.2
101226.47
101226.74
101227.01
101227.3
101227.59
101227.89
101228.19
101228.48
101228.78
101229.11
101229.49
101230
101230.7
101231.61
101232.78
101234.33
101236.41
101239.15
101242.71
101247.28
101253.03
101260.16
101268.87
101278.95
101288.41
101294.54
101295.28
101288.08
101273.39
101277.42
101229.19
101229.32
101229.47
101229.65
101229.86
101230.1
101230.39
101230.74
101231.14
101231.61
101232.17
101232.86
101233.7
101234.65
101235.78
101237.16
101238.86
101241.03
101243.81
101247.32
101251.64
101256.85
101262.97
101269.99
101278.02
101285.71
101291.47
101294.77
101292.75
101280.88
101275.32
101235.1
101235.2
101235.35
101235.54
101235.77
101236.05
101236.39
101236.8
101237.29
101237.88
101238.61
101239.47
101240.47
101241.66
101243.06
101244.71
101246.67
101248.98
101251.7
101254.86
101258.39
101262.16
101265.95
101269.6
101273.53
101277.43
101281.39
101286.62
101290.5
101290.65
101291.61
101244.13
101244.29
101244.5
101244.75
101245.04
101245.39
101245.8
101246.3
101246.88
101247.58
101248.41
101249.51
101250.81
101252.19
101253.77
101255.59
101257.64
101259.9
101262.28
101264.68
101266.87
101268.5
101269.2
101268.87
101268.3
101268.1
101269.44
101274.37
101280.38
101287.93
101295.53
101256.85
101257.08
101257.38
101257.71
101258.09
101258.53
101259.04
101259.64
101260.34
101261.17
101262.1
101263.08
101264.21
101265.62
101267.22
101268.96
101270.77
101272.57
101274.19
101275.38
101275.78
101275
101272.74
101269.13
101265.33
101262.29
101260.97
101263.11
101267.52
101274.78
101284.65
101273.42
101273.66
101273.97
101274.32
101274.7
101275.15
101275.67
101276.26
101276.94
101277.71
101278.58
101279.55
101280.62
101281.78
101282.97
101284.15
101285.21
101286
101286.29
101285.8
101284.19
101281.13
101276.51
101270.68
101264.87
101259.88
101256.29
101255.79
101258.09
101263.1
101268.31
101294.25
101294.42
101294.65
101294.89
101295.17
101295.48
101295.83
101296.23
101296.67
101297.16
101297.69
101298.23
101298.78
101299.28
101299.67
101299.86
101299.71
101299.05
101297.65
101295.25
101291.59
101286.51
101280.08
101272.79
101265.73
101259.82
101255.53
101254.51
101256.24
101259.62
101254.41
101317.87
101317.87
101317.91
101317.94
101317.97
101318
101318.02
101318.04
101318.04
101318.01
101317.92
101317.76
101317.48
101317.01
101316.28
101315.18
101313.56
101311.26
101308.07
101303.8
101298.31
101291.61
101283.97
101276.03
101268.94
101263.77
101260.65
101260.55
101261.85
101262.99
101249.01
101342.11
101341.91
101341.7
101341.45
101341.16
101340.82
101340.42
101339.95
101339.39
101338.71
101337.88
101336.87
101335.7
101334.24
101332.28
101329.81
101326.71
101322.85
101318.07
101312.27
101305.44
101297.78
101289.76
101282.14
101275.87
101272.04
101270.2
101270.43
101271.43
101273.51
101252.02
101365.42
101365.01
101364.57
101364.05
101363.46
101362.77
101361.98
101361.06
101359.99
101358.74
101357.27
101355.53
101353.37
101350.79
101347.82
101344.25
101339.95
101334.82
101328.8
101321.89
101314.2
101306.05
101298.03
101290.93
101285.25
101281.95
101280.11
101280.02
101280.7
101284.41
101254.47
101386.35
101385.8
101385.18
101384.46
101383.64
101382.69
101381.58
101380.3
101378.8
101377.05
101374.99
101372.58
101369.78
101366.49
101362.57
101358.01
101352.71
101346.59
101339.61
101331.8
101323.33
101314.52
101305.95
101298.38
101292.26
101288.46
101286.13
101286.34
101287.9
101297.05
101258.36
101402.81
101402.17
101401.45
101400.61
101399.65
101398.54
101397.24
101395.74
101393.98
101391.92
101389.51
101386.69
101383.34
101379.43
101374.88
101369.58
101363.45
101356.43
101348.52
101339.79
101330.43
101320.8
101311.39
101302.98
101296.31
101292.24
101289.5
101289.31
101292.05
101302.42
101254.09
101411.06
101410.38
101409.6
101408.71
101407.68
101406.48
101405.1
101403.49
101401.62
101399.42
101396.85
101393.84
101390.37
101386.39
101381.74
101376.19
101369.63
101362.1
101353.64
101344.38
101334.62
101324.81
101315.38
101306.86
101299.63
101294.62
101290.84
101289.05
101288.51
101297.4
101254.59
101414.45
101413.78
101413.03
101412.16
101411.15
101409.98
101408.62
101407.03
101405.18
101403.01
101400.47
101397.48
101393.91
101389.62
101384.67
101379.01
101372.48
101365.04
101356.8
101347.94
101338.7
101329.46
101320.73
101313.13
101306.62
101301.11
101295.52
101290.58
101287.78
101289.9
101248.17
101417.53
101416.71
101415.8
101414.8
101413.69
101412.44
101411
101409.32
101407.36
101405.08
101402.43
101399.35
101395.79
101391.65
101386.82
101381.24
101374.93
101367.77
101359.67
101350.76
101341.49
101332.46
101324.12
101316.66
101309.78
101303.32
101296.65
101290.71
101284.29
101280.99
101241.14
101409.63
101408.98
101408.24
101407.38
101406.4
101405.25
101403.92
101402.37
101400.56
101398.45
101395.98
101393.09
101389.71
101385.78
101381.19
101375.87
101369.78
101362.79
101354.95
101346.38
101337.36
101328.29
101319.56
101311.52
101304.35
101298.68
101293.13
101287.73
101282.26
101281.36
101239.86
101397.97
101397.37
101396.68
101395.88
101394.96
101393.89
101392.65
101391.2
101389.5
101387.52
101385.19
101382.45
101379.22
101375.42
101370.96
101365.78
101359.84
101353.16
101345.74
101337.75
101329.49
101321.4
101313.86
101307.02
101300.83
101295.22
101289.04
101282.37
101274.91
101282.8
101243.56
101371.35
101370.86
101370.29
101369.64
101368.9
101368.04
101367.03
101365.87
101364.5
101362.9
101361.01
101358.78
101356.16
101353.1
101349.44
101345.07
101340.05
101334.51
101328.65
101322.84
101317.5
101312.97
101309.34
101306.24
101303.15
101300.28
101296.6
101294.49
101285.8
101321.83
101260.68
101342.03
101341.86
101341.69
101341.51
101341.31
101341.07
101340.8
101340.48
101340.08
101339.57
101338.9
101338.02
101336.83
101335.23
101333.25
101330.83
101327.93
101324.7
101321.45
101318.43
101315.72
101313.3
101310.61
101306.89
101302.06
101297.75
101292.15
101296.15
101273.37
101343.98
101276.68
100344.43
100344.33
100344.97
100346.79
100349.86
100354.48
100361.22
100370.86
100384
100401.2
100423.2
100449.71
100480.6
100515.26
100553.42
100593.92
100634.92
100675.74
100715.2
100753.73
100792.82
100832.71
100872.14
100911.59
100950.35
100988.15
101025.32
101061.64
101096.67
101127.16
101154.61
101175.8
101188.1
101189.56
101187.18
101188.25
101195.19
101204.52
101214.73
101221.94
100342.95
100342.76
100343.76
100346.38
100350.84
100357.59
100367.44
100381.03
100398.93
100421.72
100449.26
100481.05
100516.34
100554.22
100594.07
100634.02
100673.48
100711.33
100748.2
100786.03
100825.67
100865.73
100906.11
100945.93
100984.58
101022.38
101059.25
101095.1
101125.89
101153.59
101175.38
101189.06
101189.97
101187.33
101188.28
101194.88
101204.21
101214.45
101221.69
101227.83
101226.89
101225.36
101229.22
101235.24
101244.27
101256.85
101273.51
101294.75
101319.06
101344.15
101368.24
101389.66
101406.29
101414.52
101417.75
101421.25
101412.76
101400.85
101373.69
101342.76
100344.05
100344.19
100345.88
100349.5
100355.91
100365.6
100379.23
100397.38
100420.53
100448.61
100480.9
100516.53
100554.08
100593.13
100632.15
100670.34
100706.87
100742.39
100779.15
100818.62
100859.31
100900.66
100941.61
100981.11
101019.44
101056.75
101093.22
101124.32
101151.99
101174.46
101189.8
101190.33
101187.62
101188.49
101194.65
101203.92
101214.18
101221.41
101227.96
101227.01
101225.58
101229.2
101235.18
101244.22
101256.85
101273.49
101294.62
101318.75
101343.62
101367.51
101388.81
101405.39
101413.63
101416.9
101420.32
101411.96
101400.12
101373.1
101342.56
100349.68
100350.12
100352.55
100357.87
100366.67
100379.6
100397.28
100420.09
100448.09
100480.29
100515.76
100552.98
100591.21
100629.35
100666.45
100701.96
100736.39
100772.2
100811.51
100852.75
100894.96
100937.08
100977.49
101016.29
101054.25
101090.98
101122.14
101149.13
101172.63
101190.14
101190.57
101188.06
101188.9
101194.56
101203.65
101213.83
101221.05
101227.96
101227.11
101225.81
101229.18
101235.11
101244.14
101256.81
101273.43
101294.46
101318.4
101343.06
101366.75
101387.93
101404.48
101412.73
101416.05
101419.37
101411.15
101399.36
101372.49
101342.35
100357.62
100358.48
100360.54
100364.91
100372.48
100384.06
100400.42
100422.05
100448.78
100480.38
100515.34
100552.09
100589.6
100626.33
100662.52
100697.39
100731
100765.95
100805.13
100846.82
100889.61
100932.78
100974.13
101013.37
101051.8
101088.09
101120.07
101145.19
101169.86
101189.77
101190.68
101188.6
101189.58
101194.67
101203.44
101213.44
101220.58
101227.8
101227.19
101226.07
101229.18
101235.04
101244.05
101256.75
101273.35
101294.28
101318.05
101342.49
101365.99
101387.05
101403.56
101411.82
101415.18
101418.4
101410.33
101398.6
101371.86
101342.15
)
;

boundaryField
{
    Side1
    {
        type            empty;
    }
    Inlet
    {
        type            totalPressure;
        rho             rho;
        psi             none;
        gamma           1;
        p0              uniform 102920.87;
        value           nonuniform List<scalar> 
59
(
101276.52
101276.1
101275.69
102920.87
101274.64
101274.3
101273.99
101273.5
101272.99
101272.51
101272
101271.32
101271.16
101270.95
101270.69
101269.82
101269.22
101294.44
101293.88
101292.68
101291.26
101290.38
101289.37
101288.2
101286.88
101285.59
101284.01
101282.1
101280.89
101281.24
101282.38
101282.26
101282.54
101282.51
101282.4
101282.71
101283.1
101283.08
101282.71
101283.24
101284.19
101284.62
101285.36
101286.91
101289.76
101292.38
101293.73
101293.6
101293.42
101293.45
101292.95
101291.52
101289.95
101288.17
101288.49
101288.28
101288.56
101290.72
101289.74
)
;
    }
    Side2
    {
        type            empty;
    }
    Outlet
    {
        type            freestreamPressure;
        freestreamValue uniform 101325;
        value           nonuniform List<scalar> 
35
(
101325
101325
101325
101325
101325
101325
101325
101325
101325
101325
101325
101325
101325
101325
101325
101325
101325
101325
101325
101325
101325
101325
101325
101325
101325
101325
101325
101325
101325
101325
101325
101325
101325
101325
101325
)
;
    }
    Botwall
    {
        type            zeroGradient;
    }
    Cyli
    {
        type            zeroGradient;
    }
    procBoundary3to0
    {
        type            processor;
        value           nonuniform List<scalar> 7(100344.9 100343.87 100343.87 100345.01 100345.01 100350.32 100350.32);
    }
    procBoundary3to1
    {
        type            processor;
        value           nonuniform List<scalar> 
62
(
100347.16
100347.58
100348.77
100350.85
100354
100358.59
100365.21
100374.49
100387.03
100403.35
100424.18
100449.48
100479.39
100513.65
100551.59
100592.15
100634.26
100676.74
100718.27
100758.87
100799.62
100839.98
100878.92
100917.56
100955.28
100992.11
101028.41
101063.88
101097.98
101128.09
101155.18
101175.84
101187.17
101189.2
101187.18
101188.4
101195.59
101204.87
101215.01
101222.17
101227.61
101227.61
101226.77
101225.16
101229.25
101235.29
101244.3
101256.81
101273.49
101294.84
101319.33
101344.64
101368.94
101390.5
101407.17
101415.39
101418.58
101422.17
101413.54
101401.58
101374.28
101342.97
)
;
    }
    procBoundary3to2
    {
        type            processor;
        value           nonuniform List<scalar> 
35
(
101421.04
101425.49
101409.74
100553.15
100615.59
100686.88
100764.51
100846.1
100931.23
101010.9
101081.14
101135.42
101193.27
101241.8
101284.76
101320.71
101352.55
101376.7
101398.22
101411.69
101411.69
100366.12
100366.12
100372
100377.9
100383.31
100389.27
100396.93
100407.72
100422.96
100444.63
100474.5
100513.98
100513.98
100357.21
)
;
    }
}


// ************************************************************************* //
