/*--------------------------------*- C++ -*----------------------------------*\
| =========                 |                                                 |
| \\      /  F ield         | OpenFOAM: The Open Source CFD Toolbox           |
|  \\    /   O peration     | Version:  2406                                  |
|   \\  /    A nd           | Website:  www.openfoam.com                      |
|    \\/     M anipulation  |                                                 |
\*---------------------------------------------------------------------------*/
FoamFile
{
    version     2.0;
    format      ascii;
    arch        "LSB;label=32;scalar=64";
    class       volScalarField;
    location    "0.06";
    object      T;
}
// * * * * * * * * * * * * * * * * * * * * * * * * * * * * * * * * * * * * * //

dimensions      [0 0 0 1 0 0 0];

internalField   nonuniform List<scalar> 
2065
(
292.86117
292.88845
293.01352
292.73712
292.68257
292.63112
292.58181
292.53332
292.48449
292.4393
292.42638
292.48265
292.58158
292.64918
292.69527
292.73562
292.77083
292.80097
292.82684
292.8474
292.85966
292.88698
293.01191
293.61503
293.53712
293.43051
293.3275
293.23424
293.14991
293.07245
292.99991
292.93154
292.86693
292.80568
292.74767
292.69278
292.64063
292.59042
292.54109
292.49126
292.44462
292.4274
292.47756
292.57692
292.64615
292.69274
292.73339
292.76882
292.79917
292.8251
292.8458
292.85807
292.88551
293.01016
293.59431
293.52531
293.42543
293.32618
293.23556
293.15337
293.07779
293.00701
292.94016
292.8767
292.81619
292.75845
292.70336
292.65063
292.59961
292.54939
292.49864
292.45082
292.4289
292.47263
292.57204
292.64302
292.69013
292.73106
292.76672
292.79727
292.82326
292.8441
292.85639
292.88422
293.00872
293.5769
293.51526
293.42207
293.32653
293.23822
293.15781
293.08379
293.01452
292.94901
292.88664
292.82689
292.7695
292.71433
292.66113
292.60937
292.55828
292.50668
292.45776
292.43101
292.468
292.56692
292.63977
292.68743
292.72862
292.76451
292.79526
292.82132
292.84229
292.85472
292.88291
293.00954
293.56307
293.50755
293.42079
293.32889
293.2426
293.16359
293.09077
293.02269
292.95831
292.89689
292.83787
292.78086
292.72569
292.67213
292.61972
292.56779
292.51533
292.46529
292.43428
292.46375
292.56158
292.6364
292.68464
292.72608
292.76218
292.79312
292.81928
292.84037
292.85278
292.88141
293.01278
293.55443
293.5031
293.42215
293.33365
293.24907
293.17105
293.09905
293.03181
292.96826
292.90761
292.84922
292.7926
292.73749
292.68365
292.63066
292.57792
292.52458
292.47336
292.43861
292.46013
292.55602
292.63293
292.68177
292.72343
292.75974
292.79085
292.81713
292.83831
292.85082
292.87965
293.01764
293.54955
293.50214
293.42655
293.3412
293.25798
293.18052
293.1089
293.0421
292.97908
292.91897
292.86106
292.80478
292.74976
292.6957
292.6422
292.58869
292.53445
292.48187
292.44398
292.45767
292.5503
292.62935
292.67883
292.72067
292.75716
292.78843
292.81488
292.83612
292.84878
292.87773
293.02009
293.54811
293.50442
293.43402
293.35171
293.26954
293.19224
293.12054
293.05379
292.99094
292.93112
292.87353
292.8175
292.76256
292.70832
292.65436
292.60013
292.545
292.49123
292.45019
292.45637
292.54449
292.62569
292.67583
292.7178
292.75445
292.78585
292.81252
292.83377
292.84666
292.87568
293.02309
293.55002
293.50981
293.44438
293.36508
293.28381
293.20633
293.13415
293.067
293.004
292.9442
292.88674
292.83085
292.77595
292.72155
292.66719
292.61228
292.55631
292.50156
292.45745
292.45631
292.53866
292.62196
292.67279
292.71485
292.75161
292.78313
292.81006
292.83124
292.84445
292.87361
293.02639
293.55418
293.51743
293.45706
293.38096
293.30059
293.22272
293.14975
293.08185
293.01836
292.95833
292.9008
292.84493
292.79
292.73545
292.68071
292.62521
292.56852
292.51284
292.46592
292.45747
292.53299
292.61818
292.66974
292.71182
292.74865
292.78025
292.80749
292.82851
292.84213
292.87163
293.0306
293.56033
293.5265
293.47113
293.39873
293.31954
293.24125
293.16729
293.0984
293.03413
292.9736
292.91583
292.85983
292.80481
292.75007
292.69501
292.63902
292.58183
292.52523
292.47535
292.4598
292.52758
292.61439
292.66669
292.70873
292.74558
292.77723
292.80481
292.82556
292.83972
292.86975
293.03516
293.56816
293.53678
293.48613
293.41782
293.3403
293.26179
293.18677
293.11669
293.0514
292.99015
292.93192
292.87567
292.82045
292.76551
292.71015
292.65381
292.59638
292.53898
292.48629
292.46318
292.5226
292.61062
292.66367
292.70559
292.74242
292.77407
292.80199
292.82239
292.8372
292.8679
293.03855
293.57808
293.54844
293.5018
293.4377
293.36242
293.2841
293.20813
293.13678
293.07032
293.00813
292.94923
292.89256
292.83705
292.78184
292.72622
292.66961
292.61201
292.55398
292.49846
292.46752
292.51811
292.60688
292.66069
292.70245
292.7392
292.77078
292.79899
292.81898
292.83458
292.86573
293.03927
293.59018
293.56148
293.51803
293.45806
293.3856
293.30805
293.23143
293.15883
293.09106
293.02775
292.96797
292.91064
292.85471
292.79917
292.74325
292.68637
292.62839
292.5694
292.5112
292.47406
292.51479
292.60329
292.65782
292.6993
292.73594
292.76738
292.79577
292.81535
292.83184
292.86272
293.03454
293.6046
293.57638
293.53535
293.4791
293.40976
293.33354
293.25669
293.18301
293.11387
293.04924
292.98835
292.93015
292.87355
292.81756
292.76127
292.70404
292.64551
292.58547
292.52545
292.48233
292.51261
292.59975
292.65499
292.69624
292.7327
292.76388
292.7923
292.81158
292.82898
292.85921
293.02887
293.62237
293.59375
293.55368
293.50023
293.43419
293.36019
293.28386
293.20944
293.13896
293.07284
293.01059
292.95125
292.89375
292.83707
292.78031
292.72264
292.66351
292.60258
292.54112
292.49248
292.5113
292.59646
292.65244
292.69319
292.72943
292.76029
292.78862
292.8077
292.8259
292.85641
293.02384
293.64185
293.61337
293.57399
293.52232
293.4592
293.38754
293.3123
293.23769
293.16613
293.09852
293.03473
292.974
292.91536
292.8578
292.80037
292.74218
292.68243
292.62067
292.55786
292.50459
292.51213
292.59314
292.64988
292.6903
292.7263
292.75668
292.78474
292.80356
292.82247
292.85392
293.02579
293.65907
293.63116
293.5931
293.54349
293.48274
293.41386
293.34062
293.26669
293.19465
293.12582
293.06052
292.99829
292.93833
292.8797
292.82143
292.7626
292.70226
292.63974
292.57566
292.51819
292.51511
292.59013
292.64773
292.6876
292.72309
292.75299
292.78071
292.79928
292.81846
292.85188
293.02748
293.66915
293.64234
293.60621
293.55967
293.50291
293.43779
293.36739
293.29503
293.22331
293.15383
293.08732
293.0237
292.9624
292.90261
292.84341
292.78384
292.72292
292.65979
292.59479
292.53413
292.51947
292.58815
292.64568
292.68479
292.71986
292.74929
292.77664
292.79501
292.81374
292.85128
293.02111
293.66963
293.6447
293.61127
293.56849
293.51634
293.4559
293.38963
293.32024
293.25012
293.18102
293.11403
293.04945
292.98703
292.92619
292.86609
292.80579
292.7443
292.68074
292.61512
292.55133
292.52463
292.58579
292.64368
292.68263
292.71685
292.74562
292.77241
292.79082
292.80825
292.85026
293.00625
293.65786
293.63554
293.60586
293.56778
293.52097
293.46639
293.40557
293.34051
293.27333
293.20584
293.13936
293.07456
293.01152
292.94991
292.88908
292.82817
292.7662
292.70227
292.63606
292.5703
292.53159
292.58404
292.64258
292.6804
292.71325
292.74185
292.7683
292.78684
292.80222
292.84759
292.99235
293.63588
293.61651
293.59083
293.55792
293.51739
293.46938
293.41477
293.35503
293.2919
293.22716
293.16224
293.09808
293.03508
292.97318
292.91193
292.85062
292.78831
292.72404
292.65723
292.58963
292.54191
292.58241
292.6403
292.67793
292.71044
292.73844
292.76407
292.78291
292.79568
292.84328
292.98506
293.60554
293.58991
293.56902
293.54191
293.50781
293.46646
293.4183
293.36434
293.30596
293.24474
293.18218
293.1194
293.05708
292.9954
292.93413
292.87271
292.81027
292.74581
292.67855
292.60941
292.553
292.58071
292.63985
292.67746
292.70785
292.73495
292.76012
292.77905
292.7892
292.83657
292.98258
293.56974
293.55744
293.54103
293.51954
293.492
293.45773
293.41652
293.36887
293.31584
293.25878
293.19916
293.13832
293.07718
293.01616
292.95526
292.89404
292.83172
292.76728
292.69974
292.62939
292.56659
292.58157
292.63995
292.67627
292.70443
292.73169
292.75627
292.77492
292.78291
292.82784
292.98249
293.53132
293.5221
293.50974
293.49333
293.47186
293.44439
293.41026
293.36932
293.32209
293.2697
293.21354
293.15504
293.0954
293.03534
292.97508
292.91431
292.85235
292.78819
292.72073
292.64985
292.58298
292.5843
292.63896
292.6751
292.70304
292.72928
292.75237
292.77067
292.77709
292.8195
292.97431
293.49408
293.48654
293.4768
293.4641
293.44751
293.426
293.3986
293.36463
293.32393
293.27702
293.22506
293.16951
293.11178
293.05294
292.99349
292.93336
292.87196
292.80832
292.74129
292.67049
292.60144
292.58749
292.63843
292.67551
292.70196
292.72606
292.74906
292.76644
292.77148
292.812
292.98235
293.46524
293.45759
293.44829
293.43723
293.42349
293.406
293.38367
293.35554
293.32098
293.27989
293.23287
293.18109
293.12597
293.0688
293.01044
292.95112
292.89043
292.82747
292.76109
292.69063
292.61943
292.59225
292.63924
292.67497
292.70102
292.7242
292.7456
292.76219
292.76664
292.80596
292.97911
293.44797
293.44135
293.43332
293.42297
293.40988
293.39348
293.37306
293.34793
293.31736
293.28081
293.23823
293.1903
293.13815
293.08306
293.02606
292.96768
292.90778
292.84562
292.78006
292.71022
292.63826
292.5998
292.63983
292.6753
292.70098
292.72251
292.74253
292.75879
292.76323
292.8015
292.9839
293.44172
293.43401
293.42521
293.415
293.4029
293.38825
293.37013
293.34748
293.31937
293.28521
293.24521
293.20002
293.15027
293.09692
293.0411
292.98355
292.92436
292.86298
292.79834
292.7294
292.65752
292.60871
292.6412
292.67632
292.70038
292.72119
292.7407
292.75531
292.76114
292.79723
292.97333
293.44862
293.4401
293.43047
293.41949
293.40675
293.39168
293.37359
293.35175
293.3253
293.29361
293.2561
293.2126
293.16397
293.11151
293.05638
292.99935
292.94065
292.87989
292.81611
292.74818
292.67672
292.61942
292.64397
292.67734
292.7008
292.72071
292.73812
292.75241
292.76071
292.7957
292.96673
293.46278
293.45453
293.44488
293.43356
293.42027
293.4046
293.38607
293.36399
293.33759
293.30609
293.2689
293.22612
293.17839
293.12667
293.07205
293.01536
292.95698
292.89666
292.83358
292.76663
292.69577
292.63227
292.64657
292.67957
292.70182
292.71944
292.73637
292.75043
292.76094
292.79663
292.96227
293.46651
293.45952
293.45117
293.44114
293.42903
293.41436
293.39655
293.37497
293.349
293.31815
293.28215
293.24078
293.19406
293.1428
293.08832
293.0317
292.97345
292.91341
292.8509
292.78487
292.71473
292.64791
292.65013
292.68195
292.70201
292.71947
292.7363
292.74874
292.76086
292.79974
292.95981
293.45515
293.45005
293.4438
293.43607
293.42642
293.41431
293.39913
293.38019
293.35678
293.32819
293.29383
293.25342
293.20757
293.15737
293.10371
293.04754
292.98955
292.92985
292.86792
292.80278
292.73351
292.66477
292.65419
292.68394
292.70312
292.71963
292.73565
292.74869
292.76127
292.804
292.95871
293.42574
293.42225
293.41793
293.41247
293.4055
293.39652
293.38488
293.36983
293.35043
293.32568
293.29502
293.25854
293.21646
293.16908
293.11733
293.06232
293.00498
292.94576
292.88442
292.82015
292.7518
292.68138
292.65856
292.68588
292.7049
292.72024
292.73614
292.74962
292.76216
292.80799
292.96181
293.38386
293.38108
293.37774
293.37364
293.36849
293.36192
293.35343
293.34235
293.3278
293.30884
293.28468
293.25455
293.21806
293.17541
293.12729
293.07478
293.01897
292.96068
292.90011
292.83667
292.76924
292.69825
292.6633
292.6877
292.70708
292.72289
292.73765
292.75035
292.76342
292.81033
292.96801
293.3417
293.33896
293.33588
293.33233
293.32811
293.32295
293.3164
293.30783
293.29669
293.28237
293.26387
293.24008
293.21019
293.17383
293.13119
293.08295
293.03014
292.97377
292.91441
292.85198
292.78558
292.71508
292.6693
292.68908
292.70997
292.72646
292.7403
292.75197
292.76495
292.81132
292.97336
293.30909
293.30578
293.30221
293.29832
293.29401
293.28911
293.2834
293.27649
293.26779
293.25648
293.24163
293.22237
293.19786
293.16732
293.13033
293.08705
293.03816
292.98456
292.92705
292.86594
292.80079
292.73136
292.67673
292.6904
292.71308
292.73058
292.74542
292.75489
292.76682
292.81113
292.97645
293.29862
293.29425
293.28957
293.28455
293.27915
293.27326
293.26672
293.25926
293.25051
293.23993
293.2268
293.21017
293.18893
293.16224
293.12944
293.09029
293.04501
292.99422
292.93876
292.87917
292.81545
292.74734
292.68689
292.6934
292.7169
292.73568
292.75178
292.75951
292.76994
292.81033
292.97054
293.30442
293.29982
293.29475
293.28916
293.28298
293.27611
293.26842
293.25974
293.24978
293.23821
293.22444
293.20772
293.18723
293.16216
293.13173
293.09534
293.05284
293.00447
292.95089
292.89284
292.83063
292.76394
292.69987
292.69831
292.72132
292.74067
292.75708
292.76504
292.77358
292.81115
292.96292
293.30615
293.30231
293.29801
293.29318
293.2877
293.28146
293.27427
293.2659
293.25607
293.24438
293.23038
293.21354
293.19318
293.16854
293.13889
293.10372
293.06284
293.01635
292.96455
292.90803
292.84731
292.78199
292.71592
292.70296
292.72524
292.74411
292.76029
292.77008
292.77773
292.81466
292.96514
293.29578
293.29288
293.28963
293.28595
293.28175
293.27691
293.27124
293.2645
293.25638
293.24645
293.23421
293.21905
293.20025
293.1771
293.14893
293.11523
293.07577
293.0307
292.9804
292.92531
292.86577
292.80122
292.73248
292.70782
292.72651
292.74384
292.75915
292.7717
292.78407
292.82536
292.96338
293.27568
293.27335
293.27079
293.26796
293.26479
293.2612
293.25703
293.25209
293.2461
293.23864
293.22918
293.21705
293.2015
293.18169
293.15686
293.12632
293.08969
293.04696
292.99848
292.94473
292.88594
292.82141
292.75085
292.71261
292.72525
292.73982
292.75332
292.76654
292.78441
292.83866
292.97789
293.25899
293.25667
293.25418
293.25149
293.24859
293.24541
293.24186
293.2378
293.23299
293.22714
293.21983
293.21045
293.19825
293.1823
293.1616
293.13528
293.10264
293.06334
293.01745
292.96529
292.90704
292.84214
292.76985
292.71849
292.72309
292.73465
292.74607
292.75828
292.77733
292.84012
292.98003
293.25732
293.25482
293.25211
293.24917
293.24597
293.24249
293.23866
293.23441
293.2296
293.224
293.21725
293.20889
293.19826
293.18449
293.16664
293.14367
293.11462
293.07874
293.03562
292.9852
292.92762
292.86259
292.78937
292.72696
292.72264
292.73129
292.74037
292.75018
292.76805
292.83378
292.97003
293.26442
293.26193
293.25921
293.25625
293.25301
293.24946
293.24556
293.2412
293.23627
293.23057
293.22381
293.21558
293.20532
293.19231
293.17565
293.15431
293.12722
293.09341
293.05217
293.00311
292.94621
292.88135
292.80791
292.73729
292.72285
292.72971
292.73639
292.74426
292.76171
292.8267
292.95447
293.27386
293.27156
293.26905
293.26629
293.26325
293.25991
293.25619
293.25201
293.24724
293.24168
293.23508
293.22702
293.217
293.20432
293.18813
293.16741
293.1411
293.10816
293.06777
293.01942
292.96294
292.89836
292.82507
292.74869
292.72429
292.72898
292.73496
292.74182
292.75989
292.82433
292.94037
293.28269
293.28054
293.27818
293.27558
293.27272
293.26955
293.26602
293.26204
293.25748
293.25216
293.24581
293.23805
293.22837
293.21611
293.2004
293.18027
293.15461
293.12234
293.08255
293.03468
292.97852
292.91418
292.84101
292.76099
292.72641
292.73025
292.73655
292.74511
292.76326
292.8246
292.93212
293.29206
293.28991
293.28754
293.28493
293.28204
293.27884
293.27527
293.27125
293.26666
293.26133
293.25501
293.24737
293.23796
293.22609
293.21089
293.1914
293.16655
293.13521
293.09639
293.04942
292.99406
292.93044
292.85817
292.77716
292.73175
292.73402
292.74209
292.75144
292.7698
292.83131
292.92786
293.30196
293.29977
293.29733
293.29463
293.29163
293.28829
293.28456
293.28037
293.27559
293.27009
293.26364
293.25591
293.2464
293.23458
293.21978
293.20096
293.17704
293.14688
293.10944
293.06394
293.01005
292.94792
292.87739
292.79715
292.741
292.73948
292.74716
292.75607
292.77557
292.83494
292.92012
293.30961
293.30747
293.30508
293.30241
293.29943
293.29611
293.29236
293.28813
293.2833
293.27772
293.27118
293.26339
293.25397
293.24238
293.22789
293.20967
293.18669
293.15784
293.12199
293.07831
293.02632
292.96606
292.8975
292.81931
292.75252
292.74417
292.75101
292.76039
292.77844
292.83974
292.91695
293.31491
293.31283
293.3105
293.30789
293.30496
293.30167
293.29794
293.29371
293.28885
293.28324
293.27665
293.26882
293.25936
293.2478
293.23351
293.21568
293.19336
293.16549
293.13101
293.08901
293.03889
292.98047
292.91375
292.83744
292.76301
292.74704
292.75261
292.76018
292.77843
292.83907
292.90826
293.31155
293.30973
293.30768
293.30537
293.30276
293.2998
293.29644
293.29258
293.28813
293.28293
293.27682
293.26952
293.2607
293.24992
293.23656
293.21977
293.19856
293.17191
293.13885
293.09854
293.05041
292.99427
292.92993
292.85588
292.77585
292.74832
292.7523
292.75837
292.77423
292.83093
292.90456
293.30364
293.30192
293.29996
293.29775
293.29525
293.2924
293.28915
293.28542
293.2811
293.27606
293.27012
293.26303
293.25446
293.24396
293.23103
293.21506
293.19522
293.17057
293.14009
293.10274
293.05772
293.00465
292.94344
292.87273
292.79173
292.75327
292.7536
292.75773
292.77214
292.81885
292.8943
293.29084
293.28935
293.28767
293.28576
293.28361
293.28117
293.27838
293.27516
293.27142
293.26705
293.26186
293.25565
293.24812
293.23888
293.22742
293.21313
293.19517
293.17247
293.14394
293.1086
293.06583
293.01528
292.95664
292.88832
292.80651
292.75542
292.75167
292.75449
292.76639
292.81027
292.88887
293.28133
293.2801
293.2787
293.27709
293.27524
293.27309
293.27058
293.26764
293.26416
293.26002
293.25504
293.24901
293.24164
293.23256
293.22128
293.20717
293.18958
293.16755
293.14009
293.10627
293.06529
293.01661
292.95976
292.89338
292.81347
292.75249
292.74617
292.74949
292.76279
292.81421
292.88854
293.24996
293.24916
293.24824
293.24717
293.24592
293.24444
293.2427
293.24061
293.23809
293.23502
293.23125
293.22656
293.22069
293.21328
293.20388
293.19185
293.17647
293.15698
293.13244
293.10193
293.06462
293.01987
292.96706
292.90478
292.82846
292.75758
292.74326
292.74586
292.76022
292.81828
292.88717
293.23047
293.22974
293.2289
293.22791
293.22675
293.22537
293.22373
293.22176
293.21938
293.21647
293.21288
293.20841
293.2028
293.19568
293.18664
293.17524
293.16086
293.14278
293.12027
293.09261
293.05911
293.01904
292.97148
292.91464
292.84448
292.77036
292.75249
292.75842
292.7736
292.85822
292.89934
293.1731
293.17319
293.17326
293.17332
293.17336
293.17334
293.17323
293.17298
293.17252
293.17175
293.17053
293.16869
293.16599
293.16218
293.15687
293.14957
293.13979
293.12686
293.11029
293.08922
293.06248
293.02885
292.98685
292.93458
292.86893
292.79045
292.75558
292.7691
292.77074
292.88283
292.91115
293.57633
293.57568
293.57481
293.57384
293.57289
293.57218
293.57195
293.57248
293.57427
293.57771
293.58326
293.59114
293.60135
293.61417
293.62929
293.64646
293.66522
293.68436
293.70226
293.71676
293.72512
293.72468
293.71505
293.69379
293.66251
293.62394
293.58257
293.54342
293.51318
293.49467
293.48825
293.49328
293.50341
293.50835
293.49834
293.47237
293.43393
293.39159
293.35491
293.33317
293.58042
293.57845
293.57639
293.57438
293.57263
293.57149
293.57135
293.57243
293.57533
293.58046
293.58799
293.59787
293.6101
293.62459
293.64132
293.65986
293.67936
293.69829
293.7144
293.7247
293.72477
293.71608
293.69528
293.66407
293.62505
293.58282
293.5418
293.50879
293.48736
293.47776
293.48085
293.49147
293.49926
293.49242
293.4692
293.43203
293.38917
293.35079
293.32655
293.32286
293.32884
293.32477
293.30885
293.28671
293.27193
293.27171
293.2788
293.28705
293.29507
293.30439
293.31439
293.32155
293.32622
293.32123
293.31274
293.29849
293.28754
293.25392
293.234
293.17243
293.58726
293.58272
293.5786
293.575
293.5723
293.57104
293.5714
293.57331
293.57743
293.58385
293.59251
293.6033
293.61621
293.63144
293.64885
293.66793
293.68755
293.70517
293.71761
293.72005
293.71266
293.6931
293.66298
293.62453
293.58249
293.54054
293.50525
293.48128
293.46876
293.4695
293.47989
293.49009
293.48629
293.46608
293.43053
293.38746
293.34767
293.32092
293.31569
293.3219
293.3196
293.30514
293.2834
293.26805
293.26746
293.27466
293.28328
293.29154
293.30089
293.31091
293.31824
293.32311
293.3186
293.31029
293.29646
293.2859
293.25289
293.2331
293.17263
293.59861
293.58911
293.58169
293.57631
293.57284
293.57154
293.57196
293.57437
293.57897
293.5856
293.59422
293.60482
293.61774
293.63317
293.65085
293.67043
293.68922
293.70363
293.70906
293.70389
293.68639
293.65839
293.62168
293.58093
293.53904
293.50213
293.47603
293.461
293.45916
293.46868
293.48079
293.4799
293.46283
293.42923
293.38628
293.34534
293.31619
293.30921
293.31546
293.31475
293.30176
293.28051
293.26461
293.26362
293.27083
293.27978
293.28826
293.29763
293.30763
293.31509
293.32014
293.31606
293.3079
293.29447
293.28428
293.25185
293.23217
293.17282
293.63348
293.61366
293.5976
293.58526
293.57625
293.57098
293.56826
293.56777
293.57017
293.57449
293.58095
293.58928
293.59987
293.61307
293.62877
293.64751
293.66693
293.68315
293.69144
293.68937
293.6748
293.6498
293.61603
293.57748
293.5368
293.49905
293.47114
293.45424
293.44978
293.45791
293.47138
293.47321
293.45934
293.42798
293.38547
293.34365
293.31233
293.30342
293.30948
293.31019
293.29864
293.27796
293.26154
293.26015
293.2673
293.27652
293.28519
293.29456
293.30452
293.31209
293.31728
293.31361
293.30559
293.2925
293.28267
293.25082
293.23123
293.17299
)
;

boundaryField
{
    Side1
    {
        type            empty;
    }
    Inlet
    {
        type            totalTemperature;
        gamma           1.4;
        T0              uniform 294.31799;
        value           nonuniform List<scalar> 
59
(
292.98059
292.98019
292.97978
292.97937
292.98479
292.98479
292.9786
292.97814
292.9777
292.97732
292.97692
292.97637
292.97623
292.97603
292.97574
292.9808
292.9743
292.97447
292.97397
292.97258
292.9713
292.97039
292.9697
292.9688
292.96764
292.96646
292.96523
292.96364
292.96222
292.96286
292.96396
292.96381
292.96401
292.964
292.96395
292.96415
292.96447
292.96446
292.96413
292.96459
292.96539
292.96575
292.96629
292.96766
292.97003
292.97224
292.97336
292.97325
292.9731
292.97313
292.97271
292.97151
292.9702
292.96872
292.96898
292.96881
292.96903
292.97085
292.97002
)
;
    }
    Side2
    {
        type            empty;
    }
    Outlet
    {
        type            zeroGradient;
    }
    Botwall
    {
        type            zeroGradient;
    }
    Cyli
    {
        type            zeroGradient;
    }
    procBoundary3to0
    {
        type            processor;
        value           nonuniform List<scalar> 7(293.57672 293.5822 293.5822 293.59204 293.59204 293.61014 293.61014);
    }
    procBoundary3to1
    {
        type            processor;
        value           nonuniform List<scalar> 
62
(
293.57404
293.57391
293.57358
293.57315
293.57275
293.57254
293.57274
293.57367
293.57573
293.5793
293.58484
293.5926
293.60255
293.61486
293.62933
293.64575
293.66398
293.6824
293.69953
293.71335
293.72098
293.72046
293.71057
293.68987
293.65942
293.62211
293.58249
293.54593
293.51885
293.50365
293.50044
293.50687
293.51573
293.51743
293.50422
293.47578
293.43642
293.39493
293.36022
293.34102
293.33085
293.33085
293.33634
293.33032
293.31297
293.29053
293.27632
293.27643
293.28331
293.29113
293.29889
293.30813
293.3181
293.32504
293.32948
293.32397
293.31528
293.30055
293.28919
293.25495
293.23488
293.17221
)
;
    }
    procBoundary3to2
    {
        type            processor;
        value           nonuniform List<scalar> 
35
(
292.86262
292.89008
293.01457
292.72684
292.67278
292.62214
292.57381
292.52611
292.47836
292.43474
292.42578
292.48785
292.58601
292.65208
292.6977
292.73776
292.77276
292.80268
292.82851
292.84893
292.84893
293.63753
293.63753
293.54985
293.43703
293.33021
293.23394
293.1471
293.06748
292.99298
292.92301
292.85724
292.7953
292.7953
293.65696
)
;
    }
}


// ************************************************************************* //
