/*--------------------------------*- C++ -*----------------------------------*\
| =========                 |                                                 |
| \\      /  F ield         | OpenFOAM: The Open Source CFD Toolbox           |
|  \\    /   O peration     | Version:  2406                                  |
|   \\  /    A nd           | Website:  www.openfoam.com                      |
|    \\/     M anipulation  |                                                 |
\*---------------------------------------------------------------------------*/
FoamFile
{
    version     2.0;
    format      ascii;
    arch        "LSB;label=32;scalar=64";
    class       volScalarField;
    location    "0.09";
    object      alphat;
}
// * * * * * * * * * * * * * * * * * * * * * * * * * * * * * * * * * * * * * //

dimensions      [1 -1 -1 0 0 0 0];

internalField   nonuniform List<scalar> 
2065
(
0.10314584
0.069800138
0.054394888
0.09849808
0.11956301
0.14419114
0.17275888
0.2055392
0.24265061
0.28389716
0.32857493
0.37523189
0.42130594
0.46277886
0.49367367
0.50573755
0.48849515
0.43080253
0.32895955
0.19923553
0.10420097
0.070196097
0.054455194
0.0060259462
0.0085209109
0.01164304
0.015523282
0.020308572
0.026147303
0.033251445
0.041897252
0.052275063
0.064684358
0.079449347
0.096963105
0.11763016
0.14184422
0.16998339
0.20235022
0.23908348
0.28001859
0.32449143
0.37109467
0.41731916
0.4591953
0.49079195
0.50388394
0.48798284
0.43179984
0.33146122
0.20205803
0.10535581
0.070625688
0.054530554
0.0064005393
0.0088826945
0.011975821
0.015800131
0.020497739
0.0262185
0.033154022
0.041593812
0.051726061
0.063844678
0.078282895
0.095424947
0.11568129
0.13946199
0.16714866
0.19907347
0.23539691
0.27598772
0.32022442
0.36674826
0.41310726
0.45538401
0.48770209
0.50186527
0.48737582
0.43279772
0.33405955
0.20505972
0.10662101
0.071093428
0.054626526
0.0068083773
0.0092730247
0.012332858
0.016099076
0.0207079
0.026309433
0.033079302
0.04131134
0.05119664
0.063017739
0.077127795
0.093890283
0.11372323
0.13704775
0.16426193
0.1957162
0.23159695
0.27180852
0.31577495
0.36219012
0.40866369
0.45133539
0.48439167
0.49966794
0.48666141
0.43378939
0.33675113
0.20824788
0.10800855
0.071604655
0.054743345
0.0072597273
0.0097038265
0.012725572
0.016429869
0.020947422
0.026428101
0.033034862
0.041056695
0.050694692
0.062225626
0.075993314
0.092366811
0.11176392
0.13461461
0.16133144
0.19228691
0.22769107
0.26748648
0.31114563
0.35741921
0.40398278
0.44704125
0.4808491
0.49727779
0.48582569
0.43476834
0.33953151
0.21162923
0.10953233
0.072166102
0.05488397
0.0077658101
0.010184599
0.013163269
0.016801916
0.02122525
0.026583732
0.033027832
0.040837565
0.050227093
0.061464541
0.074888752
0.090863032
0.10981184
0.13217174
0.15836537
0.18879532
0.22368812
0.26302868
0.30634074
0.35243607
0.39906118
0.44249495
0.47706166
0.49468035
0.48485352
0.43572533
0.34239519
0.21520972
0.11120827
0.072786597
0.055052728
0.0083364928
0.010724743
0.013655878
0.01722495
0.021551885
0.026783802
0.033065639
0.040661737
0.049801258
0.060742645
0.073826538
0.089386764
0.10787577
0.12972943
0.15538659
0.18525284
0.21959834
0.25844383
0.30136635
0.347243
0.39389724
0.43768893
0.47301606
0.49186048
0.48372838
0.43664684
0.34533526
0.2189944
0.11305458
0.073476253
0.055253656
0.0089834241
0.011334569
0.014212626
0.017707825
0.0219353
0.027037254
0.033155932
0.040536772
0.049424053
0.060063397
0.072776371
0.087941063
0.10596414
0.12729747
0.15239807
0.1816706
0.21543317
0.25374226
0.29623034
0.34184415
0.38848999
0.43261581
0.46870068
0.48880289
0.4824322
0.43751741
0.34834293
0.22298713
0.11509191
0.074247545
0.055490282
0.009709099
0.012022292
0.014842818
0.018259526
0.022383594
0.027352162
0.033305944
0.040469783
0.049102622
0.059436897
0.071786746
0.086538648
0.10408647
0.12488539
0.149401
0.17805971
0.21120513
0.24893586
0.29094252
0.3362457
0.38284053
0.42727022
0.46410657
0.48549307
0.48094506
0.43831979
0.35140712
0.22719034
0.11734346
0.075115908
0.055759151
0.01052637
0.012793483
0.015551289
0.018885173
0.02290214
0.027734306
0.033521342
0.04046677
0.048843475
0.058871486
0.07086318
0.08519159
0.10225303
0.12250379
0.14641569
0.17443196
0.20692776
0.24403801
0.28551457
0.330456
0.37695227
0.42165006
0.45922754
0.4819148
0.47924733
0.43903503
0.35451418
0.23160463
0.11983499
0.076099118
0.056059696
0.011433598
0.013649096
0.016339447
0.019586612
0.023493334
0.028186718
0.033805512
0.040531936
0.048651488
0.058372461
0.070004166
0.083921505
0.10047457
0.12016296
0.14345373
0.17079663
0.20261572
0.23906344
0.27996
0.3244856
0.37083097
0.41575566
0.45405511
0.47805094
0.47732352
0.43964227
0.35764763
0.23622838
0.12259493
0.077217617
0.056391557
0.012427018
0.014586346
0.01720511
0.020362265
0.024156353
0.028709427
0.034159106
0.040666903
0.048529064
0.057941949
0.069206998
0.082673874
0.098747785
0.11787078
0.14052822
0.16719858
0.19828611
0.23402802
0.27429402
0.31834725
0.3644848
0.40958818
0.44858049
0.47388599
0.47515829
0.44011849
0.36078755
0.24105706
0.12565404
0.078496074
0.056755225
0.013501376
0.015600199
0.018143623
0.021207859
0.024887337
0.029298884
0.034578689
0.040873334
0.048475617
0.057580912
0.068478164
0.081505134
0.097084543
0.11563561
0.13764776
0.16361482
0.19395156
0.22894814
0.26853332
0.31205583
0.35792448
0.40315156
0.44279867
0.4694103
0.47273377
0.44043425
0.36390976
0.24608301
0.12904449
0.079962593
0.05715323
0.014646218
0.016680891
0.019145976
0.022115128
0.025678801
0.029948654
0.035059658
0.041146667
0.048489076
0.057288832
0.067821741
0.080423108
0.095495053
0.11346577
0.1348211
0.16006001
0.1896248
0.22384042
0.26269579
0.30562823
0.35116329
0.39645278
0.43670909
0.46461907
0.47002547
0.4405572
0.36699193
0.25129464
0.13279858
0.081646687
0.057600736
0.015850658
0.017818246
0.020202474
0.023074839
0.026522256
0.030651675
0.035594269
0.04147856
0.048564687
0.057062431
0.067235371
0.079413647
0.093995693
0.11136965
0.13205697
0.15655346
0.18531608
0.21872171
0.25680024
0.29908305
0.34421696
0.38950168
0.43031389
0.4595005
0.4670079
0.44046162
0.37000831
0.25667536
0.13694679
0.083577457
0.058109255
0.017101734
0.019000281
0.021302002
0.024076569
0.027407794
0.0313982
0.036173456
0.041859515
0.048694909
0.056895448
0.066712988
0.078467726
0.092535236
0.10933922
0.12935988
0.15310589
0.18105691
0.21361102
0.25086621
0.29244038
0.3371036
0.38231092
0.42361615
0.45404255
0.46366095
0.44012144
0.37293071
0.26220309
0.14151554
0.085782666
0.058685658
0.018383413
0.020212954
0.022431646
0.025107959
0.028323264
0.03217605
0.03678646
0.042278526
0.048869838
0.056779114
0.066246988
0.077582064
0.091142704
0.10737757
0.12673355
0.14972553
0.17686081
0.20852487
0.24491315
0.28572135
0.32984335
0.37489608
0.41662275
0.44824063
0.45996794
0.43950925
0.37572873
0.26784961
0.14652442
0.088281323
0.059325748
0.019695205
0.02145088
0.023583334
0.026159532
0.029258334
0.032974338
0.037422356
0.0427243
0.049078599
0.05670356
0.065829732
0.076755661
0.089834793
0.10549039
0.12418098
0.14641495
0.17270487
0.20347403
0.23895961
0.27894772
0.32245821
0.36727558
0.40934427
0.44209353
0.45592212
0.438594
0.37836872
0.27357986
0.15198228
0.091066326
0.060002157
0.021017347
0.022698458
0.024743446
0.027218385
0.030200261
0.033780346
0.03806854
0.043184275
0.049309052
0.056657579
0.065451277
0.075978424
0.088582975
0.1036721
0.12170252
0.1431787
0.16861774
0.19847056
0.23302327
0.27214148
0.3149716
0.35947043
0.4017947
0.43560521
0.45150977
0.43733647
0.38081138
0.27935262
0.15788318
0.094131845
0.060806971
0.022348418
0.0239553
0.025911387
0.028282759
0.031145501
0.034588538
0.038717637
0.043649519
0.049551293
0.056631114
0.065102058
0.075242005
0.087385426
0.10193527
0.11930147
0.14002037
0.164605
0.19351552
0.22712068
0.26532467
0.30740806
0.35150399
0.39399126
0.42878034
0.44671059
0.43571107
0.38301859
0.28512383
0.16420325
0.097444683
0.061678559
0.023689075
0.025219982
0.027085309
0.029350805
0.032091864
0.035395785
0.039365134
0.04411399
0.049797932
0.056616045
0.064773552
0.074536956
0.086227043
0.1002214
0.11696282
0.13693976
0.16067761
0.18867082
0.22127527
0.25851993
0.29979303
0.34340172
0.38595443
0.42162828
0.44151879
0.43369535
0.3849589
0.29084676
0.17090038
0.1009502
0.062634861
0.025030958
0.026488875
0.028264759
0.030424101
0.033041908
0.036204584
0.04001255
0.044577607
0.050046876
0.056608675
0.064460737
0.073857541
0.085105594
0.098566356
0.11468892
0.13393767
0.15683788
0.18390358
0.21549964
0.25174877
0.29215241
0.33519084
0.37770788
0.41416289
0.43593287
0.43125623
0.38660654
0.29647024
0.17791715
0.10463935
0.06373299
0.026367704
0.02776019
0.029452278
0.031508813
0.034004331
0.037024801
0.040669511
0.045048635
0.050304
0.056612642
0.064165471
0.073205281
0.084025809
0.096979019
0.11248694
0.13101796
0.15308855
0.17921497
0.20980547
0.24503172
0.2845123
0.32689996
0.36927803
0.40640192
0.42995529
0.42836362
0.38791421
0.30194147
0.18518593
0.10849752
0.064984164
0.027680107
0.029019957
0.030640036
0.032603517
0.034983671
0.037865748
0.041348344
0.045540605
0.050581885
0.056638841
0.063896555
0.072586834
0.082990668
0.095446594
0.1103579
0.12818557
0.14943792
0.17463265
0.20420717
0.23838888
0.27689891
0.3185588
0.36069361
0.39836649
0.42359254
0.42501266
0.38883891
0.30719271
0.19263286
0.11256578
0.06643497
0.02895528
0.030255809
0.031818076
0.033702254
0.035979186
0.03873234
0.042059083
0.046067478
0.050895989
0.056702833
0.063668387
0.072014734
0.082010724
0.093981301
0.10831617
0.12545154
0.1458965
0.17016513
0.19870292
0.23183861
0.26933844
0.31019789
0.35198523
0.39008059
0.4168542
0.42120277
0.38934134
0.31217579
0.20019036
0.11692126
0.06816595
0.030186481
0.031459168
0.032976997
0.034796546
0.036984989
0.039622821
0.042805025
0.046637848
0.051258739
0.05681966
0.063497171
0.071505349
0.081102428
0.09260109
0.10637901
0.12283173
0.14248018
0.16583682
0.19338002
0.22541435
0.26185938
0.30184864
0.34318511
0.38157101
0.4097521
0.41692739
0.38938734
0.31687942
0.20781685
0.12163943
0.070301112
0.031372539
0.032625751
0.034110024
0.035877974
0.03799257
0.040530172
0.043582246
0.047252211
0.051674985
0.056997914
0.063393757
0.071069553
0.080272966
0.091300882
0.10450346
0.12031525
0.13919388
0.16165549
0.18819564
0.21913234
0.25448857
0.29354273
0.334327
0.37286776
0.40230338
0.41218468
0.38895177
0.32133118
0.21549623
0.12684321
0.072846035
0.032510488
0.033749964
0.03520889
0.036935888
0.038989546
0.041441615
0.044378957
0.047901355
0.052139166
0.057236036
0.063360348
0.070712849
0.079532006
0.09010222
0.10276123
0.11792938
0.13605097
0.15762956
0.18315997
0.21300736
0.2472505
0.28531131
0.32544582
0.36400426
0.3945319
0.40697886
0.38799718
0.32538924
0.22321244
0.13266504
0.075734339
0.033589823
0.034819722
0.03625946
0.037954043
0.03995769
0.042337432
0.045175153
0.048566196
0.052634575
0.057520649
0.063387488
0.070429842
0.078878159
0.089006527
0.10114195
0.11567636
0.13305635
0.15376787
0.17830173
0.20704877
0.24016564
0.27718371
0.31657691
0.35501692
0.38646693
0.40131676
0.38648276
0.32900866
0.2309568
0.13917452
0.078929448
0.034595877
0.035818773
0.037243614
0.038911991
0.040874313
0.043192769
0.045944157
0.049219329
0.053134314
0.057826468
0.063452783
0.07020207
0.078297633
0.088004994
0.09964222
0.11359392
0.1302302
0.15008065
0.1736265
0.2012693
0.23325187
0.26918664
0.30775487
0.34594428
0.37814254
0.39521266
0.38439254
0.33215731
0.23870435
0.14629662
0.082460541
0.035526262
0.036742844
0.038154716
0.039800462
0.041727025
0.043992412
0.046668038
0.049840162
0.05361626
0.058130588
0.063533147
0.070006404
0.077766172
0.087067909
0.098213896
0.11155654
0.12751782
0.14655009
0.16914275
0.19573539
0.22653897
0.26134641
0.2990127
0.33682548
0.36959678
0.38868832
0.38171531
0.33478131
0.24643042
0.15395596
0.086830767
0.036396376
0.037605234
0.039003378
0.040626923
0.042519707
0.044735886
0.047342327
0.050420589
0.054068806
0.058418308
0.063611514
0.069824005
0.077263798
0.086176489
0.096850928
0.10962304
0.12492009
0.1431623
0.164829
0.19036664
0.22002004
0.25367871
0.29037877
0.32769831
0.36087024
0.38177336
0.37845365
0.33687384
0.25392374
0.16193367
0.093053991
0.037239069
0.038438184
0.03982088
0.041421312
0.043280515
0.045449082
0.04798951
0.050978892
0.054507541
0.058700362
0.06369435
0.069657435
0.076789972
0.085328831
0.095553044
0.10779072
0.12243073
0.1399036
0.16066938
0.18516901
0.21369408
0.24619375
0.28187628
0.31859756
0.35200406
0.37450391
0.3746253
0.33838718
0.2610745
0.1701844
0.10072826
0.038080313
0.0392686
0.040635085
0.042212252
0.044038573
0.046161326
0.048638849
0.051543218
0.054960162
0.059003536
0.063807219
0.069530213
0.076365359
0.084541431
0.094328697
0.10604599
0.12007055
0.1367822
0.15666246
0.18014056
0.20751587
0.23888455
0.27352065
0.30955376
0.34303798
0.36691921
0.37025877
0.33930141
0.26786991
0.17854139
0.10921734
0.03892689
0.040104805
0.041456145
0.043011799
0.044807901
0.046888661
0.049308484
0.052134558
0.055448116
0.059352054
0.063976826
0.069471901
0.076021785
0.083846967
0.093208781
0.10441455
0.11781969
0.13380618
0.15282477
0.17531155
0.20161054
0.2317899
0.26533548
0.30059682
0.3340107
0.35906039
0.36538707
0.33961072
0.27413564
0.18694008
0.11787864
0.039759355
0.040927895
0.042265884
0.043802629
0.045572188
0.047616011
0.049984897
0.052741441
0.055962387
0.059740274
0.064200984
0.069484142
0.075765264
0.083254754
0.092202414
0.10290073
0.11568386
0.13097521
0.14916526
0.17068896
0.19591317
0.2249189
0.25734358
0.29175722
0.32496113
0.3509705
0.36004304
0.33925073
0.27975837
0.19544398
0.12668024
0.040559111
0.041718596
0.043044173
0.044563656
0.046309298
0.048320127
0.050643734
0.053338542
0.056476627
0.060142817
0.064455233
0.06954571
0.075578617
0.082753909
0.091310159
0.10152884
0.11373843
0.12832294
0.14569606
0.16627376
0.19041847
0.21827939
0.24956651
0.28306577
0.31592869
0.34269407
0.35426963
0.33821789
0.28473276
0.20402952
0.13499727
0.04131894
0.042468138
0.043780387
0.045282218
0.047004338
0.048983679
0.051265025
0.053903091
0.056965159
0.060531455
0.064708308
0.069623442
0.075429658
0.082315783
0.09050923
0.10028091
0.11195086
0.12589522
0.14245371
0.16209269
0.18517308
0.21187562
0.24202041
0.27455029
0.30695152
0.33427473
0.3480984
0.33652399
0.28906978
0.21276407
0.14462935
0.042060063
0.043196924
0.044493687
0.045975877
0.047672854
0.049619728
0.051858834
0.054441634
0.057431152
0.060903534
0.06495417
0.069706779
0.075302748
0.081920186
0.089774907
0.099124645
0.11027262
0.12356443
0.13937932
0.15812108
0.18016148
0.20571461
0.2347101
0.26622953
0.29806299
0.32575488
0.34155755
0.33417579
0.29270681
0.22134337
0.15508238
0.042802523
0.043924942
0.045203967
0.046664317
0.048334137
0.050246904
0.052442762
0.054970267
0.057888612
0.061270196
0.065200566
0.069799387
0.075197812
0.081562448
0.089095998
0.098041851
0.10868529
0.12135073
0.13645081
0.15434072
0.17539254
0.19986731
0.22767289
0.25812985
0.28929555
0.31717653
0.33468908
0.33118358
0.29555216
0.22952439
0.16749614
0.043567946
0.044674692
0.045934724
0.047371997
0.04901353
0.050891305
0.05304348
0.055515964
0.058364465
0.0616571
0.065473754
0.06992446
0.075134345
0.081258419
0.088487072
0.097049686
0.10721884
0.11931267
0.13370188
0.15075237
0.1708396
0.19422875
0.22088634
0.25025933
0.28067466
0.30857841
0.32753349
0.32757166
0.29755312
0.23719761
0.17936426
0.044331094
0.045422107
0.046663267
0.048077749
0.049691531
0.051535213
0.053645122
0.05606473
0.058846528
0.062054429
0.065764294
0.07007529
0.07510829
0.081006869
0.08794955
0.096153409
0.10587886
0.11743324
0.13117192
0.1473981
0.16652865
0.18883971
0.21435834
0.2426347
0.27222663
0.29999807
0.32013494
0.32337849
0.29871957
0.24427909
0.19449842
0.045106089
0.046180984
0.047402973
0.048794476
0.050380505
0.052190395
0.054258795
0.056626969
0.059344484
0.062471416
0.066079842
0.070259048
0.075125374
0.080811555
0.087484904
0.095348577
0.10464643
0.11566437
0.12872066
0.14420315
0.16242862
0.18368554
0.20804352
0.23523517
0.26395954
0.2914656
0.3125391
0.3186534
0.29911437
0.25101938
0.21135944
0.045863174
0.04692149
0.048123923
0.04949219
0.051050421
0.052826798
0.054854457
0.057172659
0.059828322
0.062878028
0.066390353
0.070445591
0.075155641
0.080642856
0.087063027
0.094605472
0.10349816
0.11400954
0.12644647
0.14117608
0.1585276
0.1787854
0.2020791
0.2281209
0.25590758
0.28301773
0.30479476
0.31345314
0.29881646
0.25767611
0.22681118
0.046643378
0.047684319
0.048866365
0.05021057
0.051740234
0.053482467
0.055469005
0.057737271
0.060331764
0.063305872
0.06672423
0.070661794
0.075221764
0.080520091
0.086700996
0.093941479
0.10245506
0.11249645
0.12436408
0.13840185
0.15488215
0.17415101
0.19635862
0.22127704
0.24808529
0.27468763
0.29695324
0.30784081
0.29787635
0.26408207
0.23977128
0.047393553
0.048416923
0.049578463
0.050898587
0.052399819
0.054108276
0.056054405
0.058273945
0.060809179
0.063710586
0.067038978
0.070865657
0.075283721
0.080404783
0.086361879
0.093320028
0.10147898
0.11107771
0.12239473
0.13573848
0.15142363
0.16974503
0.19088333
0.21470964
0.24051412
0.26650946
0.28906629
0.30188211
0.29633317
0.26984333
0.25019625
0.048175423
0.049180672
0.050321112
0.051616526
0.053088692
0.054762777
0.056668016
0.058838579
0.061314709
0.064144212
0.067384404
0.071103115
0.075384536
0.080335707
0.086079249
0.092768536
0.10058924
0.10976286
0.12054723
0.13322784
0.14815559
0.16557582
0.18567665
0.20838215
0.23319577
0.25852038
0.28119812
0.29564763
0.29414165
0.27434201
0.25930335
0.048902258
0.049889496
0.051009037
0.052280058
0.05372363
0.055364032
0.057229368
0.059352353
0.061771338
0.064531664
0.067687409
0.071303194
0.075454971
0.080245357
0.085787177
0.092222629
0.09972358
0.10849543
0.11877905
0.13084894
0.1450097
0.16155389
0.18066703
0.20233552
0.22612047
0.25072173
0.27338896
0.28923881
0.291487
0.27797666
0.26711669
0.04967016
0.050639146
0.051737487
0.052983757
0.054398319
0.056004578
0.057829545
0.059904543
0.062266152
0.06495741
0.068029412
0.071543381
0.075569205
0.080203709
0.08555205
0.091746261
0.0989466
0.10734586
0.11717305
0.1286945
0.14221085
0.15787435
0.17599306
0.19660085
0.2193519
0.24318128
0.26573581
0.28280666
0.28854939
0.28085209
0.27360254
0.050348589
0.051299715
0.052377313
0.053599406
0.0549857
0.05655878
0.058344623
0.060373247
0.062679564
0.065304472
0.068296294
0.071712647
0.075620032
0.080105863
0.085271055
0.091236826
0.09815148
0.10619283
0.11557053
0.12652342
0.13930058
0.15422736
0.17146143
0.19109426
0.21283823
0.23582943
0.25813554
0.27619726
0.28501532
0.2823034
0.27769686
0.051098362
0.052032166
0.053089512
0.054287845
0.05564621
0.057186378
0.058933302
0.060915746
0.063167049
0.065726085
0.068638601
0.071958846
0.075749846
0.080091129
0.085078895
0.090824859
0.097466417
0.10516816
0.1141245
0.12455879
0.1367167
0.15087742
0.16723476
0.18586812
0.20655788
0.22880089
0.25083447
0.26968213
0.28107984
0.28243136
0.27997979
0.051707279
0.052625593
0.053664899
0.054842069
0.056175494
0.057686134
0.059397952
0.061338466
0.06353944
0.066037789
0.068876743
0.072107345
0.075789436
0.0799946
0.084814948
0.090352856
0.096734987
0.10411276
0.11266535
0.12260039
0.13415241
0.14758181
0.16306654
0.18076661
0.2005894
0.22188143
0.24344639
0.26279764
0.27630737
0.28132462
0.28104657
0.052376706
0.053280712
0.054303278
0.055460617
0.05677049
0.058253088
0.059931436
0.061831897
0.063984809
0.066425303
0.069194363
0.072340186
0.075919551
0.079997626
0.084662699
0.090009265
0.096155662
0.10324358
0.111442
0.12094961
0.13199321
0.14481196
0.15950857
0.17630026
0.19515207
0.21569208
0.23683927
0.25654929
0.27175913
0.27984077
0.28169498
0.052842942
0.053735757
0.054744965
0.055886123
0.057176352
0.058635046
0.06028424
0.062149072
0.064258359
0.066645351
0.069348705
0.072413716
0.075893854
0.07984907
0.084361061
0.089517864
0.095427438
0.10221955
0.110047
0.11908623
0.1295333
0.14158649
0.15556244
0.17151433
0.1894568
0.20906426
0.22956741
0.24937681
0.26602088
0.27709829
0.28207621
0.053292909
0.054176146
0.055174081
0.056301582
0.057575245
0.059013818
0.060638539
0.062473568
0.064546516
0.066889133
0.069538168
0.072536497
0.075934556
0.079789127
0.084175556
0.089178505
0.094898004
0.10145527
0.10899412
0.11768222
0.1277099
0.13928407
0.15258429
0.16779162
0.18496493
0.20392598
0.22405958
0.24403697
0.26182789
0.27513923
0.28172845
0.053510989
0.054387978
0.05537784
0.056494864
0.05775463
0.059175086
0.060776499
0.062581821
0.06461714
0.066912265
0.069501487
0.072424573
0.075728052
0.079465405
0.08370169
0.088517829
0.094003552
0.10026886
0.10744379
0.11568082
0.12515334
0.1360524
0.14861014
0.16296513
0.17916296
0.19707822
0.21635883
0.23616478
0.25490182
0.27040377
0.28005442
0.053546639
0.054418486
0.055402376
0.056512222
0.057763608
0.059174032
0.060763176
0.062553251
0.064569428
0.066840396
0.06939908
0.072283573
0.075538332
0.07921491
0.083373641
0.08809283
0.093456877
0.099569866
0.10655484
0.11455576
0.12373671
0.13427627
0.14635454
0.16005042
0.17570298
0.19325854
0.21245509
0.23223032
0.25154626
0.26866759
0.27665158
0.053315267
0.054183095
0.055161107
0.056262299
0.05750186
0.058896491
0.060465031
0.06222729
0.064206217
0.066427809
0.068921942
0.071722882
0.074870364
0.078410905
0.082399446
0.086902103
0.091993724
0.097766008
0.10432654
0.11180107
0.12033404
0.13009027
0.14125454
0.15407525
0.16855608
0.18479757
0.20261937
0.22176319
0.24118412
0.25857443
0.26868248
0.001616063
0.0018049932
0.0019840218
0.0021554001
0.0023221625
0.0025031798
0.0026912381
0.0028573912
0.0030676794
0.0033940738
0.0037808882
0.0042807644
0.0049188485
0.0056560028
0.0065231841
0.0075232402
0.0086421173
0.0098572436
0.011152417
0.01251376
0.013930376
0.015377095
0.016805953
0.018216198
0.019604788
0.020899503
0.022110495
0.023251421
0.024335641
0.025374304
0.026367565
0.027306645
0.028184703
0.029011909
0.029813846
0.030619065
0.031437942
0.032262712
0.033070633
0.033850455
0.00097477746
0.0011462137
0.0013352108
0.0015336531
0.0017755886
0.0020509268
0.0023676598
0.0027410014
0.0031851611
0.003694952
0.0042961146
0.0050154021
0.0058790583
0.0068771537
0.0079905564
0.0092030734
0.010494159
0.011846962
0.013249228
0.01469371
0.016167002
0.017636152
0.019076077
0.020521262
0.021882955
0.023159334
0.02436454
0.025507815
0.026599319
0.02764019
0.028622239
0.029537409
0.030393654
0.031215282
0.032032822
0.032860528
0.033693498
0.034509295
0.035294884
0.036053006
0.036807024
0.037575888
0.038372964
0.039167146
0.0399752
0.040768187
0.041587991
0.042378486
0.043202333
0.043970164
0.044778422
0.045494807
0.046277298
0.046906916
0.04758802
0.048046791
0.048478724
0.048651412
0.048646981
0.04835308
0.0011207319
0.0013297668
0.0015537027
0.0018385666
0.0021706218
0.0025565323
0.0030046721
0.0035278527
0.0041498721
0.004884076
0.005725802
0.0066827663
0.0077490061
0.0089129408
0.010160443
0.011475141
0.012840989
0.014246292
0.015684738
0.017147562
0.018616754
0.020062129
0.021521788
0.022918519
0.024238659
0.025490638
0.026679707
0.027814022
0.028894711
0.029913697
0.030861528
0.031743737
0.03258293
0.03341107
0.034246023
0.035085865
0.035908663
0.036699697
0.03745916
0.038210355
0.038972526
0.039761523
0.040547717
0.041346975
0.042130226
0.042939156
0.04371848
0.044530662
0.045286989
0.046083993
0.046789671
0.04756303
0.048186788
0.048864694
0.049325412
0.049761995
0.049947471
0.049952097
0.049675625
0.0021014598
0.0024048867
0.0027444348
0.0031316176
0.0035770039
0.0040913265
0.0046829046
0.0053574321
0.0061344116
0.0070074963
0.0079810501
0.0090505996
0.010208872
0.011442928
0.012739469
0.01408368
0.015462979
0.016871323
0.018298865
0.01973649
0.021168639
0.022608689
0.02400782
0.025350484
0.026631001
0.027851477
0.029017494
0.030129359
0.031178595
0.03215413
0.033058856
0.033913232
0.034750098
0.035590615
0.036435936
0.037264829
0.038061045
0.038822146
0.039571037
0.040327319
0.041109079
0.041888201
0.042679805
0.043454622
0.044254131
0.045023841
0.045825981
0.046572521
0.047359945
0.048056678
0.048822529
0.049441992
0.050118024
0.050581929
0.051024471
0.051223501
0.051239449
0.050981185
0.0036297831
0.0039877922
0.0043688477
0.0047832732
0.0052443682
0.0057648474
0.0063568184
0.0070273922
0.0077880633
0.0086411526
0.0095884395
0.010625923
0.011747405
0.012941829
0.014197505
0.015500523
0.016836864
0.018202012
0.019581673
0.02097102
0.022371437
0.023768005
0.0251491
0.026490966
0.027782331
0.029020027
0.03020648
0.031340655
0.032413257
0.033411375
0.034335047
0.035202159
0.03604588
0.036890302
0.037739731
0.038573848
0.039375022
0.040138177
0.040885461
0.041636811
0.042412358
0.043185513
0.043970799
0.044738682
0.045530438
0.046292299
0.047086255
0.047824949
0.048604724
0.049294516
0.050054754
0.050671735
0.051347525
0.05181614
0.052266251
0.052479695
0.052509755
0.052270231
)
;

boundaryField
{
    Side1
    {
        type            empty;
    }
    Inlet
    {
        type            calculated;
        value           nonuniform List<scalar> 
59
(
0.055017151
0.047750398
0.047750328
0.04775025
0.047750155
0.047750042
0.047749909
0.047749753
0.047749569
0.047749356
0.047749108
0.047748821
0.047748492
0.047748114
0.047747684
0.047747198
0.047746654
0.047746054
0.047745407
0.047744769
0.047744143
0.047743427
0.047742716
0.047741806
0.047740726
0.04775265
0.047752681
0.047752411
0.047751962
0.047751366
0.047750636
0.047749783
0.047748834
0.047747802
0.047746691
0.047745471
0.0477442
0.047742993
0.047741828
0.047740704
0.047739605
0.04773859
0.047737757
0.047737233
0.047737076
0.047737173
0.047737316
0.047737452
0.047738033
0.047725651
0.047739214
0.04773907
0.047739265
0.047739872
0.047740998
0.047742329
0.047743466
0.047743841
0.047743132
)
;
    }
    Side2
    {
        type            empty;
    }
    Outlet
    {
        type            zeroGradient;
    }
    Botwall
    {
        type            compressible::alphatWallFunction;
        value           nonuniform List<scalar> 0();
    }
    Cyli
    {
        type            compressible::alphatWallFunction;
        value           nonuniform List<scalar> 0();
    }
    procBoundary3to0
    {
        type            processor;
        value           nonuniform List<scalar> 7(0.0014322327 0.00085120421 0.00085120421 0.00093196627 0.00093196627 0.0018248452 0.0018248452);
    }
    procBoundary3to1
    {
        type            processor;
        value           nonuniform List<scalar> 
62
(
0.0026885871
0.0028841814
0.0030385627
0.0031695032
0.0032889889
0.003402508
0.0035089396
0.0036190772
0.003774444
0.0040152997
0.0042949479
0.0046807989
0.0051642948
0.0058012429
0.0065794511
0.0074708848
0.0084637339
0.0095637893
0.010763781
0.01204596
0.013394049
0.014766892
0.016117522
0.017464146
0.018753017
0.019956184
0.021081018
0.022142601
0.023156605
0.024134158
0.025073789
0.025965768
0.026803909
0.027599842
0.028379803
0.029170273
0.029978205
0.03079354
0.031593338
0.03236774
0.034605003
0.034605003
0.035362028
0.036137788
0.036943392
0.03774635
0.038564233
0.039368135
0.040200083
0.041003195
0.041840197
0.042621153
0.043442182
0.044170777
0.044963765
0.045600786
0.046286568
0.046744797
0.047173884
0.04733439
0.047323236
0.047013306
)
;
    }
    procBoundary3to2
    {
        type            processor;
        value           nonuniform List<scalar> 
35
(
0.10223447
0.069442712
0.054349838
0.10000204
0.12144883
0.14647553
0.175439
0.2086028
0.24606111
0.28758854
0.33244458
0.37913577
0.42505185
0.46612852
0.49634996
0.50743775
0.48893219
0.42982072
0.32656138
0.19660024
0.19660024
0.0056751492
0.0056751492
0.0081760222
0.011321675
0.015254392
0.020125249
0.026080313
0.033351879
0.042203441
0.05282334
0.065507379
0.080601303
0.080601303
0.0032833633
)
;
    }
}


// ************************************************************************* //
