/*--------------------------------*- C++ -*----------------------------------*\
| =========                 |                                                 |
| \\      /  F ield         | OpenFOAM: The Open Source CFD Toolbox           |
|  \\    /   O peration     | Version:  2406                                  |
|   \\  /    A nd           | Website:  www.openfoam.com                      |
|    \\/     M anipulation  |                                                 |
\*---------------------------------------------------------------------------*/
FoamFile
{
    version     2.0;
    format      ascii;
    arch        "LSB;label=32;scalar=64";
    class       volScalarField;
    location    "0.09";
    object      k;
}
// * * * * * * * * * * * * * * * * * * * * * * * * * * * * * * * * * * * * * //

dimensions      [0 2 -2 0 0 0 0];

internalField   nonuniform List<scalar> 
2065
(
1.6809175
0.84855783
0.51683683
458.14653
402.77667
347.68635
295.3141
247.25659
204.40942
167.05359
135.02402
107.88712
85.07409
65.996611
50.090398
36.873727
25.94106
16.959762
9.8337405
4.3988949
1.7063895
0.8577252
0.51787857
312.9472
384.09968
451.88827
511.63723
558.99175
590.28079
604.36391
601.9163
582.9074
549.82916
506.11854
455.53558
401.65846
347.59984
295.83484
248.08179
205.3254
167.93108
135.79866
108.53774
85.604742
66.422353
50.43077
37.146247
26.160023
17.133013
9.9744876
4.4937048
1.7343235
0.86768887
0.51930615
310.50368
376.94174
440.78719
497.67528
543.53335
574.84384
589.86923
589.30253
572.74652
542.30542
501.06576
452.56233
400.28317
347.34939
296.26717
248.87255
206.2413
168.82724
136.59993
109.21628
86.161331
66.870246
50.789902
37.434316
26.391901
17.316982
10.123611
4.5954577
1.7649987
0.87855963
0.52108906
308.34009
370.05411
429.92739
483.86988
528.07774
559.19829
575.06046
576.22777
562.06685
534.25706
495.53973
449.20578
398.62677
346.90305
296.59351
249.61726
207.1499
169.73815
137.42608
109.92231
86.743882
67.340673
51.168391
37.738513
26.637225
17.512297
10.281488
4.7046111
1.7987386
0.89046944
0.52326935
306.58271
363.64214
419.48719
470.3687
512.74954
543.46095
560.0294
562.75269
550.89979
525.69442
489.53351
445.44767
396.66696
346.25098
296.79533
250.30318
208.04299
170.65913
138.27488
110.65511
87.352509
67.834455
51.566786
38.059398
26.896498
17.7197
10.448516
4.8216382
1.8359295
0.90358735
0.52592078
305.38253
357.81767
409.57666
457.30299
497.67722
527.76665
544.85793
548.95104
539.28797
516.63577
483.04557
441.27323
394.3828
345.37181
296.85152
250.91664
208.91136
171.58472
139.14356
111.41362
87.987142
68.352565
51.985521
38.397497
27.170183
17.939855
10.625116
4.9470303
1.8770308
0.91813842
0.52912597
304.79207
352.6221
400.30782
444.78905
483.01161
512.21023
529.6338
534.90147
527.28356
507.10774
476.08151
436.67191
391.7554
344.24586
296.76664
251.44394
209.74478
172.50863
140.02877
112.19642
88.64744
68.89493
52.424896
38.753307
27.458699
18.173282
10.811732
5.0812988
1.9225886
0.93438185
0.53295335
304.84034
348.13339
391.74314
432.90631
468.83514
496.9142
514.45337
520.68805
514.94749
497.14643
468.65247
431.63689
388.76823
342.85244
296.5065
251.86867
210.53196
173.42374
140.92655
113.00166
89.332817
69.461153
52.88506
39.12729
27.762413
18.42053
11.008812
5.2249757
1.9732497
0.95264268
0.53745065
305.28342
344.31534
383.91859
421.72763
455.23421
481.98773
499.41549
506.3994
502.34758
486.79412
460.77742
426.16846
385.40818
341.17083
296.03172
252.17239
211.26057
174.32205
141.83226
113.82707
90.04245
70.051235
53.366751
39.519868
28.081643
18.682112
11.216787
5.3786147
2.0297752
0.97333119
0.54258295
306.32942
341.15629
376.82687
411.27856
442.26573
467.51619
484.61052
492.12383
489.55618
476.101
452.48364
420.27285
381.6665
339.18445
295.34004
252.33657
211.91748
175.19476
142.74064
114.66989
90.77525
70.665052
53.871024
39.931337
28.41677
18.958461
11.436065
5.542789
2.0930556
0.99693152
0.54833246
307.71401
338.52093
370.38722
401.52734
429.94461
453.55357
470.11162
477.94364
476.6469
465.12303
443.80476
413.96318
377.53954
336.87951
294.41369
252.3384
212.48935
176.03233
143.64573
115.52693
91.52981
71.302197
54.397662
40.361823
28.768414
19.249953
11.667023
5.718087
2.1641339
1.0240166
0.55467969
309.24995
336.26979
364.49901
392.41489
418.25685
440.12777
455.97345
463.92942
463.69104
453.91977
434.7819
407.25722
373.02673
334.24546
293.24007
252.20836
212.96486
176.82461
144.54093
116.39445
92.304379
71.962057
54.946017
40.811264
29.137322
19.556906
11.90997
5.9051018
2.2442169
1.0553005
0.56161574
310.78423
334.27067
359.05997
383.87192
407.16848
427.23697
442.2169
450.17032
450.75066
442.54979
425.45747
400.17882
368.13502
331.27536
291.80197
251.87729
213.32675
177.56056
145.41898
117.26826
93.096868
72.643851
55.516053
41.280421
29.524261
19.87924
12.165097
6.1044314
2.3346715
1.0916313
0.56916101
312.14718
332.36969
353.94297
375.80397
396.62193
414.86446
428.8711
436.70214
437.88966
431.07156
415.87779
392.75818
362.87673
327.96667
290.08635
251.33353
213.55827
178.22854
146.27208
118.14364
93.904838
73.346595
56.107644
41.770454
29.929147
20.216705
12.43288
6.3166536
2.4370103
1.1339518
0.57747284
313.19596
330.43919
349.03887
368.12688
386.56675
403.00386
415.94368
423.53714
425.16174
419.54174
406.09209
385.02942
357.26946
324.32198
288.08563
250.57656
213.64116
178.81686
147.09196
119.01541
94.725473
74.069024
56.720336
42.280891
30.351516
20.569648
12.713727
6.542277
2.5528551
1.1832635
0.58668488
313.82136
328.38087
344.2646
360.77689
376.96148
391.6343
403.44492
410.69383
412.61118
408.0138
396.15092
377.03187
351.33493
320.34703
285.79554
249.59737
213.58386
179.31624
147.87018
119.87795
95.555582
74.809596
57.353524
42.810849
30.791224
20.938422
13.008047
6.7817078
2.6838721
1.2406129
0.59693608
313.89188
326.08996
339.53285
353.68209
367.75109
380.7191
391.37728
398.18871
400.27462
396.53657
386.10373
368.80554
345.09921
316.05359
283.21579
248.38857
213.37756
179.71614
148.59793
120.7252
96.391594
75.566514
58.006516
43.360275
31.248388
21.323293
13.316251
7.0351978
2.8316655
1.3068718
0.60843504
313.54981
323.61547
334.84425
346.82407
358.91478
370.24593
379.74687
386.04206
388.18723
385.15639
375.99907
360.39232
338.59327
311.4586
280.3494
246.93965
212.97215
180.00173
149.26576
121.55071
97.229567
76.337715
58.678492
43.929147
31.724291
21.724121
13.638626
7.3027679
2.997609
1.3821571
0.62142184
312.58095
320.81849
330.10158
340.13097
350.401
360.18372
368.5446
374.26483
376.3765
373.91435
365.88359
351.83615
331.85065
306.5818
277.20327
245.2483
212.38324
180.16153
149.8641
122.34767
98.065192
77.120847
59.368404
44.517019
32.218807
22.139995
13.975086
7.5841801
3.1826244
1.4665322
0.6361576
311.01357
317.73349
325.33708
333.62884
342.22961
350.54967
357.79021
362.88383
364.87666
362.85352
355.8046
343.18186
324.90713
301.44725
273.78867
243.31502
211.60263
180.176
150.3833
123.1091
98.893834
77.913269
60.075
45.123386
32.730685
22.571088
14.325659
7.8790444
3.3869142
1.5590855
0.65312146
308.81523
314.29727
320.49432
327.284
334.39162
341.35461
347.50846
351.93416
353.7285
352.02066
345.81149
334.47663
317.80268
296.08158
270.11886
241.14389
210.63202
180.08489
150.82017
123.82841
99.710588
78.71206
60.796865
45.747789
33.259911
23.017752
14.691083
8.1867753
3.6097717
1.6579654
0.67301082
305.79934
310.34513
315.42951
320.98101
326.80707
332.55579
337.68979
341.43312
342.96505
341.46026
335.9538
325.76864
310.57787
290.5148
266.21179
238.74117
209.46636
179.84143
151.16413
124.49843
100.51023
79.514001
61.532397
46.389712
33.806531
23.478863
15.072478
8.5064371
3.8495379
1.7626311
0.69615842
301.80613
305.72265
310.00265
314.60327
319.39047
324.10288
328.31812
331.39492
332.61939
331.21862
326.28347
317.10852
303.27644
284.78073
262.08898
236.11546
208.1018
179.4305
151.40433
125.11143
101.28715
80.315529
62.279732
47.04848
34.370495
23.953216
15.469125
8.836876
4.1037004
1.8723389
0.72308966
296.61795
300.1942
303.97936
307.93721
311.96599
315.8688
319.31826
321.79355
322.70047
321.33
316.84821
308.54733
295.94506
278.91571
257.77398
233.27819
206.54101
178.86388
151.53255
125.65936
102.03533
81.112677
63.036648
47.72311
34.951551
24.441837
15.880458
9.1759362
4.3690949
1.988283
0.75339084
290.21466
293.66404
297.20617
300.79624
304.3427
307.68494
310.56297
312.55367
313.1783
311.80228
307.68065
300.12911
288.62807
272.95646
253.29227
230.24292
204.78724
178.13437
151.52802
126.13282
102.74825
81.901005
63.800445
48.412141
35.548938
24.945682
16.306022
9.5226274
4.6426566
2.1130121
0.78796324
282.74417
286.18941
289.65721
293.08468
296.37715
299.38898
301.90002
303.5575
303.97747
302.60373
298.78431
291.87963
281.36021
266.93622
248.66933
227.02472
202.84686
177.24793
151.43786
126.53183
103.42015
82.67566
64.567895
49.11359
36.161241
25.464603
16.745659
9.8786133
4.9227964
2.2491321
0.82816709
274.47892
277.95754
281.4327
284.82198
288.01752
290.87645
293.19888
294.67771
294.99441
293.66687
290.1292
283.79907
274.15997
260.87965
243.9245
223.63409
200.72283
176.19741
151.20969
126.84514
104.04391
83.431209
65.335298
49.825176
36.787324
25.998388
17.199666
10.248993
5.2101265
2.4013743
0.87576442
265.68409
269.19232
272.6948
276.10077
279.29019
282.11343
284.37938
285.81041
286.12544
284.90636
281.6589
275.86061
267.02306
254.79431
239.06983
220.0802
198.41605
174.97414
150.83028
127.06011
104.61085
84.161444
66.098498
50.544391
37.426011
26.546388
17.666973
10.628745
5.5071066
2.5757958
0.93359072
256.51993
260.041
263.56789
267.00705
270.23349
273.09202
275.39183
276.87453
277.27669
276.23279
273.30276
268.01888
259.92785
248.67542
234.10826
216.36563
195.9247
173.57268
150.30388
127.16194
105.11054
84.859225
66.852885
51.268567
38.076056
27.107995
18.14622
11.019648
5.8184333
2.777357
1.005895
247.05883
250.57305
254.11385
257.58711
260.86881
263.80137
266.19378
267.80026
268.36085
267.55356
264.97737
260.21023
252.83396
242.50237
229.03092
212.48736
193.24563
171.98585
149.61785
127.13943
105.53231
85.516745
67.593416
51.994882
38.73619
27.682691
18.637638
11.424841
6.1494426
3.0062101
1.0986075
237.38246
240.86559
244.40027
247.89515
251.22983
254.25147
256.7689
258.54627
259.31974
258.80236
256.61852
252.38164
245.705
236.25572
223.83078
208.4404
190.37233
170.20818
148.77233
127.0216
105.87499
86.127518
68.314855
52.720297
39.405118
28.270062
19.141372
11.845866
6.5058779
3.2618226
1.222145
227.64539
231.06679
234.56457
238.05355
241.41997
244.51756
247.16383
249.13138
250.14674
249.95392
248.193
244.5021
238.51894
229.92418
218.50449
204.22698
187.30701
168.23603
147.75203
126.74957
106.12177
86.682609
69.01126
53.441339
40.08136
28.869851
19.658116
12.286708
6.882162
3.5359547
1.3939015
218.07031
221.39675
224.82113
228.26715
231.62995
234.7723
237.52095
239.66349
240.92558
241.05814
239.72551
236.58161
231.28149
223.51586
213.06445
199.86176
184.06147
166.07382
146.55299
126.32511
106.26293
87.173278
69.6761
54.153875
40.762935
29.481693
20.188884
12.746896
7.2756855
3.8262441
1.6106872
208.82516
212.02989
215.34949
218.71756
222.03922
225.18813
228.00231
230.28111
231.76995
232.20973
231.29151
228.67803
224.03792
217.06901
207.54524
195.37471
180.65992
163.73767
145.18173
125.74897
106.26965
87.585573
70.301262
54.852811
41.446982
30.10449
20.734185
13.22581
7.6874774
4.1243414
1.8569926
199.97327
203.04146
206.23745
209.50404
212.75655
215.8802
218.72557
221.10503
222.78367
223.49775
222.96636
220.8559
216.84421
210.63382
201.99318
190.80821
177.13752
161.25382
143.6572
125.03965
106.2008
87.926104
70.882188
55.533004
42.129884
30.736308
21.293528
13.722767
8.1087929
4.4281757
2.1210686
191.44915
194.37577
197.44033
200.59353
203.7606
206.83841
209.69065
212.14375
213.98218
214.94274
214.7675
213.12958
209.7153
204.22898
196.43171
186.18879
173.51997
158.64393
141.9951
124.20113
106.01688
88.188389
71.414015
56.189418
42.807697
31.374786
21.865768
14.231979
8.5353638
4.7442913
2.3956725
183.19568
185.97947
188.90892
191.94153
195.01188
198.02819
200.86728
203.3701
205.33877
206.52108
206.67285
205.48095
202.6332
197.83738
190.84774
181.51003
169.80974
155.91519
140.20006
123.23
105.70603
88.364111
71.891023
56.817014
43.476446
32.017473
22.450943
14.753277
8.9724686
5.0828684
2.7078163
175.16947
177.80939
180.60038
183.50612
186.46991
189.4108
192.2185
194.74855
196.81873
198.19812
198.64118
197.86305
195.5536
191.41931
185.20793
176.74676
165.98934
153.05843
138.26902
122.12624
105.28118
88.443421
72.305964
57.410368
44.132053
32.661641
23.047604
15.288634
9.429027
5.4592999
3.0865746
167.43388
169.92611
172.57192
175.34088
178.1844
181.03179
183.78523
186.3148
188.45433
189.99445
190.69194
190.28857
188.47737
184.96747
179.50049
171.88611
162.04693
150.06097
136.18916
120.87862
104.72901
88.419716
72.649005
57.962241
44.769714
33.304323
23.653228
15.838731
9.9078127
5.8696237
3.5140725
160.01794
162.3591
164.85355
167.47644
170.18653
172.92262
175.59866
178.0988
180.27292
181.93273
182.84151
182.76644
181.41059
178.48434
173.72247
166.92069
157.97242
146.91282
133.95193
119.48193
104.05301
88.318222
72.924404
58.469015
45.384919
33.942137
24.26572
16.401703
10.403995
6.3008979
4.0026064
153.01914
155.20802
157.54741
160.01729
162.58288
165.19153
167.76811
170.21012
172.38299
174.11652
175.19269
175.38797
174.42697
172.02602
167.91763
161.88159
153.78636
143.62765
131.565
117.93589
103.23992
88.089479
73.116105
58.922317
45.97151
34.570252
24.88082
16.97384
10.911393
6.7491335
4.5056572
146.3107
148.35385
150.54368
152.86414
155.28604
157.76424
160.23333
162.6029
164.75289
166.52957
167.73683
168.15736
167.54166
165.61262
162.10326
156.78413
149.50052
140.21259
129.03261
116.24236
102.28811
87.740511
73.216889
59.31594
46.523549
35.183087
25.493445
17.550975
11.426674
7.2064577
5.12068
139.9729
141.87558
143.92001
146.09337
148.37123
150.71498
153.06784
155.3504
157.45603
159.24666
160.54674
161.1476
160.82388
159.30811
156.33943
151.68119
145.15909
136.70176
126.37514
114.4094
101.19822
87.266124
73.204655
59.634348
47.031458
35.774057
26.098654
18.130052
11.95151
7.6848222
5.7978358
133.82348
135.5934
137.49977
139.53253
141.67143
143.88365
146.12015
148.31148
150.36333
152.15226
153.52185
154.27365
154.2053
153.06084
150.58636
146.54284
140.7413
133.08049
123.58523
112.43511
99.972413
86.678903
73.126875
59.889334
47.494314
36.33934
26.692879
18.709073
12.488792
8.2016258
6.4442145
128.07006
129.71098
131.48212
133.37572
135.37505
137.45232
139.5653
141.65342
143.63356
145.39585
146.80005
147.66522
147.80136
146.97251
144.93261
141.44462
136.30744
129.39543
120.69679
110.34378
98.626283
85.979843
72.943507
60.072504
47.909099
36.876404
27.273899
19.286584
13.039612
8.7584781
7.0314436
122.41641
123.93697
125.58156
127.34441
129.21189
131.16062
133.15441
135.14068
137.04649
138.77441
140.19879
141.158
141.47059
140.92352
139.2797
136.30597
131.7951
125.60111
117.67709
108.11047
97.140319
85.153979
72.652042
60.181917
48.276164
37.385907
27.842337
19.863229
13.606283
9.345453
7.55855
117.21864
118.62306
120.14469
121.77925
123.51569
125.33433
127.20418
129.07964
130.8968
132.56952
133.98564
135.00122
135.44512
135.12549
133.81655
131.29209
127.34277
121.807
114.60946
105.79542
95.555407
84.227841
72.271461
60.21003
48.594813
37.870811
28.401512
20.439064
14.176303
9.9126425
8.0548694
111.96773
113.26501
114.67314
116.1892
117.80438
119.50235
121.25678
123.02837
124.7614
126.38006
127.78467
128.84774
129.40884
129.29629
128.29687
126.19334
122.77679
117.87479
111.38625
103.31757
93.812045
83.159241
71.777462
60.170451
48.865103
38.334591
28.961644
21.03079
14.773921
10.502802
8.5253019
107.27313
108.46794
109.76668
111.16741
112.66309
114.24007
115.87587
117.53654
119.17343
120.71978
122.08712
123.16207
123.79743
123.83749
123.08431
121.33089
118.3722
114.02972
108.1839
100.80976
92.007821
82.017232
71.211157
60.064944
49.091419
38.776757
29.524309
21.645787
15.40502
11.110001
8.9345861
102.31441
103.41409
104.61131
105.90511
107.2901
108.75512
110.28128
111.8395
113.3877
114.86753
116.20097
117.28711
117.99528
118.17897
117.66045
116.24279
113.72742
109.93294
104.72422
98.046736
89.959345
80.656551
70.468477
59.834202
49.235204
39.165906
30.059393
22.255172
16.032984
11.670243
9.2611963
98.130553
99.140875
100.24189
101.43335
102.71101
104.06555
105.48083
106.93171
108.38143
109.77867
111.05434
112.1184
112.85433
113.12578
112.77254
111.6094
109.44608
106.10232
101.4343
95.366228
87.922359
79.253097
69.642398
59.487813
49.251253
39.464954
30.532099
22.819557
16.619954
12.166273
9.5060185
93.366198
94.294355
95.307249
96.405306
97.585458
98.840235
100.15619
101.51195
102.8759
104.20345
105.43405
106.48813
107.26301
107.63208
107.45312
106.55332
104.75202
101.87185
97.761432
92.324597
85.5536
77.557677
68.576037
58.969591
49.189529
39.68791
30.945139
23.337591
17.165296
12.630627
9.7125113
89.703084
90.557771
91.491231
92.504203
93.594337
94.75539
95.975821
97.237044
98.511324
99.759298
100.9272
101.94395
102.71791
103.13176
103.05797
102.33511
100.79301
98.2597
94.582281
89.653585
83.442791
76.024098
67.592884
58.468111
49.068864
39.871367
31.325341
23.827162
17.686368
13.088357
9.9521608
84.932508
85.716631
86.574262
87.506679
88.512435
89.586724
90.720146
91.897159
93.094199
94.277441
95.400251
96.40042
97.197482
97.685999
97.750644
97.244816
96.009065
93.879387
90.70137
86.354646
80.784005
74.028248
66.24354
57.707916
48.803321
39.965413
31.660205
24.299973
18.206804
13.564728
10.268868
81.789663
82.518535
83.316461
84.1847
85.12225
86.125101
87.185119
88.288636
89.414735
90.533194
91.602135
92.565465
93.350324
93.86126
93.991041
93.606628
92.556974
90.684653
87.838949
83.895489
78.783025
72.51462
65.212778
57.120311
48.591063
40.056007
31.968454
24.738125
18.699489
14.041832
10.63927
76.77309
77.44318
78.177415
78.977473
79.841989
80.768129
81.74964
82.775623
83.82899
84.884593
85.907071
86.848444
87.645633
88.216554
88.461672
88.265568
87.489059
85.984331
83.603667
80.218715
75.742626
70.158594
63.547539
56.105981
48.140398
40.041724
32.256727
25.220247
19.271336
14.58551
11.004884
74.273014
74.906965
75.602322
76.360785
77.18222
78.064155
79.000904
79.982446
80.993027
82.00947
82.999187
83.917937
84.707452
85.292325
85.578195
85.458343
84.800401
83.46283
81.30199
78.188997
74.031843
68.800815
62.557813
55.471258
47.825684
40.003169
32.463171
25.556429
19.67202
15.015117
11.338313
68.156095
68.724959
69.350578
70.034355
70.776705
71.576095
72.428303
73.32552
74.255338
75.198995
76.130271
77.013226
77.800133
78.429275
78.822974
78.887075
78.506846
77.555148
75.894431
73.393501
69.948083
65.506459
60.094574
53.834794
46.949818
39.762034
32.642973
26.041035
20.286571
15.544076
11.576944
38.763705
44.990776
52.944519
62.734656
74.359144
87.809692
102.3128
116.96193
131.80626
147.13649
161.81504
176.05102
190.01893
203.55421
216.89058
229.7474
241.6979
252.34537
261.49176
268.95506
274.71322
278.47802
279.71021
278.91615
276.35458
271.50901
265.02884
257.48708
249.34508
240.94814
232.46556
223.91742
215.29265
206.6708
198.22201
190.12796
182.44738
175.13836
168.08359
161.23057
48.480429
58.296568
70.0861
82.875376
96.927474
111.42372
126.07951
140.31037
154.20361
167.52146
180.62162
193.88382
207.426
221.10246
234.15888
246.33457
257.1185
266.34123
273.87533
279.74349
283.82629
285.72871
285.4058
283.61676
279.49766
273.51541
266.26841
258.21095
249.72701
241.04374
232.22943
223.29476
214.31999
205.47442
196.9541
188.84508
181.12662
173.68885
166.4748
159.46002
152.72696
146.30357
140.26487
134.45187
128.95754
123.59643
118.59434
113.63743
109.09901
104.45681
100.33248
95.907967
92.212991
87.906576
84.638432
80.261412
77.409588
72.716358
70.396843
64.667818
85.317554
97.114013
108.66238
120.77119
133.20888
145.68863
158.07882
170.47986
182.98121
195.81669
208.7002
221.54342
234.07992
245.86239
256.69814
266.24645
274.35038
280.94099
286.05485
289.6475
291.49959
291.3173
289.84511
286.23733
280.7246
273.81012
265.91817
257.44466
248.65729
239.66654
230.50562
221.25701
212.08866
203.20843
194.72805
186.64896
178.87086
171.33427
164.00813
156.9698
150.24747
143.92306
137.84536
132.10267
126.51014
121.28846
116.12836
111.39856
106.57968
102.29079
97.711876
93.876723
89.438284
86.057438
81.566841
78.631969
73.846183
71.474058
65.635182
152.41906
161.27021
169.85878
178.50964
187.41101
196.65448
206.23757
215.88179
225.95779
235.98098
245.84308
255.34971
264.2878
272.43568
279.57749
285.58549
290.38891
294.03438
296.45624
297.56029
297.15106
295.51241
292.07522
286.91943
280.30071
272.59636
264.1887
255.36542
246.26869
236.95158
227.49848
218.07466
208.89675
200.09974
191.70755
183.63109
175.81009
168.20801
160.89714
153.90608
147.32285
141.00446
135.03548
129.23176
123.80915
118.46293
113.5573
108.57613
104.13551
99.414399
95.449494
90.889269
87.40377
82.808473
79.796534
74.925103
72.504934
66.563243
231.2726
235.23525
238.85876
242.3785
246.09142
250.13511
254.68325
259.61145
264.91888
270.45783
276.11172
281.65436
286.90429
291.68258
295.82168
299.19888
301.72013
303.46112
304.28917
304.17792
303.11896
300.89977
297.36488
292.34398
285.93124
278.39118
270.06776
261.24927
252.09689
242.67851
233.0786
223.45778
214.03817
204.97496
196.31423
187.97915
179.91016
172.06616
164.51449
157.28405
150.46835
143.93277
137.75918
131.76407
126.15891
120.64327
115.57714
110.44779
105.86812
101.01677
96.932408
92.260426
88.678263
83.986962
80.903924
75.953178
73.48988
67.452874
)
;

boundaryField
{
    Side1
    {
        type            empty;
    }
    Inlet
    {
        type            inletOutlet;
        inletValue      uniform 0.39740317;
        value           nonuniform List<scalar> 
59
(
0.51683683
0.39740317
0.39740317
0.39740317
0.39740317
0.39740317
0.39740317
0.39740317
0.39740317
0.39740317
0.39740317
0.39740317
0.39740317
0.39740317
0.39740317
0.39740317
0.39740317
0.39740317
0.39740317
0.39740317
0.39740317
0.39740317
0.39740317
0.39740317
0.39740317
0.39740317
0.39740317
0.39740317
0.39740317
0.39740317
0.39740317
0.39740317
0.39740317
0.39740317
0.39740317
0.39740317
0.39740317
0.39740317
0.39740317
0.39740317
0.39740317
0.39740317
0.39740317
0.39740317
0.39740317
0.39740317
0.39740317
0.39740317
0.39740317
0.39740317
0.39740317
0.39740317
0.39740317
0.39740317
0.39740317
0.39740317
0.39740317
0.39740317
0.39740317
)
;
    }
    Side2
    {
        type            empty;
    }
    Outlet
    {
        type            zeroGradient;
    }
    Botwall
    {
        type            kqRWallFunction;
        value           nonuniform List<scalar> 0();
    }
    Cyli
    {
        type            kqRWallFunction;
        value           nonuniform List<scalar> 0();
    }
    procBoundary3to0
    {
        type            processor;
        value           nonuniform List<scalar> 7(33.932323 41.978115 41.978115 74.224844 74.224844 142.95659 142.95659);
    }
    procBoundary3to1
    {
        type            processor;
        value           nonuniform List<scalar> 
62
(
41.623618
47.191271
53.824021
61.769055
71.252352
82.311698
94.991598
109.23107
124.64969
141.29747
157.80643
173.91864
189.14757
203.53274
216.99756
229.41284
240.46268
250.14012
258.37581
264.95243
269.8077
272.49042
272.62659
271.10054
267.46774
261.91474
255.01224
247.30274
239.21592
231.03995
222.87982
214.70808
206.49318
198.31295
190.33673
182.73198
175.53327
168.68151
162.05392
155.60253
154.55871
154.55871
148.16407
142.06904
136.3425
130.81861
125.59527
120.4864
115.7229
110.98674
106.65567
102.20514
98.258431
94.00071
90.456205
86.292296
83.145053
78.890654
76.12849
71.534036
69.272195
63.661252
)
;
    }
    procBoundary3to2
    {
        type            processor;
        value           nonuniform List<scalar> 
35
(
1.6596463
0.84028916
0.51601951
460.42227
403.6693
347.65583
294.7319
246.418
203.50896
166.20561
134.28299
107.26855
84.571721
65.593937
49.768985
36.616789
25.73515
16.796842
9.7013072
4.3117787
4.3117787
315.4748
315.4748
391.28517
463.00692
525.53035
574.25084
605.35759
618.37915
613.9936
592.50767
556.81704
510.70983
510.70983
226.47574
)
;
    }
}


// ************************************************************************* //
