/*--------------------------------*- C++ -*----------------------------------*\
| =========                 |                                                 |
| \\      /  F ield         | OpenFOAM: The Open Source CFD Toolbox           |
|  \\    /   O peration     | Version:  2406                                  |
|   \\  /    A nd           | Website:  www.openfoam.com                      |
|    \\/     M anipulation  |                                                 |
\*---------------------------------------------------------------------------*/
FoamFile
{
    version     2.0;
    format      ascii;
    arch        "LSB;label=32;scalar=64";
    class       volScalarField;
    location    "0.09";
    object      Ma;
}
// * * * * * * * * * * * * * * * * * * * * * * * * * * * * * * * * * * * * * //

dimensions      [0 0 0 0 0 0 0];

internalField   nonuniform List<scalar> 
2065
(
0.16094735
0.15733722
0.15177653
0.16127565
0.16266577
0.16364054
0.16426789
0.16463551
0.16483242
0.1649308
0.16499232
0.16506994
0.16518225
0.1653443
0.16554543
0.16573056
0.16580267
0.16563771
0.16492415
0.16324142
0.16102898
0.15738033
0.15179405
0.12070026
0.12612961
0.13076208
0.1350165
0.13906589
0.14296756
0.14669291
0.15017122
0.15334075
0.15614782
0.15854281
0.16049557
0.16200682
0.16310925
0.16385897
0.16433526
0.1646234
0.16479511
0.16491308
0.16503206
0.16517456
0.16535676
0.16557227
0.16576806
0.1658494
0.16569794
0.16500313
0.16334062
0.16111573
0.15742399
0.15181281
0.12108807
0.12631332
0.13076294
0.1348234
0.13866691
0.14236914
0.14592717
0.14929076
0.1524026
0.1552068
0.15764869
0.1596886
0.16131331
0.16254069
0.16341427
0.16400359
0.16438845
0.16463921
0.16481896
0.16498374
0.16516014
0.16536564
0.16559733
0.16580536
0.16589733
0.1657605
0.16508527
0.16344473
0.16120776
0.1574703
0.15183447
0.12143228
0.12645432
0.13072999
0.13460208
0.13825862
0.14178013
0.14518068
0.14842855
0.15147434
0.15426356
0.15673939
0.15885503
0.16058537
0.16193426
0.16293243
0.16363854
0.16412546
0.16446106
0.16470816
0.16492364
0.16513811
0.16537006
0.16561983
0.16584195
0.16594613
0.16582507
0.16517037
0.16355376
0.1613053
0.1575211
0.15186042
0.12169203
0.12648901
0.13061093
0.13431798
0.13781025
0.14117202
0.14443006
0.14756807
0.15054582
0.15331284
0.15581277
0.15799426
0.1598227
0.16128927
0.16241209
0.1632382
0.16383225
0.16425851
0.16457874
0.16485017
0.16510705
0.16536928
0.16563935
0.16587743
0.16599565
0.16589127
0.16525826
0.16366775
0.16140849
0.15757512
0.15189131
0.12180099
0.12639252
0.13034313
0.1339213
0.13728241
0.14051233
0.14364912
0.14668981
0.14960395
0.15234692
0.15486496
0.15710475
0.15902467
0.16060506
0.16185205
0.16280081
0.16350674
0.16402942
0.1644287
0.16476155
0.16506501
0.16536213
0.16565541
0.16591115
0.16604544
0.16595847
0.16534866
0.16378662
0.16151746
0.15763384
0.15192791
0.12168924
0.12609211
0.12991136
0.13338382
0.13664208
0.13976992
0.14281115
0.14577282
0.14863377
0.15135623
0.1538907
0.156184
0.1581902
0.15988085
0.1612512
0.16232472
0.16314691
0.16377164
0.16425596
0.16465595
0.16501058
0.16534674
0.16566704
0.16594242
0.16609505
0.16602639
0.16544129
0.1639103
0.16163232
0.15769779
0.15197104
0.12132817
0.12555877
0.12928381
0.13267666
0.13586102
0.1389173
0.14189109
0.14479624
0.14761949
0.15032995
0.15288345
0.15522868
0.15731779
0.15911582
0.16060861
0.16180851
0.16275091
0.16348308
0.16405841
0.16453144
0.16494253
0.16532228
0.16567309
0.1659704
0.16614392
0.16609493
0.16553591
0.16403859
0.16175308
0.15776742
0.15202163
0.12069112
0.12478531
0.12842956
0.13176947
0.1349119
0.13792931
0.14086621
0.1437407
0.14654585
0.14925711
0.15183603
0.15423491
0.15640568
0.15830916
0.15992351
0.16125101
0.16231707
0.16316176
0.16383399
0.16438606
0.1648592
0.16528714
0.16567256
0.16599464
0.16619125
0.16616385
0.1656322
0.16417124
0.16187976
0.15784325
0.15208064
0.11972824
0.12371414
0.12731267
0.1306363
0.13377309
0.13678656
0.13971879
0.14259054
0.14539986
0.14812788
0.15074196
0.15319889
0.15545212
0.15746014
0.15919538
0.16065137
0.16184405
0.16280592
0.16358072
0.16421784
0.16475876
0.16523897
0.16566429
0.16601496
0.16623654
0.16623231
0.16572975
0.1643079
0.16201228
0.15792588
0.15214905
0.11848647
0.12238175
0.12595504
0.12928675
0.13244561
0.1354846
0.13844133
0.14133701
0.14417304
0.14693517
0.14959625
0.15211779
0.1544558
0.15656845
0.15842413
0.16000918
0.16133088
0.16241405
0.16329677
0.16402484
0.16463931
0.1651763
0.16564599
0.16603014
0.16627966
0.16629944
0.16582807
0.16444811
0.16215052
0.15801565
0.15222792
0.11698243
0.12081403
0.12438261
0.12774224
0.13094471
0.13403252
0.13703767
0.1399802
0.1428634
0.14567632
0.14839651
0.15099021
0.15341644
0.15563444
0.1576103
0.15932462
0.16077709
0.16198504
0.16298054
0.16380523
0.16449904
0.16509813
0.16561702
0.16603827
0.16631722
0.16636444
0.16592652
0.16459121
0.1622943
0.15811275
0.15231847
0.11527851
0.1190617
0.12263811
0.12603856
0.12929911
0.13245198
0.13552297
0.13852981
0.14147652
0.14435429
0.14714434
0.14981712
0.15233531
0.15465968
0.15675532
0.15859867
0.16018286
0.16151829
0.1626308
0.16355739
0.16433618
0.16500286
0.16557555
0.16603744
0.16634827
0.16642695
0.16602449
0.16473625
0.16244336
0.15821756
0.15242204
0.11344846
0.11719216
0.120781
0.1242267
0.12755124
0.130777
0.13392341
0.13700509
0.14002592
0.1429783
0.1458461
0.1486033
0.15121609
0.15364729
0.15586179
0.15783316
0.15954916
0.1610138
0.16224675
0.16327997
0.16414907
0.16488871
0.16551886
0.1660268
0.16637416
0.16648556
0.16612109
0.16488277
0.16259736
0.15833075
0.15253996
0.11158001
0.11528299
0.11887938
0.12236568
0.12575135
0.12904945
0.13227302
0.13543293
0.13853213
0.14156363
0.14451306
0.14735727
0.15006543
0.15260246
0.15493381
0.15703116
0.1588779
0.16047237
0.16182817
0.16297198
0.16393626
0.16475403
0.16544575
0.16600422
0.16639274
0.16653855
0.16621509
0.16502994
0.1627558
0.15845266
0.15267321
0.10973061
0.11338946
0.11698622
0.12050542
0.12394554
0.12731087
0.1306081
0.13384413
0.13702051
0.14013051
0.14316099
0.14609114
0.14889276
0.15153264
0.15397724
0.1561971
0.15817213
0.15989569
0.16137554
0.16263293
0.16369662
0.16459738
0.16535577
0.1659696
0.1664025
0.16658409
0.16630518
0.16517657
0.16291802
0.15858321
0.15282229
0.10796807
0.1115743
0.11515938
0.1186989
0.12218187
0.12560437
0.12896684
0.13227191
0.13551938
0.13870251
0.1418091
0.14482025
0.1477101
0.15044749
0.15299977
0.15533692
0.1574362
0.1592865
0.16089017
0.16226296
0.16342941
0.16441753
0.16524755
0.16592132
0.16640195
0.16662123
0.16638982
0.16532126
0.1630831
0.15872418
0.15298694
0.1063468
0.10988707
0.11344498
0.11698928
0.12050064
0.12396738
0.12738364
0.13074754
0.13405666
0.13730404
0.14047823
0.1435621
0.14653194
0.14935872
0.15201087
0.15445811
0.15667572
0.15864864
0.16037427
0.16186288
0.16313441
0.16421354
0.16511958
0.16585639
0.16639109
0.16664976
0.16646701
0.16546247
0.16324995
0.15887442
0.15316423
0.10493334
0.10838901
0.11189775
0.11542457
0.11894377
0.12243667
0.12589108
0.1293001
0.13265848
0.13595847
0.13918908
0.14233475
0.14537386
0.14827948
0.15102144
0.15356952
0.15589751
0.15798709
0.15983106
0.16143434
0.16281198
0.16398483
0.16497062
0.1657732
0.16636784
0.16667107
0.16653448
0.16559839
0.16341739
0.15903056
0.15333889
0.10371621
0.10707338
0.11051663
0.11400909
0.11752004
0.12102451
0.12450399
0.12794621
0.13134247
0.13468372
0.13795917
0.14115475
0.14425105
0.14722332
0.15004313
0.15268095
0.1551095
0.1573079
0.15926475
0.16097984
0.16246319
0.16373137
0.16479991
0.16567219
0.16633134
0.16668215
0.16659053
0.16572721
0.16358423
0.15919359
0.15351089
0.10273016
0.10596519
0.10931941
0.11275554
0.11623908
0.1197392
0.12323077
0.12669528
0.13011947
0.13349198
0.13680168
0.14003567
0.1431768
0.14620294
0.14908767
0.15180265
0.1543204
0.15661799
0.15868046
0.16050276
0.16208981
0.16345366
0.16460703
0.16555248
0.16627839
0.16668058
0.16663598
0.16584748
0.16374933
0.15935976
0.15370809
0.10201753
0.10511013
0.10834979
0.11170205
0.11513155
0.11860376
0.12208796
0.12555933
0.12899903
0.13239208
0.13572572
0.13898737
0.14216165
0.14522904
0.1481656
0.15094464
0.15353916
0.15592498
0.15808411
0.16000727
0.16169439
0.16315279
0.16439186
0.1654129
0.16620635
0.1666638
0.16667215
0.1659578
0.16391171
0.15952892
0.15390588
0.10156703
0.10449877
0.10760101
0.11084422
0.11419453
0.11761589
0.1210734
0.12453643
0.12798001
0.13138427
0.13473349
0.13801416
0.14121191
0.14430945
0.1472856
0.15011587
0.15277437
0.15523651
0.15748213
0.15949824
0.16128016
0.16283046
0.16415472
0.16525237
0.16611277
0.16663065
0.16669686
0.16605591
0.16407064
0.15969716
0.15416652
0.10137849
0.10413644
0.10708132
0.11019104
0.11343587
0.11678084
0.12018914
0.12362566
0.12705956
0.13046523
0.13382253
0.13711545
0.14032931
0.14344828
0.14645365
0.14932348
0.15203365
0.15455999
0.15688109
0.15898099
0.16085097
0.16248896
0.1638964
0.16507013
0.16599574
0.16658096
0.16670918
0.16613942
0.16422569
0.15986629
0.15449623
0.101429
0.10400805
0.10678303
0.10973997
0.11285594
0.11609973
0.1194352
0.12282495
0.12623348
0.12962942
0.13298723
0.13628682
0.13951157
0.14264578
0.14567246
0.14857219
0.15132302
0.15390194
0.15628728
0.15846105
0.16041111
0.16213114
0.16361827
0.16486608
0.16585472
0.16651301
0.16670722
0.16620647
0.16437529
0.16005821
0.1546203
0.10169673
0.10409098
0.10669188
0.10948409
0.11245295
0.11557363
0.11881331
0.12213484
0.12550004
0.12887284
0.13222212
0.13552262
0.1387541
0.14189939
0.14494191
0.14786414
0.1506465
0.15326763
0.15570636
0.15794379
0.15996513
0.16176034
0.16332242
0.16464134
0.16569238
0.16642153
0.16668603
0.16625797
0.16451745
0.160264
0.15462663
0.10215461
0.10436361
0.10678371
0.10940851
0.1122199
0.11520104
0.11832506
0.12155764
0.12486041
0.12819442
0.13152381
0.13481784
0.1380515
0.14120452
0.14425943
0.14719922
0.15000604
0.15266065
0.15514303
0.15743418
0.15951759
0.16138028
0.16301156
0.16439799
0.16551195
0.16630889
0.16664527
0.16629259
0.16465126
0.16047683
0.15471002
0.1027523
0.10479188
0.10703597
0.10948783
0.11213999
0.11497302
0.11796717
0.12109354
0.12431601
0.12759497
0.13089136
0.13416967
0.13739972
0.14055695
0.14362135
0.14657524
0.14940162
0.15208293
0.15460066
0.15693637
0.15907276
0.16099482
0.16268882
0.16413836
0.16531407
0.16617325
0.16657952
0.16630775
0.16476783
0.16069146
0.1548427
0.10346106
0.10534312
0.10742391
0.10970802
0.11219698
0.11487927
0.11773545
0.12074234
0.1238687
0.12707662
0.1303258
0.13357727
0.1367961
0.13995291
0.14302389
0.14598936
0.14883197
0.151535
0.15408136
0.15645361
0.1586345
0.16060779
0.16235757
0.16386503
0.16509971
0.16601828
0.16649369
0.16630041
0.16486367
0.16090033
0.15501522
0.10425798
0.10599466
0.10792283
0.11004988
0.11237886
0.11490961
0.11762432
0.12050476
0.12352359
0.12664629
0.12983367
0.1330453
0.13624277
0.13939222
0.14246543
0.14543932
0.14829515
0.15101619
0.15358599
0.15598817
0.15820602
0.16022279
0.16202124
0.16358083
0.16487039
0.16584491
0.16638385
0.16626905
0.1649362
0.1611062
0.1552252
0.10514647
0.10674878
0.10853404
0.11051174
0.11268774
0.11506285
0.1176357
0.12038122
0.12328131
0.12630573
0.1294175
0.13257615
0.13574107
0.13887462
0.14194424
0.14492312
0.14778956
0.15052551
0.15311475
0.1555415
0.15778984
0.15984303
0.16168323
0.1632888
0.1646282
0.16565449
0.16625123
0.16621039
0.16497923
0.16131238
0.15546928
0.10611932
0.10759774
0.10924977
0.11108639
0.11311571
0.11534147
0.1177619
0.12037345
0.12314623
0.12606039
0.12908298
0.13217503
0.1352951
0.13840276
0.14146144
0.14444025
0.14731387
0.15006191
0.15266734
0.15511449
0.15738791
0.15947133
0.16134672
0.16299205
0.16437568
0.1654491
0.16609958
0.16612422
0.16498604
0.1615115
0.15573998
0.1071556
0.10852049
0.11004943
0.1117544
0.11364525
0.11572834
0.11800513
0.12047125
0.12311949
0.12591703
0.12883954
0.13185185
0.13491366
0.13798336
0.14102141
0.14399292
0.14686873
0.14962536
0.15224382
0.15470774
0.15700176
0.15911
0.16101457
0.16269352
0.16411533
0.16523039
0.16592919
0.16600931
0.16496623
0.16169449
0.15603334
0.10824192
0.10950358
0.11091976
0.11250299
0.11426433
0.11621211
0.11835061
0.12067863
0.1231887
0.12586753
0.12868314
0.13160594
0.13459842
0.13761918
0.14062684
0.14358323
0.14645533
0.14921622
0.15184434
0.15432172
0.15663253
0.15876089
0.1606892
0.16239575
0.16384931
0.16499934
0.16573872
0.16587478
0.16491702
0.16185344
0.15634766
0.10935391
0.11052229
0.11183591
0.11330753
0.11494895
0.11676991
0.11877693
0.12097184
0.12335047
0.12590284
0.12860644
0.131433
0.13434738
0.13730959
0.14027773
0.14321124
0.14607367
0.14883444
0.15146882
0.15395664
0.15628081
0.15842522
0.16037237
0.16210076
0.16357945
0.16475726
0.1655293
0.16571283
0.16484444
0.16198733
0.15668972
0.11048625
0.11157028
0.11279062
0.11416001
0.11569065
0.11739324
0.11927595
0.1213431
0.12359375
0.12602046
0.12861145
0.13133377
0.1341606
0.13705449
0.13997389
0.14287668
0.14572349
0.14847972
0.15111688
0.15361221
0.15594678
0.15810365
0.16006517
0.16180992
0.16330722
0.16450564
0.16530392
0.165527
0.16474874
0.16209093
0.15704452
0.11162667
0.11263443
0.11377007
0.1150461
0.11647488
0.11806769
0.11983389
0.12177971
0.12390687
0.12621122
0.12868143
0.13130234
0.13403766
0.1368564
0.13971899
0.14258299
0.14540685
0.14815281
0.15078867
0.15328825
0.15563023
0.15779621
0.15976791
0.16152372
0.16303322
0.16424536
0.16506525
0.16532636
0.16462884
0.16216233
0.15737978
0.11278375
0.11372221
0.11478057
0.11597103
0.11730587
0.11879669
0.12045368
0.12228453
0.1242932
0.12647856
0.12883303
0.13134214
0.13398201
0.13671897
0.1395165
0.14233302
0.14512598
0.14785486
0.15048418
0.15298424
0.15533047
0.15750229
0.15948018
0.16124202
0.16275761
0.16397704
0.16481315
0.16510384
0.16448031
0.16220099
0.15770248
0.11395525
0.11483062
0.1158184
0.1169304
0.11817869
0.11957495
0.12112989
0.12285228
0.12474781
0.12681779
0.1290578
0.13145634
0.1339969
0.13664465
0.1393685
0.14212862
0.14488226
0.14758705
0.15020415
0.15270005
0.15504679
0.15722103
0.15920136
0.16096467
0.16248093
0.16370165
0.16454574
0.16485564
0.1642962
0.1621964
0.15801399
0.11514905
0.11596649
0.11688931
0.11792885
0.11909687
0.120405
0.12186418
0.12348388
0.12527108
0.12722903
0.12935597
0.13164367
0.13407645
0.1366355
0.13927915
0.1419748
0.14468053
0.14735305
0.14995081
0.15243673
0.15477937
0.15695205
0.15893102
0.16069182
0.16220396
0.16342026
0.16426373
0.16458289
0.16407485
0.16216588
0.15831906
0.11634428
0.11710974
0.11797405
0.11894806
0.1200431
0.12127055
0.12264139
0.12416551
0.12585085
0.12770222
0.12972011
0.13189927
0.13422736
0.1366845
0.1392459
0.14187061
0.14452053
0.14715254
0.1497236
0.15219368
0.15452756
0.15669499
0.15866934
0.16042422
0.16192774
0.16313484
0.16397092
0.1642918
0.16382192
0.1620918
0.15860181
0.11754084
0.11825808
0.11906807
0.11998116
0.12100826
0.12216049
0.12344879
0.12488333
0.12647272
0.12822301
0.13013649
0.13221043
0.13443569
0.13679578
0.13926744
0.14181552
0.14440246
0.14698634
0.14952319
0.15197088
0.15429101
0.1564494
0.15841605
0.16016208
0.16165421
0.16284856
0.16367252
0.16399193
0.16355662
0.16198184
0.15883444
0.11872583
0.11939923
0.12015978
0.12101729
0.12198225
0.12306538
0.12427745
0.12562869
0.12712812
0.12878263
0.13059597
0.13256747
0.13469065
0.1369521
0.13933081
0.14180075
0.1443201
0.14685054
0.14934793
0.15176806
0.15406916
0.15621408
0.15816977
0.15990461
0.16138389
0.16256348
0.16337291
0.16369065
0.16329605
0.16185656
0.15898175
0.11991798
0.12055062
0.12126514
0.12207084
0.12297773
0.12399615
0.12513657
0.12640917
0.12782322
0.12938626
0.13110317
0.13297506
0.13499786
0.13716111
0.13944708
0.14182995
0.14427681
0.14674663
0.14919686
0.15158263
0.15385996
0.1559884
0.15793118
0.15965378
0.16111894
0.16228082
0.16307441
0.16339168
0.16304397
0.16171334
0.15902528
0.1210816
0.12167724
0.12234992
0.12310846
0.12396237
0.12492157
0.12599622
0.12719632
0.12853122
0.13000889
0.13163507
0.13341221
0.1353382
0.13740506
0.13959795
0.14189454
0.14426628
0.14667122
0.14906955
0.15141554
0.15366368
0.15577056
0.1576956
0.15940127
0.16085034
0.16199945
0.16277876
0.16309303
0.1627879
0.16153295
0.15899516
0.12226389
0.12282416
0.12345686
0.12417033
0.1249736
0.12587617
0.12688782
0.12801834
0.12927707
0.13067224
0.13221025
0.13389467
0.13572506
0.13769569
0.13979443
0.14200179
0.14429042
0.14662661
0.14896717
0.15126757
0.15348126
0.15556244
0.15746772
0.15915621
0.16058702
0.16171329
0.16247634
0.16279023
0.16252179
0.16131982
0.15894859
0.12338967
0.12391861
0.12451582
0.12518918
0.12594729
0.12679918
0.12775427
0.12882206
0.13001175
0.13133171
0.13278875
0.13438728
0.13612819
0.13800762
0.14001576
0.1421358
0.1443433
0.1466072
0.14888551
0.15113558
0.15330997
0.15536088
0.1572424
0.15891079
0.16032278
0.16143093
0.16217089
0.16247041
0.1622388
0.16108189
0.15890205
0.12456044
0.12505812
0.12561998
0.12625348
0.12696676
0.12776844
0.12866753
0.12967323
0.13079456
0.13203992
0.13341642
0.13492911
0.13657999
0.13836684
0.14028195
0.1423111
0.14443265
0.14661731
0.14882914
0.15102317
0.15315227
0.15516749
0.15702032
0.15866414
0.16005335
0.16113907
0.16186492
0.16213097
0.16189881
0.16079659
0.15872838
0.12563613
0.12610662
0.12663768
0.12723641
0.12791055
0.12866834
0.12951831
0.13046935
0.13153027
0.13270938
0.13401396
0.13544948
0.13701877
0.13872086
0.14054979
0.14249358
0.14453294
0.14664066
0.14878225
0.15091591
0.15299463
0.15496892
0.15678857
0.15840394
0.15976677
0.16082728
0.16153751
0.1618171
0.16155091
0.16048844
0.15844439
0.12678853
0.12723036
0.12772905
0.12829132
0.12892447
0.12963629
0.13043502
0.13132916
0.13232723
0.13343744
0.13466714
0.13602213
0.13750586
0.13911846
0.14085535
0.14270668
0.14465605
0.14667911
0.14874372
0.15080996
0.15283172
0.15475869
0.15653887
0.15812063
0.15945338
0.16048696
0.16117404
0.16144584
0.16116252
0.16017468
0.15835578
0.12778472
0.12820262
0.1286742
0.12920588
0.12980462
0.13047789
0.13123345
0.13207933
0.1330239
0.13407507
0.13524011
0.13652505
0.13793384
0.13946739
0.14112244
0.14289053
0.14475692
0.1466996
0.14868838
0.15068533
0.15264646
0.15452257
0.15626139
0.15781003
0.1591165
0.16012878
0.16079318
0.16105983
0.16080189
0.15998563
0.15840077
0.12892856
0.1293189
0.12975936
0.1302559
0.13081501
0.13144369
0.13214939
0.13293991
0.13382315
0.13480685
0.13589819
0.13710325
0.1384263
0.13986941
0.1414311
0.14310431
0.144876
0.14672643
0.14863026
0.15055176
0.15244851
0.15427202
0.15597024
0.15748962
0.15877667
0.15977841
0.16044015
0.16071106
0.16049382
0.1597926
0.15835764
0.12977748
0.13014621
0.13056227
0.13103142
0.13155987
0.13215432
0.13282195
0.13357022
0.13440678
0.13533915
0.13637432
0.1375183
0.13877542
0.14014791
0.14163513
0.14323204
0.14492801
0.14670636
0.14853898
0.15039552
0.15223597
0.15401426
0.15567988
0.15717947
0.15845842
0.15946312
0.16014135
0.16043939
0.16025821
0.15957962
0.15819264
0.13090909
0.13124881
0.13163229
0.13206489
0.13255246
0.13310131
0.1337182
0.1344103
0.13518503
0.13604976
0.13701157
0.1380769
0.13925092
0.14053592
0.14193173
0.14343496
0.14503669
0.14672129
0.1484732
0.15025772
0.15203747
0.15376822
0.15540034
0.15688068
0.158155
0.15916806
0.15985879
0.16016558
0.16000538
0.15932167
0.15787928
0.13147474
0.13179828
0.13216379
0.13257638
0.13304169
0.13356584
0.13415538
0.13481723
0.13555855
0.13638663
0.13730856
0.13833067
0.13945825
0.14069491
0.14204144
0.14349415
0.14504389
0.14667492
0.14836758
0.15010105
0.151839
0.15353662
0.15514278
0.15660426
0.15786605
0.15887308
0.15956332
0.15985815
0.15967375
0.15894519
0.15751105
0.13269721
0.13299264
0.13332623
0.13370266
0.13412702
0.13460485
0.13514213
0.13574527
0.136421
0.13717624
0.13801791
0.1389526
0.13998615
0.14112314
0.14236608
0.14371461
0.1451645
0.14670695
0.14832161
0.14997805
0.15164423
0.15328191
0.15484324
0.15627344
0.15751397
0.15850577
0.15918479
0.15947484
0.15929973
0.15860914
0.15719125
0.13309477
0.1333828
0.13370815
0.13407544
0.13448961
0.13495604
0.13548047
0.13606895
0.13672776
0.13746328
0.13828177
0.1391892
0.14019093
0.14129122
0.14249243
0.14379427
0.14519299
0.14667945
0.1482358
0.14984184
0.1514666
0.15307266
0.15461778
0.15604814
0.15730157
0.15830533
0.15899032
0.15929338
0.1591455
0.15846436
0.15708658
0.13415301
0.13442206
0.13472613
0.13506959
0.13545711
0.13589389
0.13638546
0.13693775
0.13755695
0.13824938
0.13902129
0.13987856
0.14082636
0.14186868
0.14300776
0.14424351
0.14557298
0.14698889
0.14848486
0.1500359
0.15159739
0.15311675
0.15453739
0.15583563
0.15704315
0.15804398
0.15873822
0.15909141
0.15899356
0.1584158
0.15728607
0.012915369
0.014932741
0.017210096
0.019861486
0.022999775
0.026899229
0.031500866
0.036648437
0.042270577
0.048041113
0.053696703
0.058872868
0.063266336
0.066811551
0.06949494
0.071427214
0.07279835
0.073804096
0.074571795
0.075263748
0.075961478
0.076774057
0.077755097
0.078915347
0.080252516
0.081775597
0.083428813
0.085184732
0.086992727
0.088810007
0.090606802
0.092377519
0.094119369
0.095855557
0.097585888
0.09929604
0.10097873
0.10261702
0.10421749
0.10577595
0.029480503
0.033421609
0.038177556
0.04329943
0.048645611
0.054207971
0.059880107
0.065394963
0.070410658
0.074809876
0.078403499
0.081069867
0.082884289
0.083970097
0.084476056
0.084556275
0.084434083
0.08418099
0.083954224
0.083828387
0.083877714
0.084122413
0.084630235
0.085356622
0.086330751
0.087496623
0.08882323
0.090257689
0.091751694
0.09326882
0.094795685
0.096323391
0.097869679
0.099432068
0.10099419
0.10254682
0.10407102
0.10557033
0.10703871
0.10849214
0.10993137
0.11136868
0.11277881
0.1141738
0.11553822
0.11689666
0.11821015
0.11953629
0.12078766
0.1220861
0.12327063
0.12454137
0.12563332
0.12689454
0.12783141
0.12909251
0.12972715
0.13107559
0.13149084
0.13263191
0.064613858
0.069173185
0.073635266
0.077864209
0.08182371
0.085468226
0.088721331
0.091444565
0.093574722
0.095053528
0.095912727
0.096126489
0.095907438
0.095306613
0.094430162
0.093473816
0.092488045
0.091584982
0.090835586
0.090301598
0.089977206
0.089946291
0.090157
0.090650016
0.091379281
0.092313748
0.093402266
0.094593509
0.095846438
0.097141452
0.098464398
0.099828185
0.10122848
0.10264718
0.10407344
0.10548654
0.10688725
0.10826776
0.10964185
0.11100954
0.11238185
0.11373465
0.11507668
0.1163932
0.11770711
0.1189805
0.12026794
0.1214856
0.12274946
0.12390454
0.12514306
0.12620894
0.12743802
0.12835075
0.12957646
0.13019112
0.13150584
0.13191557
0.13303384
0.096765606
0.09892444
0.10090279
0.10265616
0.10417828
0.10545331
0.1063911
0.1069543
0.10704281
0.10679935
0.10613121
0.10510007
0.1038375
0.10240743
0.10093764
0.099482643
0.098129391
0.096942551
0.095985997
0.09524047
0.094778388
0.094593557
0.094683082
0.095029858
0.095614774
0.096390521
0.097304546
0.098312953
0.099391658
0.10052226
0.10171356
0.10295987
0.10424174
0.10554706
0.10685355
0.10815954
0.10945551
0.11075327
0.11205208
0.1133618
0.11465949
0.11595063
0.11722116
0.11849245
0.11972746
0.12097803
0.12216357
0.12339466
0.12452188
0.12572997
0.12677133
0.12797009
0.12886022
0.13005234
0.130649
0.13193122
0.13233656
0.13343341
0.11222829
0.11301376
0.11380868
0.11453023
0.11513512
0.11559165
0.11577738
0.11568128
0.11528746
0.11451438
0.11344816
0.11208249
0.11050441
0.10879051
0.10704042
0.10531255
0.10368081
0.10220526
0.10095304
0.09990805
0.099120498
0.098618506
0.098389312
0.098426333
0.098700794
0.099197843
0.09986252
0.1006485
0.10152863
0.10248128
0.10351189
0.10461393
0.105767
0.10695809
0.10816363
0.10937978
0.11059548
0.11182072
0.113054
0.1143042
0.11554949
0.11679231
0.11801921
0.11925017
0.12044888
0.1216647
0.12281996
0.12402031
0.12512144
0.12630108
0.12731958
0.12849002
0.12935922
0.13051967
0.13110042
0.13235141
0.13275363
0.13383038
)
;

boundaryField
{
    Side1
    {
        type            empty;
    }
    Inlet
    {
        type            calculated;
        value           nonuniform List<scalar> 
59
(
0.15048105
0.1508321
0.15084151
0.15085232
0.1508652
0.15088046
0.15089846
0.15091962
0.15094441
0.15097332
0.15100687
0.15104561
0.15109016
0.15114119
0.15119932
0.15126499
0.1513384
0.15141942
0.15150678
0.15159273
0.15167711
0.15177407
0.15187121
0.15199979
0.15216094
0.15221822
0.15221793
0.15225679
0.15232059
0.15240437
0.15250687
0.15262636
0.15275918
0.15290363
0.15305916
0.15322921
0.15340626
0.15357421
0.1537363
0.15389263
0.15404526
0.15418607
0.15430147
0.15437417
0.1543958
0.15438225
0.15436245
0.15434389
0.15426537
0.15413874
0.15409864
0.15411942
0.15409234
0.15400826
0.15385126
0.15366682
0.15350852
0.15345586
0.15355324
)
;
    }
    Side2
    {
        type            empty;
    }
    Outlet
    {
        type            calculated;
        value           nonuniform List<scalar> 
35
(
0.13415301
0.13442206
0.13472613
0.13506959
0.13545711
0.13589389
0.13638546
0.13693775
0.13755695
0.13824938
0.13902129
0.13987856
0.14082636
0.14186868
0.14300776
0.14424351
0.14557298
0.14698889
0.14848486
0.1500359
0.15159739
0.15311675
0.15453739
0.15583563
0.15704315
0.15804398
0.15873822
0.15909141
0.15899356
0.1584158
0.15728607
0.13263191
0.13303384
0.13343341
0.13383038
)
;
    }
    Botwall
    {
        type            calculated;
        value           nonuniform List<scalar> 0();
    }
    Cyli
    {
        type            calculated;
        value           nonuniform List<scalar> 0();
    }
    procBoundary3to0
    {
        type            processor;
        value           nonuniform List<scalar> 7(0.011073478 0.026027338 0.026027338 0.060025858 0.060025858 0.094434457 0.094434457);
    }
    procBoundary3to1
    {
        type            processor;
        value           nonuniform List<scalar> 
62
(
0.0077718037
0.0084180842
0.0092402872
0.010286381
0.011647676
0.01356212
0.016132756
0.01956831
0.023801254
0.028704909
0.034073677
0.039591815
0.044832252
0.049575742
0.053624848
0.056956261
0.059685302
0.061976224
0.063939284
0.065733712
0.067434221
0.069173236
0.07100519
0.072922082
0.074942359
0.0770658
0.079243637
0.081454857
0.083654779
0.085808427
0.087894382
0.089916034
0.091877281
0.093807261
0.095708374
0.097568573
0.099382798
0.10113631
0.10283887
0.10448824
0.1073107
0.1073107
0.10882325
0.1103272
0.11179624
0.11324567
0.1146594
0.11606383
0.11741877
0.1187851
0.12007149
0.12140608
0.12262141
0.123926
0.12504542
0.12634044
0.12730292
0.12860103
0.12925754
0.13064086
0.13106262
0.13222791
)
;
    }
    procBoundary3to2
    {
        type            processor;
        value           nonuniform List<scalar> 
35
(
0.16087048
0.15729963
0.15176511
0.1620283
0.16329013
0.16413534
0.16464263
0.16490641
0.16501768
0.1650483
0.16505833
0.16509866
0.16518448
0.16532901
0.16551721
0.16569301
0.16575712
0.16557979
0.16484835
0.163147
0.163147
0.12033195
0.12033195
0.12594769
0.13074967
0.13520385
0.13948523
0.14360319
0.14749926
0.15108375
0.15429647
0.15709013
0.15942262
0.15942262
0.11143852
)
;
    }
}


// ************************************************************************* //
