/*--------------------------------*- C++ -*----------------------------------*\
| =========                 |                                                 |
| \\      /  F ield         | OpenFOAM: The Open Source CFD Toolbox           |
|  \\    /   O peration     | Version:  2406                                  |
|   \\  /    A nd           | Website:  www.openfoam.com                      |
|    \\/     M anipulation  |                                                 |
\*---------------------------------------------------------------------------*/
FoamFile
{
    version     2.0;
    format      ascii;
    arch        "LSB;label=32;scalar=64";
    class       volScalarField;
    location    "0.09";
    object      rho;
}
// * * * * * * * * * * * * * * * * * * * * * * * * * * * * * * * * * * * * * //

dimensions      [1 -3 0 0 0 0 0];

internalField   nonuniform List<scalar> 
2065
(
1.204015
1.2032735
1.2017383
1.1940801
1.1949216
1.1958128
1.1967214
1.1976254
1.1985111
1.199357
1.2001456
1.2008813
1.201547
1.2021489
1.2027004
1.2031883
1.2036159
1.2040009
1.204308
1.2043682
1.2040054
1.2032616
1.2017915
1.1897419
1.1900588
1.1903429
1.1905989
1.1908524
1.1911248
1.1914396
1.1918163
1.1922715
1.1928167
1.1934557
1.1941835
1.1949858
1.1958422
1.1967239
1.1976085
1.1984805
1.1993186
1.2001048
1.2008401
1.2015097
1.2021178
1.2026716
1.2031633
1.2035958
1.203978
1.2042876
1.2043546
1.2039953
1.2032499
1.2018346
1.1898463
1.1901773
1.1904799
1.1907599
1.1910403
1.1913328
1.1916573
1.1920326
1.1924749
1.1929964
1.1936034
1.1942943
1.195059
1.1958807
1.1967342
1.1975976
1.1984541
1.1992828
1.2000653
1.2007996
1.2014719
1.2020847
1.2026413
1.2031369
1.2035744
1.203953
1.2042657
1.2043401
1.2039849
1.2032386
1.2018711
1.1899425
1.1902852
1.1906064
1.1909117
1.1912147
1.191526
1.191862
1.1922395
1.1926734
1.193176
1.1937553
1.1944125
1.1951413
1.1959286
1.1967529
1.1975934
1.1984327
1.1992502
1.2000274
1.2007599
1.2014342
1.2020512
1.2026093
1.2031088
1.2035515
1.2039268
1.2042422
1.2043246
1.2039744
1.2032281
1.201903
1.1900463
1.1903904
1.1907226
1.1910555
1.1913804
1.1917096
1.1920579
1.1924397
1.1928684
1.193356
1.1939114
1.1945381
1.1952329
1.1959864
1.1967807
1.1975967
1.198417
1.1992216
1.1999918
1.2007211
1.2013949
1.2020164
1.2025777
1.203079
1.203527
1.2039013
1.204217
1.2043081
1.2039636
1.2032182
1.201931
1.1901501
1.1904984
1.190859
1.1912061
1.1915462
1.1918907
1.1922506
1.1926373
1.1930626
1.193538
1.1940726
1.1946715
1.1953343
1.1960545
1.1968181
1.1976082
1.1984078
1.1991976
1.1999591
1.2006838
1.2013552
1.2019797
1.2025459
1.2030481
1.203501
1.2038781
1.2041905
1.2042906
1.2039528
1.2032082
1.2019557
1.1902771
1.1906509
1.1910187
1.1913714
1.1917218
1.1920778
1.1924465
1.192837
1.1932594
1.1937241
1.19424
1.1948134
1.1954457
1.1961334
1.196866
1.1976288
1.1984059
1.1991791
1.19993
1.2006486
1.2013178
1.201943
1.2025121
1.203016
1.2034738
1.203856
1.2041627
1.2042721
1.2039417
1.2031987
1.2019772
1.190483
1.1908462
1.1912063
1.1915606
1.1919167
1.1922791
1.1926527
1.1930445
1.193463
1.1939172
1.1944156
1.1949648
1.1955681
1.1962239
1.196925
1.1976593
1.1984123
1.199167
1.1999053
1.2006161
1.2012823
1.2019073
1.2024782
1.2029832
1.203445
1.2038323
1.2041337
1.2042524
1.2039305
1.2031901
1.2019955
1.1907217
1.1910705
1.1914265
1.1917806
1.1921378
1.1925016
1.1928756
1.1932653
1.1936776
1.1941203
1.1946012
1.1951271
1.1957021
1.1963265
1.1969958
1.1977006
1.1984279
1.1991619
1.1998857
1.2005869
1.2012488
1.2018703
1.2024437
1.2029522
1.2034127
1.203805
1.2041034
1.2042315
1.203919
1.2031826
1.2020107
1.1910257
1.1913549
1.1916995
1.192045
1.1923953
1.1927536
1.1931221
1.193505
1.1939077
1.1943368
1.1947993
1.1953016
1.1958487
1.196442
1.1970792
1.1977533
1.1984533
1.199165
1.199872
1.2005617
1.2012175
1.2018335
1.2024078
1.2029216
1.2033755
1.2037747
1.2040719
1.2042094
1.2039071
1.2031764
1.202023
1.1913918
1.1917
1.1920273
1.1923574
1.1926942
1.1930403
1.1933973
1.1937681
1.1941571
1.1945697
1.195012
1.19549
1.1960087
1.1965709
1.1971757
1.1978182
1.1984895
1.1991768
1.1998652
1.2005414
1.2011892
1.2018002
1.202373
1.2028886
1.2033393
1.2037427
1.204039
1.2041859
1.2038948
1.2031718
1.2020327
1.1918214
1.1921042
1.1924091
1.1927185
1.1930359
1.1933641
1.193704
1.1940577
1.1944286
1.1948214
1.1952412
1.1956935
1.1961833
1.196714
1.1972858
1.1978959
1.1985371
1.1991983
1.1998659
1.2005266
1.2011646
1.2017699
1.2023399
1.202854
1.2033082
1.2037105
1.2040046
1.2041608
1.2038819
1.2031684
1.2020404
1.1923029
1.1925578
1.1928372
1.1931225
1.193417
1.1937231
1.1940416
1.194374
1.1947232
1.195093
1.1954879
1.1959129
1.1963729
1.1968715
1.1974099
1.1979867
1.1985966
1.1992302
1.199875
1.2005181
1.2011443
1.2017423
1.2023057
1.2028185
1.2032798
1.2036769
1.203968
1.2041336
1.2038684
1.2031659
1.2020465
1.1928262
1.193052
1.1933036
1.1935626
1.1938316
1.1941128
1.1944069
1.194715
1.1950396
1.1953839
1.1957519
1.1961482
1.1965775
1.1970435
1.1975481
1.198091
1.1986685
1.1992728
1.199893
1.2005166
1.2011289
1.2017177
1.2022726
1.2027842
1.2032501
1.20364
1.2039294
1.204104
1.2038539
1.2031639
1.2020512
1.193365
1.1935641
1.1937894
1.1940233
1.1942674
1.1945237
1.1947928
1.1950755
1.1953743
1.1956918
1.1960318
1.1963985
1.1967964
1.1972294
1.1977
1.1982086
1.1987529
1.1993268
1.1999206
1.2005228
1.2011192
1.2016971
1.2022444
1.2027526
1.2032172
1.2036012
1.2038892
1.2040718
1.2038384
1.2031617
1.2020549
1.19391
1.1940842
1.1942843
1.1944941
1.1947143
1.1949465
1.1951911
1.1954489
1.1957219
1.1960126
1.1963245
1.1966616
1.1970281
1.1974282
1.1978648
1.198339
1.1988496
1.1993921
1.1999582
1.2005372
1.2011158
1.2016808
1.2022198
1.2027229
1.2031836
1.2035623
1.2038475
1.204037
1.2038216
1.2031587
1.2020589
1.1944421
1.1945944
1.1947721
1.1949604
1.1951592
1.1953697
1.195592
1.1958267
1.1960755
1.1963407
1.1966256
1.196934
1.1972701
1.197638
1.1980411
1.1984813
1.1989582
1.1994686
1.2000058
1.2005602
1.2011191
1.2016694
1.2021984
1.2026936
1.2031507
1.2035251
1.2038042
1.2039998
1.2038031
1.2031544
1.2020648
1.1949558
1.1950878
1.1952445
1.1954129
1.1955924
1.1957834
1.1959859
1.1962002
1.1964274
1.1966697
1.1969298
1.1972114
1.1975188
1.1978561
1.198227
1.198634
1.1990776
1.1995559
1.2000635
1.2005919
1.2011296
1.2016634
1.2021803
1.2026635
1.2031192
1.2034904
1.20376
1.2039602
1.2037825
1.2031482
1.2020697
1.1954329
1.1955488
1.195688
1.1958398
1.1960031
1.1961779
1.1963639
1.196561
1.19677
1.1969925
1.1972309
1.1974888
1.1977701
1.1980791
1.1984198
1.1987951
1.1992065
1.199653
1.2001308
1.2006324
1.2011474
1.2016632
1.2021663
1.2026391
1.2030894
1.2034549
1.2037175
1.2039189
1.2037593
1.2031398
1.2020741
1.1958661
1.1959682
1.1960928
1.1962309
1.1963811
1.1965431
1.1967164
1.1969003
1.1970951
1.1973019
1.1975227
1.1977605
1.1980193
1.1983031
1.1986162
1.1989621
1.1993429
1.1997587
1.2002069
1.2006813
1.2011727
1.201669
1.2021568
1.2026187
1.2030571
1.2034202
1.2036799
1.2038767
1.2037329
1.2031285
1.202072
1.1962781
1.1963653
1.1964742
1.1965975
1.1967339
1.196883
1.1970441
1.1972164
1.1973994
1.1975935
1.1978002
1.1980218
1.1982617
1.198524
1.1988128
1.1991321
1.1994846
1.1998713
1.2002907
1.2007381
1.2012052
1.2016809
1.202152
1.2026016
1.2030243
1.2033866
1.203643
1.203834
1.2037029
1.2031125
1.2020402
1.1966454
1.1967205
1.1968159
1.1969264
1.1970508
1.197189
1.1973401
1.197503
1.1976771
1.1978619
1.1980581
1.1982674
1.1984927
1.1987374
1.1990058
1.1993019
1.199629
1.1999887
1.2003808
1.2008017
1.2012446
1.201699
1.2021522
1.2025878
1.2029922
1.2033538
1.2036058
1.2037903
1.2036687
1.2030896
1.2019847
1.1969777
1.1970432
1.1971261
1.1972241
1.1973369
1.1974643
1.1976058
1.1977603
1.1979269
1.1981046
1.1982933
1.1984938
1.1987082
1.1989395
1.1991915
1.1994682
1.1997731
1.2001087
1.2004754
1.2008711
1.20129
1.2017229
1.2021573
1.2025777
1.2029625
1.2033199
1.2035688
1.2037453
1.2036303
1.2030586
1.2018858
1.1972776
1.1973361
1.1974083
1.1974944
1.1975954
1.1977119
1.1978437
1.1979899
1.1981495
1.1983212
1.1985043
1.1986987
1.1989056
1.1991271
1.1993666
1.1996277
1.1999141
1.2002286
1.2005725
1.2009447
1.2013406
1.2017521
1.2021675
1.2025715
1.2029371
1.2032868
1.2035321
1.2036978
1.2035878
1.2030219
1.2016423
1.197554
1.197601
1.1976659
1.1977416
1.197831
1.1979363
1.1980578
1.1981951
1.1983473
1.1985132
1.1986914
1.1988813
1.199083
1.1992979
1.1995284
1.1997777
1.2000492
1.200346
1.2006699
1.2010208
1.2013953
1.2017861
1.2021825
1.2025697
1.2029189
1.203258
1.2034951
1.2036487
1.2035415
1.2029904
1.2012236
1.1978174
1.1978509
1.1979031
1.197971
1.19805
1.1981438
1.1982541
1.1983814
1.1985251
1.1986841
1.1988571
1.1990428
1.1992407
1.199451
1.1996752
1.1999158
1.2001759
1.2004584
1.2007655
1.2010977
1.2014525
1.201824
1.202202
1.2025727
1.2029098
1.2032315
1.2034559
1.2036016
1.2034922
1.2029657
1.2009937
1.1980595
1.1980887
1.1981282
1.1981834
1.1982544
1.1983377
1.1984366
1.198553
1.198687
1.1988379
1.1990045
1.1991855
1.1993796
1.1995864
1.1998063
1.2000409
1.2002925
1.2005639
1.2008573
1.2011735
1.201511
1.2018646
1.2022253
1.2025801
1.2029056
1.2032061
1.203421
1.2035594
1.2034421
1.2029462
1.2008219
1.1982854
1.1983105
1.1983447
1.1983881
1.1984466
1.1985215
1.1986099
1.1987148
1.1988379
1.1989792
1.1991379
1.1993128
1.1995024
1.1997057
1.1999221
1.2001524
1.200398
1.2006611
1.2009437
1.2012467
1.2015691
1.2019068
1.2022516
1.2025911
1.2029048
1.2031886
1.203393
1.2035177
1.203393
1.2029295
1.2006888
1.1984993
1.1985197
1.1985488
1.1985862
1.1986332
1.198696
1.1987757
1.1988699
1.1989815
1.1991119
1.1992612
1.1994284
1.1996122
1.1998111
1.2000241
1.2002509
1.2004921
1.200749
1.2010233
1.2013157
1.2016257
1.2019496
1.20228
1.2026052
1.2029069
1.2031757
1.2033655
1.2034757
1.2033468
1.202912
1.200581
1.1987022
1.1987188
1.198743
1.1987749
1.1988154
1.1988667
1.1989349
1.1990202
1.199121
1.19924
1.1993787
1.1995366
1.1997128
1.199906
1.2001146
1.2003378
1.2005753
1.2008275
1.2010954
1.2013796
1.2016795
1.2019917
1.2023094
1.2026216
1.2029115
1.2031661
1.2033419
1.2034352
1.2033024
1.2028913
1.2004978
1.1988953
1.1989091
1.1989293
1.1989564
1.1989916
1.1990358
1.1990921
1.1991643
1.199254
1.1993623
1.1994903
1.1996384
1.1998061
1.1999924
1.2001957
1.2004148
1.2006486
1.200897
1.2011601
1.201438
1.2017297
1.2020323
1.2023391
1.2026396
1.2029181
1.2031589
1.2033232
1.2033985
1.2032595
1.2028695
1.2004416
1.1990713
1.1990831
1.1991003
1.1991235
1.1991539
1.1991929
1.1992419
1.1993058
1.1993872
1.1994848
1.1996014
1.1997384
1.1998962
1.2000739
1.2002705
1.2004844
1.2007141
1.2009588
1.2012179
1.2014907
1.201776
1.2020709
1.2023685
1.2026587
1.2029262
1.2031536
1.2033066
1.2033638
1.2032186
1.202851
1.2004116
1.1992335
1.1992442
1.1992595
1.1992799
1.1993066
1.1993413
1.1993855
1.1994406
1.1995116
1.199601
1.1997078
1.1998345
1.1999822
1.200151
1.20034
1.2005478
1.2007729
1.2010138
1.2012692
1.2015379
1.2018182
1.2021067
1.2023969
1.2026783
1.2029355
1.2031496
1.2032891
1.2033256
1.2031826
1.202838
1.200406
1.1993795
1.1993896
1.1994036
1.1994221
1.1994461
1.1994772
1.1995171
1.1995676
1.1996304
1.19971
1.1998089
1.1999263
1.2000644
1.2002241
1.200405
1.2006062
1.200826
1.2010627
1.2013145
1.2015798
1.2018562
1.2021398
1.2024241
1.2026981
1.2029462
1.2031474
1.2032729
1.2032961
1.2031534
1.2028259
1.2004258
1.1995139
1.1995236
1.1995367
1.1995536
1.1995755
1.1996036
1.1996395
1.1996853
1.1997428
1.1998142
1.1999036
1.200013
1.2001421
1.2002928
1.2004654
1.2006595
1.2008735
1.2011057
1.2013541
1.2016163
1.2018896
1.2021697
1.2024495
1.2027178
1.2029583
1.2031485
1.2032628
1.203277
1.2031264
1.2028149
1.2004667
1.1996394
1.1996488
1.1996612
1.199677
1.1996972
1.1997229
1.1997556
1.1997973
1.1998499
1.1999153
1.1999964
1.200096
1.2002161
1.2003578
1.2005221
1.2007085
1.2009162
1.2011435
1.2013881
1.2016474
1.2019181
1.2021957
1.2024725
1.202737
1.2029719
1.2031535
1.2032589
1.2032632
1.2031019
1.2028102
1.2005215
1.1997562
1.1997654
1.1997772
1.1997921
1.1998109
1.1998346
1.1998646
1.1999025
1.1999504
1.2000103
1.2000841
1.2001759
1.2002881
1.2004209
1.200576
1.2007542
1.2009548
1.2011764
1.2014168
1.2016731
1.2019417
1.2022174
1.2024925
1.202755
1.2029868
1.203163
1.2032611
1.203255
1.2030851
1.202814
1.2005883
1.1998654
1.1998746
1.1998862
1.1999004
1.1999182
1.1999403
1.199968
1.2000029
1.2000467
1.2001016
1.2001697
1.2002534
1.2003565
1.2004811
1.2006274
1.2007969
1.2009898
1.2012051
1.2014407
1.2016937
1.2019602
1.2022348
1.2025094
1.2027715
1.2030027
1.2031773
1.2032703
1.2032552
1.2030781
1.2028242
1.200673
1.1999635
1.1999729
1.1999845
1.1999986
1.2000159
1.2000371
1.2000635
1.2000962
1.200137
1.2001879
1.2002511
1.2003289
1.2004238
1.2005389
1.2006764
1.2008374
1.2010223
1.2012307
1.2014608
1.20171
1.2019744
1.2022482
1.2025231
1.2027866
1.2030193
1.2031954
1.2032864
1.203265
1.2030805
1.2028392
1.200776
1.2000521
1.2000619
1.2000736
1.2000877
1.2001046
1.2001251
1.2001502
1.2001811
1.2002192
1.2002665
1.2003251
1.2003973
1.2004855
1.2005934
1.2007232
1.2008758
1.2010525
1.2012536
1.2014779
1.201723
1.201985
1.2022583
1.2025343
1.2028001
1.2030362
1.2032159
1.2033078
1.2032847
1.203096
1.2028734
1.2008854
1.2001221
1.2001321
1.200144
1.200158
1.2001748
1.200195
1.2002194
1.2002491
1.2002856
1.2003305
1.2003859
1.2004541
1.2005376
1.2006387
1.2007612
1.2009071
1.2010768
1.2012713
1.2014902
1.2017316
1.2019919
1.2022651
1.2025427
1.2028118
1.2030532
1.2032381
1.2033336
1.2033137
1.2031273
1.20293
1.2009849
1.200185
1.2001952
1.200207
1.2002209
1.2002374
1.2002571
1.2002807
1.2003093
1.2003441
1.2003866
1.2004389
1.2005032
1.2005819
1.2006778
1.2007933
1.2009314
1.2010942
1.2012826
1.2014965
1.2017343
1.201993
1.2022669
1.2025473
1.2028208
1.2030687
1.2032613
1.2033631
1.2033493
1.2031692
1.2029922
1.2010715
1.2002297
1.20024
1.2002519
1.2002659
1.2002823
1.2003017
1.2003248
1.2003526
1.2003861
1.2004269
1.2004767
1.2005376
1.2006122
1.200703
1.2008129
1.2009454
1.2011025
1.2012849
1.2014937
1.2017282
1.2019855
1.2022603
1.202544
1.2028233
1.2030791
1.2032817
1.2033934
1.2033877
1.2032196
1.2030707
1.2011256
1.200264
1.2002744
1.2002864
1.2003004
1.2003167
1.2003359
1.2003585
1.2003855
1.2004179
1.2004571
1.2005047
1.2005628
1.2006336
1.20072
1.2008248
1.2009505
1.2011003
1.2012768
1.2014807
1.2017115
1.201967
1.2022424
1.2025293
1.2028147
1.2030796
1.2032936
1.2034175
1.2034209
1.2032633
1.2031284
1.2011917
1.200276
1.2002867
1.2002989
1.2003131
1.2003296
1.2003488
1.2003714
1.2003981
1.2004299
1.200468
1.2005141
1.2005699
1.2006378
1.2007204
1.2008205
1.2009412
1.2010863
1.2012576
1.2014561
1.2016824
1.2019349
1.2022095
1.2024983
1.2027888
1.2030621
1.2032886
1.2034257
1.2034389
1.203279
1.2031395
1.2012863
1.2002873
1.2002982
1.2003107
1.2003251
1.2003418
1.2003611
1.2003837
1.2004102
1.2004416
1.200479
1.2005238
1.2005778
1.2006431
1.2007222
1.200818
1.2009335
1.2010712
1.2012345
1.2014257
1.2016453
1.2018921
1.2021625
1.2024498
1.2027422
1.2030216
1.2032578
1.203411
1.203437
1.2032374
1.2030975
1.2013697
1.2002837
1.200295
1.2003079
1.2003228
1.2003399
1.2003596
1.2003826
1.2004093
1.2004408
1.200478
1.2005222
1.2005752
1.2006388
1.2007154
1.2008077
1.2009186
1.2010511
1.2012086
1.2013927
1.2016039
1.201842
1.2021045
1.2023851
1.2026729
1.2029518
1.2031953
1.2033672
1.2034175
1.2031544
1.2030133
1.2014314
1.200303
1.2003145
1.2003275
1.2003425
1.2003597
1.2003795
1.2004025
1.2004291
1.2004602
1.2004968
1.2005401
1.2005915
1.200653
1.2007266
1.2008148
1.2009205
1.2010463
1.2011946
1.2013681
1.2015685
1.201795
1.2020449
1.2023123
1.2025877
1.2028575
1.2031017
1.2032826
1.2033607
1.2030592
1.2028847
1.2015241
1.2003081
1.2003199
1.2003335
1.2003491
1.2003669
1.2003873
1.2004107
1.2004378
1.2004694
1.2005063
1.2005497
1.2006009
1.2006616
1.2007338
1.2008197
1.2009219
1.2010429
1.201185
1.2013504
1.20154
1.2017534
1.201988
1.2022387
1.2024967
1.2027505
1.202984
1.2031525
1.2032476
1.2029937
1.2027819
1.2025759
1.200354
1.2003658
1.2003792
1.2003947
1.2004124
1.2004327
1.2004561
1.2004832
1.2005146
1.2005512
1.2005941
1.2006443
1.2007035
1.2007735
1.2008561
1.2009535
1.2010681
1.201202
1.2013568
1.2015335
1.2017313
1.201948
1.202179
1.2024168
1.2026512
1.2028665
1.2030255
1.2031136
1.2029389
1.2028963
1.2027731
1.2004052
1.2004189
1.2004333
1.2004487
1.2004654
1.2004843
1.2005059
1.200531
1.2005606
1.2005957
1.2006374
1.2006865
1.2007443
1.200812
1.2008915
1.2009847
1.2010938
1.2012206
1.2013664
1.2015316
1.2017155
1.2019158
1.2021286
1.2023477
1.2025643
1.2027658
1.2029287
1.2030285
1.2029426
1.2030214
1.2030576
1.2005203
1.2005313
1.2005438
1.2005581
1.2005744
1.200593
1.2006143
1.2006389
1.2006672
1.2007
1.2007381
1.2007826
1.2008345
1.2008955
1.2009672
1.2010516
1.2011504
1.2012645
1.2013958
1.2015455
1.2017124
1.2018945
1.2020881
1.202288
1.2024873
1.202676
1.202839
1.2029573
1.2029092
1.2031064
1.2032862
1.2006142
1.200624
1.2006353
1.2006481
1.2006628
1.2006796
1.200699
1.2007214
1.2007472
1.2007771
1.2008119
1.2008525
1.2008999
1.2009552
1.2010203
1.2010969
1.2011869
1.2012921
1.2014128
1.2015488
1.2017
1.2018647
1.2020405
1.2022238
1.2024086
1.2025847
1.2027336
1.2028256
1.2028061
1.2030745
1.203508
1.2008049
1.2008174
1.2008305
1.200844
1.2008584
1.2008737
1.20089
1.2009073
1.2009258
1.2009459
1.2009687
1.2009963
1.2010305
1.2010732
1.2011262
1.2011905
1.2012673
1.2013567
1.2014601
1.2015787
1.2017113
1.2018567
1.202013
1.2021771
1.2023435
1.2025012
1.2026315
1.202714
1.2027471
1.2030773
1.2036953
1.2008189
1.2008303
1.2008423
1.2008548
1.2008683
1.2008828
1.2008985
1.2009156
1.2009348
1.2009569
1.2009831
1.2010147
1.2010528
1.2010984
1.2011526
1.2012169
1.201293
1.2013821
1.2014828
1.2015947
1.2017187
1.2018544
1.2020001
1.2021531
1.2023077
1.2024537
1.2025813
1.202698
1.2028316
1.2031712
1.2037786
1.2009854
1.2009916
1.2009986
1.2010067
1.201016
1.2010267
1.201039
1.2010533
1.2010699
1.2010894
1.2011125
1.2011398
1.2011724
1.2012114
1.2012581
1.2013137
1.2013794
1.201457
1.2015483
1.2016528
1.201769
1.2018949
1.2020296
1.2021714
1.2023173
1.2024621
1.2025987
1.202729
1.2028587
1.2030744
1.2036293
1.2011048
1.2011068
1.2011095
1.2011128
1.201117
1.2011224
1.2011294
1.2011383
1.2011498
1.2011645
1.201183
1.2012062
1.2012349
1.2012701
1.2013129
1.2013643
1.2014264
1.2015015
1.2015915
1.201696
1.2018107
1.2019302
1.2020485
1.2021637
1.2022817
1.2024038
1.202514
1.2025886
1.2026505
1.2028099
1.2033794
1.201383
1.2013862
1.2013892
1.2013926
1.2013967
1.2014019
1.2014082
1.201416
1.2014256
1.2014371
1.2014511
1.2014676
1.2014872
1.2015102
1.2015371
1.2015685
1.2016057
1.2016541
1.2017232
1.2018128
1.2019062
1.2019859
1.2020586
1.2021305
1.2021928
1.2022556
1.2023039
1.2023184
1.2023233
1.2024318
1.2028106
1.188966
1.1889166
1.1888667
1.1888247
1.1887925
1.1887747
1.1887779
1.1888097
1.1888897
1.1890339
1.189254
1.1895683
1.1899771
1.190475
1.1910377
1.1916539
1.1922884
1.1929294
1.193553
1.1941467
1.1947013
1.1952306
1.1957106
1.1961432
1.19655
1.1969122
1.197244
1.1975436
1.1978175
1.1980689
1.1983038
1.1985227
1.1987272
1.1989166
1.1990861
1.19924
1.1993776
1.1995051
1.199624
1.1997345
1.1887206
1.1886985
1.1886878
1.1886891
1.1887042
1.1887375
1.1887995
1.1889066
1.1890769
1.1893189
1.1896499
1.1900697
1.1905709
1.1911291
1.1917355
1.192362
1.1929852
1.1935972
1.1941809
1.1947326
1.1952446
1.1957121
1.1961413
1.1965423
1.1969009
1.1972302
1.197528
1.1978009
1.1980524
1.1982877
1.1985077
1.1987139
1.1989057
1.199078
1.1992348
1.199375
1.1995047
1.1996256
1.1997379
1.1998423
1.1999348
1.200018
1.2000833
1.2001432
1.2001845
1.2002159
1.2002249
1.2002337
1.2002279
1.2002462
1.2002494
1.200296
1.2003442
1.2004669
1.2005673
1.2007575
1.2007677
1.2009541
1.2010958
1.2013737
1.1885027
1.188579
1.1886526
1.1887345
1.1888284
1.1889399
1.189085
1.1892778
1.1895287
1.1898579
1.190261
1.1907399
1.1912783
1.1918586
1.1924656
1.1930636
1.1936611
1.194232
1.1947793
1.1952734
1.1957286
1.1961603
1.1965439
1.1968997
1.1972263
1.1975218
1.1977924
1.1980424
1.198277
1.1984971
1.1987039
1.1988974
1.1990718
1.1992309
1.1993734
1.1995049
1.1996276
1.1997415
1.1998475
1.1999418
1.2000267
1.2000934
1.2001542
1.2001964
1.2002286
1.2002385
1.200248
1.2002428
1.2002614
1.200265
1.2003114
1.2003599
1.200481
1.2005795
1.2007693
1.2007809
1.2009621
1.2010979
1.2013759
1.1888643
1.1889722
1.1890721
1.1891738
1.1892905
1.1894328
1.1896109
1.1898396
1.1901306
1.1905052
1.190944
1.1914459
1.1919895
1.1925672
1.193145
1.1937238
1.1942815
1.1948181
1.1953069
1.1957541
1.1961842
1.1965568
1.1969032
1.1972253
1.1975203
1.1977889
1.1980368
1.19827
1.1984894
1.1986963
1.1988908
1.1990669
1.199228
1.1993725
1.1995057
1.1996298
1.1997452
1.1998527
1.1999485
1.200035
1.2001031
1.2001648
1.200208
1.2002411
1.2002518
1.2002619
1.2002573
1.2002762
1.2002803
1.2003264
1.2003754
1.2004948
1.2005917
1.200781
1.2007938
1.2009703
1.2011002
1.2013783
1.1892718
1.1893883
1.1894912
1.1895886
1.1896964
1.1898231
1.1899644
1.1901695
1.1904275
1.1907671
1.1911596
1.1916163
1.1921229
1.1926686
1.193225
1.1937851
1.1943295
1.1948548
1.1953402
1.1957818
1.1962048
1.196579
1.1969162
1.1972281
1.1975197
1.1977889
1.198035
1.1982663
1.1984846
1.1986909
1.198886
1.1990633
1.1992261
1.1993724
1.1995069
1.1996324
1.1997489
1.1998577
1.1999551
1.2000431
1.2001124
1.200175
1.2002192
1.200253
1.2002645
1.2002754
1.2002714
1.2002905
1.2002952
1.2003411
1.2003908
1.2005085
1.2006038
1.2007926
1.2008067
1.2009786
1.2011027
1.2013808
)
;

boundaryField
{
    Side1
    {
        type            empty;
    }
    Inlet
    {
        type            calculated;
        value           nonuniform List<scalar> 
59
(
1.2154859
1.2015606
1.2015588
1.2015568
1.2015545
1.2015516
1.2015483
1.2015443
1.2015397
1.2015343
1.2015281
1.2015209
1.2015126
1.2015031
1.2014923
1.20148
1.2014664
1.2014513
1.201435
1.2014189
1.2014032
1.2013852
1.2013673
1.2013444
1.2013172
1.2016172
1.201618
1.2016112
1.2015999
1.2015849
1.2015666
1.2015451
1.2015212
1.2014952
1.2014673
1.2014366
1.2014046
1.2013742
1.2013449
1.2013166
1.201289
1.2012634
1.2012425
1.2012293
1.2012253
1.2012278
1.2012314
1.2012348
1.2012494
1.2009379
1.2012791
1.2012755
1.2012804
1.2012957
1.201324
1.2013575
1.2013861
1.2013956
1.2013777
)
;
    }
    Side2
    {
        type            empty;
    }
    Outlet
    {
        type            calculated;
        value           nonuniform List<scalar> 
35
(
1.2021251
1.2021213
1.2021169
1.2021119
1.2021063
1.2020999
1.2020926
1.2020845
1.2020754
1.2020654
1.2020543
1.2020424
1.2020296
1.2020161
1.202002
1.2019871
1.2019703
1.2019491
1.201922
1.2018915
1.201866
1.2018518
1.2018456
1.2018421
1.2018452
1.2018471
1.2018451
1.201843
1.2018291
1.2018188
1.2016324
1.2021465
1.2021409
1.2021353
1.2021297
)
;
    }
    Botwall
    {
        type            calculated;
        value           nonuniform List<scalar> 0();
    }
    Cyli
    {
        type            calculated;
        value           nonuniform List<scalar> 0();
    }
    procBoundary3to0
    {
        type            processor;
        value           nonuniform List<scalar> 7(1.189012 1.1887422 1.1887422 1.1884167 1.1884167 1.1887478 1.1887478);
    }
    procBoundary3to1
    {
        type            processor;
        value           nonuniform List<scalar> 
62
(
1.1890183
1.1889666
1.1889168
1.1888728
1.1888375
1.1888179
1.1888187
1.1888499
1.188931
1.189072
1.1892836
1.1895845
1.1899821
1.1904672
1.1910228
1.1916358
1.1922703
1.1929131
1.1935446
1.1941432
1.194705
1.1952402
1.1957269
1.1961652
1.196574
1.1969384
1.197271
1.1975703
1.1978431
1.1980929
1.198326
1.1985425
1.1987442
1.1989302
1.1990962
1.1992467
1.1993812
1.1995061
1.1996228
1.1997311
1.199837
1.199837
1.1999275
1.200009
1.2000729
1.2001319
1.2001721
1.2002027
1.2002108
1.200219
1.2002125
1.2002307
1.2002333
1.2002803
1.2003283
1.2004527
1.2005549
1.2007457
1.2007547
1.2009461
1.2010939
1.2013719
)
;
    }
    procBoundary3to2
    {
        type            processor;
        value           nonuniform List<scalar> 
35
(
1.204024
1.203285
1.2017075
1.1939844
1.1948662
1.1957919
1.1967261
1.1976473
1.198545
1.1993971
1.2001874
1.2009221
1.2015822
1.2021791
1.2027282
1.2032123
1.2036351
1.204022
1.2043272
1.204381
1.204381
1.1896223
1.1896223
1.1899207
1.190183
1.190416
1.1906413
1.1908954
1.1912048
1.191588
1.1920618
1.1926365
1.1933124
1.1933124
1.1891476
)
;
    }
}


// ************************************************************************* //
