/*--------------------------------*- C++ -*----------------------------------*\
| =========                 |                                                 |
| \\      /  F ield         | OpenFOAM: The Open Source CFD Toolbox           |
|  \\    /   O peration     | Version:  2406                                  |
|   \\  /    A nd           | Website:  www.openfoam.com                      |
|    \\/     M anipulation  |                                                 |
\*---------------------------------------------------------------------------*/
FoamFile
{
    version     2.0;
    format      ascii;
    arch        "LSB;label=32;scalar=64";
    class       volScalarField;
    location    "0.09";
    object      T;
}
// * * * * * * * * * * * * * * * * * * * * * * * * * * * * * * * * * * * * * //

dimensions      [0 0 0 1 0 0 0];

internalField   nonuniform List<scalar> 
2065
(
292.791
292.92539
293.32992
292.84997
292.8254
292.80752
292.79527
292.78727
292.7821
292.77858
292.77567
292.77268
292.76889
292.76373
292.75702
292.7484
292.73791
292.72646
292.71878
292.73026
292.79024
292.92675
293.33038
293.50827
293.42363
293.34621
293.27575
293.21064
293.14919
293.0906
293.03507
292.98364
292.93752
292.89769
292.86472
292.83847
292.81857
292.80422
292.79426
292.78739
292.78247
292.77847
292.77466
292.77026
292.7647
292.75773
292.74893
292.73828
292.72666
292.71868
292.72946
292.78937
292.9282
293.33038
293.49558
293.41695
293.34418
293.27746
293.21559
293.15728
293.10166
293.04866
292.999
292.95371
292.91375
292.87984
292.85206
292.83023
292.8138
292.80183
292.79318
292.78678
292.7816
292.77689
292.77184
292.76583
292.75856
292.74955
292.73872
292.72692
292.71862
292.72863
292.78837
292.92975
293.3299
293.48463
293.41171
293.34337
293.28024
293.22144
293.16596
293.11299
293.06231
293.01436
292.96996
292.93002
292.89532
292.86616
292.8425
292.82402
292.81002
292.79953
292.79156
292.78511
292.77941
292.77363
292.76713
292.75952
292.75027
292.73925
292.72724
292.71861
292.72779
292.78724
292.93135
293.32871
293.47576
293.40858
293.34473
293.28478
293.22866
293.17564
293.12496
293.0763
293.02991
292.98639
292.94656
292.91119
292.88076
292.85537
292.83489
292.81884
292.80645
292.79682
292.78902
292.78226
292.77569
292.76862
292.76063
292.75112
292.73987
292.72765
292.71865
292.72694
292.78597
292.93294
293.3267
293.47034
293.40842
293.34838
293.29141
293.23767
293.18671
293.13792
293.09095
293.04588
293.00315
292.96344
292.92748
292.89587
292.86883
292.8464
292.82831
292.81397
292.80262
292.79337
292.78546
292.77803
292.77033
292.76191
292.75209
292.74059
292.72812
292.71875
292.72609
292.78455
292.93443
293.32373
293.4692
293.41127
293.35463
293.3004
293.24877
293.19951
293.15221
293.10654
293.06251
293.0204
292.98075
292.94424
292.9115
292.88289
292.85856
292.83843
292.82211
292.80896
292.79819
292.78905
292.78067
292.77229
292.76338
292.75322
292.74144
292.72867
292.71893
292.72527
292.783
292.93576
293.3198
293.47098
293.41716
293.3638
293.31202
293.26217
293.21427
293.16807
293.12332
293.08
293.03827
292.99857
292.96149
292.92765
292.89754
292.87136
292.84922
292.83089
292.81589
292.80351
292.79305
292.78364
292.77451
292.76506
292.75452
292.74242
292.72933
292.7192
292.7245
292.78132
292.93687
293.31497
293.47753
293.42708
293.37642
293.3266
293.27813
293.23119
293.18569
293.14147
293.09851
293.05691
293.017
292.97928
292.94435
292.91276
292.8848
292.86067
292.84032
292.82341
292.80936
292.79749
292.78698
292.77703
292.76698
292.75601
292.74357
292.73011
292.71956
292.7238
292.77955
292.93772
293.30939
293.48809
293.44057
293.39217
293.34396
293.29656
293.25025
293.20511
293.16107
293.11813
293.07638
293.03608
292.99764
292.9616
292.92854
292.89884
292.87276
292.85039
292.83155
292.81576
292.80241
292.79072
292.77988
292.76916
292.7577
292.74492
292.73105
292.72005
292.72318
292.7777
292.9383
293.30325
293.50219
293.45708
293.4106
293.36375
293.31717
293.27125
293.22619
293.18204
293.13884
293.0967
293.05582
293.01655
292.97938
292.94486
292.91346
292.88546
292.8611
292.8403
292.82273
292.80784
292.79488
292.78308
292.77163
292.75964
292.74646
292.73216
292.72067
292.72267
292.77582
292.93855
293.29677
293.51922
293.4761
293.43121
293.38547
293.33952
293.29381
293.24865
293.20418
293.16052
293.11779
293.07617
293.03598
292.99764
292.96167
292.9286
292.89875
292.87242
292.84967
292.83027
292.81378
292.7995
292.78666
292.77442
292.76184
292.74819
292.73345
292.72145
292.7223
292.77397
292.93844
293.29006
293.53806
293.49672
293.45322
293.40844
293.363
293.31741
293.27205
293.22715
293.18289
293.13944
293.09699
293.05581
293.01629
292.97891
292.9442
292.91257
292.88432
292.85963
292.8384
292.82026
292.8046
292.79065
292.77756
292.76435
292.75016
292.73496
292.72242
292.72208
292.7722
292.93792
293.28307
293.55714
293.51752
293.47542
293.43162
293.38674
293.34131
293.29579
293.25046
293.20559
293.16139
293.11807
293.07589
293.03521
292.99647
292.96018
292.92683
292.89674
292.87015
292.84709
292.82728
292.81019
292.79508
292.78108
292.76716
292.7524
292.73674
292.72359
292.72205
292.77057
292.93692
293.27547
293.5754
293.53752
293.49687
293.45414
293.40992
293.36478
293.3192
293.27355
293.22815
293.18325
293.13911
293.09598
293.05419
293.01418
292.97643
292.94145
292.9096
292.88119
292.85633
292.83485
292.81628
292.79995
292.78498
292.7703
292.75495
292.73882
292.72502
292.72222
292.76911
292.93533
293.26677
293.59158
293.55556
293.51652
293.47505
293.43171
293.38706
293.34162
293.29584
293.25005
293.2046
293.15976
293.11579
293.07303
293.03188
292.9928
292.95631
292.92283
292.89269
292.86608
292.84294
292.82289
292.8053
292.78929
292.7738
292.75782
292.74119
292.72674
292.72264
292.76785
292.93304
293.25652
293.60458
293.57063
293.53342
293.49346
293.45127
293.40739
293.36238
293.31671
293.2708
293.22501
293.17966
293.13504
293.09147
293.04935
293.00911
292.97127
292.93631
292.90455
292.87629
292.85153
292.83
292.81112
292.79404
292.77772
292.76103
292.74386
292.72879
292.72337
292.76682
292.93002
293.24476
293.61338
293.58181
293.54678
293.50868
293.46798
293.42522
293.38095
293.3357
293.28993
293.24406
293.19845
293.1534
293.10925
293.06636
293.02518
292.98619
292.9499
292.9167
292.88689
292.86059
292.8376
292.81742
292.79923
292.78203
292.76461
292.74687
292.73119
292.72446
292.76602
292.92631
293.23267
293.61717
293.58825
293.55575
293.51992
293.48116
293.43994
293.39684
293.35238
293.30709
293.26144
293.21583
293.17061
293.12611
293.08271
293.04081
293.0009
292.96349
292.92901
292.8978
292.87005
292.84566
292.8242
292.80489
292.78676
292.76856
292.75027
292.73397
292.72598
292.7655
292.92207
293.22043
293.61674
293.59069
293.56095
293.52767
293.49113
293.45176
293.41011
293.36673
293.32219
293.27702
293.23165
293.18649
293.14189
293.0982
293.05583
293.01524
292.97693
292.94137
292.90893
292.87986
292.85414
292.83144
292.81102
292.79193
292.77297
292.75404
292.7371
292.72799
292.76529
292.91739
293.20711
293.61109
293.58817
293.56154
293.53122
293.49735
293.46029
293.42052
293.3786
293.33514
293.29071
293.24584
293.20096
293.15646
293.11271
293.0701
293.02907
292.99009
292.95366
292.92018
292.88994
292.86301
292.83911
292.81762
292.79758
292.77786
292.75824
292.74062
292.73052
292.76544
292.91242
293.19292
293.60114
293.58134
293.55794
293.53081
293.49995
293.46559
293.42811
293.38803
293.34599
293.30259
293.25843
293.21403
293.16982
293.1262
293.08354
293.04227
293.00285
292.96577
292.93145
292.90021
292.87219
292.84721
292.82469
292.80374
292.78328
292.76296
292.74459
292.73363
292.76605
292.90726
293.17844
293.58755
293.5708
293.55063
293.5268
293.49918
293.46782
293.43299
293.39514
293.35485
293.31277
293.26956
293.22582
293.18204
293.13868
293.09613
293.0548
293.01513
292.97759
292.94263
292.91058
292.88163
292.85567
292.8322
292.81041
292.78928
292.76826
292.7491
292.73739
292.76722
292.90207
293.15977
293.571
293.55708
293.54003
293.51949
293.4952
293.46708
293.43522
293.39995
293.36178
293.32135
293.27934
293.23644
293.19324
293.15024
293.10791
293.06665
293.02689
292.98908
292.95365
292.92097
292.89125
292.86445
292.84015
292.8176
292.79586
292.7742
292.75423
292.74196
292.76909
292.89718
293.11884
293.55216
293.54082
293.52665
293.50925
293.48827
293.46347
293.43481
293.40244
293.36675
293.32831
293.2878
293.24597
293.20349
293.16098
293.11895
293.07785
293.03811
293.00016
292.96444
292.9313
292.90098
292.87349
292.84849
292.82529
292.80302
292.78077
292.76009
292.7473
292.77183
292.89338
293.08938
293.53142
293.52236
293.51079
293.49629
293.47848
293.45699
293.43164
293.40241
293.36954
293.33346
293.29482
293.25436
293.21283
293.17093
293.1293
293.08843
293.0488
293.01082
292.97494
292.9415
292.91074
292.88272
292.85716
292.83343
292.81068
292.78801
292.76685
292.75345
292.7756
292.8909
293.06935
293.5092
293.50205
293.49277
293.4809
293.466
293.44769
293.42564
293.39969
293.36988
293.33653
293.30013
293.2614
293.22111
293.18005
293.13895
293.0984
293.05895
293.02105
292.98511
292.9515
292.92047
292.89208
292.8661
292.84196
292.81883
292.79593
292.77448
292.76048
292.78051
292.88948
293.05315
293.48563
293.4801
293.47277
293.46322
293.45099
293.43562
293.41676
293.39409
293.36752
293.33716
293.30338
293.26677
293.22809
293.18817
293.1478
293.10773
293.06855
293.0308
292.99491
292.96126
292.9301
292.90149
292.87525
292.85084
292.82747
292.80447
292.78288
292.76847
292.78661
292.88866
293.03733
293.46088
293.45671
293.45103
293.44347
293.4336
293.42093
293.40504
293.38557
293.36227
293.33508
293.30421
293.27011
293.23343
293.195
293.15567
293.11627
293.07753
293.04004
293.0043
292.97072
292.93956
292.91089
292.88453
292.86
292.83655
292.81358
292.79206
292.77739
292.79372
292.888
293.01989
293.43542
293.43233
293.42801
293.42211
293.41424
293.40395
293.39076
293.37425
293.3541
293.33012
293.30235
293.27105
293.23675
293.20021
293.16228
293.12386
293.08575
293.04868
293.01323
292.97983
292.94879
292.9202
292.89389
292.8694
292.84602
292.82322
292.8019
292.78713
292.80163
292.88707
293.00054
293.40961
293.40736
293.4041
293.39956
293.39336
293.38509
293.37432
293.36056
293.34342
293.32257
293.29792
293.26959
293.23794
293.20362
293.16743
293.13029
293.09309
293.05664
293.02162
292.98854
292.95776
292.92939
292.90328
292.87898
292.85582
292.83331
292.81229
292.7975
292.81009
292.88552
292.98007
293.38446
293.38281
293.38035
293.37684
293.37195
293.36532
293.35651
293.34507
293.33056
293.31262
293.29101
293.26568
293.23686
293.20504
293.17092
293.13538
293.09938
293.06379
293.0294
292.9968
292.96641
292.93841
292.91265
292.8887
292.86591
292.8438
292.82312
292.80842
292.81891
292.88344
292.95975
293.3602
293.35896
293.35708
293.35434
293.35047
293.34513
293.33794
293.32848
293.31627
293.30091
293.28211
293.25969
293.23373
293.20454
293.17272
293.13908
293.10455
293.07007
293.03651
293.00457
292.97473
292.94722
292.92197
292.89854
292.87629
292.85471
292.83449
292.82
292.82787
292.88134
292.94067
293.33691
293.33598
293.33453
293.33239
293.32931
293.32501
293.31914
293.3113
293.30108
293.28802
293.27176
293.25206
293.22886
293.20234
293.17295
293.1414
293.10858
293.07544
293.04292
293.0118
292.98266
292.95581
292.93123
292.9085
292.88696
292.86609
292.84645
292.83206
292.83701
292.88035
292.92355
293.31415
293.31345
293.31234
293.31068
293.30825
293.30481
293.30006
293.29364
293.28514
293.27414
293.26022
293.24307
293.22254
293.19867
293.17179
293.14247
293.11154
293.07993
293.04863
293.0185
292.99021
292.96416
292.94039
292.91854
292.89794
292.878
292.8591
292.84482
292.84691
292.88155
292.90921
293.29162
293.29111
293.29029
293.28902
293.28714
293.28443
293.28063
293.27542
293.26842
293.25923
293.24743
293.23267
293.21471
293.19349
293.16917
293.14223
293.11337
293.0835
293.05361
293.02463
292.99734
292.97223
292.94943
292.92865
292.90922
292.89046
292.87251
292.85828
292.85823
292.8855
292.89845
293.26931
293.26895
293.26834
293.26739
293.26596
293.26386
293.26086
293.2567
293.25102
293.24345
293.23358
293.22103
293.20549
293.18683
293.16511
293.14064
293.11402
293.08608
293.05779
293.03015
293.00401
292.97999
292.95831
292.93879
292.92076
292.90346
292.88676
292.87274
292.87091
292.89173
292.89171
293.24717
293.2469
293.24644
293.24572
293.24463
293.24301
293.24068
293.23739
293.23284
293.2267
293.21857
293.20808
293.19486
293.1787
293.15955
293.13763
293.11338
293.08756
293.06109
293.03499
293.01019
292.9874
292.96701
292.94891
292.93249
292.91687
292.90163
292.88814
292.88474
292.89923
292.88715
293.22554
293.22533
293.22498
293.22443
293.22359
293.22235
293.22055
293.21797
293.21436
293.2094
293.20276
293.19405
293.18293
293.16911
293.15247
293.1331
293.11134
293.08781
293.06337
293.03904
293.01579
292.99444
292.97548
292.95894
292.94429
292.93053
292.91689
292.90412
292.89933
292.90735
292.88323
293.20413
293.20394
293.20366
293.20324
293.20259
293.20164
293.20025
293.19825
293.19541
293.19147
293.18612
293.17901
293.16979
293.15813
293.14389
293.12705
293.10783
293.08673
293.06453
293.04219
293.02073
293.00103
292.98369
292.96885
292.95608
292.94426
292.93233
292.92038
292.9143
292.91565
292.87929
293.18256
293.18238
293.18214
293.1818
293.18131
293.18059
293.17954
293.17801
293.17583
293.17277
293.16854
293.16285
293.15537
293.14578
293.13384
293.11946
293.10278
293.0842
293.0644
293.04429
293.02486
293.00706
292.99152
292.97849
292.96777
292.95789
292.94774
292.93666
292.92941
292.92428
292.87545
293.16057
293.16043
293.16024
293.15999
293.15963
293.15911
293.15834
293.15722
293.1556
293.15328
293.15003
293.14557
293.13961
293.13184
293.12201
293.10999
293.09585
293.07989
293.06267
293.04501
293.02787
293.01222
292.99876
292.98777
292.97906
292.97132
292.96296
292.95272
292.94429
292.93279
292.87278
293.13779
293.13767
293.13753
293.13735
293.1371
293.13676
293.13625
293.13548
293.13435
293.1327
293.13032
293.12699
293.12243
293.11636
293.10855
293.0988
293.08713
293.07377
293.05918
293.0441
293.02942
293.01612
293.00492
292.99616
292.98965
292.98421
292.97776
292.96835
292.95934
292.94377
292.87029
293.11382
293.11372
293.11361
293.1135
293.11336
293.11316
293.11287
293.11242
293.11172
293.11065
293.10905
293.10672
293.10343
293.09892
293.09297
293.08542
293.07618
293.06543
293.05354
293.04114
293.02907
293.01825
293.00944
293.00304
292.99892
292.99587
292.99148
292.98288
292.97365
292.95547
292.87182
293.09
293.08991
293.08982
293.08974
293.08966
293.08956
293.08942
293.0892
293.08883
293.08821
293.08723
293.08572
293.0835
293.08034
293.07605
293.07045
293.06345
293.05515
293.04585
293.03609
293.02661
293.01829
293.01191
293.0079
293.00616
293.00554
293.00335
292.99598
292.98649
292.96834
292.88059
293.06566
293.06558
293.06552
293.06548
293.06546
293.06547
293.06547
293.06546
293.06539
293.06519
293.06477
293.06401
293.06275
293.06082
293.05802
293.05421
293.04929
293.04328
293.03639
293.02908
293.02202
293.01603
293.01191
293.01012
293.01068
293.01253
293.01305
293.00762
292.99641
292.98321
292.90053
293.04398
293.04388
293.04381
293.04377
293.04377
293.0438
293.04388
293.04398
293.04409
293.04415
293.04412
293.04388
293.04334
293.04234
293.04073
293.03836
293.03513
293.03104
293.02623
293.02107
293.01612
293.01211
293.0098
293.00973
293.01207
293.01626
293.02022
293.01858
293.00584
292.99814
292.9281
293.02279
293.02272
293.02268
293.02269
293.02274
293.02286
293.02304
293.02329
293.0236
293.02395
293.02429
293.02457
293.02469
293.02455
293.02403
293.02298
293.0213
293.01896
293.01604
293.01277
293.00963
293.00723
293.00627
293.00734
293.01086
293.01702
293.02404
293.02784
293.01937
293.01599
292.97492
293.00661
293.00654
293.00651
293.00652
293.00659
293.00674
293.00697
293.00729
293.00771
293.00821
293.00879
293.0094
293.00998
293.01044
293.01069
293.01061
293.0101
293.00908
293.0076
293.00583
293.00409
293.00288
293.00281
293.00448
293.00853
293.01568
293.02405
293.03277
293.03657
293.04305
293.11453
292.99065
292.99067
292.99073
292.99085
292.99104
292.99133
292.99173
292.99226
292.99293
292.99375
292.9947
292.99578
292.99694
292.99811
292.99922
293.00017
293.00085
293.00117
293.0011
293.00069
293.00016
292.9999
293.00045
293.00246
293.0066
293.01346
293.02232
293.03314
293.04625
293.07701
293.16473
292.98389
292.98397
292.98407
292.98421
292.98439
292.98463
292.98496
292.98544
292.98609
292.98695
292.988
292.98923
292.99058
292.99202
292.99348
292.99489
292.99617
292.9972
292.99793
292.99836
292.9986
292.99891
292.99974
293.00166
293.00529
293.0112
293.01965
293.02874
293.04381
293.07507
293.15512
292.9767
292.97687
292.97708
292.97737
292.97773
292.9782
292.97878
292.9795
292.98038
292.98143
292.98266
292.98407
292.98566
292.9874
292.98925
292.99115
292.99301
292.9947
292.99614
292.99728
292.99814
292.99884
292.99972
293.00129
293.00411
293.00861
293.01484
293.02146
293.027
293.0533
293.12009
292.97982
292.97998
292.98019
292.98047
292.98082
292.98126
292.9818
292.98246
292.98325
292.9842
292.98531
292.9866
292.98805
292.98966
292.99139
292.99318
292.99496
292.99663
292.99805
292.99912
292.99984
293.00032
293.00081
293.00171
293.00346
293.00622
293.00918
293.00994
293.00709
293.03024
293.11058
292.97537
292.97592
292.97656
292.97728
292.97807
292.9789
292.97976
292.98065
292.98157
292.98254
292.98364
292.98495
292.98654
292.98844
292.9906
292.99295
292.99539
292.99776
292.99988
293.00158
293.00274
293.00345
293.0039
293.00443
293.00531
293.00646
293.0069
293.00521
293.00319
293.02832
293.11872
292.97818
292.97875
292.97938
292.98009
292.98086
292.98171
292.98264
292.98366
292.98482
292.98616
292.98772
292.98953
292.9916
292.99391
292.99643
292.99912
293.00188
293.00456
293.00699
293.009
293.0105
293.01147
293.01206
293.01256
293.01314
293.01368
293.01416
293.01598
293.02285
293.04789
293.1283
292.96234
292.96305
292.96387
292.96482
292.96593
292.96723
292.96874
292.9705
292.97253
292.97486
292.97752
292.98054
292.98394
292.9877
292.99181
292.9962
293.0008
293.0055
293.01016
293.01456
293.01834
293.02142
293.02389
293.02597
293.02807
293.03062
293.03393
293.03922
293.04806
293.0635
293.13452
292.97952
292.98008
292.98073
292.98147
292.98233
292.98332
292.98447
292.9858
292.98735
292.98915
292.99126
292.9937
292.9965
292.99969
293.00325
293.00719
293.01151
293.01622
293.02121
293.02602
293.03013
293.03313
293.03486
293.03562
293.03668
293.0393
293.04299
293.04661
293.05276
293.06703
293.1303
292.97477
292.9757
292.97677
292.97798
292.97935
292.98091
292.98267
292.98466
292.98687
292.98933
292.99202
292.99493
292.99805
293.00133
293.00476
293.0084
293.01251
293.01767
293.02428
293.0317
293.03792
293.04138
293.04291
293.04374
293.04299
293.04253
293.04303
293.04352
293.04692
293.04943
293.09491
293.64956
293.6494
293.64878
293.64747
293.64597
293.64463
293.6448
293.64819
293.65511
293.66597
293.68061
293.69753
293.71549
293.7329
293.74892
293.76214
293.77169
293.77672
293.77572
293.76916
293.75689
293.73875
293.71606
293.69013
293.66182
293.6325
293.60288
293.57344
293.54428
293.51536
293.48654
293.45793
293.42997
293.40297
293.37763
293.35373
293.33096
293.30865
293.28656
293.26481
293.72826
293.71928
293.70852
293.69842
293.68951
293.6817
293.67608
293.67416
293.67559
293.68065
293.68877
293.69787
293.70893
293.72059
293.73165
293.74082
293.74712
293.74909
293.74605
293.73761
293.72366
293.70512
293.68255
293.65719
293.63014
293.60226
293.57412
293.54591
293.51768
293.48933
293.46097
293.43303
293.40586
293.3802
293.35595
293.33286
293.31027
293.28794
293.26594
293.24424
293.22311
293.20212
293.181
293.1592
293.13665
293.11287
293.08934
293.06527
293.04398
293.02293
293.00697
292.99084
292.98406
292.97636
292.97944
292.97305
292.97543
292.95864
292.9766
292.96956
293.80183
293.77296
293.74522
293.7197
293.69715
293.67847
293.66401
293.65486
293.65106
293.65213
293.65694
293.66543
293.67593
293.68759
293.69855
293.70771
293.71346
293.71484
293.71099
293.70185
293.68815
293.66963
293.648
293.62392
293.5984
293.5721
293.54531
293.51817
293.49063
293.46282
293.43517
293.40805
293.38226
293.3578
293.33449
293.31172
293.28922
293.26704
293.24514
293.22381
293.20266
293.18137
293.1595
293.13686
293.113
293.08939
293.06523
293.04383
293.02275
293.00673
292.99065
292.98388
292.97635
292.97946
292.97355
292.9761
292.95959
292.97734
292.97092
293.7258
293.69682
293.6699
293.64615
293.626
293.61007
293.59966
293.5948
293.59578
293.60063
293.61013
293.62255
293.63653
293.65039
293.66297
293.67276
293.67868
293.67964
293.67535
293.66659
293.65257
293.63497
293.61439
293.5917
293.56765
293.54266
293.51695
293.49052
293.46353
293.43641
293.40954
293.38379
293.35924
293.33582
293.31296
293.29037
293.26807
293.24602
293.22454
293.20325
293.18183
293.15989
293.13718
293.11327
293.08957
293.06533
293.04382
293.0227
293.00662
292.99058
292.98379
292.97642
292.97953
292.97413
292.9768
292.96055
292.97809
292.97229
293.62316
293.60195
293.58185
293.56416
293.54931
293.53802
293.53196
293.52997
293.53323
293.54074
293.55238
293.56725
293.58393
293.60078
293.61666
293.63021
293.64028
293.64579
293.64609
293.64201
293.63258
293.61906
293.60216
293.58261
293.56116
293.53824
293.51421
293.48914
293.46319
293.4368
293.41036
293.3848
293.3603
293.33686
293.31398
293.29136
293.26901
293.24686
293.22526
293.20388
293.18235
293.16036
293.1376
293.11364
293.08986
293.06555
293.04393
293.02275
293.00661
292.9906
292.98381
292.97655
292.97966
292.97477
292.97753
292.96152
292.97887
292.97365
)
;

boundaryField
{
    Side1
    {
        type            empty;
    }
    Inlet
    {
        type            totalTemperature;
        gamma           1.4;
        T0              uniform 294.31799;
        value           nonuniform List<scalar> 
59
(
294.31799
292.98387
292.9837
292.98351
292.98328
292.98301
292.98269
292.98232
292.98188
292.98138
292.98078
292.9801
292.97931
292.97841
292.97739
292.97623
292.97493
292.97349
292.97195
292.97043
292.96893
292.96719
292.9654
292.96283
292.95923
292.95962
292.95946
292.95872
292.95755
292.95605
292.95422
292.95209
292.94972
292.94714
292.94435
292.94132
292.93816
292.93515
292.93224
292.92944
292.92669
292.92416
292.92208
292.92077
292.92038
292.92063
292.92099
292.92131
292.92264
292.92535
292.92577
292.92536
292.92585
292.92735
292.93018
292.93348
292.93633
292.93726
292.93558
)
;
    }
    Side2
    {
        type            empty;
    }
    Outlet
    {
        type            zeroGradient;
    }
    Botwall
    {
        type            zeroGradient;
    }
    Cyli
    {
        type            zeroGradient;
    }
    procBoundary3to0
    {
        type            processor;
        value           nonuniform List<scalar> 7(293.64931 293.73615 293.73615 293.83059 293.83059 293.7559 293.7559);
    }
    procBoundary3to1
    {
        type            processor;
        value           nonuniform List<scalar> 
62
(
293.61511
293.61664
293.61787
293.61882
293.61972
293.621
293.62353
293.62831
293.63674
293.64988
293.66804
293.69002
293.71381
293.73725
293.75852
293.77554
293.78736
293.79292
293.79017
293.78165
293.76665
293.74554
293.71994
293.69163
293.66138
293.63064
293.60002
293.5699
293.5403
293.51115
293.48224
293.45372
293.42602
293.39943
293.37458
293.35118
293.32885
293.30691
293.28514
293.2637
293.24336
293.24336
293.22247
293.20168
293.18075
293.15904
293.13659
293.1129
293.08947
293.06547
293.04429
293.02327
293.00735
292.99115
292.98435
292.97645
292.9795
292.97262
292.9748
292.9577
292.97589
292.9682
)
;
    }
    procBoundary3to2
    {
        type            processor;
        value           nonuniform List<scalar> 
35
(
292.79166
292.92412
293.32726
292.83559
292.81287
292.79708
292.78693
292.78085
292.7773
292.77509
292.77319
292.77095
292.7677
292.76289
292.75641
292.74795
292.7376
292.72631
292.7189
292.73103
292.73103
293.52161
293.52161
293.43103
293.34922
293.27503
293.20633
293.14131
293.07943
293.02125
292.9681
292.92131
292.88182
292.88182
293.64485
)
;
    }
}


// ************************************************************************* //
