/*--------------------------------*- C++ -*----------------------------------*\
| =========                 |                                                 |
| \\      /  F ield         | OpenFOAM: The Open Source CFD Toolbox           |
|  \\    /   O peration     | Version:  2406                                  |
|   \\  /    A nd           | Website:  www.openfoam.com                      |
|    \\/     M anipulation  |                                                 |
\*---------------------------------------------------------------------------*/
FoamFile
{
    version     2.0;
    format      ascii;
    arch        "LSB;label=32;scalar=64";
    class       volVectorField;
    location    "0.09";
    object      U;
}
// * * * * * * * * * * * * * * * * * * * * * * * * * * * * * * * * * * * * * //

dimensions      [0 1 -1 0 0 0 0];

internalField   nonuniform List<vector> 
2065
(
(55.283082 0.99825253 -3.9965795e-19)
(54.062702 0.41162841 -8.5965096e-24)
(52.189318 0.13828336 -8.0046624e-25)
(55.4067 0.64537363 5.2296715e-20)
(55.869672 1.3393822 1.2642507e-21)
(56.184193 1.9752168 -1.9476979e-21)
(56.376552 2.5290488 -4.7176274e-20)
(56.479772 2.9882881 -3.6831518e-20)
(56.526878 3.3476001 2.7901848e-20)
(56.544284 3.6095146 -4.3439616e-20)
(56.554196 3.7777174 -2.6587011e-22)
(56.574866 3.8630723 2.0841707e-22)
(56.612546 3.8721994 -1.6203772e-22)
(56.671807 3.8137515 -3.4236431e-20)
(56.748346 3.6936376 0)
(56.822605 3.5144252 0)
(56.860868 3.2720679 0)
(56.82044 2.9536146 8.9198476e-20)
(56.596074 2.5008824 -4.9198722e-23)
(56.043561 1.8590158 1.3837125e-19)
(55.310937 1.0050698 -1.0049851e-22)
(54.077574 0.420517 5.8768192e-23)
(52.195404 0.13056808 1.813422e-20)
(41.406324 -3.0199589 6.9778311e-20)
(43.268281 -3.0768835 -5.7027e-20)
(44.85713 -3.1094606 1.9927572e-20)
(46.319936 -3.0789412 -9.7361753e-21)
(47.716204 -2.9793629 -2.403695e-20)
(49.066533 -2.7817644 -6.5593841e-20)
(50.360247 -2.4719633 5.3345965e-21)
(51.570871 -2.0486236 4.3043185e-21)
(52.674245 -1.5223378 -3.4457396e-20)
(53.648941 -0.9111693 4.6545323e-20)
(54.475422 -0.24214933 -3.4556007e-20)
(55.141992 0.45042356 0)
(55.649103 1.1300965 -1.3182595e-21)
(56.009653 1.7643791 3.4738235e-20)
(56.245508 2.3270922 4.9743509e-20)
(56.386731 2.8018052 0)
(56.465113 3.1805871 -1.4826481e-25)
(56.507091 3.4634877 4.6979485e-20)
(56.535401 3.6526899 -2.8335434e-22)
(56.569128 3.7574314 2.2259845e-22)
(56.615907 3.7853016 -1.7557609e-22)
(56.68108 3.7403729 0)
(56.7615 3.6340608 1.1909829e-22)
(56.838486 3.4668208 5.238472e-20)
(56.879082 3.235381 9.3299853e-23)
(56.842653 2.9250772 -4.7862648e-23)
(56.623951 2.4843017 -5.1652147e-23)
(56.077611 1.8580532 -2.8674388e-19)
(55.340524 1.012448 4.223935e-19)
(54.092637 0.4299229 5.1810868e-23)
(52.201865 0.12632204 -7.0920841e-25)
(41.540393 -3.0030348 -1.616691e-20)
(43.332749 -3.0538925 -2.6652681e-20)
(44.859631 -3.0752415 1.899243e-20)
(46.256569 -3.0329699 -9.2742596e-21)
(47.581907 -2.9354286 2.3119958e-20)
(48.862779 -2.7533962 3.187197e-20)
(50.097626 -2.473049 -5.2395237e-21)
(51.267583 -2.0892466 -7.0748356e-25)
(52.350553 -1.6069834 3.4543615e-21)
(53.324666 -1.0392278 -2.7725115e-21)
(54.168683 -0.40798736 2.2061798e-21)
(54.867384 0.25663757 0)
(55.415952 0.92051751 0)
(55.821669 1.5510961 2.623918e-24)
(56.10171 2.1205467 0)
(56.282629 2.6092963 0)
(56.394369 3.0067501 -3.2397384e-20)
(56.463034 3.3104082 3.8677946e-22)
(56.511673 3.5208092 3.8924256e-20)
(56.560038 3.6454725 -4.7436299e-22)
(56.617296 3.6913881 1.8866701e-22)
(56.689367 3.6619495 0)
(56.774256 3.570262 -6.4825429e-20)
(56.85448 3.4156944 -2.1943263e-22)
(56.897854 3.1957579 9.8963092e-23)
(56.86579 2.8939337 -9.948448e-20)
(56.652977 2.4662455 -5.4118186e-23)
(56.113366 1.8564349 2.2664916e-24)
(55.371908 1.0203508 -4.31657e-19)
(54.10861 0.44028365 0)
(52.209279 0.12226939 0)
(41.653732 -3.0659211 0)
(43.37751 -3.1026609 -1.8678621e-24)
(44.846419 -3.1012773 0)
(46.179394 -3.0502097 -1.7615544e-20)
(47.441117 -2.9456283 -2.2593292e-24)
(48.659859 -2.768238 -3.7020049e-20)
(49.84008 -2.5052865 0)
(50.96968 -2.1495943 -3.3737648e-20)
(52.029737 -1.7020094 0)
(52.999196 -1.1710003 0)
(53.856212 -0.57379994 4.485144e-21)
(54.582981 0.063933408 -6.0751988e-20)
(55.170236 0.71112994 -4.5225147e-20)
(55.619985 1.3361086 -3.6648492e-20)
(55.944608 1.9101738 8.6811022e-22)
(56.166718 2.4113346 0)
(56.313842 2.8264328 -3.422465e-20)
(56.411351 3.1504115 8.2008904e-22)
(56.482354 3.382046 -4.1349326e-20)
(56.547104 3.5270637 -2.5241126e-22)
(56.616301 3.5916511 -5.123785e-20)
(56.696362 3.5782043 0)
(56.786346 3.501998 6.911006e-20)
(56.87041 3.3608232 -5.925218e-20)
(56.917084 3.1529355 3.1705952e-26)
(56.889751 2.8599524 -1.0197154e-22)
(56.683085 2.4466307 5.6607227e-23)
(56.15084 1.8540288 1.5273722e-19)
(55.405157 1.0287892 -4.3939799e-19)
(54.126121 0.45158578 2.0706496e-23)
(52.218105 0.11854822 1.5193557e-20)
(41.731134 -3.2192667 2.759893e-20)
(43.377809 -3.2585446 2.14799e-20)
(44.798318 -3.2031335 0)
(46.076288 -3.1331852 -1.6677772e-20)
(47.283184 -3.0102486 4.2340687e-20)
(48.447909 -2.8265857 1.1890294e-20)
(49.579454 -2.5698504 1.9927961e-20)
(50.671338 -2.2314679 2.4848603e-20)
(51.708191 -1.809277 0)
(52.670656 -1.307985 0)
(53.537253 -0.74043191 -3.6250405e-20)
(54.288575 -0.12778603 5.8274709e-20)
(54.911848 0.50242459 9.0044756e-20)
(55.404326 1.120215 2.2990861e-21)
(55.773671 1.6968348 0)
(56.038257 2.2086236 4.5388944e-20)
(56.22271 2.6401071 1.1086019e-21)
(56.351239 2.9837416 5.4601693e-20)
(56.44673 3.2364556 -4.3477985e-20)
(56.529747 3.4021301 3.4560857e-20)
(56.612415 3.4859671 5.4456597e-20)
(56.701577 3.492572 4.2923946e-20)
(56.797624 3.4290172 7.3276913e-20)
(56.886149 3.3019799 -6.2973101e-20)
(56.936727 3.1066182 0)
(56.914393 2.8231823 -1.0900416e-19)
(56.714221 2.4253942 0)
(56.190043 1.8506985 1.5718632e-19)
(55.440326 1.0377312 4.4543315e-19)
(54.144725 0.46390486 0)
(52.228557 0.11513339 -1.6384119e-20)
(41.748216 -3.4704307 -4.7420654e-20)
(43.331045 -3.4330948 -1.9647036e-20)
(44.693658 -3.3745821 -1.7923183e-24)
(45.930574 -3.2699067 4.7224385e-20)
(47.094742 -3.1228753 0)
(48.215767 -2.9253421 1.1418641e-20)
(49.306656 -2.6656778 -9.6495975e-21)
(50.365742 -2.3350966 -8.0974979e-21)
(51.381312 -1.9296413 6.7389492e-21)
(52.336336 -1.4510873 0)
(53.210451 -0.90841111 3.6412402e-20)
(53.983641 -0.3184969 0)
(54.640562 0.2949497 -9.203891e-20)
(55.174426 0.90428989 -4.0274207e-20)
(55.588419 1.4814963 0)
(55.896557 2.0019995 -4.7367876e-20)
(56.120172 2.4483797 3.8383027e-20)
(56.28189 2.810759 -5.9342556e-20)
(56.404053 3.0841831 4.5228544e-20)
(56.507323 3.2706421 -3.5754636e-20)
(56.604948 3.3741849 0)
(56.704812 3.4016419 3.5933886e-22)
(56.807931 3.3510205 -1.560389e-19)
(56.901471 3.2389394 6.6817985e-20)
(56.956635 3.0565328 -1.170937e-22)
(56.939483 2.7839168 1.1328959e-19)
(56.746284 2.402462 1.2300274e-22)
(56.230964 1.8462914 -1.6127105e-19)
(55.47746 1.0471261 -4.4972336e-19)
(54.164926 0.47728464 1.0693152e-23)
(52.240885 0.11184786 0)
(41.688374 -3.7163187 2.1460771e-20)
(43.206999 -3.6835568 -3.8945569e-20)
(44.528517 -3.5885216 1.7162272e-20)
(45.732834 -3.4492461 -5.9248632e-20)
(46.864587 -3.2754032 0)
(47.952797 -3.0588046 2.1842403e-20)
(49.012506 -2.7892894 0)
(50.045626 -2.4588098 -7.8769994e-21)
(51.043883 -2.0625887 6.6133093e-21)
(51.99289 -1.6003119 0)
(52.873989 -1.0777753 4.5481367e-21)
(53.667322 -0.5079115 -3.7202018e-21)
(54.356007 0.089390678 5.1299278e-20)
(54.93 0.68931753 3.6406649e-20)
(55.388422 1.2652466 -1.938392e-21)
(55.740984 1.7924404 -8.9175277e-25)
(56.005455 2.2520054 1.2147649e-21)
(56.202489 2.6319578 9.5851307e-22)
(56.353547 2.9254809 4.764565e-20)
(56.479154 3.132634 5.9959484e-22)
(56.593388 3.2561595 2.4502867e-25)
(56.705606 3.3018043 -4.9704184e-20)
(56.816929 3.2677007 1.6451831e-19)
(56.91614 3.1714809 -2.7537434e-22)
(56.976662 3.0024459 -6.3067399e-20)
(56.96491 2.7424408 1.1459061e-22)
(56.779192 2.3777047 -1.2773905e-22)
(56.273575 1.8406389 1.6073767e-22)
(55.516591 1.0568966 4.5187356e-19)
(54.186898 0.49166567 0)
(52.255372 0.10836509 0)
(41.535556 -4.0199477 -2.0929648e-20)
(42.998635 -3.9616101 9.3068593e-25)
(44.292647 -3.8282508 -2.7797394e-24)
(45.473544 -3.658487 2.7790205e-20)
(46.583326 -3.4572058 2.4105059e-20)
(47.649764 -3.2185915 -1.0402988e-20)
(48.68849 -2.9347627 -8.9379649e-21)
(49.703844 -2.5988523 -2.2884149e-20)
(50.690465 -2.2059812 1.9379382e-20)
(51.63658 -1.7545443 5.4257777e-21)
(52.525605 -1.2477936 -4.5170871e-21)
(53.338486 -0.69529189 0)
(54.057682 -0.11333225 0)
(54.670758 0.47642848 2.473586e-21)
(55.173319 1.0493118 -1.9889532e-21)
(55.570978 1.5810813 -1.5901646e-21)
(55.877839 2.0518988 1.2634391e-21)
(56.112237 2.4479797 6.4112795e-20)
(56.294424 2.7607251 -1.0082242e-19)
(56.444529 2.9882516 3.4123295e-25)
(56.577275 3.1318851 -5.0553694e-22)
(56.703462 3.1960957 0)
(56.82422 3.1787816 -8.5245623e-20)
(56.929862 3.0994153 0)
(56.99661 2.9441352 6.6190482e-20)
(56.990631 2.6987374 1.1899478e-22)
(56.812861 2.3509706 1.3227934e-22)
(56.317825 1.8335548 0)
(55.557736 1.0669374 -4.5213618e-19)
(54.210786 0.50694169 0)
(52.272345 0.10427195 0)
(41.281415 -4.3597039 -1.9463717e-20)
(42.703811 -4.257057 -1.6849986e-20)
(43.975212 -4.089671 2.9645333e-20)
(45.142581 -3.8875973 -2.6002434e-20)
(46.241988 -3.6571075 -2.2715975e-20)
(47.298386 -3.3946842 -1.1691556e-24)
(48.32705 -3.0940851 1.711086e-20)
(49.333892 -2.7493809 2.941285e-20)
(50.315891 -2.3558753 -2.5104556e-20)
(51.263676 -1.911225 -3.1897298e-20)
(52.162869 -1.4167809 2.6787664e-20)
(52.995831 -0.87937821 -7.4314547e-21)
(53.745008 -0.31197914 4.9030822e-20)
(54.396418 0.26695253 5.0093377e-21)
(54.942817 0.83507662 2.0316454e-21)
(55.386082 1.3692237 -1.6343754e-21)
(55.736682 1.8491446 0)
(56.010378 2.2596277 -6.6727699e-20)
(56.2259 2.5904316 5.3954974e-20)
(56.402719 2.8377582 -6.6212347e-22)
(56.556002 3.0014592 -5.3202587e-22)
(56.697786 3.084702 4.3220349e-22)
(56.829175 3.0889991 8.7466917e-20)
(56.942475 3.022578 -1.1127443e-25)
(57.016203 2.8814605 5.4457283e-22)
(57.016586 2.652297 6.1679667e-26)
(56.847188 2.3221008 -4.0986009e-22)
(56.36363 1.8248327 1.6610294e-22)
(55.600896 1.0771121 7.1515214e-24)
(54.236773 0.52290814 0)
(52.292147 0.099106428 0)
(40.915743 -4.6626367 -1.7707505e-20)
(42.306127 -4.5309024 -3.6799111e-24)
(43.566587 -4.3384168 -2.7438367e-20)
(44.732903 -4.110383 2.42438e-20)
(45.834406 -3.8553928 2.1354813e-20)
(46.892839 -3.5721399 3.7416888e-20)
(47.922653 -3.2559872 -8.153431e-20)
(48.930727 -2.9021245 -2.8253951e-20)
(49.915894 -2.5064302 -1.2147571e-20)
(50.870917 -2.066368 5.1821048e-20)
(51.783629 -1.5820609 8.3482077e-24)
(52.63811 -1.0582133 0)
(53.417427 -0.50489692 -9.7955802e-20)
(54.106763 0.062484312 0)
(54.696729 0.62411713 7.0108414e-20)
(55.185964 1.1583419 -3.3430118e-21)
(55.58145 1.6450049 2.6944384e-21)
(55.896225 2.0678765 6.4802007e-20)
(56.147219 2.4152697 1.7278578e-21)
(56.352979 2.6815438 0)
(56.528886 2.8650403 5.5768131e-22)
(56.687745 2.9675805 -4.5380591e-22)
(56.831596 2.9945796 -1.8764054e-19)
(56.953918 2.9406955 -3.205166e-22)
(57.035245 2.8147316 -7.2928831e-20)
(57.042505 2.6027179 -2.6030177e-22)
(56.882034 2.2909571 2.8131762e-22)
(56.410879 1.814246 0)
(55.646057 1.0872482 8.9325975e-19)
(54.265058 0.53931085 -2.8469911e-20)
(52.315136 0.092445261 1.637383e-20)
(40.456576 -4.9182179 -3.2124679e-20)
(41.820556 -4.7637978 -3.1191827e-24)
(43.076596 -4.5530046 7.5973202e-20)
(44.249719 -4.3064978 -2.2568984e-20)
(45.362419 -4.0339633 -2.4375198e-25)
(46.432723 -3.7355136 -1.7655747e-20)
(47.473519 -3.4078409 -9.8393223e-24)
(48.491892 -3.0472205 2.7024177e-20)
(49.487919 -2.6502861 0)
(50.456093 -2.2147017 0)
(51.38631 -1.7399142 8.6829797e-24)
(52.264449 -1.229116 -5.8039796e-20)
(53.074563 -0.68994257 4.2561687e-20)
(53.80172 -0.13506695 -1.8877443e-24)
(54.435037 0.41823079 -6.2420657e-20)
(54.970451 0.95009676 -5.4406419e-20)
(55.411756 1.4409231 2.7592014e-21)
(55.769191 1.8738807 -7.3457015e-20)
(56.057677 2.2360747 -1.7913367e-21)
(56.294578 2.5201379 4.6112054e-20)
(56.495234 2.7228653 7.6850341e-20)
(56.6728 2.8446723 -9.4966703e-22)
(56.830952 2.8900892 1.9440919e-24)
(56.963775 2.8532934 0)
(57.053643 2.7445789 7.5107026e-20)
(57.068082 2.5498504 2.7252203e-22)
(56.917233 2.2574376 4.9175964e-26)
(56.459423 1.801548 -3.3853747e-22)
(55.693184 1.0971334 -2.2283502e-22)
(54.295768 0.55582755 2.8781844e-20)
(52.341692 0.08398081 -1.5441574e-20)
(39.913648 -5.1008757 1.4537011e-20)
(41.259449 -4.9318709 2.5825269e-20)
(42.516976 -4.7119365 -2.331686e-20)
(43.702654 -4.4564955 2.0949871e-20)
(44.833054 -4.1753386 1.8705024e-20)
(45.922521 -3.869472 -1.6621541e-20)
(46.98198 -3.5366403 2.9351332e-20)
(48.018139 -3.1740523 -2.5774748e-20)
(49.031771 -2.7791391 -1.1233146e-20)
(50.01861 -2.3499827 9.7198387e-21)
(50.970308 -1.8857884 -3.3389936e-20)
(51.874516 -1.3886633 6.4001149e-20)
(52.716423 -0.86440819 -6.0061914e-21)
(53.481495 -0.32343911 4.0242313e-20)
(54.157957 0.21945594 -6.6807918e-20)
(54.739604 0.74633946 5.4992539e-20)
(55.227398 1.2385216 2.8094522e-21)
(55.628829 1.678978 -2.2810909e-21)
(55.956655 2.0538566 0)
(56.226821 2.3542253 -4.9263973e-20)
(56.454359 2.5753297 -1.5376462e-19)
(56.652565 2.7161514 -6.3366116e-20)
(56.826755 2.7798734 1.8801476e-24)
(56.971385 2.7599037 -8.6681991e-20)
(57.070131 2.6729493 -2.9998e-22)
(57.093038 2.4937184 -1.4644557e-19)
(56.95257 2.2214232 0)
(56.509048 1.7864704 -3.3720876e-22)
(55.742225 1.1065153 -4.3344679e-19)
(54.328957 0.57208325 0)
(52.372243 0.073600891 -1.437116e-20)
(39.311227 -5.1983621 2.6280659e-20)
(40.642748 -5.0224595 0)
(41.90465 -4.802058 -1.071608e-20)
(43.105961 -4.5469144 -5.8206347e-20)
(44.257841 -4.2661654 1.7450526e-20)
(45.37104 -3.9612937 1.5599571e-20)
(46.454325 -3.630777 0)
(47.513607 -3.2725115 1.223921e-20)
(48.549955 -2.8845799 -1.0741336e-20)
(49.559903 -2.4654818 0)
(50.536464 -2.0144366 3.2358414e-20)
(51.468849 -1.5328392 0)
(52.343592 -1.0252214 -5.9033417e-21)
(53.146713 -0.50007949 -7.966711e-20)
(53.866037 0.030026205 7.078865e-20)
(54.493769 0.54909535 0)
(55.028412 1.039608 0)
(55.474875 1.4846872 7.4418277e-20)
(55.843657 1.8698047 0)
(56.149077 2.184657 1.5391682e-21)
(56.405593 2.4229807 -1.2531065e-21)
(56.626446 2.5823429 6.5770751e-20)
(56.818324 2.6645205 2.1956562e-19)
(56.975763 2.6671523 8.7873519e-20)
(57.084501 2.5970712 0)
(57.117279 2.4334304 1.5225231e-19)
(56.987855 2.1822465 0)
(56.559428 1.7687263 -3.2046762e-22)
(55.793103 1.1150979 6.2248218e-22)
(54.36476 0.5876358 -2.0965847e-23)
(52.407245 0.061540243 1.3213457e-20)
(38.677608 -5.1971083 -2.372149e-20)
(39.996026 -5.0236921 1.0705479e-20)
(41.262106 -4.8120567 -2.9506471e-20)
(42.478915 -4.5667964 3.5870827e-20)
(43.652836 -4.2958484 -1.6250639e-20)
(44.791203 -4.0008291 0)
(45.900554 -3.6807159 2.6135724e-20)
(46.985718 -3.3339095 -3.1068761e-24)
(48.047734 -2.9589658 0)
(49.083599 -2.55474 0)
(50.087294 -2.1205852 9.3344494e-24)
(51.04933 -1.6574962 0)
(51.957512 -1.169067 0)
(52.798587 -0.66224187 4.4116216e-20)
(53.560257 -0.14765854 -4.1293252e-21)
(54.23362 0.36053796 0)
(54.815126 0.84613891 0)
(55.307295 1.2926936 -7.3044414e-20)
(55.71835 1.6852826 -1.9302649e-21)
(56.060812 2.012453 -5.0491872e-20)
(56.348301 2.2665128 1.6520542e-19)
(56.59378 2.4436279 6.7955044e-20)
(56.804691 2.5440854 -1.4627056e-24)
(56.976841 2.5700267 0)
(57.097431 2.5119702 -8.5293921e-20)
(57.140327 2.3686418 1.5733308e-19)
(57.022815 2.1390335 0)
(56.610423 1.7480024 3.0641121e-22)
(55.845711 1.1225326 -4.0487919e-22)
(54.403406 0.60203298 0)
(52.447122 0.048260504 0)
(38.041988 -5.110171 -7.4892294e-20)
(39.345451 -4.944746 1.9453566e-20)
(40.612695 -4.7471936 4.3337629e-24)
(41.842074 -4.5178204 3.3128735e-20)
(43.035806 -4.2631351 1.5097565e-20)
(44.198009 -3.9846623 -2.733717e-20)
(45.33299 -3.6816416 7.3730221e-20)
(46.4443 -3.3527256 -2.1947184e-20)
(47.532683 -2.9966768 -1.9471278e-20)
(48.595376 -2.6125007 5.1454898e-20)
(49.627014 -2.1996129 -4.5000359e-20)
(50.619155 -1.7587081 -1.3029809e-20)
(51.560667 -1.2926669 1.1228051e-20)
(52.439044 -0.80713264 4.8020767e-20)
(53.242138 -0.31111606 5.7032955e-20)
(53.960269 0.18293264 6.8565653e-21)
(54.588216 0.66017848 -5.7236244e-21)
(55.126339 1.1048201 0)
(55.580609 1.5018144 -5.8723163e-20)
(55.961629 1.8387993 9.8142513e-20)
(56.281923 2.1067696 -8.330793e-20)
(56.553943 2.3004693 -6.9869975e-20)
(56.785415 2.4186122 -1.1660321e-19)
(56.97417 2.4616067 0)
(57.107989 2.421244 8.7017007e-20)
(57.161595 2.2989359 -1.6022683e-19)
(57.05703 2.0913923 1.5834548e-19)
(56.661754 1.7239634 0)
(55.899895 1.128412 3.935576e-22)
(54.445007 0.614838 -8.2691218e-23)
(52.492168 0.034563847 0)
(37.423797 -4.9406783 0)
(38.709748 -4.7886139 1.7669276e-20)
(39.974462 -4.6098132 -1.6508123e-20)
(41.212584 -4.4013838 -1.5273118e-20)
(42.422706 -4.1683606 -1.4019511e-20)
(43.605935 -3.9120254 -2.5520934e-20)
(44.764396 -3.6317341 2.3074317e-20)
(45.900271 -3.326265 4.1413863e-20)
(47.013853 -2.9944346 -2.7808428e-24)
(48.102505 -2.6352432 1.1192866e-23)
(49.161329 -2.2480554 2.8745028e-20)
(50.182724 -1.8332634 -1.2549532e-20)
(51.156509 -1.3930781 5.4397833e-20)
(52.070821 -0.93206548 8.629036e-24)
(52.913819 -0.45790882 -6.3932922e-20)
(53.675328 0.018550255 0)
(54.348769 0.48383972 -4.5549503e-20)
(54.93259 0.92297904 -7.6057963e-20)
(55.430565 1.3210563 6.3126155e-20)
(55.851304 1.6650365 2.2910668e-24)
(56.20601 1.9447521 -8.6234267e-20)
(56.506389 2.1535402 -6.9234436e-20)
(56.760287 2.2885376 -1.2141827e-19)
(56.967387 2.34837 1.0173183e-19)
(57.115595 2.3257196 0)
(57.180455 2.2238021 -1.6313459e-19)
(57.090069 2.0388243 -1.5894615e-19)
(56.71302 1.6962822 -5.6467808e-22)
(55.955434 1.132268 3.8124968e-22)
(54.489534 0.62593433 -1.1322193e-22)
(52.542514 0.021223206 9.2473997e-21)
(36.843801 -4.7050633 0)
(38.108439 -4.5693346 2.4070313e-20)
(39.365731 -4.4115609 -2.2662734e-20)
(40.607518 -4.2266144 -4.223556e-20)
(41.82929 -4.0182102 6.4976543e-20)
(43.029354 -3.7873657 -3.5687894e-20)
(44.207682 -3.5334864 -2.1614095e-20)
(45.365015 -3.2553902 4.3742525e-24)
(46.501068 -2.9518246 -3.4922429e-20)
(47.613253 -2.6216437 -3.1056403e-20)
(48.697034 -2.2640189 8.7526961e-24)
(49.745514 -1.8789633 4.8180891e-20)
(50.749353 -1.4680042 -8.3973324e-20)
(51.697399 -1.0348239 -2.7243969e-20)
(52.578083 -0.58585791 -7.8014753e-21)
(53.380946 -0.13048002 5.3222656e-20)
(54.098347 0.31918216 -6.3556197e-24)
(54.727006 0.74911742 7.5703692e-20)
(55.268647 1.1447571 3.9536163e-21)
(55.729837 1.4926372 4.0389056e-24)
(56.120252 1.7816117 8.4636939e-20)
(56.450639 2.0036793 1.4314231e-19)
(56.728791 2.1544676 3.8107836e-21)
(56.955896 2.2308553 -2.0933325e-19)
(57.119703 2.2257503 8.8273809e-20)
(57.196585 2.1425124 1.6475026e-19)
(57.121408 1.9806687 6.2555302e-22)
(56.763753 1.6646442 0)
(56.01203 1.1335605 -3.6815443e-22)
(54.53759 0.63510135 -1.5768406e-19)
(52.598072 0.0088524072 -7.9255735e-21)
(36.318757 -4.412429 0)
(37.556786 -4.2962357 0)
(38.800779 -4.1616942 6.9117205e-21)
(40.040362 -4.002361 1.2961545e-20)
(41.268309 -3.8207609 -1.2041714e-20)
(42.480279 -3.6176371 1.1082282e-20)
(43.674076 -3.3924606 -2.0231191e-20)
(44.848893 -3.1441328 1.8325042e-20)
(46.003727 -2.8713699 1.6480884e-20)
(47.13595 -2.5728844 0)
(48.24134 -2.2476068 -3.9201649e-20)
(49.313651 -1.8951239 -6.9127237e-20)
(50.344324 -1.5163076 9.0814194e-20)
(51.322955 -1.1139548 -2.6334571e-20)
(52.238324 -0.69329141 -6.0656085e-20)
(53.079808 -0.26234094 -5.2011281e-20)
(53.838955 0.16811264 3.321916e-20)
(54.510949 0.58513675 7.9619344e-20)
(55.095619 0.97470173 3.9377212e-21)
(55.597482 1.3231704 -5.6002048e-20)
(56.024523 1.6186305 -2.7506351e-21)
(56.386309 1.851865 -7.1256477e-20)
(56.690354 2.0171036 1.2373512e-19)
(56.938617 2.1095746 1.0549259e-19)
(57.11996 2.1302129 -8.8008325e-20)
(57.20994 2.0538746 1.6564206e-19)
(57.150377 1.9160357 -1.5976874e-19)
(56.813421 1.6288051 0)
(56.069323 1.1317024 3.6262264e-19)
(54.588793 0.64205861 1.9578923e-19)
(52.657943 -0.00063256584 6.7856755e-21)
(35.867452 -4.0890249 5.6723827e-20)
(37.072473 -3.9920031 -5.2937336e-20)
(38.295678 -3.8796074 9.4825101e-20)
(39.525445 -3.7449319 2.2414652e-25)
(40.752473 -3.5895155 -3.3442736e-20)
(41.970052 -3.413852 4.1241359e-20)
(43.173809 -3.217469 -5.672793e-20)
(44.361234 -2.9993432 3.4405541e-20)
(45.530377 -2.7581612 -3.1072175e-20)
(46.678388 -2.4924893 2.7868778e-20)
(47.801261 -2.2009907 -2.4829654e-20)
(48.893342 -1.8828101 -6.2844743e-24)
(49.946849 -1.5381659 -3.8666349e-20)
(50.952118 -1.1689327 3.3791974e-20)
(51.898412 -0.77921047 5.8675009e-20)
(52.775076 -0.37567339 0)
(53.573028 0.032244427 5.4183057e-21)
(54.286189 0.43278054 -8.2971804e-20)
(54.912605 0.81263595 7.7975321e-21)
(55.454788 1.1582508 -6.5628581e-21)
(55.918912 1.4571912 8.8130389e-20)
(56.313159 1.6991904 2.3117252e-21)
(56.644504 1.877125 -1.9512622e-21)
(56.91497 1.9846622 1.665327e-21)
(57.116297 2.0217606 0)
(57.220962 1.957881 1.2698452e-21)
(57.176193 1.8443919 -1.2204535e-21)
(56.861413 1.5887004 0)
(56.126914 1.1261549 -3.4926174e-19)
(54.642004 0.64623118 4.7514369e-22)
(52.716889 -0.012465546 -1.1557131e-20)
(35.482414 -3.7595511 -3.2041936e-21)
(36.650035 -3.6802428 0)
(37.847274 -3.5876885 5.7838222e-21)
(39.061834 -3.4749561 -4.3941179e-20)
(40.282782 -3.3429444 -4.894275e-26)
(41.501254 -3.1920586 -7.7546104e-26)
(42.710708 -3.0220049 5.2975425e-20)
(43.906793 -2.8319686 3.2260159e-20)
(45.0864 -2.6207388 -2.9243459e-20)
(46.24628 -2.3868306 2.6323281e-20)
(47.382562 -2.1286719 -2.3537995e-20)
(48.49017 -1.8449598 2.0912903e-20)
(49.562138 -1.5352261 0)
(50.589605 -1.2004401 -1.6211225e-20)
(51.562452 -0.84350179 -4.2421052e-20)
(52.470221 -0.4697497 6.1267647e-20)
(53.303396 -0.087243541 -2.1100488e-20)
(54.05487 0.29353403 9.0263474e-21)
(54.721087 0.66017586 0)
(55.302618 0.99947419 0)
(55.803755 1.2987384 -9.0481889e-20)
(56.231133 1.5468648 2.3120522e-21)
(56.59094 1.7354704 0)
(56.885063 1.8569419 0)
(57.108055 1.9092404 0)
(57.22814 1.8680928 -1.5832013e-19)
(57.198133 1.7693815 1.4977501e-19)
(56.907094 1.5445216 4.7113061e-22)
(56.18441 1.1165464 6.5225372e-22)
(54.697582 0.64702665 3.2178327e-22)
(52.774816 -0.028189646 9.0829623e-21)
(35.176304 -3.41273 -4.3457391e-20)
(36.298498 -3.3522674 4.9189423e-20)
(37.461794 -3.2803128 -4.7612523e-20)
(38.653735 -3.1899694 3.1999827e-26)
(39.862157 -3.081513 3.8169614e-20)
(41.076207 -2.9551849 0)
(42.287056 -2.8108199 -1.6482603e-20)
(43.488208 -2.6478444 3.0218578e-20)
(44.674988 -2.4652796 -2.7487892e-20)
(45.843392 -2.2617813 -2.9430247e-24)
(46.989466 -2.0357491 -4.4543778e-20)
(48.108606 -1.7856291 -7.8794494e-25)
(49.194679 -1.5104273 1.7597349e-20)
(50.239788 -1.2102801 1.5503863e-20)
(51.234531 -0.8869675 4.0725485e-20)
(52.168866 -0.54457488 -4.727059e-20)
(53.033145 -0.1897053 0)
(53.819461 0.16849387 8.7963802e-21)
(54.522881 0.51869747 -6.769955e-20)
(55.14215 0.84833898 -5.1212101e-20)
(55.679658 1.144726 -5.429479e-21)
(56.140371 1.396183 8.2786463e-20)
(56.529469 1.5932393 -1.9526988e-21)
(56.848551 1.7273324 1.0544971e-19)
(57.094071 1.7939451 0)
(57.230904 1.7772689 1.5766706e-19)
(57.216403 1.6931097 -1.4565367e-19)
(56.949948 1.4966117 -4.5538835e-22)
(56.241429 1.102657 -6.235851e-22)
(54.75424 0.64522638 3.0605892e-22)
(52.841322 -0.04260743 -7.4426915e-21)
(34.960665 -3.0758363 8.3909998e-20)
(36.031002 -3.0325517 -4.9694383e-21)
(37.152107 -2.9792313 -2.4146955e-27)
(38.312441 -2.9092861 -3.7201152e-20)
(39.499621 -2.8223094 0)
(40.701557 -2.7182761 8.2776641e-21)
(41.907492 -2.5970884 1.5367026e-20)
(43.108753 -2.4584271 2.8281154e-20)
(44.29875 -2.3016411 -5.161836e-20)
(45.472233 -2.1256832 7.0137538e-20)
(46.624733 -1.9291096 -4.2077288e-20)
(47.751794 -1.7103032 1.8814214e-20)
(48.847962 -1.4679056 -1.6727082e-20)
(49.906295 -1.201339 2.9571618e-20)
(50.918299 -0.91142977 -6.4985042e-20)
(51.874515 -0.60098905 4.5438442e-20)
(52.765438 -0.27518415 0)
(53.582654 0.058250806 6.8244756e-20)
(54.320084 0.38926944 1.1730235e-19)
(54.974854 0.70616858 5.6436542e-20)
(55.547496 0.9965541 -5.3436547e-21)
(56.041231 1.248476 -7.2766076e-20)
(56.460019 1.4516236 6.5918025e-20)
(56.804994 1.596828 -1.1318081e-19)
(57.073396 1.6769332 2.8987439e-21)
(57.228344 1.6866163 -1.6604585e-24)
(57.231549 1.6126041 1.44558e-19)
(56.989474 1.4455936 9.0644624e-22)
(56.297635 1.0843671 -1.1901377e-21)
(54.811937 0.64090006 0)
(52.90799 -0.062403298 1.0662705e-20)
(34.831056 -2.7560359 -3.5634488e-20)
(35.84374 -2.7285081 7.2347207e-20)
(36.915327 -2.6917642 -7.0853289e-20)
(38.035891 -2.6401067 3.4217469e-20)
(39.193636 -2.5725873 0)
(40.375982 -2.4887772 2.3051162e-20)
(41.570755 -2.3884843 -5.7290451e-20)
(42.767266 -2.2715342 -2.2110507e-26)
(43.956816 -2.1375834 4.8416244e-20)
(45.132476 -1.9859635 -2.1992464e-20)
(46.288767 -1.815561 0)
(47.420955 -1.6249247 1.7795119e-20)
(48.523981 -1.4125757 -1.5864674e-20)
(49.591735 -1.1774693 0)
(50.616722 -0.91962277 4.961121e-20)
(51.590281 -0.64067547 -4.3515869e-20)
(52.503294 -0.34442719 0)
(53.347163 -0.037137993 -1.2356522e-19)
(54.114969 0.27255427 -6.4008511e-20)
(54.802447 0.57402973 0)
(55.408399 0.85549653 -5.2344166e-21)
(55.934285 1.10505 4.4723618e-21)
(56.382669 1.3118471 -6.5058166e-20)
(56.753989 1.4664229 6.5853912e-21)
(57.045154 1.5593061 -2.8677721e-21)
(57.2201 1.594828 -1.5559194e-19)
(57.242755 1.5298101 1.1076628e-21)
(57.024873 1.3925827 9.3010912e-22)
(56.352784 1.0616719 2.8969029e-19)
(54.869354 0.63332319 2.8015035e-19)
(52.995892 -0.070891354 -2.3423795e-20)
(34.787413 -2.4570702 -6.8278336e-20)
(35.738393 -2.4454499 0)
(36.754093 -2.4234487 0)
(37.826959 -2.3879795 5.5067369e-20)
(38.946656 -2.3379152 -6.0277708e-20)
(40.101026 -2.2723916 0)
(41.277253 -2.1909309 0)
(42.463121 -2.0933345 -1.2354795e-20)
(43.647898 -1.979467 0)
(44.822673 -1.8490323 0)
(45.980451 -1.7013498 1.8693876e-20)
(47.115656 -1.5353286 5.0412588e-20)
(48.223163 -1.3496272 -3.0037828e-20)
(49.297413 -1.1430131 2.6704401e-20)
(50.331813 -0.91491016 -1.1807118e-20)
(51.318633 -0.66601059 -2.0780565e-20)
(52.249384 -0.39884288 -1.0648697e-24)
(53.115597 -0.11820727 7.1317594e-20)
(53.909869 0.16873477 5.4967744e-20)
(54.626814 0.45265382 -4.7443224e-20)
(55.263719 0.72262492 8.6700722e-20)
(55.820327 0.96711644 -4.3758954e-21)
(56.297678 1.1750925 3.7578081e-21)
(56.695253 1.3370173 -3.2397611e-21)
(57.008673 1.4416915 0)
(57.206142 1.5010275 1.509874e-19)
(57.2497 1.4447356 2.1651018e-21)
(57.055345 1.3369825 -1.0102935e-21)
(56.406743 1.0344641 -2.750346e-19)
(54.927137 0.62232456 -2.4999119e-19)
(53.105555 -0.045222209 5.4420447e-24)
(34.821482 -2.1908478 3.0538775e-25)
(35.709989 -2.1854995 -3.7141929e-21)
(36.665813 -2.1782493 0)
(37.68478 -2.1567585 -5.0640095e-20)
(38.7588 -2.1218414 5.5666884e-20)
(39.87703 -2.0725344 0)
(41.026925 -2.0079655 -4.9640796e-20)
(42.195495 -1.9276809 5.7657493e-20)
(43.370399 -1.8315624 0)
(44.540748 -1.7195671 0)
(45.697675 -1.591434 -1.7583067e-20)
(46.83421 -1.4465348 -3.1688066e-20)
(47.944576 -1.2838748 0)
(49.023307 -1.1023064 0)
(50.06445 -0.90096374 -4.486233e-20)
(51.061184 -0.67985461 0)
(52.005808 -0.44040531 -5.2147191e-20)
(52.890259 -0.18605833 1.5192781e-20)
(53.70701 0.077520604 -1.0577262e-19)
(54.449914 0.3423864 4.582477e-20)
(55.114972 0.59874034 -1.6322442e-19)
(55.700352 0.83572092 4.2605343e-21)
(56.205519 1.0424268 5.8729241e-20)
(56.628746 1.209334 1.0152576e-19)
(56.963762 1.3241973 8.5757759e-20)
(57.185953 1.4017317 -1.5185767e-19)
(57.251723 1.3579569 0)
(57.080267 1.2773601 0)
(56.45898 1.0027552 2.6125478e-19)
(54.992862 0.61070002 5.4284595e-20)
(53.14553 -0.046278498 4.1796854e-19)
(34.926792 -1.9501734 -5.8509443e-20)
(35.750727 -1.9562061 1.115358e-19)
(36.64607 -1.9537872 -1.0758367e-19)
(37.607274 -1.9462716 4.6570636e-20)
(38.629674 -1.9245302 -5.1395275e-20)
(39.70454 -1.8894172 -2.6142709e-25)
(40.820486 -1.8399855 -1.1540194e-20)
(41.964632 -1.7754161 3.2264811e-20)
(43.123733 -1.69536 9.9301489e-21)
(44.285277 -1.5998108 -1.8182345e-20)
(45.438469 -1.4887905 -1.6524186e-20)
(46.574557 -1.3621061 4.4756621e-20)
(47.686534 -1.2192137 7.4058462e-25)
(48.768444 -1.0592723 -2.3920199e-20)
(49.814522 -0.88144506 6.3769205e-20)
(50.818644 -0.68530601 -3.7607656e-20)
(51.773958 -0.47148836 8.2794473e-20)
(52.672998 -0.2422515 0)
(53.508397 -0.0018732179 -5.7486906e-24)
(54.273647 0.24314208 -3.3070372e-20)
(54.963766 0.48431726 6.6868618e-20)
(55.575539 0.7116862 0)
(56.106913 0.91476789 -5.3528132e-20)
(56.554842 1.0840171 -6.1801229e-21)
(56.91133 1.2068321 -1.72669e-19)
(57.157839 1.2907434 4.7748624e-21)
(57.247062 1.2726985 -4.0935101e-21)
(57.099965 1.2131782 1.3126793e-19)
(56.508808 0.96722805 -2.4980007e-19)
(55.063443 0.60135203 4.1125685e-20)
(53.145846 -0.082541444 -2.0509281e-19)
(35.094316 -1.73879 -5.0352653e-20)
(35.853995 -1.751275 5.2980929e-20)
(36.686402 -1.7595744 0)
(37.589626 -1.7559998 6.05115e-21)
(38.557041 -1.7471709 0)
(39.583162 -1.7242051 0)
(40.658582 -1.6878634 1.0721869e-20)
(41.771406 -1.6372513 -3.0070309e-20)
(42.90834 -1.571684 6.494552e-20)
(44.055892 -1.4909509 -1.5347137e-26)
(45.201629 -1.3951416 1.5506973e-20)
(46.334916 -1.2843576 2.8061594e-20)
(47.447102 -1.1584787 -5.0479474e-20)
(48.531176 -1.0170768 -1.7738209e-24)
(49.58109 -0.85953352 0)
(50.590938 -0.68532056 0)
(51.554503 -0.49459832 -4.7208581e-20)
(52.465074 -0.28868199 1.383355e-20)
(53.315689 -0.070638954 6.0566353e-20)
(54.099775 0.15446064 3.1701672e-20)
(54.811713 0.37949569 0)
(55.447195 0.59559407 -6.3768124e-20)
(56.002806 0.79293196 6.9092361e-21)
(56.474254 0.96202852 -9.5976769e-20)
(56.85247 1.0904989 7.5972423e-20)
(57.122305 1.1797546 -1.4819615e-19)
(57.235531 1.1924554 2.0322478e-21)
(57.113996 1.1428482 -1.2138635e-19)
(56.555903 0.92874665 -1.8419642e-21)
(55.136516 0.594749 -3.037151e-20)
(53.172974 -0.11729086 0)
(35.307247 -1.5562839 -2.9652292e-21)
(36.008395 -1.5721824 -5.7170034e-21)
(36.77994 -1.5851724 4.2762414e-20)
(37.623103 -1.5919749 -9.1729497e-20)
(38.535486 -1.5866701 4.329145e-20)