/*--------------------------------*- C++ -*----------------------------------*\
| =========                 |                                                 |
| \\      /  F ield         | OpenFOAM: The Open Source CFD Toolbox           |
|  \\    /   O peration     | Version:  2406                                  |
|   \\  /    A nd           | Website:  www.openfoam.com                      |
|    \\/     M anipulation  |                                                 |
\*---------------------------------------------------------------------------*/
FoamFile
{
    version     2.0;
    format      ascii;
    arch        "LSB;label=32;scalar=64";
    class       volScalarField;
    location    "0.01";
    object      nut;
}
// * * * * * * * * * * * * * * * * * * * * * * * * * * * * * * * * * * * * * //

dimensions      [0 2 -1 0 0 0 0];

internalField   nonuniform List<scalar> 
2065
(
0.045291823
0.051907705
0.059882579
0.069162561
0.079757411
0.091726978
0.10517324
0.12023767
0.13712583
0.15610077
0.17747603
0.20164105
0.22902063
0.26008217
0.29532552
0.33527309
0.38046838
0.43147307
0.48887257
0.553305
0.62543368
0.70592278
0.79531346
0.89384191
1.0011106
1.1155145
1.2333564
1.3480124
1.4491733
1.5217418
1.5545496
0.05359258
0.060462043
0.068256833
0.077195287
0.087402602
0.098986602
0.11207219
0.12681675
0.14342921
0.16217264
0.18336237
0.20737935
0.23464523
0.26562138
0.30080001
0.34069388
0.38583871
0.43679102
0.49413412
0.55850184
0.63055524
0.71095415
0.80023591
0.89862976
1.0057254
1.1199029
1.2374435
1.3516761
1.452211
1.5237916
1.555199
0.063277278
0.070060751
0.077674391
0.0863268
0.09617755
0.10737594
0.12007934
0.13446873
0.15076464
0.16923655
0.19020382
0.21403994
0.24116183
0.27202619
0.30711654
0.34693519
0.39200942
0.44289001
0.50015764
0.56444174
0.63640046
0.71668881
0.8058395
0.90407393
1.0109678
1.1248825
1.2420724
1.3558183
1.4556466
1.5260998
1.55587
0.074538156
0.081031674
0.088376564
0.096716614
0.10620817
0.11701738
0.12932506
0.14333458
0.15928236
0.17744811
0.1981568
0.2217789
0.24872499
0.27944626
0.31441955
0.35413594
0.39911375
0.44989763
0.50706531
0.57124179
0.64308163
0.72323439
0.8122271
0.91027186
1.0169286
1.1305373
1.2473222
1.3605103
1.4595323
1.528703
1.5565629
0.087522237
0.093613964
0.10061175
0.10858649
0.11768907
0.12809051
0.13998447
0.15359084
0.16916145
0.18698743
0.20740048
0.23077139
0.25750658
0.28804883
0.32286899
0.36244945
0.40729845
0.45795418
0.51499117
0.57903011
0.65072115
0.73070767
0.81950972
0.91732842
1.0237057
1.1369575
1.2532741
1.3658223
1.4639239
1.5316357
1.5573267
0.10230705
0.10797565
0.11457306
0.1221372
0.13081779
0.1407883
0.15224936
0.1654318
0.18059986
0.1980552
0.21813659
0.24121724
0.26770218
0.29802604
0.33265039
0.37205322
0.41673356
0.46722222
0.5240905
0.5879549
0.65946029
0.73924303
0.8278147
0.92536339
1.0314107
1.144245
1.260019
1.3718324
1.4688832
1.5349356
1.5581451
0.11894634
0.12420992
0.13039393
0.13753108
0.14577447
0.15530143
0.16631809
0.17906318
0.19381042
0.21087019
0.23058795
0.25334044
0.27953263
0.30959393
0.34397586
0.38315106
0.4276141
0.47788824
0.53454124
0.5981858
0.66946048
0.74899361
0.83728667
0.93451229
1.0401689
1.1525137
1.2676581
1.3786272
1.4744775
1.5386432
1.5590064
0.13745713
0.14236217
0.14815826
0.15488772
0.16270855
0.17180277
0.18238207
0.19469181
0.20901315
0.22566343
0.24499384
0.26738491
0.2932424
0.32299267
0.35708112
0.39597361
0.44016116
0.49016396
0.54654577
0.60991579
0.68090526
0.76013335
0.84808949
0.94492806
1.0501211
1.1618909
1.2763028
1.3863009
1.4807798
1.5428012
1.55989
0.15780491
0.16242311
0.16789393
0.17427305
0.18172204
0.19042752
0.20060598
0.21250811
0.22642059
0.24266593
0.2615998
0.28360618
0.30909235
0.33848391
0.37222359
0.41077413
0.45462248
0.50428704
0.56033199
0.6233627
0.69400203
0.77285856
0.86040769
0.95678226
1.0614243
1.1725168
1.2860752
1.394955
1.4878672
1.5474532
1.5607621
0.17986373
0.18429306
0.18954205
0.19567211
0.20284394
0.21124749
0.22110214
0.23266148
0.24621515
0.26208855
0.28064012
0.30225656
0.32734734
0.35633975
0.38967751
0.42782386
0.4712662
0.52052062
0.57615291
0.63876933
0.70898254
0.7873888
0.87444728
0.97026563
1.0742518
1.1845451
1.2971064
1.4046965
1.4958197
1.5526426
1.5615713
0.20341691
0.20777772
0.21294545
0.21897069
0.22600845
0.23424632
0.24390289
0.25523088
0.26851926
0.28409303
0.30231092
0.32356099
0.34825533
0.3768251
0.4097187
0.44740402
0.49037319
0.53914513
0.59428474
0.65640147
0.72610188
0.80396631
0.89043537
0.98558752
1.0887922
1.1981405
1.3095346
1.4156353
1.5047163
1.5584087
1.5622421
0.22817285
0.2326364
0.23788515
0.2439739
0.25105444
0.25930433
0.26893519
0.28019276
0.29335937
0.30875449
0.32673313
0.34768224
0.37201585
0.4001703
0.43260162
0.46978639
0.51222549
0.56044722
0.61501715
0.67654395
0.74563465
0.82285318
0.90861774
1.0029735
1.1052466
1.2134757
1.3235008
1.4278788
1.5146295
1.5647822
1.5626683
0.25376509
0.25850554
0.26402443
0.27037847
0.27770879
0.28618186
0.2959979
0.3073898
0.32062705
0.33601742
0.35390655
0.37467562
0.3987376
0.42653296
0.45852634
0.49520578
0.53708457
0.58470392
0.63863638
0.69948918
0.76786821
0.84432503
0.92925319
1.0226598
1.1238231
1.2307248
1.3391403
1.4415225
1.5256155
1.5717771
1.5627093
0.27972443
0.28491955
0.29090405
0.29773189
0.30553298
0.31446362
0.32470607
0.33647644
0.35002586
0.36564344
0.38365797
0.4044378
0.42838884
0.45595126
0.487596
0.52382234
0.56515764
0.61215796
0.66540726
0.72551504
0.79308637
0.86866046
0.95260282
1.0448831
1.1447255
1.2500511
1.3565708
1.456636
1.5376994
1.5793767
1.5622488
0.30547115
0.31128645
0.31792306
0.32543105
0.33393069
0.34356308
0.3544921
0.36691434
0.38105854
0.39718891
0.41560976
0.43666801
0.46075357
0.48829775
0.51977042
0.55567705
0.59655656
0.64297937
0.69554286
0.75486285
0.82154469
0.89611679
0.97891321
1.0698626
1.1681357
1.2715887
1.3758706
1.4732396
1.5508503
1.5875121
1.5611202
0.33043398
0.33700389
0.34444654
0.35281153
0.36221152
0.37277381
0.38464794
0.39800529
0.41304874
0.43001554
0.44917968
0.47085728
0.49541053
0.52324884
0.55482817
0.59064896
0.63125345
0.67722141
0.72916204
0.78769922
0.85343888
0.92689837
1.0083824
1.0977732
1.194185
1.2954119
1.3970464
1.4912688
1.5649434
1.5960249
1.5590939
0.35418315
0.3615985
0.36994779
0.3792963
0.38975347
0.40143553
0.4144778
0.42903086
0.44527045
0.46340368
0.48367093
0.50635173
0.53176918
0.56029541
0.5923553
0.62842703
0.66904077
0.71477374
0.76623901
0.82406471
0.88885468
0.96111292
1.0411147
1.1286958
1.2229096
1.3214886
1.4199826
1.5105187
1.5797002
1.6046073
1.5558534
0.37662492
0.38491033
0.39420702
0.40459544
0.41618603
0.42909883
0.44346701
0.45941795
0.47710428
0.49670016
0.51840767
0.54246551
0.56915288
0.59879466
0.63176738
0.66850518
0.70950392
0.75531791
0.80654708
0.8638109
0.92770159
0.9987029
1.0770568
1.16255
1.2541767
1.3496082
1.4443646
1.5305598
1.5945963
1.6127073
1.5508908
0.39784232
0.40698222
0.41722268
0.42865966
0.44140858
0.4555923
0.47134118
0.48879014
0.50808667
0.5293663
0.55278892
0.57855114
0.60687687
0.63803687
0.67235203
0.71019626
0.75200667
0.79828754
0.84959825
0.90652481
0.969627
1.0393524
1.1158987
1.1989976
1.2875817
1.3792692
1.469564
1.5506127
1.6087219
1.6193785
1.5433066
0.41785388
0.42781765
0.43897608
0.45144022
0.46533352
0.48078508
0.49792855
0.51690212
0.53784704
0.56090432
0.58622436
0.61393727
0.64420426
0.67723303
0.71327332
0.7526291
0.79566921
0.8428226
0.89457303
0.95143601
1.0139044
1.0823607
1.1569372
1.2372956
1.3222995
1.4095198
1.494464
1.5693627
1.6205714
1.6230518
1.5315219
0.4362989
0.44705396
0.45909889
0.47255951
0.48756922
0.50426642
0.52279205
0.54328748
0.56589337
0.59075036
0.6179955
0.64775549
0.68016589
0.71533476
0.75342569
0.79465567
0.83929962
0.88769347
0.94022284
0.99729204
1.0592819
1.1264685
1.1988831
1.2760899
1.3568655
1.4387293
1.5172141
1.584689
1.6277374
1.6211885
1.5129986
0.45233834
0.46385156
0.47674861
0.49116934
0.50725798
0.52516351
0.54503654
0.56702618
0.59127702
0.61792625
0.64710262
0.67892826
0.71350632
0.75093266
0.79130337
0.83468482
0.88123916
0.93116105
0.98471241
1.0421684
1.1037607
1.1696073
1.2395879
1.313123
1.388866
1.4642656
1.5348887
1.5932903
1.6264823
1.6097844
1.4842561
0.46410024
0.47634182
0.49005968
0.50540741
0.52254048
0.54161912
0.56280452
0.58625485
0.61212096
0.64054171
0.67163956
0.7055183
0.74226544
0.78194596
0.82459675
0.87023452
0.91888331
0.97051897
1.0252292
1.0831087
1.1442297
1.2085199
1.2756456
1.3448165
1.4145063
1.482052
1.5430292
1.5901974
1.6111822
1.582662
1.4420773
0.4682537
0.48116728
0.49564706
0.51186008
0.52997371
0.55016031
0.57259282
0.59743994
0.62486057
0.6549975
0.68797065
0.72387038
0.76275225
0.80463533
0.84950985
0.89732378
0.94796814
1.0013053
1.0572068
1.1154501
1.175872
1.2381793
1.3018016
1.3656688
1.4280046
1.4859683
1.5350715
1.5682236
1.5737426
1.5306112
1.3834733
0.45951441
0.47303214
0.48820377
0.5052075
0.52422259
0.54543342
0.56902445
0.59517449
0.62404987
0.65579632
0.69052998
0.72832804
0.76921983
0.81317921
0.86012026
0.90989818
0.96231695
1.0170654
1.0738001
1.1320404
1.1913409
1.2509443
1.310072
1.367365
1.4207338
1.4670668
1.5016758
1.5174551
1.5032967
1.4410834
1.2980132
0.43048487
0.44448393
0.46021591
0.47786642
0.49762642
0.51969227
0.54425992
0.57151807
0.60163975
0.63477195
0.67102371
0.71045317
0.75305458
0.7987462
0.84736008
0.89863517
0.95221989
1.0076846
1.0644595
1.1218079
1.1789382
1.2348314
1.2882004
1.33735
1.379965
1.4125574
1.4300424
1.4250561
1.386907
1.2997331
1.1714161
0.37354533
0.3872791
0.40280197
0.42031449
0.44002887
0.46216234
0.48693041
0.51453758
0.54516629
0.57896315
0.61602397
0.65637784
0.69997074
0.74665196
0.79616177
0.84806385
0.90171988
0.95650285
1.011746
1.0666446
1.1200428
1.170666
1.216867
1.256564
1.287113
1.3046585
1.303506
1.2759254
1.2121281
1.10079
0.91732095
0.30875861
0.32086068
0.33458408
0.3501337
0.36771561
0.38754343
0.40982849
0.43476712
0.46252222
0.49321318
0.52693205
0.56369922
0.60344608
0.6459999
0.69107451
0.73835082
0.78749731
0.83780958
0.88832849
0.93794982
0.98541313
1.0290178
1.0670432
1.0970269
1.1162188
1.1203666
1.1030515
1.0566898
0.97302225
0.85084595
0.74602763
0.266353
0.27550708
0.28584272
0.29750511
0.31063574
0.32538044
0.3418863
0.36030009
0.38077189
0.40343628
0.42834816
0.45551376
0.4848848
0.51635509
0.5497595
0.58482618
0.62109359
0.65802368
0.69504241
0.73121937
0.76542125
0.79631398
0.82181845
0.8402964
0.84798839
0.84171633
0.81792126
0.77439515
0.70915127
0.63607915
0.6052826
0.28583635
0.29275308
0.30040206
0.30883094
0.31807567
0.32816023
0.33909337
0.3508657
0.36344684
0.37678883
0.39082181
0.40545833
0.4206001
0.43614423
0.45198301
0.46805173
0.48438814
0.50088319
0.51713154
0.53281117
0.54753041
0.56085127
0.57174793
0.57945167
0.58059952
0.57412602
0.5604774
0.53985344
0.51278813
0.49784327
0.48244179
0.35427232
0.35731237
0.36057348
0.36405084
0.36773141
0.37159605
0.37561967
0.37977201
0.38401932
0.38832697
0.39266303
0.39700244
0.40133107
0.40564839
0.40996744
0.41431135
0.41870308
0.42314
0.42757245
0.43191028
0.43600197
0.43957608
0.44206958
0.44305547
0.44263554
0.44093672
0.4372879
0.4323781
0.42503463
0.4249602
0.41291926
0.0048932504
0.0071400986
0.01031102
0.014435208
0.019610203
0.025970349
0.033757691
0.043140398
0.054247149
0.067544009
0.083307055
0.10185789
0.12357722
0.14895652
0.17856078
0.21303287
0.25305219
0.29932301
0.35257292
0.4135286
0.48293114
0.56151902
0.64994228
0.74859929
0.85737184
0.97514008
1.099147
1.2243433
1.3432171
1.4454279
1.5195056
0.0074354474
0.010514695
0.014273807
0.018824918
0.024331426
0.031037049
0.03927526
0.04894893
0.060443677
0.074089557
0.090176876
0.10904564
0.13109813
0.15681627
0.1867584
0.22155734
0.26187126
0.30839077
0.3618271
0.4228992
0.49234028
0.57087998
0.65915887
0.75756468
0.8659623
0.98320808
1.1065069
1.2307896
1.3484863
1.4491547
1.5216239
0.0092408244
0.012525426
0.016591951
0.02158381
0.027665992
0.035035994
0.043747677
0.053981581
0.066023673
0.080157347
0.096685558
0.11596416
0.13840829
0.16450182
0.19480517
0.22994306
0.27055597
0.31732522
0.37094916
0.43213947
0.50162207
0.5801184
0.66826004
0.76642427
0.87445938
0.99119756
1.1138056
1.23719
1.353724
1.4528579
1.5237269
0.011205661
0.014864744
0.019329729
0.02473038
0.031276781
0.039073263
0.048191929
0.058901622
0.071429528
0.086030449
0.10300425
0.1227056
0.145552
0.17203075
0.20270346
0.23817948
0.27908937
0.3261057
0.37991597
0.44122481
0.51075141
0.5892095
0.67722213
0.77515617
0.88284346
0.99909189
1.1210296
1.2435359
1.3589213
1.4565275
1.5257967
0.013089098
0.017129535
0.021997432
0.027839691
0.034826816
0.043007369
0.052579974
0.063750821
0.076734998
0.091780305
0.10918423
0.12929826
0.15254245
0.179404
0.21044484
0.24624985
0.28745073
0.33470884
0.38870234
0.45012893
0.51970159
0.59812678
0.68601943
0.78373612
0.89109235
1.0068717
1.1281632
1.2498151
1.3640708
1.46016
1.5278387
0.014990876
0.019410402
0.024675453
0.030978139
0.038344366
0.046937504
0.056943503
0.068548037
0.081960027
0.097423884
0.11523527
0.13574659
0.15937641
0.18661305
0.21801003
0.25413323
0.29561664
0.34310958
0.39728209
0.45882512
0.5284459
0.60684407
0.69462679
0.79214051
0.89918463
1.0145184
1.1351913
1.2560167
1.3691662
1.463752
1.5296817
0.016846137
0.021653982
0.027333371
0.03404751
0.041813427
0.050831289
0.061259673
0.073278302
0.087093406
0.10295269
0.1211509
0.14204121
0.1660415
0.19364158
0.22537532
0.26180605
0.30356173
0.3512816
0.40562831
0.46728634
0.53695762
0.61533537
0.70301938
0.8003462
0.90709935
1.022014
1.1420993
1.26213
1.3742012
1.4672991
1.5314945
0.018686484
0.023878009
0.029984118
0.037059627
0.045240192
0.054671835
0.065505477
0.07791777
0.092116365
0.10834993
0.12691446
0.14816468
0.17252084
0.20046695
0.23251708
0.26924257
0.31125914
0.35919761
0.41371355
0.47548535
0.54521008
0.62357497
0.7111728
0.80833054
0.91481614
1.0293408
1.148873
1.2681449
1.3791699
1.4708006
1.533178
0.020480827
0.026054114
0.032565341
0.040022229
0.048606838
0.058434939
0.069655147
0.082442495
0.097005209
0.11359247
0.1325033
0.15409614
0.1787908
0.20705919
0.23940878
0.27641512
0.31868096
0.36682965
0.42151003
0.48339488
0.55317683
0.63153752
0.71906317
0.81607148
0.92231526
1.036482
1.1554991
1.2740518
1.3840669
1.4742533
1.5348321
0.022241437
0.028193256
0.035069443
0.042920657
0.051890201
0.062095599
0.073683259
0.086826426
0.10173312
0.11865455
0.13789383
0.15981183
0.18482252
0.21338696
0.24602204
0.2832949
0.32579854
0.37414936
0.42898991
0.49098785
0.56083182
0.63919825
0.72666725
0.8235477
0.92957769
1.0434214
1.1619647
1.2798415
1.3888871
1.4776567
1.53649
0.023962706
0.030277449
0.037503554
0.045733768
0.055066589
0.065628539
0.077563792
0.091043157
0.10627457
0.12351197
0.14306125
0.16528203
0.19058084
0.21942221
0.25232724
0.28985247
0.33258288
0.38112829
0.43612549
0.49823755
0.5681495
0.64653302
0.73396256
0.83073866
0.93658519
1.0501434
1.1682574
1.2855056
1.3936258
1.4810093
1.5381109
0.025640103
0.032296909
0.039867424
0.04844592
0.058118161
0.069014552
0.081276259
0.095070896
0.11060673
0.1281382
0.14797394
0.17046727
0.19603077
0.2251347
0.25829403
0.29605812
0.33900489
0.38773814
0.44288945
0.50511779
0.57510504
0.65351848
0.74092745
0.83762466
0.94332036
1.0566333
1.1743659
1.2910361
1.3982786
1.4843099
1.5396943
0.027274481
0.034250312
0.04214796
0.051039265
0.061034813
0.072241974
0.084804392
0.098887374
0.11469922
0.13249894
0.15258932
0.17533055
0.20114325
0.23049364
0.26389207
0.30188217
0.34503568
0.393951
0.44925505
0.51160314
0.58167442
0.6601322
0.74754124
0.84418702
0.94976675
1.0628772
1.1802795
1.2964255
1.4028416
1.4875572
1.5412396
0.028820031
0.036077249
0.044273837
0.053474441
0.063779204
0.075279941
0.088114603
0.10245554
0.11851253
0.13654857
0.15686909
0.17984293
0.20588773
0.23546841
0.26909125
0.30729527
0.35064688
0.39973961
0.45519632
0.51766903
0.58783462
0.66635279
0.75378432
0.85040806
0.95590887
1.0688621
1.1859881
1.3016672
1.4073112
1.4907504
1.5427459
0.030154385
0.037698359
0.046199956
0.055702987
0.066288082
0.078055849
0.091137827
0.10571297
0.12199526
0.14024687
0.16078475
0.18397388
0.21023382
0.24002881
0.27386196
0.31226868
0.3558108
0.40507757
0.46068826
0.52329196
0.59356374
0.67216003
0.75963825
0.85627127
0.96173231
1.074576
1.1914824
1.306755
1.4116842
1.4938887
1.5441172
0.031589968
0.039325519
0.048020226
0.057742572
0.068549751
0.080537781
0.093838574
0.10862517
0.12511389
0.14356908
0.16430679
0.18769364
0.2141517
0.24414531
0.27817534
0.31677451
0.36050075
0.40993953
0.46570702
0.52844967
0.59884114
0.67753499
0.76508585
0.86176135
0.96722379
1.0800076
1.1967536
1.3116833
1.4159575
1.4969718
1.5454603
0.032957735
0.040849939
0.049698698
0.059583588
0.070563528
0.082733864
0.096219547
0.11118696
0.12785487
0.14649066
0.16740787
0.19097359
0.21761244
0.24778933
0.28200359
0.32078599
0.36469122
0.41430142
0.47023008
0.53312125
0.60364758
0.68246013
0.77011133
0.86686431
0.97237123
1.0851471
1.2017939
1.3164468
1.4201284
1.4999994
1.5467437
0.034295956
0.042293634
0.051246266
0.061227219
0.072323109
0.084621965
0.098249939
0.11337077
0.1301973
0.14898792
0.17006198
0.19378634
0.2205883
0.25093357
0.28532017
0.32427771
0.36835809
0.41814058
0.4742364
0.53728729
0.60796537
0.68691942
0.77470037
0.87156754
0.97716381
1.0899853
1.2065961
1.3210409
1.4241948
1.5029714
1.5479872
0.035568715
0.043630312
0.052645862
0.062688184
0.073838909
0.08620162
0.099910524
0.11513585
0.13208305
0.15100883
0.17222723
0.19610178
0.22305276
0.25355218
0.28810011
0.32722577
0.37147883
0.42143599
0.47770658
0.54093006
0.61177843
0.69089845
0.77884018
0.87585992
0.98159201
1.0945145
1.211154
1.3254613
1.4281548
1.505888
1.5491194
0.03677711
0.044849001
0.053877825
0.063939217
0.075112772
0.087505349
0.10125793
0.11654259
0.13356516
0.15258086
0.17390152
0.19788818
0.22496344
0.25559879
0.29030783
0.32960579
0.37403253
0.4241684
0.48062299
0.5440336
0.61507246
0.69438455
0.78251966
0.87973183
0.98564772
1.098728
1.2154625
1.3297043
1.4320069
1.5087498
1.5502278
0.037917187
0.045940802
0.054926948
0.064956388
0.076108241
0.088487612
0.10223694
0.11754101
0.13460332
0.15367816
0.17507644
0.19915531
0.22633884
0.2570981
0.29194626
0.33140138
0.3760006
0.42631469
0.4829645
0.54658365
0.61783503
0.69736684
0.78572941
0.88317529
0.98932428
1.1026203
1.2195171
1.3337671
1.4357497
1.511557
1.5512584
0.038983294
0.04689807
0.055779161
0.065718255
0.076795662
0.089133809
0.10286148
0.11816694
0.13524538
0.15434069
0.17576657
0.19990153
0.22716993
0.25803701
0.29300044
0.33259464
0.37736673
0.4278721
0.48472847
0.54856846
0.62004896
0.69983618
0.78846184
0.88618399
0.99261649
1.1061874
1.2233146
1.3376472
1.4393826
1.51431
1.5522569
0.039998061
0.047725994
0.056422303
0.066199922
0.077176454
0.089447922
0.10313388
0.11836246
0.13537352
0.15443427
0.1758579
0.20003312
0.22737048
0.25833467
0.29342438
0.33316909
0.37811738
0.42883386
0.48590442
0.54997878
0.62171986
0.70178273
0.79071117
0.88875332
0.99552072
1.1094263
1.2268527
1.341343
1.4429048
1.5170096
1.5532247
0.041038651
0.04847537
0.056870873
0.066394419
0.077165575
0.08927957
0.10284964
0.11801325
0.13498101
0.1540174
0.17543446
0.19962215
0.22700158
0.25803923
0.29323596
0.33311887
0.37823564
0.42915078
0.48645082
0.55077894
0.62279965
0.70317991
0.79246077
0.89088073
0.99803533
1.112336
1.2301304
1.3448537
1.4463161
1.5196562
1.5541371
0.0049275762
0.0071529386
0.01019376
0.014167298
0.019138357
0.025209048
0.032660991
0.041649864
0.052331137
0.065156043
0.0804304
0.098484795
0.11974681
0.14467811
0.17384471
0.20789635
0.2475257
0.29344758
0.34640013
0.40713333
0.4763896
0.55489033
0.64328235
0.74198298
0.85088608
0.96889185
1.0932817
1.2190388
1.3387244
1.4421163
1.5176199
0.0052480716
0.0075651347
0.010565554
0.014423907
0.019226727
0.025184545
0.032520327
0.041376989
0.051973918
0.064574009
0.079558847
0.097304345
0.1182445
0.14286449
0.17172627
0.20547178
0.24479999
0.29043371
0.34311792
0.40360977
0.47265968
0.55099273
0.63925962
0.7378816
0.84675997
0.96480843
1.08934
1.2153705
1.3355354
1.4397222
1.5162697
0.0055993585
0.0079720353
0.010969598
0.014778633
0.019500831
0.025323797
0.03250456
0.041167141
0.05154189
0.063901829
0.078614976
0.096067132
0.1166967
0.14099589
0.16953218
0.20294936
0.24195269
0.2872734
0.33966443
0.39989038
0.46871245
0.54685872
0.63498458
0.73351572
0.8423614
0.96044992
1.0851274
1.2114455
1.3321179
1.4371478
1.5147686
0.0059705986
0.0083745842
0.011367506
0.015128523
0.01977144
0.025465115
0.032490392
0.040961063
0.051113607
0.063228725
0.077662937
0.094811305
0.11511618
0.13907585
0.16726566
0.20033095
0.23898374
0.28396455
0.33603553
0.39596982
0.46453964
0.54247779
0.63044468
0.728871
0.8376746
0.95579949
1.0806264
1.2072465
1.3284555
1.4343786
1.513146
0.0063637728
0.0087809286
0.011763653
0.01547584
0.020039586
0.025611606
0.032478903
0.040760077
0.050690705
0.062559113
0.076705943
0.093540914
0.11350729
0.13710839
0.16493072
0.19761941
0.23589452
0.28050666
0.33222849
0.39184358
0.46013348
0.53783977
0.6256275
0.72393303
0.8326835
0.95083988
1.075819
1.2027554
0.0067781499
0.0091953694
0.012161581
0.015823927
0.020309209
0.025764608
0.032473099
0.040566483
0.050274991
0.061887721
0.075746908
0.0025969179
0.0030568297
0.0034941663
0.0039170935
0.0043369297
0.00098122109
0.0019330209
0.02421521
0.033359165
0.00039854889
0.0009604845
0.0020375283
0.0033272188
0.00029443963
0.00075405048
0.0018396741
0.0032859939
0.0049793549
0.0002074636
0.00042954593
0.0012826542
0.0026927225
0.004476515
0.0065750453
0.00023277967
0.00059348171
0.0018143975
0.003585785
0.0057423879
0.0082200811
0.00025483697
0.00075465922
0.0023104843
0.004392337
0.0068906632
0.0097496906
0.00027438502
0.00092609445
0.0027940541
0.0052055203
0.0080557062
0.011292146
0.00028630121
0.0011034096
0.0032311485
0.0059561093
0.0091609631
0.012773767
0.00029916771
0.0012798706
0.0036839152
0.0067256908
0.01027027
0.014243916
0.00031061864
0.0014622834
0.0041182165
0.0074612441
0.011339623
0.015669564
0.0003211298
0.0016408989
0.0045553318
0.0081984628
0.012397895
0.017071489
0.00032987802
0.0018586554
0.0050242626
0.0089430948
0.013440522
0.018444761
0.00033652606
0.0021278429
0.0055179395
0.009672328
0.014451179
0.01978204
0.00034173834
0.0022863632
0.0058610132
0.010295833
0.015396719
0.021076525
0.0003458741
0.0023623606
0.0061095359
0.010817576
0.016244099
0.022284779
0.00034992394
0.0024134256
0.0062652193
0.011188446
0.016914907
0.023308682
0.00035463301
0.0025886551
0.0066756071
0.011849186
0.017828417
0.024506446
0.00035831035
0.0026474201
0.0068980657
0.01233275
0.018619761
0.02563559
0.00036168312
0.0027587679
0.0071991114
0.012882509
0.019451182
0.026780023
0.00036423929
0.0028379583
0.0074500202
0.013377107
0.020233503
0.027881349
0.00036643687
0.0029297591
0.007710294
0.013869827
0.021001199
0.028956508
0.00036810104
0.003010049
0.0079566045
0.01434072
0.021740275
0.029996307
0.00036925843
0.0030904605
0.0081964203
0.014792964
0.02244934
0.030997814
0.0031638527
0.0084231858
0.015220928
0.023117096
0.031958927
0.0086289657
0.015608455
0.02371974
0.032859849
0.04159089
0.050034734
0.060102119
0.071855869
0.085349804
0.10061807
0.11767456
0.1365042
0.15703925
0.17911595
0.20249054
0.22684185
0.25204263
0.25179748
0.2756824
0.2768954
0.29873311
0.3015861
0.32076842
0.3253493
0.34156208
0.34784712
0.36117235
0.36906561
0.37972514
0.38911887
0.39720125
0.40802
0.41317944
0.4253915
0.42676799
0.44037201
0.43602598
0.45106383
0.43765916
0.45415143
0.42640831
0.44435749
0.39509705
0.41436285
0.33823381
0.35744633
0.27761787
0.29451981
0.24292391
0.25568356
0.26783017
0.27784494
0.34581258
0.35073873
)
;

boundaryField
{
    Side1
    {
        type            empty;
    }
    Inlet
    {
        type            calculated;
        value           nonuniform List<scalar> 
92
(
0.39740317
0.39740317
1.55587
0.39740317
0.39740317
0.39740317
0.39740317
0.39740317
0.39740317
0.39740317
0.39740317
0.39740317
0.39740317
0.39740317
0.39740317
0.39740317
0.39740317
0.39740317
0.39740317
0.39740317
0.39740317
0.39740317
0.39740317
0.39740317
0.39740317
1.1714161
0.39740317
0.74602763
0.6052826
0.39740317
0.39740317
0.39740317
0.39740317
0.39740317
0.39740317
0.39740317
0.39740317
0.39740317
0.39740317
0.39740317
0.39740317
0.39740317
0.39740317
0.39740317
0.39740317
0.39740317
0.39740317
0.39740317
0.39740317
0.39740317
0.39740317
0.39740317
0.39740317
0.39740317
0.39740317
0.39740317
0.39740317
0.39740317
0.39740317
0.39740317
0.39740317
0.39740317
0.39740317
0.39740317
0.39740317
0.39740317
0.39740317
1.5296817
0.39740317
1.533178
0.39740317
0.39740317
0.39740317
0.39740317
0.39740317
0.39740317
1.5441172
0.39740317
0.39740317
0.39740317
1.5491194
0.39740317
0.39740317
0.39740317
0.39740317
0.39740317
1.5176199
0.39740317
0.39740317
0.39740317
0.39740317
0.39740317
)
;
    }
    Side2
    {
        type            empty;
    }
    Outlet
    {
        type            zeroGradient;
    }
    Botwall
    {
        type            nutkWallFunction;
        blending        stepwise;
        value           nonuniform List<scalar> 0();
    }
    Cyli
    {
        type            nutkWallFunction;
        blending        stepwise;
        value           nonuniform List<scalar> 
20
(
2.1754639e-05
2.520611e-05
2.8187596e-05
3.0814266e-05
3.2407713e-05
3.4125231e-05
3.5648763e-05
3.7043442e-05
3.8207646e-05
3.9097439e-05
3.9805623e-05
4.038017e-05
4.0916045e-05
4.1543581e-05
4.204227e-05
4.2504146e-05
4.285723e-05
4.316519e-05
4.3403458e-05
4.3575588e-05
)
;
    }
    procBoundary2to0
    {
        type            processor;
        value           nonuniform List<scalar> 
55
(
0.0013390511
0.0015972936
0.001895748
0.0022289536
0.0025934453
0.00043135707
0.0010635596
0.00019598279
0.00046258129
0.00046258129
0.0088209656
0.015962716
0.015962716
0.024761076
0.034040379
0.00018492211
0.00018492211
0.00017107572
0.00017107572
0.00036980897
0.00036980897
0.0032299847
0.0032299847
0.042747197
0.051998318
0.062735761
0.075011654
0.088885348
0.10440201
0.1215712
0.14035846
0.16065555
0.18226305
0.20492036
0.22830418
0.22830418
0.25117461
0.27331511
0.29471104
0.31503317
0.33415911
0.35220476
0.36929584
0.38538197
0.39999911
0.41222848
0.42009567
0.42033743
0.40771842
0.37523557
0.31872378
0.26064744
0.23006026
0.25748248
0.34046914
)
;
    }
    procBoundary2to3
    {
        type            processor;
        value           nonuniform List<scalar> 
35
(
1.3245346
1.4314123
1.5114152
0.092259464
0.111874
0.13510341
0.16253109
0.19481755
0.23268678
0.27690003
0.32824166
0.38750707
0.45548698
0.53293453
0.62051943
0.71868481
0.8273683
0.94554943
1.0706824
1.3245346
1.1979522
0.0072157166
0.0047646733
0.0096239487
0.012567407
0.01617817
0.020585444
0.025927036
0.032476837
0.04038335
0.049869058
0.061218443
0.092259464
0.074789103
0.0047646733
)
;
    }
}


// ************************************************************************* //
