/*--------------------------------*- C++ -*----------------------------------*\
| =========                 |                                                 |
| \\      /  F ield         | OpenFOAM: The Open Source CFD Toolbox           |
|  \\    /   O peration     | Version:  2406                                  |
|   \\  /    A nd           | Website:  www.openfoam.com                      |
|    \\/     M anipulation  |                                                 |
\*---------------------------------------------------------------------------*/
FoamFile
{
    version     2.0;
    format      ascii;
    arch        "LSB;label=32;scalar=64";
    class       volScalarField;
    location    "0.01";
    object      rho;
}
// * * * * * * * * * * * * * * * * * * * * * * * * * * * * * * * * * * * * * //

dimensions      [1 -3 0 0 0 0 0];

internalField   nonuniform List<scalar> 
2065
(
1.2196961
1.2176807
1.2161079
1.2142317
1.2123375
1.2106125
1.2091261
1.2078764
1.2069497
1.2062559
1.2057294
1.2054187
1.2052571
1.2051966
1.2052239
1.2052963
1.2053951
1.205499
1.205595
1.2056734
1.2057253
1.2057444
1.2057342
1.2056864
1.2056255
1.2055256
1.2054755
1.2053919
1.2054288
1.2053571
1.205933
1.2217083
1.2199882
1.2181027
1.2160113
1.2139863
1.2121322
1.2104929
1.2090844
1.2079659
1.207087
1.2064074
1.2059465
1.2056555
1.2054903
1.2054337
1.2054393
1.2054868
1.2055529
1.2056223
1.2056835
1.205725
1.205739
1.2057273
1.2056802
1.2056209
1.2055224
1.2054706
1.2053883
1.2054234
1.2053597
1.2059635
1.2226117
1.2210659
1.2191757
1.2170965
1.2150892
1.2132306
1.2115523
1.2100804
1.208861
1.2078751
1.2070966
1.2065345
1.2061454
1.2058984
1.205775
1.2057241
1.2057248
1.2057529
1.2057915
1.2058277
1.2058483
1.2058447
1.2058179
1.2057585
1.2056896
1.2055841
1.2055258
1.2054424
1.2054768
1.2054145
1.2060381
1.2230624
1.2216676
1.219928
1.2179708
1.2160422
1.2142247
1.2125498
1.2110499
1.2097653
1.2086969
1.2078318
1.2071774
1.2066942
1.2063583
1.2061607
1.2060445
1.2059878
1.2059671
1.2059646
1.2059667
1.2059591
1.2059327
1.2058876
1.2058143
1.2057339
1.2056223
1.2055563
1.2054707
1.2055014
1.2054448
1.2061015
1.223274
1.2220326
1.2204907
1.218711
1.2169091
1.215172
1.2135344
1.2120321
1.2107043
1.2095665
1.2086196
1.2078717
1.2072923
1.2068661
1.2065815
1.2063937
1.2062743
1.2061999
1.206153
1.2061194
1.206083
1.2060338
1.2059711
1.2058844
1.2057935
1.2056748
1.2056033
1.205517
1.2055458
1.2054948
1.2061681
1.2232866
1.2221913
1.220856
1.2192827
1.2176458
1.216028
1.2144646
1.212992
1.2116499
1.2104641
1.2094477
1.2086119
1.2079421
1.2074263
1.20705
1.2067831
1.2065971
1.2064647
1.2063689
1.2062955
1.2062264
1.2061509
1.2060671
1.2059643
1.2058602
1.2057328
1.2056532
1.2055639
1.2055899
1.2055454
1.2062469
1.2231391
1.2221813
1.2210484
1.2196902
1.2182395
1.216769
1.2153112
1.2139006
1.2125756
1.2113687
1.2103021
1.2093925
1.2086385
1.208035
1.2075694
1.2072171
1.2069583
1.206763
1.2066128
1.2064947
1.2063886
1.2062831
1.2061754
1.2060543
1.2059356
1.2057985
1.2057104
1.2056175
1.2056416
1.2056053
1.2063358
1.2229163
1.2221295
1.221151
1.2199763
1.2187073
1.2173951
1.2160631
1.21474
1.2134613
1.2122607
1.2111668
1.2102015
1.2093742
1.2086872
1.208135
1.2076979
1.2073591
1.2070956
1.2068863
1.206719
1.2065717
1.2064326
1.206298
1.2061563
1.2060212
1.205873
1.2057753
1.2056777
1.2056999
1.205673
1.2064377
1.2226469
1.2220695
1.2212011
1.2201636
1.2190606
1.217908
1.2167127
1.2154959
1.2142875
1.2131197
1.2120228
1.2110229
1.2101376
1.2093766
1.2087414
1.2082218
1.2078028
1.2074639
1.2071911
1.2069704
1.2067777
1.2066013
1.2064366
1.2062717
1.2061181
1.2059574
1.2058487
1.2057453
1.2057657
1.2057501
1.2065536
1.2221756
1.2218387
1.221172
1.2202713
1.2193099
1.2183088
1.2172541
1.2161556
1.2150365
1.2139247
1.2128492
1.2118377
1.2109132
1.2100921
1.2093826
1.2087831
1.208286
1.2078709
1.2075282
1.2072502
1.2070085
1.2067907
1.2065927
1.2064019
1.2062275
1.2060527
1.2059317
1.2058217
1.2058402
1.2058375
1.2066845
1.221745
1.2214258
1.2209329
1.2202676
1.2194601
1.2186003
1.217683
1.2167089
1.2156925
1.2146558
1.2136241
1.2126244
1.2116821
1.2108182
1.2100474
1.2093756
1.2088024
1.2083131
1.2079001
1.2075587
1.2072648
1.2070023
1.2067676
1.2065482
1.2063508
1.2061601
1.2060255
1.2059083
1.2059242
1.2059364
1.206831
1.2213414
1.221118
1.220713
1.220148
1.2194922
1.2187756
1.2179954
1.2171483
1.2162428
1.2152951
1.214326
1.2133599
1.2124217
1.2115353
1.2107198
1.2099876
1.2093445
1.2087854
1.2083043
1.2078967
1.2075466
1.2072367
1.2069626
1.2067118
1.2064892
1.2062809
1.2061312
1.2060061
1.2060186
1.2060477
1.2069933
1.2209137
1.2207425
1.2204222
1.2200062
1.2195035
1.2188937
1.2182202
1.217483
1.2166828
1.2158284
1.2149344
1.2140199
1.2131073
1.21222
1.2113794
1.210603
1.2099018
1.209279
1.2087332
1.2082629
1.2078537
1.2074937
1.207178
1.2068937
1.2066437
1.2064162
1.2062498
1.2061162
1.2061246
1.2061719
1.2071707
1.2205579
1.2204465
1.2202011
1.2198374
1.2193795
1.2188614
1.2183016
1.2176786
1.2169876
1.2162333
1.2154255
1.2145787
1.2137116
1.2128454
1.2120017
1.2112006
1.2104577
1.2097824
1.2091791
1.2086489
1.2081837
1.2077736
1.2074136
1.2070942
1.2068152
1.2065668
1.2063825
1.2062396
1.2062429
1.2063095
1.2073612
1.2200775
1.2200045
1.2198072
1.2195111
1.2191843
1.2187914
1.2183024
1.2177601
1.2171606
1.2164998
1.2157805
1.2150116
1.2142065
1.2133822
1.2125584
1.2117551
1.2109905
1.2102788
1.2096293
1.2090472
1.2085301
1.2080724
1.2076689
1.2073127
1.2070037
1.2067334
1.20653
1.2063772
1.206374
1.2064601
1.2075615
1.2195589
1.219534
1.219395
1.2191631
1.2188781
1.2185297
1.2181112
1.2176472
1.2171432
1.216584
1.2159644
1.2152873
1.2145614
1.2137998
1.2130191
1.2122377
1.2114747
1.2107467
1.2100673
1.2094457
1.2088849
1.2083839
1.2079403
1.2075485
1.2072089
1.206916
1.2066928
1.2065295
1.2065184
1.2066228
1.2077664
1.2188313
1.2188411
1.2187433
1.2185585
1.2183355
1.2181098
1.2178287
1.2174335
1.2169772
1.2164951
1.2159696
1.2153885
1.2147531
1.214071
1.2133545
1.212619
1.2118821
1.2111612
1.2104723
1.2098279
1.209236
1.2087002
1.2082215
1.2077978
1.2074295
1.2071137
1.2068704
1.2066964
1.2066753
1.2067957
1.2079688
1.2179926
1.2180327
1.2179742
1.2178387
1.2176636
1.2174643
1.2172646
1.2170262
1.216684
1.2162602
1.2157966
1.2153019
1.2147625
1.2141731
1.2135392
1.2128719
1.2121854
1.2114963
1.2108209
1.2101742
1.2095679
1.2090098
1.2085049
1.2080548
1.2076618
1.2073253
1.207062
1.2068765
1.2068433
1.206976
1.2081601
1.2170121
1.2170715
1.2170426
1.2169486
1.216824
1.2166739
1.2164982
1.2163257
1.2161537
1.2158954
1.215517
1.2150744
1.2146028
1.2141001
1.2135582
1.2129759
1.2123613
1.2117274
1.2110896
1.2104632
1.2098623
1.2092983
1.2087796
1.2083118
1.2078999
1.2075465
1.2072654
1.2070674
1.207019
1.20716
1.2083311
1.2159764
1.2160475
1.2160417
1.2159817
1.2158995
1.2158018
1.2156821
1.2155317
1.2153514
1.2151762
1.2150022
1.214731
1.2143329
1.2138817
1.2134154
1.2129224
1.2123941
1.2118356
1.2112577
1.2106743
1.2101003
1.2095491
1.2090322
1.2085588
1.2081365
1.2077715
1.2074761
1.2072651
1.2071971
1.2073411
1.2084733
1.2149068
1.2149813
1.2149913
1.2149584
1.2149096
1.2148507
1.2147779
1.2146866
1.2145706
1.2144236
1.2142486
1.2140752
1.2138659
1.2135537
1.2131611
1.2127319
1.2122849
1.2118123
1.2113114
1.210791
1.2102645
1.2097458
1.2092481
1.2087834
1.2083618
1.2079924
1.2076872
1.2074629
1.207369
1.2075044
1.2085817
1.2138408
1.213912
1.2139308
1.2139164
1.2138911
1.2138593
1.2138179
1.2137632
1.2136919
1.213599
1.2134777
1.2133286
1.2131836
1.2130399
1.2128136
1.2124768
1.2120855
1.2116765
1.2112511
1.2108048
1.2103424
1.2098742
1.2094132
1.2089726
1.2085644
1.2081993
1.2078898
1.2076515
1.2075233
1.2076279
1.2086432
1.2128335
1.2128984
1.2129224
1.2129221
1.212915
1.2129044
1.212888
1.2128629
1.2128266
1.2127761
1.212708
1.2126167
1.2124956
1.2123458
1.2121994
1.2120521
1.2118143
1.2114722
1.2110972
1.2107178
1.2103281
1.2099247
1.2095159
1.2091144
1.2087326
1.2083816
1.2080731
1.2078192
1.2076454
1.2076685
1.2086149
1.2119124
1.2119684
1.2119937
1.2120021
1.2120068
1.2120102
1.2120105
1.2120058
1.2119942
1.2119735
1.2119412
1.2118946
1.2118296
1.211741
1.2116241
1.2114819
1.2113398
1.2111567
1.2108786
1.2105562
1.2102299
1.2098962
1.2095506
1.2092005
1.2088566
1.2085291
1.2082267
1.2079553
1.207722
1.2076033
1.2083561
1.2111042
1.2111502
1.2111742
1.2111871
1.2111983
1.2112096
1.2112196
1.2112269
1.2112302
1.2112279
1.2112178
1.2111977
1.2111649
1.2111161
1.2110466
1.210951
1.2108311
1.210711
1.2105799
1.2103685
1.2100901
1.2098061
1.2095214
1.2092291
1.2089319
1.2086354
1.2083441
1.2080546
1.2077494
1.2074286
1.2076562
1.2104401
1.210476
1.2104968
1.2105107
1.2105244
1.2105387
1.2105529
1.2105659
1.2105768
1.2105845
1.2105875
1.2105839
1.2105715
1.2105481
1.2105107
1.2104556
1.2103792
1.2102836
1.2101789
1.2100753
1.2099182
1.2096867
1.2094448
1.2092071
1.2089608
1.2087014
1.2084271
1.208124
1.2077496
1.2072114
1.2061216
1.2099262
1.2099519
1.209968
1.2099803
1.2099931
1.2100069
1.2100212
1.2100354
1.2100486
1.21006
1.210069
1.210074
1.2100734
1.2100653
1.2100477
1.2100185
1.2099754
1.2099155
1.2098368
1.2097434
1.2096543
1.2095308
1.2093472
1.2091534
1.2089555
1.208737
1.2084882
1.2081859
1.2077702
1.2071595
1.2066981
1.2095955
1.209609
1.2096174
1.209624
1.2096311
1.209639
1.2096473
1.2096559
1.2096646
1.2096728
1.2096798
1.2096843
1.2096852
1.2096811
1.2096709
1.2096535
1.2096281
1.2095938
1.2095472
1.2094849
1.2094113
1.2093447
1.2092464
1.2090999
1.2089445
1.2087686
1.2085569
1.2082749
1.2078467
1.2070735
1.2052857
1.2093654
1.2093713
1.2093744
1.2093766
1.2093788
1.2093812
1.2093842
1.2093881
1.2093928
1.2093971
1.2094002
1.2094015
1.2094009
1.2093981
1.2093932
1.2093852
1.2093722
1.2093524
1.209326
1.2092932
1.2092541
1.2092118
1.2091646
1.209092
1.2089896
1.2088702
1.208727
1.2085282
1.208227
1.2077266
1.2055664
1.2094046
1.209406
1.2094073
1.2094092
1.2094114
1.2094137
1.2094158
1.209417
1.2094172
1.209416
1.2094134
1.209409
1.2094021
1.2093921
1.2093781
1.2093603
1.2093392
1.2093148
1.209286
1.2092507
1.2092061
1.2091504
1.2091066
1.2090799
1.2090464
1.2089992
1.2089499
1.2089061
1.2088514
1.2090498
1.2080603
1.209143
1.2091604
1.2091727
1.2091792
1.2091802
1.2091754
1.209165
1.2091491
1.2091282
1.2091034
1.2090757
1.2090466
1.2090173
1.2089887
1.2089613
1.2089348
1.2089084
1.2088809
1.2088512
1.2088185
1.2087816
1.208737
1.2086777
1.2086014
1.2085223
1.2084927
1.2085215
1.2085832
1.2086407
1.2092811
1.2084757
1.1893437
1.1892201
1.1891287
1.1891928
1.1894318
1.1898645
1.1904935
1.1912737
1.1922064
1.1932589
1.1943881
1.1955905
1.1967686
1.1978451
1.1989385
1.1999377
1.2008252
1.2016245
1.2023166
1.2029071
1.2033954
1.2037781
1.2040687
1.2042584
1.2043871
1.2044072
1.204459
1.2043198
1.2043609
1.2041342
1.2044696
1.1886542
1.1886961
1.1887476
1.18897
1.1893639
1.1899323
1.1906625
1.1915368
1.1925265
1.1936022
1.1947376
1.1959128
1.1970232
1.1980649
1.1991217
1.200068
1.2009134
1.2016769
1.2023453
1.2029179
1.2033926
1.2037677
1.2040552
1.2042455
1.2043761
1.2043994
1.2044593
1.2043243
1.2043796
1.2041729
1.2045366
1.1875075
1.1876264
1.1878382
1.1882724
1.1888824
1.1896428
1.1905494
1.1915657
1.1926586
1.1938109
1.1949979
1.1961643
1.1972571
1.1983216
1.1993559
1.2002618
1.20109
1.2018349
1.2024854
1.2030406
1.2035002
1.2038622
1.2041381
1.2043184
1.2044407
1.2044589
1.2045196
1.2043824
1.2044436
1.2042372
1.2045911
1.1861526
1.1864985
1.1869738
1.1876585
1.1884872
1.1894292
1.1904832
1.1916254
1.1928088
1.1940292
1.195235
1.1963938
1.1975085
1.1985875
1.1995923
1.2004579
1.2012759
1.2019995
1.2026279
1.2031616
1.2036016
1.203946
1.2042067
1.2043749
1.2044876
1.2045002
1.2045572
1.2044248
1.2044903
1.2042947
1.2046584
1.1847856
1.1854235
1.1861817
1.1871162
1.1881591
1.1892801
1.1904836
1.1917504
1.1930136
1.194264
1.1954755
1.1966552
1.1977813
1.1988537
1.1998133
1.2006524
1.2014557
1.202155
1.202761
1.2032739
1.2036954
1.2040243
1.2042722
1.2044306
1.2045359
1.2045445
1.2046006
1.2044699
1.204543
1.204353
1.2047269
1.1835556
1.1845006
1.185519
1.1866839
1.1879251
1.1892184
1.1905759
1.1919297
1.1932289
1.1945211
1.195756
1.1969408
1.1980704
1.1991147
1.2000232
1.200858
1.2016358
1.2023108
1.202895
1.2033878
1.2037916
1.2041055
1.2043408
1.2044891
1.2045864
1.2045904
1.2046437
1.2045174
1.2045937
1.2044101
1.2047965
1.1824965
1.1837555
1.1850368
1.1863949
1.1878133
1.1892693
1.1907269
1.1921397
1.1934976
1.1948163
1.1960621
1.1972486
1.1983703
1.1993665
1.2002365
1.2010659
1.2018173
1.2024684
1.2030306
1.2035031
1.2038892
1.2041877
1.2044101
1.2045482
1.2046373
1.2046367
1.2046875
1.2045652
1.2046446
1.2044662
1.2048786
1.1817118
1.1831822
1.1847148
1.1862909
1.1878683
1.1894308
1.1909571
1.1924194
1.1938145
1.1951446
1.1963955
1.1975819
1.1986703
1.1996024
1.2004591
1.2012757
1.202
1.2026269
1.2031667
1.203619
1.2039871
1.2042705
1.20448
1.204608
1.2046891
1.2046837
1.2047318
1.2046138
1.2046949
1.204521
1.2049297
1.1812847
1.1829512
1.1846624
1.1863798
1.1880645
1.1897034
1.1912779
1.1927688
1.1941783
1.1955125
1.1967653
1.1979263
1.198944
1.1998406
1.2007012
1.201488
1.202184
1.2027862
1.2033034
1.2037353
1.2040857
1.2043539
1.2045507
1.2046686
1.2047416
1.2047314
1.2047765
1.2046631
1.2047446
1.2045751
1.2050017
1.1812868
1.1830784
1.1848868
1.1866734
1.1884156
1.1900993
1.1916956
1.1931905
1.1946001
1.1959332
1.1971595
1.1982538
1.1992066
1.2000967
1.2009474
1.2017022
1.2023696
1.2029465
1.2034408
1.2038523
1.2041849
1.204438
1.2046221
1.2047298
1.2047946
1.2047795
1.2048215
1.2047128
1.2047935
1.2046284
1.2050421
1.1817373
1.1835726
1.1853954
1.1871795
1.1889271
1.1906198
1.19221
1.1936945
1.1950883
1.1963831
1.1975352
1.1985483
1.199488
1.2003828
1.2011967
1.2019186
1.2025567
1.2031077
1.2035788
1.2039698
1.2042846
1.2045225
1.2046939
1.2047915
1.2048482
1.204828
1.2048664
1.2047628
1.2048414
1.2046811
1.2050966
1.1824648
1.1843195
1.1861209
1.187887
1.189627
1.1912767
1.1928044
1.1942447
1.1955921
1.1968106
1.1978738
1.1988683
1.1998178
1.2006762
1.2014497
1.2021377
1.2027455
1.2032698
1.2037173
1.2040877
1.2043847
1.2046075
1.2047662
1.2048537
1.2049021
1.2048769
1.204911
1.2048127
1.2048881
1.2047332
1.2051508
1.1831606
1.1850528
1.1868713
1.1886805
1.1904593
1.1920326
1.1934365
1.1947883
1.1960679
1.1972072
1.1982493
1.1992556
1.2001615
1.2009736
1.2017069
1.2023595
1.2029358
1.2034328
1.2038564
1.204206
1.2044851
1.2046928
1.2048388
1.2049162
1.2049564
1.2049259
1.2049548
1.204862
1.2049333
1.2047845
1.2052106
1.1846093
1.1862757
1.187886
1.189578
1.1913241
1.1928149
1.1941273
1.1953949
1.1965694
1.1976676
1.1987181
1.1996662
1.2005135
1.2012779
1.2019687
1.2025839
1.2031276
1.2035966
1.2039958
1.2043245
1.2045857
1.2047783
1.2049117
1.2049789
1.2050109
1.204975
1.204998
1.2049104
1.204977
1.204835
1.2052749
1.1876194
1.1889511
1.1902529
1.1914461
1.1924912
1.1937143
1.1950215
1.1961947
1.1972647
1.1982723
1.1992243
1.2000924
1.2008772
1.2015898
1.2022351
1.202811
1.2033209
1.2037612
1.2041356
1.2044432
1.2046863
1.2048638
1.2049846
1.2050417
1.2050654
1.2050241
1.2050408
1.2049575
1.2050192
1.2048845
1.20534
1.1901195
1.1912247
1.1922221
1.1931777
1.1940998
1.1950805
1.1961109
1.1970988
1.1980298
1.198916
1.1997546
1.2005373
1.2012538
1.2019093
1.2025061
1.2030407
1.2035157
1.2039263
1.2042756
1.2045619
1.2047869
1.2049493
1.2050575
1.2051046
1.20512
1.2050731
1.2050832
1.2050032
1.2050604
1.2049334
1.2054182
1.1930095
1.1937944
1.1944442
1.1951058
1.1957955
1.196524
1.1972924
1.1980714
1.1988393
1.1995893
1.2003112
1.201002
1.2016429
1.2022364
1.2027816
1.2032729
1.2037116
1.204092
1.2044156
1.2046804
1.2048873
1.2050346
1.2051302
1.2051673
1.2051744
1.205122
1.2051256
1.2050476
1.2051008
1.2049814
1.2054695
1.1961879
1.1966146
1.1968826
1.1971993
1.1975878
1.1980395
1.1985531
1.1991127
1.1996994
1.2003001
1.2008955
1.201486
1.2020445
1.2025711
1.2030617
1.2035076
1.2039087
1.2042579
1.2045554
1.2047985
1.2049872
1.2051194
1.2052026
1.2052297
1.2052286
1.2051706
1.2051679
1.205091
1.2051409
1.205029
1.2055348
1.1996452
1.1996794
1.1995294
1.1994611
1.199508
1.1996553
1.1998991
1.2002234
1.2006123
1.2010506
1.2015074
1.2019891
1.2024587
1.2029134
1.2033462
1.2037445
1.2041066
1.2044237
1.2046947
1.2049159
1.2050864
1.2052036
1.2052745
1.2052917
1.2052825
1.205219
1.2052101
1.2051336
1.205181
1.2050762
1.2055962
1.2033293
1.2029526
1.2023622
1.2018807
1.2015548
1.2013707
1.201327
1.2014009
1.201576
1.2018402
1.2021466
1.2025109
1.2028852
1.203263
1.2036346
1.203983
1.2043047
1.2045889
1.2048329
1.2050321
1.2051844
1.2052868
1.2053455
1.2053531
1.2053359
1.205267
1.2052522
1.2051756
1.2052211
1.2051235
1.2056715
1.2071679
1.2063703
1.205333
1.2044257
1.2037072
1.2031692
1.2028273
1.2026427
1.2025899
1.2026703
1.2028136
1.2030514
1.2033238
1.2036189
1.2039255
1.2042217
1.2045014
1.2047519
1.2049687
1.2051461
1.2052805
1.2053685
1.2054155
1.2054138
1.2053888
1.2053146
1.2052941
1.2052172
1.2052615
1.2051709
1.2057194
1.2111505
1.209913
1.2084301
1.2070986
1.2059799
1.2050684
1.2044219
1.2039699
1.2036693
1.2035533
1.2035153
1.2036123
1.2037735
1.2039788
1.2042159
1.2044572
1.2046937
1.2049104
1.2051003
1.2052564
1.2053738
1.205448
1.2054839
1.2054735
1.2054412
1.205362
1.2053359
1.2052586
1.2053024
1.2052191
1.2057805
1.2154365
1.2137955
1.211917
1.2101593
1.2085933
1.2072543
1.2062549
1.2054679
1.2048747
1.2045274
1.2042741
1.2042041
1.2042377
1.2043421
1.2045035
1.2046872
1.2048796
1.2050627
1.2052265
1.2053626
1.2054641
1.2055255
1.2055511
1.2055324
1.2054933
1.2054095
1.2053778
1.2053003
1.205344
1.2052682
1.205841
1.219523
1.2178921
1.2160278
1.213946
1.2119077
1.2100759
1.2085294
1.2072323
1.206289
1.2056369
1.2051236
1.204851
1.204734
1.2047233
1.2048004
1.2049215
1.2050673
1.2052154
1.2053526
1.2054685
1.205554
1.2056027
1.205618
1.2055911
1.2055465
1.2054575
1.2054198
1.2053422
1.2053865
1.2053193
1.2059108
1.1905042
1.1905163
1.1904497
1.1904517
1.1905805
1.1908476
1.1912882
1.191874
1.1926193
1.1935007
1.1944781
1.1955515
1.1966427
1.1976674
1.198713
1.1996922
1.2005758
1.2013851
1.2020988
1.2027101
1.2032219
1.2036287
1.203942
1.2041514
1.204296
1.2043263
1.2043803
1.2042426
1.2042784
1.2040445
1.2043652
1.1908406
1.1908371
1.1908429
1.1908963
1.1910128
1.1912524
1.1916227
1.1921449
1.1928251
1.193646
1.1945714
1.1955946
1.196648
1.1976574
1.1986819
1.1996456
1.2005229
1.2013308
1.2020478
1.2026602
1.2031736
1.2035843
1.2039019
1.2041155
1.2042637
1.2042967
1.2043439
1.2042116
1.2042421
1.2040032
1.2043229
1.1909945
1.1910536
1.1911265
1.1912218
1.1913674
1.191607
1.1919536
1.1924367
1.1930642
1.1938277
1.1946997
1.1956691
1.1966784
1.1976638
1.1986638
1.1996105
1.2004812
1.2012833
1.2019982
1.2026109
1.2031246
1.2035389
1.2038601
1.2040773
1.2042289
1.2042646
1.2043063
1.2041759
1.2042032
1.2039546
1.2042736
1.1912143
1.1913477
1.1914743
1.1915937
1.1917517
1.1919841
1.1923099
1.192754
1.1933277
1.1940303
1.1948428
1.1957535
1.196714
1.1976688
1.1986412
1.1995693
1.2004318
1.2012283
1.2019405
1.2025556
1.2030725
1.2034896
1.203815
1.2040364
1.2041915
1.20423
1.204267
1.2041376
1.204161
1.2039016
1.2042244
1.1914591
1.1916392
1.1917972
1.1919476
1.1921209
1.1923503
1.1926589
1.1930691
1.1935948
1.1942403
1.1949943
1.1958461
1.1967565
1.197677
1.1986187
1.1995263
1.2003779
1.2011682
1.2018773
1.2024946
1.2030166
1.2034364
1.2037664
1.2039923
1.2041512
1.2041927
1.2042255
1.2040972
1.1916778
1.1918898
1.1920804
1.1922601
1.1924529
1.1926873
1.1929864
1.1933713
1.1938577
1.1944533
1.1951531
1.1902845
1.1905816
1.190819
1.1910383
1.1912517
1.1895857
1.1899358
1.2267773
1.2253906
1.1886945
1.1888424
1.1889944
1.1892563
1.187235
1.1872686
1.1873364
1.1877335
1.1882724
1.1836318
1.1843589
1.184831
1.1854551
1.1862201
1.1869795
1.1798285
1.1816057
1.1824223
1.183349
1.1843868
1.1853839
1.1759115
1.1785508
1.1797685
1.1810762
1.1824155
1.1836972
1.1725625
1.1760698
1.1775287
1.1789882
1.1806348
1.1821579
1.1700499
1.1739553
1.175559
1.1772685
1.1791219
1.1808328
1.1681492
1.1725577
1.1741469
1.1759651
1.1779861
1.1798693
1.1665238
1.1716804
1.1732799
1.1751606
1.1772895
1.1792954
1.1650799
1.1713151
1.1731802
1.1750971
1.1772068
1.1792421
1.1648755
1.1711322
1.1735069
1.1756307
1.1777095
1.1797232
1.1665655
1.1714677
1.1735725
1.1760048
1.1783426
1.1804692
1.1698592
1.174108
1.1749649
1.1768867
1.1790784
1.1812155
1.1730715
1.1775036
1.1781893
1.1795347
1.1812464
1.1830716
1.1762875
1.1799146
1.1807843
1.1827701
1.1846992
1.1864597
1.1796762
1.1832884
1.1844695
1.1859357
1.18756
1.1891969
1.1838918
1.1871576
1.1883024
1.1895785
1.1909945
1.1924657
1.188702
1.1916241
1.1926729
1.1936727
1.1948209
1.196078
1.19389
1.1965257
1.1974102
1.1981265
1.1989931
1.2000094
1.1995208
1.2018054
1.2024828
1.2028932
1.2034501
1.204194
1.2055213
1.2073277
1.2077762
1.2078724
1.2080991
1.2085465
1.211713
1.2130499
1.2132246
1.2129947
1.2128827
1.2130305
1.218854
1.2187472
1.2182102
1.2177931
1.2176992
1.2242129
1.2233719
1.2225895
1.222112
1.2269206
1.2275167
1.2277608
1.2277738
1.2275371
1.2270873
1.2264191
1.2256183
1.2247824
1.2239232
1.2231798
1.2224894
1.2217721
1.2218795
1.2212654
1.2213822
1.220683
1.2208171
1.2200435
1.2202188
1.2192184
1.2194222
1.218287
1.218508
1.2172303
1.21745
1.216129
1.2163342
1.2150046
1.2151861
1.2138986
1.2140502
1.2128597
1.2129819
1.2119166
1.2120106
1.2110948
1.2111637
1.2104239
1.2104719
1.2099107
1.2099403
1.209588
1.2096013
1.2093629
1.2093675
1.2094108
1.2094081
1.2091155
1.2091245
)
;

boundaryField
{
    Side1
    {
        type            empty;
    }
    Inlet
    {
        type            calculated;
        value           nonuniform List<scalar> 
92
(
1.2013903
1.2013917
1.2154859
1.2013949
1.2013969
1.2013991
1.2014017
1.2014047
1.2014082
1.2014123
1.201417
1.2014226
1.201429
1.2014366
1.2014453
1.2014556
1.2014676
1.2014815
1.201498
1.2015174
1.2015407
1.2015688
1.2016015
1.2016366
1.2016734
1.2154859
1.2017448
1.2154859
1.2154859
1.2019193
1.2020535
1.2020535
1.2020535
1.2020535
1.2020535
1.2020535
1.2020535
1.2020535
1.2020535
1.2020535
1.2020535
1.2020535
1.2020535
1.2020535
1.2020535
1.2020535
1.2020535
1.2020535
1.2020535
1.2020535
1.2020535
1.2020535
1.2020535
1.2020535
1.2020535
1.2020535
1.2020535
1.2020535
1.2020535
1.2020535
1.2020543
1.2020535
1.2013461
1.2013482
1.2013503
1.2013525
1.2013547
1.2154859
1.201359
1.2154859
1.2013628
1.2013647
1.2013665
1.2013684
1.2013703
1.2013723
1.2154859
1.201376
1.2013777
1.2013795
1.2154859
1.2013829
1.2013845
1.2013861
1.2013877
1.2013895
1.2154859
1.2013425
1.2013411
1.2013396
1.2020535
1.2020535
)
;
    }
    Side2
    {
        type            empty;
    }
    Outlet
    {
        type            calculated;
        value           nonuniform List<scalar> 0();
    }
    Botwall
    {
        type            calculated;
        value           nonuniform List<scalar> 0();
    }
    Cyli
    {
        type            calculated;
        value           nonuniform List<scalar> 
20
(
1.1836318
1.1798285
1.1759115
1.1725625
1.1700499
1.1681492
1.1665238
1.1650799
1.1648755
1.1665655
1.1698592
1.1730715
1.1762875
1.1796762
1.1838918
1.188702
1.19389
1.1995208
1.2055213
1.211713
)
;
    }
    procBoundary2to0
    {
        type            processor;
        value           nonuniform List<scalar> 
55
(
1.1900849
1.1903162
1.190565
1.1907739
1.1909643
1.1894481
1.189949
1.1890916
1.189204
1.189204
1.2294826
1.228254
1.228254
1.2312484
1.2293462
1.1885644
1.1885644
1.1863819
1.1863819
1.2179762
1.2179762
1.2246001
1.2246001
1.2297869
1.2293404
1.2290807
1.2287447
1.2282422
1.2275826
1.2266775
1.2256782
1.2246948
1.2238129
1.223037
1.2223549
1.2223549
1.2219112
1.2213567
1.2207315
1.2200377
1.2191718
1.2182084
1.2171344
1.2160262
1.2149034
1.2138061
1.2127785
1.2118486
1.2110405
1.2103831
1.2098833
1.2095747
1.2093558
1.2094122
1.2091115
)
;
    }
    procBoundary2to3
    {
        type            processor;
        value           nonuniform List<scalar> 
35
(
1.2041156
1.2038437
1.2041761
1.1959489
1.1968093
1.1976929
1.1986015
1.1994864
1.2003245
1.2011068
1.2018124
1.2024307
1.2029565
1.20338
1.2037146
1.2039452
1.2041079
1.2041525
1.2041814
1.2041156
1.2040545
1.1918757
1.1914487
1.192114
1.1923336
1.1925398
1.1927532
1.1929975
1.1932935
1.1936608
1.1941158
1.1946687
1.1959489
1.1953194
1.1914487
)
;
    }
}


// ************************************************************************* //
