/*--------------------------------*- C++ -*----------------------------------*\
| =========                 |                                                 |
| \\      /  F ield         | OpenFOAM: The Open Source CFD Toolbox           |
|  \\    /   O peration     | Version:  2406                                  |
|   \\  /    A nd           | Website:  www.openfoam.com                      |
|    \\/     M anipulation  |                                                 |
\*---------------------------------------------------------------------------*/
FoamFile
{
    version     2.0;
    format      ascii;
    arch        "LSB;label=32;scalar=64";
    class       volVectorField;
    location    "0.06";
    object      U;
}
// * * * * * * * * * * * * * * * * * * * * * * * * * * * * * * * * * * * * * //

dimensions      [0 1 -1 0 0 0 0];

internalField   nonuniform List<vector> 
2065
(
(35.341082 3.6602553 0)
(36.198288 3.5531124 -6.5161941e-18)
(36.954714 3.2638281 6.0276676e-18)
(37.552474 2.9347061 -5.5798961e-18)
(38.03887 2.6175913 5.1752103e-18)
(23.186992 1.8266234 -2.0693536e-22)
(24.731476 1.8232962 1.4054903e-17)
(26.225559 1.8283583 -6.4944887e-18)
(27.593822 1.7589739 0)
(28.837223 1.6601815 0)
(11.309056 0.21841807 -6.2963738e-21)
(12.345762 0.16572997 -6.8235904e-21)
(13.609246 0.12550133 0)
(14.981067 0.12969073 4.2854599e-21)
(4.208015 -1.0376723 6.4558552e-21)
(5.1564244 -1.1247267 -6.0989066e-18)
(6.1702144 -1.1351193 0)
(1.8466387 -2.1376364 -6.1578584e-18)
(2.6004235 -2.1409139 1.1344522e-17)
(3.3554613 -2.1002919 -5.2195023e-18)
(0.79022368 -2.9723847 5.6163506e-18)
(1.3074667 -2.8560105 0)
(-0.069169789 -3.484495 -5.240263e-18)
(-0.89390115 -3.7130368 -4.9380164e-18)
(-1.6817805 -3.6910682 2.3553617e-18)
(-3.2018401 0.2573602 -2.2759689e-18)
(-2.7049849 0.88626209 -4.7087845e-18)
(-2.0279542 1.4059415 -4.9278926e-18)
(-1.1839169 1.7899965 0)
(-1.3026698 1.4531935 -4.8534446e-18)
(-0.21208966 1.9525112 -1.914382e-18)
(-0.15290725 1.685032 -4.7268578e-18)
(0.90217361 1.8602548 1.0602117e-17)
(1.1339064 1.6968759 -5.6412836e-18)
(1.3330231 1.4934208 -5.2686598e-18)
(2.5359718 1.4597322 6.8915508e-18)
(2.949701 1.4263396 -6.3797896e-18)
(3.349738 1.3058467 0)
(3.7669114 1.1344296 0)
(6.2115237 0.94153737 7.5501385e-18)
(6.6511766 0.95989293 -7.0304055e-18)
(7.1596728 0.88894271 6.402774e-18)
(7.7556744 0.79515165 0)
(8.4024583 0.62927299 0)
(42.017837 4.2294861 -5.3899577e-19)
(45.382259 4.3838736 0)
(48.675711 4.5093499 0)
(51.778669 4.5004244 1.4453323e-18)
(54.533755 4.1953514 0)
(56.813425 3.734814 -1.182067e-18)
(58.617441 3.2078176 1.2636789e-18)
(60.008017 2.6897964 1.4685232e-18)
(61.059577 2.2285875 4.4828558e-19)
(42.161574 4.0128512 7.0328617e-19)
(45.60877 4.0833891 -1.0114442e-18)
(48.814162 4.2011555 1.5054102e-18)
(51.799262 4.1001483 -7.5341112e-21)
(54.414204 3.8660034 1.1480581e-18)
(56.588912 3.4629783 8.445796e-22)
(58.31963 2.9882799 1.1722089e-18)
(59.659423 2.513853 -1.3603668e-18)
(60.67753 2.0861833 -8.3023235e-19)
(42.456885 3.6064474 7.5723331e-19)
(45.898758 3.6658129 2.1831947e-18)
(48.957883 3.795215 -1.6400881e-18)
(51.786468 3.7652302 1.2658086e-18)
(54.275767 3.5453056 -4.2305186e-21)
(56.351928 3.1913426 1.0959915e-18)
(58.012061 2.7646679 -1.1718534e-18)
(59.301863 2.3329392 -1.4591872e-22)
(60.285397 1.9397993 4.1094729e-19)
(42.687624 3.2050453 -1.4373185e-18)
(46.086119 3.2818126 -1.0180117e-18)
(49.049729 3.4123555 -6.1636273e-21)
(51.753385 3.4028041 -2.5474154e-18)
(54.130235 3.2261852 2.3961792e-21)
(56.115721 2.919411 -1.0896918e-18)
(57.707093 2.5389027 -1.1673402e-18)
(58.946688 2.1487245 -1.4525743e-21)
(59.894924 1.7901885 4.0516341e-19)
(42.896814 2.849961 1.3220553e-18)
(46.249313 2.9346223 0)
(49.138267 3.0553791 -1.5092022e-18)
(51.731669 3.0593046 1.2318155e-18)
(53.998604 2.917324 -1.0941371e-18)
(55.893151 2.6523496 2.1517291e-18)
(57.414711 2.3150442 1.1545776e-18)
(43.113665 2.5298155 -5.9798662e-19)
(61.927944 1.8504786 0)
(62.740105 1.4840392 0)
(63.518348 1.1286999 0)
(64.283374 0.78893277 0)
(65.040646 0.44296219 0)
(65.4872 0.15715963 0)
(61.516254 1.7339175 0)
(62.299571 1.3938936 0)
(63.050408 1.0629959 0)
(63.789738 0.74702496 0)
(64.526413 0.42998211 0)
(64.968715 0.15560533 0)
(61.096164 1.6159042 0)
(61.854746 1.3029781 0)
(62.583777 0.99763978 0)
(63.304393 0.70544256 0)
(64.028339 0.41318982 0)
(64.46881 0.15163093 0)
(60.677796 1.4943036 0)
(61.411491 1.2074787 0)
(62.119206 0.92659489 0)
(62.822205 0.6567721 0)
(63.533177 0.3867205 0)
(63.969923 0.1442756 0)
(50.040372 -4.3641287 7.1860615e-19)
(50.384442 -3.4572989 -9.1261801e-19)
(50.721712 -2.6049821 0)
(51.108505 -1.8127071 0)
(51.695781 -1.040232 -4.0013137e-19)
(53.065027 -0.24049371 6.0310587e-19)
(51.927613 -4.4943639 -3.8956735e-19)
(52.276785 -3.5637693 5.029668e-19)
(52.627363 -2.6926654 -7.0866553e-19)
(53.024636 -1.883439 1.1179017e-18)
(53.583331 -1.0967007 -1.4137105e-20)
(54.687523 -0.30160424 -2.0715609e-20)
(53.941783 -4.5365202 -6.5939444e-21)
(54.302771 -3.6001162 -8.3726975e-21)
(54.675107 -2.7251254 3.7679311e-19)
(55.100516 -1.9128915 -1.199193e-18)
(55.689664 -1.1289381 9.4790109e-19)
(56.767062 -0.31806299 4.3564212e-20)
(56.05561 -4.491629 -3.2335583e-22)
(56.425155 -3.5711566 5.7722801e-19)
(56.807378 -2.713926 0)
(57.229143 -1.9205768 3.0936706e-23)
(57.7546 -1.1646488 5.258309e-19)
(58.577632 -0.38844189 -7.2237376e-19)
(58.217877 -4.3480947 -4.7468105e-19)
(58.592521 -3.4604899 5.9967831e-19)
(58.985248 -2.6354114 1.3033107e-20)
(59.429386 -1.8721003 3.3262675e-23)
(60.035851 -1.1496115 -2.8858922e-19)
(61.475296 -0.39364834 3.0697001e-19)
(60.388495 -4.0881461 5.0128442e-19)
(60.770195 -3.2408542 0)
(61.174234 -2.4496739 4.2393175e-19)
(61.633288 -1.7101842 -2.8940658e-19)
(62.250291 -0.97789318 -7.9880789e-19)
(63.415176 -0.31138115 2.9734743e-19)
(62.524126 -3.7457292 8.2614382e-21)
(62.923775 -2.9617845 0)
(63.35282 -2.2296895 0)
(63.840029 -1.5468045 -2.151058e-20)
(64.466557 -0.87139572 0)
(65.375353 -0.26192934 -1.786155e-20)
(64.544729 -3.3370107 -8.7216148e-21)
(64.962455 -2.6370694 3.4858528e-19)
(65.413958 -1.983958 -4.7784978e-19)
(65.922391 -1.3762954 0)
(66.5443 -0.77924328 3.0196869e-19)
(67.239245 -0.22819503 -2.7428462e-19)
(66.378238 -2.8656417 0)
(66.813571 -2.2641182 1.8834443e-19)
(67.285689 -1.7026493 9.6782532e-23)
(67.812939 -1.1805698 -1.8439025e-19)
(68.42824 -0.67208848 -3.0991422e-19)
(68.925025 -0.19544474 -3.1916445e-23)
(67.958597 -2.3431844 -3.0843952e-19)
(68.408384 -1.851459 -5.974729e-21)
(68.893637 -1.3907732 0)
(69.427596 -0.95938081 1.9040905e-19)
(70.024966 -0.53870301 -3.0818434e-19)
(70.371886 -0.15811671 -9.4804829e-21)
(69.23662 -1.7758349 0)
(69.70769 -1.4031371 -3.1169203e-21)
(70.21551 -1.0536452 0)
(70.771373 -0.7284133 0)
(71.372834 -0.41137196 8.5590354e-20)
(71.543119 -0.11978522 -8.5901704e-20)
(70.154955 -1.1819702 0)
(70.644224 -0.93797166 3.2520327e-21)
(71.160838 -0.70368499 -3.4804818e-20)
(71.710682 -0.48233063 5.0284664e-20)
(72.280901 -0.26215233 0)
(72.371773 -0.080462342 0)
(70.670746 -0.56400841 4.4105688e-20)
(71.2143 -0.46466736 -5.3936969e-20)
(71.784716 -0.36300019 -3.5874928e-20)
(72.384383 -0.26367018 5.138117e-20)
(72.978272 -0.14806086 0)
(72.892262 -0.038531986 0)
(70.745054 0.074444794 1.716885e-19)
(71.307419 0.072696737 9.7142142e-20)
(71.894109 0.069634279 -2.6911135e-19)
(72.505671 0.062890424 1.854953e-19)
(73.100409 0.050739661 -5.8206054e-20)
(73.026725 0.010732862 6.6598505e-20)
(70.618279 0.39597813 1.7450397e-19)
(71.183305 0.31551697 -1.3877686e-23)
(71.767836 0.24224264 4.0740899e-19)
(72.364681 0.1656652 -3.0075135e-19)
(72.917088 0.080156963 1.0713501e-19)
(72.777401 0.042812964 4.7190906e-21)
(70.238204 0.7828391 -3.8311304e-19)
(70.830818 0.61714505 7.2295014e-21)
(71.446691 0.47032108 0)
(72.081633 0.34459743 0)
(72.649434 0.22623481 3.8559427e-20)
(72.472948 0.097558585 0)
(69.584725 1.1525993 0)
(70.210474 0.90436408 4.7805667e-19)
(70.84324 0.67952244 -6.1819502e-19)
(71.486205 0.47444495 -3.992166e-19)
(72.089422 0.28121479 2.6632923e-19)
(71.901032 0.12129616 3.067067e-19)
(68.750565 1.4563071 0)
(69.40882 1.1455784 -1.5111673e-20)
(70.062351 0.86271795 0)
(70.71444 0.60239309 -4.4998042e-19)
(71.319218 0.35113583 6.2230043e-19)
(71.175106 0.14511383 0)
(67.78411 1.6881102 -8.2907229e-19)
(68.477375 1.3305665 9.882989e-19)
(69.15951 1.0030798 0)
(69.836593 0.70081358 -2.6212043e-20)
(70.466617 0.40607873 3.31554e-19)
(70.35763 0.16487061 -2.7140524e-19)
(66.739024 1.8475334 -8.3245514e-19)
(67.462914 1.4588265 9.5743646e-19)
(68.167093 1.1007894 0)
(68.858635 0.76995879 2.5735185e-20)
(69.502551 0.44647355 -3.5733889e-20)
(69.474837 0.17937809 0)
(65.670533 1.94194 8.4508064e-19)
(66.425285 1.5356243 3.0270174e-20)
(67.157586 1.1579584 0)
(67.879111 0.80681133 2.5248603e-20)
(68.560882 0.4640794 -5.226477e-19)
(68.578741 0.18439908 4.8890898e-19)
(64.601648 1.9819739 1.6272563e-18)
(65.377011 1.5749356 -1.4942052e-20)
(66.122462 1.1948677 -6.1520386e-19)
(66.85151 0.8405186 1.518917e-18)
(67.546968 0.49246312 -1.1051042e-18)
(67.683716 0.18634627 3.0152201e-20)
(63.609105 1.9650193 0)
(64.40977 1.5553549 9.4500076e-19)
(65.179038 1.16982 -2.3363247e-18)
(65.933878 0.8102905 1.5528127e-18)
(66.662081 0.46478655 -1.6139751e-20)
(66.838705 0.18192692 -1.4383897e-20)
(62.568315 1.9695652 -1.5808399e-18)
(63.389581 1.5799875 1.8488556e-18)
(64.177516 1.2056835 8.9377048e-21)
(64.952003 0.84838081 0)
(65.713459 0.48962012 5.2391553e-19)
(66.01601 0.17091855 -4.3686806e-19)
(40.042149 -20.266483 1.3433912e-18)
(41.649364 -18.456568 8.5016968e-19)
(43.49166 -16.461622 -9.7545384e-19)
(45.256946 -14.320509 -4.294741e-19)
(46.771299 -12.143764 -8.0235357e-19)
(47.94748 -10.078782 8.1169724e-19)
(48.786207 -8.2324547 -4.4313386e-19)
(49.348706 -6.6666216 -5.0919077e-19)
(49.713535 -5.4013877 1.5062017e-19)
(43.519846 -20.976028 1.4634844e-18)
(44.914693 -19.023911 -9.3538447e-19)
(46.412827 -16.879255 0)
(47.837843 -14.62192 -2.3936276e-19)
(49.067342 -12.38119 9.0046422e-19)
(50.03969 -10.283363 -4.5618794e-19)
(50.755717 -8.4163788 -4.9647844e-19)
(51.257687 -6.8328441 4.2543791e-19)
(51.604512 -5.5519917 -3.3290742e-19)
(47.105747 -21.19635 -1.5470297e-18)
(48.167761 -19.153224 0)
(49.294357 -16.946836 0)
(50.397813 -14.652498 5.086988e-19)
(51.378351 -12.403945 0)
(52.18286 -10.312657 4.8551763e-19)
(52.805277 -8.454752 -5.2852434e-19)
(53.269004 -6.8771404 -2.3167242e-22)
(53.612726 -5.5976095 1.7718256e-19)
(50.698022 -20.91172 1.6201895e-18)
(51.411308 -18.872179 -1.3861243e-18)
(52.192253 -16.67336 0)
(52.990213 -14.411197 -2.7012617e-19)
(53.73732 -12.205095 0)
(54.390122 -10.158267 1.2902918e-19)
(54.932705 -8.3392708 5.6273886e-19)
(55.369223 -6.7923096 2.4847383e-22)
(55.717004 -5.5352026 -1.1281802e-18)
(54.232338 -20.158605 1.7174027e-18)
(54.612812 -18.160262 -1.4665337e-18)
(55.062673 -16.049171 1.4342692e-18)
(55.574109 -13.888448 5.7021915e-19)
(56.109166 -11.769636 -5.4046495e-19)
(56.626207 -9.8063263 -6.8694374e-19)
(57.100915 -8.0578732 5.9800696e-19)
(57.517267 -6.5677278 -8.5443169e-20)
(57.871179 -5.3548071 0)
(57.617694 -18.927335 -3.6137961e-18)
(57.682626 -17.056192 1.6462213e-18)
(57.829201 -15.086574 -1.6926385e-19)
(58.08817 -13.064117 7.5477691e-19)
(58.436672 -11.094733 -5.7230121e-19)
(58.84071 -9.2509078 4.3805305e-19)
(59.261989 -7.6051007 -6.3519584e-19)
(59.666753 -6.1966516 -9.0502805e-20)
(60.031198 -5.0456881 -3.6945335e-19)
(60.742263 -17.248711 -9.5057819e-19)
(60.530928 -15.566152 -9.6950205e-19)
(60.420016 -13.796802 -8.9267481e-20)
(60.463102 -11.968608 4.8023859e-19)
(60.65894 -10.182658 -6.0729782e-19)
(60.975006 -8.5007472 1.5498503e-19)
(61.359857 -6.9917155 3.3721932e-19)
(61.764038 -5.6946818 -3.83136e-19)
(62.147395 -4.6311345 -8.887042e-23)
(63.510913 -15.163935 -1.0012319e-18)
(63.073306 -13.72416 5.3838519e-20)
(62.75829 -12.204351 4.7320009e-20)
(62.633208 -10.620404 6.7817499e-19)
(62.712213 -9.0568264 -6.4379654e-19)
(62.96454 -7.5744511 0)
(63.328803 -6.2351566 0)
(63.740871 -5.0787878 -5.0663217e-20)
(64.146818 -4.1279453 -5.8936277e-20)
(65.812164 -12.725707 0)
(65.221797 -11.572688 0)
(64.766548 -10.341918 4.9791704e-20)
(64.527277 -9.0430667 4.4748476e-20)
(64.529686 -7.7411191 -2.983126e-19)
(64.743415 -6.4930263 4.3121984e-20)
(65.101525 -5.353207 3.7774929e-19)
(65.528268 -4.3627803 5.3616179e-20)
(65.958785 -3.5452466 0)
(67.687892 -10.061544 5.5611622e-19)
(66.98573 -9.1771992 0)
(66.413552 -8.241186 -2.6187923e-20)
(66.090122 -7.2554248 -4.2505894e-19)
(66.047564 -6.2523437 2.6922388e-19)
(66.246544 -5.2741675 -2.291159e-19)
(66.613678 -4.3642102 -1.592494e-22)
(67.062298 -3.5635335 2.2602525e-19)
(67.518732 -2.8975083 2.6181617e-19)
(68.861164 -6.3636367 -5.5914669e-19)
(68.089616 -6.1371533 5.0251574e-19)
(67.5164 -5.7095274 -6.3366402e-19)
(67.207973 -5.1767733 2.1093757e-19)
(67.179363 -4.5657076 4.7228621e-20)
(67.398 -3.91382 -1.9267692e-19)
(67.797853 -3.2735324 2.0967703e-19)
(68.281824 -2.6900141 -1.4854645e-20)
(68.770921 -2.1932513 0)
(69.061648 -3.1402795 1.4436257e-19)
(68.384191 -2.9979641 -1.2310115e-19)
(67.91008 -2.9455661 0)
(67.691463 -2.828351 -1.2120309e-20)
(67.759803 -2.722646 -4.9471342e-20)
(68.087088 -2.4330427 5.0494646e-20)
(68.576706 -2.0946722 0)
(69.126215 -1.755077 1.5573242e-20)
(69.659795 -1.4479214 -2.1461408e-27)
(68.868455 -0.56332599 1.4665594e-19)
(68.266139 -0.81491069 1.7159375e-22)
(67.858965 -1.0093625 -2.3169399e-19)
(67.722178 -1.0817929 9.5766426e-20)
(67.899345 -0.99097341 -2.4022935e-20)
(68.326416 -0.93615642 4.9166533e-20)
(68.891756 -0.83880327 -1.0696351e-19)
(69.512073 -0.77473419 6.4998945e-20)
(70.115912 -0.66572429 2.2406647e-27)
(68.118532 1.9023223 -6.5724694e-19)
(67.702326 1.3415697 0)
(67.477867 0.85583096 2.5615154e-19)
(67.511995 0.46496523 -4.1703665e-19)
(67.793006 0.22264849 7.2605719e-20)
(68.277334 0.086792121 1.9737509e-19)
(68.884133 0.036763451 2.6541471e-20)
(69.537177 0.074504485 -1.2619288e-19)
(70.16844 0.074826082 1.82614e-20)
(66.572913 4.4902508 6.7380101e-19)
(66.484889 3.5488098 0)
(66.565376 2.7174865 0)
(66.856158 1.9997135 0)
(67.344819 1.4504645 -1.0870495e-19)
(67.977048 1.0629624 1.6429259e-19)
(68.683578 0.79728857 -5.5179019e-19)
(69.389064 0.61641902 2.5570667e-19)
(70.035675 0.4906251 -3.1591164e-19)
(64.400442 6.6695507 1.5967323e-18)
(64.68226 5.5096962 -1.2654295e-18)
(65.121287 4.4091563 6.9051243e-20)
(65.719959 3.4484974 0)
(66.459123 2.6584655 1.7370385e-19)
(67.285319 2.041025 5.8491503e-20)
(68.130882 1.5713159 6.2678483e-20)
(68.923802 1.2262816 0)
(69.622274 0.9756922 3.2719185e-19)
(61.764937 8.3195628 5.0296114e-20)
(62.487134 6.9924391 -1.255629e-18)
(63.327986 5.7445891 1.217836e-18)
(64.27485 4.6206382 1.2674598e-19)
(65.28661 3.6629578 -9.5170745e-19)
(66.308694 2.8849689 9.6178864e-19)
(67.285405 2.2713694 0)
(68.167226 1.7970022 0)
(68.925786 1.4360973 -8.5222511e-20)
(58.806707 9.3437756 4.8779234e-18)
(60.002997 7.9763236 8.8496507e-20)
(61.283748 6.6753742 -1.1873072e-18)
(62.605132 5.4772802 -3.9094136e-19)
(63.908597 4.4251736 -3.6492474e-19)
(65.141727 3.5419157 2.4513793e-19)
(66.261322 2.8226777 -6.614655e-19)
(67.234955 2.2510311 5.978137e-19)
(68.050859 1.8074027 8.666618e-20)
(55.712185 9.6956204 3.7059963e-18)
(57.386024 8.4216205 -1.8283653e-19)
(59.111717 7.1799706 -4.607691e-19)
(60.810868 6.003421 -2.9451802e-22)
(62.407642 4.9331482 -2.2829798e-22)
(63.85093 4.0035616 -2.4827439e-19)
(65.111605 3.2229636 1.3375518e-19)
(66.174275 2.5879683 0)
(67.044526 2.0870553 1.7549192e-19)
(52.696031 9.3977812 -3.8280427e-18)
(54.803514 8.3447913 5.7521403e-18)
(56.937775 7.2726393 3.1755637e-19)
(58.98987 6.210222 -1.6400717e-18)
(60.864385 5.1952763 -7.5400932e-19)
(62.505799 4.2756334 1.0022184e-18)
(63.8988 3.4765727 0)
(65.044402 2.8101004 0)
(65.963835 2.2755999 -3.5307661e-19)
(49.883315 8.5968898 -8.188601e-18)
(52.380794 7.8624962 3.6195568e-18)
(54.873715 7.0363692 2.6230817e-18)
(57.233264 6.1517603 -2.5111938e-18)
(59.353225 5.2463274 0)
(61.170692 4.3808159 0)
(62.681178 3.5995145 0)
(63.900569 2.9296163 0)
(64.8631 2.3825941 -3.5362935e-19)
(47.389562 7.4384722 -3.8853421e-18)
(50.146612 7.0556552 -4.2613535e-19)
(52.92645 6.5286116 -6.8106244e-19)
(55.555563 5.8747443 5.7054126e-19)
(57.898688 5.1223672 1.5405084e-18)
(59.876956 4.3463952 -2.0171836e-18)
(61.490536 3.6105196 -1.613657e-18)
(62.772889 2.9595484 1.2113324e-18)
(63.770234 2.418333 -1.5856174e-18)
(45.250441 6.2736872 -5.9926407e-19)
(48.336421 6.2317533 -4.4835919e-19)
(51.338919 5.9561359 7.0288504e-19)
(54.131643 5.5034414 -4.0655336e-18)
(56.616493 4.9013048 4.6559072e-18)
(58.70714 4.2234066 -2.0147999e-18)
(60.397762 3.5449107 -2.7598887e-22)
(61.728579 2.9246124 1.2013273e-18)
(62.753802 2.3958866 -1.3995084e-18)
(42.570746 5.1236915 -5.4938843e-18)
(45.805953 5.2781295 9.9139864e-19)
(49.194311 5.265727 5.9825015e-18)
(52.366617 5.0339132 -2.3972659e-18)
(55.137639 4.5965864 0)
(57.419908 4.0370801 0)
(59.228922 3.4389606 -5.2632707e-19)
(60.628916 2.8692808 -1.7726318e-18)
(61.690312 2.3730436 1.3774173e-18)
(39.721587 -37.419947 -2.4915352e-21)
(39.578135 -32.538402 1.2508003e-17)
(38.950105 -29.465865 -4.4105652e-18)
(38.808334 -26.857395 7.4349702e-19)
(38.918583 -24.47434 -2.1740894e-18)
(39.087403 -22.392533 1.9618453e-21)
(45.079757 -37.693447 -2.0190448e-18)
(44.79874 -32.821885 1.8628903e-18)
(43.706861 -29.962276 0)
(43.183185 -27.434221 -1.5571028e-18)
(42.943172 -25.107047 -5.6819016e-19)
(42.791625 -23.053171 0)
(50.367475 -37.192132 3.08948e-18)
(49.992724 -32.386921 -1.5458122e-17)
(48.474436 -29.822507 4.8031526e-18)
(47.603517 -27.433951 1.6273946e-18)
(47.056729 -25.22323 5.9781536e-19)
(46.647066 -23.263696 1.8500918e-18)
(55.455936 -35.975493 -1.0432799e-17)
(55.030677 -31.260593 0)
(53.166993 -29.014521 5.0082966e-18)
(51.993431 -26.804779 -4.2509578e-18)
(51.173266 -24.750824 0)
(50.527352 -22.926815 0)
(60.253867 -34.063184 1.0623607e-18)
(59.803394 -29.450373 -1.0387118e-18)
(57.670686 -27.562034 0)
(56.246854 -25.566121 -3.549979e-18)
(55.193745 -23.707178 2.615021e-18)
(54.344222 -22.055163 -2.0320854e-18)
(64.642588 -31.478552 -8.6206635e-18)
(64.192757 -26.996294 5.3911964e-18)
(61.853933 -25.487701 -5.4310983e-18)
(60.235193 -23.733557 3.7046559e-18)
(58.993999 -22.103646 0)
(57.981077 -20.655803 2.6596822e-18)
(68.490442 -28.268803 0)
(68.118838 -23.907574 1.112264e-18)
(65.620509 -22.819525 -2.8211204e-18)
(63.842925 -21.356883 1.9313368e-18)
(62.456207 -19.984314 -3.570428e-19)
(61.320187 -18.762664 1.6719918e-18)
(71.641434 -24.511204 0)
(71.356773 -20.279547 -1.1567199e-18)
(68.804731 -19.634702 -7.342385e-19)
(66.938645 -18.490244 2.0225755e-18)
(65.464159 -17.398157 -1.1232372e-18)
(64.254493 -16.422165 1.4631878e-18)
(74.03712 -20.300378 0)
(73.984962 -16.128732 5.9427952e-19)
(71.368982 -15.969053 7.6511105e-19)
(69.424598 -15.187531 0)
(67.893635 -14.409642 0)
(66.654801 -13.695834 -3.0769338e-19)
(75.406583 -15.740781 0)
(75.385099 -11.923445 -6.1309524e-19)
(72.956787 -12.285775 -1.5930104e-18)
(71.138531 -11.849671 1.1066136e-18)
(69.714071 -11.304517 2.0624717e-19)
(68.554035 -10.791352 -6.4741354e-19)
(75.884486 -11.998624 1.4388377e-18)
(76.364062 -6.4892073 -3.801875e-18)
(74.300123 -6.990995 1.4408462e-18)
(72.498826 -6.8696738 -9.1266014e-19)
(71.019882 -6.6861054 5.9677902e-19)
(69.804165 -6.5765933 6.3460581e-19)
(76.64888 -5.4612087 0)
(76.760359 -1.3978998 -1.05318e-18)
(74.542122 -2.8903629 9.7519968e-19)
(72.667465 -2.901397 -6.0985087e-19)
(71.155043 -3.0095531 3.8207739e-19)
(69.95634 -3.124511 -1.5460849e-19)
(76.09421 -1.4446412 4.7415875e-19)
(76.062987 2.4007765 -4.9443044e-19)
(73.844507 0.87791273 0)
(72.096114 0.41402011 -2.6636892e-19)
(70.721028 0.028973953 2.0770824e-19)
(69.650082 -0.28746608 2.4967817e-27)
(74.531995 -0.33529587 0)
(74.213775 6.8032197 1.2165911e-18)
(72.353964 4.5626154 1.6760408e-18)
(70.772052 3.6798267 -2.4822652e-18)
(69.587746 3.0154813 -2.3982217e-19)
(68.711212 2.4483514 1.3281083e-18)
(69.877387 5.2318659 6.1463751e-19)
(70.659729 11.52068 0)
(69.604154 8.4487035 0)
(68.406104 7.1664892 -3.4334973e-19)
(67.507949 6.1889882 7.8567382e-19)
(66.878938 5.3404673 -1.0409874e-18)
(64.56942 9.3519308 -6.2388132e-19)
(66.416518 14.785288 0)
(66.080378 11.52079 -3.9206159e-18)
(65.291603 10.000974 6.1212788e-18)
(64.718446 8.7940777 -1.6556091e-18)
(64.377849 7.7221006 -8.8055669e-19)
(58.705906 12.272769 -1.2740452e-18)
(61.723395 17.199464 -4.2307506e-18)
(61.93028 13.977722 4.0498264e-18)
(61.551084 12.156566 0)
(61.347364 10.736898 0)
(61.355748 9.4708867 1.3977433e-18)
(52.470732 13.891531 1.3370107e-18)
(55.703609 18.816358 -2.9275758e-18)
(56.924456 15.31441 0)
(57.200172 13.509947 0)
(57.541256 11.859399 0)
(57.961453 10.528722 -4.8355251e-18)
(45.694309 14.279041 4.8521829e-21)
(49.584243 19.306517 2.9737662e-18)
(51.667633 15.778062 -4.4414156e-18)
(52.613323 13.798089 0)
(53.505311 12.167535 0)
(54.42798 10.746654 -4.2054584e-18)
(37.866286 12.846919 0)
(42.003828 17.837868 -1.4984757e-18)
(45.927709 14.825864 1.1594822e-17)
(47.948248 13.012234 -5.3346127e-18)
(49.535158 11.53682 -1.4021818e-18)
(50.983061 10.204314 -1.1272445e-18)
(30.396527 10.807098 1.2560943e-17)
(35.860112 15.128215 0)
(40.390521 12.665457 7.3003079e-18)
(43.389891 11.21813 -1.8998226e-18)
(45.7277 10.115068 -2.087168e-21)
(47.750345 9.0474551 1.2135812e-18)
(15.359326 2.1288977 -1.5822992e-17)
(27.360858 9.9424014 1.2234993e-17)
(35.904181 9.5753244 0)
(39.822347 8.770067 -8.223155e-18)
(42.621613 8.2005599 8.2172071e-18)
(44.999422 7.5095708 5.3031685e-18)
(6.1217874 -0.84537236 1.0736718e-18)
(15.000891 4.2041099 0)
(27.330652 5.9684031 0)
(35.703817 6.3786108 -2.2159768e-18)
(39.59764 6.2753022 0)
(42.419249 5.9284943 0)
(-7.0119728 -5.4682284 0)
(8.8824434 1.2428702 1.1432056e-17)
(15.784245 3.035644 -9.9055856e-18)
(26.467693 4.290801 2.249341e-18)
(35.508058 4.992519 0)
(39.938543 4.847248 0)
(-4.0764465 -4.6760959 0)
(0.54684956 -1.0196142 0)
(7.3762676 0.62272807 0)
(14.082766 1.7820853 7.7313314e-18)
(22.979213 3.0224216 -7.9497834e-18)
(33.127945 3.8991272 0)
(-4.6050907 -4.9599593 -2.6862515e-18)
(-3.2811454 -3.1426311 -1.3997034e-17)
(0.5333591 -1.9587831 9.9605391e-18)
(5.4549444 -0.52883171 0)
(11.291181 0.74061716 3.8095255e-18)
(20.408722 2.1613112 -7.0166966e-18)
(-3.3345449 -4.5645074 -1.2373451e-17)
(-3.1653433 -3.7808047 -8.232285e-18)
(-2.0741042 -3.0862806 2.479494e-18)
(-0.025093648 -2.0755959 1.76429e-17)
(3.3781463 -0.66991909 -1.4039615e-17)
(10.191014 0.37839459 0)
(-2.6849582 -4.6471569 -1.5494261e-17)
(-2.7671725 -3.9886241 -2.2882671e-18)
(-2.1730395 -3.414623 -1.2225769e-17)
(-1.5107089 -2.6750191 8.6117654e-18)
(-0.16744373 -1.7166512 -3.8426517e-18)
(2.8817624 -0.89042402 1.0272273e-17)
(-2.1539741 -5.2461262 0)
(-2.2233653 -4.4837212 -5.8284063e-18)
(-1.6631612 -3.9389497 9.6481655e-18)
(-1.1787971 -3.3708502 -2.0787599e-18)
(-0.4628527 -2.8112494 0)
(0.89006278 -2.2676554 0)
(-2.2204488 -5.5552919 -4.3864046e-18)
(-2.1156294 -4.9341936 -1.0884348e-17)
(-1.5700657 -4.4619493 1.1621707e-17)
(-1.1289537 -4.0037622 1.9923009e-18)
(-0.59622489 -3.5819537 0)
(0.13856744 -3.195807 -6.1645955e-18)
(-2.0695243 -5.8801509 0)
(-1.9058291 -5.2677188 0)
(-1.5563353 -4.7857789 -4.445766e-18)
(-1.2632515 -4.387881 0)
(-0.92353813 -4.0409357 4.9174463e-18)
(-0.4720389 -3.729291 -1.4528528e-18)
(-1.7663802 -6.0257289 0)
(-1.7383031 -5.4117595 1.3222514e-18)
(-1.56627 -4.9005107 7.8309452e-19)
(-1.4379848 -4.5104444 0)
(-1.2952171 -4.1915604 2.2253541e-23)
(-1.0872433 -3.9347184 2.7450304e-18)
(-1.4560093 -5.8711084 0)
(-1.5447855 -5.2431564 -1.3346219e-18)
(-1.6164671 -4.7484769 1.0856082e-18)
(-1.6661875 -4.3830244 -3.5953487e-18)
(-1.684743 -4.0999906 4.5390219e-18)
(-1.6741757 -3.8752354 -1.3121068e-18)
(-1.2032 -5.4017468 -3.9078497e-18)
(-1.4361861 -4.7334263 2.6350401e-18)
(-1.673331 -4.3010597 -2.1206722e-18)
(-1.8876893 -3.9983735 1.7442425e-18)
(-2.0794514 -3.7700111 -7.3958763e-19)
(-2.2234145 -3.6051452 2.5482749e-18)
(-0.79667225 -4.1997941 3.5854823e-18)
(-1.2802108 -3.9053205 -2.5937622e-18)
(-1.6776016 -3.6208024 -2.0518758e-18)
(-2.0341724 -3.4126949 1.6903952e-18)
(-2.3773262 -3.2524305 1.0849741e-18)
(-2.6783337 -3.1442689 1.5889686e-18)
(-0.56275912 -3.0768159 1.1795253e-18)
(-1.0790724 -2.8676455 -3.6321675e-23)
(-1.6484852 -2.7123658 -3.1730936e-23)
(-2.1313718 -2.6184573 -4.1905377e-19)
(-2.5800696 -2.5571464 -3.5571634e-19)
(-2.9923539 -2.5260834 -6.2618573e-19)
(-0.74968378 -1.6737314 0)
(-1.0035098 -1.6140429 6.4206182e-19)
(-1.673634 -1.6388818 -2.5415867e-19)
(-2.2070437 -1.6867348 -2.0193468e-23)
(-2.705399 -1.7391475 3.530388e-19)
(-3.1716656 -1.7954956 -9.3336667e-19)
(-1.0363049 -0.45524103 1.99787e-18)
(-1.0733528 -0.45646186 -2.1433009e-22)
(-1.759625 -0.6231713 2.5423174e-19)
(-2.2745106 -0.75900029 -4.1547418e-19)
(-2.7620259 -0.8904787 7.0634679e-19)
(-3.2228433 -1.0186825 -1.24586e-18)
(-0.76461146 1.5614834 7.8496084e-19)
(-1.2212242 0.91165476 0)
(-1.7624754 0.49589548 3.0745675e-18)
(-2.2369906 0.20964232 -8.381108e-19)
(-2.6884717 -0.029266643 -7.1420749e-19)
(-3.111797 -0.23037805 0)
(-1.0135242 2.526209 0)
(-1.3985714 1.9014329 0)
(-1.7915472 1.4632513 4.1298463e-18)
(-2.1752641 1.0997928 -8.5305743e-19)
(-2.5314614 0.80155305 -2.9025674e-18)
(-2.8633523 0.5327335 2.5644173e-18)
(-1.4306365 3.5616839 6.3906465e-18)
(-1.661001 2.8549916 -5.2783022e-18)
(-1.8782987 2.2899618 -1.0598798e-18)
(-2.0955047 1.8486966 0)
(-2.3019455 1.493338 0)
(-2.485837 1.1948651 1.318747e-18)
(-1.898542 4.4423922 0)
(-1.828743 3.5300035 0)
(-1.8506245 2.9010978 0)
(-1.894285 2.4262207 0)
(-1.9380035 2.040043 0)
(-1.9487499 1.7231106 2.7330877e-18)
(-2.0963035 4.6475018 -6.1624308e-18)
(-1.893928 3.8925441 -2.7241439e-18)
(-1.7227475 3.2826624 0)
(-1.5833895 2.8114431 0)
(-1.4468756 2.4227466 1.6215329e-18)
(-1.2685576 2.1040796 1.4365307e-18)
(-2.2651338 4.5316332 0)
(-1.9716184 3.866491 -1.0894478e-17)
(-1.6048815 3.3301259 9.0805468e-18)
(-1.2908432 2.8908613 0)
(-0.94788432 2.5143797 -4.9578751e-18)
(-0.50514881 2.227362 1.5218565e-17)
(-2.372885 4.1737514 9.3290719e-18)
(-2.0404909 3.6458847 2.7503045e-18)
(-1.5438006 3.1460794 0)
(-1.0729219 2.6997101 8.1974994e-18)
(-0.48112087 2.3002394 -7.2756427e-18)
(0.39977519 2.0024689 -1.2877572e-17)
(-2.4240172 3.7633876 1.5742013e-17)
(-2.1527934 3.2429206 -2.5511343e-17)
(-1.6336767 2.714138 9.8375708e-18)
(-1.0161831 2.1633153 0)
(0.0066736552 1.6054619 0)
(1.7278693 1.3913705 3.4066037e-18)
(-2.5162561 3.3891144 -3.2200969e-18)
(-2.4495562 2.8905736 1.7131659e-17)
(-1.7493413 2.307179 -2.5075469e-18)
(-0.54096032 1.5491085 -1.1093066e-17)
(1.6757223 0.66452606 -3.9379011e-18)
(5.6187356 0.69494867 0)
(-2.7785261 3.0386865 1.6035558e-17)
(-2.488975 2.725033 -1.421542e-17)
(-0.86925171 2.0703203 2.5342571e-18)
(2.5390847 1.1108456 2.2221302e-18)
(43.090323 47.767754 9.325158e-18)
(43.809404 42.843287 0)
(42.78399 40.121367 0)
(42.369528 37.809963 3.036091e-18)
(38.003914 47.653202 -1.8912603e-18)
(38.922229 42.889667 -8.8685486e-18)
(38.351395 40.054676 4.4012376e-18)
(38.280525 37.718662 0)
(38.520826 35.633221 1.0933116e-18)
(39.047364 33.633183 1.6190994e-18)
(32.925943 46.827991 -7.727722e-18)
(34.0231 42.276999 -5.2809657e-18)
(33.893936 39.40381 1.0879205e-18)
(34.163218 37.087362 5.8505645e-18)
(34.694089 35.044066 -4.2795476e-18)
(35.473884 33.116238 7.9720767e-19)
(27.983124 45.321095 -9.8690903e-18)
(29.246857 41.009751 -1.7497825e-18)
(29.544762 38.171586 -5.360412e-18)
(30.145772 35.925353 2.8818078e-18)
(30.96177 33.964322 -1.052121e-18)
(31.983995 32.138528 -7.8250597e-19)
(23.275449 43.153201 4.0375373e-18)
(24.660272 39.104008 -5.2081788e-18)
(25.374739 36.366446 4.2452834e-18)
(26.299307 34.239102 -7.117944e-19)
(27.389752 32.402488 0)
(28.643384 30.708332 0)
(18.913337 40.347408 -6.204424e-18)
(20.358811 36.576159 -6.89849e-18)
(21.469669 34.011801 5.2566287e-18)
(22.703782 32.053901 6.9874382e-19)
(24.041527 30.395558 0)
(25.508817 28.865358 1.5317278e-18)
(15.081639 36.994277 0)
(16.506626 33.474173 0)
(17.948098 31.165623 -2.0704206e-18)
(19.44908 29.43473 0)
(20.980775 27.997775 1.4963003e-18)
(22.632809 26.649974 -3.4216993e-18)
(11.816044 33.201794 0)
(13.270741 29.945372 8.459468e-19)
(14.89387 27.971213 5.0460129e-19)
(16.565383 26.509026 0)
(18.287128 25.265211 -1.0988548e-21)
(20.031079 24.145767 7.5763783e-19)
(8.0359188 27.923412 0)
(10.308637 25.982523 -8.3803487e-19)
(12.131719 24.483797 4.9738357e-19)
(13.968842 23.303736 -1.3462891e-18)
(15.898192 22.244627 1.4921271e-18)
(17.803677 21.310058 -3.8230955e-19)
(5.6298626 23.469188 -3.4605767e-18)
(7.8335837 21.879474 1.6479231e-18)
(9.7901396 20.697769 -1.0062932e-18)
(11.870183 19.722206 6.8119451e-19)
(13.920825 18.912029 -2.4748279e-19)
(15.944389 18.211017 7.6238844e-19)
(3.7967679 18.418786 3.0603662e-18)
(5.83598 17.44912 -1.670753e-18)
(8.0688752 16.558147 -1.0181078e-18)
(10.242447 15.896488 6.7849251e-19)
(12.395633 15.360891 3.6936175e-19)
(14.50321 14.908098 4.754746e-19)
(2.3786712 13.258689 1.0053032e-18)
(4.4821375 12.681245 -4.8644758e-22)
(6.8492919 12.195631 -4.2127534e-22)
(9.1122428 11.88035 -1.6889862e-19)
(11.337802 11.643297 -1.2264545e-19)
(13.499889 11.453665 -1.8974445e-19)
(1.8507879 8.4169954 -3.3812817e-19)
(3.8858309 7.7710989 4.1452177e-19)
(6.2863482 7.6809706 -1.2594679e-19)
(8.5691761 7.7321781 -1.5320866e-22)
(10.803567 7.8078509 1.219252e-19)
(12.972295 7.8908932 -2.8355827e-19)
(4.7172407 2.93319 0)
(4.0921376 3.2620185 -2.4958974e-21)
(6.4316504 3.5354907 1.2374554e-19)
(8.6319427 3.8031647 -1.6869829e-19)
(10.809183 4.0923252 2.4319152e-19)
(12.940407 4.3906178 -3.7863467e-19)
(2.7634475 -3.344918 5.8595403e-19)
(4.4941055 -1.8371703 0)
(6.7622929 -0.93658701 1.5082848e-18)
(8.9850971 -0.2983253 -3.3675701e-19)
(11.173036 0.28054065 -2.4497776e-19)
(13.299705 0.83956203 0)
(3.7758295 -7.5162578 0)
(5.5978813 -6.2554336 0)
(7.7949284 -5.1814472 2.0139638e-18)
(9.9397317 -4.27264 -3.3953453e-19)