/*--------------------------------*- C++ -*----------------------------------*\
| =========                 |                                                 |
| \\      /  F ield         | OpenFOAM: The Open Source CFD Toolbox           |
|  \\    /   O peration     | Version:  2406                                  |
|   \\  /    A nd           | Website:  www.openfoam.com                      |
|    \\/     M anipulation  |                                                 |
\*---------------------------------------------------------------------------*/
FoamFile
{
    version     2.0;
    format      ascii;
    arch        "LSB;label=32;scalar=64";
    class       volScalarField;
    location    "0.03";
    object      Ma;
}
// * * * * * * * * * * * * * * * * * * * * * * * * * * * * * * * * * * * * * //

dimensions      [0 0 0 0 0 0 0];

internalField   nonuniform List<scalar> 
2065
(
0.15956515
0.15641663
0.15102702
0.16240298
0.16374788
0.16466594
0.16522858
0.16552556
0.16564873
0.16566732
0.16564539
0.16563115
0.16565152
0.16570796
0.16577612
0.16582264
0.16575943
0.16537325
0.1643837
0.16230283
0.15964803
0.15645535
0.15104097
0.12154869
0.12688428
0.13152318
0.13581952
0.13993856
0.14391471
0.14770898
0.15124822
0.15446332
0.15729275
0.15968554
0.1616139
0.16308325
0.16413122
0.1648178
0.16522471
0.16544001
0.16553263
0.16556754
0.16559529
0.16564576
0.16572235
0.16580494
0.1658631
0.16580916
0.16543369
0.16446233
0.16240123
0.15973734
0.15649766
0.15105717
0.12171084
0.12689865
0.13139306
0.13552802
0.13946628
0.14326302
0.14690544
0.1503398
0.15350351
0.1563353
0.15877948
0.16079869
0.16238427
0.16355918
0.16437111
0.16489225
0.16520516
0.16537759
0.16547476
0.16554876
0.16563316
0.16573329
0.16583218
0.16590355
0.16585992
0.16549634
0.16454458
0.16250541
0.1598336
0.15654381
0.15107689
0.12185639
0.12689013
0.13125482
0.13524202
0.13901477
0.14264395
0.14613792
0.14946156
0.15256176
0.15538069
0.15786095
0.15995802
0.16165119
0.16294922
0.16388709
0.16452621
0.16494206
0.16520016
0.16536524
0.16549046
0.16561283
0.16573973
0.16585724
0.16594355
0.16591176
0.16556115
0.16463047
0.16261557
0.15993725
0.1565942
0.15110013
0.12198105
0.12686116
0.13109269
0.13494109
0.13856217
0.14203629
0.14538847
0.14860049
0.15163006
0.15442489
0.15692858
0.15909184
0.16088401
0.16230081
0.16336446
0.1641247
0.16464856
0.16499822
0.16523711
0.16541891
0.16558381
0.16574086
0.16587947
0.16598271
0.16596424
0.16562798
0.16471996
0.16273185
0.16004877
0.15664939
0.15112723
0.12206307
0.12679341
0.13089084
0.13460359
0.1380835
0.14141538
0.14463566
0.14774013
0.15069722
0.15346148
0.15597929
0.15819903
0.16008231
0.16161338
0.16280204
0.16368595
0.16432261
0.16476966
0.16508839
0.16533243
0.1655444
0.16573593
0.16589847
0.16602038
0.16601674
0.16569666
0.16481297
0.16285436
0.1601686
0.15670999
0.15115851
0.12206723
0.12664038
0.13060603
0.13419272
0.13754553
0.14075119
0.14385384
0.14686032
0.1497489
0.15248133
0.15500815
0.15727732
0.15924513
0.16088619
0.16219875
0.16320835
0.16396218
0.16451236
0.16491703
0.16522919
0.16549277
0.16572332
0.16591373
0.16605627
0.16606898
0.16576692
0.16490937
0.16298315
0.16029719
0.15677675
0.15119444
0.12195336
0.12633383
0.13017359
0.13365455
0.13690408
0.14000717
0.14301311
0.14593763
0.14876791
0.15147294
0.15400834
0.15632323
0.15837092
0.16011839
0.16155361
0.16269043
0.16356543
0.16422423
0.16472097
0.16510729
0.16542772
0.16570178
0.16592398
0.16608989
0.16612054
0.16583841
0.16500898
0.16311825
0.16043495
0.15685021
0.15123538
0.12162733
0.12584102
0.12956466
0.13295385
0.13612196
0.13914831
0.14208289
0.14494712
0.14773532
0.15042304
0.15297141
0.15533222
0.15745755
0.15930897
0.16086576
0.16213098
0.16313068
0.16390331
0.16449816
0.16496479
0.16534774
0.16567039
0.165928
0.16611889
0.16617078
0.16591077
0.16511155
0.16325956
0.1605822
0.15693084
0.15128184
0.12104213
0.12510332
0.12872771
0.13204686
0.13516042
0.13813996
0.14103313
0.14386401
0.1466319
0.14931787
0.15188844
0.15429919
0.15650261
0.15845688
0.16013452
0.1615291
0.16265658
0.16354783
0.16424662
0.16479971
0.16525106
0.16562717
0.16592482
0.16614349
0.16621886
0.16598363
0.16521672
0.16340689
0.16073921
0.15701937
0.1513339
0.12008998
0.12402516
0.12758701
0.13087643
0.13397593
0.1369479
0.13983627
0.14266612
0.14544039
0.1481448
0.15075115
0.15321933
0.15550378
0.1575613
0.15935957
0.16088426
0.16214213
0.16315631
0.16396454
0.16461016
0.16513584
0.16556986
0.16591309
0.16616384
0.16626388
0.16605634
0.16532398
0.1635599
0.16090607
0.15711639
0.15139106
0.11876573
0.12260011
0.12613034
0.12942642
0.13255117
0.13555531
0.13847678
0.14133971
0.14414933
0.14689496
0.14955336
0.15208913
0.15445953
0.15662197
0.15854114
0.16019652
0.16158681
0.16272763
0.16365037
0.16439432
0.16500028
0.16549731
0.16589112
0.16617833
0.16630488
0.16612814
0.16543266
0.1637181
0.16108267
0.15722064
0.1514529
0.11707612
0.12084562
0.12437757
0.12771374
0.13089816
0.13396924
0.13695764
0.13988479
0.142757
0.14556613
0.14829316
0.15090743
0.15336993
0.15563974
0.15768031
0.1594667
0.16099077
0.16226118
0.16330288
0.1641506
0.16484266
0.16540843
0.16585836
0.16618565
0.16634085
0.166198
0.16554182
0.16388082
0.16126861
0.1573338
0.15152156
0.11513154
0.11885752
0.12240902
0.12580341
0.12906736
0.13222708
0.13530517
0.13831901
0.14127455
0.14416516
0.14697491
0.14967737
0.15223767
0.15461719
0.15677941
0.15869652
0.16035493
0.16175698
0.16292129
0.16387767
0.1646614
0.16530161
0.16581265
0.16618493
0.16637158
0.16626522
0.16565021
0.16404717
0.16146313
0.15745046
0.15159787
0.11307242
0.11676276
0.12033518
0.12378859
0.12713485
0.13038887
0.13356518
0.13667611
0.13972603
0.14270869
0.14561014
0.14840732
0.15106897
0.15355921
0.15584236
0.15788894
0.15968118
0.16121582
0.1625054
0.16357459
0.16445508
0.1651751
0.1657508
0.1661757
0.16639888
0.16632791
0.16575645
0.16421608
0.16166492
0.15756318
0.15169678
0.11100999
0.11466556
0.11825302
0.12175756
0.1251787
0.12852138
0.13179268
0.13499989
0.1381451
0.14122184
0.14421721
0.14711065
0.14987387
0.15247339
0.15487501
0.15704838
0.15897253
0.16063939
0.16205572
0.1632409
0.16422259
0.16502739
0.16567159
0.16615526
0.16642119
0.16638408
0.16585973
0.16438635
0.16187221
0.15768504
0.15179505
0.10904689
0.11265941
0.11624852
0.11978912
0.1232703
0.12668811
0.13004279
0.13333676
0.13656973
0.13973472
0.14281938
0.14580493
0.14866558
0.15136999
0.15388529
0.15618088
0.15823332
0.16003044
0.16157356
0.16287674
0.1639632
0.16485727
0.16557478
0.16612139
0.16643514
0.16643536
0.16595954
0.16455663
0.16208293
0.15782796
0.15191646
0.10726586
0.11081775
0.11438785
0.1179437
0.12146528
0.12494027
0.12836213
0.13172838
0.13503617
0.13827794
0.14144179
0.14451041
0.14746001
0.15026147
0.15288302
0.15529406
0.15746925
0.15939283
0.16106114
0.16248295
0.16367672
0.1646638
0.16545913
0.16607106
0.16643744
0.16648121
0.16605499
0.16472549
0.16229524
0.15799301
0.15206062
0.10575497
0.10922055
0.1127418
0.11628265
0.11981642
0.12332345
0.12679056
0.13020997
0.13357566
0.13687902
0.14010827
0.14324734
0.14627427
0.14916179
0.15187954
0.15439691
0.15668721
0.15873151
0.16052164
0.16206114
0.16336347
0.16444641
0.16532329
0.16600193
0.16642561
0.16652031
0.16614535
0.16489142
0.16250769
0.15817378
0.15221011
0.10448321
0.10784267
0.11129309
0.11479678
0.11832196
0.12184239
0.12533814
0.12879566
0.13220508
0.1355562
0.13883722
0.14203328
0.14512436
0.14808513
0.15088678
0.15349936
0.15589508
0.15805245
0.15995919
0.16161377
0.16302449
0.16420498
0.16516621
0.16591243
0.16639967
0.16655116
0.1662293
0.16505246
0.16271907
0.15836136
0.15236316
0.10347578
0.10670418
0.11005731
0.11349792
0.11699097
0.1205046
0.12401223
0.12749377
0.13093438
0.13432115
0.13764161
0.1408818
0.14402365
0.14704429
0.14991658
0.15261165
0.15510148
0.15736247
0.1593788
0.1611441
0.1626615
0.16394006
0.16498766
0.16580394
0.1663576
0.16657016
0.16630316
0.16520625
0.16292801
0.15855461
0.15251041
0.10275602
0.10583635
0.10906825
0.11241805
0.11585066
0.11933133
0.12282836
0.12631557
0.12977242
0.13318208
0.13653012
0.13980248
0.14298254
0.14604974
0.14897926
0.15174363
0.15431518
0.15666898
0.15878621
0.16065619
0.16227698
0.16365283
0.16478817
0.16567903
0.1663038
0.16657412
0.16636229
0.16534989
0.16313272
0.15874313
0.15267016
0.10229498
0.10521317
0.10830471
0.11154123
0.11488975
0.11831474
0.1217811
0.12525736
0.12871717
0.1321388
0.13550466
0.13879944
0.14200721
0.14510931
0.14808342
0.15090408
0.15354458
0.15597947
0.15818764
0.16015473
0.16187408
0.16334508
0.16456845
0.16553738
0.16623574
0.16656285
0.16640626
0.16548089
0.1633307
0.15892944
0.15285048
0.10208283
0.10483137
0.10776782
0.11087126
0.114113
0.11745903
0.12087301
0.12431978
0.12776774
0.13118987
0.13456431
0.1378732
0.14110006
0.14422742
0.14723515
0.15010013
0.15279717
0.15530109
0.15758944
0.15964485
0.16145649
0.1630191
0.16432941
0.16537792
0.16614929
0.16653511
0.16643691
0.16559564
0.16351714
0.15912281
0.15306344
0.10209758
0.10467432
0.1074474
0.11040275
0.11351837
0.11676399
0.12010423
0.12350217
0.12692228
0.13033253
0.13370621
0.13702171
0.14026066
0.14340565
0.14643797
0.14933679
0.152079
0.1546403
0.15699775
0.15913191
0.16102833
0.16267758
0.16407223
0.16519995
0.16604312
0.16649081
0.1664522
0.16569206
0.16369086
0.15933041
0.15332405
0.10232698
0.10472872
0.10733448
0.1101312
0.11310446
0.1162301
0.11947585
0.12280513
0.12618011
0.12956471
0.13292731
0.13624175
0.13948651
0.14264291
0.1456929
0.14861717
0.15139459
0.15400251
0.15641823
0.15862112
0.16059395
0.16232347
0.16379833
0.16500314
0.16591626
0.16642856
0.16645167
0.16576727
0.16384928
0.15956041
0.15357054
0.10277195
0.10499006
0.10742091
0.11005512
0.11287448
0.11586309
0.11899436
0.12223431
0.12554497
0.12888767
0.13222662
0.13553089
0.13877483
0.14193715
0.14499908
0.14794209
0.15074663
0.15339179
0.15585575
0.15811739
0.16015762
0.16195997
0.16350936
0.16478732
0.16576698
0.16634734
0.16643454
0.16582088
0.16399083
0.15978162
0.15389702
0.10339216
0.10544004
0.10769251
0.11015374
0.11281596
0.11565672
0.11865766
0.12178996
0.12501771
0.12830166
0.13160307
0.13488674
0.13812248
0.14128538
0.14435451
0.14731102
0.15013629
0.15281084
0.15531405
0.15762499
0.15972342
0.16159041
0.16320742
0.16455253
0.16559284
0.1662492
0.16640119
0.16585313
0.16412289
0.15999178
0.1542936
0.10415148
0.10603882
0.10812476
0.11041378
0.11290714
0.11559654
0.11845729
0.12146753
0.12459599
0.12780496
0.13105456
0.13430631
0.13752575
0.14068366
0.14375589
0.14672198
0.1495632
0.15226095
0.15479578
0.15714744
0.15929519
0.16121832
0.16289534
0.16430063
0.16539569
0.16612258
0.16635351
0.16586858
0.16423926
0.1602191
0.15465928
0.10500166
0.10674044
0.10867045
0.11079903
0.11312885
0.11565822
0.11837492
0.12125574
0.12427379
0.12739459
0.13057917
0.13378755
0.13698186
0.14012867
0.1431999
0.14617217
0.1490257
0.15174205
0.15430244
0.15668736
0.15887623
0.16084724
0.16257669
0.16403598
0.16518399
0.16597294
0.16627668
0.16587067
0.16431882
0.16046894
0.1549916
0.1059103
0.1075137
0.10929982
0.11127821
0.11345452
0.11582928
0.11839865
0.1211429
0.12404108
0.12706279
0.13017103
0.1333256
0.13648626
0.13961582
0.142682
0.14565792
0.14852135
0.15125297
0.15383431
0.15624644
0.15846921
0.16048045
0.16225509
0.16376284
0.16496229
0.16580667
0.16617522
0.16585163
0.16436208
0.16071215
0.15533214
0.10685815
0.10833854
0.10999245
0.11183096
0.11386209
0.11608953
0.11851119
0.12112129
0.12389414
0.1268078
0.12982925
0.13291956
0.13603746
0.13914275
0.14219916
0.14517583
0.14804713
0.15079168
0.1533906
0.15582526
0.15807592
0.16012052
0.16193351
0.16348383
0.16473052
0.16562366
0.16604884
0.16580301
0.16439097
0.16092734
0.1557232
0.10784111
0.10920975
0.1107426
0.11245174
0.11434699
0.11643475
0.11871649
0.12118765
0.1238371
0.12663783
0.12956322
0.13257815
0.13564219
0.13871366
0.14175305
0.14472539
0.14760125
0.15035636
0.15297014
0.15542357
0.15769714
0.15976911
0.16161402
0.16320075
0.16448891
0.16542562
0.16590173
0.16572885
0.16440314
0.16113569
0.15606568
0.10887767
0.11014416
0.11156546
0.11315419
0.1149214
0.11687544
0.1190206
0.1213557
0.12387488
0.12655822
0.12938002
0.13230898
0.13530742
0.13833394
0.14134699
0.14430804
0.14718349
0.14994565
0.15257145
0.1550404
0.15733277
0.15942698
0.16129794
0.16291504
0.16423863
0.16521434
0.16573672
0.16563033
0.1644003
0.16132872
0.15642186
0.10996512
0.11113816
0.11245677
0.1139338
0.11558105
0.11740828
0.11942202
0.12162411
0.12401051
0.12657379
0.12928491
0.13211935
0.13504165
0.13801166
0.14098729
0.14392764
0.14679567
0.14955979
0.1521937
0.15467475
0.15698206
0.15909397
0.1609858
0.16262761
0.1639808
0.16499112
0.16555614
0.16550714
0.16438452
0.1615019
0.15672288
0.11110119
0.11218896
0.11341334
0.11478716
0.11632262
0.11803044
0.11991879
0.12199195
0.12424893
0.12668233
0.1292822
0.13201256
0.1348477
0.13774975
0.14067681
0.14358649
0.146439
0.14919888
0.15183607
0.1543253
0.15664384
0.15876938
0.16067742
0.16233873
0.16371594
0.16475592
0.16535998
0.16537048
0.16435773
0.16166665
0.15705162
0.11225514
0.11326589
0.11440474
0.11568432
0.11711696
0.11871397
0.1204847
0.12243533
0.12456747
0.12687694
0.12935255
0.13197977
0.13472159
0.13754647
0.14041489
0.14328435
0.14611286
0.14886171
0.15149713
0.1539904
0.15631652
0.15845196
0.16037208
0.1620483
0.16344435
0.16450851
0.16514686
0.16522169
0.16432365
0.16184145
0.1573056
0.11340786
0.11434898
0.1154102
0.11660382
0.11794213
0.11943676
0.1210979
0.12293324
0.12494668
0.12713707
0.12949677
0.13201092
0.13465568
0.13739845
0.14020119
0.14302212
0.14581832
0.14854852
0.15117587
0.15366845
0.15599824
0.15814006
0.16006872
0.16175608
0.16316696
0.16425131
0.16492005
0.16504085
0.16426588
0.16198062
0.15754357
0.11456
0.11543792
0.11642844
0.11754345
0.11879504
0.12019497
0.12175394
0.12348073
0.125381
0.12745606
0.12970143
0.13210547
0.1346511
0.13730338
0.14003169
0.14279551
0.14555136
0.14825611
0.1508697
0.1533567
0.15568631
0.15783126
0.15976553
0.16146122
0.16288427
0.16398685
0.16468599
0.16485695
0.16417727
0.16204852
0.15782393
0.11572004
0.11654004
0.11746558
0.11850808
0.11967933
0.12099099
0.12245403
0.12407796
0.12586973
0.12783255
0.1299646
0.13225745
0.13469512
0.13725699
0.13990622
0.14260539
0.14531244
0.14798372
0.15057673
0.15305271
0.15537793
0.15752269
0.15945985
0.16116164
0.16259507
0.16371466
0.1644425
0.16465953
0.16406202
0.16209006
0.15805436
0.11687058
0.11763787
0.11850414
0.11948028
0.12057772
0.12180789
0.12318185
0.12470956
0.12639895
0.12825483
0.13027769
0.1324622
0.13479594
0.13725975
0.13982194
0.14244918
0.1450999
0.14773
0.15029534
0.15275455
0.15507077
0.15721183
0.15914908
0.16085461
0.16229667
0.1634322
0.16418706
0.16444506
0.16392203
0.16212813
0.15829702
0.11801334
0.11873222
0.11954395
0.12045892
0.12148809
0.12264261
0.12393346
0.12537083
0.1269633
0.12871689
0.13063386
0.13271134
0.13493983
0.13730217
0.13977636
0.1423264
0.14491361
0.14749483
0.1500251
0.15246122
0.15476367
0.15689731
0.15883156
0.16053799
0.16198597
0.16313481
0.16391352
0.16420561
0.16375276
0.16214909
0.15857189
0.11912139
0.1197964
0.12055862
0.12141791
0.12238479
0.12347001
0.12468437
0.12603811
0.12754024
0.12919766
0.13101409
0.13298882
0.13511529
0.13738
0.13976198
0.14222963
0.14474801
0.14727469
0.14976458
0.15217267
0.15445688
0.15657964
0.15850816
0.16021264
0.16166283
0.16282003
0.16361579
0.16393642
0.16353808
0.16210597
0.15879862
0.1202193
0.12085332
0.12156929
0.12237653
0.12328506
0.12430526
0.12544763
0.12672235
0.12813868
0.12970417
0.13142364
0.13329809
0.13532325
0.13748826
0.13977507
0.14215901
0.14460445
0.14707125
0.14951527
0.15189078
0.15415342
0.15626289
0.15818364
0.1598841
0.16133329
0.16249306
0.16329642
0.16363218
0.16327594
0.16198009
0.15897223
0.12126839
0.12186536
0.12253947
0.1232995
0.12415502
0.12511593
0.12619243
0.12739452
0.12873156
0.13021152
0.13184012
0.13361978
0.13554827
0.13761742
0.13981203
0.14210967
0.14447914
0.14688269
0.14927714
0.15161633
0.15385472
0.15594963
0.15786237
0.15955875
0.16100589
0.16216456
0.16296849
0.16331158
0.16299525
0.1618148
0.15916678
0.1223099
0.12287157
0.12350583
0.12422098
0.12502609
0.12593064
0.12694446
0.12807734
0.12933863
0.13073658
0.13227758
0.13396517
0.13579887
0.13777283
0.13987474
0.14208502
0.14437612
0.14671292
0.14905391
0.15135359
0.15356539
0.15564435
0.15754883
0.15924214
0.16068708
0.16184346
0.16264614
0.16299608
0.1627207
0.16164547
0.15932676
0.12329423
0.12382435
0.12442297
0.12509788
0.12585773
0.12671154
0.12766876
0.12873889
0.12993116
0.13125396
0.13271412
0.13431607
0.1360607
0.13794414
0.13995666
0.14208205
0.14429333
0.14656092
0.14884522
0.15110211
0.15328471
0.15534636
0.15724303
0.15893361
0.16037818
0.16153305
0.16233508
0.16269423
0.1624647
0.16149028
0.15932667
0.12431584
0.12481477
0.12537816
0.12601337
0.1267286
0.12753244
0.12843393
0.12944228
0.13056656
0.1318152
0.13319538
0.13471221
0.1363678
0.13815993
0.14008082
0.14211595
0.14424623
0.14644018
0.14866234
0.15087053
0.15301854
0.15505891
0.15694541
0.1586326
0.16007756
0.16123207
0.16203378
0.16239909
0.16220542
0.16132695
0.15929473
0.12525831
0.12573
0.12626259
0.12686302
0.12753907
0.12829891
0.12915119
0.1301048
0.13116855
0.13235083
0.13365899
0.13509863
0.13667278
0.13838069
0.1402166
0.14216887
0.1442191
0.14633995
0.14849878
0.15065531
0.15276429
0.15477843
0.15665005
0.15833181
0.15977665
0.16093445
0.1617407
0.16211601
0.1619577
0.16115706
0.15926255
0.12628646
0.12672946
0.12722965
0.1277936
0.12842865
0.12914257
0.1299436
0.13084029
0.13184122
0.13295466
0.1341881
0.13554757
0.13703689
0.13865659
0.14040273
0.14226586
0.14422998
0.14627297
0.14836295
0.15046223
0.15252742
0.15451106
0.15636416
0.15803769
0.15948183
0.16064503
0.16146334
0.16185652
0.16173605
0.16097304
0.15913975
0.12716758
0.12758661
0.12805974
0.1285932
0.12919396
0.12986942
0.13062746
0.1314763
0.13242423
0.13347939
0.13464925
0.13594011
0.13735635
0.13889954
0.14056731
0.14235231
0.14424108
0.14620935
0.14823259
0.15027547
0.15229642
0.1542491
0.15608385
0.15774929
0.15919466
0.16036368
0.16119262
0.16161099
0.16152933
0.16080368
0.15899511
0.12819586
0.12858776
0.12903041
0.12952968
0.13009215
0.13072479
0.1314351
0.13223094
0.13312034
0.13411127
0.1352112
0.13642664
0.13776246
0.13922106
0.14080131
0.14249744
0.14429807
0.14618835
0.14814025
0.15012178
0.15209335
0.15400944
0.1558209
0.15747528
0.15891403
0.16008628
0.1609327
0.16137532
0.16132689
0.16065833
0.15891382
0.12901195
0.12938342
0.12980293
0.130276
0.13080887
0.13140821
0.13208126
0.13283565
0.13367914
0.13461951
0.13566419
0.13681988
0.1380919
0.13948352
0.14099492
0.14262202
0.14435539
0.14617625
0.14806122
0.14998487
0.15190939
0.15378934
0.15557429
0.15721097
0.15864923
0.15982902
0.16068843
0.16115113
0.16112572
0.16047853
0.15879004
0.13012352
0.13046801
0.13085734
0.13129673
0.1317921
0.13234979
0.13297666
0.13367994
0.13446715
0.13534588
0.13632345
0.13740651
0.1386002
0.13990773
0.14133024
0.1428654
0.14450636
0.14624165
0.14805177
0.1499058
0.15177057
0.15360215
0.15534846
0.15696068
0.15839012
0.15957233
0.16044715
0.16093306
0.16093372
0.16031458
0.15870684
0.13088889
0.13121619
0.13158611
0.13200374
0.13247476
0.13300532
0.13360207
0.13427207
0.13502263
0.1358612
0.13679496
0.13783069
0.13897402
0.14022884
0.14159687
0.14307567
0.1446579
0.14633102
0.14807684
0.14986648
0.15167143
0.15345785
0.15517337
0.15677045
0.15819062
0.15936995
0.16025292
0.16076301
0.16080633
0.16023559
0.15855108
0.13217307
0.13247336
0.13281296
0.1331966
0.13362953
0.13411747
0.13466662
0.13528363
0.13597551
0.13674945
0.13761264
0.13857184
0.13963313
0.14080117
0.14207833
0.14346375
0.14495264
0.14653576
0.14819926
0.14992085
0.15166163
0.15338463
0.15505227
0.15660888
0.15799967
0.15916958
0.16006148
0.16059655
0.16068604
0.16017362
0.15845917
0.1328911
0.13317975
0.13350602
0.13387449
0.13429021
0.13475867
0.13528581
0.13587799
0.1365419
0.13728445
0.13811261
0.13903309
0.14005201
0.14117432
0.14240309
0.14373847
0.14517664
0.14670874
0.14831832
0.14998262
0.15167284
0.15335102
0.1549797
0.1565051
0.15787481
0.15903204
0.15991769
0.16045524
0.16060157
0.16018454
0.15868223
0.13402036
0.13429154
0.13459827
0.134945
0.13533651
0.13577813
0.13627556
0.1368349
0.1374626
0.13816533
0.13894984
0.13982275
0.14079022
0.1418574
0.14302767
0.14430142
0.14567456
0.14713693
0.14867232
0.15025503
0.15184749
0.15340786
0.15488779
0.15625501
0.1574782
0.15852502
0.15939473
0.16001457
0.16020986
0.15986688
0.15871315
0.012801573
0.015065093
0.017704304
0.02072523
0.024224949
0.028120981
0.032347323
0.036916877
0.041839676
0.047054251
0.05241443
0.057716786
0.062636861
0.066871987
0.070127972
0.072460091
0.073917019
0.074905191
0.075581278
0.076196798
0.076859676
0.07768413
0.078678995
0.079842365
0.081143015
0.082587402
0.084137478
0.085796806
0.087543552
0.089359065
0.091206798
0.093056373
0.094862491
0.096607508
0.098294425
0.099938763
0.10157236
0.10319649
0.10481172
0.10638735
0.032426148
0.036795774
0.041285103
0.045859952
0.050504325
0.055176869
0.059861088
0.064531415
0.069122323
0.073494956
0.077475321
0.080841574
0.083391781
0.084953934
0.085765338
0.085854134
0.085646565
0.085236074
0.084879528
0.084682822
0.084724635
0.084980656
0.08550114
0.086211667
0.087132164
0.08821418
0.08945506
0.090830487
0.09231746
0.09387763
0.095476747
0.097066754
0.098624951
0.10014818
0.10164705
0.10315008
0.10465754
0.10616906
0.10765381
0.1091015
0.11051995
0.11192224
0.11329061
0.11463168
0.11591799
0.11718268
0.11838113
0.11956658
0.12067877
0.12182886
0.12288176
0.12402974
0.1250087
0.12615411
0.12705458
0.12828565
0.12912175
0.13053049
0.13128583
0.13249227
0.068770268
0.072831948
0.076506526
0.079818062
0.082817091
0.085606657
0.088208481
0.090695216
0.092981349
0.094908943
0.096339568
0.097175309
0.09723046
0.096832867
0.095911467
0.094787143
0.093610121
0.092537178
0.091680661
0.091111016
0.0907861
0.090766472
0.090973256
0.091434613
0.092099436
0.092960489
0.093994093
0.095174725
0.096463749
0.097824724
0.099207871
0.10058634
0.10195155
0.10330956
0.10468585
0.10607981
0.10749033
0.10888646
0.11025527
0.11160258
0.11294017
0.11425043
0.11553853
0.11677726
0.11799727
0.11915575
0.12030242
0.12138024
0.12249555
0.1235186
0.12463396
0.12558618
0.12669948
0.12757671
0.12877502
0.12959134
0.13096605
0.13171092
0.13289528
0.099115248
0.10073114
0.10210616
0.10329663
0.1043721
0.10535367
0.1062713
0.1070562
0.1075933
0.10773259
0.1074924
0.1067413
0.10552051
0.1040042
0.10234202
0.10067409
0.099127536
0.09780436
0.096784355
0.09601923
0.095560216
0.095375389
0.095446999
0.095748247
0.096272306
0.096998367
0.097899633
0.098938153
0.10007694
0.10126561
0.10247415
0.10368933
0.10491307
0.10616818
0.1074533
0.10876677
0.11007767
0.1113706
0.11264943
0.11392478
0.11517917
0.11641643
0.11760951
0.11878677
0.11990703
0.12101679
0.12206184
0.12314415
0.12413889
0.12522339
0.12615048
0.12723351
0.12808891
0.12925639
0.13005447
0.13139682
0.13213231
0.13329639
0.11365462
0.11413476
0.11458925
0.11500992
0.11538887
0.11571154
0.11598826
0.11613336
0.11605918
0.11572204
0.11497292
0.1138266
0.11227673
0.11045602
0.10851318
0.10656758
0.10473248
0.10310089
0.10176135
0.10067567
0.099878369
0.099374409
0.099133223
0.099140141
0.099366326
0.099819125
0.1004699
0.10128091
0.10221568
0.10322428
0.10427453
0.10534929
0.10644684
0.1075876
0.10876965
0.10999106
0.11122099
0.11244182
0.11365555
0.11487175
0.11607303
0.11726207
0.11841185
0.11954868
0.12063278
0.12170776
0.12272193
0.12377322
0.1247414
0.12579701
0.12670072
0.12775544
0.12859076
0.12972924
0.13051072
0.13182251
0.13254978
0.13369546
)
;

boundaryField
{
    Side1
    {
        type            empty;
    }
    Inlet
    {
        type            calculated;
        value           nonuniform List<scalar> 
59
(
0.15046541
0.15047249
0.15048066
0.15049056
0.15050217
0.15051565
0.15053114
0.15054886
0.15056896
0.15059168
0.15061706
0.1506449
0.15067518
0.1503682
0.15074604
0.15079394
0.15084043
0.1509005
0.15097029
0.1510427
0.15111696
0.15084457
0.15126932
0.15135944
0.15146537
0.15124702
0.15137504
0.15188361
0.15172777
0.15225934
0.15242728
0.15259692
0.15278907
0.15295883
0.15313293
0.15328096
0.15344191
0.15356699
0.15368544
0.15382395
0.15393966
0.15405982
0.15419594
0.15430602
0.15439127
0.15448576
0.15456146
0.15455671
0.15454115
0.15452342
0.15446334
0.15439231
0.15435286
0.15429165
0.15424746
0.15416507
0.15411817
0.15422604
0.1542448
)
;
    }
    Side2
    {
        type            empty;
    }
    Outlet
    {
        type            calculated;
        value           nonuniform List<scalar> 
35
(
0.13402036
0.13429154
0.13459827
0.134945
0.13533651
0.13577813
0.13627556
0.1368349
0.1374626
0.13816533
0.13894984
0.13982275
0.14079022
0.1418574
0.14302767
0.14430142
0.14567456
0.14713693
0.14867232
0.15025503
0.15184749
0.15340786
0.15488779
0.15625501
0.1574782
0.15852502
0.15939473
0.16001457
0.16020986
0.15986688
0.15871315
0.13249227
0.13289528
0.13329639
0.13369546
)
;
    }
    Botwall
    {
        type            calculated;
        value           nonuniform List<scalar> 0();
    }
    Cyli
    {
        type            calculated;
        value           nonuniform List<scalar> 0();
    }
    procBoundary3to0
    {
        type            processor;
        value           nonuniform List<scalar> 7(0.01080425 0.028729994 0.028729994 0.064355748 0.064355748 0.097208196 0.097208196);
    }
    procBoundary3to1
    {
        type            processor;
        value           nonuniform List<scalar> 
62
(
0.0064461079
0.0073804324
0.0085879056
0.01008051
0.011944478
0.014268046
0.017082528
0.020387643
0.024178375
0.028529915
0.033429279
0.038734686
0.044188412
0.049398504
0.053990154
0.057743038
0.060655597
0.063006203
0.064949969
0.066718676
0.068409171
0.070164128
0.07200088
0.073900442
0.075858239
0.0778786
0.079936163
0.082042645
0.084181495
0.086340288
0.088485755
0.090592897
0.092620056
0.094555416
0.096408703
0.098200579
0.099966404
0.10170851
0.10342849
0.10509585
0.10791589
0.10791589
0.10940727
0.11087596
0.11230396
0.11369955
0.11503485
0.11634571
0.11758545
0.11881118
0.11995907
0.12114543
0.12222951
0.1234117
0.12441885
0.12559809
0.12652312
0.12778878
0.12864611
0.13009049
0.13085729
0.13208762
)
;
    }
    procBoundary3to2
    {
        type            processor;
        value           nonuniform List<scalar> 
35
(
0.15948826
0.15638089
0.15102068
0.16316466
0.16437776
0.16516396
0.16560496
0.16579686
0.16583347
0.16578368
0.16571008
0.16565815
0.16565192
0.16569079
0.16574619
0.16578254
0.16571106
0.16531511
0.16430871
0.16220999
0.16220999
0.1214021
0.1214021
0.12687038
0.13164389
0.13612611
0.14045021
0.14461821
0.14856372
0.1521965
0.15544611
0.15825467
0.16057882
0.16057882
0.11316663
)
;
    }
}


// ************************************************************************* //
