/*--------------------------------*- C++ -*----------------------------------*\
| =========                 |                                                 |
| \\      /  F ield         | OpenFOAM: The Open Source CFD Toolbox           |
|  \\    /   O peration     | Version:  2406                                  |
|   \\  /    A nd           | Website:  www.openfoam.com                      |
|    \\/     M anipulation  |                                                 |
\*---------------------------------------------------------------------------*/
FoamFile
{
    version     2.0;
    format      ascii;
    arch        "LSB;label=32;scalar=64";
    class       volScalarField;
    location    "0.04";
    object      k;
}
// * * * * * * * * * * * * * * * * * * * * * * * * * * * * * * * * * * * * * //

dimensions      [0 2 -2 0 0 0 0];

internalField   nonuniform List<scalar> 
2065
(
167.1828
180.90269
192.4183
201.64099
209.01008
89.351251
101.49029
114.74832
127.79585
140.04686
48.578729
54.668245
63.856838
75.132
36.560521
41.22222
48.077248
34.198611
38.637172
44.553227
36.354798
40.763033
40.400982
44.990351
49.357188
52.673988
49.183757
45.160236
40.820665
44.695539
36.333128
40.280946
31.722112
35.719098
40.250222
27.639696
31.75258
36.836897
42.954094
26.453006
30.572977
37.079169
44.771633
53.005487
288.90874
379.55072
459.74162
510.44875
530.27149
528.07373
509.29956
479.72474
446.40301
288.99007
375.20462
451.84378
500.79937
520.30736
518.59761
500.15881
471.28769
438.39935
288.83597
370.52548
443.37085
490.50306
509.70816
508.41154
490.41462
462.20634
429.77031
288.33716
365.32011
434.28995
479.62263
498.48368
497.52296
480.02806
452.45523
420.49252
287.37242
359.65608
424.72275
468.16866
486.62008
485.92881
468.97095
286.03836
411.48897
371.81668
323.43077
261.74084
175.79676
57.512424
403.76963
364.38275
316.29373
255.00268
170.04418
55.640789
395.46495
356.39085
308.65126
247.87762
164.15021
53.628088
386.55355
347.83686
300.528
240.42806
158.18177
51.500998
295.12803
255.1064
212.73237
164.73691
103.49958
23.364511
321.74195
279.97475
235.00815
183.12226
115.75938
27.663301
347.18476
303.79246
256.39457
200.9425
128.19475
31.942641
370.61439
325.79263
276.21204
217.50334
139.75939
36.113695
391.35344
345.45834
294.21622
233.07983
151.77254
40.449036
409.02666
362.46173
309.98956
246.79976
161.83574
44.527358
423.24675
376.41534
323.14613
258.35137
170.29442
48.167688
433.7558
387.0275
333.38473
267.49888
177.19936
51.426799
440.62603
394.34602
340.75947
274.38515
182.79014
54.23716
444.07893
398.61552
345.4256
278.91468
186.61465
56.577024
444.28212
399.81985
347.55916
281.70212
189.47756
58.484273
442.85946
398.98914
347.23796
281.84472
190.21398
59.877308
440.63313
397.30095
345.95748
280.97046
189.77878
60.789751
437.5837
394.97139
344.0591
279.28651
188.50866
61.173528
434.07638
392.22533
341.83318
277.41241
187.10791
61.294432
430.58496
389.26691
339.36216
275.3636
185.57863
61.209571
427.41262
386.3422
336.81864
273.24182
184.00358
60.960522
424.67955
383.76285
334.3921
271.15293
182.5073
60.621157
422.41206
381.52019
332.21226
269.1948
181.07562
60.210741
420.48333
379.63178
330.36505
267.58577
179.96049
59.834445
418.89087
378.10523
328.89074
266.32988
178.98847
59.456952
417.56919
376.96284
327.93888
265.51684
178.53132
59.218175
416.63764
376.14138
327.03824
264.43164
177.39374
58.900504
418.82732
379.16062
330.62503
268.31064
180.98813
59.21742
818.12484
784.59032
733.48951
667.59986
593.52235
518.85026
449.49174
388.76287
337.78554
826.34815
796.43113
748.77565
686.42371
615.75838
543.9362
476.47493
416.55877
365.45292
830.88028
804.50096
760.7203
702.47944
635.7137
567.09637
501.79922
442.89856
391.78718
831.79889
809.25976
769.7108
715.80694
653.10249
587.79084
524.74583
466.96135
415.95478
829.55222
810.6589
775.3379
725.81762
667.21516
605.23104
544.4917
487.92861
437.18772
824.92648
808.75881
777.17938
732.00138
677.40281
618.75656
560.39721
505.23124
455.01744
815.89775
803.75398
775.27749
733.86987
683.2584
627.90784
572.0117
518.44035
469.0396
803.47272
794.78635
770.42404
731.87291
684.48267
632.48112
579.13912
527.35428
479.031
787.76339
782.26596
761.86946
727.13836
682.14697
632.45423
581.69976
532.02752
485.07705
770.33216
767.75812
750.33168
719.12496
677.2846
629.69808
580.61057
532.63462
487.29576
752.67293
751.86582
736.67845
707.92102
669.26919
624.57634
577.5289
530.85292
486.55524
731.33644
732.50764
719.95916
694.11453
658.38882
616.7589
572.45286
527.64962
484.43582
707.1578
710.96187
701.64565
679.08879
646.46401
607.47372
565.44762
522.89415
481.23213
683.57205
690.1698
683.88643
664.49676
634.69684
598.2506
558.3061
517.31118
477.07346
661.30275
670.83756
667.48388
651.26352
624.02447
589.7486
551.57633
511.96028
472.73333
639.18704
652.26378
652.15256
639.43417
614.69847
582.38132
545.67678
507.12666
468.67329
616.87235
634.03905
637.73822
628.51443
606.54726
576.09351
540.6701
502.98427
465.11561
593.49048
615.54965
623.72611
618.12683
599.40189
570.76371
536.50361
499.54006
462.11949
567.96509
595.96897
609.52529
607.77828
592.90856
566.15706
533.03322
496.72635
459.68079
537.80856
573.05514
593.39484
596.60964
586.02987
561.86789
529.96284
494.32848
457.6045
502.37018
547.26999
575.79256
584.93771
578.43259
557.68084
527.09119
492.13438
455.79895
453.86189
509.79581
550.37794
569.24159
568.1271
552.6358
523.90753
489.94213
454.16127
404.99403
476.11834
527.37091
554.50401
558.15243
546.73071
520.49345
487.5177
452.69748
294.67043
391.65352
473.79868
524.05466
542.2055
538.07663
518.4244
487.68476
453.91484
233.08986
576.76866
742.41905
816.83937
842.91251
840.7388
229.27996
559.75451
727.11441
806.68838
838.1171
842.12614
225.56074
542.2892
711.29302
795.94028
833.01578
841.78915
222.03792
524.27107
694.62052
783.42467
825.62019
839.31957
218.61861
506.63004
677.32158
769.29352
815.50516
833.08695
214.98888
487.40683
658.3773
753.14484
802.92918
824.34656
211.50509
469.9518
639.48554
735.50309
787.83758
812.31493
207.34575
448.01872
617.51305
715.17178
769.85682
797.03159
202.95879
428.24923
596.01032
693.48544
749.3947
778.63106
197.59572
406.10053
571.30636
669.09732
727.00963
758.59006
190.93967
378.19524
545.25045
646.3948
706.42034
739.44377
185.2337
363.8883
525.88553
624.30926
683.61827
716.94289
179.16782
345.86396
502.52079
598.08788
657.08725
691.08805
171.36802
318.89328
474.34832
569.90182
629.64249
665.21507
161.4434
292.04415
447.23327
542.25476
603.07343
640.48664
150.67163
263.94966
417.24184
512.58724
575.3597
615.30635
140.17973
235.3031
385.48929
481.80217
546.63132
589.45097
126.39159
205.5579
350.60744
447.44508
515.32592
561.62088
110.34654
173.801
312.68116
409.71056
480.62944
530.96853
91.906289
139.89439
268.26594
365.24791
439.55601
494.49192
74.393616
103.99368
208.98228
311.10606
389.58426
450.00015
48.839679
70.366243
138.60983
236.54787
324.73772
392.67517
18.072682
33.404346
73.022916
153.46155
236.32009
313.50242
3.0704882
13.790708
31.672749
75.391949
156.71489
223.67519
2.6500954
7.3169843
13.344432
28.684216
64.620874
140.46951
3.1315866
9.5861232
16.100576
19.943773
32.11245
72.831208
2.8956122
8.7400791
14.496466
19.938924
26.386889
43.802555
3.2130402
10.337304
16.156435
20.758017
26.76542
32.531208
3.733111
11.776377
18.441439
22.894384
26.751181
30.172749
4.5779086
14.774952
21.722647
26.189511
29.615332
32.652262
5.5766403
18.085258
25.742207
30.427467
33.866641
36.85838
6.7551581
21.919834
30.217958
35.119232
38.646183
41.645598
7.8051625
25.411319
34.504066
39.688482
43.299086
46.262748
8.6543968
28.413315
38.260393
43.714914
47.380267
50.252184
9.1928772
30.623671
41.162978
46.841368
50.538789
53.314974
9.6533574
32.198028
43.044519
48.818164
52.50962
55.184801
9.7897122
32.455342
43.61375
49.409289
53.097553
55.732561
9.4938588
31.900476
42.89108
48.720929
52.401188
55.03536
9.2534834
30.470893
40.997962
46.689404
50.342922
53.036753
8.6911936
28.186741
38.07841
43.556085
47.202505
50.007963
7.9203648
25.35516
34.495842
39.733035
43.348417
46.244945
6.8108206
21.821043
30.370183
35.454653
39.0545
41.997156
5.6935227
18.184679
26.133974
31.032519
34.581513
37.506931
4.6663258
14.525285
21.935441
26.654047
30.138254
32.957053
3.8021179
11.120463
17.868397
22.400595
25.834174
28.347041
2.8743726
7.5526039
13.992383
18.529524
22.141768
24.140407
2.1167342
6.5583207
11.7743
15.762675
21.857462
24.063177
1.6149748
4.2098827
7.7829809
11.896446
232.47444
547.56834
709.38516
785.06314
233.04781
557.01849
719.78229
795.54108
824.52427
825.72702
232.8531
564.31259
728.32082
804.22468
833.21662
834.51218
232.21779
570.74015
735.39601
811.07332
839.87862
841.23641
231.13785
575.95312
741.24781
816.58629
845.03443
846.65083
229.81696
580.19989
745.88291
820.87253
849.05779
850.72537
228.51996
583.84377
749.40294
824.10861
852.20366
853.90609
226.87098
587.08043
752.22725
827.00955
855.00597
856.59542
222.13296
586.93913
754.14586
829.88923
857.90839
858.99572
218.58704
588.19113
756.60738
832.37857
859.83306
860.5012
214.58144
588.67611
758.03847
833.36764
860.57772
860.93075
210.20378
588.23506
758.02726
833.23763
860.26618
860.35519
207.30689
587.23618
756.58184
831.53825
858.50407
858.54003
210.42656
586.52799
755.81007
830.04434
856.78266
856.61129
203.00909
586.29717
755.71101
830.26998
856.65125
855.7822
205.29951
585.56692
755.20325
829.89742
856.06059
854.61456
209.06947
585.82604
754.93341
829.31039
855.12677
853.09218
213.44951
585.5963
753.63981
828.17896
853.84706
851.39215
217.62663
585.86442
752.56802
826.75082
852.49493
849.6854
222.03019
587.02101
752.55897
825.7808
851.18617
848.19047
227.47662
588.84641
753.25434
825.59587
850.42069
846.95791
230.72354
589.18595
753.92462
826.05626
850.43458
845.90977
233.28392
588.39278
753.71174
825.58962
849.39926
843.60548
237.23637
592.51945
755.23472
824.69686
846.96972
839.55505
1.049181
2.2231101
1.0897426
229.79312
231.42492
537.51824
815.91863
820.28252
822.80677
824.07981
825.11356
826.50586
828.2586
830.20705
832.18294
833.86378
835.35845
837.61093
839.65946
840.7349
840.93293
840.19777
838.63403
836.56871
833.94095
830.44811
825.75155
819.70754
811.66325
788.02242
790.03674
790.34808
789.85535
789.51666
790.02486
791.08422
792.57894
794.34586
796.07538
797.92501
800.37672
802.7191
804.51413
805.7798
806.41295
806.3383
805.88878
805.02508
803.36303
800.71136
796.98267
791.68261
748.28818
747.06639
744.62187
742.06064
740.43382
739.83782
739.99933
740.87148
742.2758
743.97202
746.09542
748.78278
751.54998
754.16729
756.60101
758.76061
760.55936
761.90865
763.12639
763.9087
763.91118
763.01472
760.80969
695.75775
691.22461
686.28358
682.16235
679.36414
677.64425
677.01125
677.35036
678.44249
680.13345
682.50071
685.4682
688.73036
692.16932
695.72411
699.31252
702.86592
706.26986
709.50177
712.74897
715.62157
717.86103
719.06086
631.26821
624.06258
617.42808
612.20964
608.35857
605.87995
604.71585
604.69073
605.59677
607.33318
609.91386
613.1881
616.96022
621.16619
625.73899
630.6068
635.70518
640.94545
646.22486
651.63378
657.11402
662.34526
666.94658
556.72302
547.9649
540.5125
534.60209
530.26227
527.45189
526.03597
525.84041
526.69868
528.54271
531.32442
534.8883
539.11816
543.96499
549.36727
555.26879
561.61917
568.35956
575.40703
582.68098
590.25723
598.00235
605.58391
475.20557
466.12115
458.53274
452.58082
448.26092
445.46956
444.0672
443.89013
444.83144
446.83449
449.7973
453.60011
458.1749
463.47542
469.4524
476.06495
483.27879
491.06083
499.36932
508.13793
517.31009
526.90572
536.76827
390.70699
382.10674
374.97482
369.47946
365.55552
363.08601
361.93223
361.9545
363.08178
365.24557
368.3402
372.28741
377.04281
382.56686
388.82603
395.79513
403.4559
411.79464
420.79753
430.43933
440.67835
451.47345
462.81218
307.07447
299.46457
293.26294
288.59891
285.36697
283.44637
282.69469
283.01574
284.3528
286.62237
289.75075
293.69451
298.42237
303.90902
310.13739
317.09787
324.78714
333.20679
342.36112
352.25192
362.8729
374.20836
386.23952
228.05158
221.8215
216.84603
213.2061
210.78387
209.46759
209.13603
209.72837
211.18044
213.43065
216.44118
220.18728
224.65208
229.82702
235.71117
242.3099
249.63354
257.69618
266.51424
276.10419
286.48002
297.65301
309.63281
157.08269
152.32356
148.59048
145.93341
144.24735
143.44589
143.42927
144.1484
145.5549
147.61827
150.32023
153.65166
157.61192
162.20817
167.45409
173.3686
179.97435
187.29634
195.36051
204.19254
213.81693
224.25622
235.53075
96.442373
93.007948
90.361114
88.518212
87.405696
86.952711
87.080903
87.753421
88.942308
90.636553
92.83605
95.547888
98.785846
102.56954
106.92373
111.87767
117.4641
123.71771
130.67334
138.36475
146.82542
156.09023
166.18812
47.631224
45.312337
43.519341
42.270363
41.505976
41.181516
41.24233
41.677905
42.479777
43.64907
45.197208
47.142644
49.506835
52.314265
55.593704
59.379214
63.710236
68.630522
74.185493
80.417958
87.363649
95.046552
17.897383
16.743829
15.93267
15.400818
15.091379
14.970457
15.012626
15.217667
15.586419
16.122223
16.831982
17.731409
18.840721
20.182395
21.784361
23.681913
25.919685
28.554119
31.656252
35.31415
39.630973
44.696589
5.801841
5.497439
5.2968185
5.1642592
5.091714
5.0702752
5.0961376
5.1692179
5.290433
5.4624271
5.688729
5.9749947
6.3291302
6.7605523
7.280717
7.9037072
8.6473664
9.5348688
10.597631
11.882826
13.480033
15.550772
2.1608917
2.1350893
2.1101379
2.0906499
2.0830551
2.0865805
2.1002829
2.1241142
2.1587922
2.2055402
2.2659541
2.342167
2.4368149
2.5530763
2.6947961
2.8666847
3.0746063
3.3261953
3.6319022
4.0062706
4.4749542
5.0845192
1.1940189
1.2203797
1.2301176
1.2335531
1.2375978
1.2428623
1.249029
1.2562585
1.2650235
1.2759372
1.2896947
1.3070236
1.3286592
1.3555595
1.3887421
1.4294452
1.4790587
1.5394081
1.613666
1.7069906
1.8268203
1.9855876
0.91269902
0.94322803
0.95707223
0.96301014
0.96701921
0.97012993
0.97227358
0.97361519
0.97446574
0.97523197
0.97636616
0.97818226
0.98089376
0.98491005
0.99054984
0.99799359
1.0072667
1.0181745
1.0313804
1.0511601
1.0797078
1.118598
0.78751136
0.80957933
0.81790377
0.81968159
0.81975199
0.81904268
0.81748847
0.81519312
0.81232495
0.8092574
0.80649463
0.80416508
0.80237623
0.80170546
0.80254188
0.80519893
0.80978013
0.81553522
0.82203102
0.82815559
0.83370734
0.84094577
0.65079047
0.6644632
0.66875567
0.66873546
0.66793519
0.66683703
0.6654071
0.66370905
0.66193121
0.66026985
0.65891877
0.65828028
0.65874512
0.65966426
0.66047829
0.66091789
0.66129815
0.6629907
0.66597404
0.66993975
0.67513405
0.68233705
0.57509494
0.58461016
0.58720056
0.58667714
0.58559065
0.58423768
0.58267093
0.58097808
0.579272
0.57763758
0.57610999
0.5746699
0.57337797
0.57257772
0.5726343
0.57375441
0.5757881
0.57823556
0.58081779
0.58356074
0.58682405
0.5912147
0.50535291
0.51133482
0.51286324
0.51244578
0.51172551
0.5109011
0.50997343
0.50897645
0.50798
0.50704754
0.50621903
0.50551895
0.50496273
0.50455999
0.50431825
0.50425388
0.50436943
0.50468653
0.5052167
0.50600564
0.50721726
0.5090931
0.46722829
0.47096532
0.47192391
0.47163676
0.47112953
0.47057271
0.46998664
0.46938299
0.46878397
0.46822517
0.46773428
0.46733942
0.46706768
0.46693412
0.46693348
0.46704387
0.46723047
0.46745979
0.46772834
0.46807944
0.46864629
0.46957007
0.43755165
0.43980216
0.44035138
0.44012618
0.43975329
0.43934327
0.43889659
0.43842478
0.43795552
0.43749865
0.43707016
0.43668514
0.43635297
0.43607815
0.43586162
0.43569648
0.43557423
0.43548023
0.43539717
0.43533205
0.43534253
0.43550409
0.42064379
0.42174902
0.42197495
0.42180342
0.42155456
0.42130834
0.42105895
0.42079256
0.42053378
0.42030931
0.42013645
0.42002099
0.41996142
0.41995431
0.41999415
0.42005329
0.42011487
0.42015364
0.42013536
0.42005987
0.41994868
0.41983783
0.40920317
0.40954553
0.40951917
0.40930627
0.40904297
0.40877399
0.40851566
0.40829815
0.40812715
0.40800184
0.40791638
0.40786249
0.40783075
0.40781393
0.40780703
0.407776
0.40773052
0.40768064
0.40761115
0.40754839
0.40751591
0.40751107
0.40141974
0.40160198
0.40166888
0.40166441
0.40163159
0.40159819
0.40157503
0.40156626
0.40157471
0.40160119
0.40164335
0.40169776
0.40175535
0.40180235
0.40182313
0.40181214
0.40177803
0.40173525
0.40169696
0.40166978
0.40165965
0.40165674
0.39852104
0.3986139
0.39866
0.39865911
0.39864039
0.39861597
0.39859244
0.39857355
0.39856172
0.39855811
0.39856217
0.39856919
0.39857426
0.39857235
0.3985602
0.39853777
0.3985088
0.39847856
0.39845457
0.39844183
0.39844119
0.39844524
0.39752837
0.39756274
0.39758631
0.39758499
0.39756879
0.39754853
0.39752992
0.39751569
0.39750704
0.39750376
0.39750421
0.39750565
0.39750467
0.39749818
0.3974845
0.39746433
0.39744044
0.39741784
0.39740213
0.39739668
0.39740085
0.39740705
0.39724717
0.39725856
0.39726745
0.39726378
0.39724939
0.39723088
0.39721349
0.3971998
0.39719041
0.39718471
0.39718134
0.39717839
0.39717367
0.39716522
0.3971522
0.39713535
0.39711706
0.39710087
0.39709061
0.39708882
0.39709418
0.39709998
0.39761092
0.39761514
0.39761541
0.39761361
0.39761073
0.39760709
0.39760268
0.39759752
0.39759179
0.39758581
0.39757983
0.3975741
0.39756879
0.39756409
0.39756014
0.39755684
0.39755369
0.39754982
0.39754438
0.39753712
0.39752913
0.39752324
311.93176
361.82446
421.99952
491.53987
567.26409
643.3218
712.15899
766.90514
802.54815
283.99404
331.67307
389.44811
456.59234
530.24115
605.06566
674.22989
731.62595
772.13926
253.70803
298.61381
353.38146
417.45435
488.2767
561.01375
629.42042
687.80656
731.38561
221.20858
262.7945
313.86606
374.03183
441.01896
510.43577
576.55586
634.08867
678.8381
187.05253
224.7895
271.46549
326.84473
388.92575
453.741
516.08831
571.13404
615.20569
152.08364
185.53153
227.17993
276.94206
333.0987
392.11969
449.35232
500.44517
542.15584
117.41077
146.27955
182.42335
225.89859
275.29358
327.54383
378.54915
424.43683
462.38357
84.287731
108.47419
138.86891
175.65086
217.72902
262.53255
306.52429
346.35816
379.6275
53.930313
73.5391
98.203685
128.19726
162.74161
199.79067
236.39642
269.69624
297.74839
27.445209
42.768534
62.073335
85.53835
112.72467
142.05738
171.22851
197.88432
220.47957
9.093633
18.05455
31.47624
48.839663
69.256753
91.354172
113.48188
133.82846
151.18321
2.3629666
5.292888
11.069285
20.658807
33.664565
48.950046
64.725202
79.422527
92.036443
0.61319386
1.3280338
3.1588469
6.4590709
11.927744
19.54721
28.229213
36.89215
44.706567
0.47502921
0.59790591
0.95368255
1.9307605
3.6670222
6.1973405
9.3790592
12.946681
16.439621
0.46978703
0.53828611
0.64625533
0.87853611
1.3203563
2.0842441
3.1032996
4.2027396
5.2751819
0.46125612
0.52724016
0.62011086
0.72386814
0.86221146
1.1128005
1.3924939
1.7001751
1.9884035
0.45246305
0.50453001
0.58273085
0.68258178
0.77443544
0.86615355
0.97458853
1.0740998
1.145145
0.43860807
0.48747738
0.54972345
0.61691505
0.69662492
0.7770568
0.83941846
0.88005046
0.8964329
0.4260082
0.4615674
0.51357415
0.57296749
0.62634155
0.67672901
0.7285531
0.76784949
0.77829271
0.4144683
0.44561991
0.47991096
0.5174687
0.5574494
0.59552753
0.6268718
0.64596589
0.6474786
0.40337029
0.42667462
0.45689272
0.48620296
0.51204352
0.53516658
0.55579871
0.57076603
0.57265794
0.39720079
0.41578066
0.43353657
0.45214246
0.46898167
0.48362954
0.4963138
0.5044623
0.50446684
0.39101703
0.40518513
0.42028919
0.43383637
0.44518159
0.4544213
0.46197406
0.46695417
0.46679405
0.38826192
0.39933863
0.40906936
0.41764738
0.42466976
0.43014474
0.4346294
0.43755451
0.43738468
0.3871328
0.39550659
0.402669
0.4085147
0.41287089
0.41586326
0.41870017
0.42056565
0.42057887
0.38672213
0.39327418
0.39817447
0.40206422
0.40493799
0.40717584
0.40881651
0.40966961
0.40947204
0.3879796
0.39227079
0.3953397
0.39753713
0.39916372
0.40022551
0.40098153
0.4014337
0.40145661
0.38941441
0.39260341
0.39490123
0.39640677
0.39730487
0.39792024
0.3983016
0.39851515
0.39853743
0.3932118
0.39469364
0.39561739
0.39627557
0.39679529
0.39715713
0.39738222
0.39750502
0.39752928
0.39522665
0.39612653
0.39667308
0.39697205
0.39710888
0.39716513
0.39720603
0.39723361
0.39724293
0.39687286
0.39711558
0.39729907
0.39743202
0.39751453
0.39755945
0.39758252
0.39759514
0.39760297
270.81752
244.93296
217.18013
187.61143
156.7653
125.38042
94.424968
65.019808
38.180833
15.75781
4.2436664
0.85644621
0.4129262
0.39644924
0.39605117
0.39288087
0.39119914
0.38549462
0.38264873
0.37739614
0.37489623
0.37312526
0.37231447
0.37219775
0.37515984
0.37671051
0.38151761
0.38442641
0.39063436
0.39375752
0.3964932
232.66924
208.84986
183.69062
156.97666
129.28074
101.2063
73.567351
47.384944
23.485989
7.0229795
1.4584833
0.36509465
0.31739643
0.31658614
0.31875794
0.32009356
0.32329819
0.32505773
0.3287532
0.33075327
0.33571836
0.33853749
0.34388489
0.34714562
0.3551082
0.35946416
0.36926584
0.37452021
0.38516854
0.39070447
0.395703
192.89976
171.17901
149.08526
125.41695
101.05021
76.34366
51.922787
28.55067
9.7921786
2.266691
0.34135617
0.22763218
0.22633493
0.22723699
0.23129482
0.23635392
0.24406287
0.25062245
0.25864994
0.26624906
0.27599717
0.28463158
0.29454093
0.30287587
0.31613724
0.32481649
0.34249617
0.35216618
0.3715362
0.3832231
0.3937608
148.54425
128.99995
110.99755
90.531626
69.815264
48.553429
26.980691
9.4637122
2.2588528
0.30502159
0.13325424
0.12882478
0.12905625
0.12988218
0.13147173
0.13369805
0.13609042
0.14348559
0.14998738
0.16197687
0.17067179
0.18664103
0.19613427
0.21248851
0.22872431
0.24702278
0.27335783
0.29356887
0.32945349
0.35865786
0.38708833
92.911843
76.158054
64.312554
46.779616
30.40804
14.308783
6.1385757
1.4039631
0.2565055
0.15769618
0.14836303
0.14229923
0.13675909
0.13059692
0.12387546
0.11536456
0.10141154
0.090878322
0.079876567
0.071794534
0.06666653
0.064703598
0.0649954
0.06766567
0.078303937
0.092085173
0.11391484
0.14143436
0.18926138
0.25592629
0.34877583
18.80419
14.598665
10.815053
6.8268926
3.7342951
1.7876894
1.2040793
1.0922232
1.1181738
1.1520492
1.1723695
1.1742633
1.1548481
1.1163141
1.0371502
0.84000381
0.7505637
0.63035065
0.49202103
0.3739285
0.28035823
0.20187356
0.14584122
0.092095476
0.046931012
0.030126403
0.022719911
0.018703417
0.019171353
0.037242658
0.12977934
)
;

boundaryField
{
    Side1
    {
        type            empty;
    }
    Inlet
    {
        type            inletOutlet;
        inletValue      uniform 0.39740317;
        value           uniform 0.39740317;
    }
    Side2
    {
        type            empty;
    }
    Outlet
    {
        type            zeroGradient;
    }
    Botwall
    {
        type            kqRWallFunction;
        value           nonuniform List<scalar> 
59
(
57.512424
55.640789
53.628088
51.500998
23.364511
27.663301
31.942641
36.113695
40.449036
44.527358
48.167688
51.426799
54.23716
56.577024
58.484273
59.877308
60.789751
61.173528
61.294432
61.209571
60.960522
60.621157
60.210741
59.834445
59.456952
59.218175
58.900504
59.21742
18.80419
14.598665
10.815053
6.8268926
3.7342951
1.7876894
1.2040793
1.0922232
1.1181738
1.1520492
1.1723695
1.1742633
1.1548481
1.1163141
1.0371502
0.84000381
0.7505637
0.63035065
0.49202103
0.3739285
0.28035823
0.20187356
0.14584122
0.092095476
0.046931012
0.030126403
0.022719911
0.018703417
0.019171353
0.037242658
0.12977934
)
;
    }
    Cyli
    {
        type            kqRWallFunction;
        value           nonuniform List<scalar> 
76
(
233.08986
229.27996
225.56074
222.03792
218.61861
214.98888
211.50509
207.34575
202.95879
197.59572
190.93967
185.2337
179.16782
171.36802
161.4434
150.67163
140.17973
126.39159
110.34654
91.906289
74.393616
48.839679
18.072682
3.0704882
2.6500954
3.1315866
2.8956122
3.2130402
3.733111
4.5779086
5.5766403
6.7551581
7.8051625
8.6543968
9.1928772
9.6533574
9.7897122
9.4938588
9.2534834
8.6911936
7.9203648
6.8108206
5.6935227
4.6663258
3.8021179
2.8743726
2.1167342
1.6149748
232.47444
233.04781
232.8531
232.21779
231.13785
229.81696
228.51996
226.87098
222.13296
218.58704
214.58144
210.20378
207.30689
210.42656
203.00909
205.29951
209.06947
213.44951
217.62663
222.03019
227.47662
230.72354
233.28392
237.23637
1.049181
1.0897426
229.79312
231.42492
)
;
    }
    procBoundary0to1
    {
        type            processor;
        value           nonuniform List<scalar> 
44
(
214.9505
214.9505
151.22838
88.653158
88.653158
58.04092
58.04092
52.236446
46.041949
46.041949
44.752054
44.752054
49.03319
52.95122
53.058365
53.058365
55.829587
57.476942
57.937719
57.27017
55.442809
55.442809
55.53438
52.468896
48.804371
48.804371
48.787285
442.03221
410.56859
353.48362
414.59445
456.13934
474.12695
473.65599
442.03221
457.24155
353.48362
284.40889
377.04223
338.73989
291.95131
232.67956
152.15745
49.292472
)
;
    }
    procBoundary0to2
    {
        type            processor;
        value           nonuniform List<scalar> 
55
(
37.574964
43.292628
49.632396
56.913367
64.596288
23.273709
30.686993
6.118733
23.273709
14.85006
698.16928
813.55229
773.27657
813.55229
814.10561
6.118733
5.0880561
5.0880561
7.074841
227.3867
526.37193
526.37193
698.16928
801.1351
783.92586
756.67573
718.59023
670.27072
612.43561
546.44327
474.4026
398.81493
322.31458
247.58615
177.06672
103.50066
103.50066
50.584785
18.211091
5.8988934
2.2033969
1.1737945
0.85582247
0.69108899
0.59652614
0.51124782
0.47050148
0.4356225
0.41963052
0.4074361
0.40161746
0.39842732
0.3973976
0.39709448
0.39751848
)
;
    }
    procBoundary0to3
    {
        type            processor;
        value           nonuniform List<scalar> 7(44.556707 44.556707 45.43528 45.43528 49.941027 49.941027 61.79623);
    }
}


// ************************************************************************* //
