/*--------------------------------*- C++ -*----------------------------------*\
| =========                 |                                                 |
| \\      /  F ield         | OpenFOAM: The Open Source CFD Toolbox           |
|  \\    /   O peration     | Version:  2406                                  |
|   \\  /    A nd           | Website:  www.openfoam.com                      |
|    \\/     M anipulation  |                                                 |
\*---------------------------------------------------------------------------*/
FoamFile
{
    version     2.0;
    format      ascii;
    arch        "LSB;label=32;scalar=64";
    class       volScalarField;
    location    "0.026";
    object      alphat;
}
// * * * * * * * * * * * * * * * * * * * * * * * * * * * * * * * * * * * * * //

dimensions      [1 -1 -1 0 0 0 0];

internalField   nonuniform List<scalar> 
92813
(
0.039332376
0.042467135
0.045721648
0.049019128
0.052327037
0.05562453
0.058893972
0.062121244
0.065294603
0.068403969
0.0714403
0.074394977
0.077259166
0.080023439
0.082677087
0.085209387
0.087611724
0.089867747
0.091962306
0.093880961
0.095608984
0.097131826
0.09843463
0.099501971
0.10031787
0.10086593
0.1011294
0.10109127
0.10073444
0.10004192
0.098997088
0.09758405
0.095788058
0.093596061
0.090997358
0.087984358
0.084553881
0.080707633
0.076453497
0.071807137
0.066800448
0.061473875
0.055879222
0.050089409
0.044195023
0.03830111
0.032581891
0.027239064
0.0225282
0.018708245
0.015933743
0.014097633
0.012911839
0.01210097
0.011487067
0.010979345
0.010535509
0.01013622
0.0097717679
0.0094370461
0.009129289
0.0088451801
0.0085824827
0.0083393638
0.0081141057
0.0079042587
0.0077085533
0.0075265921
0.0073561125
0.0071970262
0.0070488121
0.0069096643
0.0067801565
0.0066599225
0.0065472184
0.0064427486
0.0063460008
0.0062553098
0.0061711845
0.0060930443
0.0060193376
0.0059507677
0.0058868177
0.0058263491
0.0057701499
0.0057176356
0.0056682025
0.0056222226
0.0055787331
0.0055376292
0.0054988205
0.0054616251
0.0054264953
0.0053934299
0.0053620234
0.0053326712
0.0053053566
0.0052798526
0.0052559635
0.0052336866
0.0052129718
0.0051932484
0.0051747068
0.0051575209
0.0051412708
0.0051259586
0.0051114758
0.0050975525
0.0050842979
0.005071906
0.0050602425
0.0050493404
0.0050393377
0.0050300801
0.0050215157
0.0050135705
0.0050062839
0.0049996471
0.004993569
0.0049881068
0.0049833186
0.0049790877
0.0049755592
0.0049725876
0.0049705243
0.0049685802
0.0049683953
0.044155898
0.047325155
0.050490873
0.053656559
0.056815858
0.059957013
0.063067161
0.066134589
0.069148737
0.072099868
0.074978749
0.077776304
0.080483171
0.083089346
0.085584096
0.087956315
0.090194425
0.092284108
0.094210675
0.095959206
0.097514669
0.098862087
0.099986738
0.1008731
0.10150514
0.10186647
0.10194038
0.10170998
0.10115838
0.10026889
0.099025308
0.097412315
0.095415903
0.093023966
0.090226989
0.087018864
0.083398116
0.07936909
0.074942021
0.070133658
0.064980967
0.059530177
0.053835925
0.047977356
0.042053507
0.036190371
0.030564747
0.025401207
0.02097207
0.017524907
0.01512674
0.013581804
0.012578094
0.011866272
0.011305243
0.010827698
0.010403289
0.010018464
0.0096658102
0.0093413193
0.0090427392
0.0087666412
0.0085110379
0.0082742576
0.0080546414
0.0078497026
0.0076584023
0.0074805352
0.0073136725
0.0071579812
0.007013097
0.0068769634
0.0067503435
0.0066327415
0.0065224052
0.0064202116
0.006325489
0.0062366025
0.0061541948
0.0060775482
0.00600519
0.0059379454
0.0058751507
0.0058157294
0.0057604847
0.0057087913
0.0056601625
0.0056148631
0.0055719162
0.0055313074
0.0054929462
0.0054561658
0.0054214454
0.0053887689
0.0053577388
0.0053287465
0.0053017647
0.0052766049
0.0052530133
0.0052310038
0.0052105408
0.0051910349
0.0051727057
0.0051556805
0.0051395723
0.005124399
0.0051100248
0.0050962137
0.0050830563
0.0050707421
0.0050591739
0.0050483393
0.0050383914
0.0050291919
0.0050206826
0.005012789
0.0050055447
0.0049989531
0.0049929163
0.004987487
0.0049827277
0.004978526
0.0049750159
0.004972062
0.0049700087
0.00496807
0.0049678851
0.049130657
0.052212804
0.055265759
0.058298828
0.061312691
0.064300149
0.067251753
0.070158064
0.073009847
0.075797995
0.078513449
0.081147037
0.083689226
0.086129843
0.088457983
0.090661931
0.09272911
0.094645652
0.096397022
0.097968258
0.099344322
0.10051017
0.1014506
0.10215001
0.10259239
0.10276143
0.1026405
0.1022129
0.10146199
0.10037142
0.098925516
0.09710959
0.094910483
0.09231716
0.08932145
0.085918932
0.082110141
0.077902097
0.073306866
0.068345648
0.063060458
0.057501198
0.051728598
0.045829781
0.039913954
0.034123641
0.028649922
0.023736982
0.019659475
0.01661374
0.014563674
0.013248215
0.012368241
0.011717941
0.011188823
0.010730158
0.010318852
0.0099443222
0.0096002165
0.0092831277
0.0089910682
0.0087205174
0.0084697393
0.0082371937
0.0080212689
0.0078194988
0.0076310404
0.0074557797
0.0072912008
0.0071376374
0.006994677
0.0068601767
0.0067350665
0.0066188496
0.0065096912
0.0064085848
0.0063148723
0.0062268588
0.0061452908
0.0060694466
0.0059977961
0.0059312459
0.0058690588
0.0058101754
0.0057553894
0.0057040916
0.00565587
0.0056108868
0.0055681798
0.0055277959
0.0054896525
0.0054530766
0.0054185514
0.0053860732
0.0053552379
0.0053264202
0.005299606
0.0052746359
0.0052512019
0.0052293327
0.0052090078
0.0051896228
0.0051714098
0.0051544612
0.0051384247
0.005123327
0.0051090097
0.0050952642
0.0050821574
0.005069878
0.0050583647
0.0050475614
0.0050376358
0.0050284656
0.0050199849
0.0050121201
0.0050048979
0.0049983318
0.0049923199
0.0049869092
0.0049821658
0.0049779825
0.0049744824
0.0049715386
0.0049694919
0.0049675521
0.0049673667
0.0542367
0.057175915
0.060085299
0.062969621
0.065829126
0.068657495
0.07144648
0.074187727
0.076872783
0.079492997
0.082039485
0.084503047
0.086874016
0.089142069
0.091296104
0.09332415
0.095213335
0.096949833
0.098519119
0.099906219
0.10109601
0.10207325
0.10282255
0.10332826
0.10357441
0.10354475
0.10322283
0.10259216
0.10163641
0.1003397
0.098686923
0.096664162
0.094259233
0.091462327
0.088266799
0.084670122
0.080675137
0.076291837
0.071533681
0.066428815
0.061024357
0.055372404
0.049542344
0.043629918
0.037755361
0.032076667
0.02680159
0.022187326
0.01849111
0.015833625
0.014084835
0.012953094
0.012169636
0.011568458
0.011066271
0.010624493
0.010225411
0.0098607585
0.0095249785
0.0092152194
0.0089297323
0.008664813
0.0084190166
0.0081909248
0.0079789452
0.0077806037
0.0075952776
0.0074229545
0.0072609711
0.0071098736
0.0069692301
0.0068367919
0.0067136534
0.0065992565
0.0064916961
0.0063921161
0.0062997988
0.0062130142
0.006132634
0.0060578723
0.005987194
0.0059216079
0.0058602608
0.0058021383
0.0057480274
0.0056973077
0.005649675
0.0056051681
0.005562832
0.0055227981
0.0054849823
0.0054487158
0.0054144928
0.0053823133
0.0053517716
0.005323225
0.0052966671
0.0052719669
0.0052487656
0.0052271057
0.0052069746
0.0051877603
0.0051697154
0.0051528861
0.0051369557
0.0051219671
0.0051077348
0.0050940814
0.0050810518
0.0050688298
0.0050573948
0.0050466445
0.0050367589
0.0050276338
0.0050191951
0.0050113722
0.0050041838
0.0049976531
0.0049916754
0.0049862919
0.004981571
0.0049774125
0.0049739276
0.0049709977
0.0049689597
0.0049670223
0.0049668367
0.059437183
0.062207422
0.064952126
0.067672233
0.070366324
0.073027512
0.075647502
0.078218113
0.080731089
0.083177899
0.085549666
0.087837099
0.090030375
0.092119004
0.094091725
0.095936436
0.097640168
0.099189119
0.10056881
0.10176428
0.10276037
0.10354168
0.10409274
0.10439785
0.10444105
0.10420618
0.10367699
0.10283726
0.10167106
0.10016303
0.098298756
0.096065209
0.093451319
0.090448667
0.087052325
0.083261864
0.079082696
0.074527979
0.069613663
0.064374712
0.058863301
0.053134974
0.047268426
0.04136838
0.035567051
0.030038133
0.025005848
0.020732231
0.017437101
0.01515111
0.013667214
0.012688773
0.011984663
0.011424786
0.010946402
0.01052039
0.01013325
0.0097785194
0.0094511845
0.0091489065
0.0088701276
0.0086109101
0.0083701669
0.0081465921
0.0079385977
0.0077437174
0.0075615745
0.007392231
0.0072328699
0.0070842652
0.0069459336
0.0068155076
0.0066942671
0.0065816067
0.006475544
0.0063773748
0.0062863451
0.0062006811
0.0061213841
0.0060476173
0.0059778255
0.0059131134
0.0058525196
0.0057950765
0.0057415564
0.0056913376
0.0056442206
0.0056001166
0.0055580915
0.0055183595
0.0054808313
0.0054448393
0.0054108814
0.0053789687
0.0053486903
0.0053203794
0.0052940481
0.0052695835
0.0052465852
0.0052251094
0.0052051432
0.0051860765
0.0051681769
0.0051514462
0.0051356044
0.0051207094
0.0051065507
0.0050929786
0.0050800164
0.0050678426
0.0050564762
0.0050457718
0.0050359197
0.0050268331
0.0050184296
0.0050106432
0.0050034846
0.0049969838
0.0049910362
0.0049856768
0.0049809752
0.0049768389
0.0049733676
0.0049704493
0.0049684192
0.0049664826
0.0049662966
0.064688045
0.067271893
0.0698408
0.072386537
0.074906291
0.077392553
0.079836725
0.082230442
0.084565327
0.086832734
0.089023653
0.09112863
0.093137662
0.095040098
0.096824545
0.098478814
0.09998991
0.10134407
0.10252689
0.10352345
0.1043186
0.10489689
0.10524278
0.10534055
0.10517427
0.10472792
0.10398545
0.102931
0.1015491
0.099825001
0.097745089
0.095297343
0.09247196
0.089262088
0.085664713
0.081681726
0.077321399
0.072600206
0.06753771
0.06217556
0.056570808
0.050784016
0.0449036
0.039043828
0.033350215
0.02801299
0.023271007
0.019379093
0.016497115
0.014558649
0.013302882
0.01245011
0.011810343
0.011284984
0.0108276
0.010416198
0.010040519
0.0096954962
0.0093764508
0.0090815506
0.0088093988
0.008555769
0.0083200094
0.0081009109
0.0078968693
0.0077054315
0.0075264916
0.0073601632
0.0072034501
0.0070573852
0.0069214134
0.0067930476
0.0066737655
0.0065628989
0.0064583853
0.0063616869
0.0062719993
0.0061875053
0.0061093461
0.0060366184
0.0059677561
0.0059039633
0.0058441603
0.0057874372
0.0057345484
0.005684862
0.0056382913
0.0055946166
0.0055529271
0.0055135254
0.0054763103
0.0054406195
0.0054069538
0.005375335
0.0053453478
0.0053172978
0.0052912179
0.005267006
0.0052442302
0.0052229583
0.0052031682
0.0051842618
0.0051665197
0.0051498979
0.0051341529
0.0051193598
0.0051052827
0.0050917992
0.0050789125
0.005066794
0.0050555022
0.005044851
0.0050350382
0.0050259946
0.0050176297
0.0050098836
0.0050027586
0.0049962901
0.0049903751
0.0049850425
0.004980362
0.0049762496
0.0049727938
0.0049698881
0.0049678664
0.0049659318
0.0049657455
0.069949701
0.072332569
0.074720407
0.077085652
0.0794246
0.081729484
0.083991566
0.08620228
0.088353026
0.090434952
0.092438843
0.094355044
0.096173371
0.097883014
0.099472472
0.1009295
0.10224109
0.10339356
0.10437256
0.10516326
0.10575053
0.10611894
0.10625295
0.10613684
0.10575478
0.10509091
0.10412946
0.10285497
0.10125251
0.099308058
0.0970089
0.094344169
0.091305489
0.087887768
0.084090124
0.07991703
0.075379953
0.070498572
0.065297368
0.059825002
0.054142927
0.048318169
0.042449487
0.036661803
0.031115513
0.026018
0.021617756
0.018143958
0.015673743
0.014048733
0.012983554
0.012232031
0.011644337
0.011148229
0.010709756
0.010312128
0.0099476061
0.0096122024
0.0093013926
0.0090138641
0.0087483483
0.0085002749
0.0082695144
0.0080549274
0.007854871
0.0076669178
0.0074912565
0.0073280184
0.0071740113
0.0070305583
0.0068970019
0.0067707309
0.0066534353
0.0065443795
0.0064414195
0.006346193
0.0062578451
0.0061745146
0.0060974896
0.0060257956
0.005957857
0.0058949732
0.0058359471
0.0057799344
0.0057276659
0.0056784978
0.0056324544
0.0055891908
0.0055478265
0.0055087508
0.0054718454
0.0054364559
0.0054030813
0.0053717567
0.0053420618
0.0053142694
0.0052884403
0.0052644723
0.0052419141
0.0052208444
0.005201222
0.0051824714
0.0051648803
0.0051483621
0.0051327099
0.0051180149
0.005104018
0.0050906212
0.005077809
0.0050657457
0.005054526
0.0050439281
0.0050341548
0.0050251529
0.0050168252
0.0050091182
0.0050020266
0.0049955891
0.0049897055
0.0049843997
0.0049797396
0.0049756505
0.0049722103
0.0049693165
0.004967303
0.0049653702
0.0049651837
0.075177096
0.077358153
0.079560331
0.081740296
0.083893345
0.086011532
0.088086063
0.0901082
0.092069122
0.093959753
0.095770668
0.097492014
0.099113429
0.10062397
0.10201203
0.10326534
0.10437091
0.10531511
0.10608369
0.1066619
0.10703467
0.10718665
0.10710234
0.1067661
0.10616224
0.10527514
0.10408937
0.10258993
0.10076255
0.098594007
0.096072639
0.09318888
0.089935965
0.086310773
0.082314806
0.077955433
0.073247742
0.068213964
0.062885651
0.05731898
0.051578437
0.045739688
0.039912611
0.034234351
0.028881804
0.024078655
0.020072464
0.017041801
0.014964934
0.013611416
0.012700986
0.012030093
0.01148468
0.011013759
0.010592589
0.010208053
0.0098544226
0.0095285367
0.0092258703
0.0089456632
0.0086867464
0.0084441541
0.0082183758
0.0080083044
0.0078122362
0.0076277857
0.0074554579
0.0072953627
0.0071440961
0.0070033075
0.0068722035
0.0067480517
0.0066327699
0.0065255443
0.0064241507
0.0063304118
0.0062434171
0.0061612613
0.0060853867
0.0060147376
0.005947735
0.0058857687
0.0058275251
0.0057722347
0.0057205979
0.0056719542
0.0056264363
0.0055835852
0.0055425546
0.0055038165
0.0054672308
0.0054321554
0.0053990846
0.0053680668
0.0053386773
0.0053111525
0.0052855856
0.0052618638
0.0052395294
0.0052186705
0.005199217
0.0051806271
0.0051631881
0.0051467758
0.0051312195
0.0051166244
0.0051027116
0.0050894035
0.0050766697
0.0050646659
0.0050535194
0.0050429788
0.0050332485
0.0050242898
0.0050160004
0.0050083338
0.0050012775
0.0049948719
0.0049890202
0.0049837424
0.0049791036
0.0049750381
0.0049716147
0.0049687331
0.0049667279
0.0049647974
0.0049646106
0.08032941
0.082314585
0.084327371
0.08631831
0.088281442
0.090208592
0.092090922
0.093919556
0.095685489
0.097379454
0.098991839
0.10051262
0.10193129
0.10323678
0.10441743
0.10546094
0.10635435
0.10708409
0.10763601
0.10799549
0.10814754
0.10807692
0.10776824
0.10720602
0.10637477
0.10525916
0.10384421
0.10211547
0.1000594
0.097663743
0.094918009
0.09181411
0.0883471
0.08451606
0.080325152
0.075785007
0.070914888
0.065738685
0.060297761
0.054655912
0.048879109
0.043054888
0.037304872
0.031780342
0.026675797
0.022226973
0.018662075
0.016081389
0.014362801
0.013235239
0.012447527
0.011840557
0.011329803
0.010881011
0.010475938
0.010103951
0.0097609986
0.0094445499
0.0091499413
0.0088770111
0.0086246614
0.0083874882
0.0081666975
0.0079611661
0.0077691084
0.0075882017
0.0074192844
0.0072623985
0.0071139192
0.0069758585
0.0068472485
0.0067252439
0.0066120028
0.0065066229
0.0064068043
0.0063145625
0.0062289275
0.0061479512
0.0060732356
0.0060036359
0.0059375754
0.0058765244
0.0058190599
0.005764496
0.0057134934
0.0056653711
0.0056203651
0.0055779197
0.0055372264
0.0054988308
0.0054625693
0.0054278152
0.0053950556
0.0053643513
0.0053352742
0.0053080207
0.0052827209
0.0052592411
0.005237131
0.0052164856
0.0051971976
0.0051787694
0.0051614781
0.0051451695
0.0051297099
0.0051152135
0.0051013857
0.0050881663
0.0050755122
0.0050635709
0.0050524962
0.0050420149
0.0050323297
0.0050234143
0.0050151634
0.005007537
0.0050005167
0.0049941429
0.0049883227
0.0049830733
0.0049784561
0.0049744138
0.0049710079
0.0049681384
0.0049661414
0.0049642133
0.0049640262
0.085370102
0.087162639
0.088985001
0.090784667
0.092554941
0.094287615
0.095973863
0.097604736
0.099171103
0.10066356
0.10207235
0.10338733
0.10459787
0.10569282
0.10666048
0.10748854
0.10816408
0.10867362
0.10900312
0.10913807
0.10906363
0.10876472
0.10822611
0.10743255
0.10636883
0.10502002
0.10337164
0.10140993
0.099122195
0.096497265
0.093526009
0.090202011
0.086522368
0.082488633
0.078107922
0.073394484
0.068371968
0.06306758
0.057532192
0.051836349
0.04605037
0.040275035
0.034644478
0.029326275
0.02453194
0.020498915
0.01740925
0.015262801
0.013854794
0.012908561
0.012216532
0.011660418
0.011178507
0.010749584
0.010359693
0.0099998021
0.009667348
0.0093602558
0.0090736104
0.0088079015
0.0085620706
0.0083302514
0.0081144562
0.0079134858
0.0077254583
0.0075481389
0.0073827082
0.0072290903
0.0070834379
0.0069481593
0.0068220716
0.0067022331
0.0065910532
0.006487527
0.0063892893
0.0062985531
0.0062142832
0.006134493
0.0060609469
0.0059924022
0.0059272928
0.0058671563
0.0058104698
0.0057566417
0.0057062795
0.0056586789
0.0056141731
0.005572132
0.0055317854
0.0054937409
0.005457811
0.0054233888
0.0053909512
0.0053605698
0.0053318141
0.0053048385
0.0052798132
0.0052565739
0.0052346907
0.0052142633
0.0051951402
0.0051768777
0.0051597304
0.0051435253
0.0051281656
0.005113768
0.0051000279
0.0050868979
0.005074326
0.0050624516
0.0050514483
0.0050410292
0.0050313925
0.0050225211
0.0050143096
0.0050067239
0.0049997407
0.0049933995
0.0049876107
0.0049823906
0.0049777956
0.0049737764
0.0049703889
0.0049675317
0.004965543
0.0049636177
0.0049634303
0.090260725
0.091863258
0.093495102
0.095102028
0.096677278
0.098212785
0.099699784
0.1011293
0.10249215
0.10377885
0.10497955
0.10608402
0.10708158
0.10796101
0.10871061
0.10931807
0.10977055
0.11005465
0.11015645
0.11006161
0.10975547
0.10922312
0.10844961
0.10741996
0.10611935
0.10453334
0.10264806
0.10045054
0.097929104
0.095073823
0.091877112
0.088334452
0.084445252
0.080213847
0.075650672
0.070774023
0.065611853
0.060196694
0.054589122
0.048865249
0.043102974
0.037417639
0.031957271
0.026907233
0.022491635
0.018930272
0.016327608
0.014577104
0.013425662
0.012620552
0.012002494
0.011487332
0.011029901
0.01061921
0.01024379
0.0098956088
0.0095734968
0.0092756754
0.0089968967
0.0087383502
0.0084989788
0.0082724609
0.0080616798
0.0078652961
0.0076813264
0.0075076512
0.0073457905
0.0071954986
0.0070527159
0.0069202714
0.0067967282
0.0066790736
0.0065699731
0.0064683037
0.0063716522
0.0062824296
0.006199528
0.0061209308
0.0060485635
0.0059810784
0.0059169293
0.0058577036
0.0058017916
0.005748709
0.0056989913
0.0056519092
0.0056078895
0.0055662516
0.0055262614
0.005488575
0.0054529833
0.0054189024
0.0053867969
0.0053567463
0.005328319
0.0053016267
0.0052768807
0.0052538788
0.0052322238
0.0052120164
0.0051930567
0.0051749627
0.005157954
0.0051418507
0.0051265943
0.0051122946
0.0050986437
0.0050856036
0.0050731157
0.0050613122
0.0050503793
0.0050400248
0.0050304394
0.0050216125
0.0050134413
0.0050058964
0.004998951
0.0049926427
0.0049868851
0.0049816949
0.0049771228
0.0049731262
0.0049697578
0.0049669134
0.0049649326
0.0049630103
0.0049628227
0.094960593
0.096375555
0.097816785
0.099230208
0.10060907
0.10194547
0.10323077
0.10445603
0.10561207
0.10668939
0.10767812
0.108568
0.10934829
0.11000781
0.11053484
0.11091713
0.11114191
0.11119589
0.11106532
0.11073604
0.11019359
0.10942334
0.10841064
0.10714089
0.10559975
0.10377338
0.10164864
0.099213528
0.096457512
0.093372106
0.089951491
0.086193302
0.082099563
0.077677762
0.072942122
0.06791558
0.06262951
0.057124765
0.051472609
0.0457526
0.040053888
0.034507834
0.029278217
0.024567427
0.020600688
0.017550751
0.01541835
0.014008089
0.013059558
0.012361826
0.011801043
0.011319518
0.010883365
0.010489727
0.010128189
0.0097913812
0.0094794745
0.0091908212
0.0089198138
0.0086683698
0.0084353813
0.00821413
0.0080083878
0.0078166136
0.0076367344
0.0074667713
0.0073085634
0.0071616461
0.0070217755
0.0068922077
0.0067712188
0.0066557612
0.0065487521
0.0064489353
0.0063538742
0.0062661724
0.0061846394
0.0061072434
0.0060360644
0.0059696426
0.0059064642
0.0058481454
0.0057930043
0.0057406781
0.0056916099
0.0056450416
0.0056014954
0.0055602628
0.0055206408
0.0054833202
0.0054480747
0.0054143455
0.0053825831
0.0053528717
0.0053247793
0.0052983769
0.0052739145
0.0052511479
0.0052297227
0.005209737
0.0051909402
0.0051730182
0.0051561426
0.0051401397
0.005124991
0.0051107887
0.0050972291
0.0050842796
0.0050718778
0.0050601499
0.0050492868
0.0050389993
0.0050294685
0.0050206867
0.005012557
0.0050050532
0.0049981463
0.0049918718
0.0049861453
0.0049809856
0.0049764369
0.0049724626
0.0049691142
0.0049662829
0.00496431
0.0049623909
0.0049622033
0.09942595
0.10065574
0.10190678
0.10312655
0.10430831
0.10544436
0.10652619
0.10754498
0.1084916
0.1093566
0.11013014
0.11080196
0.11136138
0.11179721
0.1120978
0.11225097
0.11224405
0.1120639
0.11169694
0.11112924
0.11034662
0.10933476
0.1080794
0.10656641
0.10478205
0.10271317
0.10034756
0.097674305
0.094684229
0.091370506
0.087729333
0.083760795
0.079469873
0.07486762
0.06997262
0.064813335
0.059422997
0.053855169
0.048192114
0.042514376
0.0369277
0.031580322
0.026652945
0.022359393
0.018903929
0.016377354
0.014669713
0.013535414
0.012741731
0.012124722
0.011608848
0.011155645
0.010738527
0.010361068
0.010012852
0.0096871345
0.0093853124
0.0091056959
0.0088423777
0.0085979822
0.0083712756
0.0081552867
0.007954613
0.0077674655
0.0075917187
0.0074255509
0.0072710753
0.0071275693
0.0069906564
0.0068639982
0.0067455625
0.0066323144
0.0065274028
0.0064294284
0.0063359634
0.0062497902
0.006169623
0.0060934389
0.0060234575
0.0059581016
0.0058959056
0.0058384911
0.0057841163
0.0057325561
0.0056841426
0.0056380811
0.0055949968
0.0055541744
0.0055149323
0.0054779849
0.0054430944
0.0054097269
0.0053783187
0.0053489545
0.005321202
0.0052950961
0.0052709198
0.0052483861
0.005227192
0.0052074282
0.0051887936
0.0051710462
0.0051542982
0.005138394
0.0051233576
0.005109252
0.005095785
0.0050829272
0.0050706133
0.0050589652
0.0050481715
0.0050379532
0.00502848
0.0050197442
0.0050116572
0.0050041947
0.0049973268
0.0049910866
0.0049853912
0.0049802627
0.004975738
0.0049717855
0.0049684577
0.0049656404
0.004963675
0.0049617595
0.0049615718
0.1036109
0.10465798
0.10571965
0.10674609
0.10773059
0.10866561
0.10954284
0.11035358
0.11108885
0.11173927
0.11229508
0.1127461
0.1130817
0.11329078
0.11336175
0.11328255
0.11304065
0.11262308
0.11201648
0.1112072
0.11018138
0.10892509
0.10742454
0.1056662
0.10363701
0.10132472
0.098718167
0.095807721
0.092585797
0.089047478
0.085191271
0.081020046
0.076542127
0.071772596
0.066734967
0.061463699
0.055996007
0.050398459
0.0447625
0.039174335
0.033759083
0.028681729
0.024138502
0.020340258
0.017436831
0.015409581
0.01405973
0.013138023
0.012459556
0.011903314
0.011423485
0.010994694
0.010595283
0.010233245
0.0098976968
0.0095828786
0.0092910367
0.0090202868
0.008764617
0.0085272266
0.0083066522
0.0080959663
0.007900396
0.0077178793
0.0075463172
0.0073840442
0.0072333717
0.0070932943
0.0069593901
0.00683566
0.0067197636
0.0066087377
0.0065059212
0.0064097728
0.0063179127
0.006233275
0.0061544677
0.0060795098
0.006010735
0.005946446
0.0058852454
0.0058287358
0.0057751229
0.0057243339
0.005676582
0.0056310191
0.0055883878
0.0055479837
0.0055091327
0.0054725669
0.005438041
0.0054050457
0.0053740028
0.0053449936
0.0053175854
0.005291783
0.005267894
0.0052455913
0.0052246296
0.0052050874
0.0051866148
0.0051690431
0.0051524187
0.0051366114
0.0051216918
0.0051076826
0.0050943097
0.0050815449
0.0050693209
0.0050577569
0.0050470325
0.0050368856
0.0050274729
0.0050187841
0.0050107411
0.0050033203
0.0049964919
0.0049902868
0.0049846227
0.0049795259
0.0049750257
0.0049710946
0.0049677881
0.0049649855
0.0049630275
0.0049611156
0.0049609281
0.10746753
0.10833431
0.10920777
0.1100416
0.11082911
0.11156295
0.11223501
0.11283676
0.11335939
0.11379365
0.11412992
0.11435811
0.11446771
0.11444771
0.11428666
0.11397263
0.11349327
0.11283582
0.11198718
0.11093406
0.10966297
0.10816045
0.10641331
0.1044087
0.10213443
0.099579264
0.0967333
0.093588434
0.090138915
0.086382035
0.082318958
0.077955728
0.073304478
0.068384886
0.063226095
0.057868666
0.05235652
0.046770123
0.041208307
0.035768225
0.030596034
0.025872661
0.021801581
0.018563485
0.016216167
0.014629133
0.013561224
0.012796921
0.012202865
0.011693288
0.011243279
0.010835785
0.010453837
0.010106291
0.0097825334
0.0094786241
0.009196664
0.0089345602
0.0086865983
0.0084561715
0.0082414762
0.0080362145
0.0078457953
0.0076678861
0.0075005691
0.0073423121
0.0071955019
0.007058844
0.0069280095
0.006807208
0.0066938242
0.0065850371
0.006484304
0.0063899605
0.0062997201
0.0062166238
0.0061391675
0.0060654558
0.0059978952
0.0059346722
0.0058744811
0.0058188831
0.0057660287
0.0057160069
0.0056689265
0.0056238553
0.00558167
0.0055416946
0.0055032448
0.0054670697
0.005432919
0.0054003065
0.0053696394
0.0053409931
0.0053139321
0.0052884403
0.0052648389
0.0052427652
0.0052220362
0.0052027155
0.0051844043
0.0051670073
0.0051505046
0.0051347927
0.0051199933
0.0051060807
0.0050928028
0.005080133
0.0050680007
0.0050565245
0.0050458701
0.0050357964
0.0050264469
0.0050178065
0.0050098087
0.0050024301
0.0049956416
0.004989472
0.0049838397
0.004978775
0.0049742998
0.0049703898
0.0049671051
0.0049643181
0.0049623673
0.0049604592
0.0049602719
0.11094551
0.11163454
0.11232124
0.11296351
0.11355472
0.11408769
0.11455453
0.11494696
0.11525632
0.11547356
0.1155892
0.11559333
0.11547553
0.11522497
0.11483033
0.11427987
0.11356145
0.11266259
0.11157051
0.11027232
0.10875501
0.10700569
0.10501184
0.10276147
0.10024341
0.097447644
0.094365751
0.09099141
0.087321013
0.083354415
0.079095835
0.074554953
0.069748261
0.064700774
0.059448213
0.054036111
0.04851981
0.042995665
0.037566172
0.032346086
0.027502412
0.023227601
0.019711655
0.017066401
0.015234211
0.014004793
0.013147119
0.012496873
0.011963742
0.011491801
0.011067004
0.010678092
0.010314625
0.0099800628
0.0096670932
0.0093744517
0.009102219
0.0088484618
0.0086084475
0.0083848936
0.0081756609
0.0079761073
0.0077908977
0.0076175124
0.0074545037
0.0073004193
0.0071575174
0.0070242325
0.0068965462
0.0067786487
0.0066677354
0.006561212
0.0064625408
0.006369977
0.0062813797
0.0061998271
0.0061237118
0.006051274
0.0059849308
0.0059227719
0.0058636065
0.0058089322
0.0057568366
0.0057075651
0.005661168
0.0056165866
0.005574843
0.0055353075
0.0054972679
0.0054614943
0.0054277302
0.0053955111
0.00536523
0.0053369541
0.0053102425
0.0052850681
0.0052617535
0.0052399072
0.0052194105
0.0052003111
0.0051821609
0.005164935
0.0051485554
0.0051329378
0.00511826
0.0051044453
0.0050912636
0.0050786908
0.0050666522
0.0050552673
0.0050446838
0.005034685
0.0050254013
0.0050168108
0.0050088595
0.0050015236
0.0049947755
0.004988642
0.004983042
0.0049780097
0.0049735601
0.0049696708
0.0049664083
0.004963638
0.0049616942
0.0049597901
0.0049596032
0.11399222
0.11450609
0.11500775
0.11545984
0.11585581
0.11618869
0.11645083
0.1166342
0.11673036
0.11673046
0.11662521
0.11640484
0.11605913
0.1155774
0.11494854
0.11416101
0.11320297
0.11206223
0.11072641
0.10918312
0.10741993
0.10542461
0.10318548
0.10069156
0.097932867
0.094900854
0.091588842
0.087992603
0.084111035
0.079946974
0.075508169
0.070808464
0.065869337
0.060722074
0.055410402
0.049982241
0.044513099
0.039114149
0.033887817
0.028975393
0.024559494
0.020830076
0.01792733
0.015858029
0.014460713
0.013500393
0.012794442
0.012226694
0.01173608
0.011296896
0.010893629
0.010521089
0.010177771
0.0098542252
0.0095514729
0.0092706354
0.0090077798
0.0087619431
0.0085303253
0.00831337
0.0081090938
0.0079157987
0.007735807
0.0075667654
0.0074081382
0.0072584434
0.0071194729
0.0069894597
0.0068650346
0.0067499831
0.0066414764
0.0065372575
0.0064406188
0.006349805
0.0062628861
0.0061828748
0.0061080911
0.0060369653
0.0059718336
0.0059107388
0.0058526189
0.0057988816
0.0057475518
0.0056990002
0.0056532965
0.0056092128
0.0055679095
0.0055288244
0.0054912034
0.0054558436
0.0054224777
0.0053906629
0.0053607774
0.0053328787
0.0053065181
0.005281667
0.0052586385
0.0052370183
0.0052167518
0.0051978736
0.0051798842
0.005162823
0.0051465711
0.0051310479
0.0051164905
0.0051027758
0.0050896916
0.0050772179
0.0050652751
0.0050539846
0.0050434734
0.0050335513
0.0050243356
0.0050157969
0.005007893
0.0050006006
0.0049938934
0.0049877964
0.0049822294
0.0049772299
0.0049728062
0.0049689376
0.0049656976
0.0049629448
0.004961008
0.0049591081
0.0049589217
0.11655217
0.11689373
0.11721241
0.11747609
0.11767833
0.1178124
0.11787096
0.11784623
0.11773001
0.11751367
0.1171881
0.11674373
0.11617053
0.11545802
0.11459531
0.11357117
0.11237404
0.11099216
0.10941361
0.10762658
0.10561935
0.10338049
0.10089932
0.098166046
0.095172131
0.091910735
0.088377242
0.084569886
0.080490502
0.076145416
0.071546478
0.066712326
0.061670134
0.05645845
0.051129577
0.045738004
0.040380778
0.03517901
0.030244917
0.025744421
0.02186339
0.018759272
0.016478422
0.014914983
0.013852381
0.013082851
0.012485571
0.011977008
0.011518692
0.011103835
0.01072192
0.01036794
0.010038112
0.0097282828
0.0094384176
0.0091675533
0.0089134826
0.0086750559
0.0084521741
0.0082414069
0.0080418741
0.0078555307
0.0076805573
0.0075156416
0.0073615111
0.0072164877
0.0070814078
0.0069545049
0.0068335165
0.0067212043
0.0066150094
0.0065131675
0.0064185238
0.0063294202
0.0062442317
0.0061657547
0.006092295
0.0060225323
0.0059585919
0.0058985683
0.0058415207
0.0057887225
0.0057381756
0.0056903071
0.0056452972
0.0056017323
0.0055608738
0.0055222459
0.0054850524
0.0054501195
0.0054171638
0.0053857644
0.0053562834
0.0053287681
0.0053027596
0.0052782366
0.0052554931
0.005234099
0.0052140588
0.0051954007
0.0051775727
0.0051606679
0.0051445513
0.0051291236
0.0051146827
0.0051010715
0.0050880868
0.005075714
0.0050638691
0.0050526761
0.0050422388
0.0050323948
0.0050232493
0.0050147643
0.0050069089
0.0049996608
0.0049929951
0.004986935
0.0049814017
0.0049764352
0.004972038
0.0049681902
0.0049649726
0.0049622383
0.0049603084
0.0049584131
0.0049582272
0.11856787
0.11874
0.11887803
0.11895542
0.11896592
0.11890307
0.11875985
0.11852874
0.1182018
0.1177706
0.11722625
0.11655935
0.11576011
0.11481828
0.11372325
0.11246413
0.11102975
0.10940884
0.10759004
0.10556227
0.10331462
0.10083664
0.098118848
0.095152857
0.091931833
0.088450972
0.084708087
0.080704317
0.076444961
0.071940447
0.067207455
0.062270219
0.057162562
0.05193154
0.046637092
0.041347922
0.036184087
0.031269254
0.026734973
0.022761671
0.019512812
0.017067322
0.015353443
0.014189678
0.013364319
0.012731596
0.012204033
0.011732068
0.011306692
0.010916355
0.010554039
0.010216325
0.0099004886
0.0096037693
0.0093254224
0.0090645307
0.0088194647
0.0085891487
0.0083724329
0.0081675568
0.0079753393
0.0077955284
0.0076250642
0.007464258
0.0073147631
0.0071746662
0.0070432941
0.0069193422
0.0068020375
0.0066922904
0.0065882854
0.006488944
0.0063962402
0.0063087896
0.0062254108
0.0061484556
0.0060763122
0.0060079794
0.0059451925