/*--------------------------------*- C++ -*----------------------------------*\
| =========                 |                                                 |
| \\      /  F ield         | OpenFOAM: The Open Source CFD Toolbox           |
|  \\    /   O peration     | Version:  2406                                  |
|   \\  /    A nd           | Website:  www.openfoam.com                      |
|    \\/     M anipulation  |                                                 |
\*---------------------------------------------------------------------------*/
FoamFile
{
    version     2.0;
    format      ascii;
    arch        "LSB;label=32;scalar=64";
    class       volScalarField;
    location    "0.026";
    object      omega;
}
// * * * * * * * * * * * * * * * * * * * * * * * * * * * * * * * * * * * * * //

dimensions      [0 0 -1 0 0 0 0];

internalField   nonuniform List<scalar> 
92813
(
19696.292
17865.369
16197.734
14701.424
13363.227
12165.557
11091.727
10127
9258.5591
8475.2336
7767.3038
7126.3222
6544.9622
6016.8476
5536.3587
5098.5331
4698.8506
4333.7053
3999.7502
3693.988
3413.7542
3156.6872
2920.6719
2703.8041
2504.3728
2320.8389
2151.8161
1996.0538
1852.4218
1719.8972
1597.5524
1484.5442
1380.1038
1283.5285
1194.172
1111.4362
1034.7647
963.63299
897.52461
835.9297
778.40121
724.43594
673.46463
624.89807
578.08537
532.33177
486.97725
441.86505
397.66622
356.50461
321.17884
293.33237
272.36014
256.33271
243.40133
232.38912
222.64544
213.83515
205.77162
198.35461
191.52777
185.21675
179.37666
173.96896
168.95665
164.28662
159.93434
155.89242
152.10899
148.58406
145.30553
142.229
139.36921
136.71673
134.23161
131.93061
129.80087
127.8052
125.95593
124.23955
122.6224
121.1201
119.71964
118.39579
117.16571
116.01655
114.93534
113.9291
112.97657
112.07601
111.22595
110.41209
109.64471
108.92377
108.24015
107.60201
107.0086
106.455
105.93644
105.45316
105.00434
104.57705
104.17498
103.80144
103.44817
103.116
102.8023
102.50073
102.21314
101.94389
101.69048
101.45329
101.23562
101.03446
100.84871
100.67668
100.51904
100.37561
100.24432
100.12633
100.02294
99.931628
99.85545
99.791331
99.746772
99.704705
99.700639
17286.15
15756.954
14383.793
13146.89
12030.033
11019.619
10104.031
9273.215
8518.3696
7831.7253
7206.3928
6636.2516
6115.8591
5640.3647
5205.4175
4807.1212
4441.969
4106.9022
3799.1686
3516.2991
3256.083
3016.547
2795.9169
2592.5824
2405.0803
2232.0813
2072.378
1924.8729
1788.5676
1662.5525
1545.9977
1438.1443
1338.2966
1245.8144
1160.1054
1080.6175
1006.8326
938.25984
874.40709
814.76498
758.90184
706.34014
656.47745
608.71495
562.3859
516.82114
471.50886
426.49391
382.90411
343.25959
310.34688
285.12535
266.25769
251.62845
239.58117
229.13552
219.78292
211.27479
203.46147
196.26304
189.63276
183.49307
177.8052
172.53416
167.64434
163.08191
158.82742
154.87732
151.17561
147.72757
144.52324
141.51421
138.7188
136.1246
133.69187
131.44082
129.35557
127.39945
125.5878
123.90462
122.31701
120.84341
119.46786
118.16658
116.95712
115.82569
114.76178
113.7702
112.82946
111.93977
111.09967
110.29512
109.53697
108.82479
108.14956
107.51936
106.93322
106.38696
105.87475
105.39721
104.9537
104.53101
104.13342
103.7633
103.41304
103.08383
102.77252
102.47342
102.18799
101.92051
101.6692
101.43356
101.21716
101.01728
100.83271
100.6618
100.50508
100.3626
100.23219
100.11492
100.01215
99.921464
99.84569
99.781954
99.737613
99.69567
99.691612
15223.379
13971.275
12835.77
11803.702
10863.277
10004.702
9219.7749
8501.4568
7843.5701
7240.6178
6687.663
6180.2478
5714.3324
5286.2446
4892.6383
4530.4702
4196.9756
3889.6666
3606.2976
3344.8398
3103.4648
2880.5303
2674.5445
2484.1463
2308.089
2145.2303
1994.5241
1855.0125
1725.8175
1606.1342
1495.2231
1392.4041
1297.0495
1208.5779
1126.4477
1050.1503
979.20339
913.14576
851.49923
793.78011
739.56796
688.37508
639.59111
592.61659
546.78663
501.48799
456.37574
411.81724
369.44371
332.06124
301.99055
279.27492
262.11291
248.50263
237.05673
226.99525
217.92
209.63362
202.00553
194.9682
188.48019
182.46175
176.88012
171.70305
166.89588
162.4052
158.21576
154.32559
150.67652
147.27742
144.11677
141.14502
138.38388
135.82098
133.41466
131.18789
129.12496
127.18805
125.39484
123.72912
122.15711
120.69886
119.33666
118.04717
116.84768
115.7248
114.66976
113.68493
112.74922
111.86431
111.02892
110.22892
109.47519
108.76754
108.09676
107.4705
106.88808
106.34604
105.8373
105.36282
104.92236
104.50234
104.10731
103.73879
103.38999
103.06238
102.75231
102.45472
102.17044
101.90373
101.6537
101.41878
101.20286
101.0036
100.81964
100.64933
100.49307
100.35115
100.22129
100.10443
100.002
99.911726
99.836171
99.772653
99.728455
99.686477
99.682401
13444.69
12421.765
11482.505
10619.49
9825.3957
9093.8771
8419.4831
7797.4441
7223.5044
6693.8168
6204.8704
5753.4408
5336.5535
4951.4565
4595.6016
4266.634
3962.3846
3680.8668
3420.268
3178.9336
2955.3607
2748.1891
2556.1714
2378.162
2213.1044
2060.0232
1918.0177
1786.2568
1663.9731
1550.458
1445.0562
1347.1606
1256.2072
1171.6698
1093.0541
1019.892
951.73471
888.1492
828.66196
772.82817
720.23885
670.36747
622.61646
576.38676
531.02921
486.01239
441.20095
397.35795
356.59044
321.74147
294.4176
273.87818
258.11857
245.34322
234.40856
224.69005
215.87246
207.79793
200.34943
193.47086
187.12545
181.22924
175.75646
170.67733
165.95762
161.54373
157.42516
153.60176
150.01186
146.66887
143.56077
140.63543
137.91836
135.39588
133.02491
130.83168
128.79928
126.88919
125.12192
123.47986
121.929
120.49161
119.1475
117.87438
116.68942
115.57895
114.53656
113.56195
112.63423
111.75698
110.92888
110.13586
109.38898
108.68809
108.0239
107.40363
106.82682
106.29053
105.78677
105.31677
104.88039
104.46398
104.07251
103.70651
103.35991
103.0346
102.72641
102.43086
102.14832
101.88293
101.63464
101.40096
101.18596
100.98771
100.80464
100.63523
100.47971
100.33854
100.20941
100.09313
99.991191
99.901454
99.826235
99.763014
99.719007
99.677083
99.673005
11907.749
11069.87
10291.325
9568.3356
8896.6842
8272.5411
7692.4927
7153.4537
6652.5933
6187.2891
5755.0951
5353.7184
4981.0023
4634.9145
4313.5405
4015.0824
3737.8585
3480.3052
3240.9772
3018.5384
2811.7636
2619.5348
2440.8163
2274.6499
2120.1458
1976.4763
1842.8712
1718.6138
1603.0377
1495.5226
1395.4905
1302.4023
1215.7531
1135.0677
1059.8962
989.80731
924.38329
863.21638
805.84042
751.84084
700.81555
652.19939
605.41016
559.84846
514.89861
470.14752
425.73615
382.893
344.12838
312.04769
287.4046
268.83719
254.30692
242.26876
231.80129
222.40918
213.84567
205.98478
198.71873
192.00241
185.80286
180.03088
174.66914
169.69005
165.05939
160.72369
156.67767
152.92235
149.39242
146.10624
143.05039
140.17032
137.49572
135.01189
132.67408
130.51196
128.50781
126.62225
124.87868
123.25838
121.7269
120.30857
118.9808
117.72241
116.55023
115.45059
114.41934
113.45338
112.53237
111.66171
110.83998
110.05314
109.31226
108.61741
107.95913
107.34409
106.77223
106.24103
105.74163
105.2756
104.84275
104.42951
104.04116
103.67722
103.33246
103.00912
102.70254
102.40882
102.12781
101.86351
101.61677
101.38415
101.16992
100.9725
100.79019
100.62156
100.46668
100.32614
100.19766
100.08191
99.98039
99.891136
99.816215
99.753247
99.70941
99.667503
99.663417
10574.811
9886.4481
9238.9683
8631.8829
8062.8879
7529.7957
7030.5819
6563.3474
6126.2887
5717.683
5335.8783
4979.287
4646.3813
4335.691
4045.8046
3775.3727
3523.1125
3287.8123
3068.3359
2863.618
2672.6706
2494.5835
2328.5044
2173.6383
2029.241
1894.6151
1769.1063
1652.1011
1543.0241
1441.3357
1346.529
1258.1272
1175.6799
1098.7593
1026.9557
959.87197
897.11802
838.30757
782.98499
730.75881
681.22131
633.77773
587.86075
542.8742
498.26358
453.78956
409.95664
368.50337
332.17635
303.03496
280.94093
264.12175
250.64943
239.25385
229.20906
220.12321
211.80499
204.1537
197.06703
190.51101
184.45586
178.806
173.55418
168.67462
164.13263
159.87495
155.90204
152.21555
148.74606
145.51756
142.5149
139.68101
137.05002
134.60591
132.30228
130.17245
128.19765
126.33764
124.61895
123.02134
121.51012
120.11173
118.80102
117.55816
116.39961
115.31144
114.29194
113.33522
112.42147
111.55807
110.74331
109.96327
109.22902
108.5408
107.88903
107.27973
106.71335
106.18754
105.69289
105.23123
104.8021
104.39227
104.00726
103.64561
103.30285
102.98165
102.67685
102.38511
102.10581
101.84277
101.5977
101.36631
101.15299
100.95653
100.77504
100.60727
100.45311
100.31327
100.18549
100.07032
99.969255
99.880519
99.80594
99.743242
99.699588
99.657724
99.653635
9414.0598
8847.0454
8306.5977
7795.5803
7312.7742
6857.0044
6427.1486
6022.1108
5640.8071
5282.1616
4945.1067
4628.5839
4331.5453
4052.9574
3791.8051
3547.0982
3317.8775
3103.2212
2902.2511
2714.1305
2538.0733
2373.3476
2219.2594
2075.1554
1940.4186
1814.466
1696.7461
1586.7374
1483.9466
1387.9069
1298.1763
1214.3348
1135.9821
1062.7337
994.21672
930.06416
869.91115
813.38533
760.04722
709.52418
661.38694
615.02001
569.87308
525.36693
481.04885
436.92947
393.96873
354.3912
320.90185
294.74477
274.989
259.68594
247.1175
236.28673
226.63037
217.83602
209.7576
202.31434
195.40605
189.01034
183.10003
177.57196
172.43084
167.65198
163.19975
159.02132
155.12333
151.50737
148.09954
144.93019
141.98176
139.19466
136.60779
134.20371
131.9343
129.83676
127.89128
126.05672
124.36284
122.78783
121.29678
119.91812
118.62422
117.39672
116.2516
115.17464
114.1665
113.21865
112.31198
111.45576
110.64792
109.87469
109.14703
108.46544
107.82018
107.21655
106.65561
106.135
105.645
105.18766
104.76209
104.35558
103.97377
103.6143
103.27347
102.95432
102.65128
102.36147
102.08385
101.82208
101.57862
101.34846
101.13606
100.94051
100.75982
100.59289
100.43945
100.30028
100.17317
100.05858
99.957958
99.869724
99.795489
99.733049
99.689573
99.647749
99.643654
8399.8712
7930.793
7478.3963
7047.3122
6637.0208
6246.9898
5876.679
5525.5259
5192.9393
4878.2996
4580.9613
4300.2569
4035.5005
3785.9937
3551.0307
3329.9058
3121.9199
2926.3879
2742.6445
2570.0441
2407.9715
2255.8468
2113.1123
1979.2373
1853.7156
1736.0642
1625.8223
1522.55
1425.8273
1335.2531
1250.4438
1171.0312
1096.6602
1026.9855
961.66732
900.36576
842.73849
788.41351
736.98068
688.08331
641.24446
595.84633
551.36041
507.2503
463.22298
419.63387
377.96773
340.79988
310.44094
287.17401
269.49294
255.48324
243.6852
233.35603
224.06082
215.54558
207.70201
200.46494
193.73327
187.49707
181.73118
176.32374
171.29343
166.6158
162.25377
158.15524
154.33348
150.78915
147.44361
144.33439
141.44082
138.70089
136.1586
133.79486
131.55989
129.49495
127.57906
125.77019
124.10151
122.54935
121.07871
119.71995
118.44296
117.23107
116.09963
115.03401
114.0372
113.09827
112.19889
111.35013
110.54945
109.78332
109.06254
108.38785
107.74938
107.1516
106.59634
106.08096
105.59572
105.14287
104.72088
104.31778
103.93919
103.58193
103.24309
102.92604
102.62482
102.337
102.06115
101.80073
101.5589
101.33007
101.11866
100.92407
100.74421
100.57814
100.42547
100.28697
100.16055
100.04657
99.946406
99.858681
99.784815
99.722638
99.679344
99.637571
99.633473
7510.5961
7120.9321
6741.2238
6376.8276
6027.6509
5693.5595
5374.3811
5069.9003
4779.8562
4503.9438
4241.817
3993.0916
3757.3504
3534.148
3323.0171
3123.4741
2935.0269
2757.1806
2589.4442
2431.3303
2282.3668
2142.1026
2010.0966
1885.9235
1769.1731
1659.4496
1556.3717
1459.5713
1368.6937
1283.3963
1203.348
1128.2268
1057.7184
991.51255
929.29844
870.75999
815.57599
763.35842
713.74111
666.38032
620.72085
576.17489
532.24151
488.46911
444.80366
402.04887
362.21895
327.96873
300.87192
280.27915
264.38712
251.46966
240.33038
230.45308
221.49784
213.25156
205.63882
198.60646
192.04982
185.97247
180.35067
175.06302
170.14411
165.56864
161.29761
157.28006
153.53625
150.06491
146.78252
143.73459
140.89659
138.20428
135.70705
133.38391
131.18353
129.15138
127.26524
125.48221
123.83894
122.30975
120.85969
119.52078
118.26064
117.06449
115.94681
114.89251
113.90674
112.97662
112.08464
111.24348
110.45008
109.69122
108.97748
108.30982
107.67826
107.0864
106.53691
106.02666
105.54618
105.09788
104.67938
104.27973
103.90425
103.54917
103.21234
102.89734
102.59798
102.31213
102.03808
101.77908
101.53886
101.31139
101.10102
100.90739
100.72837
100.56316
100.41126
100.27345
100.1477
100.03434
99.934643
99.847418
99.773935
99.712021
99.668906
99.627188
99.623088
6728.2889
6403.4014
6083.9003
5775.2772
5477.6882
5191.2357
4915.973
4651.9042
4398.9842
4157.1197
3926.1713
3705.9564
3496.2528
3296.8034
3107.3207
2927.4928
2756.9894
2595.467
2442.5751
2297.9559
2161.256
2032.1322
1910.2424
1795.2513
1686.8313
1584.6622
1488.4318
1397.8352
1312.5751
1232.3606
1156.9071
1085.9339
1019.1626
956.31363
897.10105
841.22859
788.39078
738.18963
690.29066
644.34405
599.73517
555.92151
512.44351
468.99957
425.87593
384.41127
347.0345
316.09531
292.20889
273.9884
259.60451
247.60651
237.03515
227.57153
218.9397
210.95373
203.56836
196.73923
190.3559
184.43658
178.95828
173.78955
168.98269
164.51024
160.33091
156.39542
152.73118
149.33396
146.11538
143.12969
140.34766
137.70325
135.25142
132.96898
130.80329
128.80413
126.94788
125.19087
123.57327
122.06722
120.63794
119.31887
118.07556
116.89538
115.79161
114.74864
113.7737
112.85238
111.96806
111.1347
110.34876
109.59741
108.89094
108.2305
107.60603
107.02023
106.47663
105.97147
105.4958
105.05213
104.63711
104.24099
103.86853
103.51562
103.18087
102.86794
102.57047
102.28661
102.01441
101.75694
101.51831
101.29226
101.08302
100.89037
100.71221
100.54787
100.39677
100.25966
100.13458
100.02185
99.922641
99.835913
99.762832
99.701188
99.65825
99.616595
99.612495
6038.0599
5766.2782
5496.7985
5234.9269
4980.95
4735.1016
4497.5662
4268.4812
4047.937
3835.978
3632.6038
3437.7709
3251.3957
3073.3578
2903.5035
2741.6507
2587.5935
2441.1074
2301.9536
2169.8789
2044.6273
1925.9451
1813.5731
1707.2525
1606.7262
1511.739
1422.0384
1337.3745
1257.4999
1182.1695
1111.139
1044.164
980.99741
921.38595
865.06436
811.75212
761.14943
712.85894
666.57137
621.90079
578.20455
535.00261
491.9113
448.86953
406.61755
367.04941
332.73149
305.30244
284.40607
268.21382
255.08179
243.86108
233.7857
224.70706
216.38538
208.65219
201.49118
194.86368
188.652
182.88986
177.55426
172.50388
167.80993
163.44138
159.35457
155.50244
151.91947
148.59742
145.44335
142.52078
139.795
137.19873
134.7926
132.5509
130.42001
128.45403
126.62778
124.89701
123.30534
121.82255
120.41427
119.11498
117.88846
116.72449
115.63474
114.60307
113.63868
112.72618
111.84975
111.02438
110.24606
109.50243
108.80346
108.15038
107.53314
106.95348
106.41587
105.91573
105.44489
105.00588
104.59432
104.20177
103.83222
103.48144
103.14886
102.83796
102.54243
102.26057
101.99026
101.73439
101.49734
101.27277
101.0647
100.87305
100.69577
100.5323
100.38201
100.24562
100.12121
100.00912
99.91041
99.82417
99.751507
99.69014
99.647377
99.605789
99.601691
5427.3819
5199.343
4971.5488
4748.9579
4531.912
4320.7081
4115.6
3916.8001
3724.4793
3538.7675
3359.754
3187.4885
3021.9829
2863.2136
2711.124
2565.6282
2426.6147
2293.9502
2167.4837
2047.0452
1932.4574
1823.5402
1720.1031
1621.9514
1528.8876
1440.7118
1357.2229
1278.2183
1203.494
1132.8439
1066.059
1002.9259
943.22414
886.72238
833.17222
782.30567
733.8089
687.30584
642.51237
598.96617
556.03958
513.33994
470.62516
428.18893
387.3222
350.35855
319.57622
295.62091
277.37206
262.86284
250.76298
240.20676
230.57215
221.85714
213.83421
206.34718
199.40789
192.9801
186.93849
181.33275
176.13872
171.20654
166.62644
162.36258
158.36914
154.60184
151.10175
147.85567
144.76678
141.90798
139.23846
136.69051
134.33027
132.12918
130.03322
128.10062
126.30443
124.60015
123.03467
121.57526
120.18825
118.90866
117.69887
116.55138
115.47581
114.45536
113.50128
112.59769
111.72943
110.91225
110.14174
109.40606
108.71481
108.06928
107.45937
106.88599
106.35444
105.85927
105.39329
104.95897
104.55084
104.16195
103.79519
103.44652
103.1162
102.80733
102.51376
102.23392
101.96554
101.71138
101.47588
101.25284
101.04603
100.85539
100.67902
100.51644
100.36698
100.23131
100.10756
99.996144
99.897939
99.812177
99.73995
99.678873
99.63628
99.594766
99.590673
4885.6281
4693.7907
4500.8502
4311.3459
4125.6311
3944.024
3766.808
3594.2322
3426.5108
3263.823
3106.3128
2954.0895
2807.2285
2665.7723
2529.733
2399.0943
2273.8143
2153.829
2039.0547
1929.3867
1824.7102
1724.9048
1629.8361
1539.3627
1453.3368
1371.6054
1294.0108
1220.3907
1150.5779
1084.4
1021.6777
962.22331
905.83821
852.30835
801.39859
752.85275
706.31528
661.46252
618.03082
575.43853
533.14484
490.87628
448.63209
407.18813
368.40423
334.74276
307.73209
286.9938
270.98892
257.84772
246.60142
236.62231
227.38876
219.02081
211.28539
204.039
197.31916
191.08858
185.21588
179.76595
174.71182
169.89836
165.43308
161.27448
157.37541
153.69463
150.2789
147.10928
144.08629
141.29171
138.67825
136.1788
133.86455
131.70386
129.64299
127.744
125.97789
124.3004
122.76137
121.32544
119.95999
118.70009
117.50696
116.3762
115.31496
114.30559
113.36163
112.46709
111.60729
110.79847
110.03599
109.30848
108.62518
107.98734
107.38485
106.81788
106.29242
105.80217
105.34107
104.91145
104.50674
104.12156
103.75747
103.41087
103.08293
102.77607
102.48449
102.20669
101.94029
101.68791
101.45397
101.2325
101.02701
100.8374
100.66198
100.50029
100.35166
100.21673
100.09366
99.982912
99.885227
99.799935
99.728156
99.667384
99.624958
99.583523
99.579438
4403.8128
4242.0612
4078.3505
3916.782
3757.6957
3601.406
3448.2011
3298.3419
3152.0611
3009.5626
2871.0208
2736.5802
2606.3559
2480.4339
2358.8728
2241.7051
2128.9392
2020.5618
1916.5402
1816.8199
1721.3351
1630.0126
1542.7636
1459.4902
1380.0856
1304.4358
1232.4194
1163.908
1098.7656
1036.8475
977.99888
922.05278
868.82699
818.11977
769.70484
723.33181
678.61175
635.26468
593.01136
551.20114
509.43424
467.60602
426.09184
386.25085
350.36305
320.53238
297.2323
279.29952
265.1306
253.09209
242.56071
233.09018
224.23477
216.1986
208.73707
201.72784
195.22554
189.18894
183.48498
178.19053
173.27358
168.58031
164.23089
160.17774
156.37415
152.78189
149.45173
146.3586
143.40234
140.67213
138.11429
135.66356
133.39523
131.27462
129.2491
127.38396
125.64787
123.99758
122.48527
121.07289
119.72929
118.48915
117.31262
116.19873
115.15202
114.1536
113.2196
112.33432
111.48324
110.683
109.92877
109.20965
108.53453
107.90453
107.30954
106.74911
106.22977
105.74439
105.2882
104.86326
104.46198
104.08053
103.71904
103.37448
103.049
102.74415
102.45459
102.17885
101.91447
101.66397
101.43158
101.21173
101.00762
100.81908
100.64462
100.48383
100.33606
100.20188
100.07948
99.969421
99.872268
99.787436
99.71612
99.655671
99.613407
99.572054
99.567981
3974.3054
3837.6504
3698.5207
3560.5905
3424.174
3289.5679
3157.0501
3026.8779
2899.2866
2774.4881
2652.67
2533.9949
2418.6003
2306.5988
2198.0787
2093.1051
1991.7215
1893.9509
1799.798
1709.2458
1622.2664
1538.8233
1458.8641
1382.3255
1309.1344
1239.2085
1172.4565
1108.7779
1048.0621
990.18701
935.01716
882.40083
832.16704
784.12129
738.0416
693.67124
650.60478
608.60428
567.33342
526.15216
484.86182
443.62443
403.33055
365.91463
333.69461
307.90742
287.98901
272.38545
259.67634
248.53513
238.61425
229.59389
221.11554
213.39131
206.18501
199.41388
193.12741
187.28057
181.74751
176.60826
171.82345
167.25355
163.02122
159.07302
155.36609
151.86476
148.62108
145.60386
142.7154
140.04934
137.54643
135.14478
132.92214
130.84121
128.85147
127.02038
125.31422
123.69167
122.20631
120.81749
119.4961
118.27591
117.11594
116.01885
114.98695
113.99937
113.07522
112.19946
111.35734
110.56591
109.82017
109.10967
108.44293
107.82093
107.23348
106.67972
106.16648
105.68593
105.23467
104.81443
104.41655
104.0388
103.67989
103.33734
103.01441
102.71157
102.42405
102.15042
101.88808
101.63954
101.40872
101.19052
100.98785
100.8004
100.62694
100.46707
100.32016
100.18675
100.06504
99.955668
99.859057
99.774677
99.703835
99.64373
99.601623
99.560358
99.5563
3590.595
3474.9445
3356.5366
3238.6476
3121.5604
3005.547
2890.867
2777.7648
2666.4679
2557.1853
2450.1062
2345.3992
2243.2119
2143.6706
2046.8812
1952.9291
1861.8807
1773.784
1688.6702
1606.55
1527.4233
1451.2822
1378.1022
1307.8474
1240.4714
1175.9175
1114.1186
1054.9966
998.46112
944.40767
892.71471
843.24043
795.81947
750.26007
706.34138
663.77278
622.17369
581.3566
540.87095
500.21455
459.46431
419.19207
380.87748
346.805
318.77026
296.86382
279.83421
266.10188
254.51713
244.13481
234.74098
226.11693
218.04075
210.59575
203.62336
197.0989
191.02541
185.36249
180.00656
175.02111
170.35972
165.91991
161.80605
157.96084
154.35171
150.94441
147.78782
144.84513
142.02594
139.42329
136.97433
134.62235
132.44497
130.40328
128.44994
126.65306
124.97671
123.38259
121.9243
120.55906
119.26024
118.06033
116.91699
115.83635
114.81957
113.84284
112.92848
112.06251
111.22957
110.44719
109.7102
109.00854
108.35039
107.73652
107.15664
106.60969
106.10255
105.62679
105.18044
104.7649
104.37042
103.99629
103.64001
103.29946
102.97911
102.67832
102.39285
102.12137
101.86113
101.61462
101.38538
101.16886
100.96769
100.78138
100.60895
100.45
100.30396
100.17133
100.05032
99.941648
99.845589
99.761657
99.691296
99.631556
99.589604
99.548431
99.544391
3247.0972
3149.0772
3048.176
2947.3085
2846.7255
2746.672
2647.3854
2549.092
2452.0053
2356.3242
2262.2316
2169.8938
2079.4596
1991.0603
1904.8097
1820.8045
1739.125
1659.8353
1582.9846
1508.6027
1436.71
1367.3195
1300.4278
1236.0203
1174.0711
1114.5435
1057.3891
1002.5472
949.94276
899.48386
851.05778
804.52673
759.72462
716.45834
674.50958
633.51021
593.18987
553.38621
513.50285
473.37454
433.43483
394.80323
359.44081
329.49552
305.74118
287.24125
272.57506
260.32086
249.5578
239.85926
230.9218
222.64873
215.01247
207.80477
201.05458
194.78897
188.92152
183.43396
178.26592
173.4288
168.88017
164.58288
160.58762
156.84124
153.33116
150.02228
146.95288
144.08213
141.33449
138.79384
136.39742
134.09608
131.96342
129.96044
128.0444
126.28177
124.63515
123.07039
121.63908
120.29746
119.02168
117.84238
116.71589
115.65105
114.64965
113.684
112.77943
111.9235
111.09995
110.32691
109.59892
108.90632
108.25695
107.65134
107.07904
106.53902
106.03795
105.56697
105.12549
104.71466
104.32359
103.95294
103.5994
103.26086
102.94306
102.64438
102.36099
102.0917
101.8336
101.58918
101.36156
101.14676
100.94713
100.76199
100.59061
100.43262
100.28746
100.15562
100.03532
99.927357
99.83186
99.748374
99.678498
99.619142
99.577344
99.53627
99.532251
2938.9923
2855.8104
2769.7296
2683.3431
2596.8717
2510.5336
2424.5425
2339.1042
2254.4147
2170.6581
2088.0061
2006.6169
1926.6344
1848.1886
1771.3947
1696.3539
1623.1535
1551.867
1482.5547
1415.2592
1350.0149
1286.8497
1225.7757
1166.7936
1109.893
1055.0519
1002.2358
951.39661
902.46988
855.37145
809.99231
766.1925
723.79801
682.60881
642.39979
602.7616
563.5375
524.51835
485.16567
445.76494
407.21807
371.20745
339.77734
314.34601
294.52369
278.80594
266.0257
254.90538
244.79546
235.60971
227.13151
219.25981
211.91584
205.00788
198.53952
192.49251
186.81918
181.49656
176.52445
171.82736
167.38736
163.24782
159.36662
155.714
152.30505
149.10036
146.11682
143.31417
140.64178
138.16072
135.81479
133.56581
131.47719
129.51217
127.63471
125.90631
124.28935
122.75515
121.3504
120.0326
118.78048
117.62184
116.51265
115.46285
114.47686
113.52282
112.62816
111.78243
110.96848
110.20508
109.48634
108.80305
108.16262
107.56539
107.00068
106.46767
105.97265
105.50646
105.06978
104.66365
104.27601
103.90866
103.55804
103.22156
102.90623
102.60974
102.32847
102.0614
101.80549
101.56323
101.33725
101.1242
100.92616
100.74224
100.57194
100.41491
100.27065
100.1396
100.02003
99.912788
99.817865
99.734827
99.665436
99.606483
99.56484
99.523873
99.519877
2662.1087
2591.4448
2517.9332
2443.8862
2369.4973
2294.9597
2220.4634
2146.1925
2072.3232
1999.0227
1926.4481
1854.746
1784.0517
1714.4891
1646.1707
1579.1971
1513.6577
1449.6302
1387.181
1326.3603
1267.2111
1209.7716
1154.064
1100.0999
1047.8794
997.39061
948.60834
901.4923
855.98405
812.00262
769.43783
728.14196
687.92665
648.5795
609.84015
571.34637
533.06372
494.66428
455.95575
417.78022
381.57873
349.30438
322.47616
301.41164
284.85993
271.43345
259.94231
249.54838
240.13526
231.47291
223.41752
215.89893
208.85883
202.23784
196.02273
190.19549
184.72198
179.58064
174.74803
170.18521
165.91096
161.91953
158.14107
154.58152
151.27623
148.18087
145.27877
142.54048
139.94868
137.52338
135.22536
133.03162
130.98599
129.05783
127.22083
125.52648
123.93912
122.43701
121.05802
119.76452
118.53694
117.39832
116.30714
115.27189
114.30083
113.35919
112.4748
111.6393
110.83523
110.08174
109.37251
108.69874
108.06743
107.47865
106.92154
106.39561
105.90663
105.44528
105.01328
104.61178
104.22764
103.86342
103.51592
103.18158
102.86859
102.57438
102.2953
102.03048
101.7768
101.53675
101.31245
101.10117
100.90476
100.72211
100.55291
100.39687
100.25352
100.12329
100.00447
99.897933
99.8036
99.721017
99.652108
99.59357
99.552086
99.511237
99.507266
2412.8269
2352.745
2289.9108
2226.3948
2162.3665
2097.9952
2033.4474
1968.8851
1904.4642
1840.3335
1776.634
1713.4988
1651.0521
1589.4094
1528.677
1468.9521
1410.3222
1352.8656
1296.6507
1241.7313
1188.1553
1135.9663
1085.1929
1035.8531
987.95319
941.48707
896.43427
852.75767
810.40008
769.27909
729.27909
690.24047
651.957
614.2
576.61992
539.09827
501.65623
463.86479
426.23892
390.19345
357.54772
329.88325
307.77868
290.46212
276.52605
264.65214
254.02323
244.43482
235.61239
227.41275
219.74912
212.56864
205.82666
199.48098
193.51193
187.90003
182.61971
177.65134
172.97819
168.57415
164.43422
160.54965
156.8951
153.46442
150.25335
147.26302
144.43641
141.76223
139.25536
136.88053
134.62852
132.4939
130.48934
128.59669
126.80291
125.14216
123.58417
122.11613
120.76177
119.49334
118.29159
117.17123
116.09888
115.07852
114.12125
113.19296
112.31948
111.49415
110.70026
109.95687
109.25741
108.59343
107.97139
107.39111
106.84162
106.32278
105.83981
105.38341
104.95598
104.55894
104.17842
103.81722
103.47299
103.14092
102.83011
102.53829
102.26149
101.99893
101.74751
101.50975
101.28715
101.07768
100.88293
100.7016
100.53352
100.3785
100.23608
100.10666
99.988605
99.882786
99.78906
99.706945
99.638509
99.580396
99.539078
99.49836
99.494416
2187.996
2136.8716
2083.1255
2028.614
1973.485
1917.8844
1861.9559
1805.8398
1749.6717
1693.5821
1637.6958
1582.1314
1527.0013
1472.4108
1418.4583
1365.2351
1312.8247
1261.3028
1210.7372
1161.1819
1112.6861
1065.2957
1019.0418
973.94502
930.0139
887.24369
845.61407
805.08625
765.59919
727.06424
689.35691
652.30535
615.68945
579.2294
542.57755
505.94721
469.26799
432.45397
396.80505
364.15765
336.15526
313.34264
295.55339
281.20253
268.93332
258.14704
248.43126
239.49938
231.18988
223.41684
216.12387
209.27015
202.81922
196.73846
191.00706
185.60658
180.51706
175.72179
171.20481
166.94904
162.94942
159.19529
155.6633
152.34524
149.24009
146.32631
143.57553
140.99344
138.56021
136.23081
134.02556
131.95263
129.98625
128.12855
126.38136
124.75307
123.22423
121.79263
120.46178
119.21915
118.04483
116.94009
115.88713
114.88321
113.93805
113.02393
112.16217
111.34699
110.56368
109.83045
109.14105
108.48713
107.8745
107.30274
106.76088
106.24917
105.77213
105.32081
104.89788
104.505
104.1283
103.7701
103.42917
103.09954
102.7908
102.50143
102.22705
101.96675
101.71764
101.48221
101.26136
101.05371
100.86065
100.68069
100.51377
100.35978
100.21832
100.08973
99.972446
99.86734
99.774241
99.69261
99.624637
99.566951
99.525811
99.48524
99.481324
1984.9089
1941.3416
1895.36
1848.563
1801.0872
1753.0588
1704.6005
1655.8322
1606.8707
1557.8288
1508.8153
1459.9348
1411.2868
1362.9663
1315.0626
1267.6595
1220.8346
1174.6594
1129.1983
1084.5033
1040.622
997.59945
955.46611
914.2415
873.93261
834.53182
796.01417
758.33398
721.42081
685.17469
649.46003
614.09992
578.89011
543.42862
507.57484
471.90334
436.22062
401.273
368.92815
340.94102
318.00576
299.8247
285.24502
272.75501
261.86892
252.07629
243.07546
234.69816
226.85134
219.47934
212.54107
206.00302
199.83503
194.01044
188.50973
183.31645
178.41483
173.79128
169.43328
165.32807
161.46702
157.83908
154.42884
151.22567
148.21982
145.39798
142.73562
140.21838
137.83533
135.57021
133.42795
131.40559
129.47565
127.65488
125.95627
124.35866
122.85949
121.46645
120.1588
118.94187
117.79622
116.70513
115.67123
114.68612
113.7516
112.85209
112.00267
111.19779
110.42558
109.70247
109.02338
108.37984
107.77676
107.21349
106.67931
106.17475
105.70348
105.2574
104.83899
104.44984
104.07718
103.72213
103.38437
103.05739
102.75068
102.46379
102.19197
101.93396
101.68719
101.45413
101.23507
101.02927
100.83792
100.65938
100.49364
100.34072
100.20022
100.07248
99.955983
99.851588
99.759138
99.678013
99.610487
99.55323
99.512282
99.471874
99.467989
1801.1857
1764.0097
1724.6637
1684.4828
1643.5908
1602.099
1560.1126
1517.7335
1475.0605
1432.1899
1389.2153
1346.2272
1303.3132
1260.557
1218.0383
1175.8327
1134.0107
1092.6378
1051.7734
1011.4651
971.75689
932.69002
894.29114
856.57539
819.54428
783.18303
747.4572
712.30896
677.6531
643.37382
609.32414
575.33517
541.25823
506.67004
471.73541
437.25302
403.35877
371.7265
344.10701
321.37744
303.25729
288.52763
276.00491
265.10959
255.30515
246.28669
237.88458
230.00449
222.58898
215.5984
209.00058
202.76749
196.87375
191.2973
186.02108
181.03122
176.31547
171.86319
167.66423
163.70848
159.98715
156.48913
153.20006
150.10801
147.20208
144.46584
141.88081
139.43717
137.12088
134.91495
132.82043
130.83593
128.95394
127.18447
125.52611
123.95832
122.49158
121.13688
119.85413
118.66133
117.54367
116.46766
115.45146
114.48645
113.5626
112.67773
111.84055
111.04642
110.28596
109.57293
108.90434
108.27153
107.67813
107.12333
106.59686
106.09949
105.63375
105.19304
104.77931
104.3934
104.02501
103.67337
103.33853
103.0144
102.70981
102.42537
102.15626
101.90058
101.65618
101.42547
101.20827
101.00435
100.81472
100.63765
100.47313
100.3213
100.1818
100.05491
99.939211
99.835526
99.743745
99.663149
99.596057
99.539227
99.498487
99.458257
99.454406
1634.6736
1602.9332
1569.243
1534.7421
1499.5229
1463.681
1427.3059
1390.4828
1353.2948
1315.8233
1278.1481
1240.3469
1202.4953
1164.6663
1126.9298
1089.3525
1051.997
1014.9215
978.17863
941.81041
905.85449
870.34585