/*--------------------------------*- C++ -*----------------------------------*\
| =========                 |                                                 |
| \\      /  F ield         | OpenFOAM: The Open Source CFD Toolbox           |
|  \\    /   O peration     | Version:  2406                                  |
|   \\  /    A nd           | Website:  www.openfoam.com                      |
|    \\/     M anipulation  |                                                 |
\*---------------------------------------------------------------------------*/
FoamFile
{
    version     2.0;
    format      ascii;
    arch        "LSB;label=32;scalar=64";
    class       volScalarField;
    location    "0.026";
    object      p;
}
// * * * * * * * * * * * * * * * * * * * * * * * * * * * * * * * * * * * * * //

dimensions      [1 -1 -2 0 0 0 0];

internalField   nonuniform List<scalar> 
92813
(
101048.35
100989.57
100964.07
100935.4
100906.86
100882.48
100862.07
100845.31
100832.02
100821.87
100814.46
100809.26
100805.67
100803.33
100801.94
100801.75
100803.12
100806.39
100811.59
100818.66
100827.21
100836.97
100847.72
100859.34
100871.71
100884.71
100898.25
100912.25
100926.65
100941.36
100956.32
100971.46
100986.71
101002
101017.26
101032.39
101047.45
101061.85
101075.6
101088.8
101102.71
101116.84
101129.05
101140.41
101151.02
101160.75
101169.57
101177.45
101184.46
101190.77
101196.57
101201.95
101206.99
101211.8
101216.44
101220.95
101225.34
101229.61
101233.76
101237.79
101241.7
101245.49
101249.17
101252.73
101256.18
101259.53
101262.79
101265.96
101269.05
101272.08
101275.04
101277.95
101280.8
101283.6
101286.35
101289.04
101291.67
101294.23
101296.73
101299.16
101301.53
101303.85
101306.11
101308.31
101310.47
101312.58
101314.65
101316.66
101318.6
101320.49
101322.32
101324.08
101325.78
101327.43
101329.03
101330.59
101332.12
101333.6
101335.06
101336.47
101337.85
101339.18
101340.48
101341.73
101342.94
101344.11
101345.23
101346.3
101347.32
101348.29
101349.21
101350.08
101350.92
101351.7
101352.43
101353.12
101353.75
101354.34
101354.87
101355.36
101355.81
101356.21
101356.57
101356.86
101357.14
101357.29
101357.45
101182.15
101142.69
101106.91
101067.94
101032.67
101003.06
100978.28
100957.62
100940.65
100926.91
100915.95
100907.24
100900.21
100894.3
100889.32
100885.39
100882.71
100881.48
100882.16
100884.76
100889.07
100894.94
100902.34
100910.95
100920.5
100930.82
100941.8
100953.31
100965.28
100977.62
100990.26
101003.12
101016.13
101029.24
101042.36
101055.41
101068.4
101081.07
101093.17
101104.07
101116.6
101129.44
101140.3
101150.51
101160.14
101169.07
101177.25
101184.66
101191.35
101197.46
101203.12
101208.33
101213.19
101217.78
101222.2
101226.47
101230.63
101234.67
101238.6
101242.42
101246.13
101249.72
101253.22
101256.61
101259.9
101263.09
101266.19
101269.22
101272.17
101275.07
101277.9
101280.69
101283.43
101286.12
101288.76
101291.35
101293.88
101296.36
101298.77
101301.12
101303.42
101305.65
101307.84
101309.98
101312.07
101314.12
101316.12
101318.07
101319.97
101321.81
101323.58
101325.29
101326.95
101328.56
101330.12
101331.64
101333.13
101334.58
101336
101337.38
101338.73
101340.03
101341.3
101342.53
101343.72
101344.86
101345.96
101347
101348
101348.95
101349.86
101350.71
101351.53
101352.3
101353.02
101353.69
101354.31
101354.88
101355.41
101355.89
101356.33
101356.72
101357.08
101357.36
101357.64
101357.78
101357.95
101250.64
101220.51
101181.24
101138.27
101100.25
101068.1
101040.74
101017.46
100997.82
100981.38
100967.72
100956.37
100946.92
100938.97
100932.36
100926.96
100922.79
100920.03
100919
100919.74
100922.26
100926.57
100932.45
100939.6
100947.79
100956.86
100966.67
100977.1
100988.06
100999.44
101011.18
101023.17
101035.36
101047.66
101060
101072.29
101084.5
101096.6
101107.76
101117.65
101129.88
101141.93
101151.99
101161.52
101170.48
101178.77
101186.35
101193.21
101199.44
101205.16
101210.44
101215.29
101219.8
101224.09
101228.22
101232.23
101236.12
101239.92
101243.61
101247.21
101250.71
101254.11
101257.41
101260.62
101263.74
101266.76
101269.71
101272.59
101275.4
101278.15
101280.86
101283.52
101286.14
101288.72
101291.25
101293.74
101296.17
101298.55
101300.88
101303.14
101305.35
101307.52
101309.63
101311.69
101313.72
101315.7
101317.64
101319.54
101321.37
101323.16
101324.88
101326.54
101328.15
101329.72
101331.23
101332.71
101334.16
101335.58
101336.96
101338.31
101339.63
101340.9
101342.14
101343.34
101344.5
101345.62
101346.7
101347.72
101348.7
101349.63
101350.52
101351.35
101352.15
101352.91
101353.61
101354.27
101354.88
101355.44
101355.96
101356.43
101356.86
101357.24
101357.6
101357.88
101358.15
101358.29
101358.45
101306.97
101280.74
101242.04
101198.2
101158.57
101124.38
101094.68
101068.9
101046.65
101027.6
101011.38
100997.61
100985.96
100976.13
100967.94
100961.25
100956.04
100952.39
100950.4
100950.13
100951.55
100954.64
100959.23
100965.11
100972.1
100980.05
100988.82
100998.3
101008.37
101018.95
101029.93
101041.23
101052.76
101064.45
101076.2
101087.94
101099.64
101111.38
101121.49
101131
101143.23
101154.47
101163.93
101172.9
101181.29
101188.99
101195.97
101202.25
101207.95
101213.19
101218
101222.43
101226.57
101230.53
101234.36
101238.08
101241.72
101245.26
101248.72
101252.09
101255.38
101258.58
101261.69
101264.71
101267.65
101270.51
101273.29
101276.02
101278.68
101281.3
101283.87
101286.4
101288.9
101291.36
101293.78
101296.17
101298.5
101300.79
101303.02
101305.2
101307.33
101309.41
101311.45
101313.44
101315.4
101317.32
101319.19
101321.03
101322.8
101324.53
101326.2
101327.82
101329.38
101330.9
101332.37
101333.81
101335.22
101336.6
101337.95
101339.26
101340.54
101341.79
101343
101344.17
101345.31
101346.4
101347.45
101348.46
101349.41
101350.32
101351.19
101352.01
101352.79
101353.53
101354.22
101354.86
101355.46
101356.01
101356.52
101356.98
101357.4
101357.78
101358.13
101358.4
101358.66
101358.81
101358.97
101358.66
101334.33
101296.8
101253.19
101213
101177.73
101146.6
101119.13
101095.03
101074.04
101055.85
101040.16
101026.7
101015.22
101005.55
100997.56
100991.2
100986.49
100983.45
100982.09
100982.38
100984.25
100987.58
100992.22
100998.02
101004.83
101012.53
101020.99
101030.12
101039.8
101049.93
101060.44
101071.22
101082.19
101093.27
101104.35
101115.43
101126.57
101135.68
101145.05
101156.9
101167.26
101176.12
101184.52
101192.3
101199.38
101205.74
101211.44
101216.61
101221.34
101225.66
101229.67
101233.44
101237.07
101240.6
101244.04
101247.41
101250.7
101253.92
101257.06
101260.14
101263.12
101266.04
101268.87
101271.63
101274.32
101276.94
101279.51
101282.03
101284.5
101286.94
101289.34
101291.71
101294.06
101296.37
101298.65
101300.88
101303.07
101305.21
101307.3
101309.35
101311.35
101313.31
101315.23
101317.11
101318.96
101320.77
101322.54
101324.26
101325.93
101327.55
101329.12
101330.63
101332.1
101333.53
101334.93
101336.3
101337.64
101338.95
101340.23
101341.48
101342.69
101343.88
101345.02
101346.13
101347.2
101348.22
101349.2
101350.14
101351.02
101351.87
101352.68
101353.44
101354.16
101354.84
101355.47
101356.05
101356.59
101357.08
101357.53
101357.95
101358.32
101358.66
101358.93
101359.19
101359.33
101359.49
101404.87
101380.87
101344.13
101301.53
101261.73
101226.23
101194.45
101166.02
101140.73
101118.38
101098.75
101081.59
101066.69
101053.85
101042.91
101033.75
101026.31
101020.56
101016.49
101014.07
101013.27
101014.02
101016.21
101019.71
101024.4
101030.15
101036.82
101044.32
101052.51
101061.31
101070.61
101080.31
101090.33
101100.57
101110.93
101121.33
101131.76
101142.15
101150.38
101159.59
101170.86
101180.33
101188.57
101196.34
101203.47
101209.9
101215.63
101220.73
101225.36
101229.58
101233.42
101237.01
101240.41
101243.72
101246.94
101250.1
101253.2
101256.24
101259.21
101262.12
101264.97
101267.75
101270.46
101273.11
101275.69
101278.2
101280.66
101283.07
101285.43
101287.76
101290.06
101292.33
101294.58
101296.81
101299
101301.17
101303.3
101305.39
101307.44
101309.44
101311.4
101313.32
101315.2
101317.04
101318.86
101320.64
101322.38
101324.09
101325.75
101327.36
101328.93
101330.44
101331.9
101333.33
101334.71
101336.07
101337.39
101338.7
101339.97
101341.22
101342.43
101343.62
101344.77
101345.88
101346.96
101348
101349
101349.96
101350.87
101351.74
101352.57
101353.35
101354.1
101354.8
101355.47
101356.08
101356.65
101357.18
101357.66
101358.1
101358.51
101358.87
101359.21
101359.47
101359.73
101359.87
101360.03
101446.4
101421.21
101384.78
101343.74
101305.04
101269.95
101238.11
101209.26
101183.3
101160.07
101139.43
101121.19
101105.18
101091.24
101079.24
101069.07
101060.67
101053.98
101048.97
101045.59
101043.81
101043.54
101044.7
101047.17
101050.84
101055.6
101061.32
101067.88
101075.19
101083.14
101091.62
101100.55
101109.81
101119.32
101128.97
101138.69
101148.48
101158
101165.4
101174.52
101185.08
101193.65
101201.25
101208.36
101214.8
101220.55
101225.62
101230.14
101234.22
101237.91
101241.28
101244.46
101247.5
101250.48
101253.4
101256.27
101259.09
101261.87
101264.59
101267.27
101269.9
101272.46
101274.97
101277.42
101279.82
101282.15
101284.44
101286.69
101288.9
101291.08
101293.24
101295.38
101297.5
101299.61
101301.69
101303.74
101305.77
101307.76
101309.71
101311.62
101313.49
101315.33
101317.13
101318.9
101320.64
101322.35
101324.02
101325.67
101327.26
101328.82
101330.33
101331.79
101333.2
101334.58
101335.92
101337.23
101338.51
101339.78
101341.01
101342.22
101343.41
101344.56
101345.68
101346.76
101347.81
101348.83
101349.8
101350.74
101351.63
101352.47
101353.28
101354.05
101354.77
101355.46
101356.11
101356.71
101357.27
101357.78
101358.25
101358.68
101359.08
101359.44
101359.77
101360.02
101360.28
101360.41
101360.57
101483.45
101456.54
101420.36
101381.1
101343.84
101309.56
101278.07
101249.24
101223.02
101199.32
101178.04
101159.05
101142.23
101127.45
101114.6
101103.6
101094.37
101086.84
101080.99
101076.75
101074.08
101072.9
101073.12
101074.65
101077.39
101081.22
101086.03
101091.72
101098.18
101105.31
101112.99
101121.14
101129.66
101138.44
101147.39
101156.44
101165.62
101174.03
101180.69
101189.86
101199.54
101207.22
101214.14
101220.54
101226.27
101231.31
101235.73
101239.64
101243.16
101246.33
101249.24
101252.02
101254.7
101257.34
101259.96
101262.53
101265.07
101267.59
101270.06
101272.5
101274.91
101277.25
101279.55
101281.81
101284.02
101286.17
101288.29
101290.38
101292.43
101294.46
101296.48
101298.48
101300.48
101302.46
101304.42
101306.36
101308.28
101310.17
101312.02
101313.84
101315.62
101317.37
101319.09
101320.78
101322.45
101324.09
101325.7
101327.27
101328.81
101330.3
101331.76
101333.16
101334.52
101335.85
101337.14
101338.41
101339.65
101340.87
101342.07
101343.25
101344.4
101345.51
101346.6
101347.66
101348.68
101349.67
101350.62
101351.53
101352.39
101353.22
101354
101354.75
101355.46
101356.13
101356.76
101357.35
101357.89
101358.39
101358.85
101359.27
101359.67
101360.01
101360.33
101360.59
101360.84
101360.97
101361.13
101516.33
101487.81
101452
101414.55
101378.84
101345.59
101314.75
101286.26
101260.11
101236.27
101214.68
101195.24
101177.88
101162.49
101149
101137.32
101127.4
101119.16
101112.58
101107.58
101104.11
101102.11
101101.49
101102.16
101104.04
101107.01
101110.97
101115.83
101121.47
101127.8
101134.71
101142.11
101149.88
101157.94
101166.17
101174.56
101183.14
101190.09
101196.38
101205.63
101214.2
101220.99
101227.21
101232.86
101237.85
101242.17
101245.93
101249.23
101252.19
101254.83
101257.3
101259.68
101261.99
101264.31
101266.61
101268.89
101271.16
101273.41
101275.62
101277.82
101280
101282.12
101284.22
101286.27
101288.29
101290.26
101292.21
101294.13
101296.02
101297.9
101299.78
101301.64
101303.5
101305.36
101307.2
101309.03
101310.84
101312.62
101314.38
101316.1
101317.79
101319.46
101321.09
101322.7
101324.3
101325.86
101327.4
101328.91
101330.38
101331.82
101333.21
101334.56
101335.87
101337.15
101338.39
101339.61
101340.81
101341.99
101343.15
101344.29
101345.4
101346.49
101347.54
101348.57
101349.56
101350.52
101351.45
101352.33
101353.17
101353.98
101354.74
101355.47
101356.16
101356.81
101357.43
101358
101358.53
101359.01
101359.46
101359.88
101360.26
101360.6
101360.91
101361.16
101361.4
101361.54
101361.69
101545.07
101515.65
101480.55
101444.84
101410.64
101378.54
101348.52
101320.6
101294.78
101271.07
101249.42
101229.8
101212.12
101196.35
101182.39
101170.21
101159.73
101150.91
101143.7
101138.04
101133.88
101131.15
101129.77
101129.67
101130.76
101132.94
101136.11
101140.18
101145.05
101150.61
101156.76
101163.41
101170.45
101177.78
101185.29
101192.99
101200.76
101206.48
101212.74
101221.56
101228.98
101234.94
101240.41
101245.29
101249.51
101253.1
101256.2
101258.89
101261.28
101263.42
101265.45
101267.45
101269.39
101271.38
101273.37
101275.35
101277.33
101279.31
101281.27
101283.22
101285.17
101287.06
101288.95
101290.81
101292.63
101294.42
101296.19
101297.95
101299.67
101301.4
101303.14
101304.85
101306.58
101308.31
101310.03
101311.75
101313.45
101315.12
101316.78
101318.41
101320
101321.58
101323.13
101324.66
101326.18
101327.66
101329.13
101330.58
101331.98
101333.36
101334.69
101335.98
101337.24
101338.47
101339.66
101340.84
101342
101343.14
101344.26
101345.36
101346.43
101347.48
101348.5
101349.5
101350.46
101351.39
101352.29
101353.15
101353.97
101354.75
101355.49
101356.2
101356.87
101357.51
101358.1
101358.66
101359.17
101359.65
101360.09
101360.49
101360.86
101361.19
101361.5
101361.74
101361.98
101362.11
101362.27
101569.83
101540.25
101506.55
101472.48
101439.71
101408.78
101379.72
101352.54
101327.25
101303.87
101282.4
101262.79
101245.02
101229.04
101214.8
101202.26
101191.37
101182.08
101174.36
101168.14
101163.38
101160.01
101157.96
101157.16
101157.53
101158.98
101161.41
101164.74
101168.87
101173.7
101179.12
101185.04
101191.35
101197.95
101204.74
101211.73
101218.55
101223.25
101229.5
101237.59
101243.89
101249.05
101253.73
101257.8
101261.23
101264.1
101266.52
101268.6
101270.44
101272.09
101273.69
101275.31
101276.88
101278.54
101280.22
101281.9
101283.59
101285.31
101287
101288.7
101290.42
101292.09
101293.76
101295.42
101297.05
101298.65
101300.23
101301.82
101303.38
101304.96
101306.55
101308.12
101309.72
101311.32
101312.91
101314.51
101316.1
101317.66
101319.22
101320.75
101322.25
101323.74
101325.2
101326.65
101328.09
101329.5
101330.9
101332.27
101333.61
101334.93
101336.2
101337.44
101338.64
101339.81
101340.96
101342.09
101343.2
101344.3
101345.38
101346.44
101347.48
101348.49
101349.48
101350.44
101351.38
101352.28
101353.15
101353.98
101354.78
101355.54
101356.26
101356.94
101357.6
101358.21
101358.79
101359.33
101359.83
101360.3
101360.72
101361.11
101361.48
101361.8
101362.1
101362.34
101362.57
101362.7
101362.85
101591.07
101562.05
101529.95
101497.56
101466.27
101436.62
101408.63
101382.33
101357.73
101334.86
101313.73
101294.33
101276.63
101260.61
101246.24
101233.49
101222.31
101212.68
101204.55
101197.87
101192.6
101188.68
101186.04
101184.62
101184.34
101185.12
101186.87
101189.5
101192.92
101197.04
101201.75
101206.95
101212.54
101218.41
101224.5
101230.83
101236.43
101240.25
101246.6
101253.73
101258.91
101263.26
101267.11
101270.34
101272.98
101275.12
101276.88
101278.34
101279.66
101280.83
101282.02
101283.26
101284.46
101285.79
101287.17
101288.54
101289.95
101291.39
101292.81
101294.26
101295.75
101297.19
101298.65
101300.1
101301.53
101302.94
101304.34
101305.77
101307.16
101308.58
101310.02
101311.44
101312.9
101314.38
101315.84
101317.32
101318.8
101320.25
101321.7
101323.13
101324.54
101325.94
101327.32
101328.68
101330.04
101331.37
101332.7
101334
101335.27
101336.52
101337.74
101338.92
101340.06
101341.19
101342.28
101343.36
101344.43
101345.48
101346.52
101347.54
101348.54
101349.52
101350.48
101351.41
101352.31
101353.19
101354.03
101354.83
101355.6
101356.34
101357.04
101357.7
101358.34
101358.94
101359.5
101360.02
101360.51
101360.96
101361.37
101361.75
101362.1
101362.42
101362.71
101362.94
101363.17
101363.3
101363.45
101609.42
101581.38
101550.99
101520.35
101490.62
101462.33
101435.52
101410.21
101386.43
101364.21
101343.58
101324.53
101307.05
101291.14
101276.77
101263.93
101252.59
101242.72
101234.28
101227.24
101221.55
101217.16
101214.01
101212.03
101211.17
101211.33
101212.45
101214.43
101217.19
101220.62
101224.63
101229.13
101234
101239.14
101244.54
101250.21
101254.21
101257.59
101264.06
101269.93
101274.03
101277.53
101280.5
101282.89
101284.74
101286.16
101287.24
101288.11
101288.93
101289.65
101290.42
101291.31
101292.11
101293.12
101294.2
101295.26
101296.38
101297.55
101298.7
101299.9
101301.16
101302.36
101303.6
101304.85
101306.08
101307.29
101308.52
101309.77
101310.99
101312.25
101313.54
101314.82
101316.14
101317.48
101318.82
101320.18
101321.54
101322.88
101324.23
101325.56
101326.87
101328.18
101329.47
101330.74
101332.02
101333.28
101334.53
101335.76
101336.97
101338.15
101339.3
101340.42
101341.51
101342.58
101343.63
101344.66
101345.68
101346.69
101347.68
101348.67
101349.63
101350.57
101351.5
101352.39
101353.26
101354.11
101354.92
101355.7
101356.44
101357.15
101357.83
101358.48
101359.09
101359.67
101360.21
101360.72
101361.19
101361.63
101362.03
101362.4
101362.74
101363.04
101363.33
101363.56
101363.78
101363.91
101364.05
101625.45
101598.71
101570.06
101541.2
101513.08
101486.21
101460.65
101436.42
101413.56
101392.11
101372.09
101353.51
101336.38
101320.7
101306.45
101293.64
101282.24
101272.23
101263.58
101256.26
101250.23
101245.45
101241.86
101239.4
101238.01
101237.62
101238.14
101239.51
101241.63
101244.4
101247.74
101251.54
101255.69
101260.1
101264.75
101269.53
101272.23
101275.59
101281.54
101286.07
101289.18
101291.81
101293.88
101295.41
101296.48
101297.18
101297.6
101297.9
101298.27
101298.52
101298.9
101299.44
101299.83
101300.53
101301.33
101302.07
101302.9
101303.79
101304.66
101305.61
101306.65
101307.6
101308.62
101309.67
101310.7
101311.71
101312.75
101313.83
101314.88
101315.99
101317.12
101318.25
101319.43
101320.64
101321.85
101323.09
101324.33
101325.56
101326.8
101328.03
101329.24
101330.45
101331.65
101332.84
101334.04
101335.22
101336.39
101337.55
101338.69
101339.81
101340.9
101341.95
101342.99
101344
101345
101345.98
101346.95
101347.92
101348.87
101349.81
101350.74
101351.64
101352.53
101353.39
101354.23
101355.04
101355.83
101356.58
101357.3
101357.98
101358.64
101359.26
101359.86
101360.42
101360.94
101361.43
101361.89
101362.31
101362.7
101363.06
101363.39
101363.69
101363.97
101364.19
101364.41
101364.53
101364.67
101639.78
101614.43
101587.52
101560.43
101533.94
101508.53
101484.27
101461.2
101439.34
101418.73
101399.42
101381.41
101364.73
101349.38
101335.36
101322.67
101311.3
101301.24
101292.47
101284.95
101278.67
101273.56
101269.59
101266.71
101264.85
101263.95
101263.93
101264.72
101266.23
101268.37
101271.05
101274.15
101277.59
101281.25
101285.14
101288.88
101290.55
101293.87
101298.92
101302.15
101304.33
101306.03
101307.19
101307.87
101308.19
101308.18
101307.95
101307.7
101307.67
101307.45
101307.45
101307.65
101307.59
101308.01
101308.54
101308.96
101309.49
101310.12
101310.69
101311.39
101312.21
101312.91
101313.71
101314.56
101315.39
101316.2
101317.05
101317.96
101318.83
101319.77
101320.76
101321.73
101322.78
101323.86
101324.92
101326.04
101327.17
101328.28
101329.41
101330.54
101331.65
101332.77
101333.88
101334.98
101336.09
101337.19
101338.29
101339.38
101340.44
101341.49
101342.52
101343.52
101344.49
101345.45
101346.39
101347.32
101348.25
101349.17
101350.08
101350.98
101351.86
101352.73
101353.58
101354.41
101355.22
101356
101356.75
101357.48
101358.17
101358.83
101359.46
101360.06
101360.64
101361.18
101361.69
101362.16
101362.6
101363.01
101363.38
101363.73
101364.05
101364.34
101364.61
101364.83
101365.04
101365.16
101365.3
101652.76
101628.88
101603.69
101578.34
101553.49
101529.56
101506.65
101484.77
101463.96
101444.27
101425.73
101408.38
101392.22
101377.28
101363.57
101351.09
101339.84
101329.8
101320.98
101313.34
101306.86
101301.5
101297.22
101293.97
101291.69
101290.32
101289.8
101290.04
101290.97
101292.49
101294.51
101296.93
101299.65
101302.58
101305.71
101308.13
101308.99
101312.33
101316.19
101318.16
101319.4
101320.15
101320.39
101320.25
101319.82
101319.13
101318.23
101317.48
101317.11
101316.42
101316.1
101315.9
101315.44
101315.6
101315.83
101315.92
101316.16
101316.51
101316.78
101317.23
101317.84
101318.28
101318.86
101319.52
101320.15
101320.74
101321.41
101322.15
101322.83
101323.62
101324.45
101325.27
101326.17
101327.12
101328.05
101329.04
101330.06
101331.05
101332.07
101333.1
101334.1
101335.12
101336.14
101337.16
101338.18
101339.2
101340.22
101341.23
101342.22
101343.21
101344.17
101345.1
101346.02
101346.92
101347.81
101348.69
101349.57
101350.44
101351.31
101352.17
101353.01
101353.84
101354.65
101355.45
101356.22
101356.97
101357.7
101358.39
101359.06
101359.69
101360.3
101360.88
101361.43
101361.95
101362.44
101362.9
101363.32
101363.71
101364.08
101364.41
101364.72
101365
101365.27
101365.48
101365.69
101365.8
101365.94
101664.73
101642.36
101618.85
101595.23
101572.01
101549.58
101528.02
101507.36
101487.64
101468.9
101451.19
101434.54
101418.97
101404.51
101391.17
101378.97
101367.9
101357.96
101349.15
101341.46
101334.84
101329.28
101324.74
101321.16
101318.51
101316.72
101315.72
101315.45
101315.81
101316.73
101318.1
101319.83
101321.82
101324.04
101326.38
101327.04
101327.65
101330.95
101333.25
101334.04
101334.31
101334.11
101333.43
101332.5
101331.36
101329.94
101328.44
101327.32
101326.53
101325.57
101324.81
101324.14
101323.51
101323.26
101323.09
101322.92
101322.88
101322.96
101322.94
101323.17
101323.54
101323.7
101324.07
101324.55
101324.97
101325.34
101325.82
101326.39
101326.89
101327.52
101328.2
101328.86
101329.62
101330.43
101331.22
101332.09
101332.99
101333.86
101334.77
101335.69
101336.6
101337.52
101338.44
101339.37
101340.31
101341.24
101342.18
101343.12
101344.04
101344.95
101345.85
101346.72
101347.58
101348.42
101349.26
101350.08
101350.91
101351.74
101352.56
101353.37
101354.18
101354.97
101355.75
101356.5
101357.24
101357.96
101358.66
101359.32
101359.96
101360.57
101361.16
101361.71
101362.24
101362.74
101363.21
101363.65
101364.06
101364.44
101364.79
101365.11
101365.41
101365.68
101365.94
101366.14
101366.34
101366.46
101366.6
101675.87
101655.04
101633.25
101611.36
101589.77
101568.83
101548.63
101529.2
101510.58
101492.82
101475.97
101460.05
101445.11
101431.18
101418.26
101406.38
101395.55
101385.77
101377.03
101369.33
101362.63
101356.92
101352.16
101348.31
101345.31
101343.13
101341.68
101340.9
101340.72
101341.04
101341.76
101342.8
101344.05
101345.48
101346.74
101346.08
101346.75
101349.21
101350
101349.72
101349.02
101347.86
101346.28
101344.56
101342.69
101340.49
101338.82
101337.44
101336.02
101334.66
101333.5
101332.47
101331.57
101330.93
101330.42
101329.98
101329.65
101329.43
101329.21
101329.21
101329.25
101329.18
101329.36
101329.64
101329.85
101329.99
101330.29
101330.7
101331
101331.47
101332.01
101332.5
101333.11
101333.8
101334.44
101335.19
101335.97
101336.71
101337.51
101338.33
101339.13
101339.95
101340.78
101341.61
101342.47
101343.31
101344.17
101345.04
101345.88
101346.73
101347.56
101348.37
101349.16
101349.95
101350.73
101351.5
101352.28
101353.06
101353.83
101354.61
101355.37
101356.12
101356.86
101357.58
101358.28
101358.97
101359.63
101360.27
101360.88
101361.47
101362.03
101362.56
101363.07
101363.55
101364
101364.42
101364.81
101365.17
101365.51
101365.82
101366.11
101366.37
101366.62
101366.82
101367.01
101367.12
101367.26
101686.77
101667.36
101647.23
101627.06
101607.07
101587.6
101568.74
101550.51
101532.98
101516.2
101500.21
101485.05
101470.77
101457.39
101444.93
101433.42
101422.87
101413.28
101404.65
101396.98
101390.25
101384.43
101379.48
101375.38
101372.08
101369.52
101367.64
101366.38
101365.65
101365.37
101365.44
101365.77
101366.3
101366.9
101366.74
101365.18
101365.87
101367.05
101366.43
101365.13
101363.47
101361.36
101358.82
101356.33
101353.73
101351.35
101349.42
101347.37
101345.48
101343.76
101342.22
101340.86
101339.65
101338.66
101337.82
101337.09
101336.48
101335.97
101335.53
101335.25
101335.01
101334.79
101334.73
101334.75
101334.76
101334.69
101334.83
101335.05
101335.15
101335.48
101335.87
101336.18
101336.66
101337.21
101337.71
101338.33
101338.99
101339.61
101340.3
101341.01
101341.71
101342.43
101343.16
101343.9
101344.67
101345.42
101346.2
101346.99
101347.76
101348.53
101349.3
101350.04
101350.77
101351.5
101352.22
101352.94
101353.67
101354.4
101355.13
101355.86
101356.58
101357.29
101357.99
101358.67
101359.34
101360
101360.63
101361.24
101361.82
101362.38
101362.91
101363.42
101363.91
101364.36
101364.8
101365.2
101365.57
101365.92
101366.24
101366.54
101366.82
101367.07
101367.31
101367.5
101367.7
101367.8
101367.94
101697.82
101679.58
101661.05
101642.58
101624.19
101606.15
101588.58
101571.52
101555.05
101539.22
101524.09
101509.68
101496.06
101483.25
101471.27
101460.15
101449.9
101440.54
101432.06
101424.46
101417.72
101411.81
101406.72
101402.39
101398.8
101395.88
101393.58
101391.83
101390.55
101389.65
101389.06
101388.68
101388.52
101388.2
101386.09
101384.33
101384.91
101384.38
101382.48
101380.18
101377.56
101374.44
101370.96
101367.85
101365.08
101362.4
101359.74
101357.24
101354.96
101352.87
101350.98
101349.27
101347.75
101346.43
101345.27
101344.24
101343.35
101342.57
101341.89
101341.34
101340.86
101340.44
101340.13
101339.91
101339.7
101339.49
101339.44
101339.43
101339.37
101339.55
101339.78
101339.91
101340.25
101340.68
101341.03
101341.52
101342.06
101342.55
101343.12
101343.73
101344.33
101344.94
101345.57
101346.22
101346.9
101347.57
101348.27
101348.98
101349.67
101350.37
101351.07
101351.74
101352.41
101353.08
101353.75
101354.41
101355.09
101355.77
101356.45
101357.13
101357.81
101358.48
101359.14
101359.79
101360.42
101361.04
101361.64
101362.22
101362.77
101363.3
101363.81
101364.3
101364.76
101365.2
101365.61
101365.99
101366.35
101366.68
101366.99
101367.27
101367.54
101367.79
101368.02
101368.2
101368.39
101368.49
101368.63
101708.94
101692.51
101675.24
101658.36
101641.48
101624.79
101608.41
101592.45
101576.98
101562.06
101547.74
101534.07
101521.1
101508.85
101497.36
101486.65
101476.72
101467.61
101459.29
101451.78
101445.05
101439.08
101433.85
101429.31
101425.43
101422.16
101419.43
101417.18
101415.34
101413.82
101412.53
101411.44
101410.52
101408.87
101405.29
101403.71
101403.29
101401.12
101398.05
101394.74
101391.11
101386.85
101383.11
101379.77
101376.38
101373.08
101369.97
101367.09
101364.43
101361.98
101359.74
101357.7
101355.86
101354.22
101352.76
101351.44
101350.27
101349.23
101348.3
101347.48
101346.77
101346.12
101345.58
101345.13
101344.71
101344.33
101344.07
101343.86
101343.68
101343.67
101343.7
101343.7
101343.91
101344.19
101344.38
101344.76
101345.18
101345.54
101345.99
101346.5
101346.99
101347.49
101348.02
101348.58
101349.17
101349.75
101350.36
101351
101351.61
101352.24
101352.87
101353.47
101354.08
101354.69
101355.3
101355.91
101356.53
101357.16
101357.79
101358.43
101359.06
101359.69
101360.32
101360.92
101361.52
101362.11
101362.67
101363.22
101363.74
101364.25
101364.73
101365.19
101365.63
101366.05
101366.44
101366.8
101367.14
101367.46
101367.75
101368.02
101368.28
101368.51
101368.74
101368.92
101369.1
101369.2
101369.33
101720.14
101707.82
101691.76
101675.61
101659.62
101643.92
101628.54
101613.52
101598.93
101584.84
101571.29
101558.32
101545.97
101534.28
101523.27
101512.97
101503.38
101494.51
101486.37
101478.96
101472.25
101466.23
101460.86
101456.12
101451.95
101448.32
101445.15
101442.38
101439.94
101437.75
101435.73
101433.9
101432.21
101428.73
101424.38
101422.89
101420.91
101417.2
101412.96
101408.64
101403.97
101399.44
101395.47
101391.34
101387.39
101383.66
101380.16
101376.9
101373.88
101371.08
101368.5
101366.14
101363.99
101362.04
101360.27
101358.67
101357.23
101355.92
101354.74
101353.67
101352.72
101351.85
101351.08
101350.4
101349.78
101349.22
101348.75
101348.35
101348.02
101347.82
101347.67
101347.56
101347.61
101347.71
101347.79
101348.05
101348.33
101348.56
101348.9
101349.3
101349.69
101350.08
101350.51
101350.97
101351.48
101351.96
101352.49
101353.05
101353.58
101354.14
101354.7
101355.23
101355.77
101356.33
101356.87
101357.42
101358
101358.57
101359.16
101359.75
101360.34
101360.93
101361.51
101362.08
101362.64
101363.19
101363.72
101364.24
101364.73
101365.21
101365.67
101366.1
101366.52
101366.91
101367.28
101367.63
101367.95
101368.25
101368.52
101368.78
101369.03
101369.25
101369.47
101369.64
101369.82
101369.91
101370.04
101732.6
101723.43
101710.2
101694.09
101678.51
101663.54
101648.97
101634.77
101620.98
101607.65
101594.81
101582.51
101570.76
101559.61
101549.07
101539.16
101529.9
101521.28
101513.32
101506
101499.32
101493.23
101487.73
101482.76
101478.3
101474.28
101470.64
101467.31
101464.23
101461.31
101458.48
101455.76
101453.03
101448.28
101443.67
101441.24
101437.43
101432.42
101427.05
101421.91
101417
101412.1
101407.29
101402.66
101398.29
101394.17
101390.3
101386.68
101383.3
101380.16
101377.26
101374.58
101372.12
101369.87
101367.81
101365.93
101364.21
101362.64
101361.21
101359.9
101358.71
101357.61
101356.62
101355.72
101354.89
101354.14
101353.48
101352.9
101352.4
101352.01
101351.71
101351.46
101351.34
101351.29
101351.27
101351.38
101351.51
101351.64
101351.85
101352.14
101352.43
101352.71
101353.03
101353.41
101353.82
101354.21
101354.66
101355.13
101355.58
101356.06
101356.56
101357.02
101357.5
101357.99
101358.47
101358.97
101359.49
101360.01
101360.55
101361.09
101361.64
101362.18
101362.72
101363.25
101363.78
101364.29
101364.79
101365.28
101365.74
101366.19
101366.62
101367.02
101367.42
101367.79
101368.14
101368.46
101368.77
101369.05
101369.31
101369.56
101369.8
101370.01
101370.21
101370.38
101370.55
101370.64
101370.77
101746.72
101739.54
101726.69
101711.67
101697.26
101683.26
101669.55
101656.16
101643.14
101630.53
101618.37
101606.69
101595.52
101584.88
101574.79
101565.26
101556.31
101547.93
101540.13
101532.9
101526.22
101520.06
101514.39
101509.19
101504.39
101499.94
101495.79
101491.87