/*--------------------------------*- C++ -*----------------------------------*\
| =========                 |                                                 |
| \\      /  F ield         | OpenFOAM: The Open Source CFD Toolbox           |
|  \\    /   O peration     | Version:  2406                                  |
|   \\  /    A nd           | Website:  www.openfoam.com                      |
|    \\/     M anipulation  |                                                 |
\*---------------------------------------------------------------------------*/
FoamFile
{
    version     2.0;
    format      ascii;
    arch        "LSB;label=32;scalar=64";
    class       surfaceScalarField;
    location    "0.026";
    object      phi;
}
// * * * * * * * * * * * * * * * * * * * * * * * * * * * * * * * * * * * * * //

dimensions      [1 0 -1 0 0 0 0];

oriented        oriented;

internalField   nonuniform List<scalar> 
184887
(
0.0082341903
-0.0092486322
0.0094728145
-0.0084580639
0.0080358189
-0.0096422612
0.0098408963
0.007845142
-0.010025521
0.010216386
0.0076584797
-0.01040696
0.010593741
0.007474757
-0.010787532
0.010971286
0.0072954201
-0.011167705
0.011347005
0.0071217249
-0.011548345
0.011721955
0.0069546463
-0.011930265
0.012097223
0.0067947803
-0.012314416
0.012474145
0.0066423615
-0.012701875
0.012854159
0.006497358
-0.013093763
0.013238646
0.0063595264
-0.013491202
0.013628932
0.0062283818
-0.013895289
0.014026352
0.0061033563
-0.014307011
0.014431965
0.005983788
-0.014726853
0.014846358
0.005869201
-0.015155059
0.015269588
0.0057591795
-0.015591624
0.015701592
0.0056534813
-0.016036188
0.016141838
0.0055519711
-0.016488072
0.016589542
0.0054546104
-0.016947054
0.017044384
0.0053612353
-0.017413062
0.017506417
0.0052716755
-0.017886195
0.017975744
0.0051856718
-0.018366917
0.018452921
0.0051029186
-0.018855725
0.018938492
0.0050231006
-0.019352919
0.019432764
0.0049459038
-0.019858675
0.019935914
0.0048710144
-0.020373072
0.020448016
0.0047981205
-0.020896107
0.020969068
0.0047269073
-0.02142769
0.021498981
0.0046570571
-0.021967645
0.022037581
0.0045882458
-0.022515703
0.022584605
0.0045201394
-0.023071492
0.023139691
0.004452392
-0.023634528
0.023702367
0.0043846392
-0.024204203
0.024272043
0.0043164928
-0.024779768
0.024847995
0.0042475489
-0.025360312
0.025429327
0.0041774081
-0.025944745
0.026014945
0.0041054226
-0.026532236
0.026604268
0.0040310317
-0.027120427
0.02719485
0.0039541661
-0.027706406
0.027783288
0.0038740583
-0.028290437
0.028370547
0.0037897006
-0.028870972
0.028955318
0.0037003762
-0.029443192
0.029532491
0.0036055801
-0.030005068
0.030099828
0.0035048089
-0.030554104
0.030654831
0.0033978769
-0.031088351
0.031195234
0.0032852754
-0.03160736
0.031719912
0.0031687213
-0.032113785
0.032230293
0.0030517704
-0.032615634
0.032732545
0.0029396284
-0.03312739
0.033239504
0.0028371763
-0.033666385
0.033768822
0.0027462865
-0.034243992
0.034334881
0.0026654596
-0.034860425
0.034941267
0.0025918691
-0.035509005
0.035582625
0.0025230687
-0.036182276
0.036251118
0.0024574708
-0.036874937
0.036940585
0.0023942046
-0.037584149
0.037647472
0.0023328426
-0.038308687
0.038370108
0.0022731454
-0.039048084
0.039107838
0.0022149946
-0.039802466
0.039860668
0.0021583312
-0.040572133
0.04062884
0.0021030596
-0.041357041
0.041412345
0.0020491206
-0.042157585
0.042211544
0.0019964824
-0.042974181
0.043026826
0.0019450924
-0.043806998
0.043858383
0.0018948855
-0.044656132
0.044706323
0.0018458249
-0.045522044
0.045571082
0.001797897
-0.046405256
0.046453159
0.0017510371
-0.047305738
0.047352573
0.0017052276
-0.048224127
0.048269917
0.0016604518
-0.049160814
0.049205577
0.0016166499
-0.050115745
0.050159543
0.0015738077
-0.05108969
0.051132539
0.0015319078
-0.052083086
0.052125001
0.0014908915
-0.053095881
0.053136918
0.0014507391
-0.054128919
0.054169095
0.0014114304
-0.055182633
0.055221964
0.0013729102
-0.056257007
0.056295545
0.0013351648
-0.057352966
0.057390723
0.0012981681
-0.058470883
0.058507884
0.0012618766
-0.059610791
0.059647082
0.0012262798
-0.060773655
0.060809248
0.0011913462
-0.061959707
0.061994635
0.0011570567
-0.063169245
0.063203529
0.0011233903
-0.064402955
0.064436617
0.0010903035
-0.065661169
0.06569425
0.0010577971
-0.066944712
0.066977209
0.0010258438
-0.068253895
0.068285832
0.00099440689
-0.069589019
0.069620429
0.00096348167
-0.070951068
0.070981953
0.00093305554
-0.072340656
0.072371026
0.00090310765
-0.073757994
0.073787872
0.00087361792
-0.075203819
0.075233227
0.0008445757
-0.076678906
0.076707859
0.00081597214
-0.078183539
0.078212049
0.00078777507
-0.079718254
0.079746356
0.00075997103
-0.081284052
0.081311763
0.00073254054
-0.082881488
0.082908826
0.00070546337
-0.084510865
0.084537851
0.00067871894
-0.08617318
0.086199833
0.00065225984
-0.087869095
0.087895461
0.00062608705
-0.089599103
0.089625182
0.0006001851
-0.091364071
0.091389877
0.00057451041
-0.093164486
0.093190064
0.00054906242
-0.095001223
0.095026571
0.00052382339
-0.096875146
0.096900281
0.00049876105
-0.098786952
0.098811904
0.00047386874
-0.10073752
0.10076229
0.0004491317
-0.10272736
0.10275197
0.00042451719
-0.1047575
0.10478198
0.00040001873
-0.106829
0.10685335
0.00037561335
-0.10894211
0.10896637
0.00035126437
-0.11109821
0.1111224
0.00032695084
-0.11329828
0.11332243
0.00030264188
-0.11554302
0.11556715
0.00027831495
-0.11783339
0.11785752
0.00025393425
-0.12017038
0.12019456
0.00022946975
-0.12255521
0.12257946
0.00020489984
-0.12498848
0.12501283
0.00018019537
-0.12747151
0.127496
0.00015531042
-0.13000515
0.13002982
0.00013022317
-0.13259092
0.13261579
0.00010488333
-0.13522913
0.13525425
7.92534e-05
-0.13792218
0.13794759
5.3270669e-05
-0.1406696
0.14069537
2.6878722e-05
-0.14347544
0.14350161
-0.14633813
0.14636478
0.0082537339
-0.00906792
-0.0084344797
0.0080711309
-0.009459679
0.0078923176
-0.0098467441
0.0077163833
-0.010231076
0.0075436725
-0.010614894
0.0073751846
-0.010999315
0.0072117138
-0.011384991
0.007053902
-0.011772574
0.0069021948
-0.012162824
0.0067568099
-0.012556593
0.0066177535
-0.012954794
0.0064848468
-0.01335837
0.0063577263
-0.013768236
0.0062358585
-0.014185206
0.0061187153
-0.01460977
0.00600584
-0.015042244
0.0058968319
-0.015482676
0.0057914029
-0.015930817
0.0056895336
-0.016386255
0.0055912408
-0.016848804
0.0054965519
-0.017318405
0.0054054179
-0.017795079
0.005317685
-0.018279187
0.0052330739
-0.018771101
0.0051512826
-0.019271099
0.0050720044
-0.019779353
0.0049949342
-0.020295944
0.0049197632
-0.020820866
0.0048461793
-0.021354026
0.0047738665
-0.021895244
0.0047024979
-0.022444242
0.0046317341
-0.023000633
0.0045612221
-0.023563923
0.0044905876
-0.024133479
0.0044194323
-0.024708531
0.004347334
-0.025288142
0.0042738629
-0.025871213
0.0041983658
-0.026456692
0.0041200495
-0.027042079
0.004038984
-0.027625324
0.003954773
-0.028206225
0.0038658444
-0.028782057
0.0037716056
-0.029348981
0.0036715672
-0.029905068
0.0035653036
-0.030447887
0.003452797
-0.030975896
0.0033348825
-0.031489499
0.0032139031
-0.031992855
0.0030942214
-0.032495993
0.0029814981
-0.033014698
0.002880052
-0.033564956
0.0027904983
-0.03415444
0.0027104355
-0.034780348
0.0026368664
-0.035435407
0.0025675428
-0.036112911
0.002501119
-0.036808462
0.0024368926
-0.037519865
0.0023745213
-0.038246256
0.0023138099
-0.038987314
0.0022546596
-0.039743262
0.0021970177
-0.040514447
0.0021407865
-0.041300777
0.0020859094
-0.042102688
0.0020323559
-0.04292062
0.0019800695
-0.043754717
0.0019289817
-0.04460506
0.0018790617
-0.045472147
0.0018302914
-0.046356513
0.0017826063
-0.047258078
0.0017359904
-0.048177533
0.0016904256
-0.049115263
0.0016458507
-0.050071174
0.0016022535
-0.051046087
0.0015596148
-0.052040433
0.0015178734
-0.053054119
0.0014770138
-0.054088036
0.001437011
-0.055142609
0.0013978098
-0.056217789
0.0013593962
-0.057314542
0.0013217428
-0.058433225
0.0012848071
-0.059573857
0.0012485749
-0.060737428
0.001213015
-0.061924154
0.001178111
-0.063134348
0.0011438412
-0.064368691
0.0011101594
-0.065627494
0.0010770672
-0.06691163
0.0010445359
-0.068221382
0.0010125348
-0.069557046
0.00098105259
-0.070919628
0.00095007885
-0.072309739
0.00091959267
-0.073727579
0.00088957313
-0.075173882
0.00086000744
-0.076649432
0.00083088896
-0.078154516
0.00080218306
-0.079689645
0.00077387858
-0.081255844
0.00074594969
-0.082853654
0.00071837944
-0.084483389
0.00069115005
-0.086146045
0.00066420886
-0.087842249
0.00063755767
-0.089572549
0.00061118284
-0.091337794
0.00058503813
-0.093138441
0.00055912445
-0.094975412
0.00053342349
-0.096849552
0.00050790206
-0.098761545
0.00048255325
-0.10071229
0.0004573616
-0.1027023
0.0004322961
-0.10473258
0.0004073478
-0.1068042
0.00038249384
-0.10891741
0.00035769991
-0.11107358
0.0003329394
-0.11327369
0.0003081847
-0.11551845
0.00028341016
-0.1178088
0.00025858233
-0.12014575
0.00023367013
-0.12253051
0.00020865019
-0.12496368
0.00018348744
-0.12744657
0.00015815503
-0.12998004
0.00013260333
-0.13256559
0.00010679776
-0.13520355
8.0695284e-05
-0.1378963
5.4234802e-05
-0.14064337
2.7366022e-05
-0.1434488
-0.146311
0.0082381538
-0.0089132294
-0.0083929552
0.0080775719
-0.0092991801
0.007915691
-0.0096849434
0.0077546293
-0.010070103
0.0075956667
-0.010456032
0.0074397292
-0.01084349
0.0072875664
-0.011232943
0.0071397792
-0.011624897
0.0069968065
-0.012019951
0.0068589125
-0.012418785
0.0067261853
-0.012822141
0.0065985426
-0.013230793
0.0064757402
-0.013645495
0.0063573912
-0.014066915
0.0062430973
-0.014495534
0.0061324565
-0.014931663
0.0060251192
-0.0153754
0.0059208727
-0.015826632
0.0058196977
-0.016285137
0.0057216167
-0.016750771
0.0056266579
-0.017223482
0.0055348572
-0.017703298
0.0054461161
-0.018190448
0.0053602335
-0.018685204
0.0052769562
-0.019187791
0.0051960116
-0.019698362
0.005117114
-0.020216985
0.0050399691
-0.020743647
0.0049642761
-0.021278249
0.0048897205
-0.021820597
0.0048159758
-0.022370401
0.0047427036
-0.022927264
0.0046695425
-0.023490666
0.0045961078
-0.024059954
0.0045219881
-0.024634328
0.0044467343
-0.025212815
0.0043698732
-0.025794291
0.0042907735
-0.026377545
0.0042086469
-0.026959921
0.0041234121
-0.027540073
0.0040348101
-0.028117623
0.0039410708
-0.028688333
0.003841734
-0.029249673
0.0037362996
-0.029799675
0.0036244565
-0.030336094
0.0035064493
-0.030857944
0.0033836125
-0.031366717
0.0032590493
-0.031868344
0.0031378924
-0.032374881
0.0030258276
-0.032902666
0.0029260748
-0.033465221
0.0028379342
-0.034066302
0.0027584329
-0.034700834
0.0026846761
-0.035361622
0.0026147155
-0.036042909
0.0025474219
-0.036741116
0.0024822314
-0.037454616
0.0024188666
-0.03818283
0.0023571589
-0.038925547
0.0022970196
-0.039683068
0.0022384068
-0.040455788
0.0021812143
-0.04124355
0.0021253883
-0.042046841
0.0020709016
-0.042866126
0.0020176943
-0.043701515
0.0019656962
-0.044553078
0.0019148799
-0.045421354
0.0018652293
-0.046306889
0.0018166737
-0.04720955
0.0017692023
-0.048130084
0.0017227967
-0.049068872
0.0016773952
-0.050025777
0.0016329847
-0.051001671
0.0015895477
-0.051996982
0.0015470224
-0.053011574
0.0015053918
-0.054046383
0.0014646318
-0.055101828
0.0014246856
-0.056177826
0.0013855402
-0.057275386
0.0013471646
-0.058394846
0.0013095182
-0.059536213
0.0012725874
-0.060700503
0.001236338
-0.061887912
0.0012007575
-0.063098775
0.0011658232
-0.064333764
0.0011314888
-0.065593168
0.0010977503
-0.066877904
0.0010645841
-0.068188235
0.0010319565
-0.069524449
0.00099986456
-0.07088758
0.00096828986
-0.072278224
0.0009372142
-0.073696577
0.0009066119
-0.075143366
0.00087647465
-0.076619389
0.00084679156
-0.078124932
0.00081753131
-0.079660484
0.00078867962
-0.081227091
0.00076020743
-0.082825279
0.00073210262
-0.08445538
0.00070434647
-0.086118385
0.00067688368
-0.087814884
0.00064971827
-0.089545483
0.0006228334
-0.09131101
0.00059618223
-0.093111893
0.00056976766
-0.094949102
0.00054357133
-0.096823466
0.00051755725
-0.098735648
0.00049172038
-0.10068658
0.00046604295
-0.10267676
0.00044049897
-0.10470718
0.00041507021
-0.10677892
0.00038973982
-0.10889224
0.0003644722
-0.11104848
0.00033924033
-0.11324863
0.00031401321
-0.11549341
0.00028876738
-0.11778376
0.00026346991
-0.12012067
0.00023808383
-0.12250534
0.00021258985
-0.12493841
0.00018695753
-0.12742117
0.00016113723
-0.12995445
0.00013510555
-0.13253979
0.00010881241
-0.13517748
8.221633e-05
-0.13786993
5.5263784e-05
-0.14061664
2.7877593e-05
-0.14342164
-0.14628336
0.0082061625
-0.0087796438
-0.0083397797
0.0080663813
-0.0091594295
0.0079231762
-0.009541785
0.0077788002
-0.0099257955
0.0076348167
-0.010312136
0.0074923278
-0.010701099
0.0073521741
-0.011092891
0.0072150109
-0.011487831
0.0070813291
-0.011886357
0.0069514598
-0.012288993
0.0068255759
-0.012696325
0.0067036963
-0.013108974
0.0065856978
-0.013527554
0.0064713431
-0.013952618
0.0063603487
-0.014384599
0.0062524174
-0.014823793
0.0061472901
-0.015270336
0.0060448091
-0.015724214
0.005944939
-0.016185324
0.0058476993
-0.016653579
0.0057531257
-0.017128943
0.0056612556
-0.017611446
0.0055720381
-0.018101232
0.0054853358
-0.018598486
0.0054009541
-0.019103377
0.0053186609
-0.01961602
0.0052382012
-0.020136462
0.0051593014
-0.020664671
0.0050816724
-0.021200534
0.0050050094
-0.02174384
0.0049289931
-0.022294287
0.0048532789
-0.022851451
0.0047775016
-0.023414792
0.0047012704
-0.02398363
0.0046241532
-0.024557126
0.0045456805
-0.025134268
0.0044653229
-0.025713871
0.0043823696
-0.026294544
0.0042964745
-0.026873993
0.0042071819
-0.027450765
0.0041137537
-0.028024195
0.0040149478
-0.028589544
0.0039103044
-0.029145061
0.0037993103
-0.029688724
0.0036818244
-0.03021866
0.0035584549
-0.030734631
0.0034311552
-0.031239476
0.0033038727
-0.031741116
0.0031823123
-0.032253367
0.0030716804
-0.032792068
0.0029738015
-0.033367363
0.002886873
-0.033979377
0.0028076615
-0.034621609
0.0027335223
-0.035287454
0.0026628029
-0.035972147
0.0025945754
-0.036672836
0.0025283781
-0.037388359
0.0024639881
-0.038118377
0.002401253
-0.038862751
0.0023400977
-0.039621857
0.0022804839
-0.040396127
0.0022222977
-0.041185328
0.0021654941
-0.041990015
0.0021100435
-0.042810667
0.0020558852
-0.043647362
0.0020029492
-0.044500158
0.0019512077
-0.045369637
0.0019006491
-0.046256359
0.0018511977
-0.047160127
0.001802847
-0.048081757
0.0017555769
-0.049021618
0.0017093278
-0.049979534
0.001664086
-0.050956425
0.0016198328
-0.051952716
0.0015765057
-0.052968227
0.0015340891
-0.054003944
0.0014925566
-0.055060274
0.0014518523
-0.056137105
0.0014119602
-0.057235484
0.0013728531
-0.058355735
0.0013344867
-0.059497849
0.0012968465
-0.06066287
0.0012598989
-0.061850973
0.0012236332
-0.063062518
0.0011880267
-0.064298167
0.0011530307
-0.065558182
0.0011186394
-0.066843526
0.0010848318
-0.068154448
0.0010515754
-0.069491224
0.0010188666
-0.070854918
0.00098668575
-0.072246104
0.00095501377
-0.073664981
0.00092382769
-0.075112268
0.00089311178
-0.076588769
0.00086286122
-0.078094783
0.00083303969
-0.079630765
0.00080363635
-0.081197789
0.00077461878
-0.082796361
0.00074597429
-0.084426835
0.00071768614
-0.086090196
0.00068969801
-0.087786996
0.00066201357
-0.0895179
0.00063461221
-0.091283712
0.00060745121
-0.093084837
0.00058053324
-0.094922293
0.0005538352
-0.096796881
0.00052732646
-0.098709259
0.00050099501
-0.10066038
0.00047482699
-0.10265073
0.00044879875
-0.10468129
0.00042288533
-0.10675316
0.00039707473
-0.10886659
0.00037132782
-0.1110229
0.00034561703
-0.1132231
0.00031991423
-0.1154679
0.00029418999
-0.11775823
0.00026841564
-0.1200951
0.0002425534
-0.1224797
0.00021657865
-0.12491266
0.00019046378
-0.12739528
0.00016415672
-0.12992838
0.00013763374
-0.1325135
0.00011084765
-0.13515092
8.3758756e-05
-0.13784307
5.6290055e-05
-0.14058941
2.8393357e-05
-0.14339398
-0.14625521
0.0081640361
-0.0086651411
-0.0082784589
0.0080432864
-0.009038637
0.0079182201
-0.0094167191
0.0077907045
-0.0097983161
0.0076621568
-0.01018365
0.0075336572
-0.010572676
0.0074060697
-0.010965385
0.0072800902
-0.011361931
0.0071562619
-0.011762602
0.0070349829
-0.01216778
0.0069165091
-0.012577911
0.0068009592
-0.012993481
0.0066883262
-0.013414978
0.0065785026
-0.013842853
0.0064713223
-0.01427748
0.0063665974
-0.014719132
0.0062641607
-0.015167964
0.0061639068
-0.015624023
0.0060658078
-0.016087282
0.0059698838
-0.016557701
0.0058761722
-0.017035264
0.0057847051
-0.017519995
0.0056954595
-0.018011985
0.0056083457
-0.018511354
0.0055232159
-0.019018211
0.0054398791
-0.019532631
0.0053581122
-0.020054628
0.0052776669
-0.020584147
0.005198269
-0.021121047
0.0051196296
-0.021665105
0.0050414286
-0.022215986
0.0049633269
-0.022773248
0.0048849543
-0.02333632
0.0048059092
-0.023904491
0.0047257501
-0.02447688
0.0046439881
-0.025052429
0.004560067
-0.025629887
0.0044732511
-0.02620768
0.0043832191
-0.026783929
0.004289523
-0.027357053
0.0041911353
-0.027925809
0.0040870767
-0.028485503
0.0039769011
-0.029034918
0.0038601736
-0.029572042
0.0037370063
-0.030095547
0.0036084779
-0.030606163
0.0034772955
-0.031108354
0.003348247
-0.031612124
0.0032272823
-0.032132451
0.0031186396
-0.032683463
0.0030226637
-0.033271409
0.0029367319
-0.03389345
0.002857601
-0.034542466
0.0027829455
-0.03521277
0.0027114067
-0.035900566
0.0026422145
-0.03660359
0.0025749989
-0.037321082
0.0025095802
-0.038052895
0.0024458203
-0.038798928
0.0023836489
-0.039559628
0.0023230349
-0.040335465
0.0022638599
-0.041126117
0.0022060763
-0.041932209
0.0021496628
-0.042754245
0.0020945546
-0.043592259
0.0020406769
-0.044446297
0.0019880109
-0.045316996
0.0019365427
-0.04620492
0.0018861944
-0.047109808
0.0018369618
-0.048032549
0.0017888279
-0.048973501
0.001741726
-0.04993244
0.0016956491
-0.050910345
0.0016505773
-0.051907631
0.0016064437
-0.052924074
0.0015632366
-0.053960715
0.0015209289
-0.055017945
0.0014794591
-0.056095618
0.0014388164
-0.057194831
0.001398969
-0.058315885
0.0013598769
-0.05945876
0.0013215197
-0.06062452
0.0012838646
-0.061813327
0.0012469057
-0.063025569
0.0012106201
-0.064261891
0.0011749553
-0.065522528
0.0011399027
-0.066808489
0.0011054428
-0.068120011
0.0010715496
-0.069457365
0.0010382138
-0.07082163
0.0010054192
-0.072213373
0.00097314363
-0.073632784
0.00094136037
-0.075080576
0.00091006025
-0.076557569
0.00087923025
-0.078064057
0.0008488424
-0.079600482
0.00081887788
-0.081167929
0.00078930225
-0.082766888
0.00076010853
-0.084397743
0.00073127984
-0.086061469
0.00070275696
-0.087758576
0.00067454417
-0.089489792
0.0006466168
-0.09125589
0.00061893467
-0.093057263
0.00059150222
-0.094894971
0.00056429577
-0.09676979
0.00053728081
-0.098682367
0.00051044683
-0.10063368
0.00048378145
-0.1026242
0.00045725882
-0.10465492
0.00043085171
-0.10672691
0.00040454938
-0.10884045
0.00037831601
-0.11099684
0.00035211916
-0.11319709
0.00032592811
-0.1154419
0.00029971956
-0.11773223
0.00027345869
-0.12006906
0.0002471077
-0.12245358
0.00022064385
-0.12488643
0.00019403682
-0.12736891
0.00016724077
-0.12990182
0.00014022416
-0.13248672
0.00011293651
-0.13512387
8.5327878e-05
-0.1378157
5.7346721e-05
-0.14056166
2.8930684e-05
-0.14336581
-0.14622652
0.0081136944
-0.0085683657
-0.0082103145
0.0080107611
-0.0089356152
0.0079031229
-0.0093090499
0.0077921667
-0.0096873744
0.0076790351
-0.010070561
0.0075646799
-0.01045838
0.0074499259
-0.010850698
0.0073354756
-0.011247547
0.0072219071
-0.011649097
0.0071096723
-0.012055604
0.0069990991
-0.012467395
0.0068903947
-0.012884833
0.0067836557
-0.013308297
0.0066788876
-0.013738146
0.0065760339
-0.014174691
0.0064750076
-0.014618173
0.0063757247
-0.015068748
0.0062781329
-0.015526495
0.0061822264
-0.015991431
0.0060880326
-0.016463552
0.0059955923
-0.016942852
0.0059049366
-0.017429352
0.0058160606
-0.017923104
0.0057289062
-0.018424177
0.0056433637
-0.018932629
0.0055592793
-0.019448491
0.005476458
-0.019971737
0.0053946773
-0.020502284
0.0053136856
-0.021039963
0.0052331975
-0.021584518
0.0051529083
-0.022135594
0.0050724764
-0.022692712
0.0049915304
-0.023255272
0.0049096589
-0.023822523
0.0048264082
-0.024393542
0.0047412794
-0.024967223
0.0046537045
-0.025542248
0.0045628811
-0.026116807
0.004468469
-0.026689485
0.0043701084
-0.027258678
0.0042665574
-0.027822261
0.0041570215
-0.028375987
0.004041077
-0.028919009
0.0039184704
-0.029449483
0.003789656
-0.029966791
0.0036563165
-0.030472887
0.0035220211
-0.030974123
0.0033922841
-0.031482448
0.0032728459
-0.032013064
0.0031665793
-0.032577235
0.0030724255
-0.033177278
0.0029872779
-0.033808308
0.0029080565
-0.034463233
0.0028327965
-0.035137482
0.0027603997
-0.035828126
0.0026902369
-0.036533372
0.0026220113
-0.037252794
0.0025555765
-0.037986394
0.002490801
-0.038734087
0.002427625
-0.039496393
0.002366023
-0.040273813
0.0023058651
-0.041065921
0.0022471097
-0.04187343
0.0021897374
-0.042696864
0.0021336801
-0.043536207
0.0020788656
-0.0443915
0.0020252761
-0.045263433
0.0019728978
-0.046152573
0.0019216522
-0.047058593
0.0018715372
-0.047982461
0.0018225351
-0.048924518
0.0017745793
-0.049884492
0.0017276654
-0.050863429
0.0016817673
-0.051861721
0.0016368253
-0.052879114
0.001592822
-0.05391669
0.0015497289
-0.054974832
0.00150749
-0.056053363
0.0014660894
-0.057153421
0.001425495
-0.058275288
0.0013856674
-0.059418936
0.0013465855
-0.060585446
0.0013082164
-0.061774968
0.0012705556
-0.062987919
0.0012335821
-0.064224929
0.0011972385
-0.065486197
0.0011615143
-0.066772782
0.0011263955
-0.068084917
0.0010918559
-0.069422861
0.0010578889
-0.070787713
0.0010244699
-0.07218002
0.00099158077
-0.073599976
0.00095919531
-0.075048284
0.0009272985
-0.076525774
0.00089588247
-0.078032748
0.00086491459
-0.079569623
0.00083438114
-0.081137502
0.00080424103
-0.082736854
0.00077448927
-0.084368095
0.00074511093
-0.086032195
0.00071604215
-0.087729613
0.00068729176
-0.089461148
0.00065883204
-0.091227539
0.00063062071
-0.093029162
0.00060266652
-0.094867131
0.00057494135
-0.096742184
0.00054741302
-0.098654964
0.00052006623
-0.10060646
0.00049289255
-0.10259717
0.00046586788
-0.10462805
0.00043896001
-0.10670016
0.00041215877
-0.10881382
0.00038542812
-0.11097028
0.00035873561
-0.11317058
0.00033205047
-0.11541541
0.00030534558
-0.11770574
0.00027859097
-0.12004253
0.0002517441
-0.12242696
0.00022478278
-0.1248597
0.00019767268
-0.12734204
0.00017037368
-0.12987476
0.00014284328
-0.13245943
0.00011504594
-0.13509631
8.6921814e-05
-0.13778782
5.8420073e-05
-0.14053341
2.9464167e-05
-0.1433371
-0.14619731
0.0080572104
-0.0084882816
-0.0081371253
0.0079712408
-0.0088495514
0.0078803145
-0.0092180911
0.0077853775
-0.0095924475
0.0076873011
-0.0099725231
0.0075869027
-0.010358037
0.0074849464
-0.010748804
0.0073821179
-0.011144782
0.0072790078
-0.011546048
0.0071761034
-0.011952759
0.0070737871
-0.012365136
0.0069723367
-0.012783442
0.0068719337
-0.013207956
0.0067726778
-0.013638955
0.0066746069
-0.014076688
0.0065777222
-0.014521357
0.0064820131
-0.014973106
0.0063874798
-0.015432024
0.0062941445
-0.01589815
0.0062020482
-0.016371496
0.006111238
-0.016852067
0.0060217499
-0.017339872
0.0059335919
-0.017834937
0.0058467284
-0.018337286
0.0057610794
-0.018846936
0.0056765178
-0.01936387
0.0055928825
-0.019888028
0.0055099689
-0.020419285
0.0054275418
-0.020957442
0.0053453364
-0.021502211
0.0052630463
-0.022053199
0.0051803373
-0.022609898
0.0050968308
-0.023171663
0.0050121077
-0.023737702
0.0049257049
-0.02430705
0.0048371128
-0.024878553
0.0047457582
-0.025450829
0.0046507616
-0.026021762
0.0045517515
-0.026590443
0.0044485122
-0.027155425
0.0043395419
-0.027713294
0.0042242707
-0.028260738
0.0041023457
-0.028797122
0.0039737787
-0.029320968
0.0038394812
-0.029832554
0.0037018881
-0.03033536
0.0035654804
-0.030837782
0.0034362379
-0.031353268
0.003319149
-0.031896029
0.0032154549
-0.032473581
0.0031229557
-0.033084803
0.0030383725
-0.033723732
0.0029589185
-0.034383768
0.0028829907
-0.035061525
0.0028097237
-0.035754815
0.0027385964
-0.036462189
0.0026693716
-0.037183506
0.0026019362
-0.037918891
0.0025361663
-0.038668251
0.0024720015
-0.039432167
0.0024094213
-0.040211181
0.0023482916
-0.041004752
0.0022885731
-0.041813687
0.0022302512
-0.042638533
0.0021732506
-0.043479212
0.0021175009
-0.044335768
0.0020629899
-0.045208949
0.0020097058
-0.046099321
0.0019575623
-0.047006481
0.0019065648
-0.047931491
0.0018566942
-0.048874667
0.0018078837
-0.049835691
0.0017601265
-0.05081567
0.0017134033
-0.051814987
0.0016676464
-0.052833339
0.0016228424
-0.053871865
0.001578962
-0.054930931
0.001535947
-0.056010332
0.0014937817
-0.057111246
0.0014524312
-0.058233936
0.0014118629
-0.059378372
0.0013720482
-0.06054564
0.0013329577
-0.061735889
0.0012945862
-0.06294956
0.0012569154
-0.064187271
0.0012198865
-0.065449183
0.0011834837
-0.066736397
0.0011476958
-0.068049155
0.0011125027
-0.069387706
0.0010778912
-0.070753154
0.0010438418
-0.072146039
0.0010103311
-0.073566549
0.00097733238
-0.075015381
0.0009448326
-0.07649338
0.0009128215
-0.078000847
0.00088126725
-0.07953818
0.00085015457
-0.0811065
0.00081943921
-0.082706246
0.00078912119
-0.084337884
0.00075918214
-0.086002363
0.00072956233
-0.087700101
0.00070026606
-0.089431962
0.00067126321
-0.091198648
0.00064251453
-0.093000527
0.00061402803
-0.094838762
0.00058577612
-0.096714054
0.00055772523
-0.098627042
0.00052985887
-0.10057874
0.00050216824
-0.10256963
0.00047463301
-0.10460067
0.00044721284
-0.1066729
0.0004199035
-0.10878668
0.00039266876
-0.11094323
0.00036547139
-0.11314357
0.00033828304
-0.11538843
0.00031107507
-0.11767875
0.00028381497
-0.1200155
0.00025646423
-0.12239985
0.00022899624
-0.12483248
0.00020137927
-0.12731467
0.00017356923
-0.12984719
0.00014552305
-0.13243162
0.00011720153
-0.13506824
8.8553633e-05
-0.13775941
5.9510698e-05
-0.14050461
3.0018656e-05
-0.14330786
-0.14616755
0.0079975212
-0.0084241951
-0.0080614666
0.0079276003
-0.008779561
0.0078523994
-0.0091428763
0.0077726092
-0.0095126782
0.0076888989
-0.0098888591
0.0076019634
-0.010271163
0.0075124943
-0.010659401
0.0074211398
-0.011053494
0.0073284807
-0.011453453
0.0072350176
-0.011859359
0.0071411645
-0.012271345
0.0070472492
-0.01268959
0.0069535167
-0.013114288
0.006860139
-0.013545645
0.0067672302
-0.013983848
0.0066748646
-0.01442906
0.0065830943
-0.014881402
0.0064919669
-0.015340956
0.0064015353
-0.015807768
0.0063118583
-0.016281855
0.0062229921
-0.01676322
0.0061349816
-0.017251864
0.0060478438
-0.017747784
0.0059615614
-0.018250972
0.0058760752
-0.018761402
0.0057912853
-0.019279017
0.0057070487
-0.019803715
0.0056231852
-0.020335333
0.0055394764
-0.020873635
0.005455663
-0.021418294
0.005371452
-0.021968881
0.0052865035
-0.022524842
0.0052004389
-0.023085493
0.005112829
-0.023649993
0.0050231915
-0.024217321
0.0049310027
-0.024786285
0.0048356799
-0.025355441
0.0047363748
-0.025922408
0.0046326051
-0.026486643
0.0045242317
-0.027047038
0.0044095391
-0.027598608
0.0042882708
-0.028139494
0.004160208
-0.0286691
0.0040257004
-0.029186514
0.003886274
-0.029693192
0.0037452557
-0.030194412
0.0036079832
-0.03070058
0.0034804403
-0.031225791
0.0033663239
-0.031781969
0.0032652173
-0.032372517
0.0031741348
-0.032993746
0.0030899063
-0.033639511
0.0030101028
-0.034303953
0.0029334645
-0.034984857
0.0028593232
-0.035680629
0.0027872435
-0.036390052
0.0027170432
-0.03711324
0.0026486286
-0.037850407
0.0025818817
-0.038601436
0.0025167479
-0.039366971
0.0024532078
-0.040147588
0.0023911188
-0.040942623
0.0023304489
-0.041752992
0.0022711833
-0.042579258
0.002213247
-0.043421281
0.0021565688
-0.044279109
0.0021011413
-0.045153549
0.0020469509
-0.046045163
0.0019939134
-0.046953477
0.0019420351
-0.047879642
0.0018912957
-0.048823949
0.001841628
-0.049786034
0.0017930297
-0.050767071
0.0017454754
-0.051767422
0.0016989017
-0.052786747
0.0016532943
-0.053826237
0.0016086211
-0.054886238
0.0015648242
-0.05596652
0.0015218868
-0.0570683
0.001479777
-0.058191824
0.0014384602
-0.059337061
0.0013979066
-0.060505097
0.0013580856
-0.061696081
0.0013189969
-0.062910486
0.0012806217
-0.06414891
0.0012428986
-0.065411476
0.0012058082
-0.066699328
0.0011693449
-0.068012721
0.0011334887
-0.06935189
0.0010982282
-0.070717948
0.0010635369
-0.072111418
0.0010293967
-0.073532495
0.00099577804
-0.074981862
0.00096266661
-0.076460376
0.00093004956
-0.077968343
0.00089789959
-0.079506144
0.00086619861
-0.081074911
0.00083490044
-0.082675059
0.00080400684
-0.084307101
0.00077350089
-0.085971967
0.00074331694
-0.087670028
0.00071346577
-0.089402223
0.00068391029
-0.091169207
0.00065461556
-0.092971349
0.00062559043
-0.094809857
0.00059680128
-0.09668539
0.00056821922
-0.098598593
0.00053982409
-0.10055048
0.00051160724
-0.10254156
0.00048355346
-0.10457277
0.00045561438
-0.10664513
0.00042778772
-0.10875903
0.00040003836
-0.11091566
0.00037232932
-0.11311606
0.00034462732
-0.11536093
0.0003169052
-0.11765124
0.00028913454
-0.11998796
0.00026126877
-0.12237222
0.00023328423
-0.12480474
0.00020514489
-0.12728678
0.00017682176
-0.12981912
0.00014823939
-0.13240329
0.00011939135
-0.13503964
9.0205194e-05
-0.13773048
6.0624878e-05
-0.14047528
3.0575837e-05
-0.14327807
-0.14613723
0.0079372832
-0.0083750079
-0.0079863734
0.0078822025
-0.008724441
0.0078215413
-0.0090822272
0.0077558188
-0.009446996
0.0076855662
-0.0098186683
0.0076113797
-0.010197049
0.0075338765
-0.010581974
0.0074536522
-0.010973344
0.0073712574
-0.011371129
0.0072871833
-0.011775352
0.0072018546
-0.012186083
0.0071156254
-0.012603427
0.0070287823
-0.013027513
0.0069415484
-0.01345848
0.006854095
-0.013896464
0.0067665519
-0.014341585
0.0066790229
-0.014793936
0.006591596
-0.015253585
0.0065043534
-0.01572057
0.0064173725
-0.016194904
0.0063307223
-0.016676584
0.0062444541
-0.017165593
0.0061585965
-0.017661907
0.0060731448
-0.018165484
0.0059880587
-0.018676263
0.0059032543
-0.019194145
0.0058186095
-0.019718989
0.0057339587
-0.020250591
0.0056490949
-0.020788671
0.0055637727
-0.021332865
0.0054776992
-0.021882698
0.0053905371
-0.02243757
0.0053018993
-0.022996749
0.0052113462
-0.02355934
0.0051183796
-0.024124263
0.0050224263
-0.024690252
0.0049227607
-0.02525571
0.0048191217
-0.025818721
0.0047106978
-0.026378189
0.0045966421
-0.026932972
0.0044759064
-0.027477881
0.004348435
-0.028012049
0.0042141521
-0.02853486
0.0040738886
-0.029046308
0.0039299537