/*--------------------------------*- C++ -*----------------------------------*\
| =========                 |                                                 |
| \\      /  F ield         | OpenFOAM: The Open Source CFD Toolbox           |
|  \\    /   O peration     | Version:  2406                                  |
|   \\  /    A nd           | Website:  www.openfoam.com                      |
|    \\/     M anipulation  |                                                 |
\*---------------------------------------------------------------------------*/
FoamFile
{
    version     2.0;
    format      ascii;
    arch        "LSB;label=32;scalar=64";
    class       volScalarField;
    location    "0.005";
    object      Ma;
}
// * * * * * * * * * * * * * * * * * * * * * * * * * * * * * * * * * * * * * //

dimensions      [0 0 0 0 0 0 0];

internalField   nonuniform List<scalar> 
23203
(
0.1071942
0.11092008
0.11448964
0.11790688
0.12117005
0.12427694
0.12722809
0.13002689
0.13267876
0.13519055
0.13757002
0.13982543
0.14196513
0.14399732
0.14592975
0.14776956
0.1495232
0.15119626
0.15279349
0.15431894
0.15577657
0.15716975
0.15850055
0.10694725
0.11055454
0.11402137
0.11734837
0.12053319
0.12357329
0.12646866
0.1292219
0.13183748
0.1343212
0.13667973
0.13892023
0.14105005
0.14307643
0.14500629
0.14684606
0.14860157
0.15027794
0.15187953
0.15341024
0.15487376
0.1562733
0.15761118
0.10668903
0.11018386
0.11355304
0.11679414
0.11990399
0.12287973
0.12572086
0.12842928
0.13100861
0.13346374
0.13580035
0.13802467
0.14014312
0.14216209
0.14408775
0.14592586
0.14768168
0.14935989
0.15096458
0.15249942
0.15396787
0.15537293
0.15671707
0.10642922
0.10981818
0.11309347
0.11625132
0.11928821
0.122201
0.12498871
0.12765254
0.13019533
0.13262109
0.13493466
0.13714139
0.13924688
0.14125675
0.14317647
0.14501121
0.14676571
0.14844426
0.1500507
0.15158846
0.15306075
0.15447039
0.15582004
0.10617461
0.10946246
0.1126472
0.11572398
0.11868941
0.1215402
0.1242749
0.12689406
0.12939976
0.13179523
0.13408452
0.13627218
0.13836306
0.14036209
0.14227411
0.14410374
0.14585528
0.14753265
0.14913943
0.15067887
0.15215392
0.15356724
0.10593141
0.10911968
0.11221618
0.11521408
0.11810963
0.12089935
0.12358137
0.12615565
0.12862362
0.1309878
0.1332515
0.13541856
0.13749317
0.13947962
0.14138219
0.14320499
0.14495192
0.14662657
0.14823228
0.14977205
0.15124867
0.15266452
0.10570121
0.10879294
0.11180347
0.11472426
0.11755115
0.12028043
0.12290986
0.1254389
0.12786838
0.13020017
0.13243693
0.13458187
0.13663854
0.13861069
0.14050206
0.14231634
0.14405702
0.14572741
0.14733057
0.14886928
0.15034605
0.15176302
0.10549025
0.10848749
0.11141328
0.11425782
0.11701653
0.11968547
0.12226205
0.12474524
0.12713531
0.12943352
0.13164195
0.13376321
0.1358003
0.13775644
0.13963491
0.14143897
0.14317178
0.14483633
0.14643541
0.14797157
0.14944704
0.15086374
0.10530287
0.10820711
0.11104883
0.11381741
0.11650795
0.11911627
0.12163943
0.12407592
0.12642549
0.12868885
0.13086751
0.13296353
0.1349794
0.13691784
0.13878172
0.14057389
0.14229718
0.14395429
0.14554773
0.14707979
0.14855251
0.14996761
0.10514099
0.10795346
0.1107118
0.11340468
0.11602692
0.11857417
0.12104316
0.12343198
0.12573986
0.12796701
0.1301144
0.1321836
0.13417661
0.13609569
0.13794328
0.13972191
0.14143404
0.14308209
0.14466832
0.14619478
0.14766329
0.14907545
0.10500698
0.1077285
0.11040394
0.1130212
0.11557486
0.11806041
0.12047434
0.12281436
0.12507925
0.12726875
0.12938334
0.13142411
0.13339259
0.13529063
0.13712028
0.1388837
0.14058304
0.14222044
0.1437979
0.14531726
0.14678014
0.14818804
0.10490504
0.1075357
0.11012797
0.11266912
0.11515347
0.11757638
0.11993411
0.12222401
0.12444446
0.12659477
0.12867494
0.13068563
0.13262791
0.13450323
0.13631327
0.13805983
0.13974477
0.14136994
0.1429371
0.14444788
0.14590375
0.14730606
0.10483559
0.10737612
0.10988522
0.1123498
0.11476406
0.11712326
0.11942349
0.12166182
0.12383628
0.12594576
0.12798983
0.12996872
0.1318831
0.13373401
0.13552276
0.13725083
0.13891976
0.14053113
0.14208649
0.14358725
0.14503473
0.14643016
0.10480098
0.10725203
0.10967754
0.11206483
0.11440797
0.1167022
0.11894349
0.12112868
0.12325548
0.12532239
0.12732862
0.12927396
0.13115869
0.13298347
0.13474925
0.13645717
0.1381085
0.13970455
0.14124662
0.14273595
0.14417368
0.14556094
0.10480314
0.10716516
0.10950711
0.11181605
0.11408668
0.1163144
0.11849512
0.12062546
0.12270283
0.12472538
0.12669195
0.12860193
0.13045523
0.13225213
0.13399325
0.13567939
0.13731153
0.13889072
0.14041804
0.14189453
0.14332119
0.144699
0.10484054
0.10711242
0.10937064
0.11160137
0.11379921
0.11595967
0.11807865
0.12015269
0.12217898
0.12415541
0.12608049
0.12795329
0.12977336
0.13154062
0.13325535
0.13491806
0.13652942
0.13809024
0.13960135
0.14106362
0.14247788
0.14384498
0.10491657
0.10709929
0.10927327
0.11142433
0.11354801
0.11563977
0.11769547
0.11971152
0.12168494
0.12361341
0.12549513
0.12732888
0.12911386
0.13084968
0.13253629
0.13417388
0.13576287
0.13730378
0.13879724
0.14024391
0.14164444
0.14299957
0.10503016
0.10712304
0.10921353
0.11128523
0.11333394
0.11535573
0.11734663
0.119303
0.12122176
0.12310039
0.12493685
0.12672964
0.12847765
0.13018021
0.13183693
0.13344772
0.13501271
0.13653218
0.13800653
0.1394362
0.14082169
0.14216358
0.1051826
0.107186
0.10919263
0.11118478
0.11315748
0.11510816
0.11703291
0.11892807
0.12079046
0.12261742
0.12440675
0.12615668
0.12786585
0.12953329
0.13115834
0.13274063
0.13427999
0.13577646
0.13723021
0.13864149
0.1400106
0.14133798
0.10537299
0.1072875
0.10920963
0.1111222
0.11301899
0.11489777
0.11675518
0.11858768
0.12039209
0.12216566
0.12390603
0.12561125
0.12727972
0.12891022
0.13050182
0.13205387
0.13356596
0.13503787
0.13646953
0.13786098
0.13921235
0.14052392
0.10560055
0.10742729
0.1092648
0.11109787
0.112919
0.11472502
0.11651405
0.11828268
0.12002769
0.12174628
0.123436
0.12509475
0.12672074
0.12831251
0.12986889
0.13138899
0.13287215
0.1343179
0.13572595
0.13709613
0.13842838
0.13972281
0.10586455
0.10760476
0.10935859
0.11111142
0.11285661
0.11458999
0.11631006
0.11801384
0.11969826
0.1213605
0.12299806
0.12460871
0.12619053
0.12774186
0.12926132
0.13074778
0.13220035
0.13361835
0.13500124
0.13634868
0.13766039
0.13893631
0.10616323
0.10781815
0.10948937
0.1111618
0.11283148
0.11449299
0.11614359
0.11778183
0.11940475
0.12100954
0.12259365
0.12415479
0.12569092
0.12720021
0.12868111
0.1301323
0.13155266
0.1329413
0.13429749
0.13562067
0.13691038
0.13816638
0.10649507
0.10806629
0.10965628
0.11124956
0.11284329
0.11443288
0.11601452
0.11758709
0.11914802
0.1206946
0.12222428
0.12373474
0.12522385
0.12668967
0.1281305
0.12954485
0.13093142
0.13228913
0.13361705
0.13491444
0.13618066
0.13741529
0.10685768
0.10834664
0.10985668
0.11137231
0.11289039
0.11440909
0.11592328
0.11743028
0.11892901
0.12041694
0.12189153
0.12335043
0.12479144
0.12621255
0.12761194
0.12898798
0.13033923
0.13166445
0.13296255
0.1342326
0.13547381
0.13668557
0.10724827
0.10865667
0.11008868
0.11152883
0.11297342
0.11442164
0.11586907
0.11731163
0.11874853
0.12017784
0.12159708
0.12300384
0.12439593
0.12577127
0.12712799
0.12846436
0.12977885
0.13107007
0.13233681
0.13357798
0.13479262
0.13597999
0.10766383
0.10899462
0.11035083
0.11171767
0.11309126
0.11447015
0.11585241
0.11723209
0.11860747
0.11997856
0.12134259
0.12269699
0.12403956
0.12536827
0.12668124
0.12797671
0.12925307
0.13050886
0.13174273
0.13295349
0.13414004
0.13530148
0.10810376
0.10936115
0.11064444
0.11194013
0.11324452
0.11455566
0.11587325
0.11719338
0.11851049
0.11982338
0.12113154
0.1224328
0.12372501
0.12500613
0.12627428
0.12752766
0.12876461
0.12998359
0.13118317
0.13236203
0.13351899
0.13465298
0.10856763
0.10975674
0.11097117
0.11219902
0.11343703
0.11468317
0.11593606
0.11719516
0.11845432
0.11971019
0.12096304
0.12221136
0.12345309
0.12468621
0.12590886
0.12711927
0.12831575
0.12949673
0.13066072
0.13180633
0.13293227
0.13403737
0.10905335
0.11017879
0.11132829
0.11249149
0.11366571
0.11484898
0.11603944
0.11723641
0.11843839
0.11963905
0.12083711
0.12203298
0.12322448
0.12440953
0.12558632
0.12675313
0.12790832
0.12905032
0.13017761
0.13128877
0.1323824
0.13345726
0.1095584
0.11062413
0.11171239
0.11281412
0.11392724
0.11505004
0.11618082
0.117318
0.11846185
0.11960967
0.12075597
0.1218997
0.12304069
0.12417728
0.12530776
0.12643043
0.12754367
0.1286459
0.12973558
0.13081125
0.13187147
0.13291491
0.11008022
0.11108994
0.11212063
0.11316439
0.11421961
0.11528494
0.11635889
0.11743995
0.11852709
0.11962013
0.12071472
0.12180773
0.12289921
0.123988
0.12507249
0.12615107
0.12722216
0.1282842
0.12933568
0.13037511
0.13140104
0.13241208
0.11061598
0.11157297
0.11254946
0.11353849
0.11453882
0.11554938
0.11656891
0.11759603
0.1186294
0.11966849
0.12071244
0.12175635
0.12279898
0.12384063
0.12487975
0.12591462
0.12694367
0.12796541
0.12897835
0.12998106
0.13097206
0.13194996
0.11116271
0.11206998
0.11299538
0.11393273
0.11488108
0.11583955
0.11680709
0.1177825
0.11876454
0.11975214
0.12074558
0.1217433
0.1227399
0.12373498
0.12472908
0.12572055
0.12670774
0.12768919
0.12866348
0.12962918
0.13058487
0.13152912
0.11171756
0.11257795
0.11345524
0.11434392
0.11524325
0.11615251
0.11707084
0.11799724
0.11893061
0.11986987
0.12081414
0.12176368
0.12271641
0.12366818
0.12461841
0.12556705
0.12651282
0.12745431
0.12839011
0.12931885
0.13023911
0.13114947
0.11227774
0.11309392
0.1139259
0.11476875
0.11562186
0.11648465
0.11735641
0.11823629
0.11912337
0.12001668
0.12091525
0.12181844
0.12272629
0.1236356
0.12454385
0.12545108
0.12635647
0.12725876
0.12815664
0.12904877
0.12993379
0.13081031
0.11284062
0.11361513
0.11440445
0.11520415
0.11601371
0.11683268
0.11766043
0.11849626
0.11933937
0.1201889
0.12104395
0.12190362
0.12276759
0.12363529
0.12450311
0.12536998
0.12623608
0.12710021
0.12796101
0.12881718
0.12966743
0.13051041
0.11340374
0.11413898
0.11488814
0.1156472
0.11641574
0.11719337
0.11797957
0.1187737
0.11957506
0.12038292
0.12119643
0.12201473
0.12283706
0.12366364
0.12449336
0.12532224
0.12614993
0.12697672
0.12780125
0.12862217
0.12943823
0.13024817
0.11396483
0.11466308
0.11537443
0.11609525
0.11682516
0.11756383
0.11831082
0.11906557
0.11982747
0.12059587
0.12137006
0.12214924
0.12293262
0.12371954
0.12451021
0.12530316
0.1260953
0.12688604
0.12767515
0.12846159
0.12924418
0.13002169
0.11452191
0.11518533
0.11586109
0.11654591
0.11723945
0.11794144
0.11865148
0.11936909
0.12009374
0.12082485
0.12156179
0.12230388
0.1230504
0.12380063
0.12455404
0.12531058
0.12606788
0.12682409
0.12757922
0.12833243
0.12908261
0.12982861
0.1150732
0.11570385
0.11634612
0.11699707
0.11765638
0.11832382
0.11899905
0.11968163
0.1203711
0.12106695
0.12176862
0.12247551
0.12318696
0.12390227
0.12462075
0.12534205
0.12606563
0.12678897
0.12751119
0.1282323
0.1289512
0.1296667
0.11561718
0.11621699
0.11682776
0.11744684
0.11807395
0.11870886
0.11935129
0.12000084
0.12065711
0.12131962
0.12198788
0.12266134
0.12333942
0.12402146
0.1247068
0.12539484
0.12608562
0.12677809
0.12746945
0.12815938
0.1288479
0.12953381
0.11615257
0.11672337
0.11730451
0.11789362
0.11849041
0.11909471
0.11970625
0.12032468
0.12094963
0.12158068
0.12221739
0.12285926
0.12350577
0.12415633
0.12481034
0.12546716
0.12612625
0.12678763
0.12744986
0.1281109
0.1287703
0.12942759
0.11667826
0.11722179
0.11777507
0.11833598
0.11890426
0.11947975
0.12006221
0.12065132
0.12124674
0.12184812
0.12245503
0.12306704
0.12368368
0.12430441
0.12492869
0.12555592
0.12618552
0.12681712
0.12745056
0.12808371
0.12871523
0.12934511
0.11719335
0.11771123
0.11823832
0.11877272
0.11931418
0.11986255
0.12041762
0.12097911
0.12154671
0.12212009
0.12269889
0.1232827
0.1238711
0.12446361
0.12505973
0.1256589
0.12626053
0.12686403
0.12746913
0.12807521
0.12868045
0.12928405
0.1176971
0.11819087
0.11869333
0.11920278
0.119719
0.12024184
0.12077112
0.12130658
0.12184794
0.12239491
0.12294715
0.12350429
0.12406596
0.1246317
0.12520108
0.12577357
0.12634864
0.12692568
0.12750413
0.12808388
0.12866377
0.12924236
0.11818893
0.11866002
0.11913932
0.1196253
0.12011775
0.12061656
0.12112153
0.12163245
0.12214907
0.1226711
0.12319825
0.12373018
0.12426654
0.12480693
0.12535093
0.12589808
0.12644788
0.12699979
0.1275533
0.128108
0.12866346
0.1292182
0.11866838
0.11911815
0.11957565
0.12003954
0.12050962
0.12098577
0.12146785
0.12195564
0.1224489
0.1229474
0.12345084
0.12395894
0.12447136
0.12498775
0.1255077
0.12603081
0.12655662
0.12708463
0.12761432
0.12814523
0.12867718
0.12920941
0.11913515
0.11956483
0.12000182
0.12044491
0.12089391
0.12134873
0.12180922
0.12227518
0.12274642
0.12322269
0.12370376
0.12418933
0.12467913
0.12517281
0.12567002
0.12617038
0.12667349
0.12717889
0.12768611
0.12819466
0.12870403
0.12921401
0.119589
0.11999978
0.12041745
0.12084095
0.12127009
0.12170479
0.12214491
0.12259029
0.12304073
0.12349602
0.12395593
0.12442022
0.1248886
0.12536079
0.12583645
0.12631524
0.12679679
0.12728068
0.12776647
0.1282537
0.12874189
0.12923063
0.12002982
0.12042279
0.12082226
0.12122729
0.12163771
0.12205343
0.12247434
0.12290028
0.12333108
0.12376654
0.12420646
0.12465061
0.12509873
0.12555057
0.12600581
0.12646415
0.12692524
0.1273887
0.12785413
0.12832112
0.12878919
0.12925789
0.12045759
0.12083376
0.12121608
0.12160368
0.12199643
0.12239424
0.12279701
0.12320459
0.12361683
0.12403355
0.12445457
0.12487966
0.12530862
0.12574118
0.12617708
0.12661603
0.1270577
0.12750178
0.12794788
0.12839561
0.12884457
0.1292943
0.12087233
0.12123266
0.12159878
0.12196995
0.12234601
0.12272691
0.12311254
0.12350277
0.12389747
0.12429647
0.1246996
0.12510667
0.12551746
0.12593177
0.12634933
0.12676989
0.12719315
0.12761881
0.12804653
0.12847596
0.12890671
0.12933838
0.12127415
0.12161952
0.12197035
0.12232599
0.12268629
0.1230512
0.12342063
0.12379447
0.12417257
0.1245548
0.124941
0.125331
0.12572461
0.12612161
0.1265218
0.12692492
0.12733072
0.1277389
0.12814918
0.12856121
0.12897467
0.12938917
0.12166321
0.12199443
0.12233082
0.12267177
0.12301718
0.12336697
0.12372108
0.12407939
0.12444179
0.12480815
0.12517832
0.12555215
0.12592947
0.12631008
0.12669379
0.12708038
0.12746959
0.12786119
0.12825489
0.12865039
0.12904738
0.12944553
0.12203971
0.12235754
0.12268026
0.12300733
0.12333863
0.12367412
0.12401372
0.12435733
0.12470486
0.12505619
0.12541117
0.12576968
0.12613156
0.12649663
0.12686471
0.12723561
0.12760909
0.12798493
0.12836288
0.12874267
0.12912401
0.12950659
0.12240388
0.12270904
0.12301882
0.12333274
0.12365068
0.12397261
0.12429847
0.12462816
0.1249616
0.12529867
0.12563926
0.12598325
0.12633048
0.12668081
0.12703406
0.12739006
0.12774861
0.12810949
0.12847247
0.12883732
0.12920376
0.12957151
0.12275602
0.12304915
0.12334666
0.12364811
0.12395339
0.12426246
0.12457529
0.12489178
0.12521185
0.12553541
0.12586235
0.12619255
0.1265259
0.12686224
0.12720142
0.12754328
0.12788764
0.12823431
0.12858307
0.12893371
0.12928598
0.12963963
0.12309641
0.12337812
0.12366398
0.12395359
0.12424685
0.12454373
0.12484418
0.12514815
0.12545554
0.12576627
0.12608026
0.12639739
0.12671755
0.12704061
0.12736643
0.12769487
0.12802575
0.12835891
0.12869415
0.12903127
0.12937005
0.12971026
0.12342537
0.12369623
0.12397102
0.12424937
0.12453121
0.1248165
0.12510521
0.12539728
0.12569263
0.12599119
0.12629288
0.1265976
0.12690524
0.12721569
0.12752883
0.12784451
0.1281626
0.12848292
0.12880531
0.12912958
0.12945553
0.12978295
0.12374326
0.12400376
0.12426801
0.12453566
0.12480664
0.12508092
0.12535846
0.12563923
0.12592314
0.12621014
0.12650015
0.12679308
0.12708884
0.12738732
0.1276884
0.12799197
0.12829789
0.12860601
0.12891617
0.12922821
0.12954194
0.12985718
0.12405044
0.12430104
0.12455524
0.1248127
0.12507334
0.12533715
0.12560408
0.12587411
0.12614716
0.12642317
0.12670209
0.12698382
0.12726828
0.12755538
0.12784502
0.12813708
0.12843143
0.12872795
0.12902649
0.1293269
0.12962902
0.12993266
0.12434731
0.12458847
0.12483308
0.12508082
0.12533162
0.12558545
0.12584229
0.12610209
0.12636481
0.12663038
0.12689875
0.12716983
0.12744356
0.12771985
0.1279986
0.1282797
0.12856306
0.12884854
0.12913603
0.12942537
0.12971641
0.13000901
0.12463431
0.12486646
0.12510192
0.1253404
0.1255818
0.12582613
0.12607335
0.12632342
0.1265763
0.12683193
0.12709025
0.12735121
0.12761473
0.12788073
0.12814912
0.12841981
0.1286927
0.12896767
0.12924462
0.12952341
0.12980391
0.13008596
0.12491187
0.12513542
0.12536214
0.12559177
0.12582422
0.12605948
0.12629753
0.12653833
0.12678184
0.12702801
0.12727677
0.12752809
0.12778188
0.12803808
0.12829661
0.12855738
0.1288203
0.12908528
0.12935219
0.12962093
0.12989137
0.13016338
0.12518044
0.12539576
0.12561413
0.12583532
0.12605923
0.12628585
0.12651516
0.12674712
0.1269817
0.12721884
0.1274585
0.12770063
0.12794516
0.12819202
0.12844115
0.12869247
0.12894589
0.12920132
0.12945866
0.12971781
0.12997865
0.13024107
0.12544045
0.12564793
0.12585834
0.12607147
0.12628722
0.1265056
0.12672657
0.1269501
0.12717616
0.1274047
0.12763567
0.12786903
0.12810472
0.12834268
0.12858285
0.12882514
0.1290695
0.12931583
0.12956404
0.12981403
0.13006571
0.13031896
0.12569231
0.12589233
0.12609516
0.12630061
0.12650859
0.1267191
0.12693211
0.12714759
0.12736551
0.12758583
0.12780851
0.1280335
0.12826075
0.12849021
0.12872182
0.1289555
0.1291912
0.12942884
0.12966832
0.12990958
0.1301525
0.13039699
0.12593644
0.12612937
0.12632498
0.1265231
0.12672367
0.12692666
0.12713207
0.12733987
0.12755002
0.12776249
0.12797724
0.12819424
0.12841343
0.12863477
0.1288582
0.12908366
0.12931108
0.12954041
0.12977156
0.13000445
0.130239
0.1304751
0.12617327
0.12635943
0.12654816
0.12673929
0.12693278
0.1271286
0.12732676
0.12752721
0.12772994
0.12793491
0.1281421
0.12835145
0.12856294
0.12877651
0.12899212
0.12920971
0.12942923
0.12965061
0.12987378
0.13009867
0.13032521
0.1305533
0.1264032
0.1265829
0.12676505
0.12694952
0.12713625
0.12732522
0.12751644
0.12770989
0.12790552
0.12810333
0.12830327
0.12850532
0.12870944
0.12891559
0.12912372
0.12933379
0.12954573
0.12975951
0.12997504
0.13019228
0.13041114
0.13063155
0.12662662
0.12680015
0.12697602
0.12715412
0.12733438
0.12751682
0.12770141
0.12788815
0.12807701
0.12826796
0.12846098
0.12865604
0.12885312
0.12905216
0.12925313
0.129456
0.1296607
0.12986719
0.13007542
0.13028532
0.13049682
0.13070986
0.12684392
0.12701154
0.12718141
0.12735341
0.1275275
0.12770368
0.12788194
0.12806226
0.12824463
0.12842903
0.12861543
0.12880381
0.12899413
0.12918638
0.1293805
0.12957646
0.12977423
0.12997375
0.13017497
0.13037783
0.13058229
0.13078827
0.12705547
0.12721744
0.12738156
0.12754773
0.12771591
0.1278861
0.12805829
0.12823248
0.12840864
0.12858676
0.12876682
0.1289488
0.12913267
0.1293184
0.12950596
0.12969531
0.12988643
0.13007926
0.13027376
0.13046989
0.13066758
0.13086678
0.12726163
0.12741818
0.12757679
0.12773738
0.1278999
0.12806435
0.12823074
0.12839905
0.12856927
0.12874138
0.12891536
0.12909121
0.12926888
0.12944837
0.12962964
0.12981266
0.1299974
0.13018382
0.13037188
0.13056154
0.13075275
0.13094544
0.12746274
0.1276141
0.12776743
0.12792267
0.12807976
0.12823872
0.12839954
0.12856221
0.12872673
0.12889308
0.12906124
0.12923121
0.12940295
0.12957646
0.1297517
0.12992864
0.13010727
0.13028754
0.13046941
0.13065286
0.13083783
0.13102428
0.12765913
0.12780551
0.12795378
0.12810388
0.12825577
0.12840945
0.12856494
0.12872221
0.12888126
0.12904208
0.12920466
0.12936899
0.12953504
0.12970281
0.12987226
0.13004337
0.13021613
0.13039049
0.13056643
0.13074392
0.1309229
0.13110334
0.12785112
0.12799271
0.12813612
0.12828129
0.12842819
0.12857681
0.12872717
0.12887926
0.12903307
0.12918859
0.12934581
0.12950472
0.12966531
0.12982756
0.12999146
0.13015697
0.13032409
0.13049278
0.13066302
0.13083477
0.131008
0.13118266
0.128039
0.128176
0.12831474
0.12845518
0.12859727
0.12874104
0.12888648
0.12903359
0.12918236
0.12933278
0.12948486
0.12963857
0.12979391
0.12995087
0.13010943
0.13026956
0.13043126
0.1305945
0.13075925
0.13092549
0.13109318
0.13126229
0.12822307
0.12835564
0.1284899
0.12862578
0.12876327
0.12890236
0.12904307
0.12918539
0.12932932
0.12947486
0.12962198
0.1297707
0.129921
0.13007287
0.13022629
0.13038125
0.13053774
0.13069573
0.13085521
0.13101614
0.13117851
0.13134227
0.12840359
0.12853191
0.12866184
0.12879335
0.1289264
0.129061
0.12919716
0.12933488
0.12947415
0.12961498
0.12975735
0.12990126
0.13004671
0.13019368
0.13034216
0.13049215
0.13064362
0.13079657
0.13095097
0.1311068
0.13126403
0.13142263
0.1285808
0.12870503
0.12883081
0.1289581
0.12908688
0.12921716
0.12934894
0.12948223
0.12961703
0.12975332
0.12989111
0.1300304
0.13017118
0.13031343
0.13045717
0.13060236
0.13074901
0.13089709
0.1310466
0.13119751
0.1313498
0.13150343
0.12875496
0.12887525
0.12899702
0.12912025
0.12924492
0.12937103
0.1294986
0.12962762
0.1297581
0.12989003
0.13002342
0.13015825
0.13029453
0.13043225
0.1305714
0.13071198
0.13085398
0.13099738
0.13114217
0.13128834
0.13143586
0.13158471
0.12892629
0.12904277
0.12916068
0.12927999
0.1294007
0.1295228
0.12964631
0.12977122
0.12989754
0.13002526
0.1301544
0.13028494
0.13041688
0.13055023
0.13068497
0.1308211
0.13095861
0.13109749
0.13123774
0.13137933
0.13152226
0.13166648
0.12909498
0.12920779
0.12932198
0.12943752
0.1295544
0.12967263
0.12979222
0.12991317
0.13003547
0.13015915
0.13028419
0.13041059
0.13053835
0.13066748
0.13079796
0.1309298
0.13106299
0.13119751
0.13133337
0.13147055
0.13160904
0.1317488
0.12926124
0.12937051
0.1294811
0.12959299
0.12970619
0.12982068
0.12993649
0.13005361
0.13017205
0.13029181
0.13041289
0.1305353
0.13065903
0.13078409
0.13091047
0.13103816
0.13116717
0.1312975
0.13142912
0.13156204
0.13169623
0.13183169
0.12942525
0.12953109
0.1296382
0.12974658
0.12985621
0.1299671
0.13007925
0.13019268
0.13030738
0.13042337
0.13054063
0.13065919
0.13077902
0.13090015
0.13102256
0.13114626
0.13127123
0.13139749
0.13152502
0.13165382
0.13178387
0.13191516
0.12958716
0.12968969
0.12979345
0.12989842
0.13000461
0.13011201
0.13022063
0.13033049
0.13044159
0.13055392
0.1306675
0.13078233
0.1308984
0.13101573
0.13113431
0.13125414
0.13137522
0.13149755
0.13162113
0.13174595
0.13187199
0.13199925
0.12974713
0.12984646
0.12994697
0.13004866
0.13015151
0.13025554
0.13036075
0.13046716
0.13057477
0.13068357
0.13079359
0.13090481
0.13101725
0.13113091
0.13124578
0.13136187
0.13147919
0.13159772
0.13171747
0.13183844
0.13196061
0.13208396
0.1299053
0.13000153
0.1300989
0.1301974
0.13029703
0.1303978
0.13049971
0.13060278
0.13070701
0.13081241
0.13091897
0.13102671
0.13113563
0.13124574
0.13135703
0.1314695
0.13158317
0.13169803
0.13181408
0.13193132
0.13204973
0.13216931
0.1300618
0.13015503
0.13024935
0.13034477
0.13044128
0.13053889
0.13063761
0.13073745
0.13083841
0.1309405
0.13104373
0.1311481
0.13125361
0.13136028
0.1314681
0.13157708
0.13168721
0.13179852
0.13191098
0.13202461
0.13213939
0.13225531
0.13021674
0.13030706
0.13039843
0.13049086
0.13058435
0.1306789
0.13077452
0.13087123
0.13096903
0.13106792
0.13116792
0.13126902
0.13137124
0.13147457
0.13157903
0.13168462
0.13179134
0.1318992
0.13200819
0.13211832
0.13222958
0.13234196
0.13037023
0.13045772
0.13054623
0.13063576
0.13072632
0.1308179
0.13091053
0.1310042
0.13109893
0.13119473
0.13129159
0.13138953
0.13148855
0.13158866
0.13168987
0.13179217
0.13189558
0.1320001
0.13210572
0.13221246
0.13232031
0.13242925
0.13052235
0.1306071
0.13069283
0.13077956
0.13086727
0.13095598
0.1310457
0.13113643
0.13122819
0.13132098
0.1314148
0.13150967
0.1316056
0.13170258
0.13180063
0.13189975
0.13199995
0.13210122
0.13220359
0.13230704
0.13241157
0.13251718
0.13067318
0.13075527
0.13083831
0.13092231
0.13100727
0.13109319
0.13118008
0.13126796
0.13135683
0.13144671
0.13153759
0.13162949
0.13172241
0.13181636
0.13191134
0.13200737
0.13210446
0.13220259
0.13230179
0.13240205
0.13250337
0.13260574
0.13082281
0.13090232
0.13098274
0.13106409
0.13114637
0.13122958
0.13131373
0.13139884
0.13148492
0.13157196
0.13165998
0.13174899
0.131839
0.13193
0.13202202
0.13211506
0.13220911
0.1323042
0.13240033
0.13249749
0.13259569
0.13269492
0.13097128
0.13104828
0.13112616
0.13120494
0.13128462
0.13136519
0.13144669
0.13152911
0.13161247
0.13169676
0.13178201
0.13186822
0.13195539
0.13204354
0.13213268
0.1322228
0.13231392
0.13240605
0.13249919
0.13259335
0.13268852
0.1327847
0.13111866
0.13119322
0.13126863
0.13134491
0.13142206
0.13150008
0.13157899
0.1316588
0.13173951
0.13182114
0.1319037
0.13198718
0.13207161
0.13215698
0.13224331
0.13233061
0.13241888
0.13250814
0.13259838
0.13268962
0.13278184
0.13287506
0.13126499
0.13133718
0.13141019
0.13148404
0.13155872
0.13163426
0.13171066
0.13178793
0.13186608
0.13194511
0.13202505
0.13210589
0.13218764
0.13227032
0.13235393
0.13243848
0.13252398
0.13261044
0.13269787
0.13278627
0.13287564
0.13296597
0.13141031
0.13148019
0.13155086
0.13162234
0.13169464
0.13176776
0.13184172
0.13191652
0.13199217
0.13206869
0.13214608
0.13222434
0.1323035
0.13238356
0.13246452
0.13254641
0.13262922
0.13271296
0.13279765
0.13288329
0.13296988
0.1330574
0.13155465
0.13162228
0.13169067
0.13175986
0.13182983
0.1319006
0.13197218
0.13204458
0.1321178
0.13219187
0.13226678
0.13234255
0.13241918
0.13249669
0.13257509
0.13265438
0.13273457
0.13281567
0.1328977
0.13298065
0.13306453
0.13314934
0.13169802
0.13176346
0.13182964
0.13189659
0.1319643
0.13203278
0.13210205
0.13217211
0.13224298
0.13231466
0.13238716
0.1324605
0.13253468
0.13260971
0.1326856
0.13276237
0.13284001
0.13291855
0.13299799
0.13307833
0.13315958
0.13324173
0.13184045
0.13190376
0.13196779
0.13203256
0.13209806
0.13216431
0.13223133
0.13229912
0.1323677
0.13243706
0.13250722
0.13257819
0.13264998
0.1327226
0.13279606
0.13287037
0.13294554
0.13302157
0.13309849
0.1331763
0.13325499
0.13333456
0.13198195
0.13204319
0.13210511
0.13216776
0.13223111
0.1322952
0.13236003
0.13242561
0.13249195
0.13255905
0.13262693
0.1326956
0.13276507
0.13283534
0.13290643
0.13297835
0.13305111
0.13312472
0.13319918
0.13327451
0.13335071
0.13342777
0.13212252
0.13218173
0.13224161
0.13230219
0.13236346
0.13242544
0.13248814
0.13255156
0.13261572
0.13268062
0.13274629
0.13281271
0.13287992
0.13294791
0.1330167
0.13308629
0.1331567
0.13322794
0.13330002
0.13337295
0.13344672
0.13352133
0.13226216
0.13231941
0.1323773
0.13243586
0.13249509
0.13255502
0.13261563
0.13267696
0.132739
0.13280177
0.13286527
0.13292952
0.13299452
0.13306028
0.13312683
0.13319416
0.13326229
0.13333122
0.13340098
0.13347156
0.13354297
0.1336152
0.13240088
0.1324562
0.13251214
0.13256875
0.132626
0.13268392
0.13274251
0.1328018
0.13286177
0.13292246
0.13298385
0.13304598
0.13310883
0.13317244
0.13323679
0.13330192
0.13336782
0.13343452
0.13350201
0.13357031
0.13363942
0.13370933
0.13253865
0.1325921
0.13264615
0.13270084
0.13275616
0.13281213
0.13286876
0.13292605
0.13298402
0.13304267
0.13310202
0.13316207
0.13322284
0.13328433
0.13334657
0.13340955
0.13347328
0.13353779
0.13360308
0.13366916
0.13373603
0.13380369
0.13267546
0.13272709
0.1327793
0.13283213
0.13288557
0.13293963
0.13299434
0.13304969
0.1331057
0.13316238
0.13321973
0.13327777
0.13333651
0.13339595
0.13345611
0.133517
0.13357863
0.13364101
0.13370415
0.13376807
0.13383275
0.13389821
0.13281131
0.13286116
0.13291157
0.13296258
0.13301419
0.13306641
0.13311924
0.13317271
0.13322681
0.13328156
0.13333697
0.13339304
0.1334498
0.13350724
0.13356538
0.13362424
0.13368381
0.13374412
0.13380517
0.13386698
0.13392954
0.13399285
0.13294616
0.13299428
0.13304294
0.13309219
0.13314201
0.13319242
0.13324343
0.13329506
0.1333473
0.13340018
0.13345369
0.13350786
0.13356268
0.13361818
0.13367435
0.13373122
0.1337888
0.13384709
0.1339061
0.13396586
0.13402635
0.13408757
0.13308001
0.13312644
0.13317339
0.13322091
0.13326899
0.13331765
0.13336688
0.13341672
0.13346715
0.1335182
0.13356987
0.13362217
0.13367512
0.13372871
0.13378298
0.13383792
0.13389354
0.13394987
0.1340069
0.13406466
0.13412313
0.13418232
0.13321281
0.1332576
0.13330289
0.13334873
0.13339511
0.13344206
0.13348956
0.13353765
0.13358632
0.13363559
0.13368546
0.13373595
0.13378707
0.13383882
0.13389122
0.13394427
0.133998
0.13405241
0.13410751
0.13416332
0.13421983
0.13427704
0.13334456
0.13338774
0.13343141
0.13347561
0.13352034
0.13356562
0.13361144
0.13365783
0.13370478
0.13375232
0.13380044
0.13384916
0.13389849
0.13394844
0.13399903
0.13405025
0.13410213
0.13415467
0.1342079
0.13426181
0.1343164
0.13437168
0.13347521
0.13351682
0.13355892
0.13360153
0.13364465
0.1336883
0.13373248
0.13377721
0.13382249
0.13386834
0.13391475
0.13396176
0.13400935
0.13405755
0.13410636
0.13415581
0.13420588
0.13425661
0.134308
0.13436006
0.13441279
0.13446619
0.13360473
0.13364483
0.13368538
0.13372644
0.13376799
0.13381006
0.13385264
0.13389576
0.13393941
0.13398361
0.13402837
0.1340737
0.1341196
0.13416609
0.13421319
0.13426089
0.13430921
0.13435817
0.13440778
0.13445804
0.13450895
0.13456052
0.1337331
0.13377171
0.13381077
0.13385032
0.13389034
0.13393087
0.13397189
0.13401344
0.13405551
0.13409811
0.13414125
0.13418494
0.1342292
0.13427403
0.13431945
0.13436546
0.13441208
0.13445931
0.13450718
0.13455569
0.13460483
0.13465461
0.13386027
0.13389744
0.13393504
0.13397312
0.13401166
0.13405068
0.13409019
0.13413021
0.13417073
0.13421177
0.13425334
0.13429545
0.1343381
0.13438132
0.1344251
0.13446946
0.13451442
0.13455998
0.13460615
0.13465295
0.13470038
0.13474842
0.13398622
0.13402199
0.13405817
0.13409481
0.1341319
0.13416946
0.1342075
0.13424603
0.13428505
0.13432457
0.13436461
0.13440517
0.13444627
0.13448791
0.1345301
0.13457286
0.1346162
0.13466012
0.13470465
0.13474979
0.13479554
0.13484189
0.13411091
0.1341453
0.1341801
0.13421535
0.13425103
0.13428718
0.13432378
0.13436086
0.13439842
0.13443646
0.13447501
0.13451407
0.13455365
0.13459375
0.1346344
0.1346756
0.13471736
0.1347597
0.13480263
0.13484615
0.13489026
0.13493497
0.13423429
0.13426735
0.13430081
0.1343347
0.13436902
0.13440378
0.13443899
0.13447465
0.13451079
0.1345474
0.1345845
0.13462209
0.1346602
0.13469881
0.13473796
0.13477764
0.13481787
0.13485866
0.13490002
0.13494197
0.1349845
0.13502761
0.13435633
0.13438811
0.13442026
0.13445283
0.13448581
0.13451923