/*--------------------------------*- C++ -*----------------------------------*\
| =========                 |                                                 |
| \\      /  F ield         | OpenFOAM: The Open Source CFD Toolbox           |
|  \\    /   O peration     | Version:  2406                                  |
|   \\  /    A nd           | Website:  www.openfoam.com                      |
|    \\/     M anipulation  |                                                 |
\*---------------------------------------------------------------------------*/
FoamFile
{
    version     2.0;
    format      ascii;
    arch        "LSB;label=32;scalar=64";
    class       volScalarField;
    location    "0.005";
    object      omega;
}
// * * * * * * * * * * * * * * * * * * * * * * * * * * * * * * * * * * * * * //

dimensions      [0 0 -1 0 0 0 0];

internalField   nonuniform List<scalar> 
23203
(
17412.049
16892.77
16346.244
15778.324
15197.387
14610.029
14021.379
13435.43
12855.296
12283.416
11721.704
11171.674
10634.531
10111.242
9602.597
9109.2609
8631.8387
8171.0097
7727.9599
7306.1365
6904.5147
6518.1261
6145.3288
16647.888
16164.524
15657.428
15130.551
14590.962
14044.43
13495.56
12948.006
12404.675
11867.881
11339.48
10820.972
10313.58
9818.318
9336.0468
8867.5297
8413.5036
7974.7915
7552.475
7147.9088
6760.3338
6387.2387
6027.1254
15924.22
15472.761
15001.057
14511.336
14009.471
13500.432
12988.298
12476.384
11967.378
11463.463
10966.421
10477.718
9998.5781
9530.0391
9073.0017
8628.2791
8196.6464
7778.8869
7375.7894
6987.909
6614.7175
6254.8782
5907.5322
15236.034
14813.905
14374.392
13918.533
13451.217
12976.694
12498.551
12019.77
11542.82
11069.745
10602.239
10141.723
9689.4038
9246.3166
8813.372
8391.3878
7981.1139
7583.2326
7198.2948
6826.5236
6467.4974
6120.3528
5784.859
14579.95
14184.961
13774.978
13350.154
12914.589
12471.918
12025.281
11577.348
11130.371
10686.248
10246.579
9812.7264
9385.8592
8966.9931
8557.0213
8156.7356
7766.8326
7387.8914
7020.2997
6664.1007
6318.7543
5982.7751
13953.164
13583.368
13200.629
12804.377
12398.086
11984.877
11567.496
11148.323
10729.402
10312.482
9899.0626
9490.4351
9087.7193
8691.8937
8303.8174
7924.2419
7553.808
7193.0207
6842.1944
6501.3702
6170.2467
5848.2722
13353.306
13006.92
12649.382
12279.527
11900.311
11514.421
11124.26
10731.94
10339.309
9947.9689
9559.3142
9174.5578
8794.7607
8420.8537
8053.6533
7693.8674
7342.0915
6998.7901
6664.268
6338.6442
6021.8719
5713.8995
12778.269
12453.654
12119.487
11774.093
11419.989
11059.493
10694.702
10327.491
9959.5214
9592.2546
9226.9768
8864.8192
8506.778
8153.7314
7806.45
7465.6013
7131.7475
6805.3363
6486.6919
6176.0181
5873.4393
5579.109
12226.26
11921.9
11609.436
11286.751
10955.987
10619.137
10278.031
9934.3278
9589.5149
9244.9197
8901.722
8560.969
8223.5904
7890.4093
7562.1511
7239.447
6922.8346
6612.7562
6309.5602
6013.5142
5724.8379
5443.7577
11695.708
11410.208
11117.917
10816.343
10507.3
10192.499
9873.5325
9551.8603
9228.811
8905.5831
8583.2529
8262.785
7945.0416
7630.7913
7320.7154
7015.4123
6715.3993
6421.1154
6132.9272
5851.1414
5576.0251
5307.8271
11185.181
10917.259
10643.747
10361.825
10073.025
9778.8111
9480.5606
9179.5562
8876.9775
8573.9013
8271.305
7970.0717
7670.9978
7374.7982
7082.1118
6793.5054
6509.4772
6230.4606
5956.831
5688.9148
5426.9998
5171.3391
10693.384
10441.863
10185.858
9922.2571
9652.3493
9377.379
9098.5346
8816.9361
8533.6264
8249.5681
7965.6439
7682.6588
7401.3449
7122.3648
6846.316
6573.7343
6305.0975
6040.8295
5781.3056
5526.8589
5277.7833
5034.3302
10219.204
9982.9971
9743.3219
9496.8152
9244.5524
8987.5864
8726.9354
8463.5717
8198.4118
7932.3116
7666.0639
7400.3988
7135.9862
6873.4378
6613.3102
6356.108
6102.2868
5852.2568
5606.3867
5365.0072
5128.4105
4896.8436
9761.5268
9539.6566
9315.2494
9084.7222
8848.9673
8608.8683
8365.2919
8119.0769
7871.0245
7621.891
7372.3847
7123.1645
6874.8404
6627.9744
6383.0829
6140.6386
5901.073
5664.7791
5432.1141
5203.4009
4978.925
4758.9275
9319.413
9111.004
8900.8851
8685.3095
8465.0124
8240.7277
8013.1875
7783.1103
7551.1914
7318.095
7084.4502
6850.848
6617.8408
6385.9427
6155.6299
5927.3429
5701.4875
5478.437
5258.5336
5042.0883
4829.3776
4620.635
8892.0216
8696.2519
8499.5362
8297.974
8092.1657
7882.7199
7670.2507
7455.3685
7238.6718
7020.7397
6802.1265
6583.3593
6364.9354
6147.3218
5930.9558
5716.2449
5503.5683
5293.2776
5085.6976
4881.1256
4679.8263
4482.0247
8478.4879
8294.6067
8110.5044
7922.1119
7729.918
7534.4231
7336.1377
7135.5769
6933.2524
6729.6652
6525.3012
6320.6268
6116.0869
5912.1036
5709.0755
5507.3775
5307.3614
5109.3562
4913.6676
4720.5772
4530.3371
4343.1624
8078.0867
7905.4661
7733.266
7557.2564
7377.8627
7195.491
7010.5617
6823.5052
6634.7551
6444.7415
6253.8863
6062.5994
5871.276
5680.295
5490.0173
5300.7857
5112.9245
4926.739
4742.5154
4560.5184
4380.9864
4204.1236
7690.2234
7528.2551
7367.2607
7202.9345
7035.6053
6865.6012
6693.2654
6518.9547
6343.0331
6165.8668
5987.8196
5809.249
5630.5037
5451.9211
5273.826
5096.5298
4920.3292
4745.5061
4572.3263
4401.0371
4231.8625
4064.9955
7314.3229
7162.453
7012.089
6858.8133
6702.8594
6544.5155
6384.0584
6221.7801
6057.9834
5892.977
5727.0716
5560.5764
5393.7963
5227.0298
5060.5671
4894.689
4729.6654
4565.7547
4403.2022
4242.2376
4083.07
3925.8804
6949.992
6807.7232
6667.4283
6524.5723
6379.3671
6232.0323
6082.7905
5931.8781
5779.5443
5626.0467
5471.6484
5316.6146
5161.2099
5005.6964
4850.3315
4695.3665
4541.0454
4387.6034
4235.2655
4084.2438
3934.7322
3786.8995
6596.9039
6463.7632
6333.0079
6200.031
6064.9972
5928.0535
5789.3967
5649.2157
5507.7127
5365.1008
5221.6003
5077.4363
4932.8366
4788.0291
4643.2404
4498.6939
4354.6083
4211.1966
4068.6636
3927.2038
3786.9959
3648.1966
6254.8824
6130.4299
6008.7234
5885.0946
5759.6483
5632.5201
5503.8557
5373.8059
5242.533
5110.2108
4977.0219
4843.156
4708.8073
4574.1725
4439.4494
4304.8352
4170.5244
4036.7083
3903.5722
3771.2931
3640.0349
3509.9418
5923.8455
5807.6525
5694.5182
5579.7219
5463.3438
5345.4871
5226.2421
5105.7428
4984.1177
4861.5068
4738.06
4613.9352
4489.2963
4364.3117
4239.1524
4113.9907
3988.9984
3864.3458
3740.1993
3616.7189
3494.0534
3372.3351
5603.8265
5495.4811
5390.4614
5284.0075
5176.181
5067.0387
4956.6661
4845.1594
4732.621
4619.1623
4504.9047
4389.9782
4274.52
4158.6725
4042.5823
3926.3987
3810.2719
3694.3521
3578.7876
3463.7217
3349.2887
3235.6087
5294.9321
5194.0256
5096.6668
4998.0723
4898.2862
4797.3476
4695.3204
4592.2602
4488.2592
4383.4055
4277.7955
4171.5349
4064.737
3957.5211
3850.0112
3742.3352
3634.623
3527.0061
3419.6149
3312.5768
3206.0121
3100.0287
4997.3132
4903.4474
4813.3062
4722.1025
4629.8656
4536.6234
4442.4056
4347.27
4251.2752
4154.4953
4057.0051
3958.8898
3860.2417
3761.1594
3661.7466
3562.1113
3462.3649
3362.6208
3262.9928
3163.593
3064.5278
2965.8937
4711.1368
4623.9202
4540.5589
4456.2843
4371.1155
4285.0709
4198.1689
4110.4454
4021.941
3932.7167
3842.8325
3752.3547
3661.3566
3569.9182
3478.1251
3386.0676
3293.8398
3201.5386
3109.2623
3017.1083
2925.1698
2833.5322
4436.6284
4355.6718
4278.6601
4200.8654
4122.2987
4042.9697
3962.8916
3882.0783
3800.5695
3718.3963
3635.6135
3552.2727
3468.4311
3384.1524
3299.5061
3214.5664
3129.4119
3044.1242
2958.7869
2873.4837
2788.2955
2703.2968
4174.0194
4098.9324
4027.8427
3956.0837
3883.6617
3810.5794
3736.8434
3662.4628
3587.4531
3511.8455
3435.6743
3358.9831
3281.8154
3204.2209
3126.2552
3047.9785
2969.4551
2890.753
2811.9423
2733.0939
2654.2769
2575.5557
3923.5134
3853.9104
3788.3222
3722.1644
3655.4403
3588.1472
3520.2863
3451.8628
3382.8818
3313.3627
3243.3278
3172.8109
3101.8465
3030.4717
2958.7296
2886.6682
2814.3394
2741.7988
2669.1042
2596.315
2523.4895
2450.6823
3685.2588
3620.7634
3560.2695
3499.2928
3437.8354
3375.8911
3313.4564
3250.5318
3187.1209
3123.2274
3058.869
2994.0631
2928.8415
2863.2318
2797.266
2730.9809
2664.4174
2597.6199
2530.6354
2463.5126
2396.3
2329.0435
3459.3285
3399.5766
3343.7848
3287.5859
3230.9817
3173.9637
3116.525
3058.6618
3000.374
2941.6634
2882.5343
2823.0013
2763.0789
2702.7931
2642.1678
2581.2301
2520.0114
2458.5463
2396.8721
2335.0281
2273.0538
2210.987
3245.7095
3190.3505
3138.8859
3087.0802
3034.9351
2982.4411
2929.5888
2876.3715
2822.7853
2768.8293
2714.5031
2659.8127
2604.7686
2549.3851
2493.6815
2437.6775
2381.3962
2324.8641
2268.1104
2211.1659
2154.0619
2096.8292
3044.2992
2992.9981
2945.5047
2897.7272
2849.6681
2801.3169
2752.6633
2703.6983
2654.4155
2604.8109
2554.883
2504.6297
2454.0573
2403.1737
2351.9908
2300.524
2248.7892
2196.8058
2144.5958
2092.1829
2039.5914
1986.8455
2854.9083
2807.3471
2763.4891
2719.3967
2675.0727
2630.5069
2585.6879
2540.6057
2495.252
2449.6205
2403.7072
2357.5094
2311.0247
2264.2586
2217.2164
2169.909
2122.3475
2074.5451
2026.5175
1978.2822
1929.8575
1881.2619
2677.2668
2633.145
2592.6079
2551.8793
2510.9627
2469.8481
2428.5242
2386.9801
2345.2063
2303.195
2260.9399
2218.4366
2175.6815
2132.6724
2089.414
2045.9091
2002.1667
1958.1954
1914.0055
1869.6093
1825.0199
1780.2511
2511.0326
2470.0676
2432.5579
2394.8939
2357.0797
2319.106
2280.9614
2242.6349
2204.1164
2165.3969
2126.4687
2087.3258
2047.9632
2008.3766
1968.5644
1928.5291
1888.2737
1847.8042
1807.1266
1766.2488
1725.1799
1683.9293
2355.8032
2317.7304
2282.9756
2248.0985
2213.1043
2177.9839
2142.7265
2107.3211
2071.7573
2036.0256
2000.1174
1964.0254
1927.7433
1891.2664
1854.5893
1817.7118
1780.6338
1743.3579
1705.8877
1668.2272
1630.3818
1592.3576
2211.1273
2175.7
2143.4481
2111.1017
2078.6667
2046.1348
2013.4956
1980.7384
1947.8529
1914.8294
1881.6588
1848.3331
1814.845
1781.1886
1747.3584
1713.3496
1679.1613
1644.7921
1610.244
1575.5185
1540.618
1505.5455
2076.5172
2043.5059
2013.5248
1983.4734
1953.3581
1923.1714
1892.9036
1862.5443
1832.0836
1801.5118
1770.8197
1739.9987
1709.0412
1677.9401
1646.6896
1615.2838
1583.7184
1551.9917
1520.1018
1488.0489
1455.8334
1423.4559
1951.4595
1920.6517
1892.7284
1864.7558
1836.7407
1808.6767
1780.5544
1752.3642
1724.0966
1695.742
1667.2913
1638.736
1610.0678
1581.2794
1552.3641
1523.3158
1494.1288
1464.7991
1435.3241
1405.7017
1375.9305
1346.0093
1835.4261
1806.6256
1780.565
1754.4735
1728.3582
1702.2135
1676.0308
1649.8011
1623.5152
1597.1641
1570.7389
1544.2311
1517.6324
1490.9352
1464.1323
1437.2173
1410.1842
1383.0272
1355.7427
1328.327
1300.7776
1273.0919
1727.8829
1700.909
1676.5334
1652.1427
1627.7447
1603.3343
1578.9038
1554.4447
1529.9485
1505.4066
1480.8105
1456.1519
1431.4226
1406.615
1381.7217
1356.7359
1331.6514
1306.4622
1281.1625
1255.7488
1230.2165
1204.5624
1628.2983
1602.9851
1580.1324
1557.2786
1534.4319
1511.5878
1488.7394
1465.8788
1442.9981
1420.0892
1397.1441
1374.1548
1351.1134
1328.0123
1304.8441
1281.6021
1258.2795
1234.8702
1211.3682
1187.7681
1164.0658
1140.2565
1536.1491
1512.3447
1490.8678
1469.4023
1447.9564
1426.5264
1405.1059
1383.688
1362.2651
1340.8298
1319.3744
1297.8915
1276.3735
1254.8129
1233.2026
1211.5357
1189.8055
1168.0057
1146.1303
1124.1731
1102.1293
1079.9937
1450.9261
1428.4916
1408.2574
1388.0455
1367.8643
1347.7106
1327.5789
1307.4627
1287.3552
1267.2494
1247.1382
1227.0146
1206.8713
1186.7013
1166.4976
1146.2535
1125.9622
1105.6175
1085.2133
1064.7434
1044.2019
1023.584
1372.1382
1350.9471
1331.8352
1312.7552
1293.7156
1274.7141
1255.7455
1236.8039
1217.8832
1198.977
1180.0787
1161.1816
1142.279
1123.3642
1104.4306
1085.4714
1066.4802
1047.4508
1028.377
1009.2528
990.07204
970.82909
1299.3153
1279.2526
1261.1541
1243.0963
1225.0875
1207.126
1189.2073
1171.3259
1153.4764
1135.6528
1117.8491
1100.059
1082.2763
1064.4947
1046.7077
1028.9092
1011.0927
993.25221
975.38157
957.47483
939.52604
921.52913
1232.0106
1212.9717
1195.7888
1178.6542
1161.5765
1144.5542
1127.5834
1110.6594
1093.7769
1076.9307
1060.1151
1043.3245
1026.5531
1009.7947
993.04358
976.29359
959.53875
942.77309
925.99069
909.18566
892.35212
875.48416
1169.8017
1151.6919
1135.3364
1119.0362
1102.7997
1086.6261
1070.5117
1054.4524
1038.4435
1022.4802
1006.5573
990.66962
974.81166
958.97792
943.16277
927.36052
911.56546
895.77186
879.97399
864.16611
848.34249
832.49734
1112.2914
1095.025
1079.4177
1063.872
1048.3963
1032.9899
1017.6499
1002.3723
987.15316
971.98792
956.87196
941.80043
926.76833
911.77051
896.80172
881.8566
866.92976
852.01572
837.10899
822.20404
807.29527
792.37706
1059.1078
1042.6075
1027.6773
1012.8146
998.02731
983.31528
968.67587
954.1057
939.60105
925.15788
910.77198
896.43889
882.15402
867.91258
853.7097
839.54035
825.39943
811.28178
797.18214
783.09519
769.01555
754.93776
1009.9043
994.1001
979.78349
965.53942
951.37588
937.29287
923.28814
909.35872
895.50124
881.71207
867.98738
854.32309
840.71498
827.15863
813.64949
800.1829
786.75405
773.35805
759.98993
746.6446
733.3169
720.00156
964.35836
949.18745
935.4274
921.74458
908.14682
894.63437
881.2053
867.85699
854.58642
841.39033
828.26522
815.20738
802.21292
789.27778
776.39774
763.56843
750.78538
738.04397
725.33949
712.6671
700.02187
687.39875
922.17143
907.57717
894.32271
881.14977
868.06599
855.07181
842.16562
829.34511
816.60756
803.95005
791.36939
778.8622
766.42492
754.05381
741.74494
729.49427
717.2976
705.1506
693.04881
680.98766
668.96245
656.96834
883.06737
868.99888
856.2045
843.49555
830.87944
818.35684
805.92637
793.586
781.33332
769.16567
757.08018
745.07376
733.14314
721.28487
709.49534
697.77077
686.10724
674.50069
662.94693
651.44163
639.98031
628.55838
846.7916
833.2032
820.82826
808.54231
796.35257
784.25983
772.26297
760.36019
748.54935
736.82805
725.19368
713.64343
702.17431
690.78312
679.46653
668.22103
657.04296
645.92851
634.87374
623.87456
612.92673
602.02588
813.10977
799.96049
787.96876
776.06927
764.26902
752.56893
740.9681
729.46493
718.05752
706.74371
695.52112
684.3872
673.33919
662.37416
651.48901
640.68049
629.94517
619.2795
608.67976
598.1421
587.6625
577.23682
781.80658
769.05972
757.41891
745.8733
734.42967
723.08905
711.85072
700.71328
689.67502
678.734
667.88807
657.13488
646.4719
635.89644
625.40562
614.99641
604.66562
594.40993
584.22582
574.10968
564.0577
554.06595
752.68451
740.30721
728.98858
717.76783
706.65153
695.64082
684.73509
673.93315
663.23346
652.63428
642.13363
631.72939
621.41921
611.20061
601.07092
591.02733
581.06686
571.18638
561.3826
551.6521
541.99129
532.39644
725.5626
713.52547
702.50344
691.58172
680.76668
670.05951
659.45975
648.96636
638.57797
628.29299
618.10963
608.02594
598.03976
588.14879
578.35056
568.64245
559.02166
549.48526
540.03017
530.65315
521.35081
512.11961
700.27515
688.55197
677.8038
667.15814
656.62113
646.19404
635.87652
625.66766
615.56624
605.57082
595.67976
585.89126
576.20335
566.61389
557.12058
547.72096
538.41244
529.19225
520.05749
511.0051
502.03188
493.13446
676.67069
665.238
654.7435
644.35345
634.07384
623.90594
613.84952
603.90379
594.06766
584.3398
574.71874
565.2028
555.79018
546.47887
537.26674
528.15149
519.13068
510.20173
501.36188
492.60825
483.93781
475.34738
654.61083
643.44771
633.18891
623.03632
612.99572
603.06843
593.25429
583.55262
573.96243
564.48253
555.11156
545.84798
536.6901
527.63606
518.68389
509.83141
501.07634
492.41624
483.84852
475.37046
466.97917
458.67163
633.96919
623.05699
613.01795
603.08668
593.26875
583.56551
573.97689
564.50229
555.14081
545.89137
536.75272
527.72343
518.80194
509.98652
501.2753
492.66626
484.15724
475.74595
467.42993
459.2066
451.07324
443.02697
614.63047
603.95253
594.1191
584.3948
574.78502
565.29112
555.91308
546.65039
537.50225
528.46766
519.54546
510.73434
502.03283
493.43933
484.95206
476.56915
468.28855
460.10808
452.02544
444.03816
436.14367
428.33922
596.48953
586.03101
576.39062
566.86053
557.44597
548.14829
538.96754
529.90327
520.95475
512.12107
503.40115
494.79378
486.29758
477.91105
469.63252
461.46022
453.39222
445.42645
437.56073
429.79273
422.11999
414.53989
579.45056
569.19823
559.73969
550.39247
541.16162
532.04848
523.05317
514.17526
505.41412
496.76889
488.23859
479.82207
471.51805
463.32511
455.24168
447.26608
439.3965
431.63096
423.9674
416.40359
408.93719
401.56572
563.42626
553.36831
544.0817
534.90726
525.84986
516.91085
508.09038
499.38809
490.80338
482.33548
473.98346
465.74625
457.62263
449.61128
441.71073
433.91935
426.23545
418.65714
411.18246
403.80928
396.53537
389.35836
548.33707
538.46298
529.33946
520.32881
511.43573
502.66157
494.00649
485.4702
477.05214
468.7516
460.5677
452.49945
444.5457
436.70518
428.9765
421.35815
413.84847
406.4457
399.14795
391.95319
384.8593
377.864
534.1105
524.41089
515.4426
506.58772
497.85081
489.2332
480.73508
472.35618
464.09602
455.9539
447.92903
440.02045
432.22708
424.54773
416.98106
409.52564
402.17989
394.94213
387.81055
380.78322
373.85809
367.03299
520.68048
511.14695
502.3269
493.62065
485.03264
476.56416
468.21543
459.98624
451.87611
443.88441
436.01039
428.25314
420.61164
413.08475
405.67122
398.36964
391.17854
384.0963
377.12118
370.25135
363.48483
356.81954
507.98676
498.61182
489.93376
481.36977
472.92414
464.59816
456.39206
448.30566
440.33851
432.49004
424.75952
417.1461
409.6488
402.26655
394.99813
387.84222
380.79739
373.8621
367.03468
360.31337
353.69628
347.18141
495.97437
486.75132
478.20967
469.78224
461.47316
453.28373
445.21419
437.26437
429.43388
421.72216
414.12852
406.65217
399.29216
392.04747
384.91693
377.89929
370.99317
364.19709
357.50945
350.92855
344.45258
338.07962
484.59314
475.51598
467.10575
458.80975
450.63201
442.57378
434.63533
426.81652
419.11697
411.53617
404.07345
396.72806
389.4991
382.38558
375.3864
368.50034
361.72608
355.0622
348.50716
342.05932
335.71694
329.47816
473.79721
464.86055
456.57726
448.40812
440.35701
432.42518
424.61291
416.92007
409.34632
401.89116
394.55397
387.33402
380.23046
373.24234
366.36859
359.60805
352.95945
346.4214
339.99245
333.671
327.45538
321.34379
463.54463
454.74364
446.58327
438.53685
430.60814
422.79838
415.10785
407.53644
400.08383
392.74955
385.53302
378.43351
371.45024
364.58227
357.82858
351.18806
344.65947
338.2415
331.93272
325.7316
319.63651
313.64575
453.79699
445.12732
437.08625
429.15882
421.3487
413.65709
406.08429
398.63019
391.29451
384.0768
376.97648
369.99289
363.12525
356.37267
349.73417
343.20866
336.79497
330.49182
324.29782
318.21151
312.23131
306.35557
444.51905
435.97677
428.05173
420.23994
412.54496
404.96795
397.50924
390.16873
382.94615
375.84108
368.85296
361.98116
355.22493
348.58341
342.05565
335.6406
329.33714
323.14401
317.05989
311.08336
305.2129
299.44689
435.67847
427.26003
419.44806
411.74886
404.16587
396.70026
389.35233
382.12202
375.00907
368.01306
361.13349
354.36972
347.72104
341.18663
334.76556
328.45682
322.25932
316.17186
310.19314
304.32179
298.55635
292.89524
427.24547
418.94765
411.24608
403.6567
396.18287
388.82572
381.58557
374.46237
367.45587
360.56568
353.7913
347.13214
340.5875
334.15658
327.8385
321.63228
315.53685
309.55105
303.67364
297.90328
292.23854
286.67792
419.19263
411.01251
403.41889
395.93682
388.56955
381.3182
374.18309
367.16418
360.26124
353.47389
346.80166
340.24397
333.80014
327.46942
321.25094
315.14375
309.14683
303.25904
297.47919
291.80596
286.23799
280.77381
411.49463
403.42956
395.94167
388.5646
381.30152
374.15354
367.12096
360.20376
353.40173
346.7145
340.14161
333.68252
327.33657
321.10302
314.98104
308.9697
303.06802
297.27489
291.58915
286.00954
280.53471
275.16325
404.12805
396.1756
388.79141
381.51725
374.3562
367.30935
360.37701
353.55916
346.85561
340.266
333.7899
327.42678
321.176
315.03684
309.0085
303.09009
297.28064
291.5791
285.98431
280.49507
275.11007
269.82793
397.0712
389.22916
381.9468
374.77363
367.71263
360.76486
353.93066
347.21
340.60269
334.10842
327.72675
321.45717
315.29907
309.25176
303.31445
297.48628
291.76631
286.15351
280.64678
275.24494
269.94671
264.75075
390.30397
382.5703
375.38808
368.31412
361.35134
354.50079
347.76278
341.13731
334.62421
328.22316
321.93375
315.7555
309.68779
303.72997
297.88128
292.14087
286.50784
280.98119
275.55984
270.24265
265.02838
259.91573
383.80765
376.18049
369.09683
362.12047
355.25423
348.49916
341.85556
335.32345
328.90266
322.5929
316.39376
310.30477
304.32535
298.45486
292.69257
287.03765
281.48922
276.04631
270.70789
265.47282
260.33993
255.30793
377.56484
370.04247
363.05593
356.17566
349.40443
342.74323
336.19241
329.75197
323.42175
317.20148
311.09076
305.08915
299.19608
293.41092
287.73297
282.16144
276.69545
271.33408
266.07631
260.92104
255.86713
250.91334
371.55933
364.14016
357.2494
350.46385
343.78618
337.2174
330.75783
324.40749
318.16624
312.0338
306.00981
300.09382
294.2853
288.58364
282.98814
277.49805
272.11252
266.83064
261.65142
256.57381
251.59669
246.71884
365.776
358.45857
351.66235
344.97023
338.38481
331.90707
325.53735
319.27567
313.12189
307.07575
301.13692
295.30494
289.57931
283.95944
278.44465
273.0342
267.72728
262.523
257.42041
252.41847
247.5161
242.71211
360.20074
352.98369
346.28086
339.68098
333.18658
326.79862
320.51744
314.34308
308.27539
302.31414
296.459
290.70953
285.06526
279.52559
274.08989
268.75743
263.52742
258.399
253.37124
248.44315
243.61364
238.88159
354.82039
347.70244
341.09194
334.58319
328.17866
321.87931
315.68546
309.59716
303.61428
297.7366
291.96379
286.29546
280.73111
275.27019
269.91207
264.65606
259.50139
254.44721
249.49263
244.63668
239.87831
235.21642
349.62266
342.60263
336.08345
329.66479
323.34907
317.13722
311.02957
305.02616
299.1269
293.33156
287.63984
282.05133
276.56558
271.18205
265.90013
260.71914
255.63834
250.65691
245.77398
240.98859
236.29975
231.70637
344.5961
337.67286
331.24405
324.91451
318.68659
312.56121
306.53869
300.61911
294.80234
289.0882
283.47637
277.96649
272.55811
267.25071
262.04368
256.93639
251.92811
247.01803
242.20532
237.48905
232.86824
228.34185
339.72999
332.90249
326.56317
320.32183
314.18076
308.14087
302.2025
296.3657
290.63039
284.99636
279.46334
274.03096
268.69879
263.46633
258.333
253.29817
248.36113
243.52112
238.77731
234.1288
229.57465
225.11382
335.0144
328.28163
322.03093
315.87691
309.82179
303.86648
298.0113
292.25633
286.60148
281.04656
275.59131
270.23538
264.97834
259.81972
254.75895
249.79543
244.92846
240.15731
235.48117
230.89916
226.41037
222.01381
330.44004
323.80103
317.63815
311.5706
305.60058
299.72897
293.95609
288.28203
282.7067
277.22994
271.85148
266.57099
261.38807
256.30225
251.31298
246.41969
241.62169
236.91827
232.30865
227.79198
223.36735
219.03382
325.9983
319.45213
313.37626
307.39438
301.50863
295.71987
290.02844
284.4344
278.93771
273.53819
268.2356
263.02962
257.91985
252.90585
247.98709
243.16301
238.43294
233.7962
229.25202
224.79958
220.43801
216.16638
321.68119
315.22694
309.23732
303.34032
297.53804
291.83132
286.22049
280.70565
275.28673
269.96359
264.73598
259.60361
254.56608
249.62298
244.77379
240.01795
235.35484
230.78378
226.30404
221.91481
217.61525
213.40444
317.4813
311.11808
305.21394
299.40105
293.68145
288.05597
282.52495
277.08849
271.74653
266.49892
261.34545
256.28582
251.31967
246.44657
241.66605
236.97755
232.38048
227.87417
223.45791
219.13093
214.89238
210.74141
313.39175
307.11869
301.29927
295.56973
289.93204
284.38703
278.93503
273.57615
268.31034
263.13746
258.05731
253.0696
248.17399
243.37006
238.65734
234.03532
229.50341
225.06096
220.70729
216.44163
212.26318
208.1711
309.40621
303.22243
297.48699
291.84003
286.28348
280.81817
275.44442
270.16234
264.9719
259.87297
254.86534
249.94875
245.12286
240.38728
235.74156
231.18519
226.7176
222.33816
218.04621
213.84102
209.7218
205.68772
305.5188
299.42344
293.77121
288.20608
282.72992
277.34354
272.04727
266.84123
261.72538
256.69961
251.76373
246.91748
242.16054
237.49253
232.91301
228.42148
224.01741
219.70018
215.46915
211.3236
207.26277
203.28585
301.72413
295.7163
290.14652
284.66245
279.26591
273.9577
268.73815
263.60739
258.56537
253.61201
248.74712
243.97045
239.28169
234.68047
230.16638
225.73894
221.39761
217.14181
212.97091
208.88421
204.88098
200.96043
298.01717
292.09601
286.60791
281.20412
275.88643
270.65563
265.51204
260.45579
255.48686
250.60515
245.8105
241.10265
236.48132
231.94616
227.49675
223.13264
218.85331
214.65819
210.54666
206.51807
202.57168
198.70673
294.39332
288.55793
283.15072
277.82644
272.58684
267.43267
262.36428
257.38179
252.48519
247.67439
242.94922
238.30947
233.75484
229.28499
224.89954
220.59803
216.37996
212.2448
208.19192
204.2207
200.33042
196.52035
290.84831
285.09779
279.77068
274.52512
269.36282
264.28453
259.29057
254.38108
249.55606
244.81542
240.15901
235.58661
231.09795
226.6927
222.37048
218.13086
213.97335
209.89743
205.9025
201.98794
198.15308
194.39718
287.37819
281.71164
276.46384
271.2962
266.21041
261.20721
256.28692
251.44967
246.69548
242.02426
237.43587
232.9301
228.50669
224.16532
219.90564
215.7272
211.62956
207.61219
203.67452
199.81595
196.03581
192.3334
283.97933
278.39585
273.22652
268.13601
263.12594
258.19704
253.34964
248.58388
243.89977
239.29723
234.77612
230.33626
225.97739
221.6992
217.50135
213.38341
209.34495
205.38545
201.50438
197.70112
193.97505
190.32548
280.64837
275.14703
270.05536
265.04115
260.106
255.25062
250.47534
245.7803
241.16551
236.63091
232.17637
227.8017
223.50666
219.29095
215.15424
211.09612
207.11616
203.21388
199.38874
195.64015
191.96751
188.37013
277.38221
271.96209
266.94724
262.00852
257.14748
252.36483
247.66089
243.0358
238.48959
234.02219
229.63348
225.32328
221.09136
216.93744
212.86119
208.86222
204.9401
201.09438
197.32452
193.62996
190.01011
186.46431
274.178
268.83817
263.89931
259.03525
254.24751
249.53678
244.9034
240.3475
235.8691
231.46816
227.14455
222.89812
218.72862
214.6358
210.61932
206.67883
202.81391
199.02409
195.30888
191.66773
188.10005
184.60521
271.03314
265.77266
260.90894
256.1187
251.40344
246.76385
242.20023
237.71274
233.30141
228.96618
224.70695
220.52356
216.41579
212.38337
208.426
204.54333
200.73494
197.0004
193.33921
189.75084
186.23473
182.79025
267.94523
262.76318
257.97373
253.25648
248.61289
244.04361
239.54897
235.12912
230.78409
226.51383
222.31825
218.19719
214.15044
210.17774
206.27881
202.45329
198.70079
195.02089
191.4131
187.8769
184.41176
181.01705
264.91212
259.80755
255.09152
250.44641
245.87364
241.37387
236.94742
232.59442
228.31493
224.1089
219.97623
215.91678
211.93035
208.01669
204.17552
200.4065
196.70925
193.08335
189.52834
186.04371
182.62893
179.28342
261.93185
256.90382
252.26034
247.68651
243.18374
238.75265
234.39357
230.10665
225.89192
221.74936
217.67888
213.68032
209.75351
205.8982
202.11412
198.40093
194.75828
191.18576
187.68291
184.24925
180.88425
177.58734
259.00267
254.05023
249.4784
244.975
240.54136
236.17813
231.88562
227.66398
223.51325
219.4334
215.42435
211.48596
207.61806
203.82041
200.09274
196.43474
192.84605
189.32627
185.87497
182.49167
179.17586
175.92699
256.12298
251.24516
246.74411
242.31025
237.9449
233.64868
229.42192
225.26475
221.17723
217.15933
213.21097
209.33203
205.52232
201.78163
198.1097
194.50621
190.97083
187.50317
184.10281
180.76927
177.50206
174.30065
253.29136
248.48719
244.05599
239.69079
235.39285
231.16281
227.00096
222.90746
218.88236
214.92563
211.03721
207.21697
203.46474
199.78031
196.16343
192.6138
189.13108
185.7149
182.36485
179.08048
175.86129
172.70676
250.50646
245.77496
241.41271
237.11526
232.88386
228.71912
224.62135
220.5907
216.62721
212.73088
208.90163
205.13935
201.44388
197.815
194.25248
190.75603
187.32533
183.96
180.65964
177.42382
174.25207
171.14386
247.76705
243.10723
238.81299
234.58238
230.41662
226.31632
222.28177
218.31313
214.41045
210.57372
206.80288
203.09781
199.45836
195.88433
192.37549
188.93155
185.55219
182.23707
178.9858
175.79793
172.67302
169.61056
245.07191
240.48276
236.25559
232.09089
227.98988
223.95313
219.98095
216.07349
212.2308
208.45288
204.73966
201.09105
197.50689
193.98699
190.53113
187.13902
183.81036
180.54481
177.34199
174.20148
171.12282
168.10554
242.41978
237.9003
233.73924
229.63954
225.60236
221.62828
217.7176
213.87048
210.08696
206.36705
202.71069
199.11778
195.58817
192.12169
188.7181
185.37715
182.09853
178.88192
175.72693
172.63317
169.60019
166.62752
239.80934
235.35854
231.26264
227.22699
223.25274
219.34045
215.49041
211.70278
207.97761
204.31491
200.71463
197.17667
193.70088
190.2871
186.9351
183.64463
180.41541
177.2471
174.13934
171.09173
168.10385
165.17523
237.23916
232.85602
228.82434
224.85183
220.93961
217.08822
213.29796
209.56899
205.90137
202.29509
198.75012
195.26635
191.84366
188.48188
185.18079
181.94014
178.75966
175.63903
172.57788
169.57585
166.63249
163.74737
234.70761
230.39116
226.42277
222.51248
218.66139
214.87005
211.13874
207.46761
203.85673
200.3061
196.81568
193.38538
190.01508
186.7046
183.45375
180.26227
177.12991
174.05634
171.04122
168.08418
165.1848
162.34264
232.21288
227.96215
224.05614
220.2072
216.41639
212.68425
209.01106
205.39697
201.84206
198.34633
194.90974
191.5322
188.21359
184.95375
181.75248
178.60955
175.52468
172.49759
169.52793
166.61532
163.75938
160.95966
229.7529
225.56697
221.72248
217.93403
214.20267
210.52893
206.91308
203.35528
199.8556
196.41404
193.03057
189.70511
186.43753
183.22769
180.07538
176.98039
173.94245
170.96127
168.03651
165.16781
162.3548
159.59702
227.32539
223.20339
219.41959
215.69084
212.01815
208.40205
204.8428
201.34056
197.89541
194.50734
191.17634
187.90231
184.68514
181.52469
178.42077
175.37315
172.38158
169.44577
166.5654
163.74011
160.96953
158.25324
224.92783
220.86896
217.14508
213.47528
209.86054
206.30137
202.79804
199.3507
195.95942
192.62422
189.34506
186.12187
182.95454
179.84292
176.78683
173.78605
170.84034
167.94941
165.11295
162.33062
159.60203
156.92678
222.55755
218.56103
214.8964
211.28487
207.72742
204.22453
200.77649
197.38344
194.04544
190.76253
187.53466
184.36177
181.24374
178.18044
175.17169
172.21728
169.31697
166.47047
163.67748
160.93767
158.25067
155.61607
220.21169
216.27687
212.67085
209.117
205.61624
202.16907
198.77576
195.43645
192.15121
188.92007
185.74299
182.61991
179.55072
176.53529
173.57344
170.66496
167.80963
165.00716
162.25726
159.5596
156.91381
154.31951
217.88737
214.01364
210.46571
206.969
203.52442
200.13247
196.7934
193.50736
190.27442
187.0946
183.96788
180.89419