/*--------------------------------*- C++ -*----------------------------------*\
| =========                 |                                                 |
| \\      /  F ield         | OpenFOAM: The Open Source CFD Toolbox           |
|  \\    /   O peration     | Version:  2406                                  |
|   \\  /    A nd           | Website:  www.openfoam.com                      |
|    \\/     M anipulation  |                                                 |
\*---------------------------------------------------------------------------*/
FoamFile
{
    version     2.0;
    format      ascii;
    arch        "LSB;label=32;scalar=64";
    class       volScalarField;
    location    "0.005";
    object      p;
}
// * * * * * * * * * * * * * * * * * * * * * * * * * * * * * * * * * * * * * //

dimensions      [1 -1 -2 0 0 0 0];

internalField   nonuniform List<scalar> 
23203
(
100423.91
100436.51
100449.25
100461.52
100474.04
100487
100500.36
100514.08
100528.18
100542.62
100557.4
100572.5
100587.91
100603.61
100619.58
100635.8
100652.26
100668.92
100685.74
100702.67
100719.72
100736.89
100754.16
100457.73
100469.54
100481.59
100493.21
100505.04
100517.28
100529.9
100542.88
100556.21
100569.89
100583.9
100598.25
100612.91
100627.86
100643.1
100658.61
100674.35
100690.32
100706.45
100722.73
100739.14
100755.7
100772.36
100490.87
100501.93
100513.27
100524.25
100535.45
100547.03
100558.97
100571.26
100583.89
100596.87
100610.18
100623.82
100637.77
100652.03
100666.57
100681.39
100696.45
100711.74
100727.23
100742.87
100758.68
100774.65
100790.72
100523.06
100533.39
100544.07
100554.49
100565.12
100576.11
100587.45
100599.11
100611.11
100623.44
100636.1
100649.08
100662.38
100675.98
100689.87
100704.03
100718.46
100733.11
100747.97
100763.01
100778.23
100793.63
100809.13
100553.95
100563.56
100573.78
100583.77
100593.94
100604.43
100615.24
100626.35
100637.78
100649.53
100661.59
100673.97
100686.66
100699.65
100712.93
100726.49
100740.3
100754.35
100768.62
100783.09
100797.76
100812.62
100583.51
100592.63
100602.47
100612.11
100621.88
100631.94
100642.28
100652.91
100663.83
100675.06
100686.59
100698.42
100710.56
100722.99
100735.71
100748.7
100761.95
100775.44
100789.16
100803.09
100817.24
100831.56
100612.04
100620.69
100630.16
100639.49
100648.92
100658.6
100668.54
100678.74
100689.22
100699.99
100711.04
100722.39
100734.02
100745.94
100758.14
100770.61
100783.34
100796.32
100809.53
100822.95
100836.6
100850.41
100639.48
100647.68
100656.82
100665.87
100675.01
100684.37
100693.97
100703.81
100713.91
100724.27
100734.9
100745.81
100757
100768.46
100780.19
100792.19
100804.44
100816.94
100829.67
100842.63
100855.8
100869.12
100665.63
100673.5
100682.38
100691.21
100700.12
100709.22
100718.54
100728.07
100737.84
100747.86
100758.13
100768.65
100779.44
100790.5
100801.81
100813.39
100825.21
100837.27
100849.56
100862.07
100874.8
100887.67
100690.58
100698.17
100706.84
100715.51
100724.25
100733.14
100742.23
100751.51
100761.01
100770.73
100780.69
100790.88
100801.33
100812.03
100822.97
100834.16
100845.59
100857.26
100869.15
100881.25
100893.56
100906.01
100714.4
100721.72
100730.21
100738.78
100747.38
100756.12
100765.02
100774.1
100783.38
100792.86
100802.55
100812.47
100822.62
100833.01
100843.63
100854.48
100865.56
100876.87
100888.4
100900.13
100912.06
100924.13
100737.24
100744.25
100752.56
100761.02
100769.53
100778.15
100786.91
100795.84
100804.94
100814.23
100823.71
100833.4
100843.3
100853.41
100863.75
100874.31
100885.09
100896.08
100907.28
100918.68
100930.26
100941.98
100758.57
100765.48
100773.74
100782.19
100790.66
100799.21
100807.89
100816.71
100825.68
100834.82
100844.13
100853.63
100863.33
100873.22
100883.33
100893.63
100904.15
100914.86
100925.76
100936.86
100948.14
100959.53
100779.05
100785.97
100794.04
100802.41
100810.84
100819.34
100827.96
100836.71
100845.59
100854.62
100863.81
100873.16
100882.7
100892.41
100902.32
100912.41
100922.7
100933.17
100943.82
100954.65
100965.65
100976.76
100798.65
100804.96
100813.01
100821.48
100829.97
100838.49
100847.1
100855.82
100864.65
100873.62
100882.72
100891.97
100901.38
100910.96
100920.71
100930.63
100940.72
100950.99
100961.42
100972.02
100982.78
100993.63
100816.75
100822.62
100830.83
100839.49
100848.08
100856.66
100865.31
100874.04
100882.87
100891.81
100900.87
100910.05
100919.38
100928.85
100938.48
100948.26
100958.2
100968.29
100978.54
100988.94
100999.49
101010.11
100833.63
100839.91
100848.29
100856.84
100865.4
100873.99
100882.66
100891.42
100900.26
100909.2
100918.24
100927.39
100936.66
100946.06
100955.6
100965.28
100975.09
100985.05
100995.15
101005.38
101015.75
101026.18
100850.56
100855.98
100863.73
100872.64
100881.49
100890.24
100899.03
100907.87
100916.77
100925.75
100934.81
100943.96
100953.22
100962.58
100972.07
100981.67
100991.4
101001.25
101011.22
101021.32
101031.54
101041.81
100865.41
100870.48
100878.78
100888.14
100896.98
100905.73
100914.57
100923.48
100932.45
100941.48
100950.59
100959.77
100969.03
100978.39
100987.85
100997.41
101007.08
101016.85
101026.73
101036.72
101046.82
101056.96
100880.07
100885.08
100892.83
100901.69
100910.94
100920.02
100929.06
100938.12
100947.22
100956.35
100965.54
100974.78
100984.09
100993.47
101002.93
101012.47
101022.11
101031.83
101041.65
101051.56
101061.56
101071.59
100893.24
100897.72
100905.24
100914.83
100924.67
100933.76
100942.82
100951.96
100961.16
100970.4
100979.67
100988.99
100998.36
101007.79
101017.27
101026.83
101036.46
101046.16
101055.94
101065.79
101075.73
101085.68
100905.85
100910.04
100917.89
100927.15
100936.43
100945.97
100955.38
100964.76
100974.14
100983.53
100992.94
101002.37
101011.83
101021.33
101030.87
101040.46
101050.1
101059.8
101069.57
101079.39
101089.29
101099.18
100917.33
100920.95
100928.62
100937.77
100947.81
100958.04
100967.47
100976.88
100986.35
100995.86
101005.39
101014.93
101024.49
101034.07
101043.68
101053.32
101063.01
101072.73
101082.5
101092.32
101102.2
101112.06
100928.19
100931.3
100939.07
100948.87
100958.58
100968.11
100978.01
100987.8
100997.53
101007.23
101016.92
101026.61
101036.29
101045.98
101055.68
101065.39
101075.13
101084.9
101094.69
101104.53
101114.41
101124.25
100938.17
100940.62
100948.25
100958.12
100967.63
100977.93
100988.59
100998.37
101008.09
101017.87
101027.67
101037.47
101047.26
101057.05
101066.84
101076.64
101086.45
101096.27
101106.11
101115.98
101125.88
101135.73
100947.7
100949.54
100957.1
100967.33
100977.55
100987.34
100997.11
101007.36
101017.48
101027.5
101037.47
101047.42
101057.34
101067.25
101077.14
101087.03
101096.92
101106.81
101116.71
101126.62
101136.56
101146.44
100956.75
100958.21
100965.52
100975.66
100985.75
100995.12
101005.54
101016.55
101026.68
101036.61
101046.59
101056.59
101066.59
101076.59
101086.57
101096.55
101106.52
101116.48
101126.45
101136.42
101146.41
101156.33
100965.61
100966.82
100974.05
100984.05
100994.17
101003.91
101013.34
101023.91
101034.99
101044.96
101054.88
101064.91
101074.97
101085.04
101095.11
101105.16
101115.22
101125.26
101135.3
101145.34
101155.38
101165.36
100973.98
100975.11
100982.31
100992.11
101002.13
101011.97
101021.47
101031.29
101041.52
101051.85
101062.05
101072.23
101082.4
101092.56
101102.72
101112.86
101122.99
101133.11
101143.22
101153.33
101163.45
101173.49
100981.73
100982.82
100989.97
100999.49
101009.23
101018.94
101028.49
101037.27
101047.39
101058.63
101068.89
101078.94
101089.07
101099.26
101109.46
101119.66
101129.85
101140.04
101150.22
101160.4
101170.57
101180.68
100988.92
100989.94
100997.05
101006.3
101015.75
101025.2
101034.72
101044.1
101053.27
101063.8
101074.96
101084.98
101094.98
101105.13
101115.34
101125.57
101135.81
101146.05
101156.28
101166.52
101176.75
101186.91
100995.59
100996.5
101003.56
101012.6
101021.81
101031.09
101040.58
101050.21
101059.61
101069.02
101078.96
101089.4
101099.73
101110.01
101120.29
101130.57
101140.86
101151.14
101161.42
101171.7
101181.98
101192.19
101001.77
101002.49
101009.46
101018.26
101027.19
101036.19
101045.4
101054.79
101064.09
101072.92
101083.18
101094.27
101104.42
101114.45
101124.61
101134.84
101145.1
101155.38
101165.67
101175.97
101186.28
101196.52
101007.57
101008.02
101014.87
101023.46
101032.16
101040.95
101049.96
101059.22
101068.65
101077.97
101086.74
101096.88
101108.04
101118.18
101128.18
101138.32
101148.54
101158.79
101169.07
101179.36
101189.68
101199.93
101013.03
101013.15
101019.83
101028.21
101036.67
101045.22
101054
101063.03
101072.28
101081.63
101090.83
101099.78
101110.17
101121.24
101131.17
101141.11
101151.22
101161.42
101171.65
101181.92
101192.21
101202.46
101018.22
101017.94
101024.42
101032.58
101040.81
101049.12
101057.67
101066.48
101075.54
101084.81
101094.19
101103.34
101112.58
101122.51
101132.91
101143.06
101153.16
101163.3
101173.49
101183.7
101193.94
101204.15
101023.18
101022.45
101028.69
101036.63
101044.61
101052.67
101060.98
101069.53
101078.32
101087.32
101096.49
101105.58
101114.19
101124.12
101134.84
101144.74
101154.6
101164.59
101174.66
101184.78
101194.94
101205.08
101027.94
101026.74
101032.7
101040.4
101048.13
101055.93
101063.97
101072.27
101080.81
101089.56
101098.54
101107.68
101116.69
101125.12
101134.92
101145.75
101155.61
101165.36
101175.25
101185.23
101195.27
101205.31
101032.52
101030.83
101036.49
101043.94
101051.41
101058.94
101066.71
101074.74
101083
101091.49
101100.18
101109.07
101118.04
101126.86
101135.47
101145.49
101156.15
101165.73
101175.34
101185.13
101195.01
101204.91
101036.94
101034.77
101040.1
101047.29
101054.49
101061.74
101069.24
101076.99
101084.98
101093.2
101101.64
101110.29
101119.15
101128.11
101136.89
101145.73
101155.1
101164.92
101174.66
101184.39
101194.16
101203.94
101041.21
101038.57
101043.57
101050.48
101057.41
101064.37
101071.57
101079.03
101086.72
101094.64
101102.77
101111.1
101119.62
101128.28
101136.85
101145.04
101154.54
101164.77
101174.14
101183.49
101192.99
101202.56
101045.35
101042.25
101046.91
101053.54
101060.18
101066.85
101073.75
101080.91
101088.31
101095.93
101103.77
101111.81
101120.06
101128.5
101137.06
101145.53
101153.57
101162.86
101173.01
101182.24
101191.43
101200.75
101049.35
101045.84
101050.14
101056.49
101062.84
101069.2
101075.79
101082.64
101089.74
101097.05
101104.58
101112.32
101120.25
101128.37
101136.66
101145.01
101153.23
101161.4
101170.86
101180.77
101189.7
101198.66
101053.22
101049.32
101053.28
101059.33
101065.38
101071.44
101077.73
101084.27
101091.05
101098.06
101105.29
101112.73
101120.37
101128.21
101136.24
101144.44
101152.7
101160.75
101169.21
101178.16
101187.1
101196.01
101056.95
101052.71
101056.33
101062.08
101067.83
101073.58
101079.56
101085.79
101092.26
101098.95
101105.86
101112.99
101120.31
101127.84
101135.56
101143.46
101151.52
101159.49
101166.9
101175.46
101184.89
101193.48
101060.55
101056.01
101059.29
101064.74
101070.19
101075.63
101081.29
101087.21
101093.36
101099.74
101106.33
101113.13
101120.14
101127.35
101134.74
101142.31
101150.06
101157.88
101165.62
101173.33
101181.61
101190.41
101064
101059.2
101062.16
101067.31
101072.46
101077.59
101082.94
101088.54
101094.38
101100.44
101106.71
101113.2
101119.88
101126.77
101133.83
101141.07
101148.47
101155.99
101163.5
101170.8
101179.02
101187.68
101067.3
101062.29
101064.93
101069.78
101074.63
101079.47
101084.51
101089.8
101095.32
101101.06
101107.02
101113.19
101119.56
101126.12
101132.87
101139.8
101146.9
101154.17
101161.57
101168.91
101175.87
101183.85
101070.46
101065.28
101067.61
101072.17
101076.73
101081.26
101086
101090.98
101096.2
101101.63
101107.27
101113.12
101119.18
101125.43
101131.88
101138.5
101145.3
101152.27
101159.4
101166.61
101173.78
101180.99
101073.48
101068.15
101070.2
101074.46
101078.73
101082.97
101087.41
101092.1
101097.01
101102.13
101107.46
101113.01
101118.75
101124.69
101130.81
101137.12
101143.59
101150.22
101157.01
101163.89
101170.74
101177.42
101076.36
101070.91
101072.69
101076.66
101080.65
101084.61
101088.76
101093.15
101097.76
101102.58
101107.62
101112.85
101118.29
101123.93
101129.75
101135.75
101141.93
101148.27
101154.77
101161.43
101168.2
101175.04
101079.11
101073.57
101075.07
101078.77
101082.49
101086.17
101090.04
101094.15
101098.47
101103
101107.74
101112.68
101117.82
101123.15
101128.67
101134.36
101140.23
101146.26
101152.44
101158.74
101165.15
101171.58
101081.74
101076.11
101077.36
101080.8
101084.25
101087.66
101091.27
101095.1
101099.14
101103.39
101107.84
101112.49
101117.34
101122.38
101127.61
101133.01
101138.59
101144.33
101150.24
101156.29
101162.48
101168.84
101084.25
101078.56
101079.56
101082.74
101085.94
101089.1
101092.44
101096.01
101099.78
101103.76
101107.93
101112.3
101116.87
101121.63
101126.57
101131.69
101136.98
101142.43
101148.03
101153.78
101159.65
101165.66
101086.68
101080.92
101081.68
101084.61
101087.57
101090.49
101093.58
101096.89
101100.4
101104.12
101108.03
101112.13
101116.42
101120.91
101125.57
101130.42
101135.43
101140.62
101145.96
101151.44
101157.08
101162.9
101089.02
101083.19
101083.72
101086.41
101089.14
101091.83
101094.69
101097.75
101101.02
101104.48
101108.14
101111.98
101116.01
101120.23
101124.63
101129.21
101133.95
101138.86
101143.92
101149.12
101154.45
101159.96
101091.31
101085.4
101085.69
101088.16
101090.68
101093.15
101095.78
101098.62
101101.65
101104.87
101108.28
101111.88
101115.66
101119.63
101123.77
101128.09
101132.58
101137.23
101142.04
101147
101152.1
101157.39
101093.55
101087.55
101087.61
101089.88
101092.19
101094.46
101096.87
101099.49
101102.3
101105.3
101108.47
101111.83
101115.37
101119.1
101122.99
101127.06
101131.3
101135.69
101140.25
101144.94
101149.77
101154.77
101095.78
101089.67
101089.5
101091.57
101093.7
101095.77
101097.99
101100.4
101103
101105.78
101108.73
101111.87
101115.18
101118.67
101122.33
101126.16
101130.16
101134.32
101138.63
101143.09
101147.68
101152.47
101098.01
101091.77
101091.38
101093.27
101095.23
101097.12
101099.15
101101.37
101103.76
101106.34
101109.08
101112
101115.09
101118.36
101121.79
101125.39
101129.16
101133.08
101137.16
101141.38
101145.73
101150.27
101100.28
101093.9
101093.27
101095
101096.8
101098.53
101100.38
101102.41
101104.62
101107
101109.54
101112.26
101115.14
101118.19
101121.4
101124.78
101128.33
101132.03
101135.88
101139.87
101143.99
101148.31
101102.64
101096.11
101095.24
101096.8
101098.46
101100.03
101101.72
101103.58
101105.6
101107.79
101110.15
101112.66
101115.34
101118.19
101121.19
101124.36
101127.68
101131.17
101134.8
101138.57
101142.48
101146.59
101105.15
101098.5
101097.37
101098.77
101100.28
101101.69
101103.21
101104.9
101106.75
101108.76
101110.92
101113.24
101115.73
101118.37
101121.17
101124.13
101127.24
101130.51
101133.93
101137.48
101141.17
101145.04
101107.8
101101.06
101099.68
101100.91
101102.27
101103.53
101104.88
101106.4
101108.08
101109.91
101111.89
101114.03
101116.32
101118.76
101121.37
101124.12
101127.03
101130.09
101133.3
101136.65
101140.13
101143.79
101110.62
101103.78
101102.16
101103.23
101104.46
101105.57
101106.77
101108.12
101109.63
101111.28
101113.08
101115.03
101117.13
101119.39
101121.8
101124.35
101127.06
101129.92
101132.92
101136.06
101139.33
101142.79
101113.58
101106.69
101104.9
101105.8
101106.89
101107.84
101108.88
101110.07
101111.41
101112.89
101114.51
101116.28
101118.2
101120.26
101122.47
101124.84
101127.35
101130.01
101132.81
101135.74
101138.81
101142.06
101116.71
101109.83
101107.92
101108.66
101109.58
101110.38
101111.25
101112.27
101113.44
101114.75
101116.19
101117.78
101119.51
101121.39
101123.42
101125.59
101127.9
101130.37
101132.97
101135.71
101138.58
101141.63
101120.02
101113.19
101111.18
101111.76
101112.52
101113.16
101113.87
101114.72
101115.72
101116.86
101118.13
101119.54
101121.09
101122.79
101124.63
101126.61
101128.73
101131
101133.41
101135.95
101138.62
101141.47
101123.51
101116.73
101114.64
101115.07
101115.68
101116.16
101116.72
101117.42
101118.25
101119.22
101120.32
101121.56
101122.94
101124.45
101126.11
101127.9
101129.84
101131.93
101134.14
101136.49
101138.97
101141.63
101127.17
101120.45
101118.29
101118.58
101119.04
101119.38
101119.79
101120.34
101121.02
101121.82
101122.76
101123.83
101125.04
101126.38
101127.86
101129.48
101131.23
101133.13
101135.16
101137.32
101139.61
101142.07
101131
101124.35
101122.12
101122.28
101122.6
101122.81
101123.08
101123.48
101124.01
101124.67
101125.45
101126.36
101127.4
101128.57
101129.88
101131.32
101132.9
101134.61
101136.46
101138.44
101140.54
101142.81
101135.01
101128.43
101126.14
101126.17
101126.37
101126.44
101126.58
101126.84
101127.23
101127.74
101128.37
101129.13
101130.01
101131.02
101132.16
101133.43
101134.84
101136.38
101138.05
101139.85
101141.76
101143.86
101139.19
101132.67
101130.33
101130.24
101130.32
101130.27
101130.29
101130.42
101130.67
101131.04
101131.53
101132.13
101132.86
101133.72
101134.7
101135.81
101137.05
101138.42
101139.92
101141.54
101143.27
101145.19
101143.54
101137.08
101134.69
101134.49
101134.45
101134.3
101134.19
101134.2
101134.33
101134.56
101134.91
101135.37
101135.96
101136.66
101137.49
101138.44
101139.52
101140.73
101142.06
101143.51
101145.07
101146.81
101148.05
101141.66
101139.22
101138.92
101138.77
101138.51
101138.29
101138.18
101138.19
101138.29
101138.51
101138.84
101139.28
101139.84
101140.52
101141.32
101142.24
101143.29
101144.46
101145.74
101147.14
101148.71
101152.72
101146.39
101143.9
101143.51
101143.26
101142.89
101142.57
101142.35
101142.24
101142.23
101142.32
101142.52
101142.83
101143.25
101143.79
101144.44
101145.22
101146.11
101147.13
101148.25
101149.48
101150.88
101157.54
101151.27
101148.75
101148.26
101147.91
101147.45
101147.03
101146.71
101146.49
101146.36
101146.34
101146.41
101146.59
101146.88
101147.28
101147.8
101148.43
101149.17
101150.04
101151
101152.08
101153.31
101162.49
101156.29
101153.73
101153.16
101152.72
101152.17
101151.66
101151.24
101150.91
101150.68
101150.54
101150.5
101150.56
101150.72
101150.99
101151.37
101151.87
101152.47
101153.19
101154
101154.92
101156.01
101167.57
101161.44
101158.85
101158.2
101157.68
101157.04
101156.44
101155.93
101155.51
101155.17
101154.93
101154.77
101154.72
101154.76
101154.91
101155.16
101155.52
101155.99
101156.56
101157.24
101158.01
101158.94
101172.78
101166.71
101164.1
101163.37
101162.77
101162.05
101161.37
101160.77
101160.26
101159.83
101159.48
101159.22
101159.06
101158.99
101159.02
101159.15
101159.38
101159.72
101160.16
101160.69
101161.32
101162.11
101178.09
101172.09
101169.46
101168.66
101167.98
101167.2
101166.44
101165.76
101165.16
101164.63
101164.19
101163.84
101163.57
101163.39
101163.31
101163.32
101163.43
101163.64
101163.96
101164.36
101164.85
101165.49
101183.5
101177.58
101174.92
101174.06
101173.32
101172.46
101171.63
101170.87
101170.19
101169.58
101169.05
101168.6
101168.24
101167.95
101167.76
101167.66
101167.66
101167.75
101167.94
101168.22
101168.58
101169.09
101189
101183.15
101180.48
101179.55
101178.75
101177.83
101176.93
101176.1
101175.35
101174.66
101174.05
101173.51
101173.05
101172.67
101172.38
101172.17
101172.06
101172.04
101172.11
101172.26
101172.5
101172.88
101194.57
101188.8
101186.12
101185.14
101184.28
101183.3
101182.34
101181.44
101180.61
101179.85
101179.16
101178.54
101177.99
101177.52
101177.13
101176.83
101176.61
101176.48
101176.44
101176.48
101176.59
101176.85
101200.22
101194.52
101191.83
101190.8
101189.88
101188.85
101187.83
101186.87
101185.98
101185.15
101184.38
101183.69
101183.06
101182.5
101182.02
101181.62
101181.31
101181.08
101180.93
101180.86
101180.85
101180.99
101205.92
101200.3
101197.6
101196.52
101195.56
101194.48
101193.4
101192.39
101191.44
101190.54
101189.71
101188.93
101188.23
101187.59
101187.03
101186.54
101186.13
101185.8
101185.56
101185.38
101185.26
101185.28
101211.66
101206.12
101203.43
101202.3
101201.29
101200.16
101199.04
101197.98
101196.97
101196.01
101195.11
101194.27
101193.5
101192.78
101192.14
101191.57
101191.07
101190.65
101190.31
101190.03
101189.81
101189.72
101217.44
101211.99
101209.29
101208.13
101207.07
101205.9
101204.74
101203.62
101202.56
101201.55
101200.59
101199.69
101198.85
101198.06
101197.34
101196.69
101196.11
101195.61
101195.17
101194.8
101194.48
101194.29
101223.25
101217.88
101215.18
101213.99
101212.89
101211.68
101210.48
101209.32
101208.21
101207.15
101206.14
101205.17
101204.27
101203.42
101202.63
101201.91
101201.25
101200.66
101200.14
101199.67
101199.27
101198.98
101229.07
101223.78
101221.1
101219.87
101218.74
101217.5
101216.26
101215.06
101213.9
101212.79
101211.73
101210.71
101209.75
101208.84
101207.99
101207.19
101206.46
101205.8
101205.2
101204.65
101204.15
101203.77
101234.91
101229.7
101227.03
101225.77
101224.6
101223.33
101222.06
101220.82
101219.63
101218.48
101217.37
101216.3
101215.28
101214.31
101213.4
101212.54
101211.74
101211.01
101210.33
101209.7
101209.12
101208.65
101240.74
101235.62
101232.96
101231.67
101230.48
101229.18
101227.87
101226.61
101225.38
101224.18
101223.03
101221.92
101220.85
101219.83
101218.86
101217.94
101217.08
101216.28
101215.53
101214.82
101214.17
101213.62
101246.57
101241.53
101238.88
101237.57
101236.36
101235.03
101233.7
101232.4
101231.14
101229.91
101228.72
101227.56
101226.45
101225.38
101224.36
101223.38
101222.46
101221.6
101220.78
101220.01
101219.28
101218.65
101252.38
101247.43
101244.79
101243.47
101242.22
101240.88
101239.52
101238.2
101236.91
101235.65
101234.42
101233.22
101232.07
101230.95
101229.88
101228.86
101227.88
101226.96
101226.08
101225.24
101224.44
101223.74
101258.17
101253.31
101250.69
101249.34
101248.08
101246.72
101245.34
101243.99
101242.67
101241.38
101240.12
101238.89
101237.7
101236.54
101235.43
101234.35
101233.33
101232.35
101231.42
101230.52
101229.65
101228.88
101263.94
101259.16
101256.56
101255.19
101253.91
101252.53
101251.14
101249.77
101248.42
101247.11
101245.82
101244.56
101243.33
101242.14
101240.98
101239.86
101238.79
101237.76
101236.77
101235.82
101234.89
101234.06
101269.67
101264.97
101262.39
101261.02
101259.72
101258.32
101256.91
101255.52
101254.16
101252.82
101251.5
101250.22
101248.96
101247.73
101246.54
101245.38
101244.26
101243.19
101242.15
101241.14
101240.16
101239.27
101275.36
101270.75
101268.19
101266.8
101265.49
101264.09
101262.66
101261.25
101259.87
101258.51
101257.17
101255.86
101254.57
101253.31
101252.08
101250.89
101249.73
101248.62
101247.53
101246.47
101245.44
101244.49
101281.01
101276.48
101273.94
101272.55
101271.23
101269.81
101268.37
101266.95
101265.55
101264.18
101262.82
101261.48
101260.17
101258.88
101257.62
101256.39
101255.2
101254.04
101252.92
101251.81
101250.73
101249.73
101286.61
101282.16
101279.65
101278.25
101276.92
101275.49
101274.04
101272.61
101271.2
101269.81
101268.43
101267.07
101265.73
101264.42
101263.14
101261.88
101260.65
101259.46
101258.3
101257.15
101256.02
101254.98
101292.16
101287.79
101285.3
101283.89
101282.56
101281.12
101279.67
101278.23
101276.81
101275.4
101274
101272.63
101271.27
101269.94
101268.63
101267.34
101266.08
101264.86
101263.66
101262.48
101261.31
101260.22
101297.65
101293.37
101290.9
101289.49
101288.15
101286.71
101285.25
101283.8
101282.37
101280.95
101279.54
101278.15
101276.77
101275.42
101274.08
101272.77
101271.49
101270.23
101269
101267.79
101266.58
101265.45
101303.09
101298.88
101296.44
101295.02
101293.68
101292.24
101290.77
101289.32
101287.88
101286.45
101285.03
101283.62
101282.23
101280.86
101279.51
101278.17
101276.87
101275.58
101274.32
101273.07
101271.83
101270.67
101308.46
101304.33
101301.92
101300.5
101299.15
101297.71
101296.24
101294.78
101293.33
101291.89
101290.47
101289.05
101287.65
101286.26
101284.89
101283.54
101282.21
101280.9
101279.61
101278.33
101277.06
101275.86
101313.77
101309.72
101307.33
101305.91
101304.56
101303.11
101301.65
101300.18
101298.73
101297.29
101295.85
101294.43
101293.01
101291.61
101290.22
101288.85
101287.51
101286.18
101284.87
101283.56
101282.26
101281.03
101319.01
101315.03
101312.67
101311.26
101309.9
101308.46
101306.99
101305.53
101304.07
101302.62
101301.18
101299.75
101298.32
101296.91
101295.51
101294.13
101292.76
101291.41
101290.08
101288.75
101287.43
101286.16
101324.18
101320.28
101317.95
101316.53
101315.18
101313.74
101312.27
101310.81
101309.35
101307.9
101306.45
101305.01
101303.58
101302.16
101300.75
101299.35
101297.97
101296.6
101295.25
101293.9
101292.55
101291.26
101329.28
101325.45
101323.15
101321.74
101320.38
101318.95
101317.48
101316.02
101314.56
101313.11
101311.66
101310.21
101308.78
101307.35
101305.93
101304.52
101303.12
101301.74
101300.38
101299.01
101297.64
101296.33
101334.31
101330.56
101328.28
101326.87
101325.52
101324.09
101322.63
101321.17
101319.71
101318.26
101316.8
101315.36
101313.91
101312.48
101311.05
101309.63
101308.23
101306.83
101305.45
101304.07
101302.68
101301.35
101339.27
101335.58
101333.34
101331.93
101330.58
101329.16
101327.7
101326.24
101324.79
101323.33
101321.88
101320.43
101318.99
101317.55
101316.11
101314.69
101313.27
101311.87
101310.48
101309.07
101307.67
101306.32
101344.15
101340.54
101338.32
101336.92
101335.57
101334.15
101332.7
101331.25
101329.8
101328.34
101326.89
101325.44
101324
101322.55
101321.11
101319.68
101318.26
101316.85
101315.44
101314.03
101312.61
101311.24
101348.95
101345.41
101343.22
101341.83
101340.49
101339.07
101337.63
101336.18
101334.73
101333.28
101331.84
101330.39
101328.94
101327.49
101326.05
101324.62
101323.19
101321.77
101320.35
101318.93
101317.5
101316.11
101353.68
101350.21
101348.05
101346.66
101345.33
101343.92
101342.48
101341.04
101339.6
101338.15
101336.71
101335.26
101333.81
101332.37
101330.92
101329.49
101328.05
101326.63
101325.2
101323.77
101322.33
101320.93
101358.34
101354.93
101352.8
101351.42
101350.09
101348.69
101347.26
101345.83
101344.39
101342.95
101341.51
101340.06
101338.62
101337.17
101335.73
101334.29
101332.85
101331.42
101329.99
101328.55
101327.1
101325.69
101362.91
101359.57
101357.47
101356.1
101354.78
101353.39
101351.96
101350.54
101349.11
101347.67
101346.24
101344.79
101343.35
101341.91
101340.47
101339.03
101337.59
101336.15
101334.72
101333.28
101331.81
101330.4
101367.41
101364.14
101362.06
101360.7
101359.39
101358
101356.59
101355.17
101353.75
101352.32
101350.89
101349.45
101348.02
101346.57
101345.13
101343.69
101342.25
101340.82
101339.38
101337.93
101336.47
101335.04
101371.83
101368.62
101366.57
101365.22
101363.92
101362.54
101361.14
101359.73
101358.32
101356.89
101355.47
101354.04
101352.61
101351.17
101349.73
101348.29
101346.85
101345.42
101343.98
101342.53
101341.06
101339.63
101376.17
101373.02
101371.01
101369.66
101368.37
101367.01
101365.61
101364.21
101362.8
101361.39
101359.97
101358.55
101357.12
101355.69
101354.26
101352.82
101351.38
101349.95
101348.51
101347.05
101345.58
101344.14
101380.43
101377.35
101375.36
101374.03
101372.74
101371.39
101370
101368.61
101367.22
101365.81
101364.4
101362.98
101361.56
101360.14
101358.71
101357.27
101355.84
101354.41
101352.97
101351.51
101350.04
101348.6
101384.61
101381.59
101379.63
101378.31
101377.03
101375.69
101374.32
101372.94
101371.55
101370.15
101368.75
101367.34
101365.93
101364.51
101363.08
101361.66
101360.23
101358.8
101357.36
101355.91
101354.43
101352.99
101388.71
101385.74
101383.81
101382.51
101381.24
101379.91
101378.55
101377.18
101375.8
101374.42
101373.02
101371.62
101370.22
101368.8
101367.39
101365.96
101364.54
101363.11
101361.68
101360.23
101358.75
101357.31
101392.72
101389.82
101387.92
101386.62
101385.37
101384.05
101382.7
101381.34
101379.97
101378.6
101377.22
101375.83
101374.43
101373.02
101371.61
101370.2
101368.78
101367.35
101365.93
101364.48
101363
101361.56
101396.65
101393.81
101391.94
101390.65
101389.41
101388.1
101386.76
101385.42
101384.06
101382.7
101381.33
101379.95
101378.56
101377.16
101375.76
101374.35
101372.94
101371.52
101370.1
101368.65
101367.18
101365.74
101400.5
101397.71
101395.87
101394.6
101393.37
101392.07
101390.75
101389.41
101388.07
101386.72
101385.36
101383.99
101382.61
101381.22
101379.83
101378.43
101377.02
101375.61
101374.19
101372.75
101371.28
101369.84
101404.26
101401.53
101399.72
101398.46
101397.24
101395.96
101394.65
101393.33
101392
101390.66
101389.31
101387.95
101386.58
101385.2
101383.82
101382.43
101381.03
101379.63
101378.21
101376.78
101375.32
101373.88
101407.93
101405.26
101403.48
101402.23
101401.02
101399.75
101398.46
101397.15
101395.83
101394.51
101393.17
101391.82
101390.46
101389.1
101387.72
101386.34
101384.95
101383.56
101382.16
101380.73
101379.27
101377.84
101411.51
101408.9
101407.15
101405.91
101404.72
101403.46
101402.18
101400.89
101399.59
101398.27
101396.95
101395.61
101394.27
101392.91
101391.55
101390.18
101388.8
101387.41
101386.02
101384.6
101383.15
101381.72
101415.01
101412.45
101410.73
101409.51
101408.33
101407.09
101405.82
101404.54
101403.25
101401.95
101400.64
101399.31
101397.98
101396.64
101395.29
101393.93
101392.56
101391.18
101389.8
101388.39
101386.94
101385.52
101418.41
101415.91
101414.21
101413.01
101411.84
101410.62
101409.36
101408.1
101406.82
101405.54
101404.24
101402.93
101401.61
101400.28
101398.94
101397.59
101396.24
101394.87
101393.5
101392.09
101390.66
101389.25
101421.72
101419.28
101417.61
101416.42
101415.27
101414.06
101412.82
101411.57
101410.31
101409.04
101407.75
101406.46
101405.15
101403.83
101402.51
101401.17
101399.83
101398.47
101397.11
101395.72
101394.29
101392.89
101424.93
101422.55
101420.91
101419.74
101418.59
101417.4
101416.18
101414.94
101413.7
101412.44
101411.17
101409.89
101408.6
101407.3
101405.99
101404.66
101403.33
101401.99
101400.64
101399.26
101397.85
101396.45
101428.05
101425.72
101424.11
101422.95
101421.83
101420.65
101419.44
101418.23
101417
101415.76
101414.5
101413.24
101411.96
101410.67
101409.37
101408.06
101406.75
101405.42
101404.08
101402.71
101401.31
101399.93
101431.07
101428.8
101427.22
101426.08
101424.97
101423.8
101422.61
101421.41
101420.2
101418.97
101417.74
101416.49
101415.22
101413.95
101412.67
101411.37
101410.07
101408.76
101407.43
101406.08
101404.69
101403.32
101433.99
101431.77
101430.23
101429.1
101428
101426.86
101425.68
101424.5
101423.3