/*--------------------------------*- C++ -*----------------------------------*\
| =========                 |                                                 |
| \\      /  F ield         | OpenFOAM: The Open Source CFD Toolbox           |
|  \\    /   O peration     | Version:  2406                                  |
|   \\  /    A nd           | Website:  www.openfoam.com                      |
|    \\/     M anipulation  |                                                 |
\*---------------------------------------------------------------------------*/
FoamFile
{
    version     2.0;
    format      ascii;
    arch        "LSB;label=32;scalar=64";
    class       volScalarField;
    location    "0.05";
    object      alphat;
}
// * * * * * * * * * * * * * * * * * * * * * * * * * * * * * * * * * * * * * //

dimensions      [1 -1 -1 0 0 0 0];

internalField   nonuniform List<scalar> 
2065
(
0.001591031
0.001890605
0.0021913331
0.0024920996
0.0027876718
0.00083680562
0.00099665136
0.0011854381
0.0013993287
0.0016286983
0.00059167058
0.00069419108
0.00081994967
0.00098404331
0.00095500846
0.0011380399
0.0013194964
0.0018263089
0.0020882303
0.0023489124
0.0028182794
0.0031895266
0.0036960972
0.0044306126
0.0050310504
0.0056072622
0.0051637462
0.0045937675
0.0039028107
0.0044752736
0.0031043914
0.0036245375
0.0022102593
0.0026405947
0.0030406266
0.0012952579
0.0016107564
0.0019370492
0.0022650185
0.00062542383
0.0008049696
0.0010370443
0.0012951208
0.0015694619
0.0037422559
0.006336934
0.0099992574
0.014237022
0.018099737
0.020474498
0.020646772
0.019002761
0.016401759
0.0039786447
0.0065981761
0.010165326
0.014237203
0.017915056
0.020122943
0.020196648
0.018534903
0.015934502
0.0042242234
0.0068492698
0.010345817
0.014269979
0.017757185
0.019757994
0.019734004
0.018049491
0.015468844
0.0044772767
0.0070908224
0.010507502
0.014281602
0.017575764
0.019377618
0.019257505
0.017551357
0.015003832
0.0047320269
0.0073183896
0.01064769
0.014269816
0.017372247
0.018982687
0.018766266
0.0049921456
0.013407008
0.010255884
0.0070731365
0.0040886195
0.0015968922
0.00018677928
0.013028379
0.009965648
0.0068676824
0.003969701
0.0015542938
0.00018341928
0.012633464
0.0096609456
0.006657902
0.0038536436
0.0015135185
0.00017972888
0.012241289
0.0093599005
0.0064543386
0.0037417723
0.0014719793
0.00017576266
0.039896182
0.028515879
0.017602572
0.0083778235
0.0022574086
0.00010748765
0.036148139
0.025592412
0.015684423
0.00747942
0.0020737343
0.0001111552
0.032780652
0.023087642
0.014134765
0.0067997618
0.0019449524
0.00011339908
0.029818124
0.020964513
0.012875601
0.0062735721
0.0018537315
0.00011452895
0.027224043
0.01914771
0.011815902
0.0058275543
0.0017662461
0.00011556977
0.024931218
0.017555367
0.010885535
0.005429977
0.0016888096
0.00011567925
0.022887684
0.016135913
0.010043728
0.0050483102
0.0015882933
0.00011541254
0.021079018
0.014890764
0.0093155505
0.0047325327
0.0015251976
0.00011484339
0.019483882
0.013795897
0.0086722923
0.0044448788
0.001454296
0.00011440259
0.018088067
0.012849635
0.0081247955
0.0042084043
0.0014070744
0.00011403481
0.016866181
0.012020268
0.0076449515
0.0039971893
0.0013540857
0.00011414969
0.015839687
0.011315185
0.0072279381
0.0038105455
0.001314919
0.00011456246
0.015006544
0.010753905
0.0068994512
0.003660538
0.0012745379
0.00011556175
0.014298549
0.010282433
0.0066286098
0.0035428429
0.001250385
0.00011701865
0.013752267
0.0099335383
0.006437375
0.0034614275
0.0012359011
0.00011930738
0.01334651
0.0096836934
0.0063102704
0.0034246939
0.0012319431
0.00012245531
0.013059734
0.0095172212
0.0062436021
0.0034080221
0.001238041
0.00012649029
0.012886501
0.0094452706
0.0062312124
0.0034277419
0.0012578677
0.00013148707
0.012808473
0.0094284492
0.006251517
0.0034607433
0.0012828406
0.00013743533
0.012823014
0.0095009839
0.0063464238
0.0035441633
0.0013267551
0.00014444754
0.012888436
0.0095973672
0.0064408891
0.0036169513
0.0013664715
0.00015246004
0.013060254
0.0098151743
0.0066558296
0.0037781359
0.0014407943
0.00016166126
0.013200487
0.00995821
0.0067683993
0.0038492665
0.0014781276
0.00017171644
0.013707081
0.010498246
0.0072544855
0.0041973671
0.0016304378
0.00018380129
0.043202434
0.051692269
0.060777745
0.069105102
0.074689881
0.075589856
0.070939387
0.062046242
0.051148297
0.040367889
0.048664767
0.057511691
0.065499738
0.070669733
0.071162896
0.066290522
0.057456929
0.046850167
0.037739677
0.045735472
0.054251126
0.061856771
0.066615322
0.066728757
0.06174568
0.053045641
0.042843371
0.035256192
0.042910968
0.051048857
0.058242551
0.062592773
0.062382891
0.0573659
0.048898372
0.039192946
0.032914635
0.040192956
0.047922981
0.054690615
0.05864883
0.058183628
0.05320443
0.045057746
0.035908404
0.030735544
0.037596547
0.044887686
0.051234122
0.054822955
0.054174519
0.049296485
0.041530352
0.032955019
0.028653471
0.035149194
0.041976881
0.047888675
0.051151356
0.050388543
0.04565971
0.038307247
0.030299064
0.026675604
0.032805191
0.039245517
0.044711029
0.047654103
0.046840906
0.042304036
0.035380817
0.027920489
0.02483963
0.030595317
0.036657824
0.0417751
0.044415638
0.04353302
0.039219823
0.032739632
0.025804401
0.023077336
0.028497567
0.034201107
0.039020741
0.041475372
0.040562269
0.036440248
0.030364661
0.023924344
0.021523416
0.026606821
0.031950407
0.036456085
0.038769146
0.037908018
0.034019241
0.028308523
0.022289151
0.020152437
0.024895565
0.029897373
0.034116709
0.036283449
0.035498616
0.031888314
0.02655268
0.020912986
0.018785481
0.023239889
0.027966996
0.031978143
0.034057953
0.033346404
0.029986481
0.025026616
0.019758658
0.017449368
0.021658189
0.02615351
0.030009074
0.032055912
0.031465055
0.028362732
0.023718636
0.018769774
0.016198511
0.020186625
0.024480305
0.028226506
0.030279927
0.029834094
0.026992653
0.022656188
0.01798694
0.01501132
0.018806702
0.022930759
0.026614197
0.02871061
0.02843122
0.025844942
0.021809717
0.017385468
0.013859659
0.017484755
0.021476648
0.025124894
0.027309088
0.027220097
0.024887439
0.02114107
0.016935563
0.012706301
0.016183372
0.020076025
0.023717262
0.026039554
0.026166231
0.024090942
0.02062567
0.016622986
0.011528991
0.014881209
0.018704758
0.022361382
0.024868106
0.02523811
0.023427143
0.020236431
0.01642495
0.010260658
0.013494736
0.017276321
0.020994628
0.023724891
0.024396724
0.022866606
0.019949455
0.016333516
0.0089494959
0.012123222
0.015886618
0.019676782
0.022611913
0.023625379
0.022387432
0.01973618
0.016309285
0.0073690886
0.010389581
0.014169099
0.018144194
0.021359453
0.022826794
0.021945644
0.019571227
0.01636845
0.006109845
0.0091174408
0.012869573
0.016922559
0.020318335
0.022033112
0.021546577
0.019444767
0.016436505
0.0036790473
0.0063546554
0.01014286
0.014511055
0.018466778
0.020968632
0.021149076
0.019443984
0.016798181
0.00039562622
0.0035669382
0.0094537444
0.016937497
0.025406282
0.03456223
0.00037556235
0.0033218167
0.0087669909
0.015717525
0.023625103
0.032216909
0.00035699474
0.0030895751
0.0081435648
0.014611199
0.021996665
0.03001722
0.0003400643
0.0028726248
0.0075702115
0.013585185
0.020476138
0.027979823
0.00032472244
0.0026752384
0.0070459659
0.012639379
0.019055991
0.026050668
0.00031075364
0.0024874681
0.00655111
0.011752083
0.017728477
0.024256878
0.00029846321
0.0023253115
0.0061233488
0.010960713
0.016514768
0.022587266
0.00028730314
0.0021344507
0.0056644687
0.010164652
0.015334739
0.02099069
0.00027750277
0.0019834669
0.0052881461
0.0094805902
0.014284023
0.019533911
0.00026876927
0.0018228877
0.0048822422
0.0087642483
0.013224295
0.018108434
0.00026056132
0.0016583466
0.004492271
0.0081393416
0.012329106
0.01688605
0.00025445493
0.0016191726
0.0043261065
0.0077334442
0.011616201
0.015839322
0.00024951323
0.0015415063
0.0040992267
0.0072663402
0.010864613
0.014772657
0.00024455239
0.0013428207
0.0037114079
0.0066802346
0.010045042
0.013689938
0.00023943728
0.0012095834
0.0033954463
0.0061439158
0.0092745319
0.01267184
0.0002345361
0.0010904412
0.0030974484
0.0056304381
0.0085343606
0.01169727
0.00023061255
0.0009681056
0.0027989338
0.0051263139
0.0078077487
0.010743912
0.00022375629
0.00084815611
0.0024899313
0.0046005219
0.0070603194
0.009773454
0.00021435561
0.00071268783
0.0021558327
0.0040453431
0.0062776778
0.0087675187
0.00020080772
0.0005719172
0.0017713636
0.0034167925
0.0054116744
0.0076674972
0.00018552266
0.00041240295
0.0013017666
0.0027063103
0.0044432892
0.0064709097
0.00015155302
0.00027511957
0.0007786478
0.0018815476
0.0033820278
0.0051272352
8.5618519e-05
0.00015113956
0.00036968056
0.0010350392
0.0021787796
0.0037098514
2.3727662e-05
7.9971255e-05
0.00017751228
0.00046051085
0.0011831056
0.0022128629
2.2103033e-05
8.0201454e-05
0.00011670766
0.00020106358
0.0004750665
0.0011966118
2.5356976e-05
0.00020590321
0.00030616635
0.00026860693
0.00029129267
0.00065588792
2.3894745e-05
0.00022639367
0.00050785033
0.00058977737
0.0005238123
0.00052485154
2.6010362e-05
0.00025243203
0.00064854766
0.00094578418
0.0010312072
0.00081681308
3.1307735e-05
0.00026777288
0.00076301749
0.0012583686
0.0015755289
0.0016398543
3.7135584e-05
0.00035232203
0.00094322815
0.0015771319
0.0021233939
0.0024793712
4.3039139e-05
0.00044774573
0.001168357
0.0019440755
0.0026516583
0.0032138998
4.9083126e-05
0.00054213727
0.0013950733
0.0023156238
0.0031601365
0.0038537508
5.4906696e-05
0.00062677323
0.0016192253
0.0026765422
0.0036325482
0.0044113229
5.8773076e-05
0.00069426975
0.0018057023
0.0029807508
0.0040270828
0.0048650748
6.1545081e-05
0.00074700604
0.0019472589
0.0032109539
0.0043240503
0.0052029506
6.2497081e-05
0.00077917595
0.0020372847
0.0033571143
0.0045095511
0.0054130365
6.2459297e-05
0.00079388848
0.0020736414
0.0034101915
0.004575261
0.0054875579
6.234415e-05
0.00078839336
0.0020590792
0.0033746707
0.0045256464
0.0054328996
5.7824744e-05
0.00074536199
0.0019556686
0.0032254451
0.0043469461
0.0052415984
5.4817859e-05
0.00069339694
0.0018144414
0.003000679
0.0040626662
0.0049267813
5.0616534e-05
0.00062521751
0.0016318885
0.0027054283
0.0036827346
0.0044954823
4.4835871e-05
0.00054083446
0.0014116104
0.0023506913
0.003220606
0.0039576683
3.81548e-05
0.00045064819
0.0011769074
0.0019657593
0.002703919
0.0033312712
3.2136778e-05
0.00036333749
0.00095282581
0.0015870619
0.0021711792
0.0026434745
2.6282312e-05
0.00024708654
0.00071201947
0.0012102326
0.0016272892
0.0018853167
2.0545444e-05
0.00018403099
0.00056046598
0.00091599169
0.0011013615
0.0010892998
1.5203608e-05
0.00016243669
0.00046369045
0.00063304607
0.00067938609
0.000520998
1.1991865e-05
0.00012417758
0.00027275906
0.00029783592
0.0003984322
0.0033664541
0.0089177285
0.016006815
0.00040058771
0.0034602036
0.009201519
0.016545999
0.024918336
0.0340412
0.00040203797
0.0035415425
0.0094525989
0.01703206
0.025688652
0.035139446
0.00040304494
0.0036196901
0.0096871701
0.017476366
0.02638347
0.036118254
0.00040358361
0.0036915726
0.0099034744
0.017879603
0.027000108
0.036983668
0.00040381695
0.0037595185
0.01010581
0.018249329
0.027553645
0.037739656
0.00040392644
0.0038258307
0.01029603
0.018585477
0.028044428
0.038391371
0.00040347757
0.0038895748
0.01046645
0.018877688
0.028460965
0.038935083
0.00040001367
0.0039302465
0.010588708
0.019102069
0.028792313
0.039371316
0.00039753998
0.0039697148
0.010693513
0.019284093
0.029053113
0.039711737
0.00039441662
0.0040060378
0.010784342
0.019428036
0.02925348
0.039962341
0.0003907464
0.0040333788
0.010849357
0.019532208
0.029392194
0.040123165
0.00038832504
0.0040574228
0.010907897
0.019611931
0.029475226
0.04019457
0.00039157556
0.0040793346
0.010967782
0.019659048
0.029489515
0.040165738
0.00038438488
0.0040686106
0.010905706
0.019574372
0.029382426
0.040017759
0.00038643629
0.0040415319
0.01083526
0.019457251
0.029214188
0.039782494
0.00038971895
0.0040147752
0.010767131
0.019332395
0.029017342
0.039492442
0.00039343552
0.0039842801
0.010689157
0.0191943
0.028795476
0.039160022
0.00039675462
0.0039523871
0.01060367
0.01903851
0.028549354
0.038788278
0.00040006625
0.0039251006
0.010525494
0.018878586
0.028279876
0.038375263
0.00040417666
0.0038918427
0.010429581
0.018688913
0.027963311
0.037890767
0.00040603976
0.0038456468
0.010295568
0.018441504
0.027575244
0.037308142
0.00040706786
0.0037824717
0.010118351
0.018132207
0.027119998
0.036659482
0.00040911403
0.0037918159
0.010109799
0.018028693
0.026868265
0.036250227
9.3908633e-06
6.38133e-05
9.4468797e-06
0.00039280471
0.00039586115
0.0032731646
0.044346562
0.045233732
0.046337901
0.047334038
0.048180509
0.048922315
0.049585333
0.050172623
0.05067497
0.051070585
0.051328611
0.051440334
0.051401509
0.051215531
0.050883117
0.050406335
0.049782097
0.049003404
0.048068716
0.046975066
0.045713029
0.044270406
0.042638152
0.052125905
0.053913131
0.055638999
0.057136241
0.058431085
0.059591341
0.060626242
0.061533857
0.062299842
0.062896318
0.063301657
0.063515616
0.063523466
0.063322942
0.062914625
0.062296595
0.061467427
0.060431762
0.059183117
0.05770891
0.056002757
0.054045774
0.051790921
0.061073742
0.063579793
0.065838579
0.067800834
0.069542263
0.071107191
0.072503153
0.073721835
0.074746292
0.075546428
0.076111012
0.076439402
0.076513373
0.076326227
0.075876337
0.075161537
0.07418044
0.072925365
0.07140965
0.069614307
0.067522713
0.065108778
0.062308584
0.070992375
0.074053199
0.076771704
0.079175474
0.081337375
0.083279655
0.085014353
0.086529813
0.087802976
0.088808182
0.089540999
0.089998282
0.090160373
0.090017887
0.08956628
0.088801952
0.087723183
0.086323626
0.084595594
0.082552822
0.080161463
0.07738547
0.074152724
0.081628129
0.08511027
0.08822505
0.091023526
0.09355004
0.095832288
0.097873308
0.099659197
0.101163
0.10236759
0.10327331
0.10387468
0.10415046
0.10409053
0.10368786
0.10293651
0.10183152
0.10036601
0.098531758
0.096327673
0.093736928
0.090714157
0.08719136
0.092614583
0.096407952
0.099853064
0.10296846
0.10579959
0.10836444
0.11065969
0.11267297
0.11438128
0.11577059
0.11684847
0.11760815
0.11802579
0.11809217
0.1177982
0.11713566
0.11609652
0.11467147
0.11284862
0.110611
0.10794914
0.10482256
0.10116876
0.10346399
0.10747208
0.11113324
0.11447424
0.11751955
0.12027923
0.12275381
0.12493456
0.1268066
0.12835747
0.12960223
0.13053075
0.13112111
0.13136356
0.1312474
0.13076174
0.12989499
0.12863411
0.12696348
0.1248616
0.12230176
0.11925362
0.11566185
0.11349909
0.11758158
0.12131223
0.12473075
0.12785112
0.13068645
0.13324079
0.13550926
0.13748742
0.13916619
0.14056611
0.1416719
0.14246756
0.14294266
0.14308506
0.14288093
0.14231447
0.14136759
0.14001929
0.13824355
0.13600682
0.13326739
0.12998173
0.12168055
0.12561016
0.12919447
0.13248869
0.13550621
0.13826589
0.1407707
0.1430245
0.14503009
0.14678964
0.14832341
0.14961215
0.15064819
0.15142102
0.15191699
0.15211908
0.15200668
0.15155551
0.1507374
0.14951927
0.14786105
0.14571473
0.14303196
0.12635096
0.12982168
0.1329788
0.13589205
0.13857753
0.14106207
0.14334701
0.14545246
0.14738147
0.14916025
0.15079238
0.15227028
0.15358859
0.15473732
0.15570148
0.15646081
0.15698949
0.15725598
0.15722303
0.1568475
0.15607954
0.15486282
0.15314291
0.12496742
0.12755897
0.1299148
0.13210867
0.13416618
0.13612234
0.1379814
0.1397748
0.1415165
0.14323843
0.14493866
0.14661897
0.14827566
0.14989905
0.1514731
0.15297477
0.15437334
0.1556297
0.15669614
0.15751656
0.15802731
0.15815945
0.15784581
0.11341793
0.11461144
0.11571377
0.11679646
0.11790511
0.11907714
0.12031461
0.12164306
0.12310705
0.12471564
0.12647914
0.12840146
0.13048009
0.13270587
0.1350626
0.13752625
0.14006376
0.14263122
0.14517184
0.14761493
0.14987808
0.15187566
0.15353045
0.085556583
0.084886195
0.084312188
0.08394913
0.083841385
0.084034947
0.084504602
0.085304906
0.08645208
0.087963964
0.089847161
0.092104477
0.094731909
0.097719058
0.10104991
0.10470287
0.10865016
0.11285507
0.11726615
0.12180811
0.1263722
0.13081604
0.049803297
0.048462123
0.047545457
0.047004477
0.046788699
0.046867608
0.04719662
0.04779331
0.04864465
0.049743066
0.05110798
0.05276355
0.054729143
0.0570241
0.05966959
0.062687918
0.066106721
0.069963038
0.074304085
0.079183516
0.084641891
0.090620187
0.023234124
0.022784816
0.022546278
0.022452826
0.022495741
0.022650285
0.022911083
0.02328531
0.023778661
0.024399294
0.025160311
0.026077875
0.027166261
0.02843973
0.029917035
0.031609954
0.033537578
0.035730263
0.038232612
0.041119191
0.044564076
0.048904439
0.010990051
0.011167048
0.011305454
0.011444055
0.011599867
0.01176937
0.011954282
0.012160154
0.012394797
0.012666865
0.012987227
0.013367402
0.01381738
0.01434566
0.014963819
0.015679985
0.016511023
0.01748004
0.018618026
0.019962955
0.021588069
0.02362107
0.0069404674
0.0072620003
0.0075000457
0.0076957675
0.0078672197
0.0080167809
0.0081470344
0.0082627732
0.0083702215
0.008476632
0.0085899061
0.0087189129
0.0088688844
0.0090421819
0.0092258891
0.0094363062
0.00968782
0.0099913336
0.010363793
0.010833785
0.01142781
0.012187604
0.0059784085
0.0063246377
0.0065955323
0.0068117914
0.0069875625
0.0071249936
0.0072257549
0.0072941015
0.0073358918
0.0073574069
0.0073642817
0.0073638351
0.0073626507
0.0073614731
0.0073693347
0.0073901493
0.0074245161
0.0074725081
0.0075390151
0.007670279
0.0078534978
0.0080939924
0.0057493232
0.0060805009
0.0063178741
0.0064879023
0.0066134962
0.0067052667
0.0067701189
0.0068143735
0.0068442906
0.0068661487
0.0068823446
0.0068878853
0.0068810063
0.0068758321
0.0068768852
0.0068874286
0.0069078848
0.0069351257
0.0069592781
0.0069508574
0.0069147928
0.0068805271
0.0053341555
0.0055764214
0.0057520598
0.0058834355
0.0059849763
0.0060587105
0.0061057114
0.0061291348
0.0061341941
0.0061282979
0.0061163782
0.0061053874
0.0061001521
0.0061004676
0.0061055101
0.0061150697
0.0061286957
0.0061461388
0.0061710918
0.006208831
0.0062584959
0.0063189629
0.005153551
0.0053891041
0.0055566312
0.0056728735
0.0057527337
0.0058034252
0.0058338882
0.0058512393
0.0058595702
0.0058604943
0.0058585016
0.0058561268
0.0058549953
0.0058561717
0.005860207
0.0058670346
0.0058762034
0.0058864876
0.005892119
0.0058890186
0.0058826471
0.0058847683
0.004943802
0.0051112157
0.0052245906
0.005302252
0.005357875
0.0053943291
0.0054161657
0.0054275778
0.0054325679
0.0054342642
0.0054343974
0.0054340749
0.005434049
0.005434765
0.0054363378
0.0054387413
0.0054422738
0.00544842
0.0054582956
0.0054725655
0.0054871542
0.005498697
0.0048387033
0.0049979136
0.0051118112
0.005189035
0.0052371145
0.0052666647
0.0052839224
0.0052931916
0.0052975686
0.005299184
0.0052994605
0.0052993421
0.0052994274
0.0053000773
0.0053014656
0.0053031307
0.0053039324
0.0053018342
0.0052971101
0.0052925589
0.0052893549
0.0052893924
0.0047662775
0.0048840335
0.0049628225
0.0050149485
0.0050508625
0.0050736978
0.0050870401
0.0050941046
0.0050973899
0.0050986131
0.0050988648
0.0050988091
0.0050987235
0.0050987968
0.005099524
0.00510076
0.0051027791
0.0051057787
0.0051087834
0.0051098699
0.0051109781
0.0051126036
0.0047326607
0.0048414891
0.0049170912
0.0049663185
0.0049948029
0.0050107507
0.0050192648
0.0050235496
0.0050255947
0.0050265691
0.005027131
0.0050275908
0.0050278959
0.0050278458
0.0050270412
0.0050257193
0.0050241043
0.0050224289
0.0050211093
0.0050205655
0.005020711
0.0050212898
0.0047424346
0.0048232254
0.0048757476
0.0049078848
0.0049267376
0.0049371963
0.0049426491
0.0049453016
0.0049464969
0.0049469885
0.0049471141
0.0049469538
0.004946656
0.004946299
0.0049459432
0.0049456273
0.0049453835
0.0049452379
0.0049451391
0.0049450692
0.004945175
0.0049454848
0.0047752746
0.0048354841
0.0048704844
0.0048896957
0.0048998407
0.0049050276
0.0049076112
0.0049088734
0.0049094704
0.00490975
0.0049098885
0.0049099641
0.0049099949
0.0049099807
0.0049099559
0.0049099432
0.0049099409
0.0049099331
0.0049098852
0.0049098003
0.004909736
0.0049097418
0.0048185966
0.0048531272
0.0048714208
0.004880851
0.004885518
0.0048879268
0.0048892087
0.0048899031
0.0048902838
0.0048904736
0.0048905431
0.0048905347
0.0048904906
0.0048904314
0.0048903748
0.0048903197
0.0048902519
0.0048901775
0.0048900923
0.00488999
0.0048898868
0.0048897913
0.0048497595
0.0048658948
0.0048739378
0.0048779813
0.0048803073
0.0048817222
0.0048825575
0.0048830638
0.0048834079
0.0048836234
0.0048837497
0.0048837993
0.0048838064
0.0048838148
0.0048838266
0.0048838216
0.004883782
0.0048837085
0.0048836069
0.0048834622
0.0048832899
0.0048831216
0.0048665693
0.0048734554
0.0048772811
0.004879245
0.0048802714
0.0048807663
0.0048807175
0.0048806277
0.0048806043
0.0048805737
0.0048805602
0.0048805612
0.0048805741
0.0048805935
0.0048806129
0.0048806265
0.0048806335
0.0048806473
0.0048806775
0.0048806422
0.0048805413
0.0048804415
0.0048782158
0.0048797652
0.0048802871
0.0048805382
0.0048806457
0.0048806747
0.0048806642
0.0048806177
0.0048805438
0.0048804629
0.0048803843
0.0048803128
0.0048802492
0.0048801924
0.0048801413
0.0048800946
0.0048800506
0.0048800028
0.0048799206
0.0048798091
0.0048797464
0.0048796847
0.053904725
0.065026141
0.074212793
0.079062388
0.078445817
0.073105522
0.064928197
0.05611277
0.048360877
0.054353317
0.065993926
0.07591898
0.081750558
0.082338447
0.078261119
0.071274767
0.063353254
0.055818643
0.054812146
0.066941166
0.077627933
0.084521256
0.086408297
0.083700599
0.077975188
0.071041102
0.064141674
0.055089378
0.067726141
0.079213833
0.08724607
0.090536597
0.089324576
0.084996386
0.079228423
0.073262858
0.054932817
0.068132772
0.080486452
0.089746589
0.0945587
0.094988803
0.09222781
0.087817792
0.083026149
0.054019762
0.067848277
0.081151703
0.091745292
0.098211676
0.10044441
0.099433614
0.096575027
0.093109433
0.051863951
0.066389518
0.080747184
0.092805363
0.10108041
0.10528973
0.10621255
0.10508121
0.10305989
0.047572341
0.062920529
0.078501422
0.092214099
0.10249673
0.10888302
0.11193022
0.11269505
0.11222035
0.039716088
0.056052241
0.073116717
0.088774737
0.10134711
0.11016239
0.11553286
0.11833584
0.11954918
0.026305208
0.043649479
0.062553892
0.080569738
0.095837092
0.10740232
0.11537431
0.12044783
0.12349162
0.010450158
0.024307842
0.043696488
0.064341871
0.082973774
0.097814657
0.1087935
0.11642516
0.12151519
0.0028660031
0.0085268687
0.020484393
0.038624749
0.05856742
0.076739123
0.091275891
0.10198458
0.10948101
0.00075072478
0.0022978787
0.0070079137
0.016006262
0.029571359
0.045505845
0.060182699
0.07220931
0.081391307
0.00057832778
0.0010539767
0.0022831453
0.0056623732
0.011787979
0.020058209
0.029268348
0.038296545
0.046170099
0.00058837063
0.00096260477
0.0015828788
0.0027636148
0.0048823411
0.0083394982
0.012684519
0.017059113
0.021066626
0.00060215556
0.0010022053
0.0015930208
0.0023435335
0.0033685418
0.0049388247
0.0065753357
0.0082957164
0.0099024071
0.00062301483
0.0010027332
0.0016080027
0.0024407591
0.0032802495
0.0040858184
0.0049529089
0.0057547859
0.0064205135
0.00065077462
0.0010548615
0.0016255325
0.0023439677
0.0032413038
0.004155808
0.0048629854
0.0053432
0.005670929
0.00068140179
0.0010757988
0.0016724273
0.0024329882
0.0031938328
0.00391111
0.0045797838
0.0051156154
0.0054502282
0.00071561683
0.0011277326
0.0016853499
0.0023697894
0.003150186
0.003885917
0.0044684575
0.0048731342
0.0051128315
0.00074736594
0.0011598578
0.0017434712
0.0024429102
0.0031381647
0.0037618601
0.0042866168
0.0046811832
0.0049296503
0.0007806365
0.0012024888
0.0017661694
0.0024395999
0.0031405865
0.0037618121
0.004238625
0.0045710677
0.004770972
0.00084304542
0.0012842237
0.0018693727
0.0025386457
0.0031932639
0.0037550083
0.0041876129
0.0044888999
0.0046751692
0.00088464596
0.0013392896
0.0019310437
0.0026048793
0.0032628693
0.0038111989
0.0042105997
0.0044740847
0.0046329741
0.00098500012
0.0014686223
0.0020813998
0.0027500446
0.0033711263
0.0038698082
0.0042275215
0.0044637013
0.0046089124
0.0010555834
0.0015629595
0.0021942447
0.0028729305
0.0034948928
0.0039802857
0.0043123528
0.0045197822
0.0046419137
0.0012334731
0.0017956009
0.0024715334
0.0031602434
0.0037451802
0.0041682192
0.0044401474
0.0046030367
0.0046972947
0.0013632532
0.001962934
0.002666662
0.0033621937
0.003934044
0.0043284699
0.0045656124
0.0046965176
0.0047657385
0.0017852984
0.0024826081
0.0032239434
0.0038654209
0.0043142665
0.0045790733
0.0047189024
0.0047889772
0.0048236777
0.0022207766
0.0029713337
0.0036904611
0.0042337707
0.0045626106
0.0047301386
0.004806582
0.0048401465
0.0048554584
0.003668703
0.004178799
0.0045166773
0.0047066742
0.0048010608
0.0048442229
0.0048631034
0.0048713677
0.0048751864
0.042341657
0.042435737
0.042627498
0.042625169
0.042142614
0.040860523
0.038317314
0.033592881
0.025300112
0.012648874
0.0036271965
0.00071199481
0.00034029472
0.00032662836
0.00033663814
0.00034440406
0.00036363947
0.0003809294
0.00040838781
0.00042915981
0.00045766841
0.00048085766
0.00052380243
0.00055247639
0.00062380825
0.00067189292
0.00079678289
0.00088730679
0.0011894612
0.0015341183
0.0029607864
0.03053707
0.030378172
0.030425893
0.030266839
0.02959385
0.028096467
0.025373586
0.020545419
0.012332562
0.0039854149
0.00077564207
0.00018745127
0.00016261879
0.00016201662
0.00016763365
0.00017329114
0.00018454143
0.00019642161
0.00021328307
0.00022712572
0.00024563251
0.0002593836
0.00028490528
0.00030210715
0.00034466577
0.00037270871
0.00044548593
0.00049817313
0.00067315178
0.00090181636
0.0019794003
0.019101889
0.018758065
0.018740826
0.018496079
0.0177398
0.01616323
0.013465503
0.0088000556
0.0032392281
0.00069501789
9.6364419e-05
6.3563917e-05
6.2798127e-05
6.2980542e-05
6.54184e-05
6.8771446e-05
7.418147e-05
8.0383649e-05
8.8253821e-05
9.6079229e-05
0.00010466474
0.00011217881
0.00012382289
0.00013301489
0.00015274087
0.00016757435
0.00019977457
0.00022625767
0.00030301935
0.00042060736
0.00099125228
0.0092344333
0.0088552751
0.0087991095
0.0084998225
0.0077966114
0.0063766607
0.0039910145
0.0014983079
0.00032166863
3.9743427e-05
1.70552e-05
1.6301e-05
1.6212043e-05
1.6247261e-05
1.650943e-05
1.7333956e-05
1.8286665e-05
2.0184886e-05
2.2141594e-05
2.5047988e-05
2.7244466e-05
3.0703535e-05
3.3547189e-05
3.8030164e-05
4.3624508e-05
5.0657032e-05
5.9744002e-05
7.0472627e-05
9.2888061e-05
0.00013250363
0.00030705841
0.0025079893
0.0022841299
0.0021967942
0.001872111
0.0014204645
0.00074532555
0.00031077714
6.5917389e-05
1.1509697e-05
6.953718e-06
6.4905282e-06
6.1642504e-06
5.8451969e-06
5.4937847e-06
5.1296124e-06
4.780366e-06
4.3762293e-06
4.0044795e-06
3.6618806e-06
3.4351427e-06
3.3020542e-06
3.2778624e-06
3.3526893e-06
3.5870073e-06
4.3698103e-06
5.2883269e-06
6.7178966e-06
8.688408e-06
1.2580589e-05
1.970698e-05
4.278692e-05
9.7090504e-05
8.2188526e-05
6.686174e-05
4.7641589e-05
2.9308994e-05
1.5301331e-05
1.0589784e-05
9.6692957e-06
9.904594e-06
1.0197264e-05
1.0366623e-05
1.0363657e-05
1.0144827e-05
9.6931272e-06
8.7706942e-06
7.7210794e-06
7.0891783e-06
5.6585133e-06
4.5847971e-06
3.5837178e-06
2.7397781e-06
1.9711924e-06
1.3206534e-06
7.4002983e-07
4.5437081e-07
3.4711042e-07
2.5784339e-07
1.9429446e-07
2.1779778e-07
4.2518009e-07
1.296078e-06
)
;

boundaryField
{
    Side1
    {
        type            empty;
    }
    Inlet
    {
        type            calculated;
        value           uniform 0.0048550522;
    }
    Side2
    {
        type            empty;
    }
    Outlet
    {
        type            zeroGradient;
    }
    Botwall
    {
        type            compressible::alphatWallFunction;
        value           nonuniform List<scalar> 
59
(
2.0720285e-05
2.0164317e-05
1.9553656e-05
1.8895603e-05
7.4132497e-06
8.0433488e-06
8.4276868e-06
8.6265207e-06
8.8030831e-06
8.8313215e-06
8.7838844e-06
8.6950358e-06
8.6197605e-06
8.5632088e-06
8.5818283e-06
8.6562504e-06
8.8262265e-06
9.0738098e-06
9.461775e-06
9.9946198e-06
1.067597e-05
1.1517744e-05
1.2517295e-05
1.3692329e-05
1.5031031e-05
1.656327e-05
1.8232075e-05
2.0229968e-05
5.6242218e-06
3.0296777e-06
3.0006517e-07
0
0
0
0
0
0
0
0
0
0
0
0
0
0
0
0
0
0
0
0
0
0
0
0
0
0
0
0
)
;
    }
    Cyli
    {
        type            compressible::alphatWallFunction;
        value           nonuniform List<scalar> 
76
(
5.409885e-05
5.0980262e-05
4.8080352e-05
4.5424146e-05
4.3006657e-05
4.0796834e-05
3.8845373e-05
3.7063869e-05
3.5503074e-05
3.4091589e-05
3.2775846e-05
3.1802596e-05
3.0991348e-05
3.0181584e-05
2.934348e-05
2.8539759e-05
2.7893626e-05
2.6769369e-05
2.5226863e-05
2.2998836e-05
2.0478963e-05
1.4831509e-05
3.6150891e-06
0
0
0
0
0
0
0
0
0
0
0
0
0
0
0
0
0
0
0
0
0
0
0
0
0
5.4543997e-05
5.4875229e-05
5.5096793e-05
5.5249551e-05
5.532973e-05
5.5362659e-05
5.5376515e-05
5.5304058e-05
5.4764227e-05
5.4377997e-05
5.3890957e-05
5.3318899e-05
5.2941209e-05
5.3446633e-05
5.2326861e-05
5.2647269e-05
5.3158995e-05
5.3738201e-05
5.4255617e-05
5.4771785e-05
5.5411777e-05
5.570321e-05
5.5865603e-05
5.6185677e-05
0
0
5.3675804e-05
5.414789e-05
)
;
    }
    procBoundary0to1
    {
        type            processor;
        value           nonuniform List<scalar> 
44
(
0.0030904587
0.0030904587
0.0018820292
0.0011880525
0.0011880525
0.0015350537
0.0015350537
0.0026168767
0.0035045558
0.0035045558
0.004150472
0.004150472
0.0049188704
0.0055166672
0.0055071164
0.0055071164
0.0058583899
0.0060774725
0.0061582853
0.0061086794
0.0059232538
0.0059232538
0.0061242151
0.0057155976
0.0051735613
0.0051735613
0.004948968
0.017042618
0.014536592
0.0075421667
0.010774068
0.014239126
0.017144512
0.018579142
0.017042618
0.01826486
0.0075421667
0.0052614176
0.011848928
0.0090588717
0.0062512063
0.0036314407
0.0014347622
0.00017151196
)
;
    }
    procBoundary0to2
    {
        type            processor;
        value           nonuniform List<scalar> 
55
(
0.00045589171
0.00054590794
0.00065871253
0.00080062794
0.0009735614
0.00036611193
0.00037223582
0.00010746978
0.00036611193
0.00015742837
0.0086399486
0.024091252
0.015496084
0.024091252
0.032955471
0.00010746978
4.6902478e-05
4.6902478e-05
5.197821e-05
0.00038913279
0.0031773583
0.0031773583
0.0086399486
0.04097258
0.049257611
0.059076933
0.070379315
0.083073101
0.096907601
0.11146521
0.12609626
0.13976929
0.15086927
0.15701543
0.15473899
0.13501567
0.13501567
0.09696057
0.054252878
0.026226857
0.013183429
0.0084161126
0.0069075279
0.00636877
0.0058960146
0.0055091652
0.0052916933
0.0051141603
0.005021574
0.0049455845
0.0049096926
0.0048896441
0.0048829459
0.0048803138
0.0048796273
)