/*--------------------------------*- C++ -*----------------------------------*\
| =========                 |                                                 |
| \\      /  F ield         | OpenFOAM: The Open Source CFD Toolbox           |
|  \\    /   O peration     | Version:  2406                                  |
|   \\  /    A nd           | Website:  www.openfoam.com                      |
|    \\/     M anipulation  |                                                 |
\*---------------------------------------------------------------------------*/
FoamFile
{
    version     2.0;
    format      ascii;
    arch        "LSB;label=32;scalar=64";
    class       surfaceScalarField;
    location    "0.05";
    object      phi;
}
// * * * * * * * * * * * * * * * * * * * * * * * * * * * * * * * * * * * * * //

dimensions      [1 0 -1 0 0 0 0];

oriented        oriented;

internalField   nonuniform List<scalar> 
3991
(
0.01341995
0.0010921888
-0.0016347682
-0.012877261
0.013908331
0.0011694247
-0.0016576888
0.014326585
0.0011966267
-0.0016147584
0.014682045
0.0012192339
-0.0015745577
0.0012292899
-0.0015532841
0.010001407
0.00040161639
-0.0093107312
0.010754978
0.00041596457
0.011477173
0.000474549
0.012134007
0.00056252823
0.0056768879
-0.00015309466
-0.0051221077
0.0063001535
-0.00020723709
0.0069884968
-0.0002137242
0.0028822204
-0.00064427178
-0.0023909637
0.0033866031
-0.00071153489
-0.00075139967
0.0018828003
-0.0010294353
-0.0014975333
0.0022401265
-0.0010687458
0.0012803721
-0.0012725125
-0.0010371649
-0.0013826485
-0.00053628004
-0.0013755435
3.7958491e-05
0.00063698296
0.00040480886
0.0015237245
0.00059541922
0.0011065939
0.00073559774
0.00061350452
-0.00016584165
0.00081395601
8.7828066e-05
0.00077324159
0.00041552614
0.00080319346
-0.00040442423
0.00078521863
0.00095910533
0.00070674048
-0.00086232044
0.0010225742
0.00072211036
0.00071851315
0.0015585774
0.00053354347
-0.0013850677
0.0017124673
0.00056856386
0.0018553037
0.0005760557
0.00056871842
0.0027492611
-0.0026244609
0.0029300233
0.003140755
0.00334683
-0.0016884001
0.01616955
-0.016115828
-0.0017813153
0.02198664
-0.021893606
-0.0018074972
0.028020698
-0.027994356
-0.001744579
0.033174131
-0.03323684
-0.0015868552
0.036140122
-0.036297588
-0.0013819838
0.036138448
-0.036343035
-0.0011670487
0.033293882
-0.033508537
-0.00096885871
0.028520753
-0.028718695
0.022991113
-0.00080239627
-0.023157374
-0.0017297532
0.016241712
-0.0017966586
0.022053676
-0.0018098496
0.02803407
-0.0017376089
0.033102129
-0.0015905872
0.035993388
-0.0013926025
0.035940786
-0.001180232
0.033081829
-0.00098186499
0.028322668
0.022823255
-0.00081377617
-0.0016912963
0.016318357
-0.0017676644
0.02213019
-0.0017921811
0.028058788
-0.0017317067
0.033041929
-0.0015910014
0.035853021
-0.0013984587
0.035748615
-0.0011888652
0.0328726
-0.00099124846
0.028125374
0.022655013
-0.0008227417
-0.0016614111
0.016405332
-0.0017408573
0.022209802
-0.001771521
0.028089682
-0.0017202369
0.032990957
-0.0015877952
0.035720969
-0.0014004404
0.035561688
-0.0011936481
0.032666228
-0.00099713662
-0.0008287334
-0.0016474391
0.016499625
-0.001725606
-0.0017576493
-0.0017114023
-0.0015843665
-0.0014008977
-0.00065617018
0.020247271
-0.020393319
-0.00051304988
0.019129608
-0.019272562
-0.00037345749
0.018061383
-0.018200821
-0.00023812885
0.017047239
-0.017182425
-0.00010992313
0.016086165
-0.016214239
0.015110272
-0.015220073
-0.00066688558
0.020100585
-0.0005224886
0.018985402
-0.00038178075
0.017920852
-0.00024598849
0.016911611
-0.00011893572
0.015959265
0.014991479
-0.00067573832
0.019953816
-0.0005310896
0.018840972
-0.00039011317
0.01778008
-0.00025390315
0.016775591
-0.0001231673
0.015828705
0.014868475
-0.00068159351
-0.00053658254
-0.00039499189
-0.00025767396
-0.00012484932
-0.001644094
0.015980853
0.0020247056
-0.016361599
-0.0012869776
0.015021004
-0.015378254
-0.00095393905
0.014117564
-0.014450733
-0.00064340525
0.013279102
-0.013589762
-0.00034659469
0.012531096
-0.012828026
0.011971941
-0.012318648
-0.0013725037
0.015662783
0.0016904524
-0.0010734393
0.01472182
-0.00079414228
0.013838149
-0.00053254425
0.01301739
-0.0002804052
0.012278848
0.011691432
-0.0011280798
0.015400775
0.0013899811
-0.00088156063
0.014475197
-0.00065082891
0.013607319
-0.00043404432
0.012800515
-0.00022451853
0.012069237
0.011466829
-0.00090548301
0.015187518
0.0011186667
-0.00070321215
0.014272858
-0.00051171503
0.013415758
-0.00032938601
0.012618122
-0.00015246191
0.011892254
0.011314318
-0.00070854156
0.015018745
0.00087726969
-0.00054727716
0.014111556
-0.00039361868
0.01326207
-0.00024771056
0.012472194
-0.00011154287
0.011756066
0.01120275
-0.00054757574
0.014895745
0.0006705718
-0.0004315922
0.013995575
-0.00032375915
0.01315424
-0.00022498364
0.012373415
-0.00013567674
0.01166676
0.011067084
-0.00039734356
0.014813028
0.00048007878
-0.00031961759
0.013917878
-0.0002475397
0.013082196
-0.00018044368
0.012306358
-0.00011219283
0.011598543
0.010954916
-0.00024755145
0.014766012
0.00029460342
-0.00020309434
0.013873468
-0.00016152704
0.013040678
-0.00012190595
0.012266781
-7.8339506e-05
0.011555021
0.010876628
-9.8576051e-05
0.014753215
0.00011140168
-8.6230744e-05
0.013861166
-7.4420117e-05
0.01302892
-6.2283009e-05
0.0122547
-4.5475214e-05
0.011538266
0.0108312
5.27998e-05
0.014774193
-7.3763433e-05
3.2845375e-05
0.013881152
1.4035803e-05
0.013047766
-3.0156526e-06
0.012271788
-1.5109346e-05
0.011550396
0.01081613
0.00020472256
0.014828695
-0.00025922467
0.00015216151
0.013933729
0.00010222928
0.013097725
5.6083921e-05
0.012317963
1.6765436e-05
0.011589745
0.010832921
0.0003625297
0.014914109
-0.00044792364
0.00027755053
0.014018731
0.00019430749
0.013180988
0.00011510336
0.012397187
4.5884485e-05
0.011658982
0.010878826
0.00052176643
0.0150241
-0.00063170594
0.00041202546
0.014128511
0.00030303657
0.013290011
0.00019491536
0.012505337
8.8904431e-05
0.011765018
0.010967749
0.00065726221
0.015188514
-0.00082160015
0.00050262406
0.014283205
0.0003581489
0.013434529
0.00022499209
0.012638529
0.00010448912
0.011885551
0.011072263
0.00096551668
0.015414396
-0.0011913043
0.00074949851
0.014499293
0.00054387978
0.013640201
0.0003493334
0.012833119
0.00016485061
0.012070071
0.011237146
0.0012293869
0.015696978
-0.0015118639
0.00095653717
0.014772223
0.00069473233
0.01390207
0.00044564982
0.013082253
0.00021425122
0.012301514
0.011451434
0.0014891269
0.016034431
-0.0018264694
0.0011638455
0.015097593
0.00085170334
0.014214283
0.00055218201
0.013381834
0.00026651086
0.012587238
0.011717991
0.0017651089
0.016434181
-0.0021647445
0.001379673
0.015483125
0.001010142
0.014583896
0.00065728607
0.013734761
0.00032006442
0.012924522
0.012038112
0.0020601586
0.01690125
-0.0025271036
0.0016105702
0.015932819
0.0011798118
0.015014746
0.00076842847
0.014146226
0.00037566663
0.013317358
0.012413847
0.0023740573
0.017440665
-0.0029133368
0.0018557435
0.016451253
0.0013594786
0.015511118
0.00088548099
0.01462032
0.000433262
0.013769664
0.012847189
0.0027046681
0.018056335
-0.003320184
0.0021147816
0.017041278
0.0015511727
0.016074852
0.0010130139
0.015158592
0.00049686435
0.014285917
0.013344149
0.0030449312
0.018754087
-0.0037425064
0.0023769657
0.017709405
0.0017393658
0.016712599
0.0011322524
0.015765841
0.00055545727
0.014862837
0.01389972
0.0034076996
0.019530118
-0.0041835245
0.0026662937
0.018451001
0.0019586025
0.017420465
0.0012818933
0.016442711
0.00062795568
0.015516923
0.014527813
0.0037302496
-0.0045932104
0.0029089112
0.0021287613
0.0013892375
0.00069209726
-0.0038586161
0.016166782
0.0035551302
-0.01586339
-0.0040576566
0.020917032
-0.020718103
-0.0040941819
0.025663961
-0.025627562
-0.0039355819
0.029411714
-0.029570451
-0.0036022354
0.031188154
-0.031521647
-0.0031691733
0.030500562
-0.030933781
-0.0027255615
0.027598184
-0.02804196
-0.0023347447
0.023303646
-0.023694623
0.018575691
-0.018885875
-0.0032209305
0.016444498
0.0029431295
-0.0034337152
0.021129716
-0.0034843146
0.025714449
-0.003346463
0.029273742
-0.003051113
0.030892674
-0.0026712946
0.030120603
-0.0022872158
0.027213957
-0.0019531784
0.022969463
0.018312833
-0.0026429147
0.016708195
0.0023791423
-0.0028352754
0.021321988
-0.0028874813
0.025766555
-0.00277463
0.029160782
-0.0025245637
0.030642491
-0.0022035139
0.029799427
-0.001881556
0.026891867
-0.0016048277
0.022692605
0.01809787
-0.0021082601
0.016942794
0.0018735997
-0.0022754909
0.021489143
-0.002326289
0.025817265
-0.0022369453
0.029071339
-0.0020325109
0.03043795
-0.0017707547
0.029537561
-0.0015104218
0.026631425
-0.0012890042
0.022471086
0.017927447
-0.0016164757
0.017145968
0.0014132568
-0.001762038
0.021634645
-0.00180628
0.025861427
-0.0017374258
0.029002387
-0.0015785866
0.030279007
-0.0013752957
0.029334172
-0.0011748308
0.026430874
-0.0010060542
0.022302237
0.017798606
-0.0011612475
0.017313523
0.00099367901
-0.0012816305
0.021754988
-0.0013241397
0.025903857
-0.0012778215
0.02895596
-0.001162121
0.030163192
-0.0010158745
0.02918783
-0.00087384772
0.02628878
-0.00075701547
0.022185366
0.017712145
-0.00073511103
0.017445501
0.00060314764
-0.0008316478
0.02185149
-0.00087212485
0.025944231
-0.00084920172
0.028932885
-0.00077743608
0.030091274
-0.00068513635
0.029095416
-0.00059754526
0.026201124
-0.00052838372
0.022116182
0.017663845
-0.00033218722
0.017541408
0.00023638731
-0.00040566327
0.021924955
-0.00044453441
0.025982943
-0.00044423068
0.028932341
-0.00041439577
0.030061208
-0.00037279828
0.029053653
-0.00033527057
0.026163512
-0.00030916386
0.022090054
0.017649303
5.8877763e-05
0.017604588
-0.00012200273
2.847258e-06
0.021980803
-3.6274493e-05
0.026021666
-5.7109612e-05
0.028952739
-6.5754286e-05
0.03006948
-7.1123657e-05
0.029058765
-8.0150215e-05
0.0261724
-9.428352e-05
0.022104138
0.017666424
0.00044233373
0.017662668
-0.00049978645
0.00038984572
0.02203291
0.00034716575
0.0260636
0.00030899283
0.028990224
0.00026866392
0.030109266
0.0002231693
0.029103896
0.00017244781
0.026222921
0.00012097269
0.022155529
0.017713616
0.00054692669
0.017597557
-0.00048115866
0.00060289837
0.021970697
0.00062694916
0.026035277
0.00061363069
0.029001545
0.00056804216
0.030153833
0.00050036752
0.029171052
0.00041828564
0.026304756
0.00033451708
0.022239194
0.017788876
0.00063950461
0.017535187
-0.00057663568
0.00071139145
0.021904514
0.0007788251
0.025970943
0.00082664235
0.028954631
0.00082389879
0.030156809
0.00075523274
0.029239763
0.00065330128
0.026406698
0.00054547462
0.022347035
0.017886445
0.0013238131
0.017462606
-0.0012517301
0.0013642975
0.021865493
0.0013505236
0.025986281
0.0012645552
0.029041605
0.0011336263
0.030288292
0.00099750638
0.029376213
0.00086773068
0.026536672
0.00074499471
0.022469893
0.01799981
0.0019741607
0.01735439
-0.0018661056
0.0020304586
0.021809683
0.0020090999
0.026008487
0.0018996413
0.029151928
0.0017117236
0.030476909
0.0014743409
0.029614068
0.0012231564
0.026788159
0.00099904216
0.022694197
0.018177369
0.0025035017
0.017184549
-0.0023339183
0.0026109683
0.021702344
0.0026150182
0.026004929
0.0025015229
0.029266084
0.0022816704
0.030697396
0.001995987
0.029900248
0.0016970549
0.027087442
0.001421963
0.02296952
0.018408171
0.0030732187
0.016980339
-0.0028691431
0.0032010874
0.021574532
0.0032093326
0.025996984
0.0030747165
0.029401178
0.0028158163
0.030956816
0.0024804936
0.030236024
0.0021241497
0.027444131
0.0017925039
0.023301404
0.018688964
0.0037555952
0.016750387
-0.0035256899
0.0038921394
0.021438043
0.0038837108
0.026005633
0.0037081943
0.029577065
0.0033875893
0.031277856
0.0029791951
0.030644824
0.0025512299
0.027872419
0.0021574238
0.023695442
0.019020074
0.0045615762
0.016512408
-0.0043235784
0.0046887203
0.021310984
0.004646586
0.026047962
0.0044129984
0.029810965
0.0040167471
0.031674482
0.0035256904
0.031136242
0.0030176759
0.028380732
0.0025533369
0.024160004
0.019408822
0.0055150929
0.016295687
-0.0052983136
0.0056037048
0.021222481
0.0055033539
0.026148501
0.0051921312
0.030122465
0.0047044207
0.032162526
0.0041182041
0.03172279
0.0035204705
0.028978751
0.0029783937
0.024702302
0.019860273
0.0066144932
0.016131391
-0.0064501207
0.0066348736
0.021202221
0.0064504141
0.026333146
0.0060411594
0.030531981
0.0054463745
0.032757623
0.004753179
0.032416304
0.0040573064
0.029674907
0.0034315635
0.025328273
0.020378672
0.0078150052
0.016040925
-0.0077244459
0.0077483287
0.021269031
0.0074635094
0.026618156
0.0069430621
0.031052685
0.0062309483
0.033470046
0.0054224138
0.03322516
0.0046221739
0.030475441
0.0039083272
0.026042364
0.020967004
0.009075651
0.016037246
-0.0090718703
0.008909946
0.021434879
0.0085150253
0.027013275
0.0078766824
0.031691291
0.0070426851
0.034304359
0.0061152077
0.034152973
0.0052077556
0.031383208
0.0044033471
0.026847041
0.021628058
0.010278102
0.016050203
-0.010290949
0.010059395
0.021653735
0.0095713102
0.027501563
0.0088194162
0.032443455
0.007863942
0.035260164
0.0068185806
0.035198692
0.0058051973
0.032396937
0.0049127695
0.02773977
0.022357545
0.011188976
-0.011254478
0.010949265
0.010456689
0.009663589
0.0086265156
0.0074825623
0.0063713448
0.00539276
-0.00046701545
0.012912699
-0.012445749
-0.0010267067
0.013006779
-0.012447161
-0.0016182078
0.013245924
-0.012654502
-0.0022327142
0.013636871
-0.01302245
-0.0028764837
0.014120129
-0.01347645
0.01468109
-0.01400254
-0.00035766407
0.013270307
-0.00080744919
0.013456502
-0.0012976504
0.013736056
-0.0018160178
0.014155163
-0.0023636008
0.01466763
0.01526053
-0.00025018374
0.013520449
-0.00060520228
0.013811471
-0.00099899253
0.014129792
-0.0014238774
0.014579986
-0.0018829169
0.0151266
0.015756679
-0.00017004827
0.013690473
-0.00043274643
0.014074143
-0.00073915559
0.014436167
-0.0010796865
0.014920477
-0.0014568441
0.015503707
0.016173374
-9.5307193e-05
0.013785784
-0.00028103033
0.014259868
-0.00050976349
0.014664899
-0.00077292865
0.015183632
-0.001073083
0.015803838
0.01651351
-2.7837205e-05
0.013813669
-0.00014972735
0.014381808
-0.00030567964
0.014820902
-0.00049750702
0.015375502
-0.00072598858
0.016032346
0.016781206
3.3087504e-05
0.013780677
-2.2821131e-05
0.014437825
-0.00011564535
0.014913851
-0.00024188465
0.01550186
-0.00040349934
0.016194053
0.016980907
9.5821728e-05
0.013684926
9.927722e-05
0.014434469
6.3315852e-05
0.014949945
-3.3483429e-06
0.015568717
-0.00010177062
0.016292685
0.017115709
0.00013580495
0.013549062
0.00018121157
0.014389179
0.00021628565
0.014915305
0.00022208198
0.015563509
0.00019233399
0.016322962
0.017186344
0.00022295864
0.013325567
0.00039228954
0.014218694
0.00047092476
0.01483609
0.00052019601
0.015514744
0.00053345925
0.016310845
0.017221227
0.0001765607
0.013141461
0.00029740536
0.014095214
0.00036963598
0.014771209
0.00038524648
0.015504795
0.00040832994
0.016291891
0.017153672
3.299403e-05
0.013113519
3.4472185e-05
0.014093133
0.00013246852
0.014668379
0.00029870974
0.015335084
0.00046392756
0.016124174
0.017037686
0.00024827188
0.012865605
0.00048052031
0.013861676
0.00072317035
0.014426701
0.00092984408
0.015129129
0.0011016708
0.015952338
0.01688648
0.00057798997
0.012289957
0.00092606984
0.013514111
0.0011704492
0.01418152
0.0014051281
0.014892974
0.0016394932
0.015716555
0.016659005
0.00056088849
0.011729475
0.00094015323
0.013135037
0.0013145093
0.013806703
0.0016709082
0.014535846
0.0020092471
0.015377486
0.016333768
0.00063435294
0.011095143
0.001127925
0.012641467
0.0015890413
0.013345404
0.0020304789
0.014094141
0.0024567705
0.014950901
0.015921139
0.00074732237
0.010347828
0.0013761595
0.012012664
0.0019489471
0.012772582
0.0024943829
0.013548622
0.0030190741
0.014426099
0.015414424
0.00088658712
0.009461259
0.0017074738
0.011191805
0.002430113
0.012049954
0.00309426
0.012884464
0.0037234953
0.013796843
0.014814334
0.0011239776
0.0083373182
0.0021688895
0.010146914
0.0030591737
0.011159691
0.0038627465
0.012080909
0.0046021826
0.01305743
0.014118243
0.0015325292
0.0068048196
0.0028352221
0.0088442463
0.0039196947
0.010075244
0.0048519222
0.011148714
0.0056836751
0.012225722
0.013351859
0.002154114
0.00465072
0.0037909591
0.007207431
0.0049954171
0.0088708334
0.006014146
0.010130043
0.0069098319
0.011330104
0.012537326
0.0027260526
0.0019247033
0.0049941919
0.0049393403
0.0063753367
0.0074897377
0.0073691829
0.0091362588
0.0082525589
0.010446802
0.011718104
0.0023728878
-0.00044814464
0.0045461158
0.0027662136
0.0068838137
0.0051521636
0.0084718929
0.00754828
0.0094702725
0.0094485151
0.010897532
0.0011435414
-0.0015916452
0.0030453583
0.00086448106
0.0055529246
0.0026446646
0.008131298
0.004969997
0.010067608
0.0075123098
0.0097107808
0.00015950797
-0.0017510416
0.0015873521
-0.00056331469
0.0035837041
0.00064836961
0.0064294464
0.0021243244
0.0098826134
0.0040592443
0.0067162586
-0.00029554207
-0.0014554395
0.00034297144
-0.0012017685
0.0016400113
-0.00064860415
0.0035163779
0.00024803777
0.0060827097
0.0014929903
0.003488346
-0.00011470449
-0.0013406787
-3.3310465e-05
-0.0012830995
0.00039744724
-0.0010792911
0.0013390397
-0.00069347755
0.0028330602
-9.5489014e-07
0.001199373
6.3960909e-06
-0.0013470039
2.1373452e-05
-0.001298012
0.00011534352
-0.0011731818
0.00040790267
-0.000985953
0.0010673863
-0.00066035168
-0.00012411794
0.00011747995
-0.0014644043
0.00019452163
-0.0013749734
0.00029942517
-0.0012779969
0.00048125236
-0.0011676855
0.00083726382
-0.0010162634
-0.00078428231
7.5576435e-05
-0.0015398905
0.00017282344
-0.001472122
0.00028544609
-0.0013905155
0.0004414102
-0.0013235383
0.00067323381
-0.0012479683
-0.0011480865
4.33333e-05
-0.0015831123
7.7587283e-05
-0.001506254
0.0001318279
-0.0014446284
0.000214385
-0.0014059602
0.00034170388
-0.0013751421
-0.0013425067
-3.3979646e-05
-0.0015489977
-7.2096204e-05
-0.0014679959
-9.6219744e-05
-0.0014203517
-0.0001034712
-0.0013985454
-8.8211159e-05
-0.0013902267
-0.0013925712
-0.0001532672
-0.0013955858
-0.0002785739
-0.0013425331
-0.0003905174
-0.0013082394
-0.00048843551
-0.0013004454
-0.00057068991
-0.0013077743
-0.0013260605
-0.00023128888
-0.0011641411
-0.00044734876
-0.0011263
-0.00064703386
-0.0011083667
-0.00083511449
-0.0011121607
-0.0010147987
-0.0011278681
-0.001154799
-0.00029767401
-0.0008662955
-0.00057709036
-0.00084669678
-0.00084257178
-0.00084268325
-0.0011016505
-0.0008528612
-0.0013581722
-0.00087110409
-0.00089820492
-0.00033349819
-0.00053261895
-0.00065562979
-0.00052436909
-0.00097267689
-0.00052542195
-0.0012838639
-0.00054143969
-0.0015930917
-0.00056161845
-0.00058380509
-0.00035337013
-0.00017907336
-0.00071382965
-0.00016371382
-0.0010481446
-0.00019089155
-0.0013755722
-0.00021377422
-0.0017057174
-0.00023120861
-0.00024489576
-0.00043157702
0.00025267825
-0.00074536997
0.00015027507
-0.0010540115
0.000117967
-0.0013687911
0.00010124599
-0.0016906422
9.0910812e-05
8.6523615e-05
-0.00029710844
0.00054995998
-0.0006198534
0.0004732109
-0.00092965747
0.0004279851
-0.0012309362
0.00040276624
-0.0015314733
0.00039171984
0.00039075089
-0.00027002451
0.00082015277
-0.00053251771
0.00073589139
-0.00078600121
0.00068167976
-0.0010340881
0.00065109285
-0.0012789826
0.00063688415
0.000635796
-0.00020836847
0.0010286931
-0.00040357728
0.00093129348
-0.00058992107
0.00086824124
-0.00076996819
0.00083138613
-0.00094241676
0.00080961026
0.00080028534
-0.00011364775
0.0011425183
-0.00022889859
0.0010467429
-0.00034115816
0.00098072539
-0.00044574653
0.0009362276
-0.00053876596
0.0009029146
0.0008753436
-1.5821184e-05
0.0011585185
-5.1295055e-05
0.0010824187
-8.2116087e-05
0.0010117718
-0.00010360316
0.00095796869
-0.0001089681
0.00090856532
0.00085452686
3.2081018e-05
0.0011266187
6.6387869e-05
0.001048315
0.00010547701
0.00097291124
0.00016433269
0.00089937043
0.00025847405
0.00081471467
0.00070890304
0.00010087249
0.0010259303
0.00015206473
0.00099733241
0.00022489239
0.00090031727
0.00034434965
0.00078017668
0.00055003254
0.00060932764
0.00039694562
7.3345832e-05
0.00095277204
0.00010879228
0.00096209894
0.00017157662
0.00083777099
0.00034299162
0.00060902746
0.00073855679
0.00021405741
-0.00024923925
3.0813191e-05
0.00092214541
5.3069669e-05
0.00094005125
0.00012245249
0.00076862665
0.00050572024
0.00022602314
0.001354129
7.2026946e-05
0.00085029689
0.00013088088
0.00088138876
0.00072181221
-0.00068290945
-0.014749615
0.015432489
-0.001427718
-0.015040655
0.015785419
-0.0022029812
-0.015408619
-0.015958799
-0.00077756936
-0.013972095
-0.0016122853
-0.014205998
-0.0024740624
-0.01454691
-0.0033682982
-0.015064644
-0.0043030115
-0.015700339
-0.01643074
-0.0052848774
-0.0008549845
-0.013117167
-0.0017658628
-0.013295188
-0.0027059431
-0.013606907
-0.0036797189
-0.014090955
-0.0046924971
-0.014687657
-0.015374301
-0.0057490408
-0.00092677455
-0.012190454
-0.0019090353
-0.012312999
-0.0029207271
-0.012595296
-0.0039669838
-0.013044787
-0.0050530394
-0.013601699
-0.01424222
-0.0061852228
-0.00098877736
-0.011201741
-0.0020386046
-0.011263245
-0.003118656
-0.011515327
-0.0042336246
-0.011929908
-0.0053879171
-0.012447502
-0.013040713
-0.0065895247
-0.0010440138
-0.010157793
-0.0021616869
-0.010145647
-0.0033045007
-0.010372597
-0.0044799313
-0.010754568
-0.005693225
-0.011234305
-0.011778613
-0.0069554244
-0.0011258816
-0.00903198
-0.0023047199
-0.0089668868
-0.003492286
-0.0091851161
-0.0047077105
-0.0095392369
-0.0059675738
-0.0099745405
-0.010467313
-0.0072789771
-0.0012911537
-0.0077408989
-0.0024734475
-0.0077846732
-0.0036726725
-0.0079859796
-0.0049100023
-0.008302003
-0.0062012799
-0.0086833653
-0.0091146169
-0.0075540847
-0.0012745827
-0.0064663921
-0.0025121397
-0.0065472011
-0.0037538528
-0.0067443598
-0.0050386309
-0.0070173261
-0.0063830208
-0.0073390843
-0.0077113798
-0.0077863753
-0.0012821935
-0.0051842794
-0.0025353613
-0.0052941239
-0.0038195922
-0.0054602285
-0.0051537607
-0.0056832657
-0.0065359928
-0.0059569695
-0.0062714987
-0.0079760009
-0.001281057
-0.0039033085
-0.0025635432
-0.0040117338
-0.0038859343
-0.0041379431
-0.0052462213
-0.004323094
-0.006656211
-0.0045471053
-0.0048031011
-0.0081247455
-0.0012449451
-0.0026584534
-0.0025679981
-0.0026887815
-0.0039208412
-0.0027852107
-0.005307404
-0.0029366521
-0.0067403005
-0.0031143411
-0.0033127896
-0.0082307572
-0.0012498683
-0.0014086818
-0.0026185132
-0.0013202437
-0.0039770074
-0.0014268335
-0.0053655727
-0.0015482143
-0.0068039038
-0.0016761493
-0.0018137776
-0.0083030691
-0.0015792825
0.00017049335
-0.0028141393
-8.5504287e-05
-0.0040861294
-0.00015497054
-0.0054352891
-0.00019919113
-0.0068581004
-0.00025348583
-0.00031914921
-0.0083528904
-0.0012433034
0.0014136825
-0.0026067748
0.0012778644
-0.0039751668
0.0012133088
-0.0053723982
0.001197912
-0.0068196604
0.0011936324
0.0011897423
-0.008328712
-0.0012413503
0.0026549272
-0.002553253
0.0025896577
-0.0039128651
0.0025728021
-0.0053136667
0.0025985826
-0.0067639772
0.0026437979
0.0026993979
-0.008273794
-0.0012491055
0.0039039322
-0.0025493262
0.0038897672
-0.0038934767
0.0039168313
-0.005278214
0.0039831877
-0.0067155268
0.004080966
0.0041974811
-0.0082137695
-0.0012857236
0.0051895584
-0.0025544305
0.0051583659
-0.0038638016
0.0052260841
-0.0052314204
0.0053506779
-0.0066521149
0.0055015204
0.0056795633
-0.0081343511
-0.0012843129
0.0064737769
-0.0025507954
0.006424744
-0.0038384764
0.0065136512
-0.0051776948
0.0066897726
-0.0065779698
0.0069016608
0.0071394516
-0.0080380052
-0.001293581
0.0077672682
-0.0025604691
0.007691532
-0.0038361643
0.0077892377
-0.0051448145
0.0079983055
-0.0065108717
0.008267591
0.0085681674
-0.0079397253
-0.0013207128
0.0090878969
-0.0025428384
0.0089135631
-0.0037884992
0.0090347958
-0.0050746759
0.0092843718
-0.0064120801
0.0096048767
0.0099662669
-0.0078103071
-0.0011887102
0.010276527
-0.0024118641
0.010136628
-0.003655934
0.010278769
-0.0049396021
0.010567936
-0.0062687362
0.0109339
0.011343528
-0.0076461146
-0.0011101865
0.011386636
-0.002302913
0.011329269
-0.0035225085
0.011498272
-0.0047815576
0.011826887
-0.0060866716
0.01223891
0.012693488
-0.0074367414
-0.0010591863
-0.002177159
-0.0033334763
-0.0045291336
-0.0057667727
-0.007075929
-3.0468059e-05
0.00088095795
-0.016035174
-0.00060270223
-0.0069061605
-0.0074201921
0.0072503377
-0.0064207382
-0.0079222578
-0.0058064011
-0.0082605581
-0.0050705159
-0.0085463133
-0.0042287048
-0.0087816721
-0.003285827
-0.008981032
-0.0022557555
-0.0091645826
-0.0011551039
-0.0093145897
-4.7641874e-07
-0.0094285959
0.0011809722
-0.0095103335
0.0023654324
-0.0095375252
0.0035541632
-0.0094919672
0.0047248066
-0.009401559
0.0058558076
-0.0092558949
0.0069303374
-0.009050667
0.0079294212
-0.0087855828
0.0088436545
-0.0084684298
0.0096651141
-0.0081005385
0.010376391
-0.007666796
0.010963233
-0.0071764562
0.011415779
-0.0066378574
0.011726363
-0.0060597143
-0.0054520308
-0.0070190868
-0.0079120552
0.0075108529
-0.006408585
-0.008532867
-0.0056923759
-0.0089768904
-0.0048754365
-0.009363394
-0.0039722743
-0.0096849922
-0.0029736988
-0.0099797801
-0.0018978467
-0.010240619
-0.00076214287
-0.010450487
0.00041680249
-0.010607739
0.0016159942
-0.010709724
0.0028183421
-0.01074007
0.0040203202
-0.010694135
0.0052031611
-0.01058458
0.0063502006
-0.010403102
0.0074478643
-0.010148485
0.0084830806
-0.0098209387
0.0094328207
-0.0094182951
0.010294816
-0.0089626456
0.011069584
-0.0084416643
0.011734037
-0.0078410014
0.012276855
-0.007180763
0.012688403
-0.0064713494
-0.0057295299
-0.0069359379
-0.0085363487
0.0075601167
-0.0062218059
-0.0092471266
-0.0054216145
-0.0097772297
-0.004548409
-0.010236768
-0.0035855424
-0.010648045
-0.0025343163
-0.011031208
-0.0014222715
-0.011352878
-0.00026255766
-0.011610423
0.0009303782
-0.011800901
0.0021383242
-0.011917897
0.0033486079
-0.011950578
0.0045547005
-0.011900443
0.0057414298
-0.011771514
0.0068958998
-0.011557764
0.0080063381
-0.0112591
0.0090613514
-0.010876112
0.010051893
-0.01040898
0.010953974
-0.0098648525
0.011773253
-0.0092610548
0.012504756
-0.0085726023
0.013130837
-0.0078069315
0.01364065
-0.0069812459
-0.0061158945
-0.0066574806
-0.009272022
0.0073930136
-0.005857512
-0.010047252
-0.004998895
-0.010636026
-0.0040632118
-0.011172653
-0.0030368346
-0.011674643
-0.0019511454
-0.012117132
-0.00081649337
-0.012487777
0.00035558108
-0.012782752
0.0015523958
-0.012997975
0.0027592931
-0.013125054
0.0039666776
-0.013158218
0.0051674774
-0.01310149
0.0063496291
-0.012953901
0.0075031312
-0.012711488
0.0086183573
-0.012374532
0.0096859169
-0.011943859
0.010697208
-0.011420439
0.011640316
-0.01080811
0.012500999
-0.010121866
0.013290164
-0.0093618763
0.013993546
-0.0085104073
0.014597454
-0.0075852342
-0.0066095276
-0.0061649516
-0.010098076
0.0069908306
-0.0053075056
-0.010904891
-0.004388113
-0.011555637
-0.0033859154
-0.01217509
-0.0023244769
-0.01273634
-0.0012161656
-0.013225717
-6.9931727e-05
-0.013634296
0.0011038304
-0.013956807
0.0022933536
-0.014187794
0.0034883837
-0.01432038
0.0046830113
-0.014353137
0.0058696271
-0.014288388
0.0070387923
-0.014123338
0.0081829839
-0.013855938
0.0092948791
-0.013486668
0.010367442
-0.013016645
0.011394295
-0.012447494
0.012367943
-0.011781937
0.013269072
-0.011023151
0.014098727
-0.010191662
0.014865885
-0.0092776739
0.015554703
-0.00827414
-0.0072050558
-0.0054468838
-0.010981269
0.0063298587
-0.0045383477
-0.011813665
-0.0035595177
-0.012534728
-0.0025224952
-0.013212395
-0.0014391871
-0.013819948
-0.00032012043
-0.014345098
0.00082556897
-0.014780311
0.001989337
-0.015120908
0.0031619006
-0.015360694
0.0043364386
-0.015495254
0.0055087913
-0.015525822
0.0066723128
-0.015452235
0.0078201928
-0.015271533
0.0089468848
-0.014982932
0.010046916
-0.014586986
0.011114937
-0.014084934
0.012145812
-0.013478615
0.013134239
-0.012770587
0.014074688
-0.011963797
0.014947612
-0.011064756
0.015759298
-0.010089499
0.01651666
-0.0090316121
-0.007891709
-0.0045127752
-0.011885264
0.0054165079
-0.0035545444
-0.012772178
-0.0025316808
-0.013557897
-0.0014676837
-0.014276717
-0.00037307683
-0.014914898
0.00074414313
-0.015462676
0.0018770999
-0.015913636
0.0030189968
-0.01626318
0.0041641112
-0.016506189
0.0053094646
-0.016640988
0.0064513092
-0.016668044
0.0075842781
-0.016585576
0.0087038934
-0.016391513
0.0098062304
-0.016085623
0.010887373
-0.015668468
0.011943399
-0.015141284
0.012970429
-0.01450595
0.013964616
-0.013765054
0.014922353
-0.012921789
0.015837713
-0.01198034
0.016695236
-0.010947215
0.017501272
-0.0098378056
-0.0086509314
-0.003330187
-0.012842052
0.004286672
-0.00232133
-0.013781363
-0.0012758774
-0.014603699
-0.000206513
-0.01534645
0.00087971427
-0.016001512
0.0019777637
-0.016561127
0.0030835804
-0.017019865
0.0041925122
-0.017372533
0.0053015465
-0.017615649
0.0064095526
-0.017749423
0.0075135854
-0.017772505
0.0086099523
-0.017682368
0.0096958768
-0.017477858
0.010768691
-0.01715885
0.011825702
-0.016725881
0.012864154
-0.016180124
0.013881254
-0.015523421
0.014874176
-0.014758328
0.015840162
-0.013888101
0.016776254
-0.012916731
0.017677962
-0.011849188
0.01853294
-0.010693011
-0.0094643179
-0.001853809
-0.013839791
0.0028511983
-0.00083813926
-0.014797408
0.00019682502
-0.015639061
0.0012451334
-0.016395175
0.0023023062
-0.017059118
0.003365227
-0.017624494
0.0044304062
-0.018085503
0.0054955946
-0.018438189
0.0065611609
-0.018681691
0.0076259305
-0.018814673
0.0086872841
-0.018834342
0.0097432856
-0.018738853
0.010792331
-0.018527385
0.011832751
-0.018199747
0.012862782
-0.017756383
0.01388057
-0.017198373
0.014884173
-0.016527472
0.015871558
-0.015746144
0.01684063
-0.014857584
0.017789246
-0.013865732
0.018715153
-0.01277545
0.019615003
-0.011593178
-0.010328615
-0.00017613309
-0.014829773
0.0011657179
0.00081915095
-0.015793116
0.0018237528
-0.016644109
0.0028344387
-0.017406325
0.0038482989
-0.018073458
0.0048629549
-0.018639646
0.0058775025
-0.01910056
0.0068932838
-0.019454492
0.0079104657
-0.019699403
0.0089276134
-0.019832358
0.009943693
-0.019850965
0.010957967
-0.019753674
0.011969563
-0.01953953
0.012977485
-0.019208218
0.013980627
-0.01876007
0.014977799
-0.018196083
0.015967728
-0.017517929
0.016949032
-0.016727964
0.017920195
-0.015829245
0.018879553
-0.014825567
0.019825328
-0.013721676
0.020755475
-0.012523743
-0.011239795
0.0016287952
-0.015786193
-0.0006728144
0.00257906
-0.016743846
0.0035322606
-0.0175978
0.0044858007
-0.018360376