/*--------------------------------*- C++ -*----------------------------------*\
| =========                 |                                                 |
| \\      /  F ield         | OpenFOAM: The Open Source CFD Toolbox           |
|  \\    /   O peration     | Version:  2406                                  |
|   \\  /    A nd           | Website:  www.openfoam.com                      |
|    \\/     M anipulation  |                                                 |
\*---------------------------------------------------------------------------*/
FoamFile
{
    version     2.0;
    format      ascii;
    arch        "LSB;label=32;scalar=64";
    class       volScalarField;
    location    "0.006";
    object      k;
}
// * * * * * * * * * * * * * * * * * * * * * * * * * * * * * * * * * * * * * //

dimensions      [0 2 -2 0 0 0 0];

internalField   nonuniform List<scalar> 
92813
(
119.10574
110.76311
102.16729
93.715041
85.473983
77.392861
69.929275
63.058825
56.518314
50.446476
44.913411
39.897822
35.385974
31.349536
27.753816
24.56947
21.76974
19.316615
17.170006
15.289857
13.647532
12.211732
10.956034
9.8576562
8.895872
8.0511874
7.3056233
6.6462207
6.0627095
5.5439974
5.080763
4.6656943
4.2931657
3.9581436
3.6559231
3.3825207
3.1349835
2.9107875
2.7071228
2.5217775
2.3529722
2.1991476
2.0586826
1.9299956
1.8117564
1.7027661
1.6021068
1.5089754
1.4226762
1.3426185
1.2682442
1.1991764
1.1351327
1.0758159
1.0209691
0.97035336
0.92375895
0.88095052
0.84162224
0.80553471
0.77248411
0.74225726
0.71459333
0.68923442
0.66603415
0.64482669
0.62543177
0.60770296
0.59148666
0.57666224
0.56309613
0.5506662
0.53925199
0.52873115
0.51899675
0.5099527
0.50152518
0.49366516
0.48633722
0.47952582
0.47321555
0.46739433
0.46204157
0.4571309
0.45263396
0.44851681
0.44474628
0.44128959
0.43811499
0.43518964
0.43247856
0.42995286
0.42759027
0.42537467
0.42329315
0.42133931
0.41951008
0.41780252
0.41621363
0.41473603
0.41336247
0.41208109
0.41087928
0.40974578
0.40867373
0.40766078
0.40670719
0.40581287
0.40497567
0.40419246
0.40346083
0.40277912
0.40214651
0.40156009
0.40101542
0.40051145
0.40004849
0.3996275
0.39924868
0.39891178
0.39861561
0.39835898
0.39814369
0.39796573
0.39783491
0.39772828
0.39767624
107.62813
100.00463
92.162133
84.497043
77.2285
70.123835
63.349289
57.171258
51.34187
45.919813
41.003979
36.541526
32.52973
28.931491
25.710689
22.844048
20.319924
18.104302
16.15849
14.442248
12.934533
11.611378
10.449801
9.4299651
8.5331133
7.7423595
7.0420638
6.4204007
5.8687484
5.3766845
4.9355834
4.5392813
4.1829759
3.8618532
3.5714125
3.3081186
3.0693734
2.8528168
2.6556647
2.4759564
2.3120907
2.1625783
2.0258452
1.9003752
1.7849292
1.6783654
1.5798427
1.4886064
1.4039984
1.3254702
1.2524883
1.1847133
1.1218838
1.0637025
1.0099276
0.96032902
0.91469478
0.87278451
0.83428386
0.79896033
0.76661314
0.73702596
0.70993781
0.68509272
0.6623531
0.64155445
0.62251514
0.60509902
0.58915767
0.57457597
0.56122614
0.54899018
0.5377527
0.52739355
0.51780727
0.50889797
0.50059133
0.49283796
0.48560248
0.47886975
0.47262607
0.4668606
0.46155545
0.45668605
0.45222647
0.44814388
0.44440592
0.44098051
0.43783567
0.43493804
0.43225257
0.42975036
0.42740924
0.42521275
0.42314783
0.42120858
0.41939237
0.41769586
0.4161163
0.41464681
0.41328019
0.41200481
0.4108083
0.40967959
0.40861195
0.40760319
0.40665365
0.40576329
0.40493005
0.40415071
0.40342255
0.40274373
0.40211349
0.40152914
0.40098626
0.40048389
0.40002243
0.39960279
0.39922519
0.3988894
0.39859424
0.39833849
0.39812385
0.3979465
0.39781615
0.39770973
0.39765832
95.30453
88.592122
81.721843
74.98784
68.569727
62.448093
56.60735
51.164207
46.042932
41.319512
37.036576
33.130924
29.629529
26.476836
23.63566
21.090663
18.847821
16.87455
15.132222
13.580269
12.207853
10.999312
9.9336437
8.9939213
8.1627778
7.4263437
6.7722241
6.1891926
5.670138
5.2052717
4.7866874
4.40959
4.0699804
3.7630935
3.4846706
3.231733
3.0020244
2.7933034
2.6028061
2.428879
2.2700881
2.1249913
1.9920651
1.8698722
1.7572738
1.6531859
1.5568497
1.4675575
1.384688
1.3077372
1.2361972
1.1697676
1.1082052
1.0512097
0.9985554
0.95002048
0.90538743
0.86441001
0.82676712
0.79223476
0.7606143
0.73168486
0.70518732
0.68087021
0.65860332
0.63822275
0.6195461
0.60244857
0.58678742
0.57245216
0.55932174
0.54728208
0.53622321
0.52602737
0.51659056
0.50781743
0.49963329
0.49198822
0.48484707
0.4781947
0.47201938
0.46631115
0.46105498
0.45622814
0.45180702
0.44776008
0.44405579
0.4406627
0.43754849
0.43467929
0.43202007
0.42954194
0.42722278
0.42504586
0.42299805
0.4210739
0.41927117
0.41758615
0.41601628
0.41455522
0.41319578
0.41192659
0.41073554
0.40961181
0.40854881
0.40754446
0.40659919
0.40571299
0.40488383
0.40410851
0.40338394
0.40270809
0.4020803
0.40149802
0.40095695
0.40045621
0.39999627
0.399578
0.39920164
0.39886695
0.3985728
0.3983179
0.39810392
0.39792717
0.39779727
0.39769105
0.39764029
83.366354
77.555593
71.650097
65.880967
60.366902
55.11463
50.120532
45.436757
41.087843
37.096309
33.34812
29.934373
26.907027
24.16704
21.679797
19.434155
17.451754
15.702604
14.148389
12.747016
11.500531
10.400828
9.4263293
8.5634381
7.7950886
7.1103784
6.5011883
5.9560243
5.4690689
5.0310922
4.6347444
4.2767879
3.9539901
3.6614178
3.3950649
3.1526119
2.9321079
2.7313847
2.547669
2.37967
2.2261057
2.0855573
1.9565575
1.8377569
1.7281239
1.6266276
1.532596
1.445366
1.3643503
1.2890904
1.2191
1.154119
1.0939197
1.0381941
0.98673487
0.93932828
0.89574983
0.85574892
0.81899971
0.78528938
0.75442177
0.72617098
0.70028222
0.67651046
0.65473147
0.63478147
0.61647817
0.59970894
0.58433684
0.57025532
0.55735101
0.54551357
0.53463868
0.52461102
0.5153281
0.50669535
0.49863771
0.4911046
0.48406133
0.47749241
0.4713883
0.46573976
0.4605347
0.45575237
0.45137136
0.44736165
0.44369252
0.44033309
0.43725065
0.43441086
0.43177879
0.42932555
0.42702903
0.42487227
0.42284217
0.42093369
0.41914492
0.41747185
0.41591206
0.41445976
0.41310777
0.41184498
0.41065963
0.40954112
0.40848302
0.40748336
0.40654262
0.40566081
0.40483595
0.40406483
0.40334401
0.40267129
0.40204607
0.40146596
0.4009268
0.40042779
0.39996945
0.39955264
0.39917756
0.39884404
0.39855093
0.39829694
0.39808363
0.39790753
0.39777811
0.39767211
0.397622
72.365814
67.463365
62.483793
57.617697
52.954378
48.508011
44.282203
40.304199
36.596523
33.166829
29.99584
27.079352
24.417626
22.038034
19.87727
17.907834
16.153965
14.603796
13.218727
11.953339
10.823678
9.8262387
8.9366666
8.146524
7.4373977
6.8010814
6.2348828
5.7262247
5.270345
4.8584686
4.4836355
4.1443864
3.8382057
3.5597067
3.3051763
3.0730833
2.8617243
2.6689468
2.4919357
2.329837
2.1814938
2.0454792
1.9203901
1.8049751
1.6983165
1.5994282
1.5077309
1.4226016
1.3434839
1.2699656
1.2015775
1.1381004
1.0793186
1.0249111
0.97469051
0.92845078
0.88595797
0.84695802
0.81112183
0.77825009
0.74814874
0.72058603
0.69531401
0.67209574
0.65081115
0.6312963
0.61337019
0.59693282
0.58185303
0.56802745
0.55535146
0.54371818
0.53302909
0.52317132
0.51404384
0.50555305
0.49762358
0.49020396
0.4832602
0.47677613
0.47074456
0.4651568
0.46000383
0.45526694
0.45092681
0.44695513
0.44332198
0.43999691
0.43694685
0.43413699
0.43153256
0.42910463
0.42683107
0.42469475
0.42268274
0.42079027
0.4190157
0.41735483
0.41580536
0.41436199
0.41301759
0.41176133
0.41058178
0.40946865
0.40841564
0.40742086
0.40648482
0.40560756
0.40478714
0.40402031
0.40330336
0.40263387
0.40201129
0.40143338
0.40089616
0.40039892
0.39994223
0.39952692
0.39915315
0.3988208
0.39852875
0.39827566
0.39806304
0.39788759
0.39775865
0.39765288
0.39760343
62.503814
58.44137
54.298133
50.239561
46.338613
42.609928
39.06195
35.711603
32.573513
29.651769
26.945928
24.448197
22.156897
20.080193
18.225989
16.521953
14.952115
13.572725
12.337899
11.198405
10.179724
9.27726
8.4650071
7.7433831
7.0899889
6.4989565
5.9737255
5.5000984
5.0741605
4.6874578
4.3333378
4.0123332
3.7225606
3.4578469
3.214858
2.9930031
2.7907324
2.6058503
2.4354659
2.279255
2.1361443
2.0046639
1.8834891
1.771476
1.6678261
1.5715854
1.4822738
1.3993032
1.3221435
1.25043
1.1837049
1.1217917
1.0644828
1.0114393
0.96249665
0.91745655
0.87607396
0.83809273
0.80318228
0.77115951
0.74183213
0.71496174
0.69030997
0.66764949
0.64686217
0.62778399
0.61023673
0.59413289
0.57934696
0.56577804
0.55333136
0.54190318
0.5314008
0.5217138
0.51274256
0.5043947
0.49659446
0.48928943
0.48244643
0.4760483
0.47009032
0.46456426
0.45946412
0.45477347
0.45047481
0.44654183
0.44294534
0.43965521
0.43663799
0.43385847
0.43128206
0.42887977
0.42662941
0.42451375
0.42252011
0.42064393
0.41888378
0.41723533
0.41569637
0.41426208
0.41292536
0.41167572
0.41050209
0.40939447
0.40834672
0.40735701
0.40642585
0.40555328
0.40473741
0.40397497
0.40326197
0.4025958
0.40197593
0.40140026
0.40086502
0.4003696
0.3999146
0.39950081
0.39912837
0.39879721
0.39850623
0.39825404
0.39804212
0.39786734
0.39773889
0.39763335
0.39758455
53.831475
50.510797
47.10121
43.747743
40.512
37.407914
34.444337
31.634236
28.989054
26.514898
24.212953
22.079507
20.114798
18.318707
16.690043
15.210717
13.856492
12.617579
11.501092
10.484583
9.5732033
8.7546408
8.0108349
7.3535526
6.7527654
6.2048838
5.7184019
5.2781771
4.8809986
4.5183834
4.1841478
3.8809278
3.6073402
3.3560715
3.124305
2.9125552
2.7192964
2.5422348
2.3783682
2.2280193
2.0901393
1.9631771
1.8459078
1.7373048
1.6366934
1.5431354
1.4562587
1.3755032
1.3003602
1.2305138
1.1655108
1.1052197
1.0494373
0.99780058
0.95017212
0.9063614
0.86611095
0.8291638
0.7951897
0.76402465
0.73547755
0.7093024
0.68527351
0.66317433
0.64288616
0.62424546
0.60707855
0.59130974
0.576819
0.56350728
0.55129085
0.54006867
0.52975387
0.52023846
0.51142418
0.50322012
0.49555017
0.48836079
0.48161979
0.47530874
0.46942544
0.46396203
0.45891555
0.45427195
0.45001543
0.44612185
0.44256272
0.43930808
0.43632418
0.43357541
0.43102738
0.42865104
0.42642409
0.42432932
0.42235434
0.42049471
0.41874917
0.41711336
0.41558511
0.41416004
0.41283111
0.41158819
0.4104206
0.40931863
0.4082763
0.40729184
0.40636573
0.405498
0.40468679
0.40392884
0.40321988
0.40255712
0.40194002
0.40136662
0.4008334
0.40033984
0.39988657
0.39947434
0.39910325
0.39877328
0.39848337
0.3982321
0.39802088
0.39784677
0.3977188
0.39761352
0.39756535
46.32094
43.628819
40.844223
38.091645
35.423011
32.851281
30.385148
28.035829
25.813184
23.723406
21.769286
19.951033
18.268256
16.719609
15.300972
14.002187
12.809313
11.713734
10.717476
9.816574
9.007916
8.2566877
7.5736402
6.9760086
6.425208
5.9202366
5.4695809
5.0606427
4.6910336
4.3512734
4.0362002
3.7503405
3.4926677
3.2544455
3.0335657
2.8317923
2.6474565
2.4781275
2.3206522
2.1761419
2.0434901
1.9210258
1.8076546
1.7024747
1.604939
1.5141037
1.4297163
1.3512367
1.2781714
1.2102563
1.1470338
1.0884219
1.0342169
0.98402664
0.93774495
0.8951894
0.8560895
0.8201887
0.7871587
0.7568578
0.72909524
0.70361646
0.68021165
0.65867596
0.63888733
0.62068388
0.60389842
0.58846564
0.57427091
0.56121663
0.54923119
0.5382158
0.52808922
0.51874599
0.51008922
0.50202972
0.49449093
0.48741822
0.4807804
0.47455757
0.46875002
0.4633503
0.45835828
0.45376262
0.44954888
0.44569545
0.44217434
0.43895574
0.43600559
0.43328797
0.43076866
0.42841853
0.4262152
0.42414151
0.42218545
0.42034265
0.41861189
0.41698892
0.41547158
0.41405587
0.41273484
0.41149873
0.41033729
0.40924112
0.4082044
0.40722537
0.40630447
0.40544172
0.4046353
0.4038819
0.40317705
0.40251779
0.40190353
0.40133244
0.40080128
0.40030963
0.39985812
0.39944749
0.39907777
0.398749
0.39846017
0.39820981
0.39799929
0.39782586
0.39769839
0.39759336
0.3975458
39.886433
37.713202
35.448934
33.198423
31.004903
28.880177
26.832535
24.872031
23.007569
21.24532
19.588814
18.039489
16.597433
15.261319
14.027879
12.890979
11.842159
10.876484
9.9918907
9.1837586
8.4481549
7.7782272
7.1669223
6.6111686
6.106705
5.6469474
5.2281695
4.8473975
4.50421
4.1860728
3.8897885
3.6208419
3.3786499
3.153003
2.9426949
2.7507789
2.575259
2.4135615
2.2623362
2.1236441
1.9962139
1.8782211
1.7687406
1.6670004
1.5725837
1.4845139
1.4026743
1.3265343
1.2556095
1.1896906
1.1283059
1.0714285
1.0188492
0.97014181
0.92523618
0.8839577
0.84602365
0.81117877
0.77909822
0.74966609
0.72269075
0.69790807
0.67512768
0.65415663
0.63486673
0.61709966
0.60069663
0.58560059
0.57170243
0.55890579
0.54715211
0.53634431
0.52640653
0.51723601
0.50873727
0.50082303
0.49341626
0.48646125
0.47992778
0.47379443
0.46806373
0.46272882
0.45779215
0.45324537
0.44907518
0.44526265
0.44178027
0.43859822
0.43568227
0.4329962
0.43050593
0.42818225
0.42600271
0.42395031
0.42201343
0.4201877
0.41847192
0.41686199
0.41535575
0.41394954
0.41263652
0.41140733
0.41025216
0.40916194
0.408131
0.40715758
0.40624206
0.40538444
0.40458291
0.40383415
0.40313349
0.40247781
0.40186645
0.40129771
0.40076865
0.40027895
0.39982925
0.39942025
0.39905191
0.39872436
0.39843661
0.39818716
0.39797735
0.39780461
0.39767763
0.39757288
0.3975259
34.410591
32.657977
30.819798
28.982722
27.182184
25.428692
23.729977
22.095073
20.532031
19.046733
17.642963
16.322757
15.086705
13.934037
12.862503
11.868429
10.947461
10.095902
9.3107123
8.58815
7.9266007
7.32118
6.7663484
6.2589494
5.7990941
5.3846045
4.9956598
4.6383822
4.3202563
4.0228801
3.7456055
3.4928302
3.2653134
3.0517002
2.8517629
2.6695968
2.5027483
2.3485681
2.2034458
2.0705582
1.9483373
1.8347846
1.7291906
1.6309113
1.5396632
1.4544042
1.3751739
1.301439
1.2327176
1.168859
1.1093663
1.0542755
1.0033664
0.95617461
0.91267059
0.87268623
0.83592963
0.80214725
0.77101882
0.74245806
0.71627085
0.69218253
0.6700259
0.64961948
0.63082623
0.61349402
0.59747418
0.58271511
0.56911373
0.55657494
0.5450538
0.5344544
0.52470585
0.51570846
0.50736817
0.49959982
0.49232586
0.4854896
0.47906164
0.4730191
0.46736637
0.4620975
0.45721714
0.45272025
0.4485944
0.44482359
0.44138061
0.43823565
0.43535434
0.43270019
0.43023924
0.42794222
0.42578666
0.42375574
0.42183828
0.42002986
0.41832924
0.41673255
0.41523762
0.41384103
0.41253613
0.41131397
0.4101652
0.40908109
0.4080561
0.40708848
0.40617851
0.40532616
0.40452963
0.40378557
0.40308917
0.40243715
0.40182876
0.40126241
0.4007355
0.4002478
0.39979995
0.3993926
0.39902568
0.39869935
0.39841268
0.39816414
0.39795504
0.397783
0.39765651
0.39755206
0.39750562
29.764813
28.349479
26.856602
25.356773
23.878604
22.431253
21.021759
19.658146
18.347599
17.095552
15.905737
14.780426
13.720632
12.726233
11.796067
10.928086
10.119701
9.3683693
8.671521
8.026397
7.4329933
6.8872341
6.3855047
5.925313
5.5044505
5.1192
4.7658043
4.439803
4.138828
3.8622543
3.6046877
3.3666719
3.1525014
2.9504004
2.7609338
2.5883717
2.4299556
2.2831624
2.1440137
2.0169264
1.8998919
1.7907451
1.6890383
1.5942461
1.5062228
1.4238209
1.3472634
1.2759999
1.2095435
1.1478076
1.0902566
1.0370005
0.98780106
0.94215372
0.9000731
0.86139441
0.82582293
0.79310661
0.76293021
0.73524144
0.70984154
0.6864444
0.66491
0.64506701
0.62676711
0.60986779
0.59423168
0.57980932
0.56650461
0.55422402
0.54293626
0.53254605
0.52298703
0.51416309
0.50598164
0.49835977
0.49121937
0.48450294
0.47818162
0.47223131
0.46665771
0.4614562
0.45663318
0.45218725
0.44810664
0.44437838
0.44097549
0.43786814
0.43502191
0.43240003
0.42996866
0.42769847
0.42556706
0.42355781
0.42165999
0.41986911
0.41818383
0.41660058
0.41511715
0.41373032
0.41243365
0.41121864
0.4100764
0.40899855
0.4079797
0.40701807
0.4061138
0.40526686
0.40447543
0.40373615
0.40304408
0.40239579
0.40179043
0.40122652
0.4007018
0.40021616
0.3997702
0.39936454
0.39899905
0.39867396
0.39838836
0.39814074
0.39793235
0.39776101
0.39763502
0.39753089
0.39748494
25.823768
24.677516
23.463005
22.236941
21.022104
19.826324
18.655866
17.517744
16.41826
15.362298
14.353371
13.39381
12.484917
11.627103
10.819999
10.062602
9.3534604
8.6909121
8.0730598
7.4979373
6.9662188
6.4749576
6.0218588
5.6045599
5.2207322
4.8674055
4.5414863
4.2394319
3.9599313
3.7058444
3.4678046
3.2425643
3.0398621
2.848992
2.6706247
2.5072935
2.3568821
2.2173338
2.0841007
1.9628162
1.850919
1.746143
1.6483318
1.5570586
1.4723214
1.3928227
1.3190024
1.2502747
1.1861422
1.1265877
1.0710222
1.0196433
0.97218725
0.92810899
0.88746968
0.85010194
0.81571907
0.78406937
0.75484204
0.72802388
0.70340868
0.68069809
0.65978355
0.64050161
0.62269067
0.60622195
0.59096984
0.57688333
0.5638749
0.55185307
0.54079959
0.53061938
0.52125
0.51259972
0.50457747
0.49710261
0.49009644
0.48350097
0.47728739
0.47143082
0.46593752
0.46080482
0.45604025
0.45164644
0.44761204
0.44392715
0.44056504
0.43749583
0.43468509
0.43209582
0.42969425
0.42745106
0.42534394
0.42335655
0.42147856
0.41970544
0.41803568
0.41646607
0.41499433
0.41361739
0.41232907
0.41112134
0.40998576
0.40891434
0.40790181
0.40694633
0.40604794
0.40520654
0.40442032
0.40368588
0.40299819
0.40235371
0.40175144
0.40119003
0.40066755
0.400184
0.39973998
0.39933605
0.39897201
0.39864816
0.39836363
0.39811693
0.39790926
0.39773864
0.39761313
0.39750934
0.39746384
22.473817
21.54222
20.551919
19.547858
18.547934
17.558734
16.585728
15.634946
14.711821
13.820651
12.964645
12.146082
11.366435
10.62649
9.9264324
9.2659346
8.6442448
8.0603566
7.5130095
7.0009321
6.5253083
6.0838876
5.6749946
5.2967097
4.9470222
4.6236867
4.3241811
4.0460047
3.7878712
3.5490833
3.3282382
3.1217517
2.9287444
2.747709
2.581515
2.4264983
2.2834833
2.1510488
2.0238457
1.908339
1.8014631
1.7010245
1.6071313
1.5194157
1.4380301
1.3614794
1.2904596
1.2243286
1.162574
1.1052543
1.0517107
1.0022451
0.95655913
0.91407031
0.87488634
0.83882783
0.80563288
0.77504753
0.74676347
0.72081255
0.69697766
0.6749475
0.65464962
0.6359252
0.61859792
0.6025574
0.58768924
0.57393711
0.56122439
0.54946218
0.53864391
0.52867445
0.51949465
0.51101817
0.50315547
0.49582807
0.4889568
0.48248342
0.47637865
0.47061741
0.46520561
0.46014325
0.45543836
0.45109787
0.44711076
0.44347009
0.44014943
0.43711887
0.43434405
0.43178767
0.42941609
0.42720002
0.42511734
0.42315198
0.42129401
0.41953884
0.4178848
0.41632901
0.41486913
0.41350222
0.41222237
0.41102205
0.40989329
0.40882846
0.40782243
0.40687328
0.40598092
0.40514519
0.40436428
0.40363474
0.40295149
0.40231088
0.40171177
0.4011529
0.40063272
0.40015132
0.39970929
0.39930711
0.39894455
0.39862195
0.39833849
0.39809271
0.39788576
0.39771584
0.39759083
0.39748742
0.39744229
19.616967
18.857246
18.047928
17.224177
16.399882
15.58051
14.770759
13.975735
13.200058
12.447447
11.720781
11.022224
10.353333
9.7151262
9.1081432
8.5324821
7.987848
7.4737084
6.9893033
6.5338923
6.1089547
5.7127941
5.3442373
5.0017618
4.6836995
4.3882243
4.1134715
3.857683
3.6195161
3.3979157
3.1914712
2.9979965
2.8166171
2.6487215
2.4940514
2.3459652
2.2097563
2.0842895
1.9635496
1.8536676
1.7515582
1.655439
1.5655101
1.4813999
1.4034329
1.3298724
1.2617132
1.1982329
1.1389041
1.0838659
1.0323715
0.98484795
0.94095083
0.9000671
0.86234838
0.82759008
0.79557833
0.76605261
0.73870311
0.71361411
0.69055337
0.66919602
0.64951079
0.6313393
0.61448968
0.59887503
0.58439041
0.57097062
0.55855298
0.54705157
0.53646939
0.52671137
0.5177209
0.5094183
0.50171549
0.49453596
0.4878002
0.48145007
0.47545515
0.4697909
0.46446184
0.45947145
0.45482756
0.45054166
0.44660299
0.44300736
0.43972885
0.43673745
0.43399893
0.4314757
0.42913426
0.4269454
0.42488729
0.42294414
0.42110633
0.41936931
0.41773117
0.41618938
0.41474156
0.41338479
0.41211355
0.41092077
0.40979898
0.40874091
0.40774155
0.40679891
0.40591274
0.4050828
0.40430729
0.40358272
0.40290396
0.40226728
0.40167138
0.40111513
0.4005973
0.4001181
0.39967809
0.39927769
0.39891664
0.39859531
0.39831291
0.39806805
0.39786182
0.39769262
0.39756809
0.39746509
0.39742028
17.171865
16.550305
15.887524
15.210606
14.530166
13.850683
13.176123
12.510759
11.858471
11.222449
10.605248
10.008899
9.4349697
8.8846065
8.3585496
7.8571439
7.3803747
6.9280335
6.4997369
6.0951567
5.7159581
5.3608495
5.0290173
4.7193076
4.4304245
4.1609504
3.9093958
3.6743542
3.4546615
3.2493066
3.0571485
2.8768578
2.7078429
2.5501902
2.4029861
2.2654916
2.1373208
2.01712
1.9036625
1.798981
1.7012172
1.6094548
1.5235644
1.4431145
1.368626
1.2980927
1.2328489
1.1720636
1.1152012
1.0624826
1.0130551
0.96749435
0.92539585
0.88612747
0.8498794
0.81640493
0.78556823
0.75709542
0.73066897
0.70643466
0.68414011
0.66344641
0.644369
0.62674493
0.61036653
0.59517564
0.58107379
0.56798385
0.55586072
0.54462161
0.53427625
0.52473025
0.51592872
0.50780006
0.5002575
0.49322616
0.4866265
0.48040076
0.4745167
0.46895114
0.46370611
0.45878938
0.45420795
0.44997794
0.44608897
0.44253919
0.4393035
0.43635178
0.4336499
0.43116004
0.42884884
0.42668728
0.42465384
0.42273303
0.42091555
0.41919684
0.4175748
0.41604719
0.41461158
0.41326509
0.41200258
0.4108175
0.40970283
0.40865169
0.40765919
0.40672323
0.40584338
0.40501937
0.40424935
0.40352979
0.40285558
0.40222288
0.40163026
0.40107668
0.40056126
0.40008432
0.39964637
0.39924779
0.39888827
0.39856822
0.39828687
0.39804293
0.39783743
0.39766895
0.39754491
0.39744234
0.39739777
15.07116
14.561331
14.017726
13.460795
12.898515
12.334508
11.772083
11.21478
10.66584
10.12799
9.6035023
9.0942639
8.6018092
8.1273234
7.6716304
7.2351913
6.8181476
6.4205057
6.04216
5.6830968
5.345079
5.0271326
4.7287364
4.4490444
4.187063
3.9416793
3.7117266
3.4960819
3.2937318
3.1037593
2.9253061
2.757589
2.600083
2.4524929
2.314202
2.184563
2.0627844
1.9504078
1.8445102
1.7443913
1.6504825
1.5632136
1.4814326
1.4046956
1.3337196
1.2662403
1.2039578
1.1458981
1.0915355
1.0411648
0.99381234
0.95022641
0.90992662
0.87227746
0.83750014
0.80528652
0.77561403
0.74818593
0.72266831
0.69927956
0.67774155
0.6577008
0.63922557
0.62214267
0.60622884
0.59145991
0.57773969
0.56497688
0.55314793
0.54217286
0.53206475
0.52273122
0.51411814
0.50616348
0.49878155
0.49189863
0.48543565
0.47933541
0.47356318
0.46809802
0.46293837
0.45809708
0.45357967
0.4494069
0.44556895
0.44206581
0.43887364
0.43596206
0.43329713
0.43084081
0.42855991
0.42642571
0.42441704
0.4225187
0.42072167
0.41902143
0.41741568
0.41590242
0.41447918
0.4131431
0.41188948
0.41071223
0.40960486
0.40856082
0.40757535
0.40664622
0.40577286
0.40495489
0.40419043
0.40347595
0.40280632
0.40217765
0.40158836
0.40103753
0.40052458
0.40004995
0.39961411
0.39921737
0.39885942
0.39854065
0.39826034
0.39801734
0.39781256
0.39764481
0.39752125
0.39741916
0.39737474
13.259603
12.840859
12.394632
11.936064
11.471064
11.002537
10.533229
10.066061
9.6037418
9.1486206
8.7027247
8.2677984
7.8453017
7.4363853
7.0418665
6.6622308
6.2976931
5.9484015
5.6144591
5.2960954
4.995111
4.7107797
4.4428044
4.1905856
3.9533756
3.7303069
3.5204464
3.322878
3.1367692
2.9613875
2.7960802
2.6402888
2.4936083
2.3557096
2.2261529
2.1044098
1.9900169
1.8830672
1.7833065
1.6900129
1.6003134
1.5169843
1.4392861
1.3663217
1.2988343
1.2344284
1.1751384
1.1198123
1.0679757
1.0199709
0.97469315
0.93308525
0.89457392
0.85854039
0.82522755
0.79424668
0.76572586
0.73933307
0.71470753
0.69215338
0.6713606
0.65196068
0.63408122
0.61753269
0.60207678
0.58772833
0.57438834
0.56194993
0.55041524
0.53970605
0.52983514
0.52071443
0.51228933
0.50450879
0.49728783
0.49055347
0.48422773
0.478254
0.47259456
0.46723148
0.46215867
0.45739461
0.45294294
0.44882874
0.44504321
0.44158748
0.43843952
0.43556852
0.43294079
0.43051814
0.42826758
0.42616077
0.42417692
0.42230116
0.42052471
0.41884309
0.41725382
0.41575507
0.41434434
0.41301882
0.41177422
0.41060498
0.40950506
0.4084683
0.40749003
0.4065679
0.40570116
0.40488933
0.40413053
0.40342118
0.40275617
0.40213156
0.40154567
0.40099765
0.40048724
0.40001497
0.39958129
0.39918641
0.39883005
0.39851259
0.39823332
0.39799124
0.39778721
0.39762017
0.3974971
0.39739551
0.39735117
11.693248
11.348618
10.981937
10.604047
10.219191
9.8296626
9.4377205
9.04578
8.6561234
8.2707927
7.8916037
7.5201504
7.1577772
6.8055402
6.4641856
6.1341668
5.8157269
5.5091148
5.2145969
4.932592
4.6648888
4.4109529
4.1706521
3.9435728
3.7291534
3.5267132
3.3355064
3.1547967
2.9839171
2.8222954
2.6694573
2.5250182
2.3886614
2.2600885
2.1389629
2.024937
1.9176889
1.8170222
1.7225764
1.6335791
1.5498798
1.4717191
1.397267
1.3281949
1.264076
1.2027977
1.1465062
1.0938801
1.0445866
0.99895448
0.95574569
0.91610999
0.87936599
0.84493622
0.81307427
0.78329525
0.75591261
0.73054438
0.70679197
0.68505973
0.66499939
0.64622697
0.62893619
0.61291489
0.59791038
0.58398124
0.5710199
0.55890349
0.54766359
0.53722208
0.52758774
0.51868006
0.5104426
0.50283636
0.49577668
0.4891909
0.48300293
0.4771566
0.47161095
0.46635156
0.46136716
0.45668213
0.45229804
0.44824374
0.44451207
0.4411045
0.43800142
0.43517141
0.43258107
0.43019217
0.42797193
0.42589253
0.42393354
0.42208045
0.42032468
0.41866184
0.41708921
0.41560512
0.41420706
0.41289223
0.41165681
0.41049574
0.40940344
0.40837414
0.40740325
0.40648826
0.40562827
0.40482269
0.40406961
0.40336545
0.40270509
0.40208459
0.40150215
0.40095702
0.40044922
0.39997936
0.39954787
0.3991549
0.39880015
0.398484
0.39820576
0.39796462
0.39776133
0.39759502
0.39747243
0.39737138
0.39732703
10.333946
10.049987
9.7485745
9.4370407
9.1183237
8.7942299
8.4666348
8.1375609
7.8089596
7.4826207
7.1601625
6.8430096
6.5323512
6.2291061
5.9339154
5.6471788
5.3691545
5.1001749
4.8406391
4.5911097
4.3533193
4.1268739
3.9117503
3.7076654
3.5141942
3.3307997
3.1568879
2.991877
2.8352533
2.6865955
2.5455699
2.4119103
2.2853896
2.1657839
2.0528419
1.9462856
1.8458551
1.7513288
1.6623766
1.5785188
1.4995363
1.4251784
1.3556044
1.2907824
1.229521
1.1715333
1.1181944
1.0681774
1.0214329
0.97816478
0.93701726
0.89933738
0.86432723
0.83148091
0.80104855
0.77244072
0.74618208
0.72182559
0.69892571
0.67800113
0.65865915
0.64050009
0.62379039
0.60828905
0.59372967
0.58021886
0.56763454
0.55583826
0.54489424
0.53472199
0.52532292
0.51662842
0.50857856
0.50114685
0.4942486
0.48781129
0.4817616
0.4760434
0.47061254
0.46545832
0.46056407
0.45595986
0.45164531
0.44765219
0.44397584
0.4406172
0.43755966
0.43477098
0.43221814
0.42986301
0.42767305
0.42562104
0.42368693
0.42185657
0.4201216
0.41847766
0.41692186
0.41545256
0.41406732
0.41276332
0.41153723
0.41038451
0.40930002
0.40827834
0.40731499
0.4064073
0.40555418
0.40475496
0.40400768
0.40330874
0.40265307
0.40203671
0.40145777
0.4009156
0.40041047
0.39994309
0.39951383
0.39912279
0.39876969
0.39845487
0.39817766
0.39793745
0.39773491
0.39756932
0.39744722
0.39734675
0.3973023
9.1494277
8.9158405
8.6683104
8.4114865
8.1474102
7.8775773
7.6035946
7.3271889
7.0500434
6.773719
6.4996273
6.2289967
5.9628344
5.7019057
5.4467457
5.1977107
4.9550836
4.719275
4.4907902
4.2702896
4.0594066
3.8578386
3.6656217
3.482557
3.3083169
3.1424779
2.9845751
2.8341651
2.6908726
2.5544072
2.4245524
2.3011399
2.1840177
2.0730226
1.9679662
1.86864
1.7748274
1.686297
1.6027897
1.5240215
1.4497658
1.3798351
1.3141789
1.2525033
1.1952765
1.1411402
1.0903266
1.0427862
0.99858712
0.95764783
0.91855958
0.88280355
0.84947646
0.81818579
0.78915467
0.76169104
0.73654102
0.71318008
0.69111152
0.67097899
0.65234022
0.63478017
0.61864363
0.60365496
0.58953477
0.57644141
0.56423253
0.55275521
0.54210861
0.5322069
0.52304116
0.51455997
0.50669808
0.49944116
0.4927043
0.48641521
0.48050419
0.47491465
0.46959966
0.46455198
0.45974976
0.45522812
0.45098516
0.44705443
0.44343486
0.44012595
0.43711452
0.43436747
0.43185217
0.42953079
0.42737104
0.42534637
0.42343711
0.42162956
0.41991549
0.41829058
0.41675174
0.41529739
0.41392509
0.41263209
0.4114155
0.4102713
0.40919479
0.40818091
0.40722526
0.40632501
0.40547888
0.40468611
0.40394469
0.40325103
0.40260008
0.40198788
0.40141249
0.40087337
0.40037099
0.39990613
0.39947915
0.39909006
0.39873863
0.39842515
0.39814898
0.39790971
0.39770792
0.39754305
0.39742143
0.39732157
0.39727693
8.1153003
7.9227251
7.7192577
7.5073491
7.2883815
7.0636344
6.8344923
6.6024177
6.3688371
6.1350718
5.9023058
5.6715561
5.4436481
5.2192122
4.9987082
4.7824802
4.5708539
4.3643113
4.1634312
3.9689215
3.7822729
3.60323
3.4318474
3.2679764
3.1113613
2.9616746
2.8185667
2.6817203
2.5508846
2.4258819
2.3065908
2.1929183
2.0847723
1.9820415
1.8845871
1.7922462
1.7048411
1.6221832
1.5440656
1.470279
1.4006593
1.3350646
1.2733732
1.2154123
1.1611307
1.1104428
1.063112
1.0179528
0.9761342
0.9374404
0.90043672
0.86654661
0.83482597
0.80505802
0.77739403
0.75105466
0.72699495
0.70460844
0.68335092
0.66399371
0.64604219
0.62906731
0.61349584
0.59901263
0.58532605
0.57264924
0.56081438
0.54965555
0.53930823
0.52967797
0.52074312
0.51247546
0.50480238
0.49772049
0.4911447
0.48500341
0.47923131
0.47377075
0.46857277
0.4636328
0.4589247
0.45448732
0.45031803
0.44645083
0.44288949
0.43963113
0.43666632
0.43396113
0.43148332
0.42919561
0.42706597
0.42506857
0.42318412
0.42139941
0.41970635
0.41810058
0.41657886
0.41513959
0.41378037
0.41249852
0.41129161
0.41015611
0.40908776
0.40808186
0.40713406
0.40624139
0.40540236
0.40461613
0.40388064
0.40319229
0.4025461
0.40193808
0.40136629
0.40083028
0.40033073
0.39986846
0.39944378
0.39905668
0.39870695
0.39839483
0.39811969
0.39788137
0.39768034
0.39751619
0.39739506
0.39729584
0.39725092
7.2069902
7.0484343
6.8815475
6.7069722
6.5256475
6.3387308
6.1474153
5.9529118
5.7563894
5.5589227
5.3614685
5.1648513
4.9697536
4.7767208
4.5861858
4.3985145
4.2140848
4.0334298
3.8571575
3.6859679
3.5211705
3.3625212
3.2100661
3.0636877
2.9231909
2.7883362
2.6588824
2.5346276
2.4154302
2.3012055
2.1919057
2.0874935
1.9879202
1.8931126
1.8029704
1.7173706
1.6361745
1.5592326
1.4863912
1.4175023
1.3524314
1.2910614
1.2332905
1.1789957
1.1280727
1.0803517
1.0355005
0.99353097
0.95439258
0.91755665
0.88272125
0.85060012
0.82038344
0.79210475
0.76576719
0.74054216
0.71754824
0.69610815
0.6756444
0.65704487
0.63976404
0.62336187
0.60834733
0.59436237
0.58110432
0.56884306
0.55738092
0.54654067
0.53649464
0.52713638
0.51842979
0.51037597
0.502893
0.49598625
0.48957088
0.48357687
0.47794373
0.47261221
0.46753247
0.46270122
0.45808946
0.45373795
0.44964443
0.44584183
0.44234007
0.43913316
0.43621535
0.4335522
0.43111177
0.42885756
0.4267579
0.42478765
0.42292797
0.42116614
0.41949418
0.41790765
0.41640319
0.41497914
0.41363314
0.4123626
0.41116554
0.41003893
0.40897893
0.40798117
0.40704138
0.40615641
0.40532461
0.404545
0.4038155