/*--------------------------------*- C++ -*----------------------------------*\
| =========                 |                                                 |
| \\      /  F ield         | OpenFOAM: The Open Source CFD Toolbox           |
|  \\    /   O peration     | Version:  2406                                  |
|   \\  /    A nd           | Website:  www.openfoam.com                      |
|    \\/     M anipulation  |                                                 |
\*---------------------------------------------------------------------------*/
FoamFile
{
    version     2.0;
    format      ascii;
    arch        "LSB;label=32;scalar=64";
    class       volScalarField;
    location    "0.006";
    object      p;
}
// * * * * * * * * * * * * * * * * * * * * * * * * * * * * * * * * * * * * * //

dimensions      [1 -1 -2 0 0 0 0];

internalField   nonuniform List<scalar> 
92813
(
100600.56
100595.84
100606.9
100614.01
100614.03
100612.59
100622.58
100638.55
100649.73
100659.89
100672.56
100686.45
100700.86
100715.52
100730.31
100745.16
100760.21
100775.33
100790.4
100805.29
100819.98
100834.5
100848.81
100862.87
100876.67
100890.15
100903.32
100916.17
100928.7
100940.91
100952.81
100964.43
100975.77
100986.85
100997.67
101008.24
101018.56
101028.64
101038.48
101048.1
101057.5
101066.69
101075.68
101084.46
101093.04
101101.42
101109.6
101117.59
101125.4
101133.02
101140.47
101147.74
101154.83
101161.75
101168.49
101175.05
101181.45
101187.68
101193.75
101199.66
101205.42
101211.03
101216.5
101221.82
101227
101232.03
101236.93
101241.69
101246.31
101250.79
101255.15
101259.37
101263.47
101267.45
101271.31
101275.05
101278.67
101282.19
101285.6
101288.91
101292.12
101295.24
101298.27
101301.22
101304.09
101306.87
101309.58
101312.22
101314.79
101317.29
101319.74
101322.13
101324.48
101326.79
101329.06
101331.29
101333.5
101335.68
101337.84
101339.99
101342.12
101344.23
101346.32
101348.4
101350.46
101352.49
101354.5
101356.49
101358.44
101360.35
101362.21
101364.01
101365.76
101367.43
101369.03
101370.54
101371.96
101373.29
101374.53
101375.66
101376.7
101377.62
101378.44
101379.13
101379.69
101380.06
101380.29
100754.82
100746.29
100745.37
100739.78
100733.45
100727.37
100728.17
100736.21
100740.2
100742.76
100750.09
100758.8
100768.25
100778.09
100788.28
100798.83
100810.11
100821.81
100833.71
100845.61
100857.56
100869.58
100881.57
100893.5
100905.29
100916.91
100928.36
100939.62
100950.66
100961.5
100972.14
100982.58
100992.84
101002.9
101012.77
101022.46
101031.95
101041.25
101050.37
101059.31
101068.08
101076.67
101085.1
101093.35
101101.42
101109.33
101117.06
101124.63
101132.04
101139.28
101146.37
101153.31
101160.08
101166.7
101173.16
101179.46
101185.6
101191.6
101197.44
101203.14
101208.71
101214.13
101219.42
101224.57
101229.59
101234.48
101239.23
101243.86
101248.35
101252.72
101256.96
101261.08
101265.08
101268.97
101272.73
101276.39
101279.93
101283.37
101286.71
101289.95
101293.1
101296.17
101299.15
101302.04
101304.86
101307.6
101310.26
101312.86
101315.39
101317.86
101320.27
101322.63
101324.95
101327.24
101329.48
101331.69
101333.87
101336.03
101338.18
101340.3
101342.42
101344.51
101346.6
101348.66
101350.7
101352.73
101354.73
101356.7
101358.64
101360.55
101362.4
101364.2
101365.94
101367.6
101369.19
101370.7
101372.12
101373.44
101374.67
101375.8
101376.83
101377.76
101378.58
101379.26
101379.82
101380.19
101380.42
100880.69
100867.49
100858.68
100846.09
100834.47
100825.37
100822.51
100822.58
100819.07
100817.75
100822.19
100826.3
100832.03
100837.95
100844.03
100850.62
100858.64
100867.42
100876.49
100885.66
100895.04
100904.72
100914.53
100924.4
100934.28
100944.09
100953.85
100963.54
100973.13
100982.62
100991.99
101001.26
101010.43
101019.47
101028.39
101037.18
101045.83
101054.35
101062.73
101070.99
101079.11
101087.09
101094.94
101102.65
101110.21
101117.63
101124.9
101132.03
101139.03
101145.88
101152.61
101159.19
101165.64
101171.94
101178.1
101184.12
101190.01
101195.75
101201.36
101206.84
101212.19
101217.42
101222.52
101227.5
101232.35
101237.08
101241.68
101246.17
101250.53
101254.77
101258.89
101262.9
101266.79
101270.58
101274.25
101277.82
101281.28
101284.64
101287.9
101291.07
101294.15
101297.15
101300.07
101302.91
101305.68
101308.37
101310.99
101313.54
101316.03
101318.46
101320.84
101323.17
101325.46
101327.71
101329.92
101332.11
101334.27
101336.41
101338.53
101340.64
101342.74
101344.82
101346.88
101348.93
101350.96
101352.97
101354.96
101356.93
101358.86
101360.75
101362.6
101364.39
101366.12
101367.78
101369.36
101370.87
101372.28
101373.6
101374.82
101375.95
101376.98
101377.9
101378.71
101379.39
101379.95
101380.32
101380.55
100994.87
100978.62
100965.16
100947.86
100932
100919.39
100910.34
100903.55
100897.5
100894.95
100891.6
100891.04
100894.59
100897.07
100898.92
100901.46
100906.63
100912.86
100919.35
100925.79
100932.58
100939.98
100947.65
100955.52
100963.5
100971.5
100979.59
100987.72
100995.87
101004
101012.11
101020.21
101028.29
101036.31
101044.26
101052.15
101059.96
101067.69
101075.32
101082.88
101090.35
101097.71
101104.97
101112.12
101119.16
101126.08
101132.88
101139.57
101146.15
101152.61
101158.96
101165.19
101171.3
101177.29
101183.15
101188.89
101194.5
101199.99
101205.36
101210.62
101215.76
101220.78
101225.69
101230.49
101235.17
101239.74
101244.19
101248.53
101252.75
101256.87
101260.87
101264.76
101268.55
101272.23
101275.8
101279.28
101282.65
101285.93
101289.12
101292.21
101295.23
101298.17
101301.02
101303.81
101306.52
101309.16
101311.73
101314.24
101316.68
101319.07
101321.42
101323.71
101325.97
101328.19
101330.38
101332.54
101334.68
101336.79
101338.9
101340.99
101343.06
101345.13
101347.18
101349.21
101351.23
101353.23
101355.21
101357.16
101359.08
101360.97
101362.81
101364.59
101366.31
101367.96
101369.54
101371.04
101372.44
101373.75
101374.97
101376.1
101377.12
101378.04
101378.85
101379.53
101380.09
101380.46
101380.69
101098.99
101079.63
101062.47
101041.61
101022.22
101006
100992.66
100981.57
100972.28
100964.96
100958.87
100955.85
100954.32
100953.66
100951.79
100951.12
100953.62
100957.69
100961.96
100965.61
100969.74
100974.97
100980.66
100986.62
100992.76
100998.99
101005.43
101012.04
101018.76
101025.57
101032.42
101039.37
101046.37
101053.37
101060.36
101067.35
101074.31
101081.24
101088.14
101094.99
101101.79
101108.53
101115.2
101121.79
101128.29
101134.71
101141.03
101147.27
101153.42
101159.49
101165.45
101171.32
101177.09
101182.75
101188.31
101193.76
101199.1
101204.33
101209.46
101214.49
101219.41
101224.23
101228.95
101233.56
101238.07
101242.47
101246.77
101250.96
101255.04
101259.02
101262.9
101266.67
101270.35
101273.92
101277.4
101280.78
101284.07
101287.26
101290.37
101293.39
101296.34
101299.21
101302
101304.73
101307.38
101309.97
101312.49
101314.95
101317.36
101319.71
101322.01
101324.28
101326.5
101328.69
101330.85
101332.99
101335.1
101337.19
101339.27
101341.34
101343.4
101345.44
101347.48
101349.5
101351.5
101353.49
101355.45
101357.4
101359.31
101361.19
101363.02
101364.79
101366.51
101368.15
101369.72
101371.21
101372.61
101373.92
101375.13
101376.25
101377.27
101378.18
101378.99
101379.67
101380.23
101380.6
101380.82
101193.84
101171.84
101151.71
101128.13
101105.9
101086.6
101069.93
101055.47
101043
101032.41
101023.59
101016.76
101011.54
101007.5
101004.25
101001.09
100999.34
101001.66
101004.02
101004.79
101006.27
101009.64
101013.51
101017.67
101022.03
101026.48
101031.29
101036.43
101041.77
101047.27
101052.89
101058.69
101064.62
101070.61
101076.63
101082.73
101088.85
101094.99
101101.13
101107.28
101113.41
101119.52
101125.59
101131.61
101137.58
101143.48
101149.33
101155.11
101160.83
101166.49
101172.07
101177.57
101183
101188.33
101193.58
101198.73
101203.79
101208.77
101213.65
101218.44
101223.15
101227.76
101232.28
101236.7
101241.03
101245.27
101249.4
101253.44
101257.38
101261.23
101264.98
101268.63
101272.2
101275.66
101279.04
101282.32
101285.52
101288.62
101291.65
101294.6
101297.47
101300.27
101303.01
101305.67
101308.27
101310.8
101313.28
101315.69
101318.05
101320.36
101322.63
101324.86
101327.05
101329.21
101331.34
101333.44
101335.53
101337.6
101339.66
101341.7
101343.74
101345.77
101347.79
101349.79
101351.78
101353.75
101355.71
101357.64
101359.54
101361.41
101363.23
101365
101366.71
101368.34
101369.91
101371.39
101372.78
101374.08
101375.29
101376.4
101377.42
101378.33
101379.14
101379.82
101380.37
101380.74
101380.96
101279.74
101255.61
101233.1
101207.43
101183
101161.27
101141.97
101124.79
101109.58
101096.25
101084.73
101074.97
101066.78
101059.9
101054.02
101049
101046.06
101044.99
101044.26
101042.73
101042.36
101044.06
101045.94
101048.51
101051.23
101053.87
101057.03
101060.83
101064.85
101069.05
101073.45
101078.12
101083.02
101088
101093.07
101098.27
101103.56
101108.91
101114.3
101119.74
101125.2
101130.67
101136.14
101141.58
101147.01
101152.4
101157.76
101163.09
101168.37
101173.62
101178.81
101183.94
101189.01
101194.02
101198.95
101203.81
101208.59
101213.3
101217.93
101222.48
101226.96
101231.36
101235.68
101239.92
101244.06
101248.13
101252.1
101255.99
101259.78
101263.49
101267.11
101270.64
101274.09
101277.45
101280.72
101283.9
101287
101290.02
101292.97
101295.84
101298.64
101301.37
101304.04
101306.64
101309.18
101311.66
101314.08
101316.45
101318.76
101321.03
101323.26
101325.45
101327.61
101329.73
101331.84
101333.91
101335.97
101338.02
101340.05
101342.08
101344.1
101346.1
101348.1
101350.09
101352.07
101354.03
101355.97
101357.89
101359.78
101361.64
101363.45
101365.21
101366.91
101368.54
101370.1
101371.57
101372.96
101374.25
101375.46
101376.56
101377.58
101378.48
101379.29
101379.96
101380.52
101380.88
101381.11
101357.11
101331.38
101307.04
101279.86
101253.79
101230.19
101208.85
101189.51
101172.05
101156.43
101142.56
101130.36
101119.72
101110.46
101102.45
101095.66
101090.33
101086.36
101083.19
101080.53
101079.18
101077.83
101077.44
101078.96
101080.21
101081.03
101082.52
101085.15
101087.96
101090.9
101094.06
101097.62
101101.51
101105.51
101109.63
101113.95
101118.41
101122.98
101127.61
101132.34
101137.14
101141.97
101146.83
101151.7
101156.58
101161.45
101166.32
101171.19
101176.04
101180.87
101185.66
101190.43
101195.14
101199.81
101204.42
101208.98
101213.48
101217.92
101222.3
101226.61
101230.86
101235.04
101239.16
101243.2
101247.17
101251.05
101254.86
101258.59
101262.24
101265.8
101269.29
101272.7
101276.02
101279.27
101282.44
101285.52
101288.53
101291.46
101294.32
101297.11
101299.83
101302.49
101305.09
101307.63
101310.11
101312.54
101314.91
101317.22
101319.49
101321.72
101323.91
101326.06
101328.18
101330.28
101332.35
101334.39
101336.43
101338.45
101340.46
101342.46
101344.46
101346.45
101348.43
101350.4
101352.36
101354.31
101356.24
101358.15
101360.03
101361.88
101363.68
101365.43
101367.12
101368.74
101370.29
101371.76
101373.14
101374.43
101375.62
101376.73
101377.74
101378.64
101379.44
101380.11
101380.67
101381.03
101381.26
101426.34
101399.54
101373.89
101345.7
101318.51
101293.56
101270.67
101249.64
101230.4
101212.89
101197.07
101182.85
101170.16
101158.88
101148.92
101140.27
101132.94
101126.81
101121.67
101117.35
101113.9
101111.12
101109.55
101108.82
101108.58
101107.85
101107.83
101109.29
101111.06
101112.72
101114.62
101117.12
101120.08
101123.12
101126.28
101129.74
101133.39
101137.17
101141.05
101145.08
101149.21
101153.4
101157.65
101161.94
101166.27
101170.63
101175.01
101179.41
101183.82
101188.23
101192.63
101197.02
101201.38
101205.71
101210
101214.25
101218.46
101222.63
101226.75
101230.82
101234.84
101238.81
101242.71
101246.56
101250.33
101254.04
101257.68
101261.25
101264.75
101268.17
101271.52
101274.8
101278.01
101281.14
101284.2
101287.18
101290.09
101292.93
101295.7
101298.41
101301.06
101303.65
101306.18
101308.65
101311.07
101313.44
101315.76
101318.02
101320.24
101322.42
101324.57
101326.68
101328.77
101330.83
101332.87
101334.89
101336.89
101338.89
101340.87
101342.86
101344.83
101346.8
101348.76
101350.72
101352.66
101354.6
101356.51
101358.41
101360.28
101362.12
101363.91
101365.65
101367.33
101368.95
101370.49
101371.95
101373.32
101374.6
101375.8
101376.89
101377.9
101378.8
101379.6
101380.27
101380.82
101381.18
101381.41
101487.95
101460.54
101434.05
101405.29
101377.42
101351.56
101327.57
101305.28
101284.66
101265.66
101248.25
101232.38
101217.99
101204.99
101193.33
101182.96
101173.84
101165.89
101159
101153.08
101148.03
101143.8
101140.51
101138.07
101136.22
101134.71
101133.35
101133.1
101134.01
101134.39
101135.03
101136.56
101138.68
101140.81
101143.01
101145.6
101148.45
101151.47
101154.59
101157.92
101161.39
101164.94
101168.58
101172.3
101176.08
101179.92
101183.81
101187.75
101191.72
101195.71
101199.71
101203.72
101207.72
101211.71
101215.68
101219.62
101223.54
101227.43
101231.29
101235.12
101238.9
101242.64
101246.34
101249.98
101253.57
101257.1
101260.57
101263.97
101267.31
101270.59
101273.81
101276.96
101280.04
101283.05
101286
101288.88
101291.69
101294.43
101297.12
101299.74
101302.31
101304.83
101307.29
101309.7
101312.06
101314.36
101316.62
101318.84
101321.01
101323.15
101325.25
101327.33
101329.38
101331.4
101333.41
101335.4
101337.37
101339.34
101341.3
101343.26
101345.21
101347.16
101349.11
101351.05
101352.97
101354.89
101356.8
101358.68
101360.54
101362.36
101364.15
101365.88
101367.55
101369.16
101370.69
101372.14
101373.51
101374.79
101375.97
101377.07
101378.07
101378.96
101379.76
101380.43
101380.98
101381.34
101381.56
101542.46
101514.86
101487.95
101459
101430.82
101404.42
101379.71
101356.55
101334.9
101314.77
101296.12
101278.92
101263.12
101248.68
101235.55
101223.68
101213.02
101203.51
101195.09
101187.66
101181.14
101175.51
101170.77
101166.84
101163.56
101160.77
101158.52
101157.3
101156.58
101155.77
101155.39
101155.91
101157.28
101158.54
101159.73
101161.48
101163.58
101165.85
101168.21
101170.84
101173.65
101176.57
101179.61
101182.75
101186
101189.32
101192.72
101196.19
101199.72
101203.29
101206.89
101210.52
101214.16
101217.8
101221.45
101225.08
101228.71
101232.32
101235.92
101239.49
101243.04
101246.56
101250.04
101253.48
101256.87
101260.22
101263.51
101266.75
101269.94
101273.07
101276.14
101279.16
101282.12
101285.01
101287.85
101290.62
101293.33
101295.98
101298.57
101301.11
101303.6
101306.04
101308.43
101310.77
101313.06
101315.31
101317.52
101319.68
101321.8
101323.89
101325.95
101327.99
101330
101331.99
101333.96
101335.92
101337.86
101339.8
101341.74
101343.68
101345.61
101347.54
101349.46
101351.38
101353.29
101355.2
101357.09
101358.96
101360.8
101362.62
101364.39
101366.11
101367.78
101369.38
101370.9
101372.35
101373.7
101374.97
101376.15
101377.24
101378.24
101379.13
101379.93
101380.59
101381.14
101381.5
101381.72
101590.45
101562.99
101536.01
101507.18
101479.01
101452.41
101427.3
101403.58
101381.23
101360.27
101340.68
101322.44
101305.53
101289.91
101275.54
101262.39
101250.41
101239.56
101229.79
101221.04
101213.21
101206.27
101200.2
101194.95
101190.42
101186.52
101183.24
101180.71
101178.78
101177.33
101175.96
101175.16
101175.76
101176.16
101176.35
101177.35
101178.76
101180.3
101181.88
101183.82
101185.99
101188.28
101190.72
101193.3
101196
101198.81
101201.73
101204.74
101207.82
101210.97
101214.17
101217.42
101220.7
101223.99
101227.31
101230.63
101233.97
101237.3
101240.63
101243.95
101247.26
101250.55
101253.81
101257.05
101260.25
101263.4
101266.52
101269.59
101272.62
101275.6
101278.53
101281.41
101284.24
101287.01
101289.73
101292.4
101295
101297.55
101300.06
101302.51
101304.92
101307.28
101309.6
101311.87
101314.1
101316.28
101318.43
101320.54
101322.61
101324.65
101326.67
101328.66
101330.63
101332.59
101334.53
101336.45
101338.37
101340.28
101342.19
101344.1
101346.01
101347.92
101349.82
101351.72
101353.62
101355.51
101357.38
101359.24
101361.07
101362.88
101364.64
101366.35
101368.01
101369.6
101371.12
101372.55
101373.9
101375.16
101376.34
101377.42
101378.41
101379.3
101380.09
101380.76
101381.3
101381.66
101381.88
101632.47
101605.42
101578.66
101550.2
101522.3
101495.76
101470.54
101446.54
101423.78
101402.27
101382.01
101363
101345.22
101328.66
101313.28
101299.07
101285.98
101273.99
101263.06
101253.14
101244.14
101236.03
101228.79
101222.37
101216.7
101211.72
101207.43
101203.83
101200.83
101198.31
101196.19
101194.82
101194.21
101193.44
101192.94
101193.22
101193.91
101194.77
101195.55
101196.81
101198.38
101200.06
101201.91
101203.91
101206.08
101208.38
101210.81
101213.37
101216.01
101218.75
101221.55
101224.41
101227.32
101230.27
101233.26
101236.27
101239.31
101242.36
101245.42
101248.49
101251.55
101254.61
101257.66
101260.68
101263.68
101266.65
101269.59
101272.49
101275.36
101278.18
101280.97
101283.71
101286.41
101289.06
101291.66
101294.21
101296.72
101299.17
101301.58
101303.94
101306.27
101308.55
101310.79
101312.99
101315.16
101317.28
101319.37
101321.42
101323.44
101325.44
101327.41
101329.36
101331.29
101333.2
101335.11
101337
101338.89
101340.77
101342.65
101344.54
101346.42
101348.31
101350.19
101352.08
101353.95
101355.83
101357.69
101359.53
101361.35
101363.14
101364.9
101366.6
101368.25
101369.83
101371.34
101372.76
101374.11
101375.36
101376.53
101377.61
101378.59
101379.48
101380.27
101380.93
101381.47
101381.83
101382.05
101669.07
101642.65
101616.32
101588.44
101561.02
101534.77
101509.66
101485.63
101462.69
101440.87
101420.18
101400.64
101382.23
101364.95
101348.78
101333.71
101319.71
101306.76
101294.85
101283.92
101273.91
101264.77
101256.49
101249.03
101242.33
101236.37
101231.11
101226.52
101222.55
101219.15
101216.25
101213.96
101212.23
101210.81
101209.85
101209.05
101208.94
101209.17
101209.13
101209.77
101210.8
101211.89
101213.14
101214.58
101216.23
101218.02
101219.98
101222.07
101224.28
101226.6
101229
101231.48
101234.03
101236.64
101239.3
101241.99
101244.73
101247.5
101250.29
101253.1
101255.92
101258.75
101261.57
101264.39
101267.18
101269.96
101272.72
101275.45
101278.15
101280.82
101283.46
101286.06
101288.63
101291.15
101293.64
101296.08
101298.47
101300.82
101303.13
101305.41
101307.65
101309.85
101312.02
101314.15
101316.24
101318.3
101320.33
101322.32
101324.29
101326.24
101328.16
101330.07
101331.96
101333.84
101335.7
101337.56
101339.42
101341.27
101343.13
101344.99
101346.85
101348.71
101350.57
101352.44
101354.3
101356.15
101358
101359.83
101361.64
101363.42
101365.16
101366.85
101368.49
101370.06
101371.56
101372.98
101374.31
101375.56
101376.72
101377.79
101378.78
101379.66
101380.44
101381.1
101381.64
101382
101382.22
101700.76
101675.12
101649.41
101622.27
101595.5
101569.72
101544.91
101521.05
101498.14
101476.22
101455.32
101435.45
101416.61
101398.81
101382.05
101366.31
101351.59
101337.86
101325.13
101313.35
101302.46
101292.43
101283.24
101274.86
101267.25
101260.38
101254.22
101248.74
101243.9
101239.64
101235.95
101232.83
101230.23
101228.05
101226.28
101224.91
101224.15
101223.41
101222.69
101222.71
101223.2
101223.74
101224.42
101225.3
101226.43
101227.72
101229.21
101230.85
101232.63
101234.53
101236.53
101238.64
101240.82
101243.08
101245.41
101247.79
101250.23
101252.71
101255.23
101257.79
101260.36
101262.96
101265.56
101268.16
101270.75
101273.34
101275.91
101278.46
101280.99
101283.51
101286
101288.46
101290.89
101293.29
101295.65
101297.98
101300.26
101302.51
101304.73
101306.91
101309.06
101311.18
101313.27
101315.33
101317.35
101319.35
101321.31
101323.25
101325.16
101327.06
101328.94
101330.8
101332.65
101334.48
101336.31
101338.14
101339.96
101341.79
101343.62
101345.45
101347.28
101349.12
101350.96
101352.81
101354.65
101356.49
101358.32
101360.14
101361.93
101363.7
101365.43
101367.11
101368.74
101370.3
101371.79
101373.2
101374.53
101375.77
101376.92
101377.99
101378.97
101379.84
101380.63
101381.28
101381.82
101382.17
101382.39
101728.02
101703.28
101678.33
101652.05
101626.05
101600.88
101576.55
101553.01
101530.31
101508.47
101487.54
101467.53
101448.45
101430.32
101413.14
101396.91
101381.63
101367.29
101353.9
101341.41
101329.78
101318.98
101309
101299.82
101291.4
101283.72
101276.75
101270.45
101264.8
101259.75
101255.29
101251.39
101248
101245.09
101242.63
101240.58
101238.98
101237.69
101236.46
101235.67
101235.5
101235.52
101235.69
101236.03
101236.66
101237.47
101238.49
101239.69
101241.03
101242.53
101244.13
101245.86
101247.69
101249.6
101251.6
101253.66
101255.8
101258
101260.25
101262.55
101264.88
101267.23
101269.61
101271.99
101274.38
101276.77
101279.15
101281.53
101283.9
101286.25
101288.59
101290.91
101293.2
101295.47
101297.71
101299.92
101302.09
101304.24
101306.36
101308.45
101310.51
101312.55
101314.56
101316.54
101318.49
101320.42
101322.32
101324.2
101326.06
101327.9
101329.73
101331.55
101333.35
101335.15
101336.94
101338.73
101340.52
101342.32
101344.12
101345.92
101347.73
101349.54
101351.36
101353.19
101355.01
101356.83
101358.65
101360.45
101362.23
101363.98
101365.7
101367.37
101368.99
101370.54
101372.03
101373.43
101374.75
101375.98
101377.13
101378.19
101379.16
101380.03
101380.81
101381.46
101382
101382.35
101382.57
101751.3
101727.54
101703.45
101678.12
101652.99
101628.56
101604.81
101581.75
101559.39
101537.79
101516.99
101496.99
101477.84
101459.54
101442.1
101425.54
101409.85
101395.05
101381.14
101368.08
101355.84
101344.39
101333.74
101323.86
101314.73
101306.33
101298.63
101291.59
101285.21
101279.43
101274.25
101269.62
101265.52
101261.9
101258.75
101256.03
101253.73
101251.75
101250.05
101248.84
101247.84
101247.21
101246.92
101246.74
101246.91
101247.23
101247.8
101248.58
101249.5
101250.58
101251.79
101253.14
101254.61
101256.18
101257.85
101259.61
101261.45
101263.36
101265.34
101267.37
101269.46
101271.57
101273.72
101275.89
101278.07
101280.26
101282.46
101284.66
101286.85
101289.05
101291.23
101293.4
101295.56
101297.7
101299.81
101301.9
101303.96
101306
101308.02
101310.02
101311.99
101313.94
101315.87
101317.78
101319.66
101321.51
101323.35
101325.17
101326.97
101328.76
101330.54
101332.31
101334.07
101335.83
101337.59
101339.34
101341.1
101342.86
101344.63
101346.4
101348.19
101349.98
101351.77
101353.58
101355.38
101357.19
101358.98
101360.77
101362.54
101364.28
101365.98
101367.64
101369.25
101370.8
101372.27
101373.66
101374.97
101376.2
101377.34
101378.39
101379.36
101380.23
101381
101381.65
101382.18
101382.54
101382.75
101771.05
101748.31
101725.14
101700.82
101676.63
101653.01
101629.96
101607.48
101585.59
101564.36
101543.8
101523.97
101504.87
101486.54
101468.99
101452.24
101436.29
101421.16
101406.85
101393.35
101380.62
101368.65
101357.43
101346.96
101337.21
101328.17
101319.82
101312.13
101305.08
101298.64
101292.78
101287.48
101282.71
101278.44
101274.64
101271.28
101268.33
101265.75
101263.52
101261.67
101260.17
101259.09
101258.11
101257.43
101257.16
101256.99
101257.13
101257.5
101258.01
101258.69
101259.5
101260.48
101261.6
101262.83
101264.17
101265.61
101267.16
101268.79
101270.49
101272.27
101274.1
101275.98
101277.9
101279.85
101281.82
101283.81
101285.82
101287.84
101289.86
101291.89
101293.92
101295.95
101297.97
101299.97
101301.96
101303.92
101305.87
101307.81
101309.72
101311.62
101313.5
101315.37
101317.21
101319.04
101320.85
101322.64
101324.41
101326.17
101327.91
101329.65
101331.38
101333.1
101334.82
101336.53
101338.24
101339.96
101341.68
101343.41
101345.15
101346.9
101348.66
101350.42
101352.2
101353.98
101355.76
101357.55
101359.33
101361.1
101362.85
101364.58
101366.27
101367.92
101369.52
101371.05
101372.51
101373.9
101375.2
101376.42
101377.55
101378.6
101379.56
101380.43
101381.2
101381.84
101382.37
101382.72
101382.94
101787.61
101765.93
101743.73
101720.46
101697.26
101674.52
101652.24
101630.42
101609.1
101588.33
101568.14
101548.58
101529.66
101511.43
101493.89
101477.06
101460.97
101445.63
101431.06
101417.23
101404.11
101391.72
101380.04
101369.07
101358.8
101349.21
101340.29
101332.01
101324.37
101317.32
101310.85
101304.94
101299.55
101294.66
101290.25
101286.29
101282.75
101279.6
101276.83
101274.44
101272.41
101270.73
101269.32
101268.29
101267.41
101266.7
101266.44
101266.43
101266.55
101266.83
101267.25
101267.86
101268.64
101269.53
101270.55
101271.68
101272.93
101274.28
101275.7
101277.22
101278.81
101280.44
101282.13
101283.86
101285.63
101287.42
101289.24
101291.07
101292.92
101294.79
101296.66
101298.54
101300.41
101302.28
101304.14
101305.99
101307.82
101309.64
101311.46
101313.26
101315.05
101316.83
101318.59
101320.34
101322.07
101323.78
101325.49
101327.18
101328.87
101330.55
101332.23
101333.9
101335.57
101337.25
101338.92
101340.6
101342.29
101343.98
101345.69
101347.41
101349.14
101350.88
101352.63
101354.39
101356.15
101357.92
101359.68
101361.44
101363.18
101364.89
101366.57
101368.21
101369.79
101371.31
101372.77
101374.14
101375.43
101376.64
101377.77
101378.81
101379.77
101380.63
101381.4
101382.04
101382.57
101382.92
101383.13
101801.3
101780.71
101759.52
101737.33
101715.15
101693.33
101671.87
101650.78
101630.1
101609.87
101590.15
101570.95
101552.31
101534.27
101516.85
101500.07
101483.95
101468.51
101453.76
101439.71
101426.32
101413.6
101401.56
101390.18
101379.47
101369.42
101360
101351.21
101343.04
101335.45
101328.42
101321.95
101316
101310.54
101305.56
101301.04
101296.94
101293.26
101289.97
101287.06
101284.53
101282.35
101280.48
101278.93
101277.68
101276.55
101275.77
101275.34
101275.08
101275
101275.02
101275.28
101275.72
101276.28
101276.98
101277.79
101278.75
101279.82
101280.98
101282.23
101283.57
101284.97
101286.43
101287.94
101289.49
101291.08
101292.71
101294.36
101296.04
101297.74
101299.45
101301.18
101302.91
101304.64
101306.37
101308.09
101309.81
101311.52
101313.23
101314.93
101316.63
101318.31
101319.99
101321.66
101323.31
101324.96
101326.6
101328.23
101329.86
101331.48
101333.1
101334.73
101336.35
101337.98
101339.61
101341.25
101342.91
101344.57
101346.24
101347.93
101349.63
101351.35
101353.07
101354.81
101356.55
101358.3
101360.05
101361.78
101363.51
101365.21
101366.87
101368.5
101370.07
101371.58
101373.03
101374.39
101375.68
101376.88
101378
101379.03
101379.98
101380.84
101381.6
101382.24
101382.76
101383.11
101383.33
101812.52
101793.01
101772.82
101751.7
101730.55
101709.67
101689.07
101668.76
101648.77
101629.16
101609.96
101591.2
101572.93
101555.18
101537.96
101521.32
101505.26
101489.81
101475
101460.82
101447.24
101434.29
101421.97
101410.27
101399.21
101388.76
101378.93
101369.7
101361.05
101352.98
101345.47
101338.48
101332.02
101326.04
101320.55
101315.51
101310.9
101306.72
101302.93
101299.54
101296.53
101293.87
101291.55
101289.55
101287.83
101286.35
101285.23
101284.27
101283.59
101283.17
101282.79
101282.71
101282.84
101283.07
101283.46
101283.96
101284.63
101285.42
101286.3
101287.3
101288.39
101289.54
101290.78
101292.07
101293.4
101294.8
101296.23
101297.7
101299.2
101300.73
101302.29
101303.86
101305.45
101307.04
101308.64
101310.24
101311.84
101313.44
101315.04
101316.64
101318.24
101319.84
101321.43
101323.01
101324.59
101326.16
101327.73
101329.3
101330.86
101332.43
101334
101335.57
101337.15
101338.73
101340.32
101341.92
101343.54
101345.17
101346.81
101348.47
101350.14
101351.82
101353.53
101355.24
101356.96
101358.69
101360.42
101362.14
101363.85
101365.53
101367.18
101368.8
101370.36
101371.86
101373.29
101374.65
101375.92
101377.12
101378.23
101379.26
101380.2
101381.05
101381.81
101382.45
101382.97
101383.32
101383.53
101821.41
101803.01
101783.87
101763.82
101743.7
101723.77
101704.06
101684.55
101665.3
101646.34
101627.72
101609.47
101591.63
101574.23
101557.3
101540.87
101524.96
101509.59
101494.8
101480.56
101466.89
101453.78
101441.26
101429.33
101417.98
101407.22
101397.04
101387.44
101378.4
101369.9
101361.95
101354.52
101347.59
101341.15
101335.18
101329.67
101324.59
101319.94
101315.7
101311.85
101308.39
101305.29
101302.53
101300.09
101297.96
101296.1
101294.53
101293.22
101292.22
101291.33
101290.55
101290.15
101289.97
101289.89
101289.97
101290.16
101290.55
101291.07
101291.67
101292.42
101293.26
101294.17
101295.17
101296.25
101297.37
101298.56
101299.8
101301.08
101302.41
101303.77
101305.17
101306.59
101308.03
101309.49
101310.95
101312.42
101313.9
101315.39
101316.88
101318.38
101319.88
101321.39
101322.89
101324.39
101325.89
101327.39
101328.89
101330.39
101331.89
101333.4
101334.91
101336.44
101337.96
101339.5
101341.05
101342.61
101344.19
101345.78
101347.39
101349.01
101350.66
101352.32
101353.99
101355.68
101357.38
101359.09
101360.8
101362.5
101364.19
101365.86
101367.5
101369.1
101370.65
101372.14
101373.56
101374.91
101376.18
101377.36
101378.46
101379.49
101380.42
101381.27
101382.03
101382.66
101383.18
101383.52
101383.73
101828.34
101811.02
101792.92
101773.93
101754.82
101735.85
101717.01
101698.33
101679.83
101661.57
101643.57
101625.88
101608.52
101591.54
101574.96
101558.8
101543.11
101527.89
101513.18
101498.98
101485.28
101472.1
101459.45
101447.35
101435.8
101424.79
101414.33
101404.42
101395.04
101386.19
101377.86
101370.03
101362.69
101355.83
101349.44
101343.5
101337.99
101332.92
101328.25
101323.98
101320.09
101316.57
101313.4
101310.55
101308.02
101305.78
101303.82
101302.14
101300.71
101299.51
101298.42
101297.61
101297.09
101296.72
101296.51
101296.39
101296.5
101296.76
101297.09
101297.58
101298.18
101298.84
101299.62
101300.47
101301.39
101302.37
101303.42
101304.52
101305.67
101306.86
101308.09
101309.36
101310.66
101311.97
101313.3
101314.65
101316.01
101317.38
101318.76
101320.16
101321.56
101322.97
101324.38
101325.8
101327.22
101328.64
101330.07
101331.5
101332.94
101334.39
101335.85
101337.32
101338.8
101340.29
101341.79
101343.31
101344.85
101346.41
101347.98
101349.58
101351.19
101352.82
101354.47
101356.14
101357.82
101359.5
101361.19
101362.88
101364.55
101366.2
101367.83
101369.42
101370.95
101372.43
101373.84
101375.18
101376.44
101377.61
101378.71
101379.72
101380.65
101381.5
101382.25
101382.88
101383.39
101383.73
101383.94
101833.8
101817.37
101800.25
101782.27
101764.14
101746.09
101728.13
101710.27
101692.54
101674.99
101657.64
101640.54
101623.71
101607.19
101591
101575.19
101559.77
101544.77
101530.21
101516.1
101502.44
101489.25
101476.55
101464.35
101452.65
101441.47
101430.79