/*--------------------------------*- C++ -*----------------------------------*\
| =========                 |                                                 |
| \\      /  F ield         | OpenFOAM: The Open Source CFD Toolbox           |
|  \\    /   O peration     | Version:  2406                                  |
|   \\  /    A nd           | Website:  www.openfoam.com                      |
|    \\/     M anipulation  |                                                 |
\*---------------------------------------------------------------------------*/
FoamFile
{
    version     2.0;
    format      ascii;
    arch        "LSB;label=32;scalar=64";
    class       volScalarField;
    location    "0.091";
    object      omega;
}
// * * * * * * * * * * * * * * * * * * * * * * * * * * * * * * * * * * * * * //

dimensions      [0 0 -1 0 0 0 0];

internalField   nonuniform List<scalar> 
8260
(
19418.059
16553.812
13859.08
11452.056
9369.059
7595.0837
6101.6416
4857.8067
3833.1712
2997.98
2324.6976
1788.1892
1365.5213
1036.0746
779.69364
576.13127
398.07259
265.62788
202.30336
169.78303
147.11214
131.74787
121.11586
114.58478
110.27788
106.6729
103.87712
101.90289
100.50375
99.640918
99.185448
16032.733
13810.849
11768.905
9914.9466
8258.8472
6802.7581
5541.7428
4465.6397
3560.8275
2810.6983
2197.0341
1701.9163
1307.7105
997.6663
753.86253
557.0968
381.99966
255.27907
198.09562
167.74107
145.94813
130.99852
120.65244
114.32387
110.11358
106.57536
103.81257
101.86369
100.48019
99.626671
99.176709
13130.945
11494.223
9954.512
8524.6986
7214.7459
6032.4005
4982.2773
4065.1378
3277.8331
2613.1928
2060.866
1609.0989
1245.1102
955.85401
725.6302
536.16365
365.6137
248.20169
195.77759
166.63073
145.33289
130.60335
120.40803
114.18423
110.02374
106.52312
103.77671
101.84055
100.46368
99.6146
99.167112
10637.996
9470.7983
8334.7015
7250.2357
6230.3054
5286.0957
4426.7929
3658.8805
2985.5242
2406.0414
1916.2187
1509.4731
1177.3394
910.21162
694.52978
512.66501
347.77824
239.97608
192.37602
164.80003
144.27007
129.90635
119.96907
113.93028
109.85632
106.42461
103.70909
101.79763
100.43703
99.597593
99.155939
8522.9651
7713.1365
6892.0569
6086.7334
5309.0528
4570.5279
3881.7666
3251.7353
2686.995
2190.9851
1763.9049
1403.2887
1104.3482
860.52223
660.16972
485.86348
327.97065
231.75352
189.14419
163.0688
143.28622
129.29393
119.58993
113.71882
109.71513
106.34022
103.65194
101.76092
100.41265
99.580587
99.143175
6754.8233
6202.1077
5621.5528
5037.1314
4458.0009
3893.9121
3354.6907
2849.5375
2386.253
1970.4694
1605.2361
1291.1099
1026.2606
806.63198
622.08016
455.03827
306.43851
223.40161
185.40627
160.90845
142.01018
128.48142
119.07327
113.42744
109.51794
106.22063
103.57087
101.70882
100.38013
99.559134
99.128546
5292.4753
4921.227
4519.537
4105.3707
3684.7939
3264.9231
2853.5843
2458.7769
2088.0075
1747.5731
1442.0057
1173.8147
943.37109
748.40904
579.58606
419.53359
283.96171
215.1813
181.52027
158.6203
140.67273
127.6679
118.56199
113.14976
109.32654
106.10138
103.49132
101.65735
100.34719
99.536169
99.11184
4096.1176
3851.212
3579.4299
3293.0432
2995.5333
2691.458
2386.3162
2086.2315
1797.4819
1525.9307
1276.4739
1052.5967
856.1352
685.66635
531.5921
378.91584
261.82449
207.10102
177.20984
155.94346
139.06999
126.68083
117.92893
112.80293
109.08567
105.94828
103.38944
101.59111
100.30635
99.508325
99.092728
3128.8587
2970.6242
2791.04
2598.054
2393.3303
2179.4029
1959.6857
1738.3409
1520.0226
1309.5073
1111.2471
928.88347
765.06109
617.94715
476.34541
334.13783
241.73408
199.16411
172.60184
153.02804
137.33875
125.64159
117.27628
112.4517
108.83699
105.78509
103.28291
101.52142
100.26304
99.477493
99.070864
2356.266
2256.4327
2140.8651
2014.4344
1877.6976
1731.8059
1578.5703
1420.4578
1260.5122
1102.1765
948.98468
804.10189
670.32019
544.01323
411.69649
289.3552
224.85228
191.16891
167.52945
149.7285
135.35253
124.41893
116.51578
112.02962
108.53527
105.5845
103.15237
101.43602
100.21092
99.440653
99.045788
1746.7863
1685.3647
1613.388
1533.228
1444.8808
1348.6842
1245.3666
1136.1141
1022.6179
907.03968
791.81433
679.11654
571.01242
459.80853
338.83514
252.74631
210.99792
182.95916
162.08156
146.17418
133.21255
123.10394
115.74576
111.58727
108.20905
105.36645
103.01082
101.34412
100.15422
99.399163
99.01699
1271.1049
1234.5632
1191.3255
1142.398
1087.4639
1026.3477
959.06621
885.91672
807.58524
725.17208
640.02025
552.46017
462.27717
362.40614
274.71403
228.73995
197.96527
174.2115
156.34798
142.1701
130.84009
121.61789
114.89977
111.06668
107.81649
105.11061
102.83953
101.2351
100.08709
99.350246
98.983853
902.00283
881.38387
856.57866
827.92394
794.92974
757.11795
714.10305
665.65217
611.80743
552.86893
489.41872
419.9345
344.79113
277.10056
237.52201
210.11084
184.65841
166.112
150.19134
138.22254
128.14681
120.01974
114.07691
110.52126
107.38673
104.83502
102.64867
101.11713
100.01325
99.295427
98.939664
611.01022
599.34987
585.07337
568.42884
548.80286
525.38479
497.79023
465.80118
429.31491
387.93404
343.9834
299.64407
261.27306
230.98769
212.3486
191.8523
173.30737
156.93357
144.19148
133.61725
125.2907
118.44515
113.12839
109.87954
106.89519
104.51603
102.42316
100.97996
99.926436
99.23251
98.887187
390.71619
383.85558
376.08297
367.47786
357.10827
344.35022
329.37496
312.76669
294.11306
273.94699
253.78812
233.91857
217.63601
204.88839
190.74556
177.18244
161.04646
149.0805
138.04527
129.43612
122.34629
116.70446
112.20124
109.21859
106.36709
104.15723
102.17805
100.83173
99.829584
99.1638
98.828536
266.91051
263.58132
259.55976
255.31219
250.6315
245.26813
238.96163
232.2619
223.49512
215.06012
205.75504
198.50007
193.11773
180.69588
171.79754
162.6092
152.3332
140.78706
132.32913
124.9192
119.56932
115.14684
111.13581
108.4438
105.76687
103.73941
101.90202
100.66105
99.716974
99.087925
98.765401
201.18551
199.94279
198.49834
196.78656
195.05745
192.99074
190.41144
187.99932
185.4034
183.29663
177.46489
171.99629
167.14698
160.44115
154.69036
151.08382
142.61241
134.247
127.22801
121.36422
116.97658
113.51888
110.182
107.5858
105.10329
103.30158
101.61633
100.47314
99.594877
99.006936
98.69992
167.04122
166.15709
165.4737
164.79509
164.27011
164.46367
164.50037
163.09302
160.98554
156.85619
155.43923
155.95584
152.22212
146.3565
140.0412
135.81877
133.40121
127.71659
122.37331
117.86732
115.28097
111.93993
109.05085
106.63411
104.41773
102.80056
101.29499
100.26699
99.458902
98.918611
98.629978
148.0849
148.1223
147.97548
147.46699
146.47527
144.6933
142.31702
140.98564
140.38819
140.51372
140.15544
137.41647
134.84176
134.01313
131.35691
126.98221
123.72615
121.82921
118.63858
115.5341
112.8501
110.37547
108.16453
105.67627
103.67169
102.25504
100.98862
100.04617
99.316885
98.822614
98.552091
130.20598
130.04356
129.88288
129.6711
129.46987
129.60438
130.40276
130.49857
129.83283
128.07275
125.76199
124.79574
125.41913
123.45632
123.98573
122.04183
119.00957
116.40263
114.88303
111.83711
110.41224
108.93868
106.97705
104.54936
102.92093
101.70358
100.62791
99.819047
99.163045
98.715351
98.473483
120.94909
121.06817
121.06167
120.92198
120.59761
120.00003
118.80022
118.29879
117.9634
117.65311
117.88297
117.12376
115.55266
115.08572
114.70987
114.61098
114.66344
113.14855
111.59739
109.52188
107.43922
106.24704
105.42701
103.56456
102.22332
101.1208
100.27638
99.57621
99.009558
98.601346
98.385468
112.25375
112.27486
112.25614
112.18695
112.09674
112.03621
112.2673
112.49756
112.35046
111.93858
111.13871
110.59058
110.41504
110.05855
109.1084
108.51983
108.37466
108.2412
107.95033
107.30588
105.23576
103.62641
103.51296
102.4165
101.43247
100.58773
99.881015
99.326093
98.855397
98.486711
98.296317
107.78254
107.89154
107.92235
107.88728
107.79801
107.63365
107.31141
106.8337
106.66087
106.53313
106.36902
106.38597
106.09752
105.95994
105.77943
105.42588
104.60495
104.38014
104.01903
104.59948
103.94153
102.32947
101.65517
101.33904
100.63949
100.08427
99.587033
99.064047
98.699729
98.378223
98.208031
103.68382
103.72419
103.72415
103.69921
103.66415
103.62543
103.59482
103.69223
103.78911
103.76421
103.69277
103.46502
103.38196
103.10125
102.89441
102.66688
102.78883
102.51605
102.07222
101.98923
102.01877
101.61443
100.75679
100.36708
100.00157
99.630566
99.251466
98.864814
98.560686
98.272004
98.128114
101.65877
101.70407
101.70799
101.68081
101.6299
101.56795
101.49849
101.39899
101.29204
101.24447
101.20302
101.1483
101.09656
101.09326
101.26875
101.30883
101.14841
101.07471
101.04195
100.64673
100.42243
100.7098
100.28675
99.853245
99.577269
99.258882
99.070426
98.723772
98.410928
98.183305
98.051675
99.792943
99.811326
99.812944
99.807731
99.805222
99.807797
99.814138
99.82512
99.8466
99.905334
99.964655
100.0122
100.03468
100.0475
99.980076
99.952569
100.02386
99.893134
99.99376
99.932047
99.672677
99.667858
99.759257
99.502136
99.337008
99.064805
98.827382
98.550181
98.307766
98.113823
98.008887
99.012665
99.032178
99.03966
99.041159
99.04268
99.042784
99.041578
99.041354
99.046323
99.064679
99.098596
99.142854
99.188833
99.216518
99.310123
99.310806
99.285277
99.344626
99.284622
99.304308
99.353006
99.19534
99.167921
99.207052
99.098607
98.86729
98.648725
98.442743
98.220908
98.071826
97.983445
98.428517
98.438349
98.444008
98.448813
98.456161
98.469451
98.488966
98.514095
98.546113
98.589328
98.648353
98.704202
98.742675
98.760184
98.727373
98.739563
98.773988
98.846555
98.925431
98.829999
98.958353
98.915084
98.814228
98.758108
98.694553
98.625065
98.467648
98.324826
98.175425
98.054279
97.970438
98.233402
98.23996
98.244695
98.24941
98.255476
98.263188
98.272722
98.285159
98.300706
98.320788
98.347455
98.380569
98.417875
98.449419
98.466383
98.48138
98.501609
98.518924
98.544466
98.563395
98.579467
98.562251
98.542445
98.535821
98.504425
98.467133
98.379547
98.27564
98.15967
98.065647
98.026249
98.162614
98.166933
98.170812
98.175254
98.181079
98.18835
98.197097
98.207538
98.220329
98.236803
98.259084
98.28974
98.328125
98.360915
98.381748
98.390607
98.391789
98.40832
98.421925
98.441972
98.456095
98.448223
98.45081
98.451965
98.440941
98.412585
98.349916
98.268577
98.218194
98.174171
98.129261
98.282383
98.280912
98.279702
98.278613
98.277632
98.276831
98.27637
98.276531
98.277731
98.280872
98.288132
98.304612
98.334155
98.356276
98.365284
98.374096
98.387359
98.396408
98.410807
98.419544
98.427404
98.438725
98.438239
98.429741
98.446795
98.421901
98.388975
98.361167
98.343648
98.309247
98.304533
106476.34
90023.003
70825.022
54464.529
41575.606
31357.799
23365.887
17275.706
12681.837
9223.5515
6643.0581
4742.1526
3358.4109
2361.655
1650.2541
1145.8173
787.40974
526.66521
341.82447
228.38902
173.01054
147.77943
131.88205
120.61165
113.5525
108.50498
105.16455
102.73308
101.08306
100.02911
99.488182
93901.909
70819.569
54235.107
42378.208
32975.411
25401.815
19401.45
14653.409
10932.93
8058.1382
5874.3353
4240.9606
3035.2521
2155.4718
1519.9779
1064.041
735.60593
493.3384
320.51233
216.78347
168.02071
145.4654
130.51126
119.85144
113.16719
108.29034
105.0407
102.66105
101.04347
100.00929
99.480553
75114.287
59590.51
47706.675
37757.428
29404.825
22603.999
17210.048
12990.381
9715.3205
7196.6181
5281.429
3841.6682
2771.1566
1983.5511
1409.6237
993.92239
690.95337
464.9964
303.96715
210.04805
165.69953
144.37984
129.85222
119.48697
112.98523
108.1883
104.97964
102.62365
101.01839
99.993649
99.469421
66052.313
53182.731
42242.457
33158.733
25802.888
19923.766
15260.813
11585.039
8711.5984
6490.4608
4792.8836
3509.3274
2548.7923
1837.1413
1314.6534
933.00692
651.88493
440.36273
289.383
203.06933
162.58979
142.74406
128.81087
118.90786
112.68966
108.0223
104.87913
102.56292
100.98337
99.975076
99.459526
58846.241
46890.956
37145.642
29259.6
22888.571
17763.313
13667.505
10421.407
7875.0184
5898.9185
4381.2562
3227.3614
2358.6609
1710.9374
1232.1294
879.61547
617.38814
418.24086
276.18553
197.36564
160.43767
141.63295
128.11071
118.531
112.49917
107.91448
104.81231
102.52181
100.95661
99.958858
99.44986
52323.698
41741.881
33162.675
26185.513
20531.768
15978.785
12335.576
9443.8211
7169.6195
5397.9484
4030.8281
2985.893
2194.7886
1601.4328
1160.0245
832.52068
586.76411
398.00156
264.34484
192.30847
158.20198
140.35074
127.26796
118.0649
112.2578
107.77692
104.72638
102.46915
100.92472
99.941061
99.438841
47255.063
37678.66
29916.88
23632.885
18561.395
14481.536
11215.546
8619.5067
6572.3724
4971.6916
3731.0633
2778.1684
2052.9898
1506.1066
1096.8423
790.9091
559.46915
379.58443
253.81987
188.027
156.41483
139.3264
126.60281
117.7105
112.07514
107.6724
104.65932
102.42763
100.89758
99.924547
99.427054
43165.783
34302.731
27205.089
21502.894
16915.213
13226.686
10273.648
7923.3824
6065.6088
4608.1794
3474.0782
2599.128
1930.1037
1423.0311
1041.426
754.17602
535.06144
362.87663
244.55149
184.34723
154.72016
138.27688
125.89988
117.32713
111.8733
107.55601
104.58392
102.38096
100.86802
99.907203
99.415031
39657.299
31462.578
24944.552
19727.377
15537.589
12173.22
9480.2194
7334.6789
5635.1499
4297.9294
3253.6562
2444.7822
1823.63
1350.6791
992.93889
721.77661
513.45912
347.7909
236.47414
181.22925
153.28493
137.37539
125.30113
117.01044
111.70642
107.45957
104.5197
102.34096
100.84134
99.890571
99.402758
36778.707
29113.969
23064.247
18243.269
14382.244
11287.694
8811.3907
6836.7041
5269.57
4033.283
3064.768
2311.8967
1731.5347
1287.8049
950.67409
693.30625
494.09202
334.21322
229.50534
178.58147
151.97667
136.50467
124.70992
116.69266
111.53572
107.36031
104.45272
102.29921
100.81373
99.873522
99.390348
34324.567
27133.417
21483.65
16996.772
13412.255
10543.376
8247.9609
6415.9489
4959.5786
3807.9867
2903.2913
2197.8095
1652.1324
1233.3659
913.9512
668.39166
476.80632
322.05823
223.55168
176.34682
150.84777
135.73556
124.18932
116.41874
111.38774
107.27427
104.39298
102.26181
100.788
99.856886
99.377781
32254.249
25465.71
20155.288
15950.483
12598.887
9918.7255
7774.4058
6061.432
4697.5936
3616.9114
2765.827
2100.3124
1584.0123
1186.5496
882.20923
646.76623
461.46325
311.25139
218.51967
174.46643
149.84536
135.01866
123.69577
116.1559
111.2432
107.18995
104.33341
102.2244
100.76215
99.840072
99.365075
30486.474
24054.999
19037.694
15073.51
11918.068
9396.2004
7378.062
5764.2329
4477.4325
3455.8495
2649.566
2017.5627
1526.0215
1146.5437
854.92216
628.16377
447.90533
301.73227
214.31499
172.89785
148.98455
134.38305
123.2572
115.92472
111.11494
107.11536
104.27913
102.19012
100.73767
99.823529
99.35223
28975.34
22861.131
18098.462
14340.536
11351.089
8961.8876
7048.6699
5517.0901
4294.0826
3321.4279
2552.2468
1948.1392
1477.1651
1112.6344
831.6783
612.26115
435.99317
293.44912
210.84859
171.60322
148.24271
133.80774
122.85409
115.70921
110.99338
107.04477
104.22657
102.15672
100.7135
99.80695
99.339252
27685.924
21855.767
17315.315
13733.705
10884.226
8605.358
6778.6472
5314.5798
4143.7215
3211.1689
2472.2288
1890.8143
1436.6402
1084.3991
812.24866
598.7599
425.58519
286.3473
208.03936
170.55436
147.62318
133.30459
122.49874
115.51849
110.88451
106.9821
104.17836
102.12574
100.69043
99.790613
99.32612
26620.197
21031.776
16679.021
13243.958
10509.173
8320.0264
6563.0586
5153.1516
4023.6825
3122.7993
2407.936
1844.5125
1403.8124
1061.4507
796.41673
587.61724
416.59258
280.38955
205.80064
169.72825
147.11593
132.86462
122.1825
115.34471
110.78353
106.92451
104.13273
102.09604
100.66794
99.774388
99.312792
25778.295
20385.786
16183.131
12864.167
10219.457
8100.1314
6397.0955
5028.6389
3930.9717
3054.1714
2357.8309
1808.412
1378.1518
1043.4674
783.9866
578.83592
409.02518
275.53361
204.01235
169.10672
146.72122
132.49239
121.91048
115.19152
110.69323
106.87389
104.09098
102.06836
100.64641
99.758396
99.299266
25006.915
19829.91
15776.706
12564.304
9996.8965
7934.3963
6273.551
4936.3946
3862.6144
3003.7955
2321.0182
1781.8631
1359.2506
1030.1945
774.79021
572.31861
402.91886
271.65645
202.66177
168.67531
146.43464
132.18389
121.67859
115.05511
110.61124
106.82881
104.05226
102.04209
100.62556
99.742584
99.285562
24197.602
19284.437
15405.381
12309.607
9820.4904
7810.7765
6185.9432
4873.5452
3816.9786
2970.521
2296.8102
1764.3968
1346.8084
1021.4447
768.70265
567.99684
398.30071
268.68736
201.70126
168.42168
146.25573
131.94088
121.48865
114.93718
110.53881
106.79019
104.01725
102.01762
100.6056
99.727025
99.271728
23537.856
18842.738
15112.082
12117.127
9695.3652
7729.6544
6133.1178
4838.4487
3792.9655
2953.6289
2284.717
1755.7062
1340.6287
1017.092
765.64416
565.80864
395.19717
266.5648
201.10766
168.33698
146.18299
131.76274
121.3389
114.83655
110.47503
106.75741
103.9856
101.99466
100.58641
99.711695
99.257795
22952.232
18481.762
14892.725
11987.688
9622.3791
7691.0284
6114.5649
4830.5323
3790.0522
2952.7553
2284.5031
1755.6369
1340.5968
1017.0796
765.58331
565.70646
393.64599
265.24676
200.86259
168.40678
146.21408
131.65256
121.23056
114.75483
110.42076
106.73095
103.95766
101.97336
100.56806
99.696601
99.243718
22428.868
18186.619
14738.685
11917.707
9600.8333
7694.3241
6127.8383
4846.5156
3805.1387
2966.1005
2295.5104
1764.0708
1346.6903
1021.4061
768.53597
567.65918
393.69024
264.73118
200.92615
168.66754
146.36408
131.61261
121.16293
114.69209
110.37565
106.71034
103.93315
101.95349
100.5504
99.681676
99.229386
21940.262
17940.642
14640.525
11902.664
9625.1118
7733.8964
6170.9859
4888.0172
3842.1712
2996.3508
2318.7984
1781.2769
1358.9805
1030.1106
774.56067
571.75836
395.23731
264.94259
201.28501
169.04885
146.61351
131.62929
121.13388
114.64782
110.33911
106.69498
103.91179
101.93488
100.53334
99.666876
99.214755
21436.69
17714.012
14579.183
11928.283
9688.4962
7808.885
6243.5513
4951.21
3893.9147
3036.8467
2349.2452
1803.406
1374.6403
1041.0398
781.9925
576.72959
397.89898
265.77351
201.87218
169.46337
146.89036
131.68862
121.13491
114.61822
110.30881
106.68339
103.89291
101.91724
100.51677
99.652227
99.19994
103783.08
87874.813
69712.587
54130.92
41794.122
32031.485
24179.046
18010.407
13260.847
9663.08
6965.4041
4971.2097
3516.5737
2468.0509
1720.1181
1190.6607
815.54315
543.52489
351.3284
232.54763
174.57924
148.54052
132.36126
120.87239
113.67343
108.56571
105.20439
102.75979
101.10165
100.04125
99.490898
98404.64
83595.391
67164.383
52921.158
41270.097
31780.204
24101.987
18033.396
13339.711
9756.0678
7051.7899
5042.505
3571.2161
2507.7437
1747.7274
1209.1165
827.54458
551.05505
356.17488
234.94809
175.56056
149.03837
132.68195
121.04264
113.74351
108.6099
105.23348
102.779
101.11484
100.04928
99.493376
93148.927
79592.07
64428.25
51328.546
40407.289
31369.765
23966.509
18040.871
13412.263
9847.4861
7139.2993
5116.0623
3628.2929
2549.5754
1777.0111
1228.7806
840.3434
559.07358
361.36537
237.57119
176.62131
149.54934
133.00404
121.21862
113.82528
108.64187
105.25614
102.79553
101.12752
100.05865
99.497596
88171.343
75877.361
61801.117
49723.908
39508.971
30925.956
23804.595
18034.102
13476.586
9935.9566
7227.0851
5191.4334
3687.6225
2593.5096
1807.9975
1249.7049
853.96952
567.65773
366.89175
240.43268
177.81738
150.1426
133.37972
121.41125
113.89406
108.69994
105.29322
102.81903
101.143
100.06757
99.502941
83386.803
72425.907
59289.853
48117.183
38574.867
30445.106
23613.343
18010.973
13530.572
10019.966
7314.2162
5268.131
3749.0019
2639.5006
1840.7145
1271.9434
868.44808
576.84275
372.71057
243.5567
179.08257
150.71224
133.72126
121.60635
113.99835
108.73451
105.31816
102.83764
101.15741
100.07759
99.507491
78719.978
69178.867
56907.042
46526.107
37612.827
29927.809
23389.775
17961.481
13571.102
10097.595
7399.5056
5345.5109
3812.1409
2687.4577
1875.1686
1295.54
883.84761
586.67042
378.64026
246.86025
180.53375
151.42053
134.16394
121.82953
114.07316
108.78369
105.35117
102.85996
101.17345
100.08822
99.509884
74120.997
66055.412
54598.756
44920.708
36601.278
29358.87
23124.035
17883.022
13594.133
10166.522
7481.7119
5422.959
3876.7874
2737.3225
1911.3948
1320.5705
900.35119
597.32123
385.14296
250.50157
182.08929
152.1344
134.58743
122.0518
114.166
108.83488
105.38535
102.88335
101.19027
100.09944
99.512885
69615.112
62974.876
52367.144
43325.227
35559.264
28749.37
22821.635
17776.974
13596.213
10226.263
7560.5144
5500.253
3942.8483
2789.1049
1949.4674
1347.1294
917.95884
608.73206
392.38877
254.4404
183.79034
152.90425
135.03254
122.28411
114.26191
108.88796
105.42123
102.90735
101.20774
100.11125
99.519666
65312.679
59923.559
50169.827
41721.602
34476.319
28090.017
22474.477
17637.893
13583.177
10274.101
7633.6818
5576.0521
4009.6225
2842.4838
1989.2588
1375.1583
936.69887
620.97247
400.16547
258.69617
185.64938
153.7273
135.49422
122.52219
114.36127
108.94298
105.45782
102.93252
101.22609
100.12356
99.531211
61152.204
56870.123
48007.461
40110.163
33351.623
27378.171
22079.05
17462.11
13546.057
10307.447
7699.4891
5649.2889
4076.5312
2897.2019
2030.6885
1404.6584
956.60274
634.16535
408.53985
263.30115
187.68197
154.62045
135.97597
122.76902
114.46483
108.99939
105.49667
102.95797
101.24499
100.13642
99.542464
57225.396
53726.239
45784.987
38459.579
32176.717
26609.861
21631.541
17244.662
13475.674
10321.078
7755.7885
5718.748
4142.8949
2952.9298
2073.6375
1435.6172
977.69233
648.26874
417.60753
268.29831
189.89978
155.56665
136.46789
123.01932
114.57026
109.05805
105.53539
102.98477
101.26498
100.14977
99.550911
53529.303
50583.306
43505.513
36763.825
30948.105
25782.575
21128.904
16982.161
13373.237
10315.094
7800.7524
5783.1104
4207.9408
3009.2745
2117.9457
1468.0029
999.98679
663.24788
427.0769
273.66902
192.32622
156.59964
136.97264
123.27309
114.68228
109.11667
105.57716
103.01127
101.28526
100.16369
99.55898
50029.471
47398.328
41166.048
35018.613
29665.031
24895.833
20569.63
16672.465
13237.126
10291.385
7833.0003
5841.0362
4270.8132
3065.7753
2163.4094
1501.7598
1023.5
679.15071
436.93353
279.46284
194.95109
157.67297
137.4801
123.53307
114.79129
109.17826
105.61747
103.03928
101.30696
100.17813
99.568586
46676.282
44159.499
38724.535
33198.888
28319.699
23948.323
19953.228
16314.252
13064.08
10238.703
7849.2598
5891.0017
4330.5888
3121.9124
2209.7793
1536.806
1048.2346
696.00556
447.44617
285.7097
197.81736
158.84186
137.98061
123.78165
114.90953
109.23759
105.66166
103.06623
101.32844
100.19297
99.579659
43390.813
40869.633
36166.053
31290.193
26907.171
22941.163
19281.603
15908.032
12852.898
10157.96
7846.7504
5931.4375
4386.2897
3177.1205
2256.775
1573.0343
1074.1781
713.82654
458.64259
292.44696
200.89635
160.03216
138.49111
124.05181
115.01832
109.30109
105.70341
103.09479
101.35197
100.20835
99.591016
40149.074
37630.57
33581.041
29346.006
25457.92
21891.099
18563.84
15458.15
12605.227
10051.108
7831.7106
5961.9968
4437.0699
3230.8112
2304.0819
1610.3141
1101.3039
732.61455
470.66135
299.55684
204.24973
161.2895
138.94877
124.28143
115.13244
109.36073
105.74865
103.1215
101.37431
100.22365
99.602427
36927.492
34493.734
31032.403
27408.15
23998.553
20817.65
17813.151
14972.378
12324.809
9918.4378
7796.3951
5981.526
4482.1679
3282.4048
2351.3496
1648.4961
1129.5897
752.38607
483.59029
307.54157
207.80652
162.5539
139.45714
124.55387
115.24116
109.42492
105.79307
103.14991
101.39962
100.23952
99.613769
33809.031
31559.329
28623.527
25538.025
22566.733
19746.198
17047.07
14461.872
12017.71
9762.0904
7741.7802
5988.3176
4520.8387
3331.3616
2398.2301
1687.4156
1159.0179
773.23839
497.57525
316.03346
211.66443
163.86268
139.85615
124.76214
115.33102
109.48736
105.83637
103.17571
101.42203
100.25454
99.624989
30926.887
28919.001
26438.373
23802.806
21211.491
18710.82
16288.421
13941.247
11692.454
9586.4233
7671.1452
5984.5552
4552.7732
3377.2144
2444.3711
1726.8713
1189.4818
795.21294
512.53565
324.43546
215.53111
165.02057
140.29645
124.99187
115.44766
109.55162
105.88619
103.20376
101.44858
100.27058
99.636075
28387.956
26644.848
24529.715
22254.764
19974.378
17742.695
15560.558
13426.776
11359.384
9397.4625
7587.8026
5972.2883
4578.2531
3419.6502
2489.4294
1766.6203
1220.8224
818.12878
528.28652
333.50542
219.89764
166.46644
140.73543
125.20857
115.50541
109.62202
105.92326
103.22817
101.46976
100.28482
99.646942
26222.82
24737.999
22921.258
20927.167
18888.407
16870.058
14885.502
12934.687
11029.502
9201.805
7494.355
5948.715
4597.0892
3458.4267
2533.0819
1806.3966
1252.8837
841.92074
544.80003
343.27594
224.09781
167.41107
140.92956
125.3245
115.6263
109.68915
105.97895
103.25704
101.4964
100.30061
99.657436
24432.26
23175.553
21603.504
19829.187
17973.384
16115.212
14282.871
12480.067
10713.432
9006.2068
7394.6529
5917.7891
4609.7294
3493.3405
2575.0241
1845.9521
1285.4936
866.47905
561.94059
353.41129
228.59457
168.58565
141.4047
125.5607
115.69446
109.76899
106.00894
103.28035
101.51518
100.31355
99.6674
22939.627
21890.67
20533.639
18946.307
17234.876
15492.084
13767.59
12075.718
10420.66
8816.9447
7292.4105
5881.2755
4616.9532
3524.3634
2614.957
1884.9986
1318.4625
891.68904
579.60173
363.51396
233.60681
170.38474
141.58145
125.65347
115.81821
109.8505
106.06378
103.31208
101.53995
100.32836
99.676672
21645.525
20786.798
19630.833
18221.52
16643.804
14994.407
13345.35
11730.282
10158.608
8639.0719
7190.399
5839.8665
4617.439
3551.0351
2652.4976
1923.2089
1351.5858
917.45642
597.82311
373.95755
237.889
171.18138
141.65682
125.77298
115.94431
109.93229
106.09354
103.33657
101.55641
100.3398
99.684982
20465.943
19776.174
18806.536
17573.639
16135.961
14582.207
12998.222
11439.26
9928.3091
8474.6798
7090.1818
5794.7894
4614.27
3573.2439
2687.1794
1960.2071
1384.636
943.70601
616.60682
385.27662
242.33708
171.95566
142.08418
126.07907
116.06954
110.04773
106.14227
103.3709
101.57648
100.35234
99.692102
19318.446
18779.285
17980.934
16920.839
15633.836
14192.745
12684.989
11181.034
9720.6024
8320.5643
6990.9004
5745.7775
4605.6532
3590.7026
2718.6018
1995.583
1417.3223
970.32172
636.06689
397.31318
247.39377
173.53628
142.372
126.19599
116.30466
110.14903
106.18459
103.40283
101.59278
100.36234
99.697666
18119.063
17715.432
17077.913
16188.884
15065.241
13760.91
12353.499
10919.804
9514.5048
8165.9002
6887.1611
5689.542
4588.5245
3601.8584
2745.8114
2028.7982
1449.3761
997.1608
656.08252
409.93422
252.75983
174.8905
142.53656
126.51212
116.50746
110.28301
106.22535
103.43698
101.60522
100.37105
99.701465
16843.179
16540.235
16042.211
15320.184
14369.653
13223.386
11945.703
10610.76
9280.3474
7993.299
6769.3906
5620.7212
4560.1036
3602.4097
2767.0542
2059.0103
1480.4056
1024.1222
676.76819
423.48457
258.96243
176.86359
143.04285
127.10396
116.78556
110.44972
106.29417
103.47682
101.62402
100.37937
99.703012
15515.995
15279.457
14883.139
14298.427
13513.136
12539.859
11420.235
10216.234
8989.1357
7783.5952
6626.5167
5533.9291
4519.1998
3596.9912
2782.8022
2085.8497
1510.0544
1051.088
698.20752
438.16031
265.9191
179.50156
144.2488
127.43225
117.17765
110.62045
106.36503
103.51715
101.63091
100.38363
99.702161
14156.352
13963.766
13645.144
13173.154
12531.912
11723.717
10773.22
9723.5265
8625.4831
7523.6399
6449.4493
5423.5705
4461.9328
3580.2236
2790.1292
2108.1371
1537.8143
1077.8747
720.45211
454.20897
274.20344
182.59622
145.53032
128.20393
117.57465
110.78936
106.42854
103.55057
101.64605
100.38884
99.698394
12821.328
12656.095
12394.778
12013.642
11496.214
10837.518
10048.635
9156.9719
8200.0111
7216.3011
6237.7431
5288.0851
4385.9138
3547.8671
2788.7714
2125.372
1563.2298
1104.1957
743.39634
471.70481
284.39798
186.59828
147.16359
129.18715
117.96015
111.10655
106.5508
103.61536
101.65623
100.39018
99.691504
11585.46
11438.066
11218.483
10907.371
10489.583
9956.4697
9310.0468
8564.3069
7744.1736
6880.1901
6001.5265
5132.8551
4294.6688
3505.2646
2781.8903
2138.0107
1586.0402
1129.6499
766.6524
490.25029
296.058
191.46171
149.1116
130.14469
118.55274
111.33441
106.64107
103.64474
101.66153
100.38906
99.680903
10518.119
10382.622
10191.906
9931.0867
9587.2458
9150.7809
8618.0547
7994.4159
7294.9578
6541.2187
5757.764
4968.2705
4193.9257
3453.9028
2766.0307
2145.5933
1605.9678
1153.8145
789.7022
509.21586
308.42887
196.33106
150.94745
131.08158
119.07171
111.57799
106.71306
103.7101
101.67901
100.38582
99.666072
9662.1699
9534.7694
9363.1481
9136.2749
8843.2578
8474.587
8024.9674
7494.9113
6891.9184
6230.3462
5529.3553
4810.2027
4093.8418
3399.8171
2746.2677
2149.5002
1623.3291
1176.528
812.15126
528.07933
321.00129
201.03754
152.30177
131.74547
119.54567
111.9351
106.9152
103.77853
101.6846
100.3793
99.646542
9026.0658
8906.4322
8748.81
8545.1757
8286.4139
7964.1146
7571.9658
7107.4572
6573.6486
5979.8937
5341.7189
4677.9329
4008.4448
3352.6793
2728.6832
2153.0496
1639.5029
1198.1602
833.93805
546.60059
333.56497
205.25621
153.05828
131.98638
119.975
112.15634
107.0062
103.80658
101.69803
100.37016
99.621666
8555.6925
8449.3387
8308.7672
8127.1523
7896.1607
7607.9088
7255.9056
6836.4537
6350.3224
5804.0396
5210.0037
4585.3338
3949.4963
3321.9356
2720.6901
2160.1943
1656.4856
1219.6703
855.43423
564.87561
346.11689
209.4545
153.366
131.98697
120.22273
112.33983
107.13469
103.88195
101.7157
100.35208
99.591049
8140.4274
8053.1658
7936.03
7782.4856
7584.1306
7332.2781
7019.3736
6640.5773
6195.0093
5686.9686
5126.8839
4530.7879
3918.1044
3308.8512
2721.6825
2172.5114
1675.9992
1242.1626
877.30345
583.42908
359.17592
214.17823
153.52943
131.84772
120.28531
112.63461
107.34221
103.92835
101.71974
100.33912
99.55425
7703.2345
7636.6785
7544.6144
7420.743
7257.3711
7046.0108
6778.0593
6446.1875
6046.5543
5580.798
5057.1227
4489.8944
3898.377
3304.1787
2729.2533
2189.8314
1698.1631
1265.929
900.03033
602.79877
373.34924
220.0884
153.8134
131.41614
120.27261
112.83324
107.47262
103.98927
101.72085
100.31208
99.51022
7216.1147
7168.226
7099.3394
7003.1335
6872.2886
6698.7152
6474.068
6190.6812
5842.9488
5429.0863
4953.1258
4426.2195
3865.6317
3292.3897
2731.0651
2204.202
1719.6035
1289.8892
923.14587
622.85728
388.63471
227.26406
154.47237
131.14024
120.21883
112.88469
107.59281
104.05502
101.71124
100.274
99.459167
6694.9321
6658.0863
6604.5437
6528.5233
6423.5301
6282.1038
6096.2039
5857.9725
5560.9871
5201.8773
4781.8943
4308.2466
3794.6233
3259.4385
2721.4157
2206.0499
1734.2991
1310.5931
945.17101
643.03978
404.79312
235.8401
155.91545
131.10789
120.16392
112.87993
107.6504
104.05295
101.68423