/*--------------------------------*- C++ -*----------------------------------*\
| =========                 |                                                 |
| \\      /  F ield         | OpenFOAM: The Open Source CFD Toolbox           |
|  \\    /   O peration     | Version:  2406                                  |
|   \\  /    A nd           | Website:  www.openfoam.com                      |
|    \\/     M anipulation  |                                                 |
\*---------------------------------------------------------------------------*/
FoamFile
{
    version     2.0;
    format      ascii;
    arch        "LSB;label=32;scalar=64";
    class       volScalarField;
    location    "0.091";
    object      p;
}
// * * * * * * * * * * * * * * * * * * * * * * * * * * * * * * * * * * * * * //

dimensions      [1 -1 -2 0 0 0 0];

internalField   nonuniform List<scalar> 
8260
(
101073.65
100995.52
100950.6
100896
100846.22
100810.36
100790.72
100786.99
100797.89
100821.54
100858.28
100905.91
100961.47
101022.09
101083.03
101146.65
101185.71
101216.59
101241.72
101263.14
101282.1
101298.31
101312.67
101325.07
101335.84
101345.11
101352.78
101359.02
101364.14
101367.33
101369.78
101229.73
101161.04
101094.19
101022.71
100960.4
100912.79
100881.2
100866.16
100865.79
100879.07
100906.25
100945.62
100993.76
101048.65
101101.8
101159.4
101193.91
101224.69
101248.13
101268.18
101286.11
101301.49
101315.21
101327.1
101337.48
101346.44
101353.87
101359.94
101364.92
101368.02
101370.42
101335.06
101272.25
101198.91
101120.83
101052.18
100997.27
100957.32
100933.8
100925.29
100929.15
100948.54
100981.02
101023.32
101074.24
101121.9
101174.96
101204.49
101234.49
101255.66
101274.05
101290.76
101305.18
101318.15
101329.45
101339.37
101347.98
101355.13
101360.98
101365.82
101368.81
101371.15
101421.64
101362.67
101289.77
101210
101137.7
101077.45
101030.7
100999.08
100982.43
100979.12
100991.33
101017.24
101054.12
101101.23
101144.13
101192.1
101217.47
101245.56
101264.23
101280.74
101296.08
101309.4
101321.52
101332.13
101341.53
101349.73
101356.56
101362.18
101366.84
101369.71
101371.98
101496.43
101441.48
101372.03
101293.89
101220.73
101157.48
101105.87
101067.66
101043.7
101033.73
101038.9
101058.12
101089.38
101131.9
101169.64
101210.83
101233.19
101257.99
101273.96
101288.36
101302.13
101314.21
101325.35
101335.18
101343.99
101351.73
101358.2
101363.54
101367.99
101370.73
101372.92
101558.25
101507.15
101443.05
101369.59
101298.69
101235.25
101181.26
101138.66
101108.99
101092.97
101091.53
101104.21
101129.82
101166.92
101198.8
101231.45
101251.85
101271.9
101284.98
101297.02
101309
101319.7
101329.72
101338.66
101346.79
101354
101360.06
101365.08
101369.31
101371.9
101373.99
101606.88
101559.74
101501.72
101435.41
101369.63
101308.76
101254.97
101210.36
101176.91
101156.01
101148.81
101155.43
101175.67
101206.52
101231.57
101254.7
101273.16
101287.52
101297.42
101306.85
101316.82
101325.93
101334.69
101342.62
101349.98
101356.58
101362.17
101366.85
101370.8
101373.22
101375.21
101643.78
101601.28
101550.59
101492.55
101433.62
101377.46
101326.16
101281.84
101246.64
101222.39
101210.55
101211.92
101227.33
101250.61
101267.64
101282.08
101296.58
101305.01
101311.4
101318
101325.67
101333
101340.36
101347.14
101353.6
101359.52
101364.58
101368.86
101372.49
101374.73
101376.59
101673.4
101634.61
101591.31
101542.24
101491.41
101441.65
101394.78
101352.78
101317.79
101291.82
101276.64
101273.82
101284.87
101298.66
101307.1
101314.51
101321.68
101324.5
101327.05
101330.58
101335.68
101341.01
101346.79
101352.27
101357.74
101362.86
101367.31
101371.15
101374.42
101376.46
101378.17
101697.71
101665.1
101627.72
101587.12
101545.13
101502.85
101461.74
101423.59
101390.4
101364.22
101347.07
101341.04
101347.35
101351.2
101350.69
101350.39
101348.42
101346
101344.43
101344.7
101346.92
101350.07
101354.06
101358.1
101362.48
101366.68
101370.42
101373.75
101376.62
101378.43
101379.96
101717.49
101697.84
101669.84
101637.02
101601.42
101565.18
101529.5
101495.64
101465.21
101440.07
101422.4
101414.08
101414.33
101408.19
101397.51
101386.99
101377.2
101369.39
101363.58
101360.4
101359.49
101360.27
101362.22
101364.72
101367.86
101371.02
101373.95
101376.71
101379.12
101380.67
101382
101744.93
101731.74
101712.78
101686.99
101658.34
101628.87
101599.33
101570.56
101543.8
101520.93
101504.16
101493.42
101483.23
101465.69
101443.8
101423.86
101407.49
101394.32
101384.46
101377.64
101373.53
101371.66
101371.37
101372.19
101373.94
101375.96
101377.98
101380.06
101381.97
101383.23
101384.33
101788.4
101788.13
101776.66
101754.19
101728.95
101703.72
101678.8
101654.22
101630.49
101608.71
101589.32
101570.11
101545.86
101516.31
101486.71
101460.43
101438.45
101420.72
101406.86
101396.45
101389.01
101384.3
101381.64
101380.55
101380.72
101381.55
101382.57
101383.86
101385.21
101386.13
101386.98
101863.82
101849.82
101831.73
101810.04
101788.38
101769.06
101750.92
101731.4
101709.31
101684.74
101657.35
101626.67
101593.13
101558.43
101525.14
101495.33
101469.61
101447.91
101430.35
101416.56
101405.93
101398.27
101393.02
101389.84
101388.3
101387.83
101387.78
101388.16
101388.86
101389.4
101389.98
101894.13
101894.38
101891.52
101885.52
101871.56
101848.14
101821.71
101794.55
101765.03
101733.05
101699.41
101664.21
101628.44
101592.9
101558.81
101527.42
101499.43
101474.99
101454.26
101437.5
101424
101413.4
101405.56
101400.15
101396.75
101394.82
101393.64
101393.03
101392.96
101393.05
101393.36
101895.71
101887.08
101874.89
101859.97
101847.16
101837.24
101826.81
101814.74
101795.14
101765.89
101731.15
101694.19
101657.88
101622.55
101588.33
101555.96
101526.68
101500.71
101477.78
101458.45
101442.55
101429.53
101419.2
101411.5
101406.12
101402.55
101400.17
101398.48
101397.55
101397.11
101397.14
101887.52
101879.91
101870.45
101859.46
101847.7
101834.68
101818.33
101798.23
101779.45
101764.39
101744.73
101717.1
101683.83
101648.83
101615.08
101582.5
101551.76
101524.6
101500.28
101478.9
101460.97
101446.03
101433.66
101423.79
101416.41
101411.05
101407.3
101404.53
101402.65
101401.6
101401.36
101859.32
101853.35
101846.18
101837.96
101828.55
101817.65
101805.04
101790.6
101774.53
101756.14
101737.82
101721.56
101699.7
101669.07
101636.87
101606.84
101576.78
101547.85
101522.01
101498.91
101478.95
101462.33
101448.46
101436.79
101427.51
101420.26
101415.02
101411.15
101408.31
101406.58
101406.04
101833.44
101828.62
101822.8
101816.16
101808.57
101799.84
101789.8
101778.33
101765.34
101750.81
101733.98
101713.78
101694.23
101675.41
101649.53
101623.05
101597.7
101570.22
101543.41
101519
101497.02
101478.32
101463.08
101449.99
101439.08
101430.15
101423.33
101418.32
101414.56
101412.12
101411.23
101803.41
101799.62
101795.05
101789.86
101783.92
101777.1
101769.25
101760.23
101749.88
101737.99
101724.55
101709.82
101692.89
101676.76
101657.89
101632.12
101608.91
101586.1
101562.07
101538.16
101515.62
101494.68
101477.32
101463.07
101450.91
101440.63
101432.33
101426.09
101421.42
101418.27
101416.99
101776.57
101773.58
101769.96
101765.86
101761.17
101755.78
101749.58
101742.46
101734.27
101724.89
101714.13
101701.77
101688.07
101672.44
101658.45
101642.25
101618.19
101595.55
101574.07
101552.67
101531.99
101511.47
101491.93
101476.07
101462.95
101451.6
101442.05
101434.56
101428.92
101425.07
101423.34
101748.07
101745.75
101742.95
101739.78
101736.16
101731.98
101727.17
101721.63
101715.26
101707.96
101699.67
101690.31
101679.72
101667.82
101654.32
101641.93
101627.81
101605.87
101583.11
101562.42
101543.11
101525.38
101506.97
101489.44
101475.19
101462.91
101452.36
101443.71
101437.06
101432.52
101430.33
101722.44
101720.65
101718.5
101716.06
101713.28
101710.06
101706.34
101702.04
101697.07
101691.33
101684.71
101677.12
101668.49
101658.77
101648.06
101635.22
101622.84
101611.71
101594.29
101573.02
101552.34
101535.36
101519.56
101502.82
101487.42
101474.23
101462.86
101453.33
101445.79
101440.59
101437.95
101696.34
101695
101693.4
101691.58
101689.51
101687.09
101684.27
101681.01
101677.23
101672.87
101667.87
101662.17
101655.65
101648.13
101639.42
101629.6
101617.69
101605.35
101596.36
101583.82
101563.99
101544.36
101528.78
101513.97
101498.84
101485.1
101473.22
101463.19
101455
101449.2
101446.17
101672.78
101671.77
101670.55
101669.17
101667.6
101665.81
101663.75
101661.37
101658.63
101655.45
101651.73
101647.37
101642.29
101636.46
101629.81
101622.44
101614.41
101604.61
101591.93
101581.19
101571.28
101554.68
101537.03
101522.54
101508.8
101495.43
101483.45
101473.1
101464.56
101458.3
101454.95
101651.29
101650.57
101649.7
101648.73
101647.61
101646.32
101644.82
101643.06
101641.01
101638.62
101635.84
101632.58
101628.79
101624.37
101619.24
101613.22
101606.17
101598.73
101591.02
101580.17
101570.44
101562.07
101546.73
101530.89
101517.77
101505.31
101493.57
101483.07
101474.38
101467.8
101464.17
101632.72
101632.19
101631.55
101630.83
101630
101629.04
101627.92
101626.62
101625.11
101623.34
101621.27
101618.83
101615.97
101612.62
101608.69
101604.18
101599.04
101592.89
101585.94
101579.13
101570.66
101561.96
101552.46
101539.18
101526.86
101514.63
101503.32
101492.99
101484.23
101477.53
101473.71
101616.46
101616.09
101615.64
101615.14
101614.57
101613.91
101613.14
101612.24
101611.19
101609.97
101608.54
101606.85
101604.87
101602.51
101599.73
101596.39
101592.43
101587.8
101582.34
101576.48
101569.99
101561.06
101551.67
101543.05
101533.31
101522.67
101512.14
101502.41
101493.82
101487.18
101483.29
101604.77
101604.47
101604.12
101603.73
101603.27
101602.74
101602.12
101601.41
101600.57
101599.59
101598.44
101597.09
101595.51
101593.63
101591.41
101588.75
101585.59
101581.9
101577.63
101572.38
101566.02
101559.2
101553.85
101547.59
101538.07
101529.2
101519.89
101510.8
101502.7
101496.31
101492.52
101594.13
101593.87
101593.55
101593.2
101592.79
101592.32
101591.76
101591.12
101590.37
101589.49
101588.47
101587.28
101585.89
101584.28
101582.44
101580.35
101577.95
101575.17
101571.91
101568.15
101563.92
101559.29
101554.1
101548.17
101541.55
101534.05
101525.87
101517.75
101510.33
101504.42
101500.85
101581.96
101581.84
101581.69
101581.52
101581.32
101581.09
101580.82
101580.5
101580.12
101579.67
101579.14
101578.49
101577.72
101576.78
101575.63
101574.26
101572.61
101570.65
101568.31
101565.54
101562.31
101558.57
101554.03
101548.59
101542.57
101536.01
101528.98
101521.8
101515.05
101509.47
101505.97
100490.74
100476.95
100467.7
100458.03
100446.75
100438.84
100440.48
100453.6
100475.17
100509.33
100555.04
100610.7
100674.73
100744.58
100817.61
100897.26
100966.59
101039.33
101084.57
101131.01
101172.69
101207.69
101237.65
101263
101284.26
101301.93
101316.27
101327.62
101336.47
101342.23
101346.13
100502.93
100487.4
100466.93
100449.54
100436.08
100430.14
100436.21
100454.81
100483.78
100523.59
100573.14
100631.12
100696.07
100765.21
100836.67
100913.07
100981.18
101047.44
101087.72
101136.81
101177.6
101211.78
101241
101265.73
101286.49
101303.76
101317.79
101328.91
101337.59
101343.24
101347.08
100466.05
100440.94
100416.58
100401.52
100395.98
100400.17
100415.87
100443.64
100480.12
100526.11
100580.55
100642.03
100709.13
100778.94
100850.73
100924.91
100994.26
101054.93
101093.46
101143.21
101182.73
101215.98
101244.41
101268.51
101288.76
101305.62
101319.33
101330.2
101338.71
101344.25
101348.06
100405.68
100383.54
100365.89
100358.5
100360.9
100373.39
100397.17
100431.88
100475
100526.67
100585.56
100650.27
100719.44
100790.18
100863.36
100935.67
101005.75
101062.29
101100.57
101149.6
101187.8
101220.16
101247.82
101271.29
101291.03
101307.48
101320.87
101331.51
101339.85
101345.27
101349
100326.57
100312.19
100304.08
100307.25
100320.74
100344.2
100377.79
100420.58
100470.87
100528.22
100591.36
100659.03
100730.01
100801.6
100876.28
100947.51
101016.41
101069.24
101108.01
101155.91
101192.86
101224.32
101251.22
101274.07
101293.31
101309.36
101322.43
101332.83
101340.99
101346.3
101349.93
100232.55
100230.28
100235.99
100253.25
100280.12
100315.65
100359.5
100410.74
100468.12
100530.95
100598.07
100668.47
100741.01
100813.3
100889.32
100960.12
101025.9
101075.39
101115.57
101162.11
101197.87
101228.46
101254.61
101276.85
101295.59
101311.24
101323.99
101334.15
101342.14
101347.33
101350.89
100124.23
100140.54
100164.66
100198.63
100240.2
100288.34
100342.66
100402.43
100466.65
100534.62
100605.43
100678.3
100752.15
100824.95
100901.9
100972.42
101035.37
101081.34
101123.23
101168.2
101202.85
101232.56
101257.99
101279.63
101297.87
101313.12
101325.57
101335.49
101343.31
101348.37
101351.85
100013.7
100051.61
100095.47
100146.58
100202.93
100263.48
100328.03
100395.99
100466.59
100539.27
100613.4
100688.45
100763.34
100836.71
100914.05
100983.83
101045.32
101087.67
101130.93
101174.19
101207.78
101236.64
101261.34
101282.39
101300.15
101315.01
101327.14
101336.83
101344.47
101349.42
101352.83
99909.908
99968.878
100031.39
100099.17
100169.8
100242.1
100316.24
100391.75
100468.12
100544.98
100622.02
100698.92
100774.67
100849.54
100926.18
100994.16
101054.89
101094.7
101138.57
101180.09
101212.67
101240.68
101264.68
101285.14
101302.42
101316.89
101328.72
101338.17
101345.65
101350.47
101353.81
99817.136
99896.345
99975.243
100058.74
100142.53
100225.16
100307.83
100389.99
100471.36
100551.81
100631.3
100709.73
100786.29
100862.82
100938.13
101004.47
101063.66
101102.28
101146.11
101185.9
101217.52
101244.68
101267.99
101287.87
101304.68
101318.77
101330.3
101339.52
101346.83
101351.53
101354.8
99738.951
99835.293
99931.191
100027.93
100122.43
100213.42
100303.35
100390.98
100476.42
100559.77
100641.25
100721.01
100798.73
100876.3
100949.27
101014.68
101071.79
101110.18
101153.5
101191.63
101222.31
101248.65
101271.28
101290.59
101306.94
101320.65
101331.88
101340.87
101348.01
101352.59
101355.79
99683.181
99793.254
99901.198
100006.88
100109.09
100207.88
100303.48
100395.05
100483.48
100569
100652.05
100733.08
100812.06
100887.8
100959.12
101024.87
101079.63
101118.25
101160.75
101197.28
101227.04
101252.57
101274.54
101293.28
101309.18
101322.52
101333.46
101342.22
101349.19
101353.66
101356.79
99654.316
99772.402
99886.817
99997.913
100105.2
100208.41
100307.87
100402.87
100493.17
100580.12
100664.24
100746.1
100823.45
100897.14
100969.44
101034.39
101087.45
101126.39
101167.84
101202.86
101231.72
101256.45
101277.76
101295.96
101311.4
101324.38
101335.03
101343.57
101350.38
101354.73
101357.79
99652.654
99773.706
99889.4
100001.85
100110.97
100216.13
100317.73
100414.93
100506.7
100594.09
100677.8
100757.2
100833.38
100907.33
100979.34
101043.28
101095.51
101134.57
101174.79
101208.37
101236.34
101260.28
101280.95
101298.61
101313.6
101326.23
101336.6
101344.92
101351.57
101355.8
101358.79
99665.46
99790.746
99907.049
100018.82
100127.35
100232.45
100334.3
100430.6
100521.7
100607.21
100687.44
100766.29
100844.69
100917.71
100988.82
101052.69
101103.86
101142.76
101181.58
101213.8
101240.89
101264.06
101284.1
101301.22
101315.78
101328.07
101338.16
101346.27
101352.75
101356.87
101359.8
99686.791
99813.597
99931.098
100042.97
100150.27
100253.26
100352.63
100444.22
100530.48
100615.58
100699.13
100778.87
100856.47
100928.02
100998.25
101062.41
101112.35
101150.93
101188.19
101219.15
101245.38
101267.79
101287.2
101303.81
101317.95
101329.89
101339.71
101347.61
101353.94
101357.94
101360.81
99756.497
99864.212
99967.516
100070.66
100172.55
100270.81
100363.38
100454.82
100545.99
100631.17
100713.36
100792.23
100868.4
100938.27
101007.61
101071.96
101120.87
101159.02
101194.64
101224.41
101249.79
101271.46
101290.26
101306.36
101320.08
101331.69
101341.24
101348.94
101355.12
101359.01
101361.82
99894.037
99977.793
100056.07
100137.86
100223.42
100309.89
100394.63
100481.03
100567.58
100649.36
100728.72
100805.85
100880.45
100948.55
101016.88
101081.39
101129.36
101166.97
101200.95
101229.58
101254.12
101275.07
101293.28
101308.87
101322.19
101333.48
101342.77
101350.26
101356.29
101360.08
101362.83
100026.42
100095.95
100156.5
100220.23
100289.22
100361.58
100435.25
100512.89
100592.5
100669.22
100744.95
100819.8
100892.62
100958.9
101026.06
101090.78
101137.77
101174.78
101207.12
101234.67
101258.39
101278.62
101296.24
101311.34
101324.27
101335.24
101344.28
101351.58
101357.46
101361.15
101363.84
100177.11
100227.12
100267.05
100311.47
100362.91
100419.57
100480.8
100548.69
100619.91
100690.77
100762.06
100834.05
100904.81
100969.34
101035.16
101100.15
101146.06
101182.41
101213.18
101239.65
101262.56
101282.09
101299.14
101313.76
101326.31
101336.98
101345.77
101352.88
101358.62
101362.22
101364.86
100347.11
100374.12
100390.52
100412.98
100444.4
100483.23
100531.99
100588.39
100649.62
100714.01
100780.06
100848.51
100916.91
100979.84
101044.17
101109.27
101154.12
101189.75
101219.05
101244.48
101266.6
101285.46
101301.96
101316.12
101328.3
101338.68
101347.23
101354.16
101359.78
101363.29
101365.87
100536.75
100536.75
100527.6
100525.75
100534.51
100556.12
100590.65
100632.32
100683.07
100740
100799.86
100863.87
100929.37
100990.64
101053.15
101117.72
101161.68
101196.5
101224.64
101249.1
101270.47
101288.69
101304.68
101318.41
101330.25
101340.34
101348.68
101355.44
101360.92
101364.35
101366.9
100753.2
100725.99
100692.4
100663.88
100648.84
100649.33
100663.24
100688.91
100725.89
100772.81
100824.7
100882.71
100944.04
101002.89
101062.66
101125.43
101168.38
101202.4
101229.93
101253.57
101274.24
101291.86
101307.34
101320.66
101332.16
101342
101350.12
101356.71
101362.07
101365.42
101367.93
100979.43
100939.92
100897.41
100847.84
100804.54
100775.78
100763.4
100767.37
100786.19
100817.03
100857.75
100907.41
100962.73
101018.14
101074.05
101133.87
101174.86
101208.28
101235.44
101258.22
101278.14
101295.11
101310.08
101322.96
101334.11
101343.66
101351.56
101357.98
101363.22
101366.49
101368.97
100529.81
100524.58
100514.65
100504.02
100494.07
100487.19
100486.56
100495.04
100511.59
100540.26
100580.33
100630.57
100689.45
100754.65
100822.74
100896.82
100961.21
101028.62
101078.85
101125.11
101168.27
101204.12
101234.76
101260.64
101282.33
101300.35
101314.97
101326.53
101335.53
101341.4
101345.41
100538.51
100536.98
100527.95
100516.96
100507.07
100500.89
100500.37
100505.32
100519.88
100546.23
100583.87
100631.87
100688.82
100752.67
100820.08
100893.43
100959.81
101025.06
101077.56
101122.66
101165.94
101202.01
101232.94
101259.08
101281.01
101299.24
101314.03
101325.72
101334.82
101340.76
101344.79
100535.01
100532.98
100526.41
100519.81
100513.54
100509.45
100509.95
100515.25
100529.53
100554.46
100590.15
100636.05
100690.97
100753.13
100819.47
100891.42
100958.52
101023.4
101076.06
101120.56
101163.99
101200.2
101231.31
101257.65
101279.76
101298.15
101313.09
101324.9
101334.08
101340.09
101343.89
100531.9
100530.48
100526.81
100523.24
100520.05
100518.4
100520.34
100526.95
100541.3
100565.04
100598.86
100642.57
100695.26
100755.37
100820.18
100890.04
100957.01
101021.4
101073.99
101118.11
101161.82
101198.22
101229.56
101256.1
101278.41
101296.98
101312.07
101324.01
101333.29
101339.37
101342.85
100530.52
100530.98
100529.78
100528.17
100526.94
100527.23
100530.64
100538.48
100553.03
100575.9
100608.14
100649.83
100700.33
100758.33
100821.42
100888.85
100955.4
101019.21
101071.61
101115.42
101159.4
101196.03
101227.62
101254.4
101276.92
101295.7
101310.96
101323.05
101332.43
101338.6
101341.94
100529.15
100531.19
100531.85
100532.13
100532.78
100534.89
100539.86
100548.93
100563.9
100586.31
100617.32
100657.25
100705.73
100761.65
100822.95
100887.82
100953.67
101017.21
101069.18
101112.64
101156.86
101193.71
101225.55
101252.58
101275.33
101294.32
101309.78
101322.02
101331.51
101337.77
101341.26
100526.86
100530.13
100532.35
100534.51
100537.15
100541.22
100547.9
100558.34
100574
100596.3
100626.42
100664.86
100711.47
100765.37
100824.83
100887.17
100952.36
101015.47
101067.13
101109.8
101154.29
101191.32
101223.41
101250.67
101273.66
101292.86
101308.52
101320.92
101330.53
101336.89
101340.6
100523.79
100527.89
100531.68
100535.67
100540.35
100546.47
100555.01
100566.96
100583.55
100606.04
100635.57
100672.76
100717.66
100769.61
100827.19
100887.37
100951.68
101013.58
101065.53
101107.05
101151.7
101188.88
101221.2
101248.69
101271.91
101291.33
101307.19
101319.76
101329.49
101335.95
101339.54
100520.4
100525.57
100530.55
100536.15
100542.79
100550.98
100561.45
100575.03
100592.73
100615.65
100644.85
100681.03
100724.37
100774.44
100830.12
100888.56
100951.03
101011.36
101063.99
101104.48
101149.11
101186.41
101218.93
101246.64
101270.08
101289.73
101305.78
101318.53
101328.39
101334.96
101338.25
100516.18
100522.66
100529.01
100536.27
100544.88
100555.12
100567.54
100582.81
100601.75
100625.29
100654.38
100689.73
100731.66
100779.93
100833.68
100890.46
100950.59
101009.51
101062.34
101102.05
101146.54
101183.9
101216.61
101244.52
101268.17
101288.04
101304.3
101317.22
101327.22
101333.9
101337.05
100512.26
100519.32
100526.32
100535.9
100546.82
100559.22
100573.64
100590.66
100610.92
100635.19
100664.31
100698.98
100739.61
100786.14
100837.94
100893
100951.09
101008.38
101060.64
101099.84
101143.99
101181.38
101214.24
101242.33
101266.17
101286.26
101302.74
101315.84
101325.98
101332.77
101335.98
100508.06
100516.63
100525.98
100537.07
100549.7
100564.04
100580.38
100599.08
100620.64
100645.66
100674.87
100708.94
100748.34
100793.15
100842.97
100896.18
100952.33
101007.89
101059.16
101097.98
101141.52
101178.86
101211.83
101240.07
101264.1
101284.41
101301.1
101314.38
101324.66
101331.57
101334.92
100505.52
100515.79
100527.51
100540.04
100554.26
100570.4
100588.49
100608.72
100631.43
100657.1
100686.36
100719.82
100758
100801.08
100848.85
100900.07
100954.16
101007.43
101057.75
101096.68
101139.14
101176.37
101209.39
101237.76
101261.96
101282.46
101299.37
101312.85
101323.27
101330.3
101333.78
100506.59
100517.7
100530.8
100545.16
100561.26
100579.16
100598.81
100620.29
100643.89
100670
100699.13
100731.88
100768.75
100810.04
100855.68
100904.78
100956.64
101007.57
101056.47
101095.73
101136.9
101173.94
101206.96
101235.4
101259.74
101280.44
101297.56
101311.22
101321.8
101328.96
101332.54
100513.58
100525.29
100539.31
100555
100572.55
100591.75
100612.45
100634.72
100658.76
100684.91
100713.61
100745.41
100780.8
100820.17
100863.57
100910.38
100959.84
101008.57
101055.71
101095.07
101134.81
101171.62
101204.55
101233.02
101257.47
101278.35
101295.67
101309.52
101320.25
101327.53
101331.2
100530.6
100541.65
100554.95
100571.64
100590.04
100609.71
100630.67
100652.98
100676.81
100702.43
100730.24
100760.72
100794.39
100831.64
100872.61
100916.94
100963.8
101010.31
101055.52
101094.82
101132.93
101169.43
101202.19
101230.63
101255.15
101276.18
101293.7
101307.74
101318.61
101326.03
101329.77
100555.77
100568.15
100582.99
100598.83
100616.01
100634.66
100654.68
100676
100698.72
100723.08
100749.41
100778.13
100809.72
100844.58
100882.93
100924.55
100968.49
101012.47
101056.29
101095.09
101131.32
101167.44
101199.89
101228.23
101252.81
101273.96
101291.66
101305.87
101316.89
101324.44
101328.25
100593.02
100604.63
100619.2
100633.83
100649.48
100666.44
100684.65
100704.09
100724.87
100747.2
100771.4
100797.84
100826.94
100859.12
100894.61
100933.27
100974
101015.44
101059
101095.98
101130.11
101165.69
101197.7
101225.86
101250.45
101271.69
101289.54
101303.92
101315.09
101322.76
101326.66
100640.96
100652.17
100664.29
100676.77
100690.19
100704.7
100720.32
100737.1
100755.19
100774.82
100796.29
100819.93
100846.15
100875.33
100907.73
100943.24
100980.91
101019.9
101061.27
101096.94
101129.62
101164.24
101195.63
101223.54
101248.09
101269.38
101287.36
101301.89
101313.2
101321
101324.98
100695.5
100704.58
100714.81
100725.22
100736.17
100747.91
100760.55
100774.23
100789.16
100805.6
100823.87
100844.31
100867.29
100893.2
100922.3
100954.54
100989.23
101025.4
101063.43
101098.16
101129.54
101163.12
101193.75
101221.28
101245.77
101267.05
101285.13
101299.79
101311.23
101319.14
101323.21
100752.73
100760.05
100768.43
100776.73
100785.22
100794.17
100803.77
100814.22
100825.79
100838.82
100853.64
100870.62
100890.15
100912.6
100938.25
100967.11
100998.69
101032.01
101066.97
101100.28
101129.89
101162.39
101192.08
101219.11
101243.5
101264.73
101282.85
101297.63
101309.17
101317.2
101321.35
100808.93
100814.74
100821.53
100828.07
100834.5
100841.04
100847.91
100855.35
100863.73
100873.42
100884.82
100898.32
100914.34
100933.27
100955.42
100980.84
101009.19
101039.63
101071.92
101102.75
101130.76
101162.1
101190.71
101217.11
101241.31
101262.44
101280.54
101295.4
101307.04
101315.18
101319.4
100862.55
100866.97
100872.29
100877.3
100882
100886.52
100891.09
100895.97
100901.54
100908.22
100916.45
100926.66
100939.32
100954.85
100973.55
100995.57
101020.65
101048.1
101077.47
101106.1
101132.77
101162.32
101189.69
101215.33
101239.25
101260.19
101278.22
101293.12
101304.84
101313.06
101317.36
100912.49
100915.45
100919.27
100922.83
100926.02
100928.91
100931.66
100934.5
100937.8
100941.99
100947.51
100954.85
100964.49
100976.86
100992.33
101011.07
101032.95
101057.33
101083.26
101109.06
101135.86
101163.34
101188.92
101213.9
101237.34
101258.01
101275.91
101290.8
101302.57
101310.87
101315.23
100957.42
100959.07
100961.36
100963.51
100965.36
100966.94
100968.32
100969.68
100971.32
100973.64
100977.07
100982.09
100989.19
100998.83
101011.41
101027.13
101045.95
101067.29
101090.09
101114.3
101139.37
101163.84
101188.37
101213.43
101235.7
101255.93
101273.61
101288.45
101300.24
101308.6
101313.01
100993.43
100995.41
100997.43
100998.62
100999.48
101000.13
101000.57
101000.92
101001.44
101002.48
101004.42
101007.74
101012.88
101020.31
101030.43
101043.48
101059.5
101078.05
101098.41
101120.61
101142.83
101165.74
101188.81
101212.46
101234.15
101253.96
101271.36
101286.08
101297.87
101306.27
101310.72
101024.67
101024.2
101025.15
101026.81
101027.82
101028.02
101027.98
101027.79
101027.72
101028.07
101029.16
101031.39
101035.18
101040.96
101049.1
101059.91
101073.46
101089.5
101107.45
101127.1
101146.35
101167.27
101189.81
101212.17
101233.07
101252.14
101269.18
101283.72
101295.45
101303.88
101308.35
101052.06
101051.56
101051.06
101050.41
101050.22
101050.45
101050.37
101050.15
101050.06
101050.32
101051.18
101052.93
101055.95
101060.6
101067.25
101076.21
101087.62
101101.35
101116.95
101134.1
101150.84
101169.33
101191.3
101212.34
101231.97
101250.51
101267.1
101281.37
101293.02
101301.43
101305.93
101071.19
101070.97
101070.92
101070.74
101070.35
101069.85
101069.48
101069.41
101069.62
101070.12
101071.08
101072.74
101075.37
101079.28
101084.82
101092.29
101101.86
101113.5
101126.88
101141.74
101155.91
101172.96
101193.63
101212.69
101231.05
101249.04
101265.14
101279.07
101290.58
101298.96
101303.45
101086.28
101086.19
101086.17
101086.09
101086.07
101086.26
101086.66
101087.14
101087.69
101088.49
101089.67
101091.38
101093.82
101097.24
101101.92
101108.15
101116.12
101125.86
101137.13
101149.69
101162.18
101177.51
101195.56
101213.24
101230.95
101247.9
101263.35
101276.85
101288.15
101296.46
101300.94
101100.73
101101.01
101101.34
101101.62
101101.98
101102.47
101103.14
101103.88
101104.77
101106
101107.5
101109.33
101111.67
101114.7
101118.66
101123.8
101130.34
101138.36
101147.72
101158.25
101169.25
101182.15
101198.02
101214.72
101231.26
101246.86
101261.72
101274.76
101285.78
101293.97
101298.41
101115.66
101116.21
101116.83
101117.45
101118.22
101119.11
101119.85
101120.81
101122.26
101123.76
101125.36
101127.17
101129.3
101131.89
101135.13
101139.26
101144.49
101150.94
101158.56
101167.22
101176.57
101187.29
101201.27
101216.39
101231.56
101246.35
101260.34
101272.83
101283.49
101291.5
101295.89
101132.04
101132.64
101133.36
101134.11
101134.96
101135.84
101137.13
101138.79
101140.32
101141.83
101143.39
101145.03
101146.81
101148.86
101151.34
101154.46
101158.45
101163.44
101169.45
101176.39
101184.14
101192.81
101204.89
101218.24
101232.54
101246.35
101259.1
101271.06
101281.31
101289.09
101293.38
101150.74
101151.04
101151.6
101152.2
101152.96
101154.15
101155.6
101156.98
101158.35
101159.76
101161.16
101162.52
101163.88
101165.33
101167.03
101169.18
101172
101175.65
101180.19
101185.57
101191.81
101198.69
101209.04
101220.84
101233.73
101246.33
101258.24
101269.53
101279.3
101286.77
101290.93
101170.53
101170.84
101171.18
101171.58
101172.09
101172.8
101173.72
101174.81
101175.97
101177.1
101178.13
101179.07
101179.95
101180.81
101181.79
101183.06
101184.84
101187.32
101190.58
101194.61
101199.49
101204.93
101213.58
101223.83
101235.05
101246.79
101257.92
101268.12
101277.44
101284.57
101288.56
101189.18
101189.09
101189.32
101189.93
101191.04
101191.97
101192.42
101192.85
101193.31
101193.74
101194.12
101194.43
101194.68
101194.91
101195.22
101195.74
101196.68
101198.2
101200.42
101203.36
101207.07
101211.39
101218.34
101227.13
101236.99
101247.24
101257.53
101267.25
101275.84
101282.52
101286.3
101205.91
101205.59
101205.54
101205.41
101205.13
101205.47
101206.62
101207.84
101208.39
101208.25
101208
101207.72
101207.4
101207.1
101206.88
101206.87
101207.2
101208.04
101209.51
101211.63
101214.41
101217.85
101223.22
101230.67
101239.09
101248.29
101257.75
101266.46
101274.42
101280.65
101284.19
101220.9
101220.51
101220.3
101220.05
101219.57
101218.77
101217.82
101217.08
101217.14
101217.8
101217.98
101217.6
101217.13
101216.69
101216.33
101216.14
101216.22
101216.72
101217.74
101219.3
101221.4
101224.1
101228.25
101234.46
101241.6
101249.73
101258.04
101265.93
101273.26
101279.01
101282.29
101230.23
101230.03
101229.73
101229.42
101229.08
101228.65
101228.05
101227.21
101226.13
101225.08
101224.57
101224.56
101224.4
101224.07
101223.82
101223.75
101223.9
101224.33
101225.14
101226.37
101228
101230.13
101233.34
101238.41
101244.43
101251.21
101258.59
101266
101272.43
101277.55
101280.63
101233.23
101233.2
101233.14
101233.04
101232.91
101232.73
101232.53
101232.32
101232.11
101231.81
101231.38
101230.88
101230.54
101230.43
101230.39
101230.47
101230.74
101231.23
101231.98
101233
101234.29
101235.96
101238.38
101242.48
101247.46
101253.17
101259.88
101266.19
101271.66
101276.38
101279.23
101236.35
101236.48