/*--------------------------------*- C++ -*----------------------------------*\
| =========                 |                                                 |
| \\      /  F ield         | OpenFOAM: The Open Source CFD Toolbox           |
|  \\    /   O peration     | Version:  2406                                  |
|   \\  /    A nd           | Website:  www.openfoam.com                      |
|    \\/     M anipulation  |                                                 |
\*---------------------------------------------------------------------------*/
FoamFile
{
    version     2.0;
    format      ascii;
    arch        "LSB;label=32;scalar=64";
    class       volScalarField;
    location    "0.006";
    object      T;
}
// * * * * * * * * * * * * * * * * * * * * * * * * * * * * * * * * * * * * * //

dimensions      [0 0 0 1 0 0 0];

internalField   nonuniform List<scalar> 
8951
(
292.74297
292.73492
292.73146
292.73339
292.73979
292.74909
292.76033
292.77279
292.78492
292.79526
292.80226
292.80415
292.79989
292.78833
292.77006
292.74527
292.71951
292.7127
292.77964
292.86833
292.91412
292.94503
292.97225
292.99261
293.01274
293.03423
293.06624
293.08157
293.1032
293.11485
293.23301
292.78367
292.77899
292.77545
292.77491
292.77704
292.78146
292.788
292.79624
292.80446
292.81144
292.81546
292.81482
292.80843
292.79519
292.77554
292.74998
292.72428
292.71938
292.79044
292.87571
292.91859
292.94839
292.97493
292.99477
293.01448
293.03559
293.06811
293.08297
293.10422
293.11479
293.23422
292.82657
292.82357
292.8203
292.81834
292.81754
292.81823
292.82065
292.82457
292.82872
292.83171
292.83227
292.82849
292.81947
292.80412
292.78268
292.75595
292.73008
292.72771
292.80307
292.88372
292.92346
292.95207
292.97787
292.99713
293.01636
293.03703
293.06989
293.08444
293.10521
293.11486
293.23567
292.88438
292.87803
292.87217
292.86744
292.86344
292.86046
292.85877
292.85823
292.8578
292.85621
292.85245
292.84499
292.83284
292.81498
292.7914
292.76319
292.73722
292.73825
292.81775
292.89267
292.92903
292.95633
292.98127
292.99988
293.01855
293.03872
293.07179
293.08587
293.10623
293.11535
293.23717
292.95642
292.94479
292.9342
292.92496
292.91658
292.90909
292.9026
292.89692
292.89123
292.88452
292.87591
292.86426
292.84853
292.82775
292.80171
292.77187
292.74588
292.75174
292.8348
292.90262
292.9354
292.96123
292.98518
293.00303
293.02106
293.04067
293.07382
293.08733
293.10731
293.11625
293.23767
293.03394
293.01862
293.00377
292.98987
292.97662
292.96399
292.95205
292.9406
292.9291
292.91681
292.90295
292.88664
292.86689
292.84275
292.8139
292.78231
292.75658
292.76909
292.85439
292.91362
292.94266
292.96687
292.98967
293.00667
293.02394
293.04295
293.07579
293.08888
293.1085
293.11731
293.23924
293.11082
293.09375
293.07619
293.05868
293.04112
293.02357
293.00615
292.98885
292.97136
292.95322
292.93383
292.9125
292.8883
292.86039
292.82835
292.79495
292.77007
292.79159
292.87649
292.92572
292.95092
292.97333
292.9948
293.01084
293.02721
293.04556
293.07741
293.09058
293.10986
293.11856
293.24073
293.18579
293.16788
293.14872
293.12859
293.10757
293.08582
293.06353
293.04079
293.01758
292.99365
292.96866
292.94206
292.91309
292.88102
292.84547
292.81035
292.78748
292.82057
292.9007
292.93906
292.96031
292.98072
293.00067
293.01563
293.03093
293.04854
293.0788
293.09236
293.11148
293.12027
293.24073
293.25822
293.23965
293.21936
293.19745
293.17395
293.14898
293.12273
293.09537
293.06704
293.03772
293.00728
292.97538
292.94146
292.90498
292.86576
292.82913
292.81075
292.85636
292.92623
292.95381
292.971
292.98915
293.00737
293.02112
293.03516
293.05193
293.08025
293.09411
293.1134
293.12224
293.24212
293.3264
293.30761
293.28675
293.26378
293.23868
293.21146
293.18226
293.15126
293.11867
293.08464
293.04921
293.01225
292.97345
292.93254
292.8897
292.8524
292.84303
292.89929
292.95244
292.97012
292.98319
292.99877
293.01502
293.02738
293.03995
293.0558
293.08198
293.09578
293.11534
293.12443
293.24159
293.38844
293.36986
293.34903
293.32574
293.29982
293.27127
293.24016
293.20663
293.17088
293.13312
293.09353
293.05214
293.0089
292.96385
292.91799
292.88246
292.88925
292.94757
292.97902
292.98809
292.99713
293.00974
293.02372
293.03447
293.04541
293.06019
293.08456
293.0977
293.11697
293.12682
293.24333
293.4426
293.42408
293.4034
293.38032
293.35447
293.32565
293.29385
293.25913
293.22159
293.18144
293.13889
293.09413
293.04735
292.99908
292.95224
292.92504
292.95228
292.99509
293.00603
293.00797
293.01299
293.02221
293.03358
293.0425
293.05162
293.06517
293.08774
293.10031
293.11859
293.1294
293.24215
293.48672
293.46902
293.44894
293.42627
293.40093
293.37271
293.34136
293.30675
293.26886
293.22778
293.18373
293.13701
293.08818
293.03909
292.99799
292.99148
293.0229
293.03818
293.03415
293.02999
293.03059
293.03631
293.04475
293.05161
293.05865
293.07078
293.09151
293.10335
293.12085
293.13214
293.24432
293.51877
293.5027
293.4845
293.46373
293.43997
293.41301
293.3827
293.34891
293.31159
293.2708
293.22682
293.18037
293.13319
293.09046
293.06835
293.08015
293.08651
293.07685
293.06385
293.05458
293.05006
293.05166
293.05752
293.06194
293.06657
293.07708
293.09594
293.10689
293.12364
293.13503
293.24287
293.53737
293.52271
293.50601
293.48718
293.46595
293.44173
293.41406
293.38288
293.34833
293.31063
293.27045
293.2297
293.19279
293.16847
293.16316
293.15523
293.13346
293.11322
293.09502
293.08083
293.07135
293.06862
293.07179
293.07346
293.07548
293.08415
293.10104
293.11094
293.12687
293.13798
293.23736
293.54513
293.53184
293.51635
293.49864
293.47906
293.45807
293.43556
293.41111
293.38446
293.35576
293.32641
293.29851
293.27418
293.25534
293.23327
293.20245
293.17324
293.14855
293.12659
293.10858
293.09459
293.08739
293.08704
293.08595
293.08543
293.0921
293.107
293.11561
293.13058
293.14076
293.23626
293.56164
293.55375
293.54488
293.53459
293.52179
293.50539
293.48517
293.46147
293.43646
293.41254
293.38888
293.3632
293.33481
293.30369
293.26993
293.23949
293.20827
293.18155
293.15726
293.136
293.1191
293.10765
293.10343
293.09933
293.09607
293.10104
293.11365
293.12084
293.1342
293.143
293.24014
293.53565
293.52946
293.52254
293.51504
293.50732
293.49989
293.493
293.48603
293.47507
293.45593
293.4301
293.39879
293.36722
293.33475
293.30207
293.26897
293.23727
293.21023
293.18604
293.16222
293.14331
293.12888
293.12072
293.11316
293.10731
293.11066
293.12107
293.12664
293.13812
293.14515
293.2365
293.52172
293.5164
293.51012
293.50261
293.49354
293.48252
293.46928
293.45415
293.43956
293.4257
293.4128
293.40372
293.38961
293.35879
293.32467
293.29279
293.26033
293.23291
293.21133
293.1873
293.16593
293.14925
293.13842
293.12713
293.11874
293.1208
293.12889
293.13291
293.14268
293.14847
293.23215
293.48254
293.47924
293.47553
293.47134
293.46663
293.46137
293.45545
293.44869
293.44013
293.42929
293.41452
293.39392
293.37368
293.3616
293.33822
293.30959
293.28089
293.25245
293.23
293.20977
293.18657
293.16724
293.15504
293.14122
293.12993
293.13106
293.1368
293.13926
293.14873
293.15341
293.22839
293.45554
293.45259
293.44911
293.44496
293.43999
293.43402
293.42687
293.41845
293.4088
293.39812
293.38692
293.37549
293.36225
293.34575
293.33686
293.32103
293.29525
293.26868
293.24421
293.22701
293.20522
293.1822
293.16906
293.15538
293.14002
293.14093
293.14426
293.14479
293.15465
293.15699
293.22205
293.40995
293.40815
293.4061
293.40377
293.40114
293.39818
293.39483
293.391
293.38643
293.38072
293.37314
293.36283
293.35043
293.33725
293.31923
293.30672
293.30082
293.27823
293.2544
293.23751
293.21979
293.19523
293.17853
293.16721
293.14954
293.14942
293.15087
293.14914
293.1584
293.15834
293.2291
293.3789
293.37742
293.37565
293.37353
293.37096
293.36782
293.36399
293.35936
293.35387
293.34765
293.34097
293.33429
293.32725
293.31849
293.30944
293.29681
293.28294
293.27673
293.25633
293.23845
293.22382
293.20422
293.18367
293.17448
293.15871
293.15582
293.1557
293.15245
293.16082
293.15478
293.21435
293.33365
293.33272
293.33169
293.33052
293.32921
293.32777
293.32618
293.32441
293.32238
293.31988
293.31655
293.3119
293.30575
293.29854
293.28916
293.27857
293.26672
293.2541
293.24479
293.22691
293.2177
293.20479
293.1868
293.17738
293.16613
293.15941
293.15748
293.15461
293.16175
293.15543
293.21356
293.29884
293.29814
293.29729
293.29625
293.29498
293.29344
293.29158
293.28931
293.28656
293.28324
293.2793
293.27498
293.27037
293.26511
293.25905
293.25106
293.24108
293.23121
293.22248
293.21105
293.20469
293.19919
293.18806
293.17861
293.16962
293.15888
293.1562
293.15434
293.15926
293.1539
293.20123
293.24589
293.24544
293.2449
293.24426
293.24348
293.24256
293.24148
293.24023
293.23883
293.23732
293.23571
293.23368
293.23093
293.22753
293.22384
293.22025
293.21601
293.21039
293.20703
293.20581
293.19665
293.19215
293.18751
293.18009
293.16797
293.15479
293.15262
293.15171
293.1536
293.14788
293.18448
293.22272
293.22244
293.22209
293.22165
293.22108
293.22036
293.21943
293.2182
293.21659
293.21453
293.21206
293.20939
293.20688
293.20478
293.20311
293.20167
293.19996
293.19692
293.19083
293.18673
293.18626
293.18801
293.18622
293.17629
293.16187
293.15052
293.1479
293.14643
293.14565
293.14119
293.16891
293.18768
293.18753
293.18736
293.18717
293.18695
293.18672
293.1865
293.18632
293.18623
293.18626
293.18638
293.18647
293.18633
293.18568
293.18433
293.1823
293.17981
293.17694
293.17386
293.16974
293.165
293.16637
293.17454
293.16921
293.15973
293.15021
293.14478
293.13756
293.13376
293.12656
293.15084
293.15611
293.15623
293.15637
293.15651
293.15661
293.15666
293.1566
293.15638
293.15603
293.1556
293.15513
293.15461
293.15403
293.15334
293.15245
293.15115
293.14945
293.14738
293.14515
293.14266
293.14152
293.14014
293.14294
293.15476
293.15077
293.14255
293.13358
293.12243
293.11963
293.10779
293.12429
293.1002
293.10027
293.10033
293.10039
293.10043
293.10045
293.10042
293.10032
293.1001
293.09989
293.0998
293.09985
293.10001
293.10023
293.10044
293.10054
293.10047
293.1002
293.09955
293.09915
293.09945
293.10167
293.10502
293.11618
293.12504
293.11495
293.10348
293.10137
293.10052
293.09363
293.07309
293.03364
293.03381
293.034
293.0342
293.0344
293.0346
293.03478
293.03495
293.03513
293.03531
293.03551
293.03572
293.03598
293.0363
293.03665
293.03698
293.03727
293.03761
293.03794
293.03879
293.0405
293.04398
293.04717
293.0544
293.06828
293.06267
293.0562
293.06071
293.06205
293.07153
293.0734
293.28921
293.35954
293.45434
293.50017
293.45618
293.35963
293.24685
293.14336
293.05609
292.98287
292.92054
292.86678
292.81999
292.77876
292.74097
292.7052
292.66766
292.63006
292.5911
292.59849
292.6826
292.78357
292.84851
292.89152
292.92998
292.9672
293.00057
293.02117
293.0441
293.073
293.17397
293.33153
293.40779
293.46551
293.45024
293.38796
293.29645
293.19768
293.10745
293.02946
292.96245
292.90446
292.85396
292.8098
292.77064
292.73447
292.69993
292.66324
292.62668
292.59018
292.60109
292.6899
292.78915
292.85202
292.89411
292.93211
292.96898
293.002
293.02228
293.04545
293.07426
293.17659
293.3855
293.45925
293.47651
293.43499
293.35409
293.25638
293.16227
293.07926
293.00729
292.94481
292.89028
292.8426
292.80077
292.76349
292.72877
292.69532
292.65935
292.62359
292.58957
292.60407
292.69723
292.79451
292.85535
292.89659
292.93417
292.97068
293.00337
293.02336
293.04679
293.07557
293.17926
293.44996
293.49197
293.4709
293.40363
293.31184
293.21665
293.13007
293.05395
292.98718
292.92861
292.87717
292.8321
292.79244
292.75689
292.72353
292.69108
292.65581
292.62076
292.58925
292.60747
292.70465
292.79976
292.85865
292.89908
292.93623
292.97239
293.00472
293.02442
293.04811
293.07682
293.18192
293.505
293.49901
293.446
293.36229
293.26866
293.18
293.10086
293.03061
292.96828
292.91319
292.86464
292.82205
292.78448
292.75061
292.71855
292.68705
292.6525
292.61816
292.58919
292.61135
292.71215
292.80489
292.86191
292.90156
292.93828
292.97408
293.00606
293.02548
293.04944
293.07802
293.18454
293.52395
293.48093
293.40599
293.31657
293.22776
293.14678
293.07412
293.00878
292.95033
292.89841
292.85263
292.81244
292.77689
292.74463
292.71383
292.68324
292.64944
292.61582
292.58934
292.61574
292.71968
292.80987
292.86512
292.90403
292.94033
292.97576
293.00737
293.02654
293.05078
293.07918
293.18712
293.51291
293.44259
293.35931
293.27231
293.19077
293.11671
293.04936
292.98818
292.93319
292.88426
292.84114
292.80327
292.76967
292.73897
292.70939
292.67968
292.64663
292.61372
292.58966
292.62064
292.72719
292.8147
292.86828
292.90649
292.94237
292.97744
293.00866
293.02759
293.05214
293.08034
293.18964
293.47761
293.39572
293.31251
293.23197
293.1575
293.08908
293.02607
292.96855
292.91675
292.87069
292.83015
292.79455
292.76284
292.73364
292.70523
292.67635
292.64408
292.61182
292.59015
292.62599
292.7346
292.81938
292.87139
292.90894
292.9444
292.9791
293.00993
293.02865
293.05352
293.0815
293.19209
293.43088
293.34789
293.26962
293.19582
293.12711
293.06317
293.00389
292.9497
292.90093
292.85766
292.81966
292.78626
292.75638
292.72863
292.70134
292.67327
292.64176
292.6102
292.59089
292.63166
292.74191
292.82391
292.87445
292.91137
292.94642
292.98075
293.01118
293.02971
293.05492
293.08268
293.19445
293.3805
293.30276
293.23084
293.1628
293.09867
293.03846
292.98254
292.9315
292.88567
292.84515
292.80964
292.77839
292.75029
292.72394
292.69773
292.67042
292.63966
292.60886
292.59193
292.63759
292.74911
292.8283
292.87748
292.91379
292.94842
292.98238
293.01241
293.03078
293.05634
293.08386
293.19672
293.33283
293.26186
293.19547
293.13194
293.07152
293.01461
292.96185
292.91386
292.87094
292.83314
292.80008
292.77093
292.74456
292.71956
292.69439
292.6678
292.63779
292.60774
292.59327
292.64382
292.75619
292.83255
292.88046
292.91619
292.95042
292.984
293.01363
293.03186
293.05776
293.08505
293.19889
293.28972
293.22444
293.16235
293.10241
293.0452
292.99137
292.9417
292.89672
292.85671
292.82163
292.79098
292.7639
292.7392
292.71549
292.69132
292.6654
292.63618
292.60684
292.59494
292.65036
292.76313
292.83668
292.88341
292.91857
292.9524
292.98561
293.01484
293.03295
293.05916
293.08624
293.20095
293.2502
293.18923
293.1305
293.07362
293.01938
292.96859
292.922
292.88006
292.84298
292.81059
292.78234
292.75727
292.73419
292.71174
292.68852
292.66323
292.63484
292.60617
292.5969
292.65721
292.76991
292.84069
292.88633
292.92093
292.95436
292.9872
293.01603
293.03406
293.06054
293.08744
293.20289
293.21276
293.15507
293.0992
293.04516
292.99386
292.94615
292.9027
292.86386
292.82972
292.80004
292.77415
292.75104
292.72954
292.70829
292.68599
292.6613
292.63371
292.60581
292.59916
292.66433
292.77652
292.84458
292.88921
292.92327
292.9563
292.98878
293.01722
293.03519
293.06187
293.08869
293.20472
293.17603
293.12112
293.06794
293.01676
292.9685
292.924
292.88378
292.8481
292.81695
292.78996
292.7664
292.74522
292.72525
292.70516
292.68372
292.65959
292.63282
292.60579
292.60167
292.67166
292.78293
292.84838
292.89205
292.92558
292.95823
292.99035
293.0184
293.03633
293.06315
293.09006
293.20642
293.13899
293.08677
293.03637
292.98822
292.94322
292.90209
292.86523
292.83279
292.80466
292.78037
292.7591
292.73981
292.72131
292.70233
292.68171
292.65811
292.63216
292.60606
292.60443
292.67918
292.78914
292.85207
292.89487
292.92788
292.96014
292.9919
293.01957
293.03748
293.06437
293.09153
293.20801
293.10098
293.05162
293.00429
292.95945
292.91797
292.88041
292.84705
292.81795
292.79286
292.77125
292.75226
292.73479
292.71772
292.69981
292.67995
292.65689
292.6317
292.60658
292.60741
292.68686
292.79515
292.85568
292.89766
292.93015
292.96202
292.99344
293.02075
293.03864
293.06555
293.09295
293.20948
293.06152
293.01542
292.97156
292.93042
292.89275
292.85898
292.82926
292.80357
292.78156
292.76262
292.74586
292.73018
292.71448
292.69759
292.67846
292.65596
292.63141
292.60727
292.61062
292.69464
292.80094
292.85922
292.90042
292.9324
292.96389
292.99496
293.02193
293.03981
293.06669
293.09426
293.21083
293.02032
292.97803
292.93814
292.90112
292.86759
292.83782
292.8119
292.78968
292.77077
292.75448
292.73991
292.72597
292.7116
292.69568
292.67724
292.65532
292.63131
292.6081
292.61415
292.70248
292.80652
292.86268
292.90316
292.93463
292.96573
292.99647
293.02311
293.04098
293.06779
293.09549
293.21207
292.97725
292.93942
292.90407
292.87163
292.84255
292.817
292.79499
292.77631
292.76049
292.74684
292.73441
292.72217
292.70907
292.69407
292.67629
292.65493
292.63136
292.6091
292.61802
292.71032
292.81189
292.86607
292.90587
292.93683
292.96754
292.99797
293.02429
293.04215
293.06888
293.09668
293.21319
292.93236
292.89972
292.86948
292.84204
292.81771
292.79657
292.77858
292.76348
292.75076
292.7397
292.72937
292.71876
292.70688
292.69275
292.67561
292.65479
292.63156
292.61029
292.62222
292.7181
292.81706
292.8694
292.90855
292.93901
292.96933
292.99944
293.02548
293.04332
293.06994
293.09785
293.21422
292.88596
292.85916
292.83459
292.81253
292.79319
292.77661
292.76273
292.75122
292.74157
292.73307
292.7248
292.71577
292.70505
292.69173
292.67524
292.65489
292.632
292.61166
292.62673
292.72579
292.82203
292.87268
292.91121
292.94117
292.97109
293.0009
293.02667
293.04448
293.07098
293.09901
293.21515
292.83849
292.81813
292.79968
292.78328
292.76911
292.75722
292.74748
292.73956
292.73296
292.72697
292.72068
292.71317
292.70355
292.69103
292.67517
292.65519
292.63268
292.6132
292.63154
292.73334
292.8268
292.8759
292.91385
292.94332
292.97283
293.00234
293.02787
293.04563
293.072
293.10014
293.21598
292.79066
292.77713
292.76505
292.75449
292.74563
292.73847
292.73289
292.72854
292.72494
292.7214
292.71704
292.71098
292.70238
292.69069
292.67534
292.6557
292.63355
292.61489
292.63664
292.74073
292.83139
292.87907
292.91646
292.94544
292.97455
293.00376
293.02908
293.04677
293.073
293.10124
293.21674
292.74341
292.73665
292.73095
292.72637
292.72289
292.72048
292.71903
292.7182
292.71753
292.71638
292.71386
292.70916
292.70161
292.6907
292.67574
292.65644
292.63459
292.61677
292.642
292.74795
292.8358
292.88218
292.91904
292.94755
292.97624
293.00516
293.03031
293.0479
293.07398
293.10229
293.21743
292.69699
292.6971
292.69783
292.69918
292.70107
292.70338
292.70596
292.70856
292.71076
292.71191
292.71114
292.70775
292.70127
292.69099
292.6764
292.6574
292.63581
292.61887
292.64758
292.75497
292.84005
292.88525
292.92159
292.94964
292.9779
293.00654
293.03155
293.04903
293.07495
293.10328
293.21805
292.65222
292.65901
292.66603
292.67318
292.68032
292.68724
292.69376
292.6997
292.70464
292.70798
292.70886
292.70688
292.70134
292.69153
292.67732
292.65858
292.63722
292.62113
292.65336
292.76178
292.84414
292.88826
292.92411
292.95171
292.97955
293.00789
293.03282
293.05017
293.0759
293.10422
293.21861
292.60975
292.62285
292.63586
292.6486
292.66079
292.67216
292.68251
292.69164
292.69917
292.70456
292.70714
292.7065
292.70166
292.69238
292.6785
292.66
292.63882
292.62358
292.65929
292.76837
292.84809
292.89122
292.9266
292.95377
292.98118
293.00922
293.03412
293.05134
293.07683
293.10512
293.21912
292.57013
292.58901
292.60762
292.62564
292.64264
292.65825
292.67224
292.68437
292.69433
292.70174
292.7061
292.70648
292.70234
292.69352
292.67995
292.66165
292.64064
292.62621
292.66531
292.77474
292.85191
292.89413
292.92905
292.95581
292.98279
293.01053
293.03546
293.05254
293.07776
293.10597
293.21959
292.53376
292.55778
292.58152
292.60447
292.62599
292.64556
292.6629
292.67787
292.69025
292.69977
292.70562
292.70682
292.70337
292.69498
292.68166
292.66354
292.64268
292.62902
292.67141
292.7809
292.8556
292.89698
292.93145
292.95783
292.98439
293.01181
293.03684
293.05379
293.07867
293.1067
293.22002
292.50082
292.5293
292.55769
292.5852
292.61088
292.63407
292.65454
292.67236
292.68722
292.69851
292.70547
292.7076
292.70476
292.69673
292.68363
292.66568
292.64493
292.63202
292.67758
292.78682
292.85917
292.89978
292.93382
292.95983
292.98597
293.01308
293.03829
293.05508
293.0796
293.10732
293.22042
292.47138
292.50375
292.53631
292.56793
292.59743
292.62408
292.64772
292.66811
292.68502
292.69775
292.7058
292.7088
292.7065
292.69879
292.68585
292.66806
292.6474
292.63518
292.68376
292.79252
292.86265
292.90253
292.93616
292.96182
292.98754
293.01433
293.03976
293.05642
293.08054
293.10794
293.22079
292.44654
292.48228
292.51844
292.5536
292.58644
292.61622
292.64264
292.66511
292.68357
292.69747
292.70661
292.71042
292.70861
292.70116
292.68834
292.67067
292.65005
292.63852
292.68991
292.79803
292.86606
292.90524
292.93846
292.96379
292.9891
293.01556
293.04125
293.05784
293.08152
293.10859
293.22115
292.42709
292.46579
292.50494
292.54297
292.57847
292.61073
292.63892
292.66286
292.68263
292.69776
292.70793
292.71245
292.71108
292.70383
292.69109
292.67348
292.6529
292.64201
292.696
292.80335
292.86939
292.9079
292.94071
292.96573
292.99065
293.01678
293.04273
293.05931
293.08255
293.10922
293.22149
292.41044
292.4526
292.49472
292.5352
292.57283
292.60654
292.63591
292.66133
292.68238
292.69867
292.70975
292.7149
292.71391
292.7068
292.69409
292.67648
292.65594
292.64568
292.70203
292.8085
292.87265
292.91052
292.94293
292.96764
292.99219
293.01798
293.0442
293.06081
293.08367
293.10982
293.22183
292.39335
292.44026
292.4858
292.52863
292.56787
292.60296
292.6339
292.66068
292.6829
292.7002
292.71207
292.71778
292.71709
292.71007
292.69735
292.67968
292.65919
292.64951
292.70798
292.81348
292.87585
292.9131
292.94511
292.96953
292.99372
293.01917
293.04565
293.06231
293.08488
293.11041
293.22217
292.3832
292.43311
292.48064
292.52469
292.56481
292.60091
292.63304
292.66097
292.68421
292.70236
292.71491
292.72108
292.72064
292.71366
292.70086
292.68309
292.66262
292.65349
292.71382
292.81829
292.87899
292.91564
292.94724
292.97138
292.99523
293.02035
293.04707
293.06381
293.08622
293.11108
293.22252
292.38443
292.43417
292.48104
292.52438
292.56417
292.60053
292.63338
292.66222
292.68631
292.70517
292.71826
292.72481
292.72455
292.71755
292.70464
292.68669
292.66624
292.65761
292.71955
292.82294
292.88206
292.91815
292.94934
292.9732
292.99673
293.02152
293.04848
293.06529
293.0877
293.11184
293.22289
292.39689
292.44296
292.48646
292.52729
292.56568
292.6017
292.63492
292.66447
292.68922
292.70862
292.72213
292.72896
292.72883
292.72176
292.70868
292.6905
292.67004
292.66186
292.72516
292.82743
292.88507
292.92062
292.95141
292.97498
292.99821
293.02268
293.04987
293.06675
293.08927
293.11263
293.22329
292.41751
292.45682
292.49501
292.53226
292.56875
292.60419
292.63763
292.66772
292.69294
292.71274
292.72651
292.73355
292.73346
292.72627
292.71298
292.6945
292.67401
292.66623
292.73063
292.83176
292.88802
292.92305
292.95344
292.97673
292.99967
293.02383
293.05127
293.0682
293.09083
293.11338
293.22373
292.43981
292.47132
292.504
292.53787
292.57276
292.60781
292.64149
292.67201
292.69751
292.71753
292.73142
292.73855
292.73845
292.73109
292.71754
292.6987
292.67813
292.6707
292.73598
292.83594
292.89091
292.92544
292.95544
292.97844
293.0011
293.02497
293.05268
293.06963
293.09232
293.11408
293.22422
292.45602
292.48175
292.51091
292.543
292.57734
292.61253
292.64658
292.67739
292.70297
292.72302
292.73687
292.74398
292.7438
292.73622
292.72237
292.7031
292.68241
292.67526
292.74118
292.83998
292.89373
292.9278
292.95742
292.98011
293.0025
293.0261
293.05412
293.07105
293.09373
293.11469
293.22479
292.46163
292.48598
292.51502
292.54765
292.58275
292.61863
292.65307
292.68393
292.7094
292.72922
292.74284
292.74983
292.74949
292.74165
292.72745
292.70768
292.6868
292.6799
292.74624
292.84387
292.89649
292.93012
292.95937
292.98175
293.00388
293.02721
293.0556
293.07248
293.09507
293.11518
293.22544
292.45918
292.48658
292.51853
292.55346
292.59009
292.62678
292.66128
292.69178
292.71687
292.73615
292.74936
292.7561
292.75553
292.74737
292.7328
292.71246
292.69127
292.68459
292.75116
292.84763
292.89918
292.93239
292.96129
292.98336
293.00522
293.02831
293.05712
293.0739
293.09635
293.11553
293.22619
292.45898
292.49102
292.52644
292.56354
292.60113
292.63788
292.67157
292.70111
292.72538
292.74383
292.7564
292.76276
292.7619
292.75339
292.73841
292.71744
292.69582
292.68932
292.75594
292.85125
292.9018
292.93462
292.9632
292.98495
293.00654
293.02937
293.05866
293.0753
293.09759
293.11573
293.22705
292.47445
292.50845
292.54454
292.5812
292.61765
292.65261
292.68425
292.712
292.73488
292.75222
292.76396
292.76981
292.76858
292.75968
292.74425
292.72263
292.70044
292.69408
292.76059
292.85475
292.90437
292.9368
292.96508
292.98651
293.00782
293.03041
293.06018
293.07667
293.0988
293.11575
293.22803
292.51463
292.54459
292.57605
292.60812
292.64024
292.67104
292.69922
292.72417
292.74511
292.76117
292.77197
292.77718
292.77552
292.7662
292.75029
292.72801
292.70512
292.69885
292.76515
292.85815
292.90686
292.93893
292.96692
292.98806
293.00907
293.03141
293.06166
293.07797
293.09996
293.11562
293.22912
292.57842
292.59786
292.61909
292.64254
292.66739
292.69212
292.71557
292.73709
292.7556
292.77035
292.78027
292.7848
292.78266
292.77289
292.75647
292.73353
292.70983
292.70359
292.76961
292.86138
292.90924
292.94095
292.96869
292.98955
293.01028
293.03236
293.06311
293.0792
293.10108
293.11538
293.23032
292.6556
292.66099
292.66878
292.6812
292.69721
292.7149
292.73298
292.75065
292.76663
292.77983
292.78903
292.79282
292.79014
292.77988
292.76287
292.73925
292.7146
292.70807
292.77371
292.86424
292.91139
292.9428
292.97034
292.99099
293.01144
293.03326
293.06461
293.08038
293.10217
293.11509
293.2316
293.26058
293.31904
293.40746
293.47563
293.45857
293.37286
293.26103
293.1559
293.06642
292.99132
292.9276
292.8727
292.8249
292.78274
292.74422
292.7078
292.67001
292.63186
292.59222
292.59721
292.67785
292.77998
292.84606
292.88956
292.92836
292.96586
292.99944
293.02024
293.04294
293.07182
293.17193
293.25026
293.30027
293.37453
293.44568
293.44218
293.36566
293.26086
293.15877
293.07023
292.99534
292.93159
292.8765
292.82833
292.78567
292.74662
292.70965
292.67155
292.63279
292.59314
292.59586
292.67422
292.7774
292.84421
292.88799
292.92706
292.96476
292.99844
293.0194
293.04187
293.07077
293.1699
293.24253
293.28868
293.35764
293.42977
293.43473
293.36555
293.2646
293.16384
293.07536
293.00018
292.93609
292.88063
292.832
292.78879
292.74919
292.71163
292.67319
292.63383
292.59396
292.59443
292.67033
292.77451
292.84218
292.88629
292.92567
292.96358
292.99737
293.0185
293.04071
293.0696
293.16786
293.23501
293.27775
293.34291
293.41647
293.4297
293.36653
293.26833
293.16849
293.08004
293.00461
292.94025
292.8845
292.83549
292.79181
292.75171
292.7136
292.67484
292.63495
292.59482
292.59315
292.66651
292.77154
292.84005
292.88452
292.92422
292.96234
292.99624
293.01756
293.0395
293.06835
293.16581
293.22784
293.26733
293.32864
293.40339
293.42431
293.36678
293.27141
293.17264
293.08434
293.00876
292.94419
292.88822
292.83889
292.79478
292.75422
292.71561
292.67651
292.63615
292.59576
292.592
292.66279
292.76855
292.8379
292.88274
292.92277
292.96108
292.99509
293.01659
293.03823
293.06703
293.16374
293.2212
293.25781
293.31533
293.38938
293.41779
293.3662
293.27402
293.1765
293.08846
293.01278
292.94804
292.89187
292.84226
292.79776
292.75676
292.71765
292.67823
292.6374
292.59677
292.59096
292.65913
292.76555
292.83574
292.88095
292.92132
292.95981
292.99391
293.01559
293.03692
293.06564
293.16167
293.21513
293.24916
293.30309
293.37505
293.40979
293.36499
293.27634
293.18019
293.09246
293.01671
292.95183
292.89547
292.84561
292.80075
292.75932
292.71975
292.67999
292.63872
292.59785
292.59003
292.65552
292.76253
292.83356
292.87916
292.91986
292.95852
292.99271
293.01456
293.03555
293.06419
293.15961
293.20959
293.24131
293.29183
293.36118
293.40104
293.36323
293.27837
293.18371
293.09636
293.02058
292.95556
292.89904
292.84894
292.80375
292.76193
292.7219
292.68181
292.6401
292.59899
292.58921
292.65197
292.75946
292.83137
292.87737
292.91839
292.95721
292.99148
293.01349
293.03414
293.06269
293.15757
293.20455
293.23417
293.28152
293.34799
293.39177
293.3609
293.28009
293.18706
293.10016
293.02439
292.95925
292.90258
292.85227
292.80676
292.76456
292.72411
292.68367
292.64154
292.60021
292.58849
292.64848
292.75637
292.82915
292.87557
292.91691
292.95587
292.99023
293.01239
293.03267
293.06114
293.15554
293.20001
293.22774
293.27213
293.33555
293.38214
293.35799
293.2815
293.19024
293.10387
293.02814
292.9629
292.90609
292.85559
292.80979
292.76723
292.72636
292.68558
292.64305
292.60151
292.58788
292.64506
292.75323
292.82691
292.87376
292.91542
292.95451
292.98895
293.01125
293.03117
293.05955
293.15356
293.19598
293.222
293.26363
293.32388
293.37229
293.35439
293.28259
293.19326
293.10749
293.03185
292.96652
292.90959
292.8589
292.81284
292.76994
292.72867
292.68754
292.64463
292.60288
292.58739
292.64171
292.75007
292.82467
292.87195
292.91391
292.95313
292.98765
293.01007
293.02963
293.05793
293.15162
293.19243
293.2169
293.25599
293.31305
293.36233
293.35031
293.28339
293.19613
293.11105
293.03553
292.97013
292.91308
292.86223
292.81591
292.77268
292.73102
292.68955
292.64628
292.60433
292.58702
292.63843
292.74688
292.82241
292.87014
292.91238
292.95172
292.98633
293.00886
293.02806
293.05629
293.14973
293.18936
293.21243
293.24916
293.30303
293.35242
293.3459
293.28392
293.19885
293.11455
293.03919
292.97374
292.91657
292.86556
292.819
292.77545
292.73343
292.69162
292.64799
292.60585
292.58678
292.63524
292.74367
292.82014
292.86832
292.91083
292.95029
292.98499
293.00761
293.02647
293.05463
293.14791
293.18673
293.20856
293.2431
293.2939
293.34293
293.34148
293.28417
293.20145
293.11801
293.04285
292.97736
292.92008
292.86891
292.82212
292.77827
292.73589
292.69374
292.64976
292.6074
292.58665
292.63215
292.74043
292.81786
292.86649
292.90926
292.94883
292.98363
293.00631
293.02486
293.05296
293.14615
293.18455
293.20525
293.23782
293.28575
293.33403
293.33707
293.28418
293.20392
293.12143
293.04651
292.98099
292.92361
292.87229
292.82527
292.78113
292.7384
292.69591
292.65158
292.60898
292.58662
292.62915
292.73718
292.81558
292.86465
292.90767
292.94735
292.98224
293.00498