/*--------------------------------*- C++ -*----------------------------------*\
| =========                 |                                                 |
| \\      /  F ield         | OpenFOAM: The Open Source CFD Toolbox           |
|  \\    /   O peration     | Version:  2406                                  |
|   \\  /    A nd           | Website:  www.openfoam.com                      |
|    \\/     M anipulation  |                                                 |
\*---------------------------------------------------------------------------*/
FoamFile
{
    version     2.0;
    format      ascii;
    arch        "LSB;label=32;scalar=64";
    class       volScalarField;
    location    "0.057";
    object      alphat;
}
// * * * * * * * * * * * * * * * * * * * * * * * * * * * * * * * * * * * * * //

dimensions      [1 -1 -1 0 0 0 0];

internalField   nonuniform List<scalar> 
8260
(
0.039989236
0.045347114
0.051645222
0.058757269
0.066520601
0.074761903
0.083261492
0.091723351
0.099747054
0.10675962
0.11195393
0.11421527
0.11203601
0.1035343
0.086667226
0.060470008
0.03197928
0.01493756
0.0096685647
0.0079861063
0.0070413999
0.0064884561
0.0060309472
0.0056861632
0.0054509292
0.0052889142
0.0051588834
0.0050687641
0.0050058737
0.0049658574
0.0049448453
0.0473352
0.052853544
0.058908859
0.065569486
0.072793603
0.080450305
0.088331704
0.096141539
0.1034714
0.10974011
0.11411145
0.11544854
0.11222508
0.10257115
0.084499834
0.057587849
0.029226886
0.014060844
0.0094151538
0.0078858693
0.0069851104
0.0064524041
0.0060079206
0.005674723
0.0054435144
0.005284695
0.0051560158
0.005066938
0.0050047103
0.0049650891
0.0049443242
0.055752235
0.061061624
0.066811928
0.073040823
0.079724726
0.086758812
0.093953247
0.10102028
0.10754679
0.11293762
0.11634351
0.11660242
0.11217109
0.10120053
0.081796592
0.05409148
0.026514911
0.013155181
0.0092447297
0.0078351287
0.0069554694
0.0064327668
0.0059956885
0.0056687665
0.0054396432
0.0052825211
0.0051544678
0.005065912
0.0050038714
0.0049644104
0.0049437526
0.065348913
0.070226106
0.075531589
0.081243198
0.087322195
0.093664423
0.1000861
0.10630334
0.11189922
0.11626747
0.11854461
0.11754748
0.11171978
0.099245783
0.078374901
0.049898452
0.023711797
0.012365889
0.0090882151
0.0077564209
0.0069053568
0.0063980952
0.0059736633
0.0056577251
0.0054323311
0.0052783955
0.0051514851
0.005063922
0.0050025411
0.004963483
0.0049431016
0.076120724
0.080399902
0.085135502
0.090213711
0.095582307
0.10112903
0.10666591
0.11190525
0.11642264
0.11960061
0.12056086
0.11810262
0.11066348
0.096478478
0.074012124
0.044922638
0.020897839
0.011608051
0.0089215199
0.0076848701
0.0068614455
0.00636775
0.0059546085
0.0056482213
0.0054260678
0.0052748315
0.0051489607
0.0050622635
0.005001305
0.0049625393
0.0049423597
0.087860905
0.091471684
0.09552265
0.099849115
0.10438688
0.10901344
0.11353153
0.11764371
0.12091351
0.12270983
0.12213995
0.11798883
0.10869988
0.092584897
0.068429795
0.039125458
0.018376292
0.010914089
0.0087621722
0.0075972756
0.0068045667
0.0063272331
0.0059286339
0.0056349948
0.0054172711
0.0052697575
0.0051453506
0.0050598748
0.0049996653
0.0049613667
0.0049415131
0.10020037
0.10310108
0.10637873
0.10985002
0.11343948
0.11701435
0.12036633
0.12318512
0.12501906
0.12522127
0.12288506
0.11678601
0.10539435
0.087137359
0.061294622
0.032602076
0.016000674
0.01029326
0.0085963275
0.0075087404
0.0067487949
0.0062870036
0.0059029358
0.0056218169
0.0054085547
0.0052646414
0.0051417834
0.0050575465
0.0049979816
0.0049601028
0.0049405481
0.11253379
0.11469354
0.11712888
0.11965636
0.12218901
0.12458297
0.12661747
0.12796749
0.12816454
0.1265452
0.12219031
0.11387419
0.10013234
0.079566816
0.052264243
0.025724199
0.013840189
0.0098197501
0.0084331926
0.0074066264
0.0066824887
0.0062380033
0.0058710812
0.0056051372
0.0053975344
0.0052580437
0.0051371912
0.0050545258
0.0049958938
0.0049585868
0.0049394489
0.12390365
0.12529531
0.12683043
0.12833835
0.12971784
0.13081117
0.13138277
0.13109085
0.12944918
0.12577884
0.11915246
0.10835601
0.092064213
0.069157953
0.041181974
0.020150117
0.012063105
0.009443664
0.0082566942
0.0072990977
0.0066155358
0.0061875235
0.0058379948
0.0055873552
0.0053859067
0.0052509441
0.0051323468
0.0050513601
0.0049936537
0.0049569081
0.0049381984
0.13280667
0.13342161
0.1340107
0.13443837
0.13458642
0.1342788
0.13326118
0.13117233
0.12750867
0.12158064
0.11246231
0.098970017
0.080059609
0.055161325
0.028709052
0.015737948
0.010701189
0.0090946774
0.0080727027
0.0071776971
0.0065391787
0.0061287644
0.0057989292
0.0055656123
0.0053717177
0.0052421718
0.0051264051
0.0050474242
0.0049909557
0.0049549243
0.0049367747
0.13698678
0.13684621
0.1364812
0.13579517
0.13465673
0.13287386
0.13017124
0.12616763
0.12034723
0.11202395
0.10029636
0.084030101
0.062806154
0.037284874
0.019818748
0.012604764
0.0099289922
0.0087922133
0.007869648
0.0070486737
0.0064614836
0.0060676783
0.0057581067
0.0055416798
0.0053560609
0.0052324874
0.005119968
0.0050431469
0.0049879892
0.0049526992
0.0049351499
0.13314089
0.13220476
0.13089129
0.12911446
0.12671108
0.12345996
0.11906207
0.11312264
0.10513411
0.094457357
0.080283167
0.06147888
0.039413665
0.022845729
0.014304527
0.010637613
0.0094665006
0.0084364006
0.0076553006
0.006901339
0.0063750972
0.0059980201
0.00571218
0.0055132887
0.0053372113
0.0052208717
0.0051122739
0.0050379726
0.004984459
0.0049500967
0.0049329115
0.11653673
0.1149524
0.11280836
0.11001461
0.10640774
0.10175567
0.095739859
0.087985929
0.078072083
0.065577425
0.050515119
0.035841779
0.02312447
0.014972453
0.011168594
0.0098487674
0.0088749282
0.0081177489
0.0074113606
0.0067567707
0.006277876
0.0059230619
0.0056662981
0.0054823748
0.0053164117
0.005207947
0.0051037825
0.0050322964
0.0049805246
0.004947171
0.004930182
0.081909329
0.07971854
0.077040775
0.073902407
0.070160154
0.065631956
0.06012094
0.053567405
0.045934623
0.037311344
0.028227574
0.020010979
0.014219151
0.011192362
0.009822181
0.0090787602
0.0084607361
0.0077069411
0.0071504003
0.0065788977
0.0061770896
0.0058428314
0.0056126066
0.0054477779
0.0052927756
0.0051925648
0.0050936817
0.0050255964
0.0049759132
0.0049437881
0.0049271621
0.046088577
0.044696063
0.042976896
0.040930854
0.038415105
0.035368291
0.032009479
0.028265474
0.02416923
0.019840681
0.015636441
0.01230111
0.010415991
0.0095404058
0.0092387791
0.0084945633
0.0078278661
0.0073563543
0.0068628253
0.0064085713
0.0060617689
0.0057563974
0.0055598826
0.0054103306
0.005268357
0.0051749631
0.0050823706
0.0050182728
0.0049708365
0.0049400061
0.0049239227
0.022832988
0.022336627
0.021602723
0.020672468
0.019517288
0.018139103
0.016612792
0.014969422
0.01326287
0.01161856
0.010151902
0.0092208297
0.0088182949
0.0089207474
0.0082709403
0.0077408248
0.0073719757
0.0068989037
0.0065496585
0.0061911393
0.0059505652
0.0056723404
0.0054955384
0.0053696599
0.0052418025
0.0051541723
0.0050691208
0.0050097234
0.004965108
0.0049356946
0.0049206
0.012146808
0.012028713
0.011783768
0.011441642
0.011018304
0.010538668
0.010029143
0.0094886596
0.0089023929
0.0084624283
0.0082599852
0.0081475381
0.0082043281
0.0077659892
0.0076803578
0.0073615707
0.0067898651
0.0065773322
0.0062674796
0.0060275155
0.0058217978
0.0055719411
0.0054391803
0.0053265362
0.0052118453
0.0051320148
0.0050550139
0.0050004611
0.0049588591
0.0049309347
0.0049166837
0.0082354112
0.0082077144
0.0081321894
0.0080271493
0.0078928721
0.0077544239
0.007633842
0.0075247548
0.0074654889
0.0074654925
0.0075507538
0.0074362283
0.007031478
0.0069511169
0.0068424818
0.0065878975
0.0064123729
0.0061428135
0.0059955162
0.0058195834
0.0056777051
0.0054916634
0.0053809089
0.0052772696
0.0051794336
0.0051076146
0.0050389795
0.0049899924
0.0049519087
0.0049256258
0.0049122859
0.006961389
0.0069133853
0.0068810179
0.0068629966
0.0068581901
0.0068555526
0.006873687
0.0068419878
0.0068087167
0.006772162
0.0066492251
0.0065518541
0.0065855237
0.0063941734
0.0062969877
0.0062896059
0.006076736
0.0059521132
0.0057861655
0.0056652717
0.0055626586
0.0054108492
0.0053168836
0.0052349625
0.005146602
0.0050809879
0.005024021
0.0049782719
0.0049444677
0.0049199059
0.0049076196
0.0063773519
0.0063738099
0.006366038
0.0063583038
0.0063694264
0.0063864437
0.006370087
0.0063526716
0.0063030077
0.0061946858
0.0061476748
0.0061110978
0.0060064007
0.0060147188
0.0059347585
0.0058657252
0.0058514318
0.005715854
0.0055845755
0.0055267572
0.0054232759
0.0053376266
0.0052664563
0.0051856307
0.0051127028
0.005054477
0.0050066209
0.0049655519
0.0049362872
0.0049137477
0.0049024293
0.0059549041
0.0059509563
0.0059433102
0.0059244791
0.0058923081
0.0058471007
0.005837689
0.0058289216
0.0058175215
0.0058161819
0.0058114876
0.0058074659
0.0057338006
0.0057366203
0.0057329155
0.0056460888
0.0055565972
0.0054757188
0.0053884561
0.005389764
0.0053334902
0.0052642098
0.0052140489
0.0051413566
0.005082599
0.0050255829
0.0049903175
0.0049526643
0.0049274845
0.0049072207
0.0048970842
0.0055508652
0.0055519886
0.0055501292
0.0055454486
0.0055412126
0.0055468254
0.0055562378
0.0055556204
0.0055495813
0.0055327393
0.005514256
0.0054847137
0.0055144039
0.0054397032
0.0054114719
0.0053912435
0.0053765894
0.005300026
0.0052951237
0.0052643906
0.005222624
0.0051936611
0.0051437778
0.0050867763
0.0050527135
0.0049985342
0.0049688014
0.0049406808
0.0049179128
0.0049004379
0.0048912564
0.0053363723
0.0053374545
0.0053358018
0.0053321291
0.0053254881
0.0053146393
0.0053003773
0.005289252
0.0052849589
0.0052817628
0.0052780584
0.0052806888
0.0052593247
0.0052818315
0.0052502135
0.0052585989
0.0052211062
0.0052285484
0.0052161132
0.0051939821
0.0051452696
0.0051004131
0.0050738913
0.0050398965
0.0050158332
0.0049735912
0.0049511855
0.0049283837
0.0049082746
0.0048935031
0.0048853854
0.0051383129
0.005139829
0.0051395762
0.0051382513
0.0051365989
0.0051351092
0.0051342695
0.0051384961
0.0051426769
0.0051420696
0.0051381774
0.0051287146
0.005123221
0.0051063754
0.0051038316
0.0050912183
0.0050858241
0.0050806699
0.0050708568
0.0050814775
0.0050727829
0.0050476607
0.0050088641
0.0049943326
0.0049721773
0.004953728
0.0049312357
0.0049155875
0.004899092
0.0048865513
0.004879491
0.0050415615
0.0050435574
0.0050439282
0.0050431331
0.0050414831
0.005038912
0.0050349718
0.0050290016
0.0050245988
0.0050218583
0.0050189156
0.0050160546
0.0050141434
0.0050158952
0.0050209782
0.0050137208
0.0050164903
0.0050150678
0.0050095284
0.0050002406
0.0049855745
0.0049786944
0.004974402
0.0049625636
0.0049419911
0.0049308955
0.0049187752
0.0049049104
0.0048904678
0.0048799461
0.0048737245
0.0049585152
0.0049593762
0.0049593571
0.0049589138
0.0049584091
0.0049579828
0.0049576229
0.0049574506
0.0049577905
0.0049587561
0.0049588381
0.0049582516
0.0049585802
0.0049602415
0.0049611537
0.0049619669
0.0049614177
0.0049574432
0.0049428916
0.0049471063
0.0049413195
0.004942682
0.0049398786
0.0049344544
0.0049260731
0.0049187509
0.004906862
0.0048932012
0.0048830896
0.004873779
0.0048683095
0.0049211359
0.0049218847
0.0049219687
0.0049216806
0.0049212607
0.004920747
0.0049200796
0.0049193217
0.0049187744
0.004918725
0.0049203696
0.0049232097
0.0049270737
0.0049304964
0.0049354049
0.0049336385
0.004932755
0.0049311047
0.0049210564
0.0049221749
0.0049243179
0.0049225233
0.004920814
0.0049195162
0.0049162148
0.0049078719
0.0048971747
0.0048866181
0.0048755092
0.0048679751
0.0048639414
0.0048859615
0.0048863057
0.0048864886
0.0048866849
0.0048870232
0.0048875538
0.0048883275
0.0048894453
0.004891279
0.0048946062
0.0048979555
0.0049011457
0.0049032906
0.0049041242
0.0049023545
0.0049031182
0.0049036669
0.0049056734
0.0049107464
0.0049074193
0.0049162972
0.0049117355
0.0049076101
0.0048991505
0.0048990655
0.0048917684
0.0048838477
0.0048763344
0.0048697961
0.0048645522
0.0048620024
0.004872037
0.0048723461
0.0048725812
0.0048728259
0.0048731355
0.0048735141
0.0048739412
0.0048743779
0.0048747649
0.0048753467
0.0048762636
0.0048775201
0.0048789673
0.0048798081
0.0048797292
0.004880116
0.0048813672
0.0048820056
0.0048831471
0.004884523
0.0048844653
0.0048837151
0.0048829618
0.0048835438
0.0048799428
0.0048787542
0.0048752881
0.004870862
0.0048663911
0.0048622827
0.004858147
0.0048660654
0.0048662489
0.0048663957
0.0048665684
0.0048667857
0.0048670554
0.0048673786
0.0048677549
0.0048681549
0.0048684854
0.0048689619
0.0048698449
0.004871094
0.0048714865
0.0048711938
0.0048711743
0.004871567
0.0048716437
0.0048722826
0.0048723839
0.0048729322
0.0048732918
0.0048727899
0.0048730558
0.0048727411
0.0048718231
0.0048704938
0.0048681712
0.0048625364
0.0048585836
0.0048585878
0.0048593081
0.0048594216
0.0048595945
0.0048598281
0.0048601351
0.004860527
0.004861015
0.0048616114
0.0048623275
0.004863175
0.0048641415
0.0048654125
0.0048667384
0.0048669618
0.0048667735
0.0048666907
0.0048667752
0.0048668205
0.0048671859
0.004867399
0.0048682641
0.0048687059
0.0048684024
0.0048687276
0.0048689446
0.0048678682
0.0048667939
0.0048643103
0.0048625333
0.004861625
0.0048600014
0.0008625735
0.0018659928
0.0037440168
0.0065605889
0.01029267
0.015034842
0.020881508
0.027888417
0.036175706
0.045176289
0.055054528
0.065372512
0.075351764
0.083768983
0.088778948
0.087763549
0.077462764
0.056745734
0.032282837
0.015700514
0.0092725348
0.0073482611
0.0064413865
0.0058873876
0.0055710112
0.005359663
0.0052112667
0.0051079466
0.0050355814
0.0049880427
0.0049635805
0.0021138091
0.0042607036
0.0070999684
0.010498624
0.014650832
0.019683575
0.025669344
0.032933818
0.040989216
0.049929678
0.059614673
0.069538784
0.078870864
0.086323972
0.089994789
0.087238019
0.074909919
0.052708267
0.028465873
0.013927543
0.0087750027
0.0071978897
0.0063774627
0.0058554341
0.0055550897
0.0053507582
0.0052059123
0.0051046518
0.0050336353
0.0049869351
0.0049630609
0.003919713
0.0062508887
0.0091272835
0.012730475
0.017204136
0.022644156
0.029159484
0.036644456
0.044922775
0.05399836
0.063605274
0.073207074
0.081934679
0.08845088
0.090808288
0.086356599
0.072133564
0.048827604
0.025494634
0.012753402
0.0084085792
0.0071320763
0.0063489419
0.0058409514
0.0055477823
0.0053466385
0.0052033148
0.0051028779
0.0050323425
0.0049860176
0.004962407
0.0057009311
0.0082595
0.011494329
0.015494646
0.020307354
0.026053509
0.03284329
0.040377358
0.048771344
0.057871098
0.067333566
0.076575225
0.084675312
0.090242902
0.091291232
0.085180623
0.069181528
0.045111861
0.022898397
0.011656491
0.0082023633
0.0070504891
0.0063057249
0.0058181891
0.0055359268
0.0053398749
0.0051990215
0.0051000812
0.005030605
0.0049849661
0.0049616922
0.0074416149
0.010357994
0.013940611
0.018243444
0.023361178
0.029422194
0.036296448
0.044011298
0.052512724
0.061590508
0.070863319
0.079706406
0.087149041
0.09174997
0.091489677
0.083754268
0.066098477
0.041539186
0.020599921
0.010932758
0.0079940432
0.006992043
0.0062777608
0.0058037905
0.0055284337
0.0053355529
0.0051962056
0.0050981512
0.0050292386
0.0049840205
0.004960964
0.0092857377
0.012504003
0.016363475
0.020941529
0.026401046
0.032677461
0.039731426
0.047600734
0.056162794
0.065173762
0.074217541
0.082627729
0.089385736
0.093004475
0.091438435
0.082108688
0.062931731
0.038117996
0.018583292
0.010209973
0.0078528021
0.0069324619
0.0062443508
0.0057858982
0.0055188485
0.0053299752
0.0051925606
0.0050957122
0.0050276433
0.0049830026
0.0049602209
0.011073841
0.014579665
0.018739366
0.023652235
0.029379864
0.03585434
0.043116242
0.051115968
0.059706803
0.068618975
0.077403172
0.085353006
0.091405342
0.094032122
0.091167733
0.080283792
0.05972633
0.03490012
0.016857536
0.0097317309
0.0077227262
0.0068826568
0.0062191058
0.0057727733
0.0055117514
0.005325801
0.0051897589
0.0050937679
0.0050262606
0.0049820445
0.0049594707
0.012805421
0.016628924
0.021102892
0.026361979
0.032302764
0.038999471
0.046439355
0.054541267
0.063134849
0.071922836
0.08042338
0.087892191
0.093224929
0.094857197
0.090707726
0.078316821
0.056519908
0.031927278
0.015457073
0.009302916
0.007623146
0.006835023
0.0061926272
0.0057585485
0.0055038396
0.005321109
0.0051865945
0.0050915935
0.0050247698
0.0049810499
0.0049587126
0.014533542
0.018656636
0.023450973
0.028977388
0.035162543
0.042077177
0.04967844
0.057863218
0.066438937
0.075082373
0.083280992
0.090254881
0.094861777
0.095505822
0.090097067
0.076247569
0.053371407
0.029235647
0.014285994
0.0089942941
0.0075328566
0.0067927478
0.0061709667
0.0057472407
0.0054974316
0.005317272
0.0051839405
0.0050897161
0.0050234072
0.0049800904
0.0049579478
0.016208173
0.020635124
0.025753068
0.031513425
0.037954185
0.04507691
0.052823175
0.061072898
0.06961301
0.078095828
0.085979881
0.092451813
0.096334642
0.096004964
0.089375952
0.074130404
0.050318293
0.026844573
0.013358912
0.0087657016
0.0074578414
0.0067532788
0.0061498337
0.0057359528
0.0054908525
0.0053132984
0.0051811691
0.0050877559
0.0050220031
0.0049791147
0.0049571765
0.017866587
0.02258918
0.027986939
0.033992505
0.040677706
0.047990011
0.055864011
0.064162334
0.072652227
0.0809628
0.088525396
0.094495406
0.097664245
0.096383362
0.088578067
0.072006529
0.047398348
0.024762985
0.012585712
0.0085766303
0.007389145
0.0067175515
0.0061318783
0.0057266
0.0054852704
0.0053098959
0.0051787353
0.005085988
0.0050206832
0.0049781615
0.0049563989
0.019481367
0.024501339
0.030146558
0.036408788
0.043320386
0.050804645
0.05879165
0.067124456
0.075552943
0.083684263
0.090924417
0.096399664
0.098871807
0.096673177
0.087738133
0.069915298
0.044657553
0.022990585
0.011987705
0.0084323898
0.0073296457
0.0066846325
0.0061151063
0.005717736
0.0054798411
0.0053065556
0.0051763128
0.0050842144
0.0050193583
0.0049772036
0.0049556153
0.021071812
0.026362909
0.03225014
0.038753078
0.045860469
0.053510372
0.061597114
0.069953253
0.078312847
0.086262647
0.093185149
0.098179275
0.099978107
0.096898475
0.086889593
0.067898375
0.042128154
0.021509767
0.011516901
0.0083154953
0.0072755324
0.0066547302
0.0061006467
0.0057102497
0.0054751475
0.0053036428
0.0051741377
0.0050825779
0.0050180952
0.004976262
0.0049548259
0.022633187
0.028168787
0.03429361
0.041016372
0.048293337
0.056101454
0.064272194
0.072642746
0.080930786
0.088702808
0.095317539
0.099850976
0.101006
0.097087344
0.086062871
0.065984925
0.039835483
0.020302111
0.01117219
0.0082243602
0.0072281223
0.0066274457
0.0060875488
0.0057034248
0.0054707626
0.0053008985
0.0051720405
0.005080976
0.0050168475
0.0049753221
0.004954031
0.024171836
0.029924466
0.036269996
0.04319395
0.05064651
0.058545843
0.066812455
0.07519098
0.08340622
0.091010405
0.097331395
0.10142962
0.10198127
0.097276825
0.085303518
0.0641977
0.037796365
0.019348423
0.010938261
0.0081522093
0.0071861298
0.0066027846
0.0060762578
0.0056976951
0.0054669636
0.0052985096
0.0051701425
0.0050794821
0.0050156512
0.0049743964
0.0049532296
0.025666661
0.031624696
0.038169728
0.045272607
0.052877095
0.060893312
0.069186493
0.077587207
0.085734081
0.09317761
0.09923465
0.1029321
0.10292756
0.097499253
0.084652884
0.062566855
0.03602161
0.018635839
0.010763836
0.0080936677
0.0071501949
0.0065805726
0.0060662954
0.0056927413
0.005463526
0.0052963444
0.0051683556
0.0050780437
0.0050144833
0.0049734781
0.0049524202
0.027071384
0.033229127
0.039959722
0.047225798
0.054963948
0.06307916
0.071420812
0.079789932
0.087882959
0.095206868
0.10102683
0.10437109
0.10386598
0.097784403
0.084148389
0.061155828
0.034559242
0.018036646
0.010585614
0.0080430599
0.0071197492
0.0065608156
0.0060577019
0.0056888884
0.005460576
0.0052944946
0.0051667408
0.0050766984
0.0050133614
0.0049725725
0.004951603
0.028352387
0.034677265
0.041570376
0.048984815
0.056852744
0.065067346
0.073474944
0.081857349
0.089886686
0.097067017
0.10270422
0.10575739
0.10481601
0.098159049
0.083822281
0.060020301
0.033386846
0.017535799
0.010434861
0.0080034944
0.0070947184
0.0065434804
0.0060502673
0.0056859482
0.0054579991
0.0052928927
0.0051652532
0.0050754203
0.0050122736
0.0049716764
0.0049507783
0.029698798
0.036099535
0.043080698
0.050591962
0.058552263
0.066847347
0.0753144
0.083723405
0.091731704
0.098830948
0.10429787
0.10707263
0.10579231
0.098646444
0.083701889
0.059198518
0.032484844
0.017114771
0.010297482
0.0079731837
0.0070745019
0.0065286196
0.0060440889
0.0056839528
0.005455858
0.0052915833
0.0051639243
0.0050742291
0.0050112295
0.0049707927
0.0049499467
0.031039396
0.037490121
0.044516406
0.052076397
0.060089002
0.068436285
0.076948109
0.085384559
0.093388507
0.10043997
0.10579551
0.10839076
0.10681257
0.099237787
0.083808392
0.058718958
0.031841237
0.016758363
0.010176234
0.0079530302
0.0070588912
0.0065162735
0.0060391567
0.0056827272
0.0054541121
0.0052905354
0.0051627343
0.0050731135
0.0050102234
0.0049699196
0.0049491087
0.032351667
0.038815319
0.045849877
0.053421675
0.061452211
0.069827174
0.078370432
0.086835934
0.094852284
0.10189118
0.10718899
0.10966836
0.10788654
0.10001513
0.084148729
0.058604055
0.031455614
0.016445461
0.010065262
0.0079425328
0.0070478765
0.0065065292
0.0060355639
0.0056822867
0.0054528053
0.0052897724
0.0051617003
0.005072083
0.0050092588
0.0049690577
0.0049482649
0.033622644
0.040059509
0.047062855
0.054610692
0.062625785
0.071013179
0.079603909
0.088124715
0.096193297
0.10324211
0.10850651
0.11091753
0.1090143
0.10094527
0.084771105
0.058881322
0.031351542
0.016147838
0.0099615199
0.0079420732
0.0070416817
0.0064994617
0.006033315
0.0056825057
0.0054519172
0.0052892704
0.0051608081
0.005071127
0.0050083289
0.0049682037
0.0049474157
0.034864347
0.041205496
0.048121292
0.055607387
0.063619895
0.072035071
0.080664808
0.089220886
0.097312171
0.10439743
0.10969582
0.11212017
0.11019428
0.10203478
0.085658021
0.059574718
0.031509572
0.015831759
0.0098597514
0.0079490274
0.0070401693
0.0064950081
0.0060323261
0.0056832598
0.0054514298
0.0052890034
0.0051600481
0.0050702398
0.0050074294
0.0049673556
0.0049465606
0.036070663
0.042213112
0.048941122
0.056277304
0.064200621
0.072579758
0.081215278
0.089821718
0.097998807
0.10518188
0.1105827
0.11309808
0.11123141
0.10307709
0.086593852
0.060413798
0.031946374
0.015403106
0.0097690435
0.0079671996
0.007041667
0.0064927061
0.0060323459
0.0056847281
0.0054512383
0.0052889312
0.0051593918
0.0050694079
0.0050065547
0.0049665133
0.0049456995
0.00088540375
0.0018055408
0.0035748492
0.006240467
0.0097882181
0.01424617
0.01976528
0.026456026
0.034474321
0.043283999
0.053050473
0.063357931
0.07346791
0.082222436
0.087829612
0.087707779
0.078534783
0.058657022
0.033996953
0.016254901
0.0094185784
0.0073883735
0.0064567362
0.0058951397
0.0055752451
0.0053618581
0.0052128616
0.0051092353
0.0050365549
0.0049887576
0.0049638293
0.00093927945
0.0018550662
0.0035950402
0.0061853253
0.0096360425
0.014020182
0.019454708
0.026038048
0.033915707
0.042634893
0.052250212
0.062434042
0.072520311
0.081351511
0.087172397
0.087436832
0.07886045
0.059539686
0.034907139
0.016642933
0.0095116509
0.0074105249
0.006464562
0.0058990638
0.005577458
0.0053635116
0.0052140991
0.0051101927
0.0050372685
0.0049892601
0.0049640838
0.0010049401
0.0019087215
0.003624258
0.0061663531
0.0095485702
0.013843892
0.019164208
0.025612552
0.033313721
0.041906446
0.051397642
0.061489285
0.071540694
0.0804416
0.086473417
0.087129059
0.079163507
0.060437423
0.035875301
0.017079968
0.0096138615
0.0074355774
0.0064742828
0.0059042026
0.0055804087
0.0053645762
0.0052149701
0.005111045
0.0050379759
0.0049898298
0.0049644281
0.0010835099
0.0019677671
0.0036546314
0.0061466111
0.0094589464
0.013664184
0.018870243
0.02518487
0.03270784
0.041166577
0.050527454
0.060518609
0.070528488
0.07949145
0.085730204
0.086780815
0.079438366
0.061346906
0.036900681
0.017565582
0.0097280935
0.0074586437
0.0064812866
0.0059075493
0.0055823461
0.0053670167
0.0052166638
0.0051122321
0.0050388201
0.0049903945
0.0049648185
0.00117737
0.0020364248
0.0036864921
0.0061263392
0.0093684984
0.01348288
0.018573824
0.024745459
0.032097646
0.040416506
0.049640476
0.059522376
0.069483796
0.078500602
0.084941294
0.086389554
0.079681373
0.062270051
0.037980787
0.018100072
0.0098540813
0.0074902049
0.0064947983
0.0059150032
0.0055866762
0.0053679525
0.0052176079
0.0051131963
0.0050396279
0.0049910166
0.0049651885
0.0012908411
0.0021155025
0.0037277103
0.0061131924
0.0092830891
0.013304468
0.018278215
0.024305306
0.031485081
0.039658444
0.048738821
0.058504172
0.068408298
0.077470225
0.084106854
0.08595417
0.079885387
0.063198973
0.0391049
0.018695336
0.0099986864
0.0075154666
0.0065017409
0.005918326
0.0055886325
0.0053698095
0.0052190251
0.0051143605
0.0050405311
0.004991679
0.0049654703
0.0014277618
0.0022173946
0.0037745058
0.0061013221
0.0091977712
0.013125671
0.017982179
0.023867473
0.030871081
0.038896222
0.047825713
0.057466897
0.067303804
0.076400873
0.083225099
0.085469691
0.080038833
0.064115597
0.040272951
0.019343546
0.010159625
0.0075456991
0.0065120606
0.005923788
0.0055919547
0.005371801
0.0052205535
0.0051155926
0.0050414853
0.0049923798
0.0049658177
0.0015962765
0.0023360064
0.0038389469
0.0061030692
0.0091242144
0.012957617
0.017696063
0.023438207
0.030267232
0.038133703
0.046906734
0.05641456
0.066171002
0.075291881
0.082291757
0.084927032
0.080147047
0.065020222
0.041519205
0.020055843
0.010339457
0.0075777028
0.0065230668
0.0059297265
0.0055955176
0.0053739055
0.0052221402
0.005116878
0.0050424938
0.0049931226
0.0049663587
0.0018007129
0.0024790141
0.0039207874
0.0061185944
0.0090626586
0.012800604
0.017420388
0.023019379
0.029681851
0.037376476
0.045984871
0.055350711
0.065015129
0.074148147
0.081311621
0.084329915
0.080203097
0.065904726
0.042825265
0.020837196
0.010540617
0.0076116141
0.0065338989
0.0059355748
0.0055992127
0.0053761686
0.0052238855
0.0051182427
0.005043558
0.0049938986
0.0049671383
0.0020525024
0.0026626444
0.0040300879
0.0061535324
0.0090169845
0.012658222
0.017158767
0.022612989
0.029094249
0.036625598
0.045064502
0.054280582
0.063852365
0.072973648
0.080285972
0.083676331
0.080202014
0.066769466
0.044179312
0.021692822
0.010765735
0.0076480631
0.0065459185
0.005942342
0.0056033577
0.0053786052
0.0052256722
0.0051196493
0.0050446791
0.0049947205
0.0049678542
0.0023543463
0.0028852388
0.0041655832
0.0062098312
0.0089902769
0.012533875
0.016914737
0.02222276
0.028525319
0.035884726
0.044150402
0.053208728
0.062671237
0.071771432
0.079216706
0.082965229
0.080138933
0.067601831
0.045576056
0.022628438
0.011017882
0.0076866213
0.0065572661
0.0059487278
0.0056074916
0.0053811995
0.0052276937
0.0051211605
0.0050458624
0.0049955788
0.0049685219
0.0027102877
0.0031594072
0.0043496466
0.0062955967
0.0089864057
0.012430872
0.016692061
0.021854525
0.027988979
0.035164722
0.043249009
0.052140706
0.06147911
0.07054553
0.07810645
0.082196381
0.080008882
0.068381713
0.046982437
0.023643169
0.011300508
0.0077294362
0.0065704151
0.0059566343
0.00561248
0.0053841217
0.0052297249
0.0051226835
0.0050470982
0.004996492
0.0049692493
0.0031208665
0.003487067
0.0045636693
0.0064131807
0.0090095931
0.012353164
0.016494981
0.021513354
0.027482078
0.034475306
0.042368615
0.051083295
0.060285273
0.069300307
0.076958525
0.081370397
0.079807905
0.069100217
0.048377983
0.024738468
0.011617403
0.0077747625
0.0065827803
0.005964149
0.0056171908
0.0053871032
0.0052320861
0.0051243582
0.0050484071
0.0049974394
0.0049700513
0.0035813179
0.003870269
0.0048285282
0.0065683443
0.0090640307
0.012304783
0.016327958
0.021203966
0.027005957
0.033794579
0.04151041
0.050042795
0.059095887
0.068034188
0.075776781
0.080488858
0.079533178
0.069748927
0.049767678
0.025915917
0.011971812
0.0078263053
0.0065970721
0.005973337
0.0056232937
0.0053907305
0.005234426
0.0051259868
0.0050497515
0.0049984476
0.0049708978
0.0040840755
0.0043111334
0.0051577859
0.0067737919
0.0091591289
0.012293065
0.016197499
0.020932238
0.026568082
0.033157756
0.040688572
0.049028324
0.05792058
0.066778962
0.074569167
0.07955477
0.079182803
0.070317388
0.05114319
0.027168983
0.012370216
0.0078846306
0.006612113
0.0059835337
0.0056290536
0.005394171
0.0052371883
0.0051278522
0.0050511911
0.004999489
0.0049717835
0.0046137987
0.0047977331
0.0055413388
0.0070311182
0.0093003224
0.012324686
0.016111408
0.020706114
0.026177295
0.032579126
0.039920034
0.048051308
0.056769311
0.065535033
0.073343164
0.078572558
0.078756473
0.07079424
0.052496171
0.028499248
0.01281035
0.0079445275
0.0066282274
0.005993845
0.0056362897
0.0053987496
0.0052399393
0.0051295797
0.0050526307
0.0050005933
0.0049727051
0.0051569852
0.0053210083
0.0059832947
0.0073574686
0.0095041603
0.012413971
0.016081588
0.020537717
0.025841467
0.032054195
0.039171073
0.047111539
0.055648419
0.064290896
0.072104684
0.077548003
0.078256778
0.071172737
0.053814221
0.029878728
0.013310335
0.0080318211
0.0066483152
0.006009166
0.0056443096
0.0054028473
0.00524315
0.0051316731
0.0050542066
0.0050017354
0.0049736603
0.0056925757
0.0058681577
0.0064865284
0.007760541
0.0097931914
0.012584697
0.016128308
0.020443998
0.025575065
0.031596733
0.038496875
0.04624431
0.05457405
0.063071723
0.070863313
0.076488409
0.077689096
0.071459969
0.055098867
0.031359657
0.013853051
0.0081152863
0.0066700922
0.0060212472
0.0056522029
0.0054085178
0.0052464652
0.0051335154
0.005055725
0.0050029296
0.0049746459
0.0062039994
0.0064160896
0.0070269572
0.0082370008
0.010171961
0.012849773
0.016267901
0.020441623
0.025394577
0.031224433
0.037914786
0.045434273
0.053554332
0.061887557
0.069618911
0.075400584
0.07705636
0.071659847
0.056337463
0.032878989
0.014475167
0.0082435575
0.0066972756
0.0060429484
0.0056643405
0.0054138304
0.005250143
0.0051358673
0.0050574407
0.0050041744
0.0049756604
0.0067166504
0.0069911707
0.007630414
0.0088149521
0.010667384
0.01323527
0.016525144
0.020552137
0.025321704
0.030952436
0.037419453
0.044678348
0.05259239
0.060749521
0.068406442
0.074296308
0.076362689
0.071761433
0.057491119
0.034401904
0.015145715
0.0083685086
0.0067314391
0.0060613634
0.0056728441
0.0054204608
0.0052542139
0.0051379054
0.005059027
0.0050054412
0.0049767043
0.0072977141
0.0076536594
0.0083484371
0.009535914
0.011322507
0.013784392
0.016938371
0.020806428
0.025383726
0.030802003
0.037037214
0.044055969
0.051742571
0.059681416
0.067240936
0.073189055
0.075616767
0.071767584
0.058555408
0.035978317
0.015897089
0.0085226534