/*--------------------------------*- C++ -*----------------------------------*\
| =========                 |                                                 |
| \\      /  F ield         | OpenFOAM: The Open Source CFD Toolbox           |
|  \\    /   O peration     | Version:  2406                                  |
|   \\  /    A nd           | Website:  www.openfoam.com                      |
|    \\/     M anipulation  |                                                 |
\*---------------------------------------------------------------------------*/
FoamFile
{
    version     2.0;
    format      ascii;
    arch        "LSB;label=32;scalar=64";
    class       volScalarField;
    location    "0.05";
    object      k;
}
// * * * * * * * * * * * * * * * * * * * * * * * * * * * * * * * * * * * * * //

dimensions      [0 2 -2 0 0 0 0];

internalField   nonuniform List<scalar> 
2065
(
18.833339
14.531015
10.803027
457.05459
401.18229
346.88516
296.17929
250.33756
209.95835
175.08229
145.38702
120.3514
99.383533
81.893015
67.340611
55.249753
45.203035
36.834835
29.831049
23.925217
18.905726
14.594567
10.855196
405.54792
471.07223
529.72843
578.14808
612.76674
631.01888
634.44431
621.8409
594.48433
555.13496
507.26772
454.45444
400.00273
346.68501
296.56198
251.02169
210.74241
175.84542
146.06808
120.92852
99.855897
82.272523
67.641388
55.486216
45.38818
36.979913
29.945612
24.017253
18.98284
14.662195
10.911772
401.96288
462.82377
517.82165
563.7113
597.30234
615.77456
620.19297
609.54664
584.62846
547.84179
502.34034
451.50867
398.57304
346.30989
296.84961
251.66194
211.51559
176.61653
146.76612
121.52535
100.34727
82.669282
67.956923
55.734967
45.583416
37.133261
30.067001
24.115036
19.064945
14.734132
10.973126
398.24755
454.52319
505.87947
549.22608
581.69032
600.27055
605.57747
596.79859
574.27313
540.05128
496.96784
448.20008
396.8734
345.75318
297.02632
252.2471
212.27033
177.39098
147.47855
122.14067
100.85768
83.083208
68.287369
55.996259
45.789039
37.29518
30.195518
24.218862
19.152316
14.810623
11.039733
394.50762
446.31905
494.05857
534.84974
566.01603
584.58954
590.67061
583.64902
563.44865
531.77499
491.14607
444.51433
394.88518
344.99652
297.07463
252.76521
212.99824
178.16345
148.20227
122.7729
101.38686
83.514027
68.632788
56.270293
46.005311
37.46596
30.331458
24.329027
19.245233
14.891919
11.11296
390.86575
438.33032
482.48147
520.68307
550.41119
568.82869
575.55281
570.15855
552.19375
523.03187
484.87615
440.44026
392.59148
344.02269
296.99658
253.20399
213.69017
178.9279
148.93366
123.42002
101.93329
83.961256
68.993137
56.557206
46.232464
37.645872
30.475111
24.445833
19.343982
14.978252
11.181147
387.40257
430.62978
471.23842
506.81474
534.98599
553.08689
560.30985
556.39507
540.55533
513.84803
478.16433
435.97057
389.97747
342.8137
296.76252
253.5493
214.3361
179.67758
149.66851
124.07963
102.49545
84.424164
69.368255
56.857063
46.470682
37.835162
30.626756
24.569578
19.448859
15.069884
11.254725
384.12244
423.27055
460.40589
493.32705
519.83768
537.4609
545.03068
542.43253
528.58744
504.25555
471.02394
431.10361
387.03112
341.35185
296.34205
253.78563
214.9252
180.40507
150.40204
124.74891
103.07189
84.902584
69.757848
57.169851
46.720101
38.034049
30.786657
24.700564
19.560163
15.167067
11.334712
381.08917
416.32049
450.04355
480.29655
505.05728
522.04552
529.80658
528.34982
516.35108
494.29502
463.47507
425.84209
383.7437
339.62249
295.73171
253.89722
215.4461
181.10229
151.12893
125.42462
103.66082
85.396186
70.161421
57.49546
46.9808
38.242719
30.95506
24.839083
19.678191
15.270035
11.421811
378.30744
409.77996
440.1857
467.78183
490.72244
506.92829
514.72653
514.22819
503.91248
484.01329
455.54379
420.19461
380.11033
337.61307
294.91663
253.87371
215.88741
181.76051
151.84326
126.10306
104.26001
85.9032
70.57826
57.833679
47.25279
38.461316
31.132193
24.985422
19.803234
15.378995
11.516837
375.72767
403.63489
430.84232
455.81626
476.88617
492.17512
499.89053
500.14474
491.34005
473.46261
447.26347
414.17418
376.12886
335.31336
293.88404
253.72143
216.23776
182.37043
152.5386
126.78006
104.86695
86.421756
71.007397
58.18419
47.536014
38.689942
31.31826
25.139852
19.935572
15.494116
11.622127
373.25932
397.81724
421.97313
444.38974
463.56739
477.83482
485.38226
486.17363
478.70162
462.69753
438.67008
407.79872
371.80256
332.71566
292.61833
253.38547
216.48219
182.92212
153.20803
127.45103
105.47879
86.950321
71.448567
58.546561
47.830339
38.928649
31.513435
25.302624
20.07547
15.615479
11.709708
370.82137
392.25781
413.5295
433.48207
450.78202
463.95795
471.2234
472.3852
466.06259
451.77306
429.80298
401.09139
367.13912
329.81564
291.10851
252.87027
216.60664
183.40539
153.84412
128.111
106.09242
87.487069
71.901368
58.920172
48.135545
39.177432
31.717859
25.473967
20.22317
15.743263
11.804262
368.31976
386.87154
405.44419
423.05173
438.51982
450.55374
457.43461
458.82873
453.47978
440.74208
420.70396
394.07844
362.14947
326.6123
289.34607
252.16573
216.59777
183.81034
154.43916
128.7546
106.70433
88.029819
72.363892
59.304199
48.451314
39.436226
31.931634
25.654079
20.378886
15.877597
11.907262
365.56392
381.50505
397.6016
413.02059
426.73844
437.59398
444.01669
445.53259
440.99762
429.65209
411.4141
386.78856
356.84818
323.10763
287.32498
251.26384
216.47552
184.12852
154.9852
129.37616
107.31077
88.576173
72.834267
59.697591
48.777234
39.704903
32.15482
25.843121
20.542785
16.018523
12.019813
362.56166
376.11917
389.94195
403.32554
415.37937
425.06419
430.96802
432.51388
428.65012
418.54446
401.97277
379.25221
351.25163
319.30558
285.04067
250.15189
216.18567
184.34667
155.47386
129.96966
107.90771
89.123587
73.311078
60.100136
49.112788
39.983272
32.387422
26.041205
20.714979
16.16597
12.143364
359.21648
370.62317
382.3759
393.88297
404.37372
412.92303
418.27053
419.7749
416.45924
407.45249
392.41483
371.49731
345.37903
315.21501
282.4915
248.82138
215.72774
184.45219
155.89664
130.52896
108.49091
89.669328
73.792649
60.511263
49.457254
40.271062
32.629388
26.248385
20.895503
16.319709
12.282338
355.49164
365.00029
374.89078
384.67804
393.70573
401.15969
405.9224
407.3236
404.446
396.40652
382.77346
363.55365
339.25141
310.84614
279.67841
247.2672
215.09992
184.43706
156.24585
131.04783
109.05593
90.210461
74.277069
60.929077
49.80966
40.56792
32.880591
26.464632
21.084294
16.479028
12.367858
351.36654
359.20744
367.43747
375.66447
383.33706
389.74724
393.91107
395.15961
392.62442
385.4315
373.07878
355.45001
332.89059
306.21145
276.60502
245.48661
214.29769
184.31938
156.51562
131.5201
109.5982
90.743895
74.762354
61.352217
50.169803
40.873405
33.140812
26.689808
21.281153
16.643615
12.45756
346.76854
353.18734
359.96923
366.80482
373.23977
378.66804
382.2309
383.28681
381.01007
374.55225
363.36036
347.2152
326.31971
301.32622
273.27768
243.47806
213.31087
184.05008
156.69457
131.93911
110.11304
91.266407
75.246434
61.779439
50.537526
41.186891
33.409721
26.923649
21.485695
16.812866
12.552357
341.62173
346.87801
352.44096
358.07057
363.39977
367.91976
370.89014
371.71998
369.62517
363.79708
353.64986
338.88036
319.56545
296.20706
269.70314
241.24136
212.13411
183.63464
156.77221
132.29824
110.59569
91.774665
75.727082
62.209246
50.911292
41.507488
33.686863
27.165733
21.697306
16.985751
12.652073
335.85376
340.19183
344.76327
349.38255
353.75627
357.46366
359.87307
360.46015
358.48544
353.19194
343.97837
330.4764
312.6534
290.87326
265.89281
238.77932
210.765
183.07232
156.74814
132.59222
111.04146
92.265251
76.201948
62.640075
51.289695
41.835011
33.971646
27.415492
21.915127
17.161011
12.753711
329.35534
333.02513
336.84204
340.6609
344.248
347.25957
349.16225
349.50748
347.60644
342.76313
334.37785
322.03578
305.61226
285.34676
261.8601
236.09719
209.20312
182.36077
156.63297
132.817
111.44569
92.734652
76.668589
63.070312
51.671727
42.169149
34.26317
27.672179
22.138033
17.337059
12.849473
322.07735
325.30131
328.587
331.81559
334.79684
337.24926
338.72444
338.85081
336.99669
332.53365
324.8796
313.59212
298.47294
279.65145
257.62016
233.20188
207.44818
181.49103
156.38402
132.96246
111.80302
93.179179
77.124452
63.498214
52.056179
42.508493
34.560987
27.934833
22.364716
17.511922
12.933259
314.04202
316.9971
319.94094
322.76954
325.32153
327.36073
328.51187
328.46281
326.65171
322.51766
315.51007
305.17716
291.26611
273.81221
253.18997
230.10209
205.50161
180.46024
156.01331
133.01946
112.10791
93.594983
77.566859
63.921922
52.441744
42.851821
34.864722
28.202213
22.593724
17.683484
12.999612
305.33181
308.1407
310.88926
313.47465
315.75349
317.5179
318.45971
318.29705
316.54807
312.71382
306.28494
296.81642
284.01987
267.85398
248.58764
226.80773
203.36607
179.26647
155.51732
132.99197
112.35651
93.978228
77.992988
64.339452
52.826906
43.198044
35.172939
28.473459
22.823513
17.849721
13.045037
296.08395
298.81603
301.46412
303.92299
306.05286
307.66623
308.49926
308.29882
306.64776
303.10487
297.2063
288.52606
276.75733
261.79988
243.82979
223.32746
201.04415
177.9083
154.89349
132.88413
112.5453
94.324909
78.39982
64.748709
53.210542
43.545939
35.484111
28.747534
23.052342
18.009018
13.071802
286.42366
289.11851
291.7215
294.12895
296.20276
297.7638
298.57459
298.4103
296.90227
293.65898
288.26122
280.30921
269.49151
255.66579
238.93162
219.67195
198.53931
176.38296
154.13141
132.6587
112.66388
94.629799
78.783958
65.147383
53.590623
43.894156
35.796975
29.02259
23.278903
18.1602
13.088443
276.44317
279.12104
281.71212
284.11384
286.19246
287.7768
288.63673
288.57416
287.25637
284.33216
279.42218
272.15526
262.2251
249.46198
233.90446
215.84903
195.85422
174.68801
153.22614
132.32497
112.701
94.886958
79.14164
65.532933
53.965404
44.241211
36.110089
29.296907
23.501698
18.302448
13.11071
266.20215
268.86988
271.46593
273.8892
276.01031
277.66707
278.63773
278.73065
277.64858
275.07011
270.64895
264.04093
254.95018
243.19093
228.75473
211.86439
192.99112
172.82146
152.17331
131.87871
112.66715
95.093594
79.469227
65.902617
54.33289
44.585446
36.421837
29.568766
23.718543
18.43397
13.124217
255.78032
258.43321
261.0357
263.49004
265.67201
267.42663
268.54756
268.83552
268.02705
265.81982
261.89534
255.93262
247.64762
236.84589
223.48349
207.72164
189.95207
170.78218
150.96923
131.31498
112.55522
95.245212
79.76276
66.253447
54.690879
44.925025
36.730445
29.836317
23.92751
18.552842
13.106768
245.31125
247.93367
250.52919
253.00595
255.24651
257.10362
258.38745
258.89001
258.37826
256.56048
253.13896
247.81225
240.30761
230.42588
218.09576
203.42591
186.73936
168.56942
149.60933
130.62283
112.33533
95.331481
80.017007
66.582081
55.036985
45.257981
37.034025
30.097596
24.126596
18.657349
13.065499
234.96745
237.53788
240.10416
242.58219
244.86279
246.80772
248.24288
248.95657
248.74077
247.31336
244.39125
239.68823
232.93961
223.9426
212.60435
198.99092
183.36438
166.18851
148.09321
129.79884
112.01476
95.338153
80.22565
66.88493
55.368744
45.582315
37.330668
30.350604
24.313672
18.745742
12.985589
224.86513
227.3638
229.87869
232.33461
234.63148
236.64113
238.20443
239.11229
239.1758
238.12454
235.68477
231.58201
225.55927
217.4104
207.02457
194.43156
179.83922
163.64727
146.42398
128.84359
111.59586
95.292284
80.390131
67.159615
55.683895
45.896155
37.618632
30.593541
24.486856
18.814576
12.832844
215.07452
217.48757
219.93463
222.34907
224.64019
226.69049
228.35244
229.43546
229.7454
229.04294
227.06007
223.52868
218.19726
210.85718
201.3822
189.77071
176.18365
160.96087
144.61039
127.75988
111.07452
95.167717
80.504803
67.403174
55.980281
46.197874
37.896581
30.82522
24.645246
18.866446
12.702701
205.56667
207.88805
210.25909
212.62086
214.89198
216.96562
218.70617
219.9412
220.47405
220.09317
218.53606
215.54457
210.86994
204.30105
195.69719
185.02887
172.41438
158.1405
142.65913
126.54922
110.44587
94.95353
80.56122
67.611536
56.25559
46.486077
38.163711
31.045466
24.789378
18.901382
12.645504
196.3117
198.53712
200.82573
203.12565
205.36447
207.44595
209.24647
210.61097
211.34365
211.25769
210.09981
207.6182
203.56736
197.73352
189.96361
180.20342
168.53232
155.18883
140.57178
125.21097
109.70802
94.655107
80.552948
67.780172
56.507203
46.759369
38.419483
31.254536
24.920854
18.919533
12.516481
187.30832
189.43331
191.63263
193.86101
196.05465
198.12758
199.96803
201.43535
202.34753
202.52343
201.7317
199.7266
196.2674
191.13561
184.16744
175.28526
164.53317
152.10389
138.34597
123.7421
108.85864
94.273229
80.498552
67.910469
56.733265
47.016177
38.663077
31.452267
25.040558
18.923977
12.369412
178.61816
180.63643
182.73725
184.88178
187.01428
189.05868
190.91481
192.45514
193.5166
193.91832
193.45528
191.88824
188.98
184.51157
178.30827
170.27133
160.41254
148.88278
135.98039
122.14022
107.89328
93.798666
80.369355
67.994899
56.930129
47.254175
38.893054
31.637785
25.147818
18.916175
12.199656
170.25036
172.15882
174.15555
176.20761
178.26673
180.26605
182.11648
183.70323
184.8811
185.47268
185.29686
184.12281
181.72149
177.87349
172.39418
165.16725
156.17438
145.52479
133.47054
120.40021
106.80553
93.222405
80.157759
68.018104
57.090682
47.469662
39.107168
31.809444
25.241181
18.894863
12.024141
162.25081
164.04841
165.93781
167.89125
169.86715
171.80712
173.63238
175.2403
176.50154
177.24846
177.31614
176.4884
174.54381
171.26473
166.46224
160.00265
151.84009
142.04525
130.82597
118.5253
105.59449
92.542678
79.868712
67.993062
57.213855
47.659424
39.302579
31.964831
25.317447
18.852449
11.811503
154.53505
156.22492
158.00868
159.8631
161.75256
163.62634
165.41514
167.02769
168.34764
169.22551
169.49935
168.97716
167.44425
164.68889
160.51762
154.78274
147.41465
138.44934
128.0515
116.51837
104.26062
91.758755
79.500318
67.914074
57.297489
47.820349
39.475929
32.100646
25.372661
18.78342
11.557145
147.18484
148.76806
150.44574
152.19852
153.99611
155.79466
157.53354
159.13196
160.48589
161.46279
161.90595
161.64555
160.47578
158.19146
154.59817
149.53935
142.92384
134.75596
125.16006
114.38792
102.80798
90.869608
79.043882
67.756973
57.326563
47.945896
39.62289
32.212589
25.400874
18.680048
11.253698
140.06766
141.54915
143.12473
144.77848
146.48481
148.20602
149.88932
151.46359
152.83625
153.89034
154.47599
154.44375
153.59796
151.74178
148.68376
144.25957
138.35954
130.95998
122.1461
112.12732
101.2306
89.870121
78.496443
67.531871
57.308731
48.034315
39.740404
32.297608
25.39895
18.538153
10.887735
133.34675
134.72794
136.2016
137.75477
139.36594
141.00285
142.61974
144.15426
145.5244
146.62578
147.3238
147.47605
146.90678
145.4266
142.84824
139.00324
133.76914
127.0968
119.03613
109.75488
99.538028
88.764038
77.859647
67.239922
57.2473
48.087203
39.828167
32.3561
25.375695
18.363441
10.48516
126.78896
128.07621
129.45393
130.9117
132.43159
133.9862
135.53607
137.02679
138.38608
139.52096
140.31247
140.62386
140.29966
139.15893
137.02057
133.71572
129.11089
123.13444
115.80573
107.25318
97.718583
87.542163
77.124353
66.867682
57.114224
48.085813
39.879922
32.383473
25.318336
18.159782
10.042532
120.67538
121.87083
123.1538
124.51598
125.94254
127.41023
128.88512
130.31989
131.65101
132.79599
133.64996
134.08342
133.95906
133.10591
131.35081
128.52668
124.49282
119.16137
112.52329
104.67003
95.802584
86.222386
76.299615
66.420501
56.925784
48.053681
39.894493
32.378934
25.231559
17.929888
9.5918821
114.60561
115.71649
116.91194
118.18551
119.52506
120.91108
122.31457
123.6946
124.99565
126.14491
127.04989
127.59124
127.64498
127.05348
125.6519
123.27701
119.78432
115.0718
109.105
101.94092
93.741538
84.769367
75.361305
65.883154
56.670497
47.969851
39.879967
32.35421
25.121405
17.676395
9.1310699
109.08316
110.11168
111.22106
112.40635
113.65763
114.95855
116.28436
117.59968
118.85607
119.98935
120.91727
121.53415
121.72221
121.34124
120.23441
118.24425
115.2256
111.06651
105.71288
99.19181
91.628281
83.245836
74.347376
65.275189
56.35472
47.834416
39.832913
32.298328
24.988846
17.405562
8.6704798
103.39324
104.3469
105.37807
106.48316
107.65427
108.87789
110.13312
111.38967
112.60554
113.72458
114.67413
115.36143
115.67533
115.49252
114.66523
113.04314
110.4824
106.86393
102.11619
96.238942
89.321588
81.548286
73.185554
64.548602
55.94878
47.63365
39.731621
32.207986
24.832832
17.120776
8.2134195
98.476342
99.357958
100.31304
101.339
102.42952
103.57333
104.75265
105.94139
107.10298
108.18814
109.1325
109.85437
110.24983
110.21011
109.59699
108.26833
106.08379
102.92105
98.696844
93.389199
87.056581
79.847068
71.991455
63.775759
55.493663
47.387828
39.592607
32.086494
24.651933
16.81648
7.7508434
93.028527
93.845001
94.731522
95.68653
96.70524
97.778579
98.891806
100.02285
101.14037
102.20169
103.1505
103.91492
104.40253
104.51232
104.12095
103.09377
101.29502
98.601015
94.917879
90.20296
84.484856
77.876228
70.57144
62.823875
54.904611
47.047117
39.389402
31.922639
24.445279
16.501273
7.2941358
88.755113
89.510453
90.331781
91.218205
92.165952
93.167482
94.210253
95.275222
96.335096
97.352361
98.27722
99.0456
99.57541
99.771896
99.525044
98.708229
97.192335
94.854953
91.597043
87.362029
82.155623
76.060683
69.23678
61.905411
54.315543
46.689432
39.164994
31.742198
24.233198
16.198293
6.8744168
83.403088
84.10132
84.862308
85.685813
86.569253
87.506826
88.488415
89.498262
90.513372
91.501723
92.420311
93.213216
93.809388
94.120154
94.050323
93.481522
92.291975
90.362101
87.58806
83.899629
79.279259
73.776868
67.51674
60.685713
53.502559
46.172173
38.830055
31.48601
23.970271
15.8641
6.4566309
79.82849
80.479169
81.189132
81.958508
82.785357
83.664889
84.588472
85.542424
86.506563
87.452548
88.342063
89.124969
89.737648
90.097914
90.119928
89.693887
88.70448
87.035821
84.583521
81.270307
77.063736
71.992245
66.151205
59.697611
52.826709
45.728168
38.531013
31.248273
23.722669
15.556075
6.0595615
74.375968
74.972459
75.624679
76.333302
77.097303
77.913269
78.774552
79.670212
80.583747
81.491612
82.361556
83.150874
83.804726
84.252933
84.414877
84.196596
83.490606
82.187211
80.18196
77.389309
73.758798
69.289582
64.042187
58.135929
51.72944
44.985622
38.023319
30.861654
23.362757
15.165007
5.6289026
71.663074
72.229086
72.848638
73.522603
74.250311
75.028909
75.852577
76.711545
77.590917
78.469284
79.317171
80.095389
80.753408
81.226811
81.438694
81.303434
80.718452
79.578385
77.780977
75.237825
71.89062
67.726362
62.788112
57.173769
51.022693
44.48353
37.666031
30.587538
23.116698
14.907735
5.3321514
64.974628
65.492711
66.063392
66.687223
67.361789
68.083321
68.847685
69.647634
70.471833
71.303699
72.120122
72.890058
73.572968
74.117382
74.460152
74.526817
74.228491
73.468134
72.148353
70.177794
67.482536
64.020775
59.795326
54.859693
49.309529
43.257451
36.792157
29.928799
22.555068
14.375728
4.8153735
44.284902
53.187782
63.987913
77.147576
92.104688
107.52814
124.02855
140.78412
156.72098
172.01126
186.39871
200.38851
214.47298
229.15769
243.75428
257.9702
271.25315
283.04606
293.04128
300.89879
306.46148
309.55676
309.68698
308.44938
304.97512
299.41157
292.53142
284.67149
276.14334
267.19838
257.98295
248.57702
239.03856
229.47325
220.03568
210.87072
202.02796
193.50408
185.21759
177.14827
72.371438
85.815947
101.15463
116.84599
132.39111
147.77249
162.76694
177.24013
191.50843
205.73013
220.02969
234.13095
248.21469
261.48142
273.91901
285.17111
294.97604
303.19158
309.6186
314.16822
316.70259
316.74569
315.48021
312.1486
306.86231
300.18761
292.44005
283.92087
274.89032
265.51719
255.9021
246.113
236.25594
226.48742
216.96479
207.75648
198.87616
190.25208
181.85927
173.70827
165.86907
158.332
151.13098
144.16744
137.53704
131.09296
125.0165
119.05443
113.50791
107.95781
102.92775
97.687935
93.189464
88.127781
84.200604
79.182766
75.868373
70.731917
68.172013
61.803319
142.3841
155.70693
168.56348
181.29976
193.88799
206.40611
218.84937
231.15496
243.11613
254.80985
266.11861
276.85625
286.86686
295.98244
304.05748
310.88182
316.45636
320.65403
323.41634
324.64066
324.11627
322.23638
318.65263
313.42883
306.83617
299.15238
290.64734
281.56945
272.09437
262.33435
252.36323
242.28502
232.25535
222.44084
212.92668
203.74299
194.82886
186.15617
177.73165
169.62333
161.82704
154.37951
147.18546
140.336
133.68822
127.41797
121.2775
115.56212
109.85762
104.68216
99.309363
94.688311
89.512899
85.484975
80.369082
76.979473
71.750718
69.146253
62.685209
232.67914
242.71196
251.88452
260.37323
268.35724
276.00953
283.36159
290.49437
297.40917
304.01683
310.23522
315.98293
321.12143
325.53103
329.01517
331.63394
333.27193
333.85082
333.40712
331.77536
328.90968
324.81312
319.37288
312.7087
305.00482
296.48312
287.36462
277.81757
267.95613
257.85485
247.61263
237.38086
227.33205
217.56543
208.12677
198.96638
190.05434
181.3941
173.05156
165.0277
157.3623
149.96359
142.91882
136.08879
129.64447
123.34334
117.47538
111.63117
106.32364
100.83009
96.097143
90.818276
86.698013
81.492666
78.033888
72.7206
70.075529
63.529135
325.33836
328.53725
331.02303
333.0469
334.80921
336.44357
338.03137
339.63106
341.2213
342.83149
344.38422
345.76992
346.90162
347.6703
347.85229
347.5489
346.61416
344.97299
342.66166
339.56922
335.61403
330.75323
324.87356
317.97965
310.16319
301.57594
292.40246
282.79354
272.85671
262.66194
252.2998
241.91408
231.67972
221.70703
212.05626
202.68884
193.57416
184.71272
176.16824
167.94624
160.08979
152.51069
145.29304
138.30104
131.70143
125.25655
119.25159
113.28171
107.85495
102.2524
97.417905
92.045492
87.841049
82.554628
79.032561
73.642375
70.960514
64.3357
)
;

boundaryField
{
    Side1
    {
        type            empty;
    }
    Inlet
    {
        type            inletOutlet;
        inletValue      uniform 0.39740317;
        value           nonuniform List<scalar> 
59
(
0.39740317
0.39740317
0.39740317
0.39740317
0.39740317
11.11296
0.39740317
0.39740317
0.39740317
0.39740317
0.39740317
11.622127
0.39740317
0.39740317
0.39740317
0.39740317
0.39740317
12.282338
0.39740317
0.39740317
0.39740317
0.39740317
0.39740317
0.39740317
0.39740317
0.39740317
0.39740317
0.39740317
0.39740317
0.39740317
0.39740317
0.39740317
0.39740317
0.39740317
0.39740317
0.39740317
0.39740317
0.39740317
0.39740317
0.39740317
0.39740317
0.39740317
0.39740317
0.39740317
0.39740317
0.39740317
0.39740317
0.39740317
0.39740317
0.39740317
0.39740317
0.39740317
0.39740317
0.39740317
0.39740317
0.39740317
0.39740317
0.39740317
0.39740317
)
;
    }
    Side2
    {
        type            empty;
    }
    Outlet
    {
        type            zeroGradient;
    }
    Botwall
    {
        type            kqRWallFunction;
        value           nonuniform List<scalar> 0();
    }
    Cyli
    {
        type            kqRWallFunction;
        value           nonuniform List<scalar> 0();
    }
    procBoundary3to0
    {
        type            processor;
        value           nonuniform List<scalar> 7(37.525345 61.15713 61.15713 128.7544 128.7544 221.59065 221.59065);
    }
    procBoundary3to1
    {
        type            processor;
        value           nonuniform List<scalar> 
62
(
42.48979
49.543086
58.27847
69.150583
82.145806
96.835202
113.06832
129.59813
145.91476
162.63717
178.42591
193.38014
207.5612
221.64072
235.90054
250.19419
263.82956
276.12556
286.56282
294.62835
300.12163
302.76993
302.50664
300.76011
296.6893
290.73128
283.59183
275.63053
267.14677
258.36373
249.3932
240.28752
231.09004
221.90199
212.87297
204.13482
195.71919
187.60774
179.71065
172.01223
169.30983
169.30983
161.77636
154.53146
147.60697
140.90123
134.51481
128.29694
122.43477
116.66971
111.30896
105.92858
101.05775
95.963664
91.598878
86.661337
82.843502
77.932818
74.699821
69.663561
67.152227
60.882917
)
;
    }
    procBoundary3to2
    {
        type            processor;
        value           nonuniform List<scalar> 
35
(
18.765315
14.471554
10.756559
459.32297
402.12962
346.94352
295.7159
249.6195
209.16989
174.33065
144.72426
119.79384
98.9292
81.529192
67.052875
55.023952
45.02658
36.696918
29.722358
23.838182
23.838182
408.88211
408.88211
479.10357
541.42283
592.36454
627.94597
645.89408
648.23696
633.61596
603.80248
561.91364
511.75122
511.75122
321.00852
)
;
    }
}


// ************************************************************************* //
