/*--------------------------------*- C++ -*----------------------------------*\
| =========                 |                                                 |
| \\      /  F ield         | OpenFOAM: The Open Source CFD Toolbox           |
|  \\    /   O peration     | Version:  2406                                  |
|   \\  /    A nd           | Website:  www.openfoam.com                      |
|    \\/     M anipulation  |                                                 |
\*---------------------------------------------------------------------------*/
FoamFile
{
    version     2.0;
    format      ascii;
    arch        "LSB;label=32;scalar=64";
    class       volScalarField;
    location    "0.05";
    object      Ma;
}
// * * * * * * * * * * * * * * * * * * * * * * * * * * * * * * * * * * * * * //

dimensions      [0 0 0 0 0 0 0];

internalField   nonuniform List<scalar> 
2065
(
0.15802912
0.15641274
0.15427065
0.16836936
0.16926442
0.1696622
0.16965814
0.16932155
0.16873606
0.16798154
0.1671193
0.16619867
0.16526058
0.16433721
0.16344642
0.16259589
0.16178158
0.16098276
0.1601339
0.15922352
0.15805759
0.15643887
0.15429197
0.13130523
0.13574268
0.13986722
0.14384743
0.14773378
0.15150554
0.15509235
0.15841244
0.16138665
0.16393898
0.1660071
0.1675612
0.1685916
0.16912875
0.1692544
0.16903196
0.16854111
0.16786162
0.16705648
0.16617799
0.16526916
0.16436479
0.1634859
0.16264144
0.16182899
0.16102849
0.16017608
0.15925939
0.15808774
0.1564659
0.1543138
0.1317204
0.13593607
0.13983967
0.1435887
0.1472456
0.15081009
0.15423379
0.15744631
0.16037259
0.16293582
0.16506735
0.16672358
0.16788153
0.16855618
0.16881348
0.16870991
0.16831991
0.1677217
0.16697934
0.16614794
0.16527213
0.16438944
0.16352457
0.16268754
0.1618778
0.16107602
0.16022013
0.15929693
0.15811957
0.15649366
0.15433606
0.13208371
0.13609005
0.13979139
0.14332974
0.1467762
0.15014641
0.15341003
0.15650905
0.15937509
0.16193355
0.16411246
0.16585776
0.16713478
0.16794395
0.168334
0.16835345
0.16807027
0.16755965
0.16688605
0.16610682
0.16526843
0.16441049
0.16356187
0.16273386
0.16192779
0.16112523
0.16026596
0.15933609
0.15815312
0.15652187
0.15435878
0.13236606
0.13616761
0.13968296
0.14303255
0.14629175
0.14948596
0.15259921
0.15558585
0.15838559
0.16092832
0.16314161
0.16496421
0.16635182
0.16729157
0.16781474
0.16796076
0.16779003
0.16737332
0.16677467
0.16605275
0.16525669
0.16442725
0.16359718
0.16277998
0.16197872
0.16117601
0.16031361
0.1593769
0.15818826
0.15655073
0.15438123
0.13251891
0.13612135
0.13946329
0.14265234
0.14575397
0.14879684
0.15177642
0.15465881
0.15739264
0.15991401
0.16215247
0.1640426
0.16553285
0.16659864
0.16725468
0.16753016
0.16747709
0.16716056
0.16664319
0.16598423
0.16523541
0.16443865
0.16362974
0.16282543
0.16203028
0.16122817
0.16036299
0.15941933
0.15822484
0.15658034
0.15441054
0.1324695
0.13591924
0.13910678
0.14215918
0.14513041
0.14804852
0.15091595
0.15370826
0.15638273
0.15888253
0.16114106
0.16309168
0.16467776
0.16586493
0.16665302
0.16706021
0.1671295
0.16691924
0.16648956
0.16589963
0.16520343
0.16444347
0.16365865
0.16286963
0.16208212
0.16128149
0.16041407
0.1594633
0.15826273
0.15661074
0.15443972
0.13221414
0.13550022
0.13857619
0.14152258
0.14439196
0.14721327
0.14999318
0.15271425
0.15534126
0.1578245
0.16010235
0.16210942
0.1637861
0.16509032
0.16600913
0.16654975
0.16674551
0.16664731
0.16631171
0.16579706
0.16515888
0.16444049
0.16368318
0.16291194
0.16213379
0.16133569
0.16046669
0.15950872
0.15830173
0.15664195
0.15446892
0.13167154
0.13484977
0.13783962
0.14071057
0.14351004
0.14626534
0.1489854
0.1516579
0.15425382
0.15673014
0.15903083
0.16109334
0.16285723
0.16427487
0.16532277
0.16599798
0.16632367
0.16634289
0.16610765
0.16567456
0.16509966
0.16442834
0.16370265
0.1629516
0.16218478
0.16139044
0.16052065
0.15955546
0.15834184
0.15667397
0.154498
0.13084476
0.1339361
0.13686969
0.13969884
0.14246244
0.14518437
0.14787429
0.15052351
0.15310794
0.15559057
0.15792115
0.16004104
0.16189057
0.16341887
0.16459412
0.16540445
0.16586292
0.16600435
0.16587545
0.16553022
0.16502426
0.16440521
0.16371583
0.16298772
0.16223449
0.16144532
0.16057567
0.15960339
0.15838301
0.15670679
0.15452692
0.12972499
0.13275743
0.13566405
0.13848206
0.14124124
0.14396087
0.14664976
0.14930137
0.15189524
0.15439946
0.15676933
0.15895076
0.16088605
0.16252306
0.16382401
0.16476928
0.16536268
0.16563041
0.16561341
0.1653622
0.16493123
0.16437009
0.16372128
0.16301922
0.16228222
0.16149986
0.16063143
0.15965231
0.15842512
0.15674037
0.15455404
0.12834229
0.1313411
0.13424483
0.13707634
0.1398568
0.14260028
0.14531345
0.14799062
0.1506137
0.15315479
0.15557412
0.15782224
0.1598446
0.16158905
0.16301391
0.16409335
0.16482292
0.16522026
0.16532011
0.16516876
0.16481881
0.16432096
0.16371764
0.16304531
0.16232717
0.16155348
0.16068751
0.15970198
0.15846798
0.15677457
0.1545957
0.12675658
0.12973902
0.13265599
0.13551777
0.13833745
0.14112365
0.14388013
0.14660094
0.14926937
0.15186035
0.15433831
0.15665818
0.15876897
0.16061965
0.16216632
0.16337838
0.16424432
0.16477366
0.1649945
0.1649484
0.1646853
0.16425565
0.16370347
0.1630653
0.16236845
0.16160553
0.16074344
0.15975209
0.15851136
0.15680908
0.15463608
0.12504032
0.12801764
0.13095711
0.13385837
0.13672707
0.1395666
0.14237753
0.14515307
0.14787719
0.15052681
0.15306969
0.15546469
0.1576643
0.15961933
0.16128499
0.16262718
0.16362846
0.16429106
0.16463606
0.16469992
0.16452913
0.1641729
0.16367695
0.1630778
0.162405
0.16165523
0.16079863
0.15980226
0.15855495
0.15684361
0.15467522
0.12330669
0.12627729
0.12923524
0.13217218
0.13508735
0.13797943
0.14084573
0.14367815
0.1464608
0.14917181
0.15178145
0.15425186
0.15653867
0.15859465
0.16037518
0.16184376
0.16297802
0.1637737
0.16424492
0.16442253
0.164349
0.16407161
0.16363722
0.16308115
0.16243558
0.16170173
0.16085242
0.15985203
0.1585984
0.15687788
0.15471288
0.12164227
0.12459768
0.12756351
0.13052545
0.1334773
0.13641356
0.13932844
0.14221238
0.14504938
0.14781834
0.15049146
0.15303347
0.15540285
0.15755436
0.15944393
0.16103354
0.16229688
0.1632238
0.16382192
0.16411597
0.16414394
0.16395041
0.1635822
0.16307414
0.16245942
0.16174406
0.16090403
0.15990085
0.15864127
0.15691167
0.15474866
0.12012193
0.12305022
0.12600902
0.1289802
0.13195329
0.13491925
0.13786965
0.14079349
0.14367462
0.14649249
0.14922081
0.15182647
0.15427034
0.15650932
0.15850001
0.16020341
0.16159004
0.16264466
0.16336873
0.16378063
0.16391335
0.16380804
0.16350999
0.1630551
0.16247571
0.16178112
0.1609526
0.15994817
0.15868305
0.15694462
0.15478105
0.11876121
0.12165331
0.12459408
0.12756246
0.13054425
0.13352719
0.13650036
0.13945147
0.14236433
0.14521911
0.14799104
0.15064914
0.15315657
0.15547223
0.15755377
0.15936163
0.16086384
0.16204069
0.16288793
0.16341764
0.16365714
0.16364366
0.16341994
0.16302281
0.16248284
0.1618116
0.16099725
0.15999343
0.15872317
0.15697598
0.1548408
0.11759854
0.12044092
0.12334942
0.1263008
0.12927742
0.13226379
0.13524636
0.13821133
0.14114239
0.1440205
0.14682246
0.14951951
0.15207721
0.15445659
0.15661663
0.15851763
0.16012573
0.1614174
0.16238314
0.16302888
0.16337588
0.16345683
0.16331121
0.1629758
0.16247923
0.16183467
0.16103721
0.1600358
0.15876107
0.15700546
0.15490074
0.11667102
0.11944543
0.12230286
0.12521897
0.12817335
0.13114743
0.13412483
0.13708987
0.14002559
0.1429134
0.14573153
0.14845337
0.15104703
0.15347583
0.15570039
0.15768151
0.15938402
0.16078127
0.16185889
0.16261705
0.16307078
0.16324754
0.16318296
0.16291206
0.16246374
0.16184975
0.16107108
0.16007436
0.15879625
0.15703194
0.15495719
0.11595443
0.11864439
0.121435
0.12430137
0.1272207
0.13017128
0.13313348
0.13608894
0.13901939
0.14190618
0.14472865
0.14746234
0.15007803
0.15254185
0.15481639
0.1568635
0.15864754
0.16013942
0.16132058
0.16218571
0.16274375
0.16301637
0.16303476
0.16283108
0.16243463
0.16185526
0.16109706
0.1601079
0.15882827
0.15705583
0.15501055
0.11547096
0.11806065
0.12076654
0.12356485
0.12643173
0.1293433
0.13227699
0.13521157
0.13812665
0.14100266
0.14381925
0.14655355
0.14917882
0.15166401
0.15397432
0.15607314
0.15792507
0.15949942
0.16077419
0.16173916
0.16239738
0.16276451
0.16286665
0.16273264
0.16239091
0.16184964
0.1611141
0.16013508
0.15885667
0.15707505
0.15505851
0.11519649
0.11767265
0.12027868
0.12299316
0.12579246
0.12865142
0.13154507
0.13444927
0.13734103
0.140199
0.14300225
0.14572869
0.14835359
0.15084863
0.1531818
0.15531868
0.15722481
0.15886882
0.16022614
0.16128231
0.16203494
0.16249371
0.16267915
0.16261623
0.16233087
0.16183165
0.16112186
0.16015497
0.1588809
0.15709469
0.15510294
0.11511717
0.11746944
0.11996192
0.12257741
0.12529395
0.12808629
0.13092792
0.13379218
0.13665327
0.13948736
0.14227197
0.14498478
0.14760223
0.15009824
0.15244357
0.15460635
0.15655376
0.15825465
0.15968284
0.16082044
0.16166024
0.1622063
0.16247326
0.16248175
0.16225424
0.16179937
0.16111883
0.16016694
0.15890025
0.15711458
0.15514589
0.11521344
0.11743666
0.11980559
0.12230879
0.12492812
0.12763976
0.13041684
0.13323094
0.1360537
0.13885846
0.14162034
0.14431574
0.1469212
0.14941206
0.15176142
0.15394008
0.15591732
0.15766298
0.15915028
0.16035888
0.1612775
0.16190511
0.1622505
0.16232954
0.1621609
0.16175177
0.16110398
0.16017041
0.1589138
0.15713468
0.15518654
0.11547485
0.11755615
0.11979842
0.1221805
0.12469036
0.12730786
0.13000736
0.13275993
0.13553539
0.13830442
0.14103933
0.14371432
0.14630491
0.14878679
0.15113459
0.15332143
0.15531897
0.1570986
0.15863377
0.15990274
0.1608911
0.16159334
0.16201284
0.16216039
0.16205042
0.16168829
0.16107503
0.16016426
0.15892094
0.15715394
0.15522432
0.11587865
0.11781984
0.11992178
0.12218087
0.12457359
0.12708598
0.12969588
0.13237539
0.13509369
0.13781942
0.14052219
0.14317352
0.14574695
0.14821739
0.15056017
0.1527499
0.1547603
0.15656474
0.15813763
0.15945669
0.16050535
0.16127446
0.16176264
0.16197554
0.16192319
0.1616088
0.16103148
0.16014673
0.15892092
0.15716903
0.15525593
0.11639691
0.11820421
0.12017078
0.12229371
0.1245683
0.12696902
0.12947949
0.13207517
0.13472606
0.1373999
0.14006416
0.14268765
0.14524139
0.1476986
0.15003406
0.15222312
0.15424107
0.15606308
0.15766493
0.15902458
0.16012423
0.16095196
0.16150247
0.16177656
0.16178002
0.16151306
0.16097271
0.1601161
0.15891238
0.15717855
0.15528142
0.11701051
0.11868982
0.12052596
0.1225182
0.12466203
0.12694999
0.12935512
0.131858
0.13443176
0.13704464
0.13966291
0.14225317
0.14478377
0.1472256
0.149552
0.15173805
0.15375982
0.15559391
0.15721751
0.15860934
0.15975116
0.1606292
0.16123507
0.16156531
0.16162152
0.16140109
0.16089822
0.16007159
0.15889219
0.1571803
0.155291
0.11770917
0.11926699
0.12097765
0.12284283
0.12486029
0.12702336
0.12932071
0.13172454
0.13421218
0.13675466
0.13931844
0.14186865
0.14437129
0.14679469
0.14911004
0.15129121
0.15331419
0.15515635
0.15679603
0.15821292
0.15938891
0.16030922
0.16096319
0.16134386
0.16144897
0.16127322
0.1608077
0.16001264
0.1588589
0.15717234
0.15529209
0.11848277
0.11992624
0.12151726
0.12325954
0.12515333
0.1271942
0.12937374
0.13167522
0.13407062
0.13653395
0.13903418
0.14153625
0.14400448
0.14640479
0.14870595
0.1508799
0.15290173
0.15474885
0.1564002
0.15783632
0.15903953
0.15999462
0.16068944
0.16111443
0.16126388
0.1611301
0.16070108
0.15993835
0.15881116
0.15715421
0.15528902
0.11932449
0.12066057
0.12213797
0.12376195
0.1255349
0.12745504
0.12951572
0.13170669
0.13400491
0.13638366
0.1388128
0.14125841
0.14368456
0.1460556
0.14833808
0.15050185
0.15252018
0.15436957
0.15602909
0.15747974
0.15870428
0.15968743
0.16041619
0.16087923
0.16106797
0.16097273
0.16057859
0.15984814
0.15874792
0.15712463
0.1552628
0.12022439
0.12146057
0.12283128
0.12434279
0.12599921
0.12780116
0.12974459
0.13182024
0.13401588
0.13630132
0.13865054
0.14103143
0.14340821
0.14574407
0.14800352
0.15015397
0.15216653
0.15401614
0.15568121
0.15714272
0.15838372
0.15938911
0.16014546
0.16064038
0.16086308
0.16080236
0.16044083
0.15974184
0.15866884
0.15708294
0.15521366
0.12116055
0.1223047
0.12357629
0.12498252
0.12652881
0.12821746
0.13004674
0.13200994
0.13409476
0.1362862
0.13855112
0.14085966
0.14317946
0.14547337
0.14770416
0.14983686
0.15184031
0.15368749
0.15535547
0.15682466
0.15807806
0.15910064
0.15987887
0.16039984
0.1606511
0.16062051
0.16028872
0.15961974
0.15857438
0.15702846
0.155127
0.12212092
0.12317991
0.12435939
0.12566706
0.12710926
0.12868972
0.13040873
0.13226211
0.13424068
0.13632916
0.13850628
0.14073972
0.14299759
0.14524323
0.14743935
0.14955006
0.15153982
0.15338163
0.15505014
0.15652442
0.15778694
0.15882254
0.15961768
0.16015928
0.16043389
0.16042885
0.16012352
0.15948277
0.15846561
0.1569635
0.15507228
0.1231001
0.12408134
0.12517606
0.12639226
0.12773691
0.1292149
0.13082821
0.13257489
0.13444811
0.13643527
0.13851968
0.14067119
0.14285931
0.14504932
0.14720457
0.14928815
0.15126265
0.1530972
0.15476357
0.15624065
0.15750963
0.15855485
0.15936266
0.15992005
0.16021316
0.16022903
0.15994662
0.15933249
0.1583426
0.15688681
0.15504228
0.12408786
0.12499767
0.12601417
0.12714543
0.12839889
0.12978026
0.13129284
0.13293653
0.13470683
0.1365938
0.13858153
0.1406507
0.1427667
0.1448979
0.14700731
0.14905672
0.15100938
0.15283242
0.15449481
0.15597258
0.15724537
0.15829727
0.1591142
0.15968318
0.15999026
0.16002255
0.1597592
0.15916844
0.15820555
0.15679411
0.15500535
0.1250885
0.12593281
0.12687726
0.12792991
0.12909841
0.13038906
0.13180616
0.13335113
0.13502147
0.13680979
0.13870284
0.14068159
0.14272032
0.14478584
0.14684309
0.14885412
0.15078088
0.15258755
0.15424205
0.15571799
0.15699289
0.15804919
0.1588723
0.15944928
0.15976629
0.1598108
0.15956273
0.15899223
0.15805605
0.15668494
0.15494407
0.12609321
0.12687732
0.1277553
0.12873505
0.12982434
0.13102981
0.13235651
0.13380703
0.1353806
0.13707205
0.13887085
0.14076049
0.1427199
0.14471463
0.14671395
0.14868081
0.15057623
0.15236253
0.15400577
0.15547677
0.15675117
0.15780981
0.15863682
0.15921877
0.15954221
0.15959522
0.15935892
0.15880579
0.15789421
0.15655939
0.15485405
0.1271014
0.12783015
0.12864683
0.12955912
0.13057475
0.13170056
0.13294213
0.13430296
0.13578362
0.13738076
0.13908615
0.14088579
0.14275973
0.14468406
0.14662243
0.14853963
0.15039767
0.1521584
0.15378596
0.15524869
0.15652
0.15757841
0.15840712
0.15899199
0.15931901
0.15937734
0.15914967
0.15861073
0.15772016
0.15641724
0.15471346
0.12810112
0.1287793
0.1295398
0.13039004
0.13133762
0.13238946
0.13355147
0.13482785
0.13622027
0.137727
0.13934192
0.14105357
0.14284469
0.14469263
0.14656427
0.14842656
0.15024249
0.15197326
0.15358128
0.15503259
0.1562983
0.15735468
0.15818294
0.15876805
0.15909648
0.15915731
0.15893536
0.15840903
0.15753791
0.15625831
0.15458142
0.1290982
0.12972964
0.1304381
0.13123072
0.13211489
0.13309752
0.13418471
0.13538115
0.13668937
0.13810891
0.13963535
0.14125935
0.14296585
0.14473367
0.14653814
0.14834328
0.15011304
0.15180901
0.15339289
0.154829
0.15608612
0.15713824
0.15796452
0.15854854
0.15887608
0.15893715
0.15871805
0.15819976
0.15734733
0.15608448
0.15438464
0.13007589
0.13066467
0.13132554
0.13206531
0.13289114
0.13380982
0.13482754
0.13594933
0.13717837
0.13851525
0.13995708
0.14149651
0.14312092
0.14481197
0.14654585
0.14828944
0.15000851
0.15166513
0.15322056
0.15463774
0.15588336
0.15692898
0.15775168
0.15833342
0.15865896
0.15871824
0.15849894
0.15798434
0.15714445
0.1558976
0.1541647
0.13105257
0.13160156
0.13221796
0.13290827
0.13367938
0.13453792
0.13549007
0.13654106
0.13769457
0.13895202
0.14031176
0.1417681
0.14331038
0.14492228
0.14658132
0.14826127
0.1499265
0.15154031
0.1530639
0.15445897
0.15569022
0.15672715
0.15754467
0.15812302
0.15844579
0.15850243
0.15828102
0.1577666
0.15693221
0.15569138
0.15389544
0.13199786
0.13251076
0.13308677
0.13373205
0.13445321
0.13525666
0.13614851
0.13713407
0.13821737
0.13940047
0.14068273
0.14205989
0.14352319
0.14505859
0.14664629
0.14826105
0.14986892
0.15143593
0.1529235
0.15429269
0.15550665
0.15653269
0.15734353
0.15791752
0.158237
0.15829078
0.15806663
0.15754998
0.15671411
0.15547611
0.15369454
0.13294638
0.13342502
0.13396267
0.13456516
0.1352388
0.13598976
0.13682401
0.1377469
0.13876269
0.13987395
0.14108086
0.14238039
0.14376539
0.14522375
0.14673779
0.14828387
0.14983406
0.15135155
0.15279946
0.15413895
0.15533226
0.15634494
0.15714744
0.15771609
0.15803181
0.1580826
0.15785601
0.15733649
0.15649654
0.15525661
0.15342415
0.13385127
0.13429909
0.13480217
0.13536604
0.13599668
0.13670001
0.13748184
0.13834747
0.13930126
0.14034615
0.14148298
0.1427097
0.14402054
0.14540513
0.14684777
0.148327
0.14981591
0.15128142
0.15268698
0.15399387
0.15516364
0.15616041
0.15695275
0.15751497
0.15782639
0.15787397
0.15764494
0.15712318
0.15627965
0.15503691
0.15320332
0.13476614
0.13518416
0.13565383
0.13618038
0.13676949
0.13742681
0.13815795
0.1389681
0.13986171
0.14084197
0.1419102
0.14306521
0.14430241
0.14561301
0.14698327
0.14839397
0.14982025
0.151231
0.15259027
0.15386006
0.15500173
0.15597832
0.15675692
0.15731004
0.15761543
0.1576587
0.15742629
0.15690239
0.15605699
0.15481537
0.1529914
0.13562564
0.13601704
0.13645679
0.13694983
0.13750152
0.13811726
0.13880243
0.13956207
0.14040063
0.14132144
0.14232624
0.1434145
0.14458264
0.14582318
0.14712399
0.14846756
0.14983069
0.1511843
0.15249509
0.1537255
0.1548365
0.1557902
0.15655226
0.15709363
0.15739068
0.15742776
0.15719051
0.15666338
0.15581642
0.15458328
0.15279177
0.13651387
0.13687842
0.13728804
0.13774744
0.13826166
0.13883585
0.13947514
0.14018445
0.14096817
0.14182976
0.14277126
0.14379268
0.14489126
0.14606063
0.14729009
0.14856382
0.14986048
0.15115394
0.15241145
0.15359688
0.15467164
0.15559731
0.15633824
0.15686361
0.15714821
0.15717514
0.15692946
0.15639564
0.1555458
0.1543239
0.15258614
0.13728916
0.13762989
0.13801276
0.13844231
0.13892331
0.13946069
0.1400594
0.14072424
0.1414596
0.14226908
0.14315498
0.1441176
0.14515448
0.14626004
0.14742503
0.1486353
0.14987139
0.15110795
0.15231423
0.1534551
0.1544928
0.15538889
0.15610671
0.15661384
0.15688348
0.15689757
0.15664076
0.15609795
0.1552437
0.15402638
0.15235185
0.13815198
0.13846689
0.13882082
0.13921808
0.13966316
0.14016074
0.14071552
0.14133212
0.14201472
0.14276683
0.14359089
0.14448788
0.14545661
0.14649277
0.14758788
0.14872841
0.14989706
0.15107145
0.15222237
0.15331554
0.15431327
0.15517667
0.15586817
0.15635413
0.15660651
0.15660623
0.15633766
0.1557866
0.15493009
0.1537161
0.15210408
0.13883289
0.13912787
0.13945953
0.13983203
0.14024959
0.14071663
0.1412376
0.14181687
0.14245851
0.14316595
0.14394166
0.14478666
0.14570002
0.14667831
0.14771444
0.14879644
0.14990734
0.15102574
0.15212464
0.1531714
0.15412942
0.15496
0.15562536
0.15609091
0.1563273
0.1563146
0.156037
0.15548226
0.15463104
0.15342931
0.15186108
0.13969103
0.13996215
0.14026691
0.14060911
0.14099259
0.1414215
0.14190005
0.14243241
0.14302253
0.1436739
0.14438918
0.14516979
0.14601547
0.14692366
0.14788807
0.14889843
0.14994052
0.15099499
0.15203682
0.1530349
0.1539536
0.15475464
0.15539905
0.15585019
0.15607747
0.15606209
0.15579062
0.15522524
0.1543789
0.15319877
0.15168728
0.14021507
0.14047142
0.14075951
0.14108308
0.14144576
0.1418515
0.14230431
0.14280818
0.14336694
0.14398402
0.1446621
0.14540272
0.14620581
0.14706919
0.14798785
0.1489528
0.14995027
0.15096028
0.15196059
0.15292182
0.15381048
0.1545897
0.15522147
0.15566881
0.15589632
0.15587058
0.15557792
0.15502905
0.15418055
0.15300416
0.15151916
0.14110479
0.14133595
0.14159593
0.14188815
0.14221596
0.14258305
0.14299318
0.14345017
0.14395774
0.14451929
0.14513762
0.14581458
0.14655055
0.1473439
0.14819031
0.14908224
0.15000797
0.15095313
0.15189692
0.1528102
0.15366157
0.15441466
0.15502975
0.15546778
0.15569765
0.15569555
0.15542729
0.15487269
0.15402487
0.15286759
0.15132439
0.14152616
0.14174625
0.14199387
0.14227226
0.14258461
0.14293444
0.14332529
0.14376081
0.14424451
0.14477965
0.14536891
0.14601413
0.14671576
0.14747244
0.14828046
0.14913302
0.15001852
0.15092143
0.15182541
0.15270645
0.15353578
0.15427854
0.15489608
0.15534872
0.15559655
0.15560503
0.15534208
0.15478725
0.1539251
0.15275239
0.15115309
0.14275067
0.14294185
0.14315712
0.14339919
0.14367094
0.14397542
0.14431567
0.14469472
0.14511535
0.14557983
0.14608967
0.14664541
0.14724898
0.14790111
0.14859935
0.14933895
0.15011302
0.15091483
0.15172571
0.15252364
0.15328301
0.15398259
0.15459302
0.15507323
0.15536518
0.15540796
0.15516279
0.1546054
0.1537178
0.15249705
0.15090466
0.02169598
0.025776498
0.030505767
0.036110264
0.042375268
0.049026041
0.055933348
0.06290855
0.069680095
0.075844076
0.081226997
0.085632592
0.088887573
0.091102633
0.092400645
0.093094244
0.093296717
0.093301564
0.093273592
0.093321595
0.093512989
0.09391967
0.094554708
0.095407329
0.096448749
0.097671976
0.099026566
0.10047858
0.10199205
0.10353386
0.10508742
0.10663887
0.10818922
0.10973508
0.11127879
0.11280923
0.11431397
0.11578674
0.11722645
0.1186315
0.054066008
0.060442025
0.066824646
0.072979679
0.078913168
0.084407061
0.089370674
0.093744621
0.097387368
0.10024927
0.10230711
0.10351882
0.10404102
0.10395241
0.10353477
0.10279402
0.10201461
0.10129204
0.10070432
0.10028762
0.10012498
0.10022151
0.1005524
0.10111092
0.10188849
0.10283799
0.10392466
0.1051115
0.10636342
0.10765953
0.10898251
0.11032886
0.11169239
0.11307242
0.11445724
0.11583201
0.1171884
0.11852402
0.1198352
0.12112965
0.12240148
0.12365301
0.12487306
0.12607285
0.12723423
0.12838217
0.12948157
0.13057715
0.13161312
0.13265636
0.1336291
0.13463398
0.13551254
0.13649153
0.13725971
0.13822552
0.13881198
0.13982333
0.14029048
0.14165716
0.092875108
0.097049536
0.10070507
0.10393196
0.10670503
0.10905665
0.11100801
0.1125127
0.11352991
0.1140434
0.11400279
0.11361001
0.11275018
0.11164973
0.11038024
0.10911847
0.10795553
0.10695393
0.10612721
0.10555341
0.10525266
0.10519534
0.10536444
0.10576996
0.10637459
0.10714402
0.10804223
0.1090341
0.11009638
0.11120979
0.11236746
0.11356119
0.1147879
0.11603568
0.11728777
0.11853381
0.11977057
0.12099243
0.12220595
0.12340444
0.12458927
0.12574907
0.12689342
0.12800467
0.1291058
0.13016316
0.13121851
0.13221869
0.13322672
0.13416851
0.13514129
0.13599143
0.13693836
0.13768244
0.1386187
0.13918764
0.1401657
0.14061983
0.14194828
0.11549884
0.1170061
0.11838542
0.11959986
0.12062694
0.12144022
0.1219838
0.12217205
0.12202378
0.1215027
0.12061624
0.11941926
0.11800213
0.11645415
0.1149183
0.11348437
0.11221672
0.11112238
0.11026212
0.10966914
0.10931377
0.10920137
0.1093068
0.10962015
0.11011864
0.1107667
0.11152961
0.11238311
0.11330725
0.11429295
0.11533073
0.11641567
0.11753609
0.1186738
0.11981639
0.12096035
0.12209816
0.12323541
0.12436466
0.12548649
0.12658931
0.12768128
0.12874509
0.129802
0.13081961
0.13183699
0.13280336
0.13377822
0.13469081
0.13563341
0.13645684
0.1373736
0.13809498
0.1390034
0.13955617
0.14050251
0.14094479
0.14223621
0.12507711
0.1258056
0.12650712
0.12713886
0.12766297
0.12804539
0.12820236
0.1280971
0.12770741
0.12697652
0.1259335
0.12460617
0.12306498
0.12139072
0.11970902
0.1181114
0.11667035
0.11539762
0.11433878
0.11353235
0.11295266
0.11261701
0.11249774
0.11257832
0.11284417
0.1132773
0.11384137
0.114511
0.1152664
0.11609727
0.11699347
0.11794881
0.11895229
0.11998406
0.12103095
0.12208872
0.12314825
0.12421435
0.1252789
0.1263418
0.12739128
0.1284342
0.12945356
0.13046907
0.13144943
0.13243129
0.13336603
0.13430992
0.1351952
0.13610968
0.13690824
0.1377968
0.13849719
0.13937936
0.1399174
0.14083364
0.14126536
0.14252075
)
;

boundaryField
{
    Side1
    {
        type            empty;
    }
    Inlet
    {
        type            calculated;
        value           nonuniform List<scalar> 
59
(
0.15207648
0.152087
0.1520978
0.15210887
0.15212022
0.15178038
0.15214583
0.15216014
0.15217453
0.15218898
0.15220348
0.15186554
0.15223735
0.15225691
0.152276
0.15229455
0.15231245
0.15197652
0.15235675
0.15238457
0.15241071
0.15243536
0.15245734
0.15247763
0.15249732
0.15251613
0.15253397
0.1525492
0.15256148
0.15256593
0.15256604
0.15256413
0.15255144
0.15252838
0.15248862
0.15246093
0.15244405
0.15242234
0.15238827
0.15234105
0.15226985
0.15220146
0.15210296
0.15199342
0.15186351
0.15175871
0.15162477
0.15151234
0.15140415
0.15130193
0.15119681
0.15107894
0.15095468
0.15083247
0.15074285
0.15065516
0.15055688
0.15047277
0.15034421
)
;
    }
    Side2
    {
        type            empty;
    }
    Outlet
    {
        type            calculated;
        value           nonuniform List<scalar> 
35
(
0.14275067
0.14294185
0.14315712
0.14339919
0.14367094
0.14397542
0.14431567
0.14469472
0.14511535
0.14557983
0.14608967
0.14664541
0.14724898
0.14790111
0.14859935
0.14933895
0.15011302
0.15091483
0.15172571
0.15252364
0.15328301
0.15398259
0.15459302
0.15507323
0.15536518
0.15540796
0.15516279
0.1546054
0.1537178
0.15249705
0.15090466
0.14165716
0.14194828
0.14223621
0.14252075
)
;
    }
    Botwall
    {
        type            calculated;
        value           nonuniform List<scalar> 0();
    }
    Cyli
    {
        type            calculated;
        value           nonuniform List<scalar> 0();
    }
    procBoundary3to0
    {
        type            processor;
        value           nonuniform List<scalar> 7(0.018160248 0.048058879 0.048058879 0.088167274 0.088167274 0.11385777 0.11385777);
    }
    procBoundary3to1
    {
        type            processor;
        value           nonuniform List<scalar> 
62
(
0.010626097
0.012621623
0.015045933
0.018064653
0.021857947
0.026668462
0.032186779
0.038427463
0.045255491
0.05226036
0.059110611
0.065363826
0.070631899
0.074806591
0.077885208
0.080122751
0.081682623
0.082837323
0.083811495
0.084770951
0.08581071
0.086969941
0.088298116
0.089794089
0.091415908
0.093159398
0.094976871
0.096838512
0.098712636
0.10057052
0.10240198
0.10419796
0.10596517
0.10770374
0.10941963
0.1111026
0.11274321
0.1143371
0.11588504
0.11738757
0.12001093
0.12001093
0.12135964
0.12268108
0.12396421
0.12522209
0.12643596
0.12763298
0.12877644
0.12991426
0.13098783
0.13206815
0.13307343
0.13411221
0.1350208
0.13603365
0.13682714
0.13782421
0.1384295
0.13947567
0.13995692
0.14136299
)
;
    }
    procBoundary3to2
    {
        type            processor;
        value           nonuniform List<scalar> 
35
(
0.15800217
0.15638772
0.15424959
0.16914644
0.1698994
0.1701573
0.17002635
0.16958076
0.16890698
0.16808353
0.16716952
0.16621127
0.16524747
0.16430751
0.16340663
0.16255122
0.16173571
0.16093888
0.16009351
0.15918926
0.15918926
0.13087882
0.13087882
0.13554011
0.13990294
0.1441366
0.14827064
0.15225847
0.15600442
0.15941907
0.162423
0.1649446
0.16693118
0.16693118
0.12433989
)
;
    }
}


// ************************************************************************* //
