/*--------------------------------*- C++ -*----------------------------------*\
| =========                 |                                                 |
| \\      /  F ield         | OpenFOAM: The Open Source CFD Toolbox           |
|  \\    /   O peration     | Version:  2406                                  |
|   \\  /    A nd           | Website:  www.openfoam.com                      |
|    \\/     M anipulation  |                                                 |
\*---------------------------------------------------------------------------*/
FoamFile
{
    version     2.0;
    format      ascii;
    arch        "LSB;label=32;scalar=64";
    class       volScalarField;
    location    "0.085";
    object      alphat;
}
// * * * * * * * * * * * * * * * * * * * * * * * * * * * * * * * * * * * * * //

dimensions      [1 -1 -1 0 0 0 0];

internalField   nonuniform List<scalar> 
8260
(
0.040009403
0.045373278
0.05167819
0.05879913
0.066573791
0.074829265
0.083345436
0.091825234
0.099866383
0.1068935
0.11209672
0.11435906
0.11217198
0.10366053
0.086810228
0.060640719
0.032114113
0.015078042
0.0098073516
0.0080547245
0.0070616054
0.00645876
0.0059895548
0.0056893086
0.0054650859
0.0052957885
0.0051636389
0.0050719741
0.0050070147
0.0049662065
0.004945033
0.047359136
0.052883353
0.058945828
0.065615346
0.072850556
0.080520871
0.088418034
0.096244716
0.10359065
0.10987229
0.11425029
0.11558517
0.1123494
0.10268157
0.084628288
0.057750976
0.029371393
0.014201406
0.0095548273
0.0079554498
0.0070108895
0.0064242856
0.0059673838
0.0056770293
0.005457737
0.0052913728
0.0051606705
0.0050700659
0.0050058075
0.0049654216
0.0049445079
0.055779238
0.061094836
0.066852564
0.073090492
0.079785423
0.086832693
0.094042083
0.10112471
0.10766564
0.11306722
0.11647693
0.11672958
0.11228049
0.10129089
0.081907425
0.054245957
0.026665679
0.013305538
0.0094054189
0.0079072482
0.006985062
0.0064061714
0.0059556288
0.0056705545
0.0054539637
0.0052890961
0.0051590572
0.005068932
0.0050049241
0.0049647228
0.0049439347
0.065379373
0.070263217
0.075576129
0.081296805
0.087386731
0.09374172
0.10017747
0.10640891
0.11201725
0.11639366
0.11867118
0.11766293
0.11181109
0.09931181
0.078465373
0.050042069
0.023868906
0.012523625
0.0092430166
0.0078328458
0.0069409797
0.0063742603
0.0059345186
0.0056585851
0.0054468089
0.005284792
0.005155959
0.0050668281
0.005003537
0.0049637737
0.004943275
0.076155579
0.080441248
0.085184329
0.090271582
0.095650907
0.10120984
0.10675973
0.1120116
0.11653911
0.1197221
0.12067851
0.11820326
0.11073222
0.096514177
0.074078166
0.045054204
0.021041527
0.011772299
0.0090829985
0.0077630463
0.006901725
0.0063462418
0.0059165155
0.0056483739
0.0054406454
0.0052810772
0.0051533367
0.0050650307
0.005002238
0.0049628057
0.0049425239
0.087900359
0.091517657
0.09557617
0.099911569
0.1044597
0.1090977
0.11362743
0.11775007
0.12102712
0.12282463
0.12224575
0.11807035
0.10874001
0.092582395
0.06846662
0.039246588
0.018519113
0.011081947
0.0089181424
0.0076771961
0.0068505008
0.0063087158
0.0058920251
0.0056341785
0.0054319767
0.0052758008
0.0051495916
0.00506247
0.005000522
0.0049616063
0.004941666
0.10024462
0.10315185
0.10643707
0.10991706
0.11351632
0.11710155
0.12046338
0.12329002
0.12512769
0.12532647
0.12297498
0.11684277
0.10539823
0.087087391
0.061298955
0.032718045
0.016145472
0.010463288
0.0087487206
0.0075878786
0.0067988872
0.0062711604
0.005868277
0.0056202025
0.0054233235
0.0052704878
0.0051458924
0.0050599398
0.0049987557
0.004960314
0.0049406883
0.112582
0.11474842
0.11719111
0.11972696
0.12226869
0.12467157
0.12671364
0.12806831
0.12826494
0.12663678
0.12225928
0.11389943
0.10009161
0.079460886
0.052239308
0.025843425
0.013985434
0.0099954502
0.0085701911
0.0074837943
0.006736543
0.0062249897
0.0058390211
0.0056025372
0.0054123213
0.0052636442
0.0051411341
0.0050566596
0.0049965723
0.0049587675
0.0049395732
0.12395361
0.12535214
0.12689446
0.12841033
0.12979784
0.13089814
0.13147446
0.13118355
0.12953703
0.12585225
0.11919543
0.10834338
0.091972557
0.068994766
0.041148237
0.020240546
0.012196398
0.0095912083
0.0083730139
0.0073716749
0.0066709729
0.0061766716
0.005809356
0.0055839776
0.0054006336
0.0052562663
0.0051361208
0.0050531889
0.0049942301
0.0049570579
0.0049383014
0.13285641
0.13347855
0.13407331
0.13450767
0.13466183
0.13435857
0.13334273
0.13125193
0.1275802
0.12163342
0.11247794
0.09891807
0.07991987
0.054963332
0.028715878
0.015828557
0.010819614
0.0092175869
0.0081566306
0.0072433521
0.0065937197
0.0061197045
0.0057744552
0.005561479
0.005386319
0.005247102
0.0051299866
0.0050488783
0.0049914156
0.0049550399
0.0049368486
0.13702833
0.13688634
0.13652161
0.13584212
0.13471099
0.13293429
0.13023601
0.12623325
0.12040677
0.11206468
0.10029763
0.08395293
0.062645358
0.037129054
0.019783726
0.012684857
0.010039512
0.0088608984
0.0079149443
0.0071035186
0.0065106332
0.0060596786
0.0057385116
0.005537497
0.0053705373
0.005236845
0.0051233517
0.0050441831
0.0049883306
0.0049527762
0.0049351868
0.13317678
0.13225153
0.13095203
0.12918235
0.12678482
0.12354107
0.11915113
0.11321681
0.10522507
0.094529687
0.080321738
0.061423325
0.039304097
0.022751362
0.014298911
0.010703286
0.0094902232
0.0084506465
0.0076601246
0.006937364
0.0064148774
0.0059916614
0.0056971422
0.0055097447
0.0053515292
0.0052243989
0.0051153981
0.0050385523
0.004984685
0.004950125
0.0049328888
0.11668116
0.11511469
0.11298739
0.11020886
0.10661697
0.1019782
0.095971373
0.088217881
0.078289377
0.065753544
0.05056533
0.035785388
0.023051809
0.014975941
0.011236917
0.0099103122
0.0088664966
0.0080689844
0.0073695992
0.0067674795
0.0063101109
0.0059168176
0.005655018
0.0054805058
0.0053305101
0.0052104806
0.0051065042
0.0050324257
0.0049806691
0.0049471421
0.0049301198
0.082087799
0.079890349
0.07721126
0.074081409
0.070351345
0.065833412
0.060327849
0.053770841
0.046121389
0.037462677
0.028300414
0.020044365
0.014212031
0.011175398
0.00988883
0.0090910354
0.0083704902
0.0076094219
0.0070707072
0.0065637488
0.0062001793
0.0058380925
0.0056048115
0.0054459748
0.005306598
0.0051942518
0.0050957448
0.0050252924
0.0049760077
0.0049436962
0.0049270767
0.046230635
0.044841968
0.043128777
0.041090606
0.038584316
0.035542131
0.032178532
0.028422265
0.024303087
0.019944658
0.015696023
0.012326649
0.010405953
0.0094737407
0.0092535286
0.0085306599
0.0077015249
0.0072253974
0.006759628
0.0063787746
0.0060754418
0.0057512648
0.0055562376
0.0054081192
0.0052813234
0.0051760422
0.0050835754
0.0050175337
0.004970893
0.004939856
0.0049238256
0.022912525
0.022418158
0.021686959
0.020759283
0.019605386
0.018225829
0.016692813
0.015036899
0.013314805
0.011653115
0.010177674
0.009235573
0.0088194772
0.00886233
0.0081975552
0.0077226748
0.007287774
0.006804432
0.0064835173
0.0061674401
0.005949519
0.0056661041
0.0054973768
0.0053660828
0.0052531002
0.0051546161
0.0050693899
0.0050085958
0.004965071
0.004935509
0.0049204927
0.012182121
0.012063365
0.011817838
0.011474717
0.01104918
0.010565788
0.010052471
0.0095057572
0.0089136148
0.0084620737
0.0082620713
0.0081618121
0.0081592087
0.0076193353
0.0075780032
0.0073021497
0.0067391399
0.0064976163
0.0062567864
0.0060051778
0.0058106794
0.0055728452
0.0054442414
0.0053218881
0.005220672
0.0051315733
0.0050542477
0.0049991783
0.0049586539
0.0049307742
0.0049170081
0.0082461455
0.0082172214
0.0081408103
0.0080341378
0.0078993304
0.0077559638
0.0076345506
0.0075245046
0.0074666791
0.0074552604
0.0075251787
0.0074037337
0.0070138424
0.0070032921
0.0067902128
0.0065618102
0.0064527818
0.0061686571
0.0060062746
0.0058076042
0.0056869547
0.0054983715
0.005379984
0.0052732819
0.0051862496
0.0051063068
0.0050370079
0.004988748
0.0049514911
0.0049256108
0.0049123433
0.0069583867
0.0069119177
0.0068779545
0.0068577225
0.0068512043
0.0068528897
0.0068722376
0.0068403109
0.0068078843
0.0067709503
0.0066498345
0.0065709544
0.0066127631
0.0064339009
0.0062908093
0.006323836
0.0062060052
0.0060161409
0.005816338
0.0057002822
0.005565418
0.0054100991
0.0053245293
0.0052277927
0.0051486967
0.0050795437
0.0050209847
0.0049775442
0.0049437671
0.0049201086
0.0049081009
0.006377309
0.0063740924
0.0063668005
0.0063603344
0.0063715618
0.0063878386
0.0063731736
0.0063551101
0.0063061246
0.006213967
0.0061638103
0.0061363153
0.0060177558
0.0060351957
0.0059704775
0.0058594069
0.0058308873
0.0057014293
0.0055696868
0.0055175893
0.0054284479
0.0053484091
0.005272691
0.0051726685
0.0051103672
0.0050529484
0.0050027246
0.0049658942
0.0049351346
0.0049140658
0.0049024445
0.00595397
0.0059503356
0.0059431704
0.0059253549
0.0058946984
0.0058536452
0.0058371587
0.0058276674
0.0058160308
0.0058129331
0.0058121916
0.0058023879
0.0057522874
0.0057140964
0.0056940245
0.0056289317
0.005515278
0.0054945077
0.0054022382
0.0053862592
0.0053328756
0.0052685158
0.0052077592
0.0051328437
0.0050741856
0.0050231064
0.0049859284
0.0049537011
0.0049261855
0.0049074913
0.0048975188
0.0055513739
0.0055524274
0.0055504983
0.0055456625
0.0055406051
0.0055416671
0.0055504144
0.0055529159
0.005546396
0.0055267974
0.0055046721
0.0054714907
0.0054870738
0.0054378561
0.0053991898
0.0053973542
0.005351923
0.0053182929
0.0052764912
0.0052513336
0.0052136082
0.005198067
0.0051264183
0.0050830244
0.0050372492
0.0049971899
0.0049650932
0.0049411915
0.004917084
0.0049005096
0.0048912051
0.0053383833
0.0053394615
0.0053379223
0.0053345436
0.0053287364
0.0053197048
0.0053060348
0.0052923073
0.0052867272
0.0052820627
0.0052762892
0.0052788387
0.0052556643
0.0052736748
0.0052613542
0.0052499863
0.005239633
0.0052202098
0.0051869311
0.0051511656
0.0051293428
0.0050990869
0.0050752215
0.0050381024
0.0050003755
0.0049714293
0.0049499338
0.0049269676
0.0049079046
0.0048936642
0.0048857569
0.0051402383
0.0051418028
0.0051416435
0.0051404697
0.0051390383
0.0051377147
0.0051368758
0.0051412262
0.0051449311
0.0051437506
0.005139588
0.0051289699
0.0051285547
0.0051090205
0.0051102699
0.0050938756
0.0050925917
0.0050658113
0.0050758054
0.0050309055
0.0050407684
0.0050440235
0.0050187497
0.0049884816
0.004967172
0.0049520439
0.0049316937
0.0049135115
0.0048996628
0.0048867057
0.0048794832
0.0050428164
0.0050447666
0.0050450907
0.0050441973
0.0050423364
0.0050395362
0.0050355739
0.0050297875
0.005025485
0.0050228413
0.0050196229
0.0050164514
0.0050145827
0.0050173189
0.0050199058
0.0050169264
0.0050213499
0.0049963076
0.0049988749
0.0049700158
0.0049829694
0.0049758647
0.0049779375
0.0049631634
0.00494393
0.0049310315
0.0049213493
0.004904065
0.0048908063
0.0048801313
0.0048740697
0.0049596044
0.004960505
0.0049605321
0.0049601443
0.0049597224
0.0049594085
0.0049591329
0.0049588834
0.0049588818
0.0049598265
0.00496053
0.00496047
0.0049613873
0.0049629985
0.0049641636
0.0049627418
0.0049578246
0.0049390679
0.0049367586
0.0049299507
0.0049364168
0.004942433
0.0049411411
0.0049399612
0.0049311136
0.0049198323
0.0049085143
0.0048940435
0.0048833447
0.0048740784
0.0048678736
0.0049221022
0.0049229487
0.0049231462
0.0049229577
0.0049225876
0.0049221264
0.0049215872
0.0049210332
0.0049208798
0.004920899
0.0049225491
0.004926347
0.0049310313
0.0049347003
0.0049385286
0.0049360166
0.0049335322
0.0049197946
0.0049179029
0.0049180339
0.0049225323
0.0049254579
0.0049223714
0.0049202597
0.0049197841
0.0049085304
0.0048968769
0.0048875516
0.0048763551
0.0048679316
0.004863856
0.0048856344
0.0048859913
0.0048861942
0.0048864163
0.0048868281
0.0048874298
0.0048882081
0.0048893115
0.0048909465
0.004894107
0.0048974768
0.004900177
0.0049009872
0.0049001478
0.0048979281
0.0048985679
0.0049009425
0.0049096403
0.0049117481
0.0049159144
0.0049173049
0.0049098943
0.0049077185
0.0049001844
0.00489704
0.0048915416
0.0048831512
0.0048764359
0.0048696782
0.0048644558
0.0048619185
0.0048721836
0.0048724852
0.0048727037
0.0048729225
0.0048731918
0.0048735139
0.0048738783
0.0048742306
0.0048745409
0.004875218
0.0048761445
0.0048773221
0.0048785924
0.0048791668
0.0048791794
0.0048798606
0.0048808848
0.0048814239
0.0048827163
0.0048833161
0.0048840185
0.0048820738
0.0048820324
0.0048819254
0.0048795622
0.0048785444
0.0048751093
0.0048707323
0.0048663506
0.0048620693
0.004858035
0.0048661574
0.0048663067
0.0048664247
0.0048665736
0.0048667736
0.0048670329
0.0048673508
0.0048677372
0.0048681702
0.0048685153
0.0048689812
0.0048698398
0.0048711109
0.0048715356
0.0048713781
0.0048713952
0.0048717808
0.0048719592
0.004872795
0.0048729742
0.0048734203
0.004873498
0.0048728641
0.0048728432
0.0048728721
0.0048718571
0.0048705068
0.0048680719
0.0048624764
0.0048584846
0.0048586258
0.0048594547
0.0048595632
0.0048597194
0.0048599261
0.0048601985
0.004860556
0.0048610194
0.0048616086
0.0048623362
0.0048632029
0.0048641843
0.0048654827
0.0048668732
0.004867156
0.0048670738
0.0048670498
0.0048671352
0.0048672038
0.0048676412
0.0048680499
0.0048686387
0.0048690182
0.0048688202
0.0048691025
0.0048691084
0.0048680343
0.0048668906
0.0048642557
0.0048625219
0.0048617417
0.0048599462
0.00086994871
0.0018811643
0.0037746476
0.0066077645
0.010360153
0.015126554
0.021007007
0.028055539
0.036366873
0.045399554
0.055308729
0.065643899
0.075618746
0.083999398
0.088929413
0.087768149
0.07723614
0.0563556
0.031920839
0.01548936
0.0091579027
0.007299735
0.0064592729
0.0059196333
0.0055889779
0.0053694042
0.0052190031
0.0051116801
0.0050367218
0.0049885617
0.0049639902
0.0021314053
0.0042957945
0.0071447153
0.010560366
0.014734575
0.019793501
0.025807304
0.033109205
0.041189534
0.050158661
0.05986791
0.069803195
0.07912562
0.086538235
0.090125915
0.087218402
0.074657958
0.052306144
0.028113472
0.013735089
0.0086726741
0.0071500473
0.0063940185
0.0058865926
0.0055723204
0.0053601769
0.0052133697
0.0051084588
0.0050347858
0.0049874426
0.0049633622
0.0039458774
0.0062865535
0.0091767531
0.012799715
0.01729675
0.022763538
0.029310237
0.036819744
0.045125589
0.054227893
0.063854921
0.073463772
0.082178125
0.088651305
0.09092384
0.086318148
0.071862982
0.048418448
0.025177726
0.012591921
0.0083088288
0.007083364
0.0063638918
0.0058714151
0.0055646559
0.0053558912
0.0052106168
0.0051068266
0.0050335381
0.0049865146
0.0049627452
0.0057269559
0.008299659
0.011552372
0.015572996
0.020407243
0.02618208
0.032992838
0.040553948
0.048975193
0.058099259
0.067578667
0.076824312
0.084908585
0.090431514
0.091394002
0.085126644
0.068896935
0.044708034
0.022611999
0.011499606
0.0081066001
0.0070003194
0.0063177424
0.0058475724
0.0055522604
0.0053488799
0.0052060695
0.0051041199
0.0050318146
0.0049854554
0.0049621233
0.0074768167
0.01040841
0.014006964
0.018327625
0.023466155
0.029551873
0.036448852
0.044189573
0.052716446
0.061816195
0.071103436
0.079948224
0.087373361
0.091928882
0.091582576
0.083686814
0.065805308
0.041148627
0.020335377
0.010798316
0.0079002173
0.0069410602
0.0062872656
0.0058324528
0.0055444012
0.0053443926
0.0052030928
0.0051022903
0.0050304802
0.0049845037
0.0049614211
0.0093246173
0.012556679
0.016431658
0.021028011
0.026509101
0.03280675
0.039884938
0.047779307
0.05636525
0.065396271
0.074452537
0.082862811
0.089602432
0.09317588
0.091524423
0.082030462
0.062633906
0.037744588
0.018344081
0.010080601
0.0077605115
0.0068803315
0.0062506075
0.0058136463
0.0055343848
0.0053386188
0.0051992443
0.0050999189
0.0050289005
0.0049834832
0.004960676
0.011116155
0.014636135
0.018811418
0.023743304
0.02948989
0.035985615
0.043270661
0.051294072
0.059907283
0.068837912
0.077633116
0.08558202
0.091615832
0.094198313
0.091250068
0.080197563
0.059426376
0.034548699
0.016643891
0.0096203317
0.0076320417
0.0068300221
0.0062222072
0.0057997823
0.0055269562
0.0053342961
0.0051962961
0.0050980332
0.0050275407
0.004982524
0.0049599111
0.012850214
0.016687651
0.021176999
0.026453936
0.032413282
0.039131146
0.046593501
0.054718075
0.063332803
0.072137968
0.080648461
0.08811588
0.093430687
0.095020666
0.090790273
0.078232344
0.056224446
0.031604198
0.015287017
0.0091964903
0.0075339413
0.0067816928
0.0061921444
0.0057847031
0.0055187056
0.0053294502
0.005192972
0.005095891
0.0050260639
0.0049815312
0.0049591363
0.014580273
0.01871684
0.02352655
0.02906963
0.035273534
0.042208733
0.049831676
0.058038154
0.066633955
0.075293562
0.083501452
0.090473995
0.09506427
0.095669226
0.0901846
0.0761735
0.053099804
0.028945141
0.014120939
0.0088989036
0.0074458993
0.0067391943
0.0061669167
0.0057726027
0.0055120235
0.0053254882
0.0051901928
0.00509403
0.0050247175
0.0049805748
0.0049583542
0.016255428
0.020695762
0.025828629
0.031605537
0.038064822
0.045207612
0.052974863
0.061245439
0.069804742
0.078302974
0.086195956
0.092667014
0.096535089
0.096169971
0.089471188
0.074065839
0.050066542
0.026586833
0.013223221
0.0086729547
0.0073736311
0.0066993774
0.0061420068
0.0057604412
0.0055051862
0.0053213958
0.0051872959
0.005092064
0.005023324
0.0049796039
0.0049575657
0.017913927
0.022649675
0.028061913
0.03408391
0.040787392
0.048119264
0.056013597
0.064332013
0.072840357
0.081165807
0.088737263
0.09470718
0.097863436
0.096550764
0.088681497
0.071950561
0.047172689
0.024538371
0.012457477
0.0084965717
0.0073087823
0.006663595
0.0061203287
0.0057502245
0.0054993889
0.0053178924
0.0051847556
0.0050902747
0.0050220145
0.0049786558
0.0049567715
0.019527826
0.024560789
0.030220504
0.036498869
0.043428431
0.050931862
0.058938622
0.06729084
0.075737166
0.083883008
0.091132156
0.096608275
0.099070174
0.096843608
0.087849788
0.06987251
0.044461574
0.022798566
0.011880445
0.0083610043
0.0072537313
0.0066305721
0.0060998
0.0057404501
0.0054937642
0.0053144609
0.005182229
0.0050884625
0.0050206963
0.004977703
0.0049559717
0.021117377
0.026421169
0.032322797
0.038841523
0.045966603
0.053635072
0.061741023
0.07011597
0.078492869
0.08645696
0.09338871
0.098384717
0.10017569
0.097072671
0.087008248
0.067870779
0.041965153
0.021348529
0.011423251
0.0082545787
0.00720511
0.0066008053
0.0060817096
0.0057320552
0.0054889046
0.0053114665
0.005179958
0.0050867754
0.0050194383
0.0049767654
0.0049551668
0.022678202
0.028225984
0.034364728
0.041102987
0.048396773
0.056223064
0.064412644
0.072801539
0.081106492
0.088892578
0.095516811
0.10005322
0.10120267
0.097265069
0.086190311
0.065972592
0.039707588
0.02016991
0.01109424
0.0081737748
0.0071638713
0.006573755
0.0060650834
0.0057242961
0.0054843762
0.0053086475
0.0051777661
0.0050851112
0.0050181925
0.0049758279
0.0049543568
0.024215492
0.029980066
0.036339037
0.043278134
0.050747221
0.05866417
0.066949237
0.075345704
0.083577595
0.091195779
0.097526461
0.10162855
0.10217669
0.097457729
0.085441266
0.064198365
0.037703186
0.019243281
0.010875378
0.0081123769
0.0071286333
0.0065496208
0.0060504734
0.0057175999
0.0054804643
0.0053061854
0.0051757752
0.0050835475
0.0050169959
0.0049749023
0.0049535413
0.025708165
0.031678046
0.03823614
0.045353838
0.052974538
0.061007836
0.069318692
0.07773723
0.08590083
0.093358401
0.099425508
0.1031274
0.10312108
0.097682631
0.084801715
0.062586877
0.03596286
0.018556683
0.010713311
0.0080649686
0.0070995653
0.0065281897
0.0060374145
0.0057115968
0.0054769494
0.0053039467
0.0051738954
0.0050820328
0.0050158245
0.0049739812
0.0049527187
0.027107353
0.033277902
0.040022085
0.047303028
0.05505729
0.06318919
0.071547874
0.079934648
0.088044467
0.095382622
0.10121304
0.10456221
0.10405669
0.09796904
0.084307643
0.061201686
0.034535967
0.017980119
0.010548903
0.0080257411
0.007075908
0.0065095694
0.0060261218
0.0057064618
0.0054739665
0.0053020178
0.0051721874
0.0050806074
0.0050146961
0.0049730697
0.0049518892
0.028387093
0.034722203
0.041627648
0.049056223
0.056939996
0.065172066
0.073597204
0.08199709
0.090042807
0.097237419
0.10288475
0.10594366
0.10500277
0.098343259
0.083990122
0.060093379
0.033398405
0.017503484
0.010413063
0.0079974845
0.0070576287
0.0064936914
0.0060163642
0.0057020056
0.0054714045
0.0053003312
0.0051706067
0.0050792459
0.0050135982
0.0049721643
0.0049510531
0.029731047
0.036141802
0.043134617
0.050659398
0.058634928
0.066946654
0.0754311
0.083857709
0.091882519
0.098995927
0.10447322
0.10725405
0.10597398
0.098828229
0.083875809
0.059299843
0.032529195
0.017107988
0.010291807
0.0079784866
0.0070443273
0.006480625
0.0060082231
0.0056983014
0.005469323
0.0052989303
0.0051691851
0.00507797
0.0050125402
0.0049712681
0.0049502106
0.031069607
0.037529375
0.044566559
0.052139413
0.06016673
0.068530209
0.077059071
0.085513024
0.093533657
0.10059934
0.10596519
0.10856614
0.10698794
0.099414085
0.083985402
0.058848808
0.031915028
0.016778943
0.01018819
0.0079695613
0.0070359634
0.0064703885
0.0060016178
0.005695277
0.0054676721
0.0052977892
0.0051679039
0.0050767682
0.0050115161
0.0049703793
0.0049493624
0.032379436
0.03885148
0.045896171
0.053480108
0.061524805
0.069915636
0.078475737
0.086958467
0.094991479
0.1020448
0.10735275
0.10983747
0.10805457
0.1001849
0.084325424
0.058760278
0.031554103
0.016495345
0.010097713
0.0079686711
0.007032493
0.0064631122
0.0059966353
0.0056929924
0.0054664813
0.005296935
0.0051667809
0.0050756508
0.0050105296
0.0049694988
0.0049485093
0.033648217
0.040092624
0.047105261
0.05466445
0.062693125
0.07109579
0.079703585
0.088241871
0.096327307
0.10338929
0.10866276
0.11107759
0.10917388
0.10110611
0.084943785
0.059050158
0.031466337
0.01622868
0.010015109
0.0079799255
0.0070341343
0.0064588991
0.0059932858
0.0056914286
0.0054657119
0.0052963493
0.0051658029
0.0050746073
0.0050095737
0.0049686236
0.0049476515
0.034887265
0.041235014
0.048159192
0.055655692
0.063680687
0.07211123
0.080758185
0.089332107
0.097440132
0.104539
0.10984604
0.11227291
0.11034487
0.10218465
0.085823072
0.059748355
0.031632622
0.015945055
0.009941318
0.0080003132
0.0070410451
0.0064576769
0.0059915271
0.0056905469
0.0054653194
0.0052960055
0.0051649608
0.0050736317
0.0050086439
0.0049677521
0.0049467858
0.036091752
0.04224081
0.048976797
0.056322348
0.06425739
0.072650975
0.081303266
0.089927567
0.098121775
0.10531901
0.11072875
0.11324606
0.11137448
0.10321646
0.086750199
0.060588947
0.032070488
0.015548174
0.0098834864
0.008028555
0.0070514357
0.0064584679
0.0059910516
0.0056901502
0.0054652972
0.0052958262
0.0051642264
0.0050727097
0.0050077348
0.0049668851
0.004945908
0.00089056574
0.0018203057
0.0036045956
0.0062873225
0.0098569997
0.014341741
0.019895587
0.026628534
0.034671654
0.043517258
0.05331146
0.06363722
0.073743933
0.082461283
0.087986623
0.087717347
0.078313229
0.05826158
0.033614013
0.016004352
0.0093021107
0.0073438284
0.0064784521
0.0059285425
0.0055934065
0.0053717091
0.0052207799
0.0051127741
0.0050376467
0.0049892844
0.0049642759
0.00094431961
0.0018692768
0.0036244987
0.0062336266
0.0097078397
0.014120139
0.019590074
0.026217265
0.034122433
0.042879765
0.052523751
0.062726045
0.072804426
0.081596287
0.087332411
0.087446842
0.07863874
0.059135171
0.03450836
0.016378055
0.0093946163
0.0073705703
0.0064898193
0.0059334456
0.0055957179
0.00537345
0.0052221384
0.0051136392
0.0050383365
0.0049897903
0.004964542
0.0010095575
0.0019225852
0.0036540256
0.0062160815
0.0096242262
0.013950305
0.019308157
0.025802906
0.033532597
0.042162103
0.051682439
0.061791014
0.071834089
0.080693356
0.086637234
0.087140119
0.078942001
0.060024958
0.035461644
0.016799619
0.009497056
0.0073992161
0.0065023351
0.0059393706
0.0055987423
0.005374571
0.0052231679
0.005114265
0.0050389907
0.0049903651
0.0049648948
0.0010846808
0.001979141
0.0036828233
0.0061971477
0.0095386142
0.01377772
0.019023375
0.025379467
0.032939934
0.04143459
0.050825331
0.060831253
0.070832602
0.079751342
0.085898615
0.086793487
0.079217351
0.060930305
0.03647201
0.017268839
0.0096097333
0.0074300209
0.006514214
0.0059440365
0.0056007522
0.0053771097
0.0052249581
0.0051154115
0.0050398259
0.0049909341
0.0049652823
0.0011758056
0.0020458795
0.0037159413
0.0061810438
0.0094547564
0.01360563
0.018738074
0.024951934
0.032345211
0.0406997
0.049954084
0.059849969
0.069800567
0.078769935
0.085114993
0.0864041
0.079459933
0.061849073
0.037534739
0.017786607
0.0097404769
0.0074633416
0.0065291588
0.005951915
0.005605182
0.0053781291
0.0052260885
0.005116087
0.0050405675
0.0049915616
0.0049656497
0.0012853183
0.0021194846
0.0037506301
0.0061648812
0.0093712988
0.013434556
0.018454662
0.024530888
0.031752759
0.03996145
0.04907249
0.058850338
0.068740216
0.077750297
0.084285963
0.08596984
0.079663655
0.062774423
0.038637502
0.018360548
0.0098825795
0.0074997149
0.0065422848
0.0059568631
0.0056071019
0.005380079
0.0052276534
0.0051170457
0.0050414272
0.0049922268
0.0049659259
0.0014187504
0.0022137679
0.0037987673
0.0061612677
0.0093004981
0.013275718
0.018182717
0.024119505
0.031168936
0.039226022
0.048184874
0.057835551
0.067653306
0.076693684
0.08341128
0.085488286
0.079826886
0.06369753
0.039801857
0.018990833
0.010045159
0.0075380859
0.0065567831
0.005963476
0.005610412
0.0053820895
0.0052292946
0.0051180525
0.0050423356
0.0049929307
0.0049663471
0.0015798659
0.0023287525
0.0038614388
0.0061679148
0.0092386056
0.013125209
0.01791874
0.023716146
0.030602098
0.038491538
0.04729139
0.056806403
0.066538706
0.075601259
0.082491089
0.084957142
0.07994811
0.064612143
0.04104911
0.019685765
0.010226787
0.0075790575
0.0065719703
0.005970337
0.005613845
0.005384259
0.0052310161
0.0051190976
0.0050432981
0.0049936694
0.0049668669
0.0017727362
0.0024656523
0.0039453496
0.0061937308
0.0091950326
0.01299269
0.017672319
0.023328404
0.030034252
0.03776485
0.046400142
0.055770776
0.06541355
0.074477833
0.081526992
0.08437438
0.080020788
0.065512261
0.042351667
0.020450838
0.010430208
0.0076232222
0.0065873447
0.0059774392
0.005617532
0.0053864467
0.0052328038
0.0051201984
0.0050443123
0.0049944456
0.0049674967
0.0019985143
0.0026382124
0.0040579295
0.006245473
0.009176612
0.012884988
0.017450039
0.022962895
0.029489191
0.037052699
0.045517086
0.054734296
0.064278035
0.073327081
0.08052064
0.083738236
0.080039423
0.066397535
0.04370775
0.021292006
0.010658748
0.0076700899
0.0066035422
0.0059847508
0.005621251
0.0053888591
0.0052346931
0.0051213383
0.0050453897
0.004995256
0.0049681635
0.0022608188
0.0028528888
0.0042097493
0.0063333059
0.0091923666
0.012810477
0.017259934
0.022628383
0.028983558
0.036370878
0.044650335
0.053702784
0.063127875
0.072152568
0.079474293
0.083047933
0.079999432
0.067251375
0.045116524
0.022217102
0.010915781
0.0077213418
0.0066197249
0.0059923799
0.0056254699
0.0053912311
0.0052366167
0.0051225456
0.0050465187
0.0049961054
0.0049687925
0.0025657624
0.0031167428
0.0044139925
0.0064707894
0.0092545419
0.012779639
0.017111052
0.022333612
0.028517181
0.035713717
0.043805625
0.052683009
0.061976034
0.070959268
0.078390923
0.082303515
0.079896188
0.068057177
0.04653357
0.023224816
0.011204353
0.0077748555
0.0066366742
0.0060001687
0.0056294761
0.0053938935
0.0052386958
0.0051237924
0.0050477203
0.004996987
0.0049694502
0.002905059
0.0034305697
0.0046777246
0.0066647377
0.0093714953
0.012802171
0.01701476
0.022085966
0.028094794
0.035078813
0.042987641
0.051681834
0.060829097
0.069752319
0.077274166
0.081505808
0.079726085
0.068806736
0.0479449
0.024320358
0.011529549
0.0078347646
0.0066537322
0.0060082815
0.005634387
0.0053964768
0.0052407175
0.0051251138
0.0050489641
0.0049979043
0.0049701819
0.0032888234
0.0038107481
0.0050096245
0.0069377666
0.0095626705
0.012893121
0.016982525
0.02189691
0.027725765
0.03450625
0.042211183
0.050707815
0.059693967
0.068533504
0.076128098
0.080656377
0.079486443
0.069491463
0.049363688
0.025507197
0.011893872
0.0078967477
0.0066708554
0.0060169059
0.0056388161
0.0053993694
0.0052430252
0.005126487
0.0050502891
0.0049988562
0.0049709882
0.0037198051
0.0042631654
0.0054323772
0.007294339
0.0098372586
0.013063426
0.017024072
0.021776882
0.02741823
0.033994196
0.041494793
0.049771707
0.058579174
0.067320231
0.07495875
0.0797577
0.079175294
0.070102316
0.050776582
0.026781057
0.012305241
0.0079657294
0.0066892348
0.0060252012
0.0056443825
0.0054022851
0.0052450809
0.0051279281
0.0050516374
0.0049998351
0.0049718379
0.0042236076
0.0048034368
0.005958087
0.0077668414
0.010209853
0.013322246
0.017146982
0.021733809
0.027179236
0.033542587
0.040803455
0.048873785
0.057492247
0.066125592
0.073773168
0.07881324
0.078791585
0.070628971
0.052180137
0.028146169
0.012762955
0.008042479
0.0067057377
0.0060357604
0.0056498793
0.0054054022
0.0052476694
0.0051294672
0.0050530725
0.0050008614
0.0049727237
0.0048499268
0.005464071
0.0065985131
0.0083342685
0.010685534
0.01367677
0.017356851
0.021772422
0.027013678
0.033157628
0.040179789
0.048022834
0.05643789
0.064932349
0.07257527
0.077827086
0.078336455
0.071063699
0.053562314
0.029577975
0.013281525
0.0081175756
0.0067266632
0.0060438477
0.0056556224
0.0054089334
0.0052496956
0.0051310369
0.0050545064
0.0050018951
0.0049736471
0.0056189745
0.0062487673
0.0073510689
0.0090041038
0.011254449
0.014120608
0.017650469
0.021890852
0.026922314
0.032842297
0.039626723
0.047226327
0.055421443
0.063758598
0.07137094
0.076803815
0.077812922
0.07141102
0.05492897
0.031128996
0.013855151
0.0082186621
0.0067418485
0.0060575113
0.0056635528
0.005412334
0.0052525649
0.0051328041
0.0050560212
0.0050030091
0.0049746077
0.0065550957
0.0071703496
0.0082216819
0.0097908376
0.011928518
0.014648467
0.018018767
0.022080329
0.026899998
0.032593221
0.039136373
0.046494807
0.054449517
0.062609205
0.070165238
0.075747366
0.077220469
0.071670418
0.056244181
0.032731494
0.014506787
0.0083243083
0.006768289
0.0060671449
0.0056691318
0.0054169068
0.0052546278
0.0051345348
0.0050575222
0.005004086
0.0049755993
0.0076384119
0.0082171312
0.009193131
0.010653685
0.012654151
0.01523456
0.018442908
0.022324466
0.026934595
0.032400182
0.038697244
0.045788387
0.053514562
0.061484912
0.068958802
0.074660465
0.07655836
0.071825062
0.057474685
0.034353318
0.015215257
0.0084575879
0.0067845766
0.0060818526
0.0056801911
0.0054207114
0.0052575819
0.005136595
0.0050590724
0.0050053014
0.0049766148
0.0088677235
0.0093822753
0.010251591
0.01157594
0.013423048
0.015852729
0.018897706
0.022600614
0.027007557
0.032247804
0.038300017
0.045133699
0.052615422
0.060383424
0.067746277
0.073544191
0.075827988
0.071873638
0.058610187
0.036027153
0.016018453
0.0086147329
0.0068188695
0.0061003175
0.0056879587
0.0054267516
0.0052601574