/*--------------------------------*- C++ -*----------------------------------*\
| =========                 |                                                 |
| \\      /  F ield         | OpenFOAM: The Open Source CFD Toolbox           |
|  \\    /   O peration     | Version:  2406                                  |
|   \\  /    A nd           | Website:  www.openfoam.com                      |
|    \\/     M anipulation  |                                                 |
\*---------------------------------------------------------------------------*/
FoamFile
{
    version     2.0;
    format      ascii;
    arch        "LSB;label=32;scalar=64";
    class       volScalarField;
    location    "0.06";
    object      alphat;
}
// * * * * * * * * * * * * * * * * * * * * * * * * * * * * * * * * * * * * * //

dimensions      [1 -1 -1 0 0 0 0];

internalField   nonuniform List<scalar> 
8260
(
0.04001144
0.045375872
0.051681601
0.058803712
0.066580067
0.074837986
0.083357543
0.091841839
0.09988868
0.10692283
0.11213439
0.11440536
0.11222392
0.10370684
0.086830471
0.060634932
0.032083134
0.015068744
0.00978267
0.0080375011
0.0071026969
0.0064763257
0.0059810101
0.0056687668
0.0054575761
0.0052912691
0.0051647333
0.0050722569
0.0050074913
0.0049662053
0.0049450251
0.04736203
0.05288697
0.058950434
0.065621317
0.072858441
0.080531445
0.088432302
0.096263825
0.10361582
0.1099049
0.11429166
0.11563549
0.11240526
0.10273073
0.084647236
0.057746301
0.029342231
0.014188718
0.0095257185
0.0079350741
0.0070475619
0.0064412006
0.0059593078
0.0056580662
0.005450985
0.0052870218
0.0051619061
0.0050703514
0.0050062948
0.0049654207
0.0049445036
0.055783331
0.061099825
0.066858757
0.073098301
0.079795432
0.086845701
0.094059116
0.10114697
0.10769441
0.11310393
0.11652289
0.11678485
0.11234116
0.10134351
0.081924849
0.054242845
0.026640503
0.013288016
0.0093657923
0.0078835669
0.0070182282
0.0064226998
0.0059480651
0.0056525086
0.0054475979
0.00528484
0.0051603816
0.0050692367
0.0050054293
0.0049647238
0.0049439314
0.065385211
0.070270137
0.075584496
0.081307076
0.08739953
0.093757877
0.10019804
0.10643513
0.11205048
0.11643539
0.11872269
0.11772413
0.1118775
0.09936841
0.078480764
0.050041309
0.023848016
0.012500827
0.0091997331
0.0078033036
0.0069680708
0.0063899542
0.0059278595
0.0056421296
0.0054412549
0.0052807261
0.0051574312
0.0050671432
0.0050040573
0.004963777
0.0049432796
0.076163951
0.080450912
0.085195716
0.090285192
0.095667408
0.1012301
0.10678484
0.11204284
0.11657793
0.11977003
0.12073681
0.11827165
0.11080563
0.096575609
0.074090919
0.045057383
0.021023601
0.011742689
0.0090306928
0.0077288054
0.0069234864
0.0063611785
0.0059107298
0.0056331932
0.0054358623
0.0052772117
0.005154919
0.0050653711
0.0050027774
0.0049628117
0.0049425366
0.08791237
0.09153121
0.095591748
0.099929716
0.10448113
0.10912332
0.11365838
0.1177877
0.12107295
0.12288025
0.12231239
0.11814756
0.10882207
0.092650017
0.068476252
0.039256267
0.018503288
0.011045779
0.0088588926
0.0076372975
0.0068654634
0.0063226089
0.0058874279
0.0056207006
0.0054282511
0.0052722216
0.0051513203
0.0050628391
0.0050010781
0.0049616157
0.0049416886
0.10026181
0.10317084
0.1064584
0.10994131
0.11354427
0.11713415
0.12050184
0.12333575
0.12518231
0.12539162
0.12305193
0.11693093
0.10549126
0.087163396
0.061305658
0.032737359
0.016132242
0.010424271
0.0086803656
0.0075433915
0.0068072068
0.0062838996
0.0058649877
0.0056083214
0.0054207372
0.0052672546
0.0051477335
0.0050603558
0.0049993267
0.004960327
0.0049407215
0.11260629
0.1147748
0.11722014
0.11975929
0.12230515
0.12471318
0.12676168
0.12812427
0.12833054
0.12671378
0.12234904
0.11400131
0.10019884
0.079548802
0.05224514
0.025874325
0.013975511
0.0099673638
0.0084951962
0.0074350983
0.0067370932
0.0062362868
0.0058373358
0.0055927314
0.0054111098
0.0052608531
0.005143105
0.0050571427
0.0049971501
0.0049587853
0.0049396191
0.12398728
0.12538823
0.12693352
0.12845308
0.12984517
0.13095118
0.13153454
0.13125229
0.12961625
0.12594391
0.11930112
0.10846263
0.092098427
0.069099912
0.041158949
0.020241738
0.012180924
0.0095425785
0.0082919957
0.007320732
0.0066634244
0.0061862612
0.0058093761
0.0055765765
0.0054008838
0.0052540031
0.0051381756
0.0050537699
0.0049948034
0.0049570811
0.0049383633
0.132902
0.13352686
0.13412495
0.13456343
0.1347227
0.13442574
0.13341767
0.13133639
0.12767619
0.12174316
0.11260358
0.099059235
0.080069762
0.055091657
0.028739023
0.015822646
0.010800652
0.0091717711
0.00807694
0.0071920352
0.006577422
0.0061275618
0.0057763772
0.0055573002
0.0053882012
0.0052454722
0.0051321099
0.0050495982
0.0049919682
0.0049550704
0.0049369319
0.13708796
0.13694919
0.13658816
0.1359133
0.13478791
0.13301831
0.13032875
0.12633665
0.12052309
0.11219651
0.10044824
0.084120694
0.062822281
0.037275911
0.019767147
0.012668751
0.010000665
0.0088063876
0.0078397223
0.0070548579
0.0064865175
0.0060660096
0.0057423626
0.0055370836
0.0053741902
0.0052359699
0.0051254839
0.0050450756
0.0049888468
0.0049528145
0.0049352967
0.1332512
0.13232985
0.13103467
0.12927039
0.12687957
0.12364411
0.11926434
0.11334241
0.10536549
0.094687449
0.080503707
0.061616917
0.039490461
0.022824217
0.014296955
0.010731007
0.009456903
0.0084021925
0.0075947729
0.0068965906
0.0063857048
0.0059972788
0.0057032639
0.0055133428
0.0053573025
0.0052244505
0.0051175383
0.0050396314
0.0049851551
0.004950169
0.0049329692
0.11676782
0.11520614
0.11308477
0.11031302
0.10672923
0.10210038
0.096105686
0.088366756
0.078454273
0.065931131
0.05072529
0.035923127
0.023161695
0.014996579
0.011224229
0.0099392601
0.0088341725
0.0080366759
0.0073261488
0.0067350756
0.0062770459
0.0059262687
0.005663007
0.0054873375
0.0053387771
0.0052116932
0.0051086877
0.0050336434
0.0049811021
0.0049471842
0.0049302148
0.082165578
0.079971805
0.077294282
0.074167589
0.070442465
0.065931709
0.060435512
0.053890219
0.046251294
0.037596065
0.028407948
0.020130358
0.014273378
0.011163611
0.0098795394
0.0091100084
0.0083337864
0.0075870032
0.0070453011
0.0065526223
0.0061677262
0.0058443233
0.0056184277
0.0054570245
0.0053165793
0.0051968329
0.0050980607
0.0050265531
0.0049764337
0.0049437307
0.0049271611
0.046266054
0.044879892
0.043168785
0.041133089
0.038630208
0.035593306
0.032238919
0.028493494
0.024383302
0.02002299
0.015768971
0.01238855
0.010438561
0.0094665582
0.0092191559
0.0085181419
0.007712967
0.007256448
0.006781843
0.0063782918
0.0060351691
0.0057634027
0.0055733241
0.005424237
0.0052919652
0.005180245
0.0050860339
0.0050187334
0.0049713404
0.004939895
0.0049238976
0.022926249
0.022433217
0.021703705
0.020778595
0.019628642
0.01825447
0.01672786
0.015079279
0.013366046
0.011699956
0.010242458
0.0092960951
0.0088229151
0.0088704739
0.0081435098
0.0076815638
0.00731602
0.0068374866
0.0064900992
0.0061776038
0.0059203758
0.0056742995
0.0055200097
0.0053862623
0.0052645032
0.0051600137
0.005071789
0.0050098183
0.0049654722
0.0049355817
0.0049205707
0.012195144
0.012077414
0.011833091
0.011492227
0.0110704
0.010591997
0.010082325
0.0095400377
0.0089586741
0.0085018643
0.0082973201
0.0082197794
0.0082266149
0.0077054517
0.0075221439
0.0072829053
0.0068508591
0.0065959633
0.0062531243
0.0060313427
0.0057824896
0.0055869844
0.0054688877
0.0053434736
0.0052331805
0.0051379052
0.0050566738
0.0050001654
0.0049589641
0.0049308879
0.0049164424
0.0082617111
0.0082340868
0.0081592055
0.0080549241
0.0079230342
0.0077846222
0.0076640585
0.0075561946
0.0075028146
0.0075012761
0.0075790465
0.0074832566
0.0070533917
0.0070628474
0.006776881
0.0065893981
0.0065467931
0.0062711481
0.0060020903
0.0058331384
0.005670172
0.0055131474
0.0054073548
0.0052956203
0.0051985638
0.0051129357
0.005038953
0.0049897188
0.0049515532
0.0049256754
0.0049120748
0.006976369
0.0069293746
0.0068986986
0.0068812098
0.0068755082
0.00687441
0.0068986745
0.0068700406
0.0068446933
0.0068282691
0.0067326897
0.0066085757
0.0066708682
0.0064387924
0.0063861091
0.0063204691
0.0061146758
0.0060668918
0.0058182751
0.005725388
0.0055724497
0.0054312411
0.0053507531
0.0052480569
0.0051597411
0.0050857904
0.0050220537
0.004978307
0.0049436389
0.004920041
0.0049073069
0.0063769218
0.006374965
0.0063690088
0.0063653221
0.0063799488
0.0064044442
0.0063889036
0.0063730318
0.006330804
0.0062377688
0.0061773598
0.0061499707
0.0060383703
0.006041448
0.0060175507
0.005842479
0.0058186624
0.0057521717
0.0056701543
0.0055717138
0.0054531854
0.0053675447
0.0052856391
0.0051920061
0.0051165157
0.0050584444
0.0050026418
0.0049660638
0.0049350885
0.0049138656
0.0049020983
0.0059452904
0.0059417231
0.0059343871
0.0059160166
0.0058842951
0.0058432031
0.0058344473
0.0058225575
0.0058100026
0.0057956997
0.0057952487
0.0057727091
0.0057278462
0.0056774452
0.0056470218
0.0056265598
0.0055279539
0.0054888388
0.0054561637
0.0054116227
0.0053486041
0.0052740618
0.0052103648
0.0051438532
0.005074271
0.0050272112
0.0049847964
0.0049529408
0.004926124
0.004907265
0.0048968955
0.0055457403
0.0055468582
0.0055450211
0.0055401848
0.0055346157
0.005533615
0.0055412842
0.0055418882
0.0055345229
0.0055156441
0.0054843628
0.0054627429
0.0054404591
0.0054170303
0.0054053587
0.0053503671
0.00537557
0.005297294
0.0052652889
0.0052275936
0.0052173317
0.0051885617
0.0051159521
0.0050823292
0.0050326501
0.0049969175
0.0049635519
0.0049401111
0.0049170346
0.0049002015
0.0048909261
0.0053344777
0.0053360526
0.0053346929
0.00533108
0.005324512
0.0053144608
0.0052996225
0.0052868557
0.0052804669
0.0052755698
0.0052712585
0.0052748333
0.0052674925
0.0052647514
0.0052624471
0.0052390172
0.0051976797
0.0051930825
0.0051974525
0.0051410964
0.0051384966
0.0050901258
0.0050621317
0.0050231506
0.0049953145
0.0049685244
0.0049480988
0.0049265132
0.0049074248
0.0048931444
0.0048855726
0.005139256
0.0051406409
0.0051402431
0.0051385562
0.0051363415
0.0051341584
0.0051333957
0.0051377053
0.0051391568
0.0051378021
0.0051345304
0.0051247037
0.0051207307
0.0051094766
0.0051047305
0.0051089892
0.0051000282
0.0050952204
0.0050901926
0.0050318832
0.0050273243
0.0050364577
0.0050125499
0.0049791189
0.0049640376
0.0049469982
0.0049316535
0.0049128094
0.0048990428
0.0048863585
0.0048795403
0.0050425294
0.0050440917
0.0050440836
0.0050429198
0.0050406152
0.0050369591
0.0050314253
0.0050252746
0.0050218114
0.0050190392
0.0050160728
0.0050136548
0.0050127651
0.0050139696
0.0050174116
0.0050140513
0.0050088766
0.0050073791
0.0049926191
0.004973793
0.0049722976
0.0049754499
0.0049737567
0.0049559323
0.0049449125
0.0049298698
0.0049221911
0.004903604
0.0048905196
0.0048800491
0.0048738687
0.0049624457
0.0049633271
0.0049632896
0.0049627314
0.0049619466
0.004961144
0.0049605472
0.0049606871
0.00496134
0.0049625793
0.0049643518
0.0049658843
0.004967583
0.0049710604
0.0049686754
0.0049680438
0.0049653064
0.004960333
0.0049494561
0.0049409912
0.0049404079
0.0049461445
0.0049429969
0.0049421459
0.0049323904
0.0049203861
0.0049085535
0.0048945154
0.0048835578
0.0048739607
0.0048682394
0.0049218961
0.0049223156
0.0049220556
0.0049214643
0.0049208514
0.0049204345
0.0049205569
0.0049212275
0.0049227456
0.0049254554
0.0049292133
0.0049331663
0.0049361327
0.0049363702
0.004939505
0.004939391
0.0049417113
0.0049388206
0.0049280525
0.0049299364
0.0049278051
0.0049310847
0.0049256513
0.0049251783
0.0049205527
0.0049088487
0.0048964088
0.0048875075
0.0048757768
0.004867924
0.0048639137
0.004885011
0.0048854156
0.0048856132
0.0048857711
0.0048862008
0.0048869595
0.0048878255
0.0048888052
0.0048899186
0.0048913845
0.0048934455
0.0048963858
0.0048994884
0.0049009279
0.0048992149
0.0048984348
0.0048987351
0.0049016812
0.004911488
0.0049161399
0.00491825
0.0049096076
0.0049058593
0.004899386
0.004894215
0.0048918524
0.0048830796
0.0048764024
0.0048697251
0.0048644775
0.0048619577
0.004872383
0.0048726748
0.0048728583
0.0048730235
0.0048732379
0.0048735229
0.0048738783
0.004874279
0.0048746918
0.0048751134
0.004875731
0.0048769239
0.0048784921
0.004879419
0.0048793734
0.0048802614
0.0048812796
0.0048818671
0.0048829914
0.0048840662
0.0048849971
0.0048832104
0.0048821614
0.0048816371
0.0048800119
0.0048784485
0.0048752276
0.0048708275
0.0048663762
0.0048621233
0.0048581046
0.0048661383
0.0048663012
0.0048664345
0.0048665999
0.0048668142
0.0048670851
0.0048674143
0.0048678084
0.0048682514
0.0048685924
0.0048690046
0.0048698024
0.0048710042
0.0048717056
0.0048714823
0.0048714236
0.004871764
0.0048721833
0.0048730382
0.0048736533
0.0048744401
0.0048743864
0.004873459
0.0048728343
0.0048733046
0.0048718442
0.0048705479
0.0048681762
0.0048624928
0.004858567
0.0048586048
0.0048593895
0.0048595109
0.0048596888
0.0048599226
0.0048602226
0.0048606007
0.0048610683
0.0048616376
0.0048623244
0.004863143
0.0048640964
0.0048654039
0.0048667917
0.0048669481
0.0048667224
0.0048667623
0.0048671495
0.0048676702
0.0048681959
0.0048688906
0.0048696604
0.0048696349
0.0048696986
0.0048692275
0.00486938
0.0048680846
0.0048668375
0.0048643521
0.0048625189
0.004861683
0.0048599835
0.00087062945
0.0018831124
0.003779394
0.0066149654
0.010369817
0.01513891
0.02102265
0.02807472
0.03638784
0.045423314
0.055335223
0.065672811
0.075650048
0.084033675
0.08896848
0.087815537
0.077303175
0.05641072
0.031929051
0.015499969
0.0091628488
0.0072618469
0.0064234609
0.0058878325
0.0055738687
0.0053631528
0.0052172996
0.0051116424
0.0050368821
0.0049885884
0.0049637535
0.0021343613
0.0043025402
0.0071523077
0.010569404
0.014745639
0.019806946
0.025823126
0.033128096
0.041210461
0.050182129
0.059893887
0.069831592
0.079156631
0.086572667
0.090165749
0.087267211
0.074727173
0.052360364
0.028122163
0.013750368
0.008672922
0.0071135821
0.006359363
0.0058546317
0.005557755
0.0053542171
0.0052117923
0.0051083981
0.0050349645
0.0049874874
0.0049632505
0.0039519366
0.0062930667
0.0091842125
0.012808998
0.017308233
0.022777429
0.029326728
0.036838142
0.045146262
0.054250987
0.063880425
0.07349175
0.082208937
0.088685906
0.09096429
0.08636786
0.071933608
0.0484708
0.025185693
0.012605882
0.0083271046
0.0070484844
0.0063299356
0.0058392398
0.0055503357
0.0053500684
0.0052091032
0.0051067495
0.0050337464
0.0049865745
0.004962615
0.0057314565
0.0083055602
0.011560153
0.015582722
0.02041886
0.026196142
0.033008469
0.040571818
0.048995401
0.058121844
0.067603676
0.076851918
0.084939257
0.09046627
0.091434866
0.085176686
0.068968088
0.044757779
0.022620133
0.011522416
0.0081265995
0.0069671413
0.0062847896
0.005815064
0.0055383806
0.0053432691
0.0052046552
0.0051040155
0.0050320393
0.0049855268
0.0049619077
0.0074824786
0.010415372
0.014015212
0.018337319
0.023477573
0.029565288
0.036464103
0.044206982
0.052736121
0.061838227
0.071127958
0.079975497
0.087403911
0.091963711
0.091623547
0.083736255
0.065875982
0.041195901
0.020345252
0.010822266
0.0079300414
0.0069096044
0.0062550777
0.0057997063
0.005530898
0.0053389276
0.0052017532
0.0051021772
0.0050307289
0.0049845836
0.0049611772
0.009329771
0.012562998
0.016439357
0.021037313
0.026520216
0.032819489
0.039899656
0.047796148
0.056384334
0.065417744
0.074476603
0.08288979
0.089632856
0.093210649
0.091565097
0.082078452
0.062702797
0.037789197
0.018356051
0.010114187
0.0077968652
0.0068504892
0.0062192796
0.0057805769
0.0055213239
0.0053333274
0.0051979945
0.0050997943
0.0050291646
0.0049835676
0.004960432
0.011121328
0.014642502
0.018819065
0.023752529
0.029500516
0.035997914
0.04328485
0.051310324
0.05992578
0.068858861
0.077656781
0.08560875
0.091646112
0.094232852
0.091289975
0.080243122
0.059491626
0.034589571
0.016658521
0.009656133
0.007675092
0.006801839
0.0061916435
0.0057664878
0.0055143377
0.0053291414
0.0051951261
0.0050979125
0.005027824
0.0049826102
0.0049596779
0.012855085
0.016693667
0.021184283
0.026462661
0.032423355
0.0391429
0.046607107
0.054733732
0.06335074
0.07215845
0.080671796
0.088142415
0.093460803
0.095054788
0.0908289
0.07827444
0.056284901
0.031641498
0.015305053
0.0092413778
0.0075833564
0.0067554191
0.006162368
0.0057511514
0.0055065449
0.0053244369
0.0051918891
0.0050957772
0.0050263606
0.0049816157
0.0049589166
0.01458484
0.018722539
0.023533526
0.029077842
0.035283134
0.042219932
0.049844696
0.058053238
0.066651386
0.075313656
0.083524546
0.090500399
0.095094211
0.095702768
0.090221571
0.076211218
0.053154637
0.028979242
0.014145756
0.0089478343
0.0075007111
0.0067149005
0.0061378754
0.0057389026
0.0055003319
0.0053205915
0.0051891958
0.0050939346
0.0050250286
0.0049806553
0.0049581486
0.016259659
0.020701056
0.02583506
0.031613161
0.038073821
0.045218209
0.052987302
0.061259993
0.069821739
0.078322777
0.086218914
0.09269337
0.096564857
0.096202771
0.089506062
0.074098282
0.050114286
0.02661831
0.013251085
0.0087293445
0.0074334214
0.0066774549
0.0061137086
0.0057266171
0.0054939566
0.0053166084
0.0051863912
0.0050919916
0.0050236456
0.0049796778
0.0049573743
0.017917571
0.022654359
0.028067616
0.034090848
0.040795737
0.048129265
0.05602549
0.064346098
0.072857009
0.081185432
0.088760207
0.094733588
0.09789305
0.096582652
0.088713775
0.071976777
0.047212661
0.024567859
0.012490495
0.0085534536
0.0073724274
0.0066441999
0.0060927615
0.0057163996
0.0054886221
0.0053131938
0.0051839485
0.0050902322
0.0050223463
0.0049787217
0.004956594
0.019530936
0.024564804
0.030225541
0.03650513
0.043436194
0.050941319
0.05895003
0.06730454
0.07575358
0.083902583
0.091155224
0.096634861
0.099099713
0.096874543
0.08787922
0.069892149
0.044493087
0.022826613
0.011916807
0.0084206833
0.0073206953
0.0066140668
0.006073001
0.0057066943
0.0054834358
0.0053098367
0.005181528
0.0050884528
0.0050210354
0.0049777596
0.004955808
0.021120082
0.026424668
0.032327324
0.038847252
0.045973917
0.053644056
0.061752034
0.07012938
0.078509166
0.086476626
0.093412043
0.098411602
0.10020524
0.097102666
0.087034614
0.067883505
0.041987755
0.021375524
0.011462103
0.0083142849
0.0072741398
0.0065873447
0.0060557316
0.005698503
0.0054789938
0.0053068974
0.0051793727
0.0050868008
0.0050197841
0.0049768122
0.0049550164
0.022680901
0.028229334
0.034369025
0.041108443
0.048403611
0.056231639
0.064423357
0.072814767
0.081122799
0.088912489
0.095540571
0.10008058
0.10123236
0.097294137
0.086213424
0.06597814
0.039721065
0.020195901
0.011134956
0.0082334669
0.0072340602
0.0065635756
0.0060400197
0.0056910531
0.0054748389
0.0053041164
0.0051773069
0.0050851717
0.0050185432
0.0049758649
0.0049542196
0.024218376
0.029983486
0.036343252
0.043283409
0.050753862
0.058672561
0.066959789
0.075358868
0.083594051
0.091216125
0.097550905
0.10165661
0.10220677
0.097486066
0.085461299
0.064197061
0.037707689
0.019268122
0.010915971
0.0081707934
0.0071987568
0.0065428014
0.0060264372
0.0056848171
0.0054712562
0.0053016759
0.0051754526
0.0050836416
0.0050173512
0.0049749298
0.0049534166
0.025710793
0.031681321
0.038240201
0.045358935
0.052980982
0.061015989
0.069329006
0.077750504
0.085917611
0.093379352
0.099450864
0.10315645
0.10315184
0.09771057
0.084819047
0.062579419
0.035958913
0.018579927
0.010753984
0.008121361
0.0071687707
0.0065247956
0.0060145324
0.0056794201
0.0054680114
0.0052994458
0.0051737185
0.0050821577
0.0050161843
0.0049740002
0.0049526059
0.027109496
0.033280794
0.040025875
0.047307918
0.055063577
0.063197211
0.071558058
0.079947935
0.088061709
0.095404328
0.10123949
0.10459248
0.10408846
0.097997015
0.084322809
0.061189067
0.03452405
0.018000734
0.010587887
0.0080790595
0.0071434594
0.0065095358
0.0060045232
0.0056750739
0.0054652418
0.0052975172
0.0051721633
0.0050807596
0.0050150609
0.0049730812
0.0049517875
0.028388854
0.034724679
0.041631037
0.049060788
0.056946043
0.065179998
0.073607393
0.082010526
0.090060597
0.097260033
0.10291229
0.1059754
0.10503592
0.098371783
0.084003787
0.060077081
0.033379172
0.017519886
0.010448368
0.008046849
0.0071229847
0.0064968935
0.0059961723
0.0056715841
0.0054628373
0.0052958265
0.0051707396
0.0050794216
0.0050139693
0.0049721696
0.0049509619
0.029732707
0.036144121
0.043137865
0.05066387
0.058640959
0.066954608
0.075441195
0.083871336
0.091901025
0.099019506
0.1045022
0.10728781
0.1060089
0.098857871
0.083888714
0.059281637
0.032503654
0.017118695
0.010321584
0.008022618
0.0071071339
0.0064868479
0.0059895525
0.0056690246
0.0054608739
0.0052944198
0.005169476
0.0050781656
0.0050129194
0.0049712684
0.0049501295
0.031071171
0.037531598
0.04456971
0.05214384
0.060172857
0.068538448
0.077068991
0.085526592
0.093553039
0.10062394
0.1059956
0.1086017
0.10702498
0.099444491
0.083998256
0.058830555
0.031884639
0.016782852
0.01021061
0.0080071776
0.0070960102
0.0064793774
0.0059845629
0.0056672959
0.0054593183
0.0052932708
0.0051683507
0.0050769804
0.0050119057
0.0049703762
0.0049492907
0.032380893
0.038853586
0.045899216
0.053484467
0.061531026
0.069924381
0.078485715
0.086971806
0.095011757
0.1020704
0.10738461
0.10987502
0.10809411
0.10021786
0.084340411
0.05874379
0.031520795
0.016492134
0.010110277
0.0080000721
0.0070897355
0.0064745748
0.0059812693
0.0056664336
0.0054582235
0.0052924053
0.0051673783
0.0050758774
0.005010932
0.0049694937
0.0049484465
0.033649685
0.040094694
0.047108215
0.054668666
0.062699115
0.071104138
0.079714341
0.088256339
0.096347687
0.10341574
0.10869602
0.11111718
0.10921618
0.10114193
0.084959562
0.059036058
0.031435259
0.016219572
0.010018385
0.0079993997
0.0070885609
0.0064725386
0.0059796585
0.0056663906
0.0054575758
0.0052918044
0.0051665425
0.0050748469
0.0050099916
0.0049686179
0.004947597
0.034888786
0.041237119
0.048162139
0.055659835
0.0636865
0.072119392
0.080769371
0.089347397
0.097460822
0.10456615
0.10988058
0.11231453
0.11039016
0.10222388
0.08584052
0.059736462
0.031600628
0.015933962
0.0099331555
0.0080054938
0.0070908271
0.0064729816
0.0059796647
0.0056667662
0.0054573454
0.0052914474
0.0051658309
0.0050738842
0.0050090797
0.0049677471
0.0049467415
0.036093379
0.042243039
0.048979846
0.056326532
0.064263209
0.072659133
0.081314605
0.089943115
0.098142751
0.10534669
0.11076426
0.11328942
0.11142249
0.10325909
0.086769504
0.060580168
0.032038867
0.015538974
0.0098657879
0.0080209878
0.0070968337
0.0064748863
0.0059804317
0.0056677138
0.0054574215
0.0052912681
0.0051652119
0.0050729764
0.0050081904
0.004966882
0.0049458798
0.0008907269
0.0018219416
0.0036090709
0.0062944941
0.0098670853
0.014354799
0.019912048
0.02664868
0.034693614
0.043542253
0.053338993
0.063667083
0.073776007
0.082496017
0.088025749
0.087764459
0.078378728
0.058316332
0.033621424
0.016020163
0.0093007592
0.0073024043
0.0064417169
0.005897209
0.0055783623
0.0053654147
0.0052190549
0.0051127794
0.0050377789
0.0049892985
0.004964019
0.00094441116
0.0018709278
0.0036291141
0.0062412288
0.0097184309
0.014133859
0.019607293
0.026238478
0.034145708
0.04290607
0.052552546
0.062757029
0.072837289
0.081631508
0.087371648
0.087493639
0.078702104
0.059187992
0.03451486
0.016392872
0.0093876055
0.0073260915
0.0064525341
0.0059027735
0.0055808449
0.0053671358
0.0052203945
0.0051136698
0.0050384562
0.0049897873
0.0049642868
0.001009536
0.0019244933
0.003659014
0.0062242733
0.0096356856
0.013965149
0.019326683
0.02582567
0.033557386
0.042189749
0.051712496
0.061823026
0.071867778
0.080729038
0.08667645
0.087186253
0.0790026
0.060074851
0.035466736
0.016813272
0.0094837964
0.007351985
0.0064644078
0.0059090412
0.0055839863
0.0053682429
0.0052214279
0.0051143414
0.0050390785
0.0049903562
0.0049646597
0.0010841093
0.0019810118
0.0036881686
0.0062060839
0.0095511606
0.013793891
0.019043343
0.025403087
0.032966321
0.04146368
0.050856754
0.060864427
0.070867136
0.079787422
0.085937608
0.086838498
0.0792743
0.060975905
0.03647504
0.017280824
0.0095907961
0.0073787514
0.0064758455
0.0059148692
0.0055863129
0.0053707426
0.0052231984
0.0051155011
0.0050399061
0.0049909021
0.0049650429
0.0011757998
0.0020490179
0.0037226322
0.006191366
0.0094687962
0.013623436
0.018759756
0.024977421
0.032373412
0.040730397
0.049986985
0.059884366
0.069835936
0.07880629
0.085153456
0.08644735
0.079511907
0.061888241
0.037535156
0.0177974
0.0097119128
0.0074103501
0.0064902992
0.0059228571
0.0055907687
0.005371773
0.0052243438
0.0051162343
0.0050406072
0.0049915118
0.0049653947
0.0012840023
0.002121814
0.003757701
0.0061763738
0.0093869297
0.013454209
0.018478309
0.024558346
0.031783037
0.039993949
0.049106996
0.058886008
0.068776363
0.077786705
0.084323416
0.086010409
0.079709927
0.06280565
0.038632769
0.018367762
0.0098508505
0.0074414183
0.0065029839
0.0059293453
0.0055932632
0.0053736981
0.0052259164
0.0051172309
0.0050414338
0.0049921583
0.0049656787
0.001417826
0.0022183751
0.003808189
0.0061752565
0.0093187143
0.013298
0.018208968
0.024149502
0.031202175
0.039260531
0.048221138
0.057872565
0.067690227
0.076730032
0.083447471
0.085525722
0.079867563
0.063721369
0.039789682
0.018994511
0.010006289
0.0074762032
0.0065173259
0.005937192
0.0055969644
0.0053757107
0.005227593
0.0051182707
0.0050423052
0.0049928415
0.0049660997
0.0015793779
0.0023346058
0.0038735658
0.0061849341
0.0092598309
0.013150403
0.017947751
0.023748647
0.030636821
0.038527989
0.04732932
0.056844677
0.066576376
0.07563751
0.082525996
0.084991456
0.079982307
0.064627236
0.04102812
0.019684627
0.010181155
0.0075138042
0.0065326391
0.0059454684
0.0056009124
0.0053778598
0.0052293312
0.0051193487
0.0050432234
0.0049935602
0.0049666553
0.0017715322
0.0024728609
0.0039599241
0.006213968
0.0092197066
0.013021269
0.017704496
0.023363717
0.030071445
0.03780338
0.04643978
0.055810267
0.065451696
0.074513741
0.081560215
0.084404892
0.080047512
0.065516873
0.042320045
0.020443127
0.010377798
0.0075543972
0.0065483015
0.0059543597
0.0056051037
0.0053800769
0.0052312033
0.0051204706
0.0050441893
0.0049943153
0.0049673406
0.0019967059
0.0026475651
0.0040762095
0.0062699412
0.0092055183
0.012917562
0.017485846
0.023001442
0.029529957
0.037093563
0.045558449
0.054774908
0.064316547
0.073362341
0.080551699
0.083764189
0.080057636
0.066390032
0.043663204
0.021275438
0.010599216
0.0075985869
0.0065655417
0.0059636073
0.0056095229
0.0053824997
0.0052331008
0.0051216293
0.0050452092
0.0049951074
0.0049680231
0.0022593923
0.002864213
0.004231629
0.0063625484
0.0092261957
0.01284763
0.017299807
0.02267044
0.029027216
0.036414208
0.04469334
0.053744332
0.063166488
0.072186783
0.079502619
0.083068499
0.080008031
0.067230488
0.045056686
0.022188848
0.010848781
0.0076465507
0.0065826214
0.0059738177
0.0056143742
0.0053849419
0.0052351904
0.0051228386
0.0050462772
0.0049959376
0.0049686855
0.0025642463
0.0031301093
0.004440283
0.0065050796
0.0092935941
0.012821729
0.017155232
0.022379321
0.028563698
0.035758822
0.043849999
0.052725175
0.062014345
0.070991942
0.078415857
0.082317805
0.079894043
0.068021267
0.0464557
0.023181497
0.011129447
0.0076992417
0.0066023435
0.0059840844
0.0056192412
0.0053877232
0.0052372203
0.0051240783
0.0050474085
0.0049968077
0.0049693859
0.002905258
0.0034471816
0.0047090767
0.0067051002
0.0094166578
0.012849788
0.017063791
0.022135151
0.028143934
0.035125922
0.04303307
0.051724143
0.060866556
0.069782878
0.077294966
0.081512891
0.079712094
0.068754291
0.047846707
0.024258046
0.011446378
0.0077568866
0.0066210807
0.005995866
0.0056250072
0.0053904291
0.0052395348
0.0051253881
0.0050485798
0.0049977143
0.0049701496
0.003291955
0.0038331804
0.0050477354
0.0069857566
0.0096146968
0.01294648
0.017036133
0.021949338
0.027776981
0.034555196
0.042256083
0.050749367
0.059729835
0.068561624
0.07614396
0.08065533
0.079459633
0.069421328
0.049243109
0.025421822
0.011802134
0.0078209943
0.0066436531
0.0060073637
0.0056303096
0.0053936952
0.0052416452
0.005126711
0.0050498299
0.004998666
0.0049709595
0.0037251285
0.004287625
0.005473702
0.0073458872
0.0098934045
0.013120677
0.01708083
0.021831506
0.027470572
0.034043506
0.041540495
0.049811851
0.058612375
0.067343334
0.07496859
0.079747648
0.079134915
0.070013791
0.050632209
0.026668603
0.012204873
0.007891823
0.0066649939
0.0060206243
0.0056372454
0.0053967588
0.0052441689
0.0051281628
0.0050511
0.0049996447
0.0049718076
0.004240038
0.0048365728
0.006006109
0.007824196
0.010270023
0.013382359
0.017205455
0.021789119
0.027231251
0.033590812
0.040847749
0.048911225
0.057521544
0.066143635
0.073776042
0.078793474
0.078737254
0.070521656
0.052011826
0.028003169
0.012653682
0.00797179
0.0066900892
0.0060343845
0.0056433582
0.005400663
0.0052463125
0.0051295738
0.0050524717
0.0050006798
0.0049726879
0.0048785505
0.0055065347
0.0066524606
0.0083936437
0.01074718
0.013737213
0.017414478
0.021825952
0.027063087
0.033202335
0.040218775
0.048055447
0.056461765
0.064944276
0.072570357
0.077797213
0.078268524
0.070938204
0.053371056
0.029402968
0.013164044
0.0080612826
0.0067160159
0.0060480504
0.0056513107
0.0054042723
0.0052490014
0.0051312588
0.005053832
0.0050017189
0.0049735978
0.0056609009
0.0062976893
0.0074066186
0.0090630887
0.011313139
0.014176917
0.017703148
0.021938932
0.026965943
0.032880767
0.03965917
0.047249994
0.055438041
0.063762955
0.071357479
0.07676386
0.077732656
0.071270179
0.054717518
0.030922142
0.01372908
0.0081659346
0.0067433997
0.0060665243
0.0056596705
0.0054089301
0.0052511988
0.0051327422
0.0050553143
0.0050028375
0.0049745349
0.0066076436
0.0072231834
0.0082748754
0.0098432429
0.011978528
0.014695141
0.018061385
0.022118344
0.02693377
0.032621804
0.039158989
0.04651151
0.054456458
0.062604338
0.070142613
0.07569789
0.077129974
0.07151859
0.056018747
0.032498736
0.014373764
0.008294288
0.0067755417
0.0060790045
0.0056676577
0.0054134011
0.0052540048
0.0051347991
0.0050567614
0.0050039195
0.0049754983
0.0076986482
0.0082709759
0.0092407089
0.010695399
0.012690668
0.015266117
0.018470017
0.022347362
0.02695397
0.032415042
0.038707325
0.045794367
0.053510833
0.061470067
0.068929013
0.074603138
0.076461036
0.071668375
0.057245396
0.034107578
0.015078226
0.0084380234
0.0068075794
0.0061036706
0.0056805404
0.0054188383
0.0052563991
0.0051362863
0.0050583157
0.0050051145
0.0049764858
0.0089309332
0.0094353036
0.010291128
0.011603553
0.013441197
0.015864168
0.01890424
0.022603568
0.027008084
0.032245043
0.038293803
0.045122204
0.052598572
0.060357158
0.067703846
0.073480433
0.075728514
0.071720489
0.058390704
0.03578595
0.015878516
0.008595117
0.0068487622
0.0061184442
0.0056883571
0.0054246497