/*--------------------------------*- C++ -*----------------------------------*\
| =========                 |                                                 |
| \\      /  F ield         | OpenFOAM: The Open Source CFD Toolbox           |
|  \\    /   O peration     | Version:  2406                                  |
|   \\  /    A nd           | Website:  www.openfoam.com                      |
|    \\/     M anipulation  |                                                 |
\*---------------------------------------------------------------------------*/
FoamFile
{
    version     2.0;
    format      ascii;
    arch        "LSB;label=32;scalar=64";
    class       volScalarField;
    location    "0.009";
    object      alphat;
}
// * * * * * * * * * * * * * * * * * * * * * * * * * * * * * * * * * * * * * //

dimensions      [1 -1 -1 0 0 0 0];

internalField   nonuniform List<scalar> 
92813
(
0.040516656
0.043746105
0.047099574
0.050497855
0.053907691
0.057307838
0.060680222
0.064010383
0.067286329
0.070497795
0.073635581
0.076690901
0.079654705
0.082517237
0.08526786
0.08789765
0.090393912
0.09274104
0.094924766
0.0969182
0.09870796
0.10028285
0.1016263
0.10272141
0.10355048
0.10409527
0.10433706
0.10425679
0.1038353
0.10305354
0.101893
0.1003361
0.098366811
0.095971352
0.093139027
0.089863396
0.086143741
0.081985303
0.077400355
0.072417172
0.067076456
0.061429348
0.055545594
0.049515666
0.043449524
0.037472777
0.031763974
0.02653339
0.022025331
0.018457074
0.015920117
0.014242864
0.013130484
0.012335336
0.011709261
0.011178561
0.010710068
0.01028922
0.0099063429
0.0095571878
0.0092401461
0.0089516282
0.008685032
0.0084398686
0.008213096
0.0079978096
0.0077949581
0.0076015563
0.007417901
0.007246093
0.0070845469
0.0069371184
0.0068021149
0.0066762551
0.0065596096
0.0064536867
0.006355327
0.0062614326
0.0061770588
0.0061002018
0.0060283571
0.0059615516
0.0058986521
0.0058376796
0.0057785111
0.0057215031
0.0056661031
0.0056160093
0.0055707332
0.0055286308
0.0054909969
0.0054568334
0.0054246602
0.0053938995
0.0053639959
0.00533551
0.0053081668
0.0052814925
0.0052563362
0.0052327291
0.0052103254
0.0051892491
0.0051694533
0.005150773
0.0051330199
0.0051164289
0.0051008182
0.005086114
0.0050724527
0.0050596886
0.0050479127
0.0050369144
0.0050266149
0.0050170775
0.0050081793
0.0049999695
0.0049925109
0.0049857612
0.0049797507
0.0049744295
0.0049697548
0.0049657071
0.0049623857
0.0049595688
0.0049576435
0.0049557889
0.0049559102
0.045490996
0.048757652
0.052020547
0.055284018
0.058541753
0.061781851
0.064991168
0.068157704
0.071270647
0.074320036
0.077296431
0.080190526
0.08299269
0.08569266
0.088279578
0.090742401
0.093068219
0.095242333
0.097250317
0.099067434
0.10067647
0.1020679
0.10322467
0.1041297
0.10476526
0.10511312
0.10515465
0.10487098
0.10424319
0.10325267
0.10188147
0.10011276
0.097931476
0.09532507
0.092284387
0.088804845
0.084888092
0.080543134
0.075782508
0.070638828
0.065160036
0.059400073
0.053433883
0.047358001
0.041289796
0.035372888
0.029792848
0.024776386
0.020576755
0.017388328
0.015201249
0.013776094
0.012814922
0.012102718
0.011522947
0.011019563
0.01057017
0.010164383
0.0097936178
0.0094553555
0.0091484027
0.0088686829
0.0086100794
0.0083725816
0.0081525138
0.0079430721
0.0077457985
0.0075566952
0.0073766934
0.0072082332
0.0070493765
0.0069045785
0.0067721796
0.0066492295
0.0065351797
0.006431346
0.0063351909
0.006243316
0.0061605178
0.0060852215
0.0060147465
0.0059491355
0.0058873884
0.0058274629
0.0057692281
0.0057131743
0.0056586716
0.0056090434
0.005564301
0.0055227737
0.0054855374
0.0054517785
0.0054199853
0.0053895539
0.0053599827
0.0053317527
0.0053046742
0.0052782829
0.0052533417
0.0052299688
0.0052078039
0.0051869446
0.0051673509
0.0051488652
0.0051312918
0.0051148462
0.0050993825
0.0050847963
0.005071238
0.0050585715
0.0050468659
0.0050359449
0.0050257168
0.0050162372
0.0050074006
0.004999243
0.0049918356
0.0049851411
0.0049791715
0.0049738867
0.0049692476
0.0049652298
0.0049619311
0.0049591391
0.0049572254
0.0049553906
0.0049554975
0.050621058
0.053799159
0.05694671
0.060074389
0.063183171
0.066265795
0.069312602
0.072313927
0.075260309
0.078142413
0.080950941
0.083676459
0.086309136
0.088838489
0.091253301
0.093541489
0.09568977
0.097683825
0.099509404
0.10114194
0.10256297
0.10376417
0.10472765
0.10543614
0.10587196
0.10601697
0.10585267
0.1053604
0.10452163
0.10331821
0.10173284
0.099749552
0.097354384
0.094536157
0.091287442
0.087605765
0.083495346
0.078968699
0.074040439
0.068748328
0.063146341
0.057292523
0.051268918
0.045179251
0.039150495
0.033340938
0.027949655
0.023215648
0.019382009
0.016578787
0.014700775
0.013469503
0.012612173
0.011953187
0.011402449
0.010917326
0.010481715
0.010087037
0.009725244
0.0093951503
0.0090954524
0.0088215541
0.0085682219
0.0083356761
0.0081196076
0.0079137024
0.0077197645
0.00753321
0.0073554187
0.007188931
0.0070315168
0.0068881445
0.006757132
0.0066356982
0.006522939
0.006420105
0.0063251111
0.0062342411
0.0061521365
0.0060776041
0.0060078173
0.0059428148
0.0058816938
0.0058223655
0.0057646418
0.0057091114
0.0056551075
0.0056056837
0.0055610944
0.0055197631
0.0054825548
0.0054489058
0.0054173004
0.0053870383
0.0053576425
0.0053295327
0.0053026035
0.005276381
0.0052515249
0.0052282692
0.0052062404
0.0051854982
0.005166013
0.0051476434
0.0051301748
0.0051138005
0.0050984204
0.0050838933
0.005070383
0.0050577646
0.0050460846
0.0050352039
0.0050250151
0.0050155635
0.005006763
0.0049986344
0.0049912564
0.004984598
0.0049786523
0.0049733888
0.0049687731
0.0049647743
0.0049614896
0.0049587161
0.004956812
0.0049549878
0.004955078
0.055888078
0.058919789
0.061920216
0.064895438
0.067845982
0.070765484
0.073645504
0.076477477
0.079252727
0.08196236
0.084597223
0.087147818
0.089604141
0.091955496
0.094190371
0.096296319
0.098259888
0.1000668
0.10170288
0.10314351
0.10436951
0.10537301
0.10613583
0.10664062
0.10686972
0.10680511
0.10642847
0.10572147
0.10466598
0.10324444
0.10144032
0.099238634
0.096626684
0.093594852
0.090137645
0.086254934
0.081953792
0.077250316
0.07216234
0.066733422
0.061023271
0.055094607
0.049037623
0.042963871
0.037010569
0.031349122
0.026191329
0.021780076
0.018328142
0.015884925
0.014268936
0.013192276
0.012416537
0.011800635
0.011274759
0.01080611
0.010383481
0.0099993952
0.0096462143
0.0093242547
0.009031894
0.0087638492
0.008516026
0.0082888309
0.0080771222
0.0078751574
0.0076849596
0.0075012818
0.0073260629
0.0071618313
0.007006475
0.0068650182
0.0067357939
0.0066164533
0.0065054619
0.0064038908
0.0063104714
0.0062210197
0.0061398106
0.0060663006
0.0059974826
0.0059333483
0.005873137
0.0058147062
0.0057577473
0.0057029314
0.0056495791
0.0056003753
0.0055560667
0.0055151363
0.0054781438
0.0054447217
0.005413406
0.0053833798
0.0053542434
0.0053263421
0.0052996131
0.0052736366
0.005248948
0.0052258698
0.0052040416
0.0051834806
0.0051641596
0.0051459554
0.0051286434
0.0051123859
0.0050971262
0.0050826989
0.0050692697
0.0050567294
0.0050451042
0.0050342863
0.0050241593
0.0050147563
0.0050060087
0.0049979273
0.0049905947
0.0049839859
0.0049780778
0.0049728469
0.0049682642
0.0049642936
0.0049610295
0.0049582801
0.0049563884
0.0049545808
0.0049546555
0.061254109
0.064112566
0.06694405
0.069750799
0.072531642
0.075279623
0.077986228
0.080643042
0.083241564
0.085772991
0.088228147
0.090597401
0.09287055
0.095036683
0.09708407
0.099000086
0.1007712
0.10238317
0.10382191
0.1050626
0.10608574
0.10688378
0.10743836
0.10773207
0.10774729
0.1074661
0.10687047
0.10594241
0.10466431
0.1030193
0.10099172
0.098567748
0.095736094
0.092488918
0.088822889
0.084740485
0.080251915
0.075376815
0.070137486
0.064583966
0.058781107
0.052796804
0.046730126
0.040700885
0.034856827
0.02938175
0.024497939
0.020442662
0.01738031
0.015273632
0.013885657
0.012938522
0.012231028
0.01165241
0.011149207
0.01069647
0.010286937
0.0099135841
0.009569197
0.0092557119
0.0089708713
0.008708601
0.0084663424
0.0082445173
0.0080370149
0.0078389469
0.0076523541
0.0074714938
0.0072989276
0.0071369079
0.0069836198
0.0068440622
0.0067164399
0.0065990834
0.0064898562
0.0063894362
0.0062973756
0.0062093139
0.0061289696
0.0060563202
0.005988388
0.0059250512
0.0058656013
0.0058079648
0.0057517031
0.0056975069
0.0056448041
0.0055958633
0.0055517416
0.0055111377
0.0054742994
0.0054410214
0.005409952
0.0053801238
0.0053512068
0.0053234959
0.005296939
0.0052711842
0.0052466452
0.0052237185
0.0052020686
0.0051816697
0.0051624916
0.0051444346
0.0051272632
0.0051111057
0.0050959495
0.0050816089
0.0050682474
0.0050557717
0.0050441909
0.0050334259
0.0050233523
0.0050139909
0.0050052894
0.0049972498
0.0049899573
0.0049833924
0.0049775178
0.0049723154
0.0049677618
0.0049638165
0.0049605703
0.0049578432
0.0049559631
0.0049541693
0.0049542277
0.066673547
0.069340904
0.071991858
0.0746196
0.077221489
0.0797899
0.082315976
0.084791082
0.087206559
0.089553459
0.091822431
0.094003646
0.096086684
0.098060429
0.099912978
0.10163159
0.10320271
0.10461212
0.10584584
0.10687879
0.1076914
0.10827639
0.10861533
0.10869076
0.10848511
0.10798066
0.10715966
0.10600457
0.10449837
0.102625
0.10036982
0.097720284
0.094666719
0.091203268
0.087329016
0.083049354
0.078377989
0.073337253
0.067956672
0.062292736
0.056413693
0.050394517
0.044343441
0.038388966
0.032689796
0.027441821
0.022874363
0.019206261
0.016534785
0.014737248
0.013544647
0.012704559
0.012053548
0.011507035
0.011024375
0.010586785
0.010190133
0.0098272722
0.0094914938
0.0091864701
0.0089090321
0.008652257
0.0084155018
0.0081989819
0.0079955134
0.0078013165
0.0076181939
0.0074400906
0.0072703024
0.0071104828
0.0069594188
0.006821884
0.0066958343
0.0065805055
0.0064731832
0.0063739455
0.0062832282
0.0061966708
0.0061172422
0.0060454315
0.0059784554
0.0059159955
0.0058573172
0.0058005482
0.0057450648
0.005691494
0.0056394824
0.0055908349
0.0055469111
0.0055066774
0.0054700545
0.0054369281
0.0054061176
0.0053765046
0.0053478239
0.0053203329
0.0052939594
0.0052684459
0.0052440892
0.0052213308
0.005199878
0.0051796631
0.0051606453
0.0051427502
0.0051257376
0.005109695
0.0050946528
0.0050804131
0.0050671298
0.0050547274
0.0050432017
0.0050324968
0.0050224841
0.0050131723
0.005004523
0.0049965327
0.0049892865
0.0049827699
0.0049769346
0.004971765
0.004967244
0.0049633277
0.004960102
0.0049573993
0.0049555321
0.004953754
0.0049537968
0.072106044
0.074566774
0.077031764
0.079474202
0.081890439
0.084272558
0.086611536
0.088898505
0.091124549
0.093280476
0.095356697
0.097343147
0.099229187
0.10100351
0.10265407
0.10416805
0.10553187
0.10673137
0.10775269
0.10857044
0.10916508
0.10952967
0.10964574
0.10949587
0.1090626
0.10832844
0.107276
0.10588828
0.10414896
0.10204287
0.09955655
0.096678905
0.09340207
0.089722398
0.085641653
0.081168504
0.07632086
0.07112187
0.065612087
0.059854659
0.053917613
0.047887228
0.041880188
0.036034407
0.03052016
0.025544744
0.021338041
0.018082283
0.015791128
0.014268629
0.013239321
0.012486591
0.011882438
0.011364024
0.010900317
0.010477386
0.010093579
0.009741113
0.0094139002
0.0091174155
0.0088473247
0.0085958546
0.0083646556
0.0081533967
0.0079537897
0.0077634994
0.0075837311
0.0074083565
0.0072415513
0.0070839784
0.006935277
0.0067998848
0.0066753366
0.0065619917
0.0064566848
0.0063586404
0.006269161
0.0061841811
0.0061056962
0.0060346331
0.0059686355
0.0059070762
0.0058490929
0.0057931946
0.005738515
0.0056855312
0.0056342324
0.0055859248
0.0055421704
0.0055022864
0.0054658887
0.0054328815
0.0054023067
0.0053729082
0.005344452
0.0053171842
0.0052909909
0.005265712
0.0052415483
0.0052189564
0.0051976973
0.0051776676
0.0051588091
0.0051410731
0.0051242193
0.0051082918
0.0050933601
0.005079221
0.0050660143
0.0050536823
0.0050422116
0.0050315655
0.0050216124
0.0050123508
0.005003753
0.0049958127
0.0049886133
0.0049821437
0.0049763482
0.0049712116
0.0049667224
0.0049628353
0.0049596299
0.0049569514
0.0049550973
0.0049533341
0.0049533618
0.077505207
0.079758288
0.082032525
0.08428466
0.08650991
0.088700137
0.09084624
0.092939151
0.094969701
0.096928443
0.098805543
0.10059071
0.10227308
0.1038412
0.1052829
0.10658529
0.1077348
0.10871735
0.10951914
0.11011454
0.11048405
0.11062117
0.11050743
0.11012552
0.10945818
0.10848821
0.10719868
0.1055732
0.10359625
0.10125372
0.098533471
0.095426047
0.091925605
0.088030956
0.083746803
0.079085427
0.074069191
0.068723855
0.063099263
0.057265392
0.051292733
0.045278721
0.039348388
0.033650308
0.028366805
0.023714192
0.019911117
0.017080665
0.015145258
0.01385908
0.01296324
0.012281305
0.011716326
0.011222915
0.010776898
0.010368233
0.0099972348
0.0096550471
0.0093363214
0.0090483372
0.0087854209
0.0085390269
0.0083134288
0.0081072912
0.0079113036
0.0077249702
0.0075484404
0.0073757463
0.0072121263
0.007056864
0.0069106417
0.00677751
0.0066544154
0.0065429787
0.006439798
0.0063429962
0.0062546741
0.0061713509
0.0060938406
0.006023457
0.0059584905
0.0058978785
0.0058405393
0.0057855515
0.0057317297
0.0056793144
0.0056287449
0.0055808161
0.0055372354
0.0054976999
0.005461561
0.0054286648
0.0053983091
0.0053691408
0.005340911
0.0053138753
0.005287872
0.0052628307
0.0052388817
0.0052164661
0.0051954068
0.005175573
0.0051568836
0.0051393119
0.0051226253
0.0051068216
0.0050920044
0.0050779725
0.0050648473
0.0050525891
0.0050411792
0.0050305955
0.0050207053
0.0050114986
0.005002956
0.0049950699
0.0049879209
0.0049815001
0.0049757477
0.0049706468
0.0049661909
0.0049623351
0.0049591514
0.004956498
0.0049546578
0.0049529101
0.0049529238
0.082829118
0.084880686
0.086960187
0.089018019
0.091047987
0.093041671
0.0949899
0.096883448
0.098712932
0.10046868
0.10214065
0.10371835
0.10519074
0.10654621
0.10777251
0.10885671
0.10978526
0.11054412
0.11111963
0.11148589
0.1116235
0.11152645
0.11117635
0.11055608
0.10964865
0.10843726
0.10690552
0.10503774
0.10281938
0.10023752
0.097281489
0.093943715
0.090220614
0.086113728
0.08163102
0.076788748
0.071613716
0.066136131
0.060414559
0.054525013
0.048543125
0.042577358
0.036761691
0.031256498
0.026255872
0.021979152
0.018615027
0.016205521
0.014588827
0.013499106
0.012710487
0.012085915
0.011554146
0.011083409
0.010654097
0.010259393
0.0099011742
0.0095691871
0.0092588984
0.0089793051
0.0087233333
0.0084818255
0.0082619237
0.0080607068
0.007868068
0.0076858077
0.0075124801
0.0073424524
0.0071822292
0.0070294074
0.0068857583
0.0067549916
0.0066333328
0.0065236984
0.0064227401
0.0063272529
0.0062400094
0.0061584094
0.0060818945
0.0060121266
0.0059482347
0.0058885903
0.0058318372
0.0057777849
0.0057248574
0.0056729999
0.0056231698
0.0055756575
0.0055322589
0.0054930523
0.0054571877
0.0054243922
0.0053942276
0.0053653029
0.0053372957
0.0053104896
0.0052846862
0.0052598792
0.0052361598
0.0052139268
0.0051930676
0.0051734344
0.0051549201
0.0051375136
0.0051209967
0.0051053223
0.00509062
0.0050766977
0.0050636554
0.0050514716
0.0050401254
0.0050296052
0.0050197787
0.0050106297
0.0050021442
0.0049943145
0.0049872179
0.0049808464
0.0049751388
0.0049700751
0.0049656527
0.0049618292
0.0049586681
0.0049560397
0.0049542141
0.0049524817
0.0049524826
0.088040326
0.089893663
0.091777227
0.093638232
0.095469669
0.097263024
0.099009123
0.10069864
0.10232204
0.1038695
0.1053308
0.10669528
0.10795179
0.10908859
0.11009338
0.1109532
0.11165453
0.11218341
0.11252631
0.11265707
0.11255648
0.11221903
0.11162653
0.11076211
0.10960914
0.10815134
0.10637294
0.10425914
0.10179647
0.098973379
0.095780911
0.092213572
0.088270322
0.083955768
0.079281535
0.074268348
0.06894647
0.063353339
0.057557011
0.051637266
0.045677113
0.039796694
0.03413999
0.028879891
0.024220055
0.020370848
0.017466102
0.015453738
0.014110417
0.013179366
0.01247595
0.011898194
0.011395123
0.010945324
0.010531944
0.010150945
0.0098054286
0.0094835777
0.0091816882
0.0089102715
0.0086609359
0.0084241541
0.0082100534
0.0080134674
0.0078238796
0.0076458514
0.0074757867
0.0073084461
0.0071517728
0.0070015669
0.0068605393
0.0067321981
0.0066120052
0.0065040488
0.0064053772
0.006311302
0.0062250836
0.0061452501
0.0060697423
0.0060005546
0.0059377731
0.0058791005
0.0058229035
0.0057698122
0.0057178106
0.0056665237
0.005617433
0.0055703651
0.0055271762
0.0054882805
0.0054527006
0.005420009
0.0053900087
0.0053613437
0.0053335598
0.0053069773
0.0052813902
0.0052568184
0.0052333428
0.0052113026
0.0051906466
0.0051712202
0.0051528904
0.0051356523
0.005119309
0.0051037718
0.0050891873
0.0050753785
0.0050624224
0.0050503157
0.0050390377
0.0050285836
0.0050188233
0.005009736
0.0050013108
0.0049935409
0.0049864996
0.0049801789
0.0049745183
0.0049694941
0.0049651061
0.0049613164
0.0049581794
0.0049555762
0.0049537659
0.0049520489
0.0049520386
0.093099169
0.094756853
0.096444194
0.098106642
0.09973705
0.10132702
0.10286743
0.1043489
0.10576182
0.10709626
0.10834188
0.10948793
0.11052316
0.11143578
0.11221342
0.11284316
0.1133115
0.11360459
0.11370904
0.11359849
0.11325393
0.11267046
0.11183013
0.11071642
0.10931319
0.10760475
0.10557614
0.10321354
0.10050475
0.097439799
0.094011654
0.090217174
0.086058166
0.081542661
0.076686457
0.071515549
0.066061465
0.060373364
0.054529693
0.048609568
0.042707796
0.036956371
0.031510378
0.026554911
0.022297202
0.018918549
0.016471968
0.014815391
0.013697107
0.012891334
0.012255401
0.011716409
0.011238704
0.010808562
0.010410524
0.010043008
0.0097100138
0.0093982288
0.0091047268
0.0088411838
0.008598124
0.00836596
0.0081577501
0.007965441
0.0077786391
0.0076050266
0.0074384093
0.0072738588
0.0071207936
0.0069734291
0.006835036
0.0067091219
0.0065904959
0.0064841019
0.0063877372
0.0062951899
0.0062099775
0.0061319205
0.006057425
0.0059888187
0.0059271556
0.0058694314
0.0058137959
0.0057616724
0.0057106121
0.0056599366
0.0056115771
0.0055649736
0.005522033
0.0054834254
0.0054481241
0.0054155472
0.0053856844
0.0053572899
0.0053297302
0.0053033595
0.005278007
0.0052536726
0.0052304491
0.0052086115
0.005188161
0.0051689449
0.0051508084
0.0051337417
0.0051175735
0.0051021804
0.0050877157
0.0050740228
0.0050611553
0.005049128
0.0050379216
0.0050275357
0.0050178436
0.0050088214
0.0050004595
0.0049927522
0.0049857685
0.0049794998
0.004973888
0.0049689049
0.0049645521
0.0049607973
0.0049576855
0.0049551076
0.0049533133
0.0049516116
0.0049515915
0.09796333
0.099427702
0.10091851
0.10238138
0.10380908
0.10519338
0.10652526
0.10779536
0.10899405
0.11011137
0.11113693
0.11205993
0.11286907
0.11355253
0.11409795
0.11449244
0.11472259
0.11477466
0.11463543
0.11427837
0.11368475
0.11285033
0.11175749
0.11039016
0.1087328
0.10677046
0.10448911
0.10187613
0.098920766
0.095614838
0.09195352
0.087936318
0.083568211
0.078861022
0.07383521
0.06852251
0.062957239
0.057199998
0.051338455
0.04545379
0.039654469
0.034083542
0.028908325
0.024323422
0.020527264
0.017644286
0.015629651
0.014275576
0.013335974
0.012627699
0.01204549
0.011539264
0.011084515
0.010673065
0.010289957
0.0099357312
0.0096149123
0.0093130797
0.009027988
0.0087719509
0.0085347792
0.0083071808
0.0081048743
0.0079164596
0.0077322917
0.0075632385
0.0074003493
0.0072388209
0.0070892816
0.0069450021
0.0068092359
0.0066856747
0.0065688007
0.0064638845
0.0063697822
0.0062788879
0.0061947035
0.0061183848
0.0060449085
0.0059769299
0.0059163516
0.0058595337
0.0058045174
0.0057533433
0.0057032274
0.0056532338
0.0056055871
0.0055594611
0.0055168157
0.0054784764
0.0054434344
0.0054109924
0.005381247
0.0053531264
0.0053257943
0.0052996224
0.005274524
0.0052504344
0.0052274668
0.0052058426
0.0051856014
0.005166599
0.0051486653
0.0051317747
0.0051157828
0.0051005411
0.0050861991
0.0050726245
0.0050598488
0.0050479042
0.0050367731
0.0050264579
0.0050168368
0.0050078834
0.0049995884
0.0049919466
0.0049850231
0.0049788084
0.0049732471
0.004968307
0.0049639905
0.0049602715
0.0049571864
0.0049546339
0.0049528564
0.0049511698
0.0049511415
0.10258724
0.10386054
0.10515502
0.1064179
0.10764189
0.10881892
0.10994011
0.1109962
0.1119776
0.11287437
0.11367613
0.11437209
0.11495095
0.11540093
0.1157097
0.11586443
0.11585183
0.11565829
0.11527083
0.1146628
0.1138158
0.11272633
0.11137719
0.10975288
0.10783858
0.10562022
0.10308491
0.1002214
0.097020614
0.09347645
0.089586576
0.085353489
0.080785726
0.075899326
0.070719949
0.065285333
0.05963435
0.053839281
0.047995601
0.042189671
0.036544768
0.031214642
0.026378648
0.022233205
0.018946855
0.016557773
0.014926151
0.013816953
0.013015251
0.012382531
0.011843663
0.011365822
0.010932303
0.010538784
0.010170381
0.009829283
0.0095200711
0.0092280094
0.0089513879
0.0087024569
0.0084707967
0.0082477739
0.0080512348
0.0078663695
0.0076849075
0.0075204362
0.0073615802
0.0072034996
0.0070572565
0.0069162801
0.0067831543
0.0066617994
0.0065469519
0.006443482
0.0063515198
0.0062624009
0.0061793089
0.0061046356
0.0060321997
0.005964939
0.0059053577
0.0058493976
0.0057951122
0.005744832
0.0056956543
0.0056464377
0.0055994772
0.005553842
0.0055115373
0.0054734504
0.005438636
0.0054063538
0.0053767142
0.0053488593
0.0053217586
0.005295775
0.0052709477
0.0052471142
0.0052244012
0.0052030004
0.0051829734
0.005164187
0.0051464648
0.0051297559
0.0051139407
0.0050988564
0.0050846398
0.0050711853
0.0050585047
0.0050466461
0.0050355938
0.0050253517
0.0050158046
0.0050069235
0.0049986986
0.0049911254
0.0049842646
0.0049781057
0.0049725962
0.0049677007
0.0049634216
0.004959739
0.004956682
0.004954155
0.0049523951
0.0049507233
0.0049506882
0.10692299
0.10800754
0.10910628
0.11016922
0.11118901
0.11215776
0.11306674
0.11390681
0.11466851
0.11534196
0.11591687
0.11638249
0.11672759
0.11694045
0.11700882
0.11692
0.11666082
0.11621787
0.11557843
0.11471583
0.11361205
0.1122644
0.11065623
0.10877272
0.10659992
0.10412483
0.10133588
0.098223419
0.094780344
0.091002909
0.086891637
0.082452422
0.077697804
0.072648593
0.067336316
0.061803579
0.056097219
0.050303311
0.044521198
0.038845781
0.033416161
0.028396856
0.023975331
0.020333675
0.017581864
0.015653641
0.014341333
0.013422253
0.012725039
0.012151233
0.011648044
0.011195433
0.010781906
0.010405638
0.010051922
0.0097238237
0.009425404
0.0091428817
0.0088747985
0.0086325543
0.0084060762
0.0081877111
0.007996588
0.0078150367
0.0076366736
0.0074766095
0.0073220027
0.0071680314
0.0070247495
0.006887201
0.0067567991
0.0066374529
0.0065249774
0.0064229835
0.0063329533
0.0062457165
0.0061638148
0.0060906402
0.0060192931
0.0059528747
0.0058941456
0.005839009
0.005785611
0.0057361294
0.0056878841
0.0056395494
0.0055932428
0.0055481207
0.0055061915
0.0054683481
0.0054337248
0.0054016276
0.0053720923
0.0053444829
0.0053176174
0.0052918182
0.0052672746
0.005243712
0.0052212497
0.0052000811
0.0051802749
0.005161707
0.0051442038
0.0051276838
0.0051120456
0.0050971236
0.0050830355
0.0050697031
0.0050571216
0.0050453523
0.0050343824
0.0050242161
0.0050147465
0.0050059411
0.00499779
0.0049902884
0.0049834927
0.0049773919
0.0049719355
0.0049670858
0.0049628455
0.0049591996
0.004956172
0.0049536709
0.0049519294
0.004950272
0.0049502314
0.11092059
0.11181871
0.1127226
0.11358597
0.1144015
0.11516141
0.11585716
0.11647982
0.11702003
0.11746808
0.11781378
0.1180465
0.11815511
0.11812799
0.11795303
0.11761767
0.11710893
0.11641365
0.11551941
0.1143996
0.11303669
0.11142891
0.10956022
0.10741666
0.10498531
0.10225445
0.099214045
0.095856315
0.092176435
0.088173382
0.083850933
0.079218831
0.074294141
0.069103145
0.063684325
0.058081543
0.052357565
0.046613334
0.040943957
0.035460798
0.030317892
0.025689027
0.021758798
0.018667964
0.016440477
0.01491255
0.013851999
0.0130762
0.012457585
0.011930314
0.011457264
0.01102768
0.010633251
0.010273484
0.0099346472
0.0096194684
0.0093308147
0.009057614
0.0087980651
0.0085620534
0.0083405008
0.0081269823
0.0079406787
0.0077623726
0.0075878525
0.0074318056
0.0072814666
0.0071324795
0.0069918355
0.0068576783
0.0067301909
0.0066126543
0.0065029208
0.0064024867
0.0063141048
0.006228831
0.0061482356
0.0060763764
0.0060062015
0.005940764
0.0058826964
0.0058283819
0.0057760474
0.0057272372
0.0056799271
0.0056325688
0.0055868844
0.0055423163
0.005500777
0.0054631751
0.0054287112
0.0053968165
0.0053673931
0.0053399987
0.0053133707
0.005287762
0.0052635076
0.0052402319
0.0052180155
0.0051970863
0.0051775084
0.0051591619
0.0051418834
0.00512556
0.0051100998
0.0050953434
0.0050813868
0.0050681783
0.0050557003
0.0050440238
0.0050331396
0.005023052
0.0050136635
0.0050049372
0.0049968633
0.0049894365
0.0049827082
0.0049766678
0.0049712654
0.0049664626
0.0049622622
0.0049586533
0.0049556562
0.0049531814
0.0049514591
0.0049498153
0.0049497708
0.11452768
0.11524165
0.11595175
0.11661624
0.11722776
0.1177787
0.11826074
0.11866512
0.11898273
0.11920398
0.11931888
0.11931692
0.11918712
0.11891801
0.11849767
0.1179137
0.11715339
0.11620385
0.11505306
0.11367458
0.11205146
0.11018292
0.10805371
0.10565088
0.10296273
0.099979045
0.09669161
0.093094826
0.089186494
0.084968724
0.080449014
0.075641471
0.070568253
0.065261826
0.059767779
0.054133797
0.048440146
0.042797882
0.037302971
0.032086356
0.027312947
0.023160535
0.019788538
0.017262525
0.015510276
0.014305884
0.01343579
0.01276664
0.012207185
0.011716972
0.011270311
0.010862355
0.010486398
0.010142137
0.0098185258
0.0095162326
0.0092362408
0.0089721613
0.0087209975
0.0084907304
0.0082739136
0.0080656114
0.0078833044
0.0077083444
0.0075386741
0.0073861272
0.0072398388
0.0070967702
0.0069586406
0.0068276432
0.0067033509
0.0065874965
0.0064808197
0.0063820593
0.0062949991
0.0062117377
0.006132562
0.0060618304
0.0059929413
0.0059286124
0.0058709981
0.0058175449
0.0057664329
0.0057181593
0.0056718004
0.005625481
0.0055803955
0.0055364458
0.0054952871
0.0054579297
0.0054236089
0.0053919203
0.0053626212
0.0053354061
0.0053090159
0.0052836146
0.0052596471
0.0052366727
0.0052147003
0.0051940159
0.0051746745
0.0051565536
0.0051395033
0.0051233845
0.0051081039
0.0050935152
0.0050796931
0.0050666105
0.005054241
0.0050426606
0.0050318655
0.0050218599
0.0050125559
0.0050039123
0.0049959192
0.0049885702
0.0049819118
0.0049759339
0.0049705865
0.0049658314
0.0049616721
0.0049581001
0.004955134
0.0049526862
0.0049509842
0.004949353
0.0049493057
0.11768872
0.11822096
0.11873869
0.11920529
0.11961344
0.11995572
0.12022406
0.12040995
0.12050449
0.12049833
0.12038163
0.12014408
0.11977488
0.11926274
0.11859594
0.11776235
0.11674955
0.115545
0.11413715
0.11249987
0.11061691
0.10848859
0.1061006
0.10344121
0.10050016
0.097269026
0.093741698
0.089915132
0.08579017
0.081372533
0.076673977
0.071713588
0.066519383
0.06113108
0.055599961
0.049981815
0.044377356
0.038900684
0.033654716
0.028790466
0.024478542
0.020885279
0.018110085
0.01611874
0.014761809
0.013802235
0.01307403
0.012484628
0.011969444
0.011508662
0.011086537
0.010699503
0.010341574
0.010011537
0.0097034275
0.0094139044
0.0091416618
0.0088863199
0.0086433716
0.0084183878
0.0082061458
0.0080036913
0.0078243761
0.0076529709
0.0074892122
0.0073397328
0.0071971304
0.0070606565
0.0069253312
0.0067971359
0.0066762933
0.0065621457
0.0064586907
0.0063617154
0.006275667
0.0061944346
0.0061167739
0.0060470176
0.0059795359
0.005916409
0.0058590664
0.0058065409
0.0057567532
0.0057089147
0.0056635305
0.0056182653
0.0055737729
0.005530526
0.005489719
0.005452611
0.0054184398
0.0053869417
0.0053577784
0.0053307087
0.0053045551
0.0052793862
0.0052556969
0.0052330333
0.0052113087
0.0051908723
0.0051717758
0.0051538857
0.0051370653
0.0051211578
0.0051060599
0.0050916397
0.005077955
0.0050650005
0.0050527447
0.0050412636
0.0050305612
0.005020641
0.005011425
0.0050028675
0.0049949586
0.0049876905
0.0049811045
0.0049751909
0.0049698993
0.0049651925
0.0049610751
0.0049575398
0.004954605
0.004952185
0.004950504
0.0049488845
0.0049488357
0.12034549
0.12069858
0.12102558
0.12129559
0.1215014
0.12163582
0.12169108
0.12165894
0.12153075
0.12129739
0.12094923
0.12047615
0.11986756
0.1191124
0.1181992
0.11711616
0.11585119
0.11439223
0.11272824
0.11083362
0.10869291
0.10630768
0.10366476
0.10075383
0.09756639
0.094096079
0.090339286
0.086295936
0.0819704
0.077372567
0.072519063
0.067434637
0.06215414
0.056726469
0.051204338
0.045660141
0.040217299
0.034982282
0.030074091
0.02565856
0.021901782
0.018927915
0.016739939
0.015212311
0.01415736
0.013374089
0.012752472
0.012222158
0.011740192
0.011303727
0.010906121
0.010539457
0.010199049
0.0098821181
0.0095889746
0.0093119214
0.0090471101
0.0087996356
0.0085650625
0.0083448848
0.0081371026
0.0079413368
0.0077639312
0.0075963204
0.0074393173
0.0072928373
0.0071536297
0.0070237408
0.006892039
0.0067663964
0.0066490112
0.0065367985
0.0064365053
0.006341396
0.0062561425
0.0061769211
0.0061008522
0.0060319863
0.0059660021
0.0059041251
0.0058469532
0.0057954086
0.0057469603
0.0056995391
0.0056551407
0.0056108976
0.0055670174
0.0055245621
0.0054840746
0.0054472175
0.005413226
0.0053818835
0.0053528607
0.0053259108
0.0052999936
0.0052750838
0.0052516604
0.0052293108
0.005207845
0.0051876591
0.0051688144
0.0051511617
0.0051345718
0.0051188806
0.005103969
0.0050897178
0.0050761735
0.0050633493
0.0050512126
0.0050398341
0.005029228
0.0050193969
0.0050102718
0.0050018042
0.0049939827
0.0049867985
0.0049802874
0.0049744396
0.0049692044
0.0049645465
0.0049604713
0.0049569724
0.004954069
0.0049516773
0.004950018
0.0049484092
0.00494836
0.12243712
0.1226136
0.12275177
0.12282687
0.12283184
0.12275979
0.1226033
0.12235442
0.12200475
0.12154538
0.12096692
0.12025945
0.11941261
0.11841564
0.11725737
0.11592636
0.11441101
0.11269977
0.11078228
0.10863361
0.1062393
0.10360228
0.10071077
0.097556145
0.094131966
0.090434314
0.086462504
0.082219936
0.077715088
0.072962674
0.067984906
0.062812917
0.057489254
0.052073336
0.046621456
0.041226116
0.036025311
0.031121992
0.026656473
0.022790656
0.019666782
0.017324072
0.015657936
0.014501256
0.013660727
0.013006883
0.012458505
0.011961874
0.011515009
0.011106557
0.01073073
0.010382579
0.010058666
0.0097566592
0.0094741076
0.009206557
0.0089527096
0.0087128377
0.0084863055
0.0082700281
0.0080668886
0.0078783664
0.0077021394
0.007538591
0.0073886452
0.0072456988
0.0071099596
0.0069856264
0.006858727
0.0067358671
0.0066214924
0.0065116098
0.0064141886
0.0063209796
0.0062364708
0.006159195
0.0060848053
0.0060168141
0.0059523376
0.0058917243
0.0058347501
0.0057841691
0.0057369817
0.0056900857