/*--------------------------------*- C++ -*----------------------------------*\
| =========                 |                                                 |
| \\      /  F ield         | OpenFOAM: The Open Source CFD Toolbox           |
|  \\    /   O peration     | Version:  2406                                  |
|   \\  /    A nd           | Website:  www.openfoam.com                      |
|    \\/     M anipulation  |                                                 |
\*---------------------------------------------------------------------------*/
FoamFile
{
    version     2.0;
    format      ascii;
    arch        "LSB;label=32;scalar=64";
    class       volScalarField;
    location    "0.009";
    object      nutMean;
}
// * * * * * * * * * * * * * * * * * * * * * * * * * * * * * * * * * * * * * //

dimensions      [0 2 -1 0 0 0 0];

internalField   nonuniform List<scalar> 
92813
(
0.033641953
0.036314552
0.039073997
0.041866595
0.044663154
0.047443539
0.050192136
0.052896433
0.055545852
0.058131243
0.060644365
0.063077388
0.065422213
0.067669912
0.069810695
0.071834493
0.073731889
0.075488678
0.077091295
0.078531644
0.079797338
0.080873465
0.081747161
0.082405547
0.082835541
0.08302392
0.082957415
0.08262287
0.082007438
0.081098841
0.079885695
0.078357888
0.076507006
0.074327148
0.071815622
0.068973542
0.065806969
0.062328295
0.058557286
0.054522748
0.050267095
0.045844391
0.041321989
0.036786358
0.032336019
0.02807136
0.024098433
0.020514231
0.017407082
0.014861951
0.012938482
0.011603177
0.010703266
0.010067627
0.0095750957
0.0091612089
0.0087959259
0.0084654671
0.0081629668
0.0078845729
0.0076275813
0.0073897756
0.0071694519
0.0069649456
0.006774796
0.0065980281
0.0064335379
0.0062803057
0.0061377329
0.0060049895
0.0058813456
0.0057662609
0.0056589622
0.0055588975
0.0054655607
0.0053783395
0.0052968661
0.0052207621
0.0051495513
0.0050829331
0.0050206289
0.0049622778
0.0049076772
0.004856576
0.0048086998
0.0047638461
0.0047218112
0.0046823811
0.0046453632
0.0046105992
0.0045779321
0.0045472448
0.0045183805
0.0044912519
0.0044657396
0.004441737
0.0044192041
0.0043980252
0.0043781175
0.0043594311
0.0043418819
0.0043253841
0.0043098626
0.0042952242
0.0042813983
0.0042683362
0.0042560114
0.004244411
0.0042335182
0.0042233101
0.004213779
0.0042049202
0.0041967231
0.0041891605
0.004182182
0.004175735
0.0041697646
0.0041642112
0.0041590329
0.0041542103
0.0041497731
0.004145722
0.0041421444
0.0041389245
0.0041364232
0.0041339975
0.0041328619
0.037683093
0.040369452
0.04304786
0.045723322
0.048387101
0.051027449
0.053633048
0.056193613
0.058699709
0.061142529
0.063513692
0.06580498
0.068007943
0.070113481
0.072111702
0.073992102
0.075743556
0.077353169
0.078807719
0.080097374
0.081210581
0.082132018
0.082848923
0.083348492
0.083617742
0.083643583
0.083412933
0.082912891
0.08213096
0.08105532
0.079675187
0.077981231
0.075965925
0.073624405
0.070955434
0.067961862
0.064651762
0.061040181
0.057150035
0.053012819
0.048674867
0.044196539
0.039651007
0.035128807
0.030731291
0.026561465
0.022719527
0.019296707
0.016381177
0.014058351
0.012364843
0.011218675
0.010444887
0.0098807481
0.0094271032
0.00903585
0.0086856064
0.0083665811
0.008073582
0.0078034669
0.0075538385
0.0073226459
0.0071083176
0.0069092281
0.0067239776
0.0065516742
0.0063912128
0.0062416395
0.0061024077
0.0059726915
0.0058518261
0.0057392895
0.0056343168
0.0055363858
0.0054450105
0.0053595762
0.0052797248
0.0052051061
0.005135259
0.0050698837
0.0050087172
0.0049514018
0.0048977398
0.0048475027
0.0048004114
0.0047562674
0.0047148779
0.0046760359
0.0046395524
0.004605277
0.004573056
0.0045427746
0.0045142837
0.004487496
0.0044622955
0.0044385798
0.0044163087
0.0043953697
0.0043756806
0.0043571932
0.0043398244
0.0043234903
0.0043081167
0.0042936123
0.0042799076
0.0042669562
0.0042547339
0.0042432287
0.0042324216
0.0042222947
0.0042128387
0.0042040483
0.0041959123
0.0041884034
0.0041814715
0.0041750648
0.0041691294
0.004163607
0.004158457
0.0041536615
0.0041492503
0.0041452245
0.0041416696
0.0041384716
0.0041359883
0.0041335781
0.0041324526
0.041858523
0.044459899
0.047036775
0.04959422
0.05212826
0.054631472
0.057095605
0.059512318
0.061873313
0.064170358
0.066395251
0.068539688
0.070595013
0.072551948
0.074400446
0.076129707
0.077728138
0.079183171
0.080481781
0.081613818
0.082567894
0.083328442
0.083882661
0.084217771
0.084320883
0.084179062
0.083779455
0.083109481
0.08215706
0.080910924
0.079360987
0.077498801
0.07531791
0.072814763
0.069989766
0.066847727
0.063399115
0.05966191
0.055662384
0.051435987
0.047033925
0.04252228
0.037979582
0.033500266
0.029186463
0.025139394
0.021453739
0.018217441
0.015518963
0.013433465
0.011958157
0.010967486
0.010282092
0.0097629664
0.0093330485
0.0089561941
0.0086161975
0.00830531
0.0080191672
0.0077549906
0.0075105588
0.0072839429
0.0070736701
0.0068781561
0.0066960666
0.0065265743
0.0063685942
0.0062212178
0.0060839321
0.0059559192
0.0058365516
0.0057253802
0.0056216358
0.0055248117
0.0054344429
0.0053499194
0.0052708925
0.0051970254
0.0051278672
0.0050631159
0.0050025252
0.0049457343
0.0048925461
0.0048427403
0.0047960373
0.0047522451
0.004711175
0.0046726216
0.0046363981
0.0046023645
0.0045703659
0.0045402835
0.0045119772
0.0044853564
0.0044603097
0.0044367357
0.0044145931
0.0043937711
0.0043741885
0.0043557982
0.0043385178
0.0043222641
0.0043069633
0.0042925256
0.0042788814
0.004265986
0.0042538155
0.0042423598
0.0042316036
0.0042215236
0.0042121103
0.0042033586
0.0041952567
0.0041877771
0.0041808704
0.0041744852
0.0041685687
0.0041630636
0.0041579298
0.0041531505
0.0041487555
0.004144746
0.0041412064
0.0041380233
0.0041355533
0.0041331545
0.0041320345
0.046133038
0.048603868
0.051051453
0.053475941
0.055872327
0.058233814
0.060553137
0.062822829
0.065035221
0.06718246
0.069256492
0.071248983
0.073151151
0.07495359
0.076646144
0.078217886
0.079657108
0.080951359
0.08208773
0.083056125
0.083845165
0.084439136
0.084825199
0.084990604
0.08492257
0.084608351
0.084035377
0.083191445
0.082064981
0.080645354
0.078923291
0.076891337
0.07454429
0.071880143
0.068901127
0.065614239
0.062032644
0.058177547
0.05407872
0.049776424
0.045327143
0.040801894
0.036283931
0.031870257
0.027661829
0.023756012
0.02024261
0.017207712
0.014737285
0.012885365
0.011604705
0.010741082
0.010125185
0.0096421762
0.0092324093
0.0088685308
0.0085381535
0.0082351001
0.0079556784
0.0076974169
0.0074582454
0.0072363408
0.007030322
0.0068386294
0.0066599843
0.0064936171
0.0063384515
0.006193628
0.0060586738
0.0059327746
0.0058153374
0.0057059354
0.0056038029
0.0055084507
0.0054194356
0.0053361523
0.0052582526
0.0051854199
0.0051172216
0.0050533484
0.0049935708
0.0049375242
0.0048850091
0.0048358245
0.0047896859
0.0047464031
0.0047057985
0.0046676733
0.0046318395
0.0045981655
0.0045664975
0.0045367157
0.0045086889
0.0044823237
0.0044575123
0.0044341553
0.0044122104
0.0043915708
0.004372155
0.0043539167
0.0043367746
0.0043206468
0.0043054599
0.0042911262
0.0042775772
0.0042647692
0.0042526804
0.0042413012
0.0042306151
0.0042206012
0.0042112489
0.0042025526
0.0041945001
0.0041870637
0.0041801942
0.004173841
0.0041679526
0.0041624727
0.0041573624
0.0041526057
0.0041482326
0.0041442445
0.0041407245
0.0041375602
0.0041351065
0.0041327216
0.0041316104
0.050471035
0.052790259
0.055090402
0.057368263
0.05961708
0.061829445
0.063998016
0.066115448
0.068174221
0.070166579
0.07208448
0.073919513
0.075662784
0.077304779
0.078835275
0.080243307
0.081517178
0.08264453
0.083612553
0.084411314
0.085029462
0.08545118
0.085663634
0.085654126
0.085410013
0.084918776
0.084168176
0.083146458
0.081842626
0.080246785
0.078350588
0.076147705
0.073634336
0.070810244
0.067679677
0.064252015
0.060543429
0.056578638
0.05239104
0.0480263
0.043546405
0.039026529
0.034553958
0.030226717
0.026143084
0.022395727
0.019070498
0.016252338
0.014020076
0.012396901
0.011291954
0.010536157
0.0099780277
0.0095256774
0.0091338978
0.0087822755
0.0084613794
0.0081662354
0.0078936764
0.0076414773
0.0074076991
0.0071906187
0.006988942
0.0068011339
0.0066259763
0.0064627562
0.0063104074
0.0061681219
0.0060354616
0.0059116156
0.0057960268
0.0056883121
0.0055877059
0.0054937362
0.0054059834
0.005323851
0.0052469939
0.0051751096
0.005107788
0.0050447129
0.0049856693
0.0049302945
0.0048783845
0.0048297531
0.0047841155
0.0047412838
0.0047010888
0.0046633381
0.0046278434
0.0045944829
0.0045631036
0.004533582
0.0045057966
0.0044796511
0.004455042
0.0044318715
0.0044100954
0.0043896108
0.0043703366
0.0043522273
0.004335202
0.0043191804
0.0043040895
0.0042898435
0.004276375
0.0042636415
0.0042516225
0.0042403089
0.0042296857
0.0042197306
0.0042104324
0.0042017851
0.0041937757
0.0041863765
0.0041795391
0.0041732134
0.0041673491
0.0041618912
0.0041568013
0.0041520646
0.0041477109
0.0041437419
0.0041402396
0.0041370922
0.0041346535
0.0041322818
0.0041311781
0.054834121
0.056988496
0.059131824
0.061253986
0.063347134
0.065403307
0.067414866
0.069374292
0.07127396
0.073106019
0.07486232
0.076534328
0.078113021
0.079588786
0.080951354
0.08218976
0.083292362
0.084246902
0.085040686
0.085664001
0.086105577
0.086349536
0.086383092
0.08619365
0.085768739
0.085096116
0.084163927
0.082960932
0.081476799
0.07970247
0.077630648
0.075256257
0.072577064
0.069594812
0.066315972
0.062752523
0.058923951
0.054858788
0.050594296
0.046181931
0.041689205
0.037194778
0.032789015
0.028569269
0.024629953
0.021058885
0.017939181
0.01535422
0.013368369
0.011964933
0.011015145
0.010349054
0.00983822
0.0094116812
0.0090358674
0.0086956798
0.0083839139
0.0080965066
0.0078307045
0.0075844881
0.007356041
0.0071437378
0.0069463667
0.0067624162
0.0065907324
0.0064306558
0.0062811279
0.006141395
0.006011053
0.0058892941
0.0057755969
0.0056696143
0.0055705794
0.0054780381
0.0053915945
0.0053106607
0.0052348937
0.0051640025
0.0050976029
0.005035372
0.0049771056
0.0049224447
0.00487118
0.0048231398
0.0047780397
0.0047356928
0.0046959384
0.0046585932
0.0046234671
0.0045904476
0.004559383
0.0045301465
0.004502626
0.0044767227
0.0044523367
0.0044293722
0.0044077831
0.0043874709
0.0043683545
0.0043503891
0.0043334942
0.0043175912
0.0043026077
0.0042884597
0.0042750814
0.0042624317
0.0042504913
0.0042392519
0.004228698
0.0042188079
0.0042095697
0.0042009764
0.0041930149
0.0041856572
0.0041788554
0.0041725603
0.004166723
0.0041612894
0.0041562223
0.0041515075
0.004147175
0.0041432267
0.0041397432
0.0041366139
0.0041341913
0.0041318334
0.0041307384
0.059187704
0.061165014
0.063147587
0.065108563
0.067040121
0.068934236
0.070783109
0.072579033
0.074314203
0.075980601
0.077569917
0.079073465
0.080482092
0.081786096
0.082975167
0.08403836
0.0849641
0.08574024
0.086354208
0.086796575
0.087056204
0.087117185
0.086966845
0.08659274
0.085982634
0.085124613
0.084007277
0.082619977
0.080953137
0.078998646
0.076750391
0.074204695
0.071361073
0.068223463
0.064800765
0.061107855
0.057167826
0.053013285
0.048685802
0.044242826
0.039757079
0.035310013
0.03099376
0.026903296
0.02312838
0.019752512
0.016857311
0.014521861
0.012785644
0.011586419
0.01076928
0.010176347
0.0097041822
0.0092997011
0.0089383622
0.0086090485
0.0083062165
0.0080264929
0.0077674486
0.0075272328
0.007304147
0.00709666
0.0069036334
0.0067235781
0.0065554096
0.0063985167
0.0062518457
0.0061147006
0.0059867062
0.0058670581
0.0057552708
0.0056510352
0.0055535817
0.0054624753
0.0053773447
0.0052976112
0.0052229365
0.0051530363
0.0050875552
0.005026166
0.0049686713
0.0049147196
0.0048640958
0.0048166398
0.0047720705
0.0047302022
0.004690881
0.004653934
0.0046191703
0.0045864853
0.00455573
0.0045267732
0.004499512
0.0044738455
0.0044496778
0.0044269146
0.0044055077
0.0043853633
0.0043664006
0.0043485753
0.0043318069
0.0043160188
0.0043011393
0.0042870863
0.004273796
0.004261228
0.0042493646
0.004238198
0.0042277128
0.0042178871
0.0042087079
0.0042001679
0.0041922532
0.0041849359
0.0041781688
0.0041719035
0.0041660924
0.0041606827
0.0041556379
0.0041509447
0.0041466328
0.0041427047
0.0041392397
0.0041361279
0.0041337209
0.0041313771
0.0041302908
0.063491265
0.065291303
0.067109156
0.068904648
0.070670034
0.072397333
0.074078665
0.075706173
0.077271878
0.078767593
0.080184846
0.081514805
0.082748198
0.083875244
0.084885608
0.085768369
0.086512031
0.087104557
0.087533515
0.087789814
0.087862507
0.087735679
0.087396829
0.086833735
0.08603446
0.084987496
0.08368197
0.082107918
0.080256624
0.078121048
0.075696405
0.072980577
0.069975057
0.066686181
0.063125493
0.059311152
0.055270172
0.051039387
0.046665347
0.042211502
0.03775495
0.033379134
0.029176306
0.025237605
0.021647905
0.018487546
0.015837013
0.01376466
0.012273255
0.01125635
0.010549039
0.010014923
0.0095745158
0.0091891764
0.0088411533
0.008522259
0.0082281788
0.0079560667
0.007703746
0.0074695067
0.0072517697
0.0070490973
0.0068604135
0.0066842528
0.0065196076
0.0063659094
0.0062221055
0.0060875631
0.005961931
0.0058444099
0.0057345511
0.0056320799
0.0055362235
0.0054465677
0.0053627654
0.0052842467
0.005210681
0.0051417864
0.0050772366
0.0050167049
0.0049599955
0.0049067661
0.0048567974
0.0048099376
0.0047659105
0.0047245321
0.004685654
0.0046491151
0.004614724
0.004582383
0.0045519461
0.0045232782
0.0044962847
0.0044708631
0.0044469214
0.0044243666
0.0044031486
0.0043831782
0.0043643754
0.0043466956
0.0043300588
0.0043143902
0.0042996188
0.0042856648
0.0042724662
0.0042599838
0.0042482014
0.0042371113
0.004226698
0.0042169395
0.004207822
0.0041993375
0.0041914717
0.0041841964
0.0041774654
0.0041712311
0.0041654475
0.0041600628
0.0041550413
0.0041503705
0.00414608
0.0041421725
0.0041387264
0.0041356326
0.0041332416
0.0041309121
0.0041298352
0.067707888
0.069335346
0.070985466
0.072612296
0.074208048
0.075764778
0.077274563
0.078729439
0.080121298
0.081441818
0.082682393
0.083834072
0.084887488
0.085832806
0.086659676
0.087357216
0.087914012
0.088318149
0.088557342
0.088622906
0.088504144
0.088185153
0.087653671
0.086897774
0.085905903
0.084667038
0.083170933
0.081408411
0.079371735
0.07705508
0.07445514
0.071571556
0.068408052
0.064973582
0.061282608
0.057356956
0.053227939
0.048936663
0.044535418
0.040093505
0.035690862
0.031411964
0.027347432
0.023583596
0.020200899
0.017277896
0.014891966
0.013090071
0.011828949
0.010968108
0.010349269
0.0098621351
0.0094481188
0.0090797113
0.0087441314
0.0084353126
0.0081498437
0.0078852917
0.0076396741
0.0074113984
0.0071990108
0.0070011661
0.006816838
0.0066445851
0.0064834862
0.0063330078
0.0061920941
0.0060601806
0.005936934
0.0058215626
0.0057136546
0.0056129661
0.0055187221
0.0054305316
0.0053480706
0.0052707761
0.0051983316
0.0051304523
0.0050668393
0.0050071738
0.0049512558
0.0048987535
0.0048494464
0.0048031866
0.0047597045
0.0047188197
0.0046803868
0.0046442577
0.0046102424
0.0045782473
0.0045481311
0.0045197544
0.0044930301
0.0044678552
0.0044441409
0.0044217955
0.0044007675
0.0043809721
0.0043623301
0.0043447967
0.0043282918
0.0043127431
0.0042980803
0.0042842255
0.0042711194
0.0042587236
0.0042470232
0.0042360108
0.0042256705
0.0042159802
0.0042069252
0.0041984967
0.00419068
0.0041834471
0.0041767523
0.0041705493
0.0041647934
0.004159434
0.004154436
0.0041497878
0.0041455187
0.0041416319
0.0041382045
0.0041351286
0.0041327536
0.0041304385
0.0041293715
0.071803841
0.073261683
0.074742892
0.076199184
0.077622912
0.079006248
0.080341294
0.081620047
0.08283433
0.083975736
0.085035574
0.086004811
0.08687402
0.087633336
0.08827242
0.08878044
0.089146079
0.08935755
0.089402737
0.089273432
0.08895925
0.088444316
0.087716681
0.086764799
0.085577579
0.084144591
0.082456322
0.080504507
0.078282527
0.075785941
0.073013074
0.069965574
0.066649691
0.06307721
0.059265848
0.055241548
0.051040299
0.046707425
0.042301629
0.037897519
0.033575796
0.029420938
0.025520307
0.021955113
0.0188025
0.016139881
0.014035497
0.012501551
0.011446903
0.010714363
0.010165358
0.0097158379
0.0093241466
0.0089710136
0.008647217
0.0083482055
0.0080712267
0.0078141844
0.0075752431
0.0073529094
0.0071458628
0.0069528494
0.0067728803
0.0066045385
0.006447
0.0062997578
0.0061617488
0.0060324831
0.0059116383
0.0057984338
0.0056924957
0.0055936041
0.0055009854
0.0054142742
0.0053331665
0.0052571049
0.0051857942
0.0051189421
0.0050562722
0.0049974834
0.0049423661
0.0048905981
0.0048419619
0.0047963097
0.0047533786
0.0047129943
0.0046750128
0.0046392987
0.0046056659
0.0045740226
0.0045442321
0.0045161527
0.0044897026
0.0044647794
0.004441297
0.0044191651
0.0043983312
0.0043787144
0.0043602368
0.0043428531
0.0043264831
0.0043110567
0.0042965048
0.0042827517
0.0042697405
0.0042574338
0.0042458181
0.0042348861
0.0042246211
0.0042150008
0.00420601
0.004197639
0.0041898726
0.004182683
0.0041760254
0.0041698544
0.004164127
0.0041587936
0.0041538198
0.0041491948
0.0041449476
0.0041410816
0.0041376732
0.0041346152
0.0041322563
0.004129956
0.0041288996
0.075744217
0.077034534
0.078346422
0.079631144
0.080881282
0.082089184
0.083247046
0.084346895
0.085380546
0.086339565
0.087215222
0.087998448
0.088679796
0.089249404
0.089696966
0.090011726
0.090182476
0.09019758
0.090045109
0.089717414
0.089204493
0.088490517
0.087563924
0.086413636
0.085029135
0.083400692
0.081519656
0.079378815
0.076972832
0.074298837
0.071356988
0.068151192
0.064690547
0.06098995
0.057070752
0.052963486
0.048709095
0.044357272
0.039973184
0.035635409
0.031423591
0.027421
0.023710466
0.0203686
0.017470686
0.015091187
0.013278125
0.011997276
0.011118603
0.010487898
0.0099934168
0.0095743548
0.0092019712
0.008862881
0.0085503686
0.0082609552
0.0079923605
0.0077427788
0.0075104857
0.0072940709
0.007092357
0.006904178
0.0067285712
0.0065641461
0.0064101832
0.0062661954
0.0061311084
0.0060045115
0.0058860862
0.0057750682
0.0056711209
0.0055740399
0.0054830603
0.0053978433
0.005318101
0.0052432803
0.0051731154
0.0051073024
0.0050455805
0.0049876777
0.0049333693
0.0048823407
0.0048343834
0.0047893449
0.0047469688
0.0047070906
0.0046695651
0.0046342694
0.0046010243
0.004569737
0.0045402757
0.0045124979
0.0044863255
0.0044616575
0.0044384099
0.0044164939
0.0043958567
0.0043764208
0.0043581098
0.0043408778
0.0043246443
0.0043093417
0.0042949022
0.004281252
0.0042683374
0.0042561217
0.0042445926
0.0042337427
0.0042235546
0.0042140057
0.0042050801
0.0041967676
0.0041890522
0.0041819064
0.0041752865
0.0041691482
0.0041634498
0.0041581429
0.0041531939
0.0041485923
0.0041443671
0.0041405221
0.0041371326
0.0041340926
0.0041317498
0.0041294646
0.0041284191
0.079492074
0.080616802
0.081759417
0.082872137
0.083947781
0.084978902
0.085957836
0.086876695
0.087727344
0.088501372
0.089190062
0.089784356
0.090274824
0.090651643
0.090904574
0.091022958
0.090995723
0.09081141
0.090458306
0.089929409
0.089215178
0.08829985
0.087172339
0.085822132
0.084239398
0.082415242
0.080342021
0.07801374
0.075426534
0.072579318
0.069474317
0.066118
0.062522645
0.058706598
0.054695329
0.050524349
0.046239578
0.041895513
0.037563022
0.03332239
0.029251017
0.025429641
0.02193602
0.018843465
0.016226019
0.014148804
0.012624889
0.011570082
0.010834197
0.010282224
0.0098303302
0.0094364199
0.0090811426
0.0087551822
0.0084535708
0.0081735897
0.0079132823
0.0076711068
0.0074454281
0.0072349062
0.0070385144
0.0068551669
0.0066839216
0.0065234165
0.0063730405
0.006232321
0.0061001713
0.0059762616
0.0058602697
0.0057514557
0.0056495188
0.0055542589
0.0054649304
0.005381222
0.0053028556
0.0052292827
0.0051602743
0.0050955125
0.0050347431
0.0049777347
0.004924244
0.0048739601
0.0048266896
0.0047822714
0.004740455
0.0047010889
0.0046640253
0.0046291522
0.004596301
0.0045653748
0.0045362467
0.004508776
0.0044828857
0.0044584771
0.0044354678
0.0044137711
0.0043933342
0.0043740823
0.0043559409
0.0043388631
0.0043227685
0.0043075918
0.0042932666
0.0042797215
0.0042669054
0.004254783
0.004243343
0.0042325775
0.0042224681
0.0042129923
0.0042041333
0.0041958804
0.0041882169
0.0041811158
0.0041745343
0.0041684293
0.0041627608
0.004157481
0.0041525573
0.0041479798
0.0041437768
0.0041399528
0.0041365824
0.0041335604
0.0041312339
0.0041289641
0.00412793
0.083008362
0.083969511
0.084943369
0.085884193
0.086785038
0.087638674
0.088437608
0.089174078
0.089840047
0.090427177
0.090926807
0.091329935
0.091627192
0.09180883
0.091864709
0.091784302
0.091556703
0.091170661
0.090614722
0.089882623
0.088965372
0.087847307
0.086517908
0.08496734
0.083186592
0.081167747
0.078904347
0.076391805
0.073627943
0.0706137
0.067353642
0.063857192
0.060140143
0.056224613
0.052140823
0.047929555
0.043641213
0.039335577
0.035087922
0.030977171
0.027077822
0.023467065
0.020218077
0.01740236
0.01509044
0.01332579
0.012073431
0.011208752
0.010583883
0.010091933
0.0096737137
0.0093011102
0.0089613514
0.0086478417
0.0083568292
0.0080861471
0.0078340359
0.0075992029
0.0073800993
0.0071754431
0.006984363
0.0068058381
0.00663895
0.0064823705
0.0063355904
0.00619815
0.0060689544
0.0059477493
0.0058342035
0.0057276112
0.0056277042
0.0055342742
0.0054466091
0.0053644241
0.0052874431
0.0052151251
0.0051472831
0.0050835842
0.0050237724
0.0049676655
0.0049150009
0.0048654667
0.0048188899
0.0047750987
0.0047338465
0.0046949979
0.0046584022
0.0046239555
0.0045915037
0.0045609437
0.0045321525
0.0045049938
0.0044793898
0.0044552443
0.0044324764
0.0044110018
0.0043907684
0.0043717033
0.004353734
0.0043368126
0.004320859
0.0043058099
0.0042916008
0.0042781625
0.004265447
0.00425342
0.0042420713
0.004231392
0.0042213632
0.0042119617
0.0042031706
0.004194978
0.0041873672
0.0041803115
0.0041737692
0.0041676982
0.0041620601
0.0041568082
0.0041519104
0.0041473572
0.0041431767
0.0041393739
0.0041360224
0.0041330184
0.0041307081
0.004128454
0.0041274321
0.086252174
0.087051894
0.087857957
0.08862749
0.089353788
0.090029841
0.090648347
0.091201707
0.091682016
0.092081051
0.092390253
0.092600715
0.092703169
0.092687981
0.09254515
0.092264317
0.09183478
0.091245541
0.09048545
0.089549084
0.088428102
0.087106986
0.085575891
0.083825788
0.081848631
0.07963766
0.077187793
0.074496084
0.071562303
0.068389654
0.064985383
0.061362331
0.05754012
0.053545076
0.0494127
0.045189157
0.040928395
0.036695662
0.032568722
0.028621829
0.024926728
0.021556542
0.018581286
0.016070838
0.014084422
0.012627512
0.01161394
0.01090015
0.010358943
0.0099127918
0.0095218146
0.0091677776
0.0088423973
0.0085408246
0.0082601656
0.0079986714
0.00775467
0.0075271034
0.007314527
0.0071157095
0.006929932
0.0067562127
0.0065936716
0.0064410262
0.0062978481
0.0061636923
0.0060374675
0.0059189832
0.005807893
0.0057035389
0.0056056796
0.0055140861
0.0054280963
0.0053474482
0.0052718605
0.0052008055
0.005134138
0.0050715123
0.0050126641
0.0049574647
0.0049056339
0.0048568547
0.004810978
0.0047678201
0.0047271371
0.0046888116
0.0046526899
0.0046186744
0.0045866274
0.0045564389
0.0045279885
0.0045011468
0.0044758337
0.0044519552
0.004429432
0.0044081827
0.0043881563
0.0043692809
0.0043514865
0.0043347238
0.0043189135
0.004303994
0.0042899029
0.0042765734
0.0042639605
0.0042520313
0.0042407762
0.0042301854
0.0042202387
0.0042109131
0.0042021908
0.0041940597
0.0041865024
0.0041794929
0.0041729905
0.0041669544
0.0041613474
0.0041561241
0.0041512527
0.0041467244
0.0041425666
0.0041387849
0.0041354524
0.0041324664
0.0041301723
0.0041279341
0.0041269252
0.089180873
0.089821489
0.090461131
0.091060449
0.091612972
0.092111921
0.092550199
0.092920395
0.09321477
0.093425248
0.093543409
0.093560481
0.093467337
0.093254498
0.092912141
0.092430117
0.09179798
0.09100503
0.090040485
0.088899869
0.087575599
0.086052376
0.084321147
0.082373838
0.080203537
0.077804839
0.075174274
0.072310803
0.069216455
0.065896978
0.06236271
0.058630378
0.054723689
0.050673775
0.046521734
0.042318605
0.038121198
0.033999273
0.030030113
0.026281804
0.022823712
0.019725052
0.017054151
0.014875437
0.013222293
0.012049083
0.011231219
0.010631379
0.010152303
0.0097416505
0.0093733784
0.0090359875
0.0087241613
0.008434123
0.0081636137
0.0079112072
0.0076752342
0.0074548482
0.0072487391
0.0070557352
0.0068752534
0.0067063129
0.0065481012
0.0063994049
0.0062598337
0.0061289604
0.0060057239
0.0058899757
0.0057813487
0.005679248
0.0055834524
0.0054937016
0.0054093989
0.0053303003
0.005256112
0.0051863297
0.0051208432
0.0050592994
0.0050014229
0.0049471354
0.0048961449
0.0048481271
0.0048029557
0.0047604372
0.0047203292
0.0046825318
0.0046468907
0.0046133114
0.004581674
0.0045518624
0.0045237569
0.0044972369
0.0044722192
0.0044486115
0.004426336
0.0044053152
0.0043854992
0.0043668165
0.0043491994
0.0043325978
0.0043169329
0.0043021449
0.0042881736
0.004274955
0.0042624468
0.0042506176
0.0042394586
0.004228958
0.0042190953
0.0042098467
0.0042011943
0.0041931254
0.0041856225
0.0041786599
0.0041721982
0.0041661977
0.0041606226
0.0041554286
0.0041505843
0.0041460811
0.0041419462
0.0041381858
0.0041348722
0.0041319041
0.0041296263
0.0041274041
0.0041264093
0.091750135
0.09223417
0.092709165
0.09313979
0.093519818
0.093842706
0.09410158
0.094289234
0.09439812
0.094420341
0.094347648
0.09417144
0.093882768
0.09347235
0.092930586
0.092247588
0.091413217
0.09041714
0.089249014
0.087905418
0.086379661
0.084656751
0.082728576
0.080588183
0.078229993
0.075650187
0.072847177
0.069822148
0.066579758
0.063128645
0.059482702
0.055662928
0.051697373
0.0476226
0.043485193
0.039339691
0.035245401
0.031274685
0.027500852
0.023986429
0.020798701
0.018003999
0.015668114
0.013839186
0.012507066
0.01157581
0.010908017
0.010391323
0.0099586544
0.0095762301
0.0092275138
0.0089054805
0.0086065889
0.0083277486
0.0080672239
0.0078237927
0.0075957734
0.0073824823
0.0071827635
0.0069955545
0.0068203592
0.0066561598
0.006502253
0.0063575282
0.0062215696
0.0060939663
0.0059737344
0.0058607381
0.0057545795
0.0056547451
0.0055610266
0.005473125
0.0053905208
0.005312982
0.0052401978
0.0051716999
0.0051073994
0.0050469435
0.004990049
0.0049366768
0.0048865312
0.0048392822
0.0047948207
0.004752947
0.0047134209
0.0046761564
0.0046410021
0.0046078651
0.0045766415
0.0045472124
0.0045194564
0.0044932629
0.0044685451
0.0044452117
0.0044231871
0.0044023983
0.0043827962
0.004364309
0.0043468718
0.0043304337
0.0043149163
0.0043002619
0.0042864123
0.0042733068
0.0042609054
0.0042491786
0.0042381178
0.0042277095
0.0042179322
0.004208762
0.0042001804
0.0041921747
0.0041847269
0.004177812
0.0041713918
0.0041654279
0.0041598856
0.0041547215
0.0041499049
0.0041454273
0.0041413155
0.0041375763
0.0041342816
0.0041313314
0.0041290697
0.0041268636
0.004125884
0.093913929
0.094244156
0.094556673
0.094820584
0.095029913
0.095178363
0.095259298
0.095265737
0.095190342
0.095025419
0.094762919
0.094394443
0.093911261
0.09330433
0.092564326
0.091681679
0.090646623
0.089449268
0.088079801
0.086535971
0.084812124
0.082893709
0.080773722
0.078446529
0.075908117
0.07315652
0.070192343
0.067019372
0.063645324
0.060082147
0.056347789
0.052467788
0.048474716
0.04441092
0.040327829
0.036281001
0.032332377
0.028554837
0.025014125
0.021769488
0.018886515
0.016429045
0.014453737
0.012974695
0.011927766
0.011186836
0.010628122
0.010171497
0.0097742556
0.0094147363
0.0090835601
0.0087761675
0.0084896903
0.0082217408
0.0079710782
0.0077364591
0.0075163355
0.0073100683
0.0071166387
0.0069352141
0.006765277
0.0066057743
0.0064561475
0.0063154187
0.0061830794
0.0060587228
0.0059415105
0.0058312817
0.0057275958
0.0056300381
0.005538407
0.0054523629
0.0053714677
0.0052954961
0.0052241205
0.0051569198
0.0050938091
0.0050344446
0.0049785449
0.0049260903
0.0048767922
0.0048303207
0.0047865732
0.004745349
0.0047064126
0.0046696856
0.0046350246
0.0046023366
0.0045715307
0.0045424894
0.0045150882
0.0044892252
0.0044648117
0.0044417562
0.0044199857
0.0043994323
0.0043800475
0.0043617589
0.0043445041
0.0043282316
0.0043128639
0.0042983452
0.0042846194
0.004271629
0.0042593366
0.0042477146
0.0042367541
0.00422644
0.0042167497
0.0042076588
0.0041991489
0.0041912072
0.0041838153
0.004176949
0.0041705712
0.0041646448
0.0041591361
0.0041540027
0.0041492143
0.0041447627
0.0041406742
0.0041369561
0.0041336803
0.004130748
0.0041285025
0.0041263122
0.0041253493
0.095624542
0.095804043
0.095956675
0.096056336
0.096097314
0.096073575
0.095978735
0.095806048
0.095548406
0.095198336
0.094748014
0.094189279
0.093513658
0.0927124
0.091776511
0.09069681
0.089463985
0.08806868
0.08650172
0.084762155
0.082845528
0.080737911
0.078433607
0.075928535
0.073220517
0.070309754
0.067199409
0.063896284
0.060411649
0.056761285
0.052967599
0.049060847
0.045077939
0.041066658
0.037082114
0.033178109
0.029419765
0.025877535
0.02260771
0.019669407
0.017126781
0.01503784
0.013433899
0.012278045
0.011461779
0.01085936
0.010377991
0.0099660437
0.009596413
0.0092562583
0.0089412872
0.008647921
0.0083734539
0.0081162326
0.0078752238
0.0076491758
0.0074368816
0.0072376182
0.0070504692
0.0068748035
0.0067100292
0.0065551883
0.0064098314
0.006273097
0.0061443801
0.0060232456
0.0059090677
0.0058016159
0.0057004068
0.0056051347
0.0055155983
0.0054314214
0.0053522436
0.005277844
0.0052078825
0.0051419912
0.0050800737
0.0050218025
0.0049669109
0.0049153765
0.0048669265
0.0048212416
0.0047782124
0.0047376417
0.0046993035
0.0046631187
0.004628957
0.0045967256
0.0045663408
0.004537693
0.0045106522
0.0044851237
0.0044610184
0.0044382446
0.0044167316
0.004396417
0.0043772529
0.0043591656
0.0043420958
0.0043259912
0.0043107754
0.0042963945
0.0042827946
0.0042699215
0.0042577403
0.0042462254
0.0042353674
0.0042251492
0.0042155473
0.0042065368
0.0041980995
0.0041902225
0.0041828873
0.0041760705
0.0041697362
0.0041638481
0.0041583739
0.004153272
0.0041485124
0.0041440872
0.004140022
0.0041363252
0.004133068
0.0041301535
0.0041279241
0.0041257498
0.0041248047
0.096832668
0.096864906
0.096860718
0.096799142
0.096674747
0.096481778
0.096214109
0.095865241
0.095428304
0.094896069
0.09426096
0.093515092
0.092650295
0.091658166
0.090530116
0.089257433
0.087831357
0.086243182
0.084484502
0.082555808
0.080454035
0.078166109
0.075687879
0.073017096
0.07015374
0.067100541
0.063863626
0.060453266
0.056884769
0.053178387
0.049361184
0.045467973
0.041539253
0.037627083
0.033788066
0.030073841
0.026551525
0.023284866
0.020324356
0.017730852
0.015563651
0.013862716
0.012613168
0.011726139
0.011080417
0.010575223
0.010149332