/*--------------------------------*- C++ -*----------------------------------*\
| =========                 |                                                 |
| \\      /  F ield         | OpenFOAM: The Open Source CFD Toolbox           |
|  \\    /   O peration     | Version:  2406                                  |
|   \\  /    A nd           | Website:  www.openfoam.com                      |
|    \\/     M anipulation  |                                                 |
\*---------------------------------------------------------------------------*/
FoamFile
{
    version     2.0;
    format      ascii;
    arch        "LSB;label=32;scalar=64";
    class       volScalarField;
    location    "0.028";
    object      p;
}
// * * * * * * * * * * * * * * * * * * * * * * * * * * * * * * * * * * * * * //

dimensions      [1 -1 -2 0 0 0 0];

internalField   nonuniform List<scalar> 
92813
(
101061.23
101002.24
100976.56
100947.83
100919.35
100895.09
100874.82
100858.22
100845.05
100834.99
100827.62
100822.43
100818.8
100816.43
100814.98
100814.72
100816
100819.16
100824.23
100831.18
100839.61
100849.28
100859.93
100871.46
100883.72
100896.6
100910.02
100923.89
100938.15
100952.73
100967.57
100982.59
100997.73
101012.93
101028.11
101043.17
101058.19
101072.53
101086.27
101099.48
101113.42
101127.55
101139.78
101151.17
101161.8
101171.55
101180.36
101188.22
101195.18
101201.41
101207.1
101212.34
101217.2
101221.8
101226.21
101230.48
101234.63
101238.66
101242.6
101246.44
101250.19
101253.86
101257.44
101260.93
101264.34
101267.66
101270.88
101274
101277.03
101279.97
101282.83
101285.61
101288.31
101290.96
101293.54
101296.07
101298.53
101300.94
101303.29
101305.57
101307.78
101309.92
101311.98
101313.97
101315.9
101317.77
101319.59
101321.38
101323.12
101324.83
101326.5
101328.14
101329.73
101331.29
101332.8
101334.27
101335.71
101337.1
101338.46
101339.78
101341.05
101342.28
101343.46
101344.59
101345.68
101346.72
101347.73
101348.7
101349.64
101350.55
101351.43
101352.28
101353.09
101353.87
101354.62
101355.32
101355.97
101356.57
101357.13
101357.64
101358.1
101358.52
101358.9
101359.2
101359.5
101359.66
101359.83
101194.6
101155
101119.14
101080.18
101044.99
101015.49
100990.85
100970.31
100953.42
100939.74
100928.79
100920.07
100913.03
100907.11
100902.1
100898.13
100895.4
100894.12
100894.7
100897.19
100901.41
100907.18
100914.47
100922.96
100932.4
100942.6
100953.44
100964.82
100976.65
100988.86
101001.37
101014.11
101027.02
101040.03
101053.07
101066.06
101079
101091.65
101103.73
101114.66
101127.21
101140.07
101150.95
101161.19
101170.86
101179.82
101188
101195.39
101202.03
101208.08
101213.62
101218.69
101223.36
101227.75
101231.93
101235.97
101239.88
101243.68
101247.4
101251.02
101254.57
101258.05
101261.45
101264.77
101268.01
101271.17
101274.24
101277.22
101280.12
101282.93
101285.66
101288.32
101290.91
101293.45
101295.92
101298.35
101300.72
101303.04
101305.3
101307.5
101309.63
101311.69
101313.69
101315.61
101317.48
101319.29
101321.05
101322.77
101324.46
101326.12
101327.74
101329.33
101330.88
101332.4
101333.87
101335.3
101336.7
101338.06
101339.38
101340.67
101341.91
101343.11
101344.26
101345.37
101346.43
101347.45
101348.43
101349.38
101350.3
101351.19
101352.05
101352.88
101353.68
101354.45
101355.18
101355.86
101356.51
101357.1
101357.65
101358.14
101358.6
101359.01
101359.39
101359.69
101359.97
101360.13
101360.3
101262.6
101232.41
101193.12
101150.22
101112.31
101080.31
101053.09
101029.94
101010.39
100994.01
100980.38
100969.04
100959.59
100951.64
100945.01
100939.59
100935.4
100932.61
100931.51
100932.17
100934.59
100938.79
100944.56
100951.59
100959.66
100968.6
100978.27
100988.56
100999.37
101010.62
101022.22
101034.1
101046.17
101058.38
101070.64
101082.86
101095.03
101107.1
101118.25
101128.17
101140.42
101152.48
101162.58
101172.14
101181.14
101189.46
101197.05
101203.9
101210.09
101215.74
101220.9
101225.61
101229.94
101234.02
101237.92
101241.68
101245.33
101248.89
101252.37
101255.78
101259.12
101262.39
101265.6
101268.74
101271.81
101274.8
101277.72
101280.55
101283.3
101285.98
101288.58
101291.12
101293.59
101296.01
101298.38
101300.71
101302.98
101305.21
101307.38
101309.49
101311.54
101313.53
101315.45
101317.3
101319.1
101320.84
101322.54
101324.21
101325.84
101327.44
101329.02
101330.56
101332.07
101333.54
101334.96
101336.36
101337.71
101339.04
101340.32
101341.58
101342.79
101343.96
101345.08
101346.16
101347.2
101348.19
101349.15
101350.08
101350.98
101351.85
101352.69
101353.5
101354.29
101355.04
101355.75
101356.43
101357.05
101357.63
101358.17
101358.66
101359.11
101359.51
101359.88
101360.18
101360.46
101360.62
101360.79
101318.48
101292.24
101253.57
101209.81
101170.34
101136.32
101106.8
101081.17
101059.04
101040.08
101023.91
101010.17
100998.53
100988.7
100980.51
100973.81
100968.59
100964.9
100962.87
100962.52
100963.85
100966.84
100971.31
100977.07
100983.93
100991.75
101000.37
101009.71
101019.63
101030.07
101040.91
101052.09
101063.51
101075.1
101086.77
101098.45
101110.1
101121.81
101131.91
101141.46
101153.71
101164.95
101174.45
101183.47
101191.89
101199.62
101206.62
101212.89
101218.56
101223.73
101228.43
101232.71
101236.67
101240.42
101244.02
101247.5
101250.89
101254.2
101257.44
101260.62
101263.74
101266.81
101269.83
101272.78
101275.68
101278.51
101281.26
101283.95
101286.55
101289.09
101291.56
101293.97
101296.32
101298.63
101300.89
101303.11
101305.28
101307.41
101309.49
101311.52
101313.49
101315.39
101317.24
101319.02
101320.75
101322.43
101324.07
101325.68
101327.25
101328.8
101330.32
101331.81
101333.27
101334.7
101336.08
101337.43
101338.75
101340.04
101341.29
101342.51
101343.69
101344.83
101345.92
101346.97
101347.98
101348.95
101349.88
101350.79
101351.66
101352.52
101353.34
101354.14
101354.9
101355.64
101356.34
101357
101357.61
101358.18
101358.71
101359.19
101359.63
101360.02
101360.39
101360.68
101360.96
101361.11
101361.28
101369.83
101345.49
101308.02
101264.53
101224.52
101189.44
101158.51
101131.22
101107.27
101086.38
101068.26
101052.62
101039.18
101027.72
101018.05
101010.06
101003.7
100998.96
100995.87
100994.44
100994.64
100996.41
100999.62
101004.14
101009.8
101016.47
101024.02
101032.34
101041.31
101050.85
101060.85
101071.23
101081.9
101092.77
101103.76
101114.78
101125.82
101136.93
101146.03
101155.44
101167.31
101177.68
101186.58
101195.02
101202.84
101209.96
101216.34
101222.04
101227.17
101231.83
101236.05
101239.91
101243.5
101246.93
101250.22
101253.42
101256.54
101259.6
101262.6
101265.54
101268.45
101271.32
101274.13
101276.9
101279.62
101282.28
101284.87
101287.4
101289.86
101292.26
101294.59
101296.87
101299.11
101301.3
101303.44
101305.55
101307.63
101309.66
101311.65
101313.59
101315.47
101317.3
101319.07
101320.78
101322.44
101324.05
101325.62
101327.17
101328.69
101330.18
101331.65
101333.09
101334.5
101335.88
101337.22
101338.53
101339.81
101341.06
101342.27
101343.46
101344.6
101345.71
101346.77
101347.79
101348.78
101349.72
101350.63
101351.51
101352.37
101353.2
101354
101354.78
101355.53
101356.25
101356.93
101357.58
101358.18
101358.74
101359.26
101359.73
101360.16
101360.55
101360.9
101361.19
101361.46
101361.62
101361.78
101415.79
101391.77
101355.12
101312.67
101273.07
101237.79
101206.23
101177.99
101152.86
101130.63
101111.08
101093.98
101079.12
101066.3
101055.37
101046.21
101038.76
101032.99
101028.87
101026.38
101025.49
101026.13
101028.2
101031.58
101036.13
101041.73
101048.25
101055.59
101063.64
101072.29
101081.45
101091.03
101100.93
101111.07
101121.35
101131.69
101142.07
101152.44
101160.66
101169.92
101181.2
101190.68
101198.97
101206.79
101213.96
101220.43
101226.18
101231.29
101235.89
101240.03
101243.78
101247.22
101250.45
101253.54
101256.53
101259.45
101262.29
101265.09
101267.84
101270.56
101273.24
101275.9
101278.51
101281.1
101283.64
101286.12
101288.55
101290.92
101293.23
101295.48
101297.69
101299.83
101301.94
101304.01
101306.04
101308.05
101310.02
101311.95
101313.85
101315.7
101317.49
101319.24
101320.93
101322.56
101324.15
101325.7
101327.21
101328.69
101330.15
101331.59
101333
101334.39
101335.75
101337.08
101338.38
101339.65
101340.89
101342.09
101343.27
101344.42
101345.53
101346.61
101347.64
101348.63
101349.59
101350.5
101351.39
101352.25
101353.08
101353.89
101354.68
101355.44
101356.17
101356.87
101357.54
101358.17
101358.76
101359.31
101359.81
101360.27
101360.7
101361.08
101361.43
101361.71
101361.98
101362.13
101362.3
101457.1
101431.93
101395.63
101354.77
101316.27
101281.41
101249.8
101221.16
101195.35
101172.26
101151.7
101133.52
101117.55
101103.64
101091.66
101081.5
101073.08
101066.37
101061.3
101057.85
101055.97
101055.59
101056.63
101058.97
101062.5
101067.11
101072.67
101079.09
101086.25
101094.05
101102.39
101111.19
101120.34
101129.75
101139.32
101148.98
101158.72
101168.21
101175.63
101184.78
101195.35
101203.94
101211.59
101218.75
101225.25
101231.03
101236.13
101240.65
101244.7
101248.33
101251.6
101254.63
101257.5
101260.26
101262.94
101265.57
101268.14
101270.68
101273.18
101275.66
101278.12
101280.56
101282.98
101285.36
101287.72
101290.02
101292.29
101294.51
101296.66
101298.77
101300.83
101302.85
101304.83
101306.78
101308.7
101310.59
101312.46
101314.29
101316.09
101317.84
101319.55
101321.22
101322.83
101324.39
101325.91
101327.38
101328.82
101330.24
101331.64
101333.02
101334.38
101335.72
101337.03
101338.31
101339.56
101340.79
101341.99
101343.15
101344.29
101345.41
101346.48
101347.53
101348.53
101349.49
101350.42
101351.31
101352.17
101353
101353.81
101354.6
101355.36
101356.1
101356.82
101357.51
101358.16
101358.78
101359.35
101359.89
101360.38
101360.83
101361.25
101361.62
101361.97
101362.24
101362.51
101362.65
101362.82
101493.96
101467.12
101431.11
101392.06
101355.01
101320.98
101289.72
101261.1
101235.04
101211.46
101190.27
101171.35
101154.57
101139.82
101126.98
101115.98
101106.73
101099.18
101093.27
101088.95
101086.18
101084.88
101084.98
101086.38
101088.97
101092.65
101097.31
101102.85
101109.16
101116.13
101123.69
101131.71
101140.11
101148.8
101157.66
101166.65
101175.79
101184.17
101190.86
101200.05
101209.74
101217.44
101224.42
101230.88
101236.66
101241.75
101246.19
101250.11
101253.61
101256.71
101259.52
101262.15
101264.65
101267.08
101269.46
101271.79
101274.08
101276.35
101278.61
101280.84
101283.08
101285.31
101287.51
101289.71
101291.88
101294
101296.1
101298.15
101300.15
101302.12
101304.04
101305.92
101307.77
101309.6
101311.39
101313.18
101314.94
101316.66
101318.37
101320.03
101321.65
101323.23
101324.76
101326.24
101327.69
101329.1
101330.47
101331.83
101333.16
101334.48
101335.79
101337.07
101338.33
101339.57
101340.77
101341.95
101343.11
101344.23
101345.33
101346.41
101347.45
101348.46
101349.43
101350.36
101351.26
101352.12
101352.96
101353.77
101354.55
101355.32
101356.06
101356.79
101357.48
101358.15
101358.79
101359.39
101359.96
101360.48
101360.96
101361.4
101361.81
101362.17
101362.51
101362.78
101363.04
101363.19
101363.35
101526.7
101498.28
101462.66
101425.45
101389.98
101356.99
101326.38
101298.09
101272.1
101248.39
101226.88
101207.5
101190.18
101174.81
101161.33
101149.65
101139.71
101131.44
101124.79
101119.7
101116.13
101114.01
101113.27
101113.81
101115.54
101118.36
101122.18
101126.88
101132.37
101138.55
101145.33
101152.6
101160.26
101168.22
101176.37
101184.7
101193.24
101200.16
101206.49
101215.76
101224.33
101231.16
101237.43
101243.15
101248.19
101252.56
101256.34
101259.66
101262.59
101265.18
101267.54
101269.78
101271.92
101274.01
101276.07
101278.11
101280.12
101282.12
101284.12
101286.11
101288.12
101290.13
101292.13
101294.12
101296.11
101298.05
101299.98
101301.87
101303.7
101305.52
101307.3
101309.04
101310.76
101312.47
101314.14
101315.81
101317.46
101319.08
101320.69
101322.26
101323.79
101325.28
101326.73
101328.14
101329.51
101330.84
101332.15
101333.44
101334.71
101335.97
101337.22
101338.45
101339.65
101340.84
101342
101343.13
101344.25
101345.33
101346.4
101347.43
101348.44
101349.41
101350.35
101351.25
101352.12
101352.95
101353.76
101354.55
101355.31
101356.06
101356.78
101357.48
101358.16
101358.81
101359.43
101360.02
101360.57
101361.08
101361.55
101361.98
101362.38
101362.73
101363.07
101363.33
101363.59
101363.73
101363.89
101555.34
101526.05
101491.15
101455.69
101421.76
101389.92
101360.14
101332.41
101306.75
101283.15
101261.58
101242.01
101224.37
101208.61
101194.67
101182.48
101171.98
101163.12
101155.84
101150.09
101145.82
101142.97
101141.47
101141.23
101142.18
101144.21
101147.23
101151.15
101155.86
101161.28
101167.3
101173.82
101180.75
101187.98
101195.42
101203.05
101210.79
101216.49
101222.79
101231.62
101239.04
101245.05
101250.58
101255.52
101259.8
101263.45
101266.57
101269.28
101271.65
101273.73
101275.65
101277.5
101279.27
101281.03
101282.78
101284.52
101286.24
101287.98
101289.72
101291.46
101293.25
101295.04
101296.82
101298.61
101300.41
101302.16
101303.92
101305.64
101307.32
101308.98
101310.62
101312.22
101313.81
101315.39
101316.94
101318.49
101320.04
101321.55
101323.05
101324.53
101325.97
101327.37
101328.74
101330.06
101331.36
101332.62
101333.85
101335.08
101336.29
101337.49
101338.68
101339.85
101341
101342.14
101343.25
101344.34
101345.41
101346.45
101347.48
101348.48
101349.44
101350.39
101351.29
101352.16
101353
101353.8
101354.58
101355.34
101356.08
101356.8
101357.51
101358.19
101358.85
101359.48
101360.09
101360.66
101361.2
101361.69
101362.15
101362.57
101362.96
101363.31
101363.63
101363.89
101364.14
101364.29
101364.44
101580.02
101550.6
101517.12
101483.31
101450.83
101420.16
101391.33
101364.33
101339.18
101315.91
101294.5
101274.95
101257.21
101241.24
101227.01
101214.45
101203.54
101194.21
101186.41
101180.1
101175.23
101171.74
101169.57
101168.64
101168.86
101170.16
101172.45
101175.63
101179.6
101184.28
101189.57
101195.37
101201.57
101208.07
101214.79
101221.73
101228.5
101233.2
101239.48
101247.58
101253.89
101259.1
101263.84
101267.98
101271.47
101274.4
101276.86
101278.95
101280.77
101282.36
101283.86
101285.33
101286.72
101288.15
101289.59
101291.03
101292.46
101293.93
101295.4
101296.89
101298.45
101300.02
101301.58
101303.17
101304.78
101306.34
101307.92
101309.48
101310.99
101312.5
101314
101315.45
101316.91
101318.36
101319.79
101321.22
101322.65
101324.06
101325.46
101326.84
101328.18
101329.5
101330.78
101332.02
101333.24
101334.43
101335.59
101336.75
101337.89
101339.03
101340.16
101341.28
101342.38
101343.47
101344.53
101345.57
101346.59
101347.59
101348.58
101349.54
101350.47
101351.38
101352.25
101353.08
101353.89
101354.67
101355.42
101356.15
101356.87
101357.57
101358.25
101358.91
101359.55
101360.17
101360.76
101361.31
101361.83
101362.32
101362.76
101363.17
101363.55
101363.89
101364.21
101364.46
101364.71
101364.85
101365.01
101601.21
101572.37
101540.5
101508.4
101477.39
101447.99
101420.22
101394.09
101369.62
101346.85
101325.78
101306.42
101288.75
101272.74
101258.37
101245.61
101234.4
101224.72
101216.51
101209.74
101204.36
101200.32
101197.56
101196
101195.58
101196.21
101197.81
101200.3
101203.57
101207.55
101212.12
101217.2
101222.69
101228.47
101234.48
101240.75
101246.32
101250.15
101256.52
101263.65
101268.86
101273.26
101277.17
101280.47
101283.18
101285.38
101287.17
101288.65
101289.95
101291.07
101292.15
101293.24
101294.26
101295.35
101296.48
101297.62
101298.76
101299.95
101301.16
101302.4
101303.73
101305.07
101306.41
101307.81
101309.22
101310.59
101311.99
101313.38
101314.73
101316.09
101317.43
101318.74
101320.06
101321.38
101322.68
101324
101325.32
101326.61
101327.91
101329.19
101330.44
101331.67
101332.86
101334.02
101335.16
101336.27
101337.36
101338.45
101339.53
101340.6
101341.67
101342.73
101343.78
101344.82
101345.83
101346.82
101347.8
101348.76
101349.7
101350.62
101351.51
101352.38
101353.22
101354.02
101354.8
101355.55
101356.27
101356.98
101357.67
101358.35
101359
101359.65
101360.27
101360.87
101361.44
101361.98
101362.48
101362.95
101363.39
101363.78
101364.16
101364.49
101364.8
101365.04
101365.29
101365.42
101365.58
101619.51
101591.69
101561.55
101531.2
101501.75
101473.7
101447.09
101421.93
101398.27
101376.14
101355.56
101336.55
101319.09
101303.19
101288.82
101275.97
101264.59
101254.67
101246.15
101239.02
101233.21
101228.7
101225.43
101223.32
101222.32
101222.34
101223.31
101225.14
101227.75
101231.04
101234.93
101239.3
101244.07
101249.12
101254.45
101260.06
101264.02
101267.43
101273.92
101279.78
101283.91
101287.48
101290.52
101292.98
101294.9
101296.38
101297.5
101298.39
101299.2
101299.85
101300.51
101301.24
101301.88
101302.63
101303.45
101304.3
101305.14
101306.06
101307
101307.98
101309.08
101310.2
101311.32
101312.51
101313.73
101314.9
101316.13
101317.35
101318.52
101319.72
101320.92
101322.08
101323.26
101324.45
101325.62
101326.82
101328.03
101329.21
101330.4
101331.59
101332.73
101333.87
101334.98
101336.05
101337.11
101338.15
101339.17
101340.18
101341.2
101342.21
101343.22
101344.22
101345.21
101346.19
101347.15
101348.1
101349.03
101349.94
101350.84
101351.72
101352.58
101353.41
101354.21
101354.98
101355.73
101356.44
101357.14
101357.82
101358.49
101359.14
101359.77
101360.39
101361
101361.58
101362.13
101362.65
101363.14
101363.6
101364.02
101364.41
101364.77
101365.09
101365.4
101365.64
101365.88
101366.01
101366.16
101635.54
101609.01
101580.63
101552.06
101524.21
101497.57
101472.19
101448.1
101425.35
101403.97
101384
101365.46
101348.34
101332.67
101318.42
101305.59
101294.15
101284.09
101275.36
101267.94
101261.8
101256.9
101253.19
101250.6
101249.07
101248.53
101248.92
101250.14
101252.11
101254.75
101257.95
101261.64
101265.68
101270
101274.59
101279.31
101281.99
101285.37
101291.33
101295.85
101299.01
101301.7
101303.85
101305.46
101306.61
101307.37
101307.83
101308.15
101308.5
101308.69
101308.95
101309.33
101309.56
101309.98
101310.51
101311.06
101311.6
101312.25
101312.92
101313.63
101314.5
101315.4
101316.29
101317.28
101318.3
101319.28
101320.33
101321.38
101322.38
101323.42
101324.46
101325.47
101326.52
101327.58
101328.62
101329.69
101330.78
101331.85
101332.94
101334.02
101335.07
101336.11
101337.14
101338.12
101339.1
101340.06
101341
101341.95
101342.89
101343.84
101344.79
101345.73
101346.66
101347.59
101348.5
101349.4
101350.28
101351.15
101352
101352.84
101353.66
101354.46
101355.22
101355.96
101356.67
101357.36
101358.03
101358.68
101359.32
101359.95
101360.56
101361.16
101361.74
101362.3
101362.84
101363.34
101363.82
101364.26
101364.67
101365.05
101365.4
101365.71
101366.01
101366.24
101366.48
101366.61
101366.76
101649.9
101624.78
101598.14
101571.32
101545.08
101519.88
101495.79
101472.84
101451.07
101430.53
101411.26
101393.28
101376.62
101361.27
101347.24
101334.53
101323.13
101313.01
101304.16
101296.54
101290.14
101284.92
101280.83
101277.82
101275.82
101274.78
101274.62
101275.26
101276.63
101278.63
101281.18
101284.17
101287.5
101291.08
101294.9
101298.59
101300.25
101303.59
101308.64
101311.87
101314.11
101315.88
101317.11
101317.88
101318.27
101318.33
101318.14
101317.91
101317.87
101317.58
101317.46
101317.5
101317.28
101317.39
101317.66
101317.9
101318.14
101318.52
101318.91
101319.34
101320
101320.68
101321.34
101322.12
101322.95
101323.72
101324.59
101325.47
101326.29
101327.17
101328.06
101328.92
101329.82
101330.75
101331.66
101332.61
101333.58
101334.53
101335.52
101336.5
101337.44
101338.4
101339.33
101340.23
101341.12
101342.01
101342.87
101343.74
101344.62
101345.5
101346.38
101347.26
101348.14
101349.02
101349.87
101350.72
101351.56
101352.38
101353.19
101353.99
101354.76
101355.52
101356.25
101356.95
101357.63
101358.29
101358.93
101359.55
101360.17
101360.77
101361.36
101361.94
101362.5
101363.04
101363.55
101364.05
101364.51
101364.93
101365.33
101365.69
101366.03
101366.34
101366.63
101366.86
101367.09
101367.21
101367.36
101662.97
101639.32
101614.38
101589.29
101564.66
101540.92
101518.14
101496.37
101475.64
101456
101437.51
101420.17
101404.03
101389.09
101375.37
101362.87
101351.58
101341.49
101332.58
101324.84
101318.25
101312.77
101308.36
101304.98
101302.57
101301.06
101300.4
101300.49
101301.28
101302.67
101304.57
101306.87
101309.48
101312.34
101315.4
101317.78
101318.63
101321.99
101325.84
101327.83
101329.13
101329.95
101330.27
101330.22
101329.88
101329.25
101328.39
101327.67
101327.27
101326.51
101326.07
101325.71
101325.08
101324.91
101324.89
101324.81
101324.75
101324.87
101324.95
101325.11
101325.56
101326.03
101326.44
101327.01
101327.66
101328.21
101328.91
101329.61
101330.25
101330.98
101331.72
101332.42
101333.18
101333.97
101334.74
101335.57
101336.43
101337.26
101338.14
101339.02
101339.86
101340.72
101341.56
101342.37
101343.18
101343.98
101344.77
101345.57
101346.38
101347.19
101348.01
101348.83
101349.65
101350.47
101351.27
101352.07
101352.86
101353.63
101354.4
101355.15
101355.89
101356.61
101357.3
101357.97
101358.61
101359.24
101359.85
101360.44
101361.03
101361.61
101362.17
101362.73
101363.27
101363.79
101364.29
101364.76
101365.21
101365.62
101366
101366.35
101366.69
101366.98
101367.26
101367.49
101367.71
101367.83
101367.98
101675.06
101652.91
101629.63
101606.24
101583.2
101560.93
101539.49
101518.92
101499.26
101480.58
101462.9
101446.27
101430.71
101416.25
101402.9
101390.66
101379.55
101369.56
101360.67
101352.87
101346.14
101340.46
101335.79
101332.09
101329.3
101327.37
101326.23
101325.81
101326.04
101326.82
101328.07
101329.69
101331.59
101333.73
101336
101336.62
101337.25
101340.54
101342.83
101343.66
101344
101343.87
101343.28
101342.44
101341.39
101340.03
101338.57
101337.48
101336.66
101335.61
101334.73
101333.89
101333.07
101332.53
101332.12
101331.73
101331.41
101331.26
101331.05
101330.96
101331.2
101331.43
101331.6
101331.98
101332.44
101332.76
101333.28
101333.83
101334.27
101334.84
101335.43
101335.97
101336.59
101337.25
101337.88
101338.59
101339.32
101340.04
101340.8
101341.58
101342.32
101343.08
101343.83
101344.55
101345.27
101346
101346.7
101347.43
101348.17
101348.91
101349.67
101350.42
101351.18
101351.95
101352.69
101353.44
101354.18
101354.9
101355.63
101356.34
101357.03
101357.71
101358.37
101359
101359.61
101360.2
101360.78
101361.35
101361.91
101362.46
101363
101363.53
101364.05
101364.55
101365.03
101365.49
101365.92
101366.32
101366.69
101367.03
101367.35
101367.63
101367.91
101368.13
101368.34
101368.47
101368.61
101686.33
101665.71
101644.12
101622.42
101600.99
101580.18
101560.07
101540.71
101522.15
101504.43
101487.61
101471.71
101456.78
101442.84
101429.91
101418
101407.13
101397.28
101388.46
101380.65
101373.84
101368.01
101363.13
101359.15
101356.02
101353.69
101352.1
101351.19
101350.86
101351.05
101351.66
101352.58
101353.74
101355.09
101356.29
101355.6
101356.28
101358.73
101359.52
101359.3
101358.67
101357.59
101356.09
101354.48
101352.7
101350.55
101348.93
101347.57
101346.11
101344.67
101343.38
101342.18
101341.07
101340.17
101339.4
101338.71
101338.12
101337.66
101337.23
101336.97
101336.88
101336.87
101336.83
101337.01
101337.27
101337.36
101337.72
101338.1
101338.35
101338.75
101339.2
101339.57
101340.05
101340.57
101341.06
101341.64
101342.26
101342.85
101343.51
101344.18
101344.81
101345.48
101346.14
101346.76
101347.4
101348.04
101348.67
101349.32
101349.99
101350.66
101351.35
101352.05
101352.74
101353.45
101354.14
101354.83
101355.52
101356.2
101356.88
101357.55
101358.2
101358.84
101359.46
101360.05
101360.63
101361.19
101361.73
101362.27
101362.8
101363.33
101363.85
101364.36
101364.85
101365.33
101365.8
101366.23
101366.64
101367.03
101367.38
101367.71
101368.02
101368.3
101368.56
101368.78
101368.99
101369.11
101369.25
101697.36
101678.15
101658.19
101638.17
101618.31
101598.94
101580.15
101561.99
101544.51
101527.76
101511.79
101496.65
101482.37
101468.98
101456.51
101444.96
101434.36
101424.71
101416
101408.22
101401.37
101395.43
101390.37
101386.14
101382.7
101380
101377.98
101376.58
101375.71
101375.3
101375.26
101375.48
101375.92
101376.44
101376.23
101374.65
101375.35
101376.51
101375.91
101374.66
101373.07
101371.05
101368.61
101366.24
101363.72
101361.39
101359.5
101357.46
101355.53
101353.72
101352.05
101350.51
101349.09
101347.84
101346.74
101345.75
101344.88
101344.13
101343.48
101342.98
101342.62
101342.35
101342.14
101342.13
101342.11
101342.03
101342.23
101342.42
101342.46
101342.72
101343.02
101343.21
101343.55
101343.95
101344.29
101344.74
101345.25
101345.71
101346.26
101346.82
101347.35
101347.91
101348.48
101349.01
101349.57
101350.13
101350.67
101351.24
101351.84
101352.44
101353.06
101353.7
101354.33
101354.98
101355.61
101356.25
101356.89
101357.52
101358.15
101358.78
101359.38
101359.98
101360.56
101361.12
101361.66
101362.19
101362.7
101363.21
101363.72
101364.22
101364.71
101365.19
101365.67
101366.13
101366.57
101366.99
101367.38
101367.75
101368.09
101368.41
101368.71
101368.98
101369.23
101369.44
101369.65
101369.76
101369.9
101708.54
101690.47
101672.08
101653.74
101635.44
101617.48
101599.97
101582.96
101566.53
101550.73
101535.61
101521.22
101507.6
101494.77
101482.78
101471.62
101461.33
101451.89
101443.32
101435.62
101428.76
101422.73
101417.51
101413.06
101409.33
101406.28
101403.84
101401.94
101400.53
101399.51
101398.8
101398.32
101398.06
101397.67
101395.51
101393.77
101394.32
101393.78
101391.91
101389.67
101387.13
101384.1
101380.72
101377.74
101375.06
101372.41
101369.79
101367.3
101364.97
101362.79
101360.75
101358.87
101357.12
101355.55
101354.13
101352.84
101351.68
101350.67
101349.77
101349.02
101348.42
101347.92
101347.51
101347.25
101347.01
101346.81
101346.79
101346.75
101346.64
101346.75
101346.88
101346.9
101347.1
101347.38
101347.56
101347.89
101348.28
101348.61
101349.05
101349.51
101349.92
101350.39
101350.87
101351.3
101351.77
101352.24
101352.7
101353.2
101353.72
101354.25
101354.81
101355.37
101355.95
101356.54
101357.11
101357.7
101358.29
101358.87
101359.45
101360.03
101360.59
101361.15
101361.69
101362.21
101362.72
101363.21
101363.69
101364.17
101364.65
101365.12
101365.59
101366.05
101366.5
101366.94
101367.36
101367.76
101368.14
101368.49
101368.82
101369.12
101369.41
101369.67
101369.91
101370.12
101370.32
101370.43
101370.57
101719.79
101703.51
101686.35
101669.55
101652.74
101636.1
101619.78
101603.85
101588.41
101573.51
101559.21
101545.55
101532.58
101520.32
101508.8
101498.05
101488.07
101478.88
101470.48
101462.85
101456.01
101449.92
101444.56
101439.9
101435.89
101432.48
101429.61
101427.22
101425.25
101423.6
101422.19
101421
101419.99
101418.26
101414.66
101413.09
101412.63
101410.46
101407.44
101404.2
101400.66
101396.49
101392.87
101389.65
101386.32
101383.08
101380
101377.11
101374.4
101371.85
101369.46
101367.24
101365.17
101363.28
101361.54
101359.96
101358.53
101357.25
101356.1
101355.11
101354.27
101353.54
101352.92
101352.42
101351.99
101351.61
101351.37
101351.14
101350.91
101350.83
101350.77
101350.65
101350.72
101350.84
101350.87
101351.08
101351.36
101351.56
101351.88
101352.24
101352.54
101352.9
101353.29
101353.62
101354
101354.39
101354.77
101355.18
101355.63
101356.09
101356.58
101357.08
101357.59
101358.12
101358.64
101359.17
101359.71
101360.23
101360.77
101361.3
101361.82
101362.34
101362.84
101363.32
101363.79
101364.25
101364.7
101365.15
101365.59
101366.04
101366.48
101366.92
101367.34
101367.76
101368.16
101368.55
101368.91
101369.24
101369.56
101369.85
101370.12
101370.37
101370.61
101370.8
101371
101371.11
101371.25
101731.11
101718.95
101702.94
101686.82
101670.87
101655.21
101639.86
101624.88
101610.32
101596.25
101582.71
101569.75
101557.4
101545.69
101534.65
101524.3
101514.65
101505.71
101497.48
101489.96
101483.13
101476.99
101471.5
101466.62
101462.32
101458.55
101455.24
101452.34
101449.77
101447.45
101445.32
101443.39
101441.61
101438.05
101433.71
101432.21
101430.18
101426.5
101422.31
101418.07
101413.51
101409.07
101405.22
101401.19
101397.31
101393.64
101390.17
101386.89
101383.81
101380.9
101378.17
101375.61
101373.23
101371.02
101368.99
101367.12
101365.41
101363.87
101362.47
101361.24
101360.16
101359.2
101358.37
101357.65
101357.02
101356.46
101356.01
101355.59
101355.21
101354.94
101354.7
101354.47
101354.38
101354.33
101354.24
101354.33
101354.47
101354.54
101354.76
101355.01
101355.19
101355.46
101355.75
101355.98
101356.27
101356.58
101356.87
101357.2
101357.57
101357.97
101358.39
101358.82
101359.26
101359.74
101360.19
101360.67
101361.15
101361.63
101362.11
101362.6
101363.07
101363.55
101364.01
101364.45
101364.88
101365.3
101365.72
101366.14
101366.55
101366.97
101367.39
101367.8
101368.2
101368.6
101368.98
101369.34
101369.69
101370.01
101370.31
101370.59
101370.85
101371.09
101371.32
101371.51
101371.69
101371.8
101371.94
101743.7
101734.67
101721.46
101705.28
101689.7
101674.77
101660.24
101646.08
101632.32
101619.01
101606.19
101593.89
101582.13
101570.96
101560.39
101550.43
101541.1
101532.41
101524.35
101516.93
101510.12
101503.91
101498.28
101493.19
101488.59
101484.43
101480.65
101477.19
101473.98
101470.94
101468
101465.18
101462.36
101457.54
101452.94
101450.48
101446.65
101441.69
101436.38
101431.33
101426.52
101421.72
101417.02
101412.49
101408.2
101404.13
101400.27
101396.63
101393.18
101389.93
101386.86
101383.98
101381.29
101378.78
101376.45
101374.3
101372.33
101370.52
101368.88
101367.41
101366.09
101364.91
101363.86
101362.93
101362.09
101361.35
101360.69
101360.09
101359.55
101359.1
101358.69
101358.32
101358.07
101357.86
101357.67
101357.62
101357.61
101357.57
101357.68
101357.82
101357.87
101358.05
101358.25
101358.37
101358.57
101358.8
101359
101359.25
101359.55
101359.87
101360.22
101360.58
101360.97
101361.38
101361.77
101362.19
101362.62
101363.04
101363.48
101363.92
101364.35
101364.78
101365.2
101365.6
101365.99
101366.38
101366.77
101367.15
101367.54
101367.93
101368.32
101368.7
101369.08
101369.46
101369.82
101370.16
101370.48
101370.79
101371.07
101371.34
101371.59
101371.82
101372.04
101372.22
101372.4
101372.51
101372.64
101757.91
101750.86
101737.91
101722.68
101708.3
101694.38
101680.74
101667.4
101654.42
101641.84
101629.69
101618.02
101606.84
101596.17
101586.04
101576.47
101567.45
101558.99
101551.09
101543.75
101536.94
101530.66
101524.87
101519.53
101514.6
101510.02