/*--------------------------------*- C++ -*----------------------------------*\
| =========                 |                                                 |
| \\      /  F ield         | OpenFOAM: The Open Source CFD Toolbox           |
|  \\    /   O peration     | Version:  2406                                  |
|   \\  /    A nd           | Website:  www.openfoam.com                      |
|    \\/     M anipulation  |                                                 |
\*---------------------------------------------------------------------------*/
FoamFile
{
    version     2.0;
    format      ascii;
    arch        "LSB;label=32;scalar=64";
    class       volVectorField;
    location    "0.028";
    object      UMean;
}
// * * * * * * * * * * * * * * * * * * * * * * * * * * * * * * * * * * * * * //

dimensions      [0 1 -1 0 0 0 0];

internalField   nonuniform List<vector> 
92813
(
(39.896211 30.003828 -4.9313738e-21)
(40.75459 29.243637 1.6749264e-20)
(41.572308 28.529638 -1.0214478e-20)
(42.336597 27.848091 -1.038171e-20)
(43.040647 27.174362 -8.6369067e-21)
(43.693946 26.512334 6.9140677e-21)
(44.303112 25.868879 5.404638e-21)
(44.87363 25.248322 0)
(45.411368 24.653223 -3.0258225e-21)
(45.921853 24.084652 -1.1904472e-24)
(46.410217 23.542608 -1.5094899e-21)
(46.88125 23.026345 -1.0299378e-21)
(47.339235 22.534544 0)
(47.787718 22.065328 0)
(48.22723 21.616602 1.3032479e-22)
(48.659234 21.186531 -5.8838986e-26)
(49.083406 20.773347 -1.5997848e-21)
(49.496723 20.375478 -1.7682095e-21)
(49.895626 19.992214 2.4057251e-25)
(50.279077 19.623267 -8.4961106e-21)
(50.646571 19.268659 0)
(50.997242 18.928867 0)
(51.334165 18.60263 0)
(51.659294 18.288658 5.4360837e-21)
(51.973497 17.985817 -1.0728734e-20)
(52.277172 17.692966 -5.3030828e-21)
(52.570399 17.408963 0)
(52.853021 17.13267 0)
(53.124681 16.862943 5.1984427e-21)
(53.384837 16.598634 -1.5576812e-20)
(53.632792 16.338568 -1.0404899e-20)
(53.867677 16.081539 5.2297418e-21)
(54.088367 15.826277 -1.5825176e-20)
(54.293553 15.571552 0)
(54.481897 15.315982 0)
(54.651822 15.058007 -1.6655322e-20)
(54.801321 14.796372 1.1403732e-20)
(54.929539 14.52906 -1.1779878e-20)
(55.033402 14.254056 1.2245081e-20)
(55.107132 13.968998 -3.1920396e-20)
(55.150914 13.676057 -4.7026936e-20)
(55.165488 13.367448 1.4323754e-20)
(55.144765 13.043664 3.8418721e-20)
(55.086534 12.702744 3.3182193e-20)
(54.989655 12.343223 9.0239609e-21)
(54.854188 11.964992 2.9682083e-20)
(54.682317 11.569205 0)
(54.479833 11.15951 0)
(54.25833 10.743731 0)
(54.036947 10.335623 5.826105e-20)
(53.839343 9.9529587 6.2470717e-20)
(53.683064 9.6088153 6.5432247e-20)
(53.570105 9.3038627 1.6799948e-20)
(53.490176 9.0294189 -1.703357e-20)
(53.430557 8.7755427 6.8596238e-20)
(53.381852 8.5352019 -8.599088e-20)
(53.338632 8.3043912 -4.3018107e-20)
(53.298185 8.0810812 3.6268537e-25)
(53.259223 7.8642327 -1.4569521e-19)
(53.221268 7.6532559 0)
(53.184233 7.4478497 1.2745455e-19)
(53.147882 7.2477991 -1.3516929e-19)
(53.112122 7.0528159 8.3911091e-21)
(53.077008 6.8627079 1.4157803e-19)
(53.04244 6.6773616 1.2388179e-19)
(53.008255 6.4965342 8.1840952e-21)
(52.974544 6.3200539 1.1346469e-19)
(52.941391 6.1478198 2.5665729e-19)
(52.908592 5.9796915 1.5869649e-20)
(52.876265 5.81547 -7.8416494e-21)
(52.844455 5.6551023 1.3170764e-19)
(52.812962 5.4984352 -1.5301884e-20)
(52.781922 5.3453124 1.2838299e-19)
(52.751397 5.1956778 1.2666845e-19)
(52.721198 5.0494038 1.9655545e-25)
(52.691458 4.9063546 2.3184791e-19)
(52.662217 4.7664687 -7.1403352e-21)
(52.633328 4.629637 2.1808724e-19)
(52.60491 4.4957418 1.3857962e-20)
(52.576973 4.3647185 -6.8225183e-21)
(52.549431 4.2364686 -2.1491337e-19)
(52.522382 4.1108952 0)
(52.4958 3.9879276 -2.1459464e-19)
(52.469658 3.8674759 -1.983026e-19)
(52.444023 3.7494607 3.1648957e-24)
(52.418844 3.6338023 0)
(52.394135 3.5204281 -1.8855269e-19)
(52.369938 3.4092562 -5.9786409e-21)
(52.346185 3.3002179 2.5220467e-24)
(52.322929 3.1932405 0)
(52.300178 3.0882464 0)
(52.277883 2.9851781 -3.5670316e-19)
(52.256099 2.883953 -4.0294058e-24)
(52.234818 2.7845128 -5.3769482e-21)
(52.214013 2.6867879 1.0561574e-20)
(52.193727 2.5907095 3.2150545e-19)
(52.173948 2.4962143 3.2582953e-19)
(52.154664 2.4032363 -3.1493389e-19)
(52.135903 2.3117105 0)
(52.117654 2.2215679 -3.0830838e-19)
(52.099917 2.1327531 0)
(52.082706 2.0451859 2.9236539e-19)
(52.066014 1.9588171 4.5541357e-21)
(52.049849 1.8735703 0)
(52.03421 1.7893835 -2.8066768e-19)
(52.019098 1.7061904 0)
(52.004519 1.6239202 2.7015647e-19)
(51.990483 1.5425007 -2.6719404e-19)
(51.976992 1.4618635 4.0643119e-21)
(51.964053 1.3819329 -1.9937756e-21)
(51.951673 1.3026384 0)
(51.939856 1.2238938 0)
(51.928609 1.1456265 4.7993002e-19)
(51.917943 1.0677406 -1.3544882e-26)
(51.907863 0.99016086 -4.6175462e-19)
(51.898385 0.91277569 0)
(51.889507 0.83551395 2.4409976e-24)
(51.881256 0.75822992 0)
(51.873609 0.68088499 -4.2886898e-19)
(51.866646 0.60324255 -2.1843853e-24)
(51.860285 0.52538863 0)
(51.854714 0.44681917 -4.0411787e-19)
(51.849698 0.36802138 3.9628484e-19)
(51.845684 0.28778751 0)
(51.842176 0.20764945 0)
(51.840065 0.12483391 3.738209e-19)
(51.83843 0.042823104 -3.6298116e-19)
(39.174704 29.5221 -6.0444805e-21)
(40.095035 28.792238 -1.7422774e-20)
(40.930492 28.141786 0)
(41.705364 27.515059 -1.0415834e-20)
(42.429889 26.896986 1.9792268e-20)
(43.109797 26.289585 -9.433247e-21)
(43.749399 25.697503 6.6186718e-24)
(44.35274 25.123801 0)
(44.924025 24.570463 8.2888064e-21)
(45.467511 24.038652 1.5936092e-20)
(45.987403 23.528794 -2.1422301e-24)
(46.487754 23.040637 1.4832531e-20)
(46.972221 22.573266 0)
(47.443636 22.125099 -6.9544429e-21)
(47.903375 21.694265 1.3502935e-20)
(48.352114 21.279043 -2.9819546e-24)
(48.789482 20.877898 6.3924663e-21)
(49.21402 20.489628 6.2374625e-21)
(49.624053 20.113772 0)
(50.018848 19.750373 0)
(50.398241 19.39952 5.8577571e-21)
(50.762328 19.061326 1.1152924e-24)
(51.112393 18.735345 -5.6688748e-21)
(51.449607 18.420782 -5.5907039e-21)
(51.774715 18.116651 1.1051112e-20)
(52.088118 17.821888 -5.4758486e-21)
(52.389932 17.535408 5.4367459e-21)
(52.680044 17.256118 1.0825396e-20)
(52.958132 16.982913 -5.4015545e-21)
(53.223692 16.71467 1.6217485e-20)
(53.476044 16.450235 -5.4270778e-21)
(53.714319 16.188413 5.4664709e-21)
(53.93743 15.927894 -1.1046882e-20)
(54.144091 15.667484 5.6029281e-21)
(54.332931 15.405782 -1.712605e-20)
(54.502362 15.141209 2.3376772e-20)
(54.650513 14.872356 0)
(54.775962 14.597515 1.2448598e-20)
(54.875416 14.31422 6.4814525e-21)
(54.945168 14.018479 2.7071345e-20)
(54.984272 13.717053 -1.4274904e-20)
(54.991891 13.397698 7.6211591e-21)
(54.963383 13.063065 -2.4540027e-20)
(54.897244 12.710585 -8.8375094e-21)
(54.792549 12.339226 3.846684e-20)
(54.650026 11.949306 0)
(54.473009 11.542643 0)
(54.26911 11.124041 3.8329498e-20)
(54.052481 10.703264 7.0102658e-20)
(53.844396 10.296306 -1.5185397e-20)
(53.667537 9.9211199 -4.8319371e-20)
(53.534273 9.5873352 -6.6832332e-20)
(53.441039 9.2913949 0)
(53.375471 9.022868 0)
(53.325723 8.772253 -6.911562e-20)
(53.284055 8.5335455 5.188599e-20)
(53.246309 8.3035269 8.6380648e-20)
(53.210504 8.0806212 0)
(53.175701 7.8640012 1.7168339e-20)
(53.141602 7.6531756 -1.7084691e-20)
(53.108208 7.4478906 1.6985708e-20)
(53.075281 7.2479474 1.1809453e-19)
(53.042757 7.0530542 -1.4232149e-19)
(53.010723 6.8630277 8.3069531e-21)
(52.979073 6.6777636 -2.5502041e-19)
(52.947644 6.4970041 1.303456e-19)
(52.916563 6.320591 -2.5798691e-19)
(52.885921 6.1484222 -1.3555331e-19)
(52.855495 5.9803554 -1.261157e-19)
(52.825437 5.8161918 1.3239599e-19)
(52.795791 5.6558813 -1.5381518e-20)
(52.766346 5.4992658 7.5914485e-21)
(52.737267 5.346193 0)
(52.708614 5.1966059 0)
(52.68019 5.0503748 -2.3308791e-19)
(52.65215 4.907367 -2.297262e-19)
(52.624532 4.7675181 7.0734397e-21)
(52.597183 4.63072 -2.2991612e-19)
(52.570241 4.4968561 2.1954622e-19)
(52.543712 4.3658591 6.7541813e-21)
(52.517511 4.237633 -6.6474649e-21)
(52.491746 4.1120803 0)
(52.466388 3.9891286 -2.1235577e-19)
(52.441413 3.8686908 2.0253748e-19)
(52.416895 3.7506859 -1.9295399e-19)
(52.392779 3.6350332 0)
(52.369086 3.5216637 -2.8963792e-24)
(52.345859 3.4104918 0)
(52.323032 3.3014505 -1.8597658e-19)
(52.30066 3.1944686 0)
(52.278753 3.0894656 1.7955792e-19)
(52.257262 2.9863867 1.7639717e-19)
(52.236247 2.8851487 6.9310314e-19)
(52.215699 2.7856925 5.3185046e-21)
(52.195593 2.6879498 3.2906846e-19)
(52.175974 2.5918517 -6.5655101e-19)
(52.156831 2.4973344 5.0395724e-21)
(52.138154 2.4043328 3.0660071e-19)
(52.11997 2.3127817 -3.0587044e-19)
(52.102271 2.2226119 3.0503726e-19)
(52.085058 2.133769 0)
(52.068345 2.0461736 2.5185421e-24)
(52.052128 1.9597759 0)
(52.036413 1.8744977 0)
(52.021202 1.7902776 0)
(52.006496 1.7070476 2.7266955e-19)
(51.992302 1.6247403 2.0897796e-21)
(51.97863 1.5432859 -2.0511064e-21)
(51.965483 1.4626127 2.5964861e-19)
(51.952869 1.3826451 -5.0757074e-19)
(51.940795 1.3033125 1.9377358e-21)
(51.929266 1.2245297 4.8669609e-19)
(51.918288 1.146223 -1.8651442e-21)
(51.907874 1.0682977 0)
(51.898028 0.99067759 4.6132666e-19)
(51.888768 0.91325194 -3.5217737e-21)
(51.880089 0.83594894 -8.8266356e-19)
(51.872023 0.75862428 0)
(51.864542 0.68123755 -2.2900402e-24)
(51.857729 0.60355344 4.1809171e-19)
(51.8515 0.52565485 -7.9940633e-22)
(51.846046 0.44704471 4.0144464e-19)
(51.841126 0.36819894 -7.8740664e-19)
(51.837195 0.28792538 0)
(51.833749 0.20773594 0)
(51.831678 0.1248616 -8.8766105e-23)
(51.83006 0.042832889 8.8015289e-23)
(38.426016 28.893741 -1.4181191e-23)
(39.332596 28.253772 -1.0623131e-20)
(40.182619 27.685496 -5.0566798e-21)
(40.980482 27.126492 4.8221074e-21)
(41.731932 26.569757 9.2302603e-21)
(42.441174 26.019486 -8.8470867e-21)
(43.111799 25.480082 -8.4970676e-21)
(43.747262 24.95423 -8.1737813e-21)
(44.351071 24.443768 3.1246361e-24)
(44.926783 23.949958 0)
(45.477947 23.473479 1.5625948e-24)
(46.007997 23.014407 -7.4439865e-25)
(46.520067 22.572216 1.0532492e-24)
(47.016663 22.145814 -6.732941e-21)
(47.499314 21.733832 1.3111194e-20)
(47.968742 21.3349 -1.278509e-20)
(48.424864 20.947745 1.2487611e-20)
(48.866912 20.571419 0)
(49.293871 20.205559 -5.9835482e-21)
(49.705177 19.850214 -5.872193e-21)
(50.100706 19.505504 -7.312751e-25)
(50.480642 19.171565 -5.6840465e-21)
(50.845718 18.848279 5.6078303e-21)
(51.196803 18.535147 -1.1091913e-20)
(51.534576 18.231401 0)
(51.859451 17.936134 0)
(52.171589 17.648379 1.0851958e-20)
(52.47092 17.367126 -1.0821117e-20)
(52.757168 17.09133 -5.4115937e-21)
(53.029862 16.819913 -5.4257295e-21)
(53.288346 16.551752 1.0916222e-20)
(53.531765 16.285671 -1.1017336e-20)
(53.759067 16.020358 1.6737864e-20)
(53.968983 15.754629 5.6739007e-21)
(54.160117 15.487048 1.7378931e-20)
(54.330868 15.216032 2.726074e-24)
(54.479413 14.940057 6.1344723e-21)
(54.603976 14.657572 -6.362514e-21)
(54.701157 14.365627 -6.6442081e-21)
(54.768864 14.060965 -2.782135e-20)
(54.805235 13.749875 2.9427311e-20)
(54.80791 13.419648 -3.1531082e-20)
(54.773953 13.07413 3.392245e-20)
(54.70226 12.7102 0)
(54.59225 12.327369 5.0055524e-20)
(54.445393 11.926477 8.7871879e-25)
(54.266238 11.510254 4.8320579e-20)
(54.064321 11.085051 -1.1959066e-19)
(53.856197 10.662916 -1.015618e-19)
(53.664285 10.261536 8.7692533e-25)
(53.508579 9.8972113 -1.6381143e-20)
(53.395873 9.5748465 5.0578592e-20)
(53.318701 9.2873623 8.5579802e-20)
(53.264372 9.0238818 0)
(53.222514 8.7759622 6.9108777e-20)
(53.186831 8.5386694 4.0846073e-24)
(53.154064 8.3094402 1.7245532e-20)
(53.122684 8.0870347 1.2033801e-19)
(53.091948 7.8707655 0)
(53.061657 7.6602061 0)
(53.031882 7.455132 1.6918141e-20)
(53.002368 7.2553585 -1.6796396e-20)
(52.973069 7.0605905 2.4994381e-19)
(52.944111 6.8706512 -1.1562145e-19)
(52.915382 6.68545 1.6357326e-20)
(52.886713 6.5047166 -1.619276e-20)
(52.858264 6.3283079 -4.6063427e-24)
(52.830138 6.1561189 0)
(52.802092 5.9880124 -7.830023e-21)
(52.774305 5.8237894 -1.1601148e-19)
(52.74683 5.6634022 -7.6361758e-21)
(52.719441 5.5066941 7.5359227e-21)
(52.692327 5.3535167 1.2638393e-19)
(52.665554 5.2038109 1.8494497e-25)
(52.638913 5.0574511 2.3125254e-19)
(52.612577 4.9143072 -7.121472e-21)
(52.586588 4.7743111 -7.0157912e-21)
(52.560788 4.6373608 6.9094341e-21)
(52.535326 4.5033398 -2.1769528e-19)
(52.510212 4.3721785 0)
(52.485357 4.2437862 -6.590202e-21)
(52.460879 4.1180646 -1.3478424e-25)
(52.43675 3.9949396 6.3740601e-21)
(52.412946 3.8743292 -1.9446287e-19)
(52.389548 3.7561504 -6.168271e-21)
(52.3665 3.640322 6.0644872e-21)
(52.343827 3.5267794 1.9076155e-19)
(52.321574 3.4154333 -1.1718227e-20)
(52.299675 3.306219 -1.7849521e-19)
(52.27819 3.1990671 0)
(52.25713 3.0938936 -1.7786876e-19)
(52.236446 2.9906477 0)
(52.216201 2.889245 -5.3593274e-21)
(52.196389 2.7896257 5.2677011e-21)
(52.176985 2.6917232 -3.3108598e-19)
(52.158034 2.5954682 6.5023149e-19)
(52.139529 2.5007962 -3.2420298e-19)
(52.121459 2.4076436 9.7945838e-21)
(52.103854 2.3159445 3.028948e-19)
(52.086707 2.2256292 -3.0206651e-19)
(52.070019 2.1366448 -4.6326967e-21)
(52.053806 2.04891 -2.9103789e-19)
(52.038064 1.9623763 -2.7672729e-19)
(52.022801 1.8769653 -8.7609615e-21)
(52.008018 1.7926159 4.2989274e-21)
(51.993719 1.7092605 -2.699866e-19)
(51.979911 1.6268305 0)
(51.966604 1.5452547 2.0309248e-21)
(51.953802 1.464463 -2.5706653e-19)
(51.941515 1.3843803 -3.4003639e-24)
(51.929747 1.304935 0)
(51.918507 1.226042 -4.8185375e-19)
(51.9078 1.1476277 4.7273466e-19)
(51.897638 1.0695967 4.6376388e-19)
(51.888028 0.99187329 -4.5494343e-19)
(51.878985 0.9143465 -4.4454958e-19)
(51.870509 0.83694361 -2.4854983e-24)
(51.862626 0.75952145 -2.5160791e-21)
(51.855313 0.68203704 4.2113607e-19)
(51.848651 0.60425935 8.0685484e-22)
(51.842555 0.52626455 0)
(51.837218 0.44756345 0)
(51.832396 0.36862117 3.8977064e-19)
(51.828548 0.28825945 3.8220952e-19)
(51.825164 0.20797088 0)
(51.823133 0.12499956 -7.3479207e-19)
(51.821533 0.042886657 0)
(37.79635 28.227504 9.9870199e-21)
(38.685374 27.671643 -9.766222e-21)
(39.535636 27.181732 4.6757875e-21)
(40.343856 26.693245 0)
(41.111394 26.200833 -8.6325863e-21)
(41.840514 25.709402 1.6637576e-20)
(42.533687 25.223594 8.0253131e-21)
(43.193515 24.746225 -7.7609125e-21)
(43.822758 24.279263 0)
(44.424286 23.824155 7.2834847e-21)
(45.001006 23.38183 0)
(45.555754 22.95268 -6.8755275e-21)
(46.091132 22.536568 1.0362037e-24)
(46.609285 22.132894 -6.5261014e-21)
(47.111693 21.740777 0)
(47.599193 21.35925 0)
(48.071992 20.98739 9.5940157e-25)
(48.529752 20.624518 -5.9808259e-21)
(48.971905 20.270344 5.8748358e-21)
(49.398057 19.924887 5.7788244e-21)
(49.808087 19.58827 -8.178343e-25)
(50.202131 19.260635 0)
(50.580689 18.941972 -5.5563164e-21)
(50.944407 18.63198 5.5008357e-21)
(51.293836 18.330103 5.4645299e-21)
(51.629342 18.035617 5.4342369e-21)
(51.951078 17.747694 -2.167247e-20)
(52.258988 17.465429 0)
(52.552813 17.187858 -5.4264653e-21)
(52.832104 16.913958 5.4525848e-21)
(53.096218 16.642652 -1.6491585e-20)
(53.344304 16.37278 5.5590927e-21)
(53.575321 16.103073 0)
(53.788024 15.832312 -1.7249745e-20)
(53.980984 15.55905 -5.8878177e-21)
(54.152576 15.281693 -6.0544484e-21)
(54.300974 14.998639 -2.5052262e-20)
(54.424174 14.708477 2.6066242e-20)
(54.519138 14.406974 6.9746314e-25)
(54.583918 14.095476 -3.571034e-20)
(54.616998 13.773365 0)
(54.614461 13.432239 3.2649468e-20)
(54.574969 13.075746 -3.5197401e-20)
(54.497699 12.700472 0)
(54.382608 12.306541 -5.2118463e-20)
(54.232066 11.895425 1.1435951e-20)
(54.052091 11.471006 -6.2871836e-20)
(53.854424 11.041517 8.272302e-20)
(53.657888 10.621313 1.0469662e-19)
(53.484892 10.228687 0)
(53.351319 9.876646 4.9750004e-20)
(53.258438 9.565235 1.6965602e-20)
(53.19609 9.2850799 -1.715335e-20)
(53.152081 9.0257344 1.7240262e-20)
(53.117631 8.7799789 1.7262606e-20)
(53.087745 8.5438338 -1.7241725e-20)
(53.05991 8.3152622 0)
(53.032971 8.0932834 7.5215668e-24)
(53.006337 7.8773095 1.7056248e-20)
(52.979901 7.6669675 -1.6956525e-20)
(52.953797 7.4620542 0)
(52.927744 7.2623993 1.6715406e-20)
(52.901721 7.0677051 -2.817881e-19)
(52.87589 6.8778009 -1.6425763e-20)
(52.850131 6.6926131 1.6260137e-20)
(52.82427 6.5118569 -1.1267874e-19)
(52.798502 6.335409 -1.5925911e-20)
(52.772941 6.1631583 -1.2591184e-19)
(52.74732 5.9949748 0)
(52.721852 5.8306604 0)
(52.696595 5.670168 0)
(52.671306 5.5133435 -1.1217992e-19)
(52.6462 5.3600435 3.5072511e-24)
(52.621351 5.2102044 -7.2723957e-21)
(52.596533 5.0637057 0)
(52.571942 4.9204205 -2.2600376e-19)
(52.547623 4.7802751 -6.9566617e-21)
(52.523409 4.6431742 2.260654e-19)
(52.499466 4.5090016 -6.7440885e-21)
(52.475802 4.3776838 -2.0576957e-19)
(52.45233 4.2491362 -2.0901058e-19)
(52.429173 4.123259 0)
(52.406306 3.9999761 4.1081114e-19)
(52.383706 3.8792105 1.8645829e-19)
(52.361458 3.7608767 6.1112218e-21)
(52.339509 3.6448926 -1.9225408e-19)
(52.317884 3.5311985 -1.8897262e-19)
(52.296634 3.4197003 0)
(52.275691 3.3103358 1.7679363e-19)
(52.255119 3.2030375 5.6034074e-21)
(52.23493 3.0977172 0)
(52.215078 2.9943282 1.6763496e-19)
(52.195627 2.8927847 -3.2929991e-19)
(52.176573 2.793026 7.6315748e-26)
(52.157891 2.6949875 3.2784346e-19)
(52.13963 2.598599 -6.488495e-19)
(52.121783 2.5037954 0)
(52.104339 2.4105144 3.1032217e-19)
(52.087331 2.3186894 0)
(52.070753 2.2282504 2.9437952e-19)
(52.054606 2.1391456 9.1729984e-21)
(52.038909 2.0512922 -4.5018903e-21)
(52.023658 1.9646431 -2.4405609e-24)
(52.008861 1.8791187 -2.7753012e-19)
(51.994521 1.7946584 -2.6810341e-19)
(51.980642 1.7111943 -4.1759352e-21)
(51.967232 1.6286585 0)
(51.954302 1.5469788 0)
(51.941856 1.4660855 -2.524779e-19)
(51.929905 1.3859031 4.9548476e-19)
(51.918455 1.3063606 0)
(51.907512 1.2273718 0)
(51.897084 1.1488639 -4.6973453e-19)
(51.887183 1.0707411 -9.1626717e-19)
(51.877816 0.9929271 1.7589755e-21)
(51.868999 0.91531166 8.8344403e-19)
(51.86073 0.83782121 8.649102e-19)
(51.853037 0.76031333 -4.2500829e-19)
(51.845897 0.6827427 0)
(51.83939 0.60488235 -7.9860712e-22)
(51.833433 0.5268024 -4.0027004e-19)
(51.828216 0.44802096 0)
(51.823495 0.36899243 0)
(51.819732 0.28855275 -3.779376e-19)
(51.816414 0.20817513 -5.4333813e-22)
(51.814423 0.12511497 3.6381582e-19)
(51.812843 0.042932191 0)
(37.259959 27.544003 4.5820838e-21)
(38.130809 27.064348 9.019529e-21)
(38.973499 26.646019 -4.3471674e-21)
(39.783157 26.225046 8.387837e-21)
(40.558551 25.79586 -8.1066011e-21)
(41.30006 25.36288 -7.8460424e-21)
(42.008882 24.930592 0)
(42.686676 24.50186 -1.038073e-24)
(43.335417 24.078775 7.1731679e-21)
(43.95729 23.662955 3.2668773e-24)
(44.554584 23.255559 6.7995937e-21)
(45.129573 22.857273 6.6293233e-21)
(45.684372 22.468327 1.6940915e-24)
(46.220783 22.088554 6.3323731e-21)
(46.740153 21.717511 6.1991652e-21)
(47.243346 21.354628 -4.2669731e-25)
(47.73074 20.999331 -5.9660218e-21)
(48.202306 20.651192 9.6607232e-25)
(48.657798 20.310022 8.9890717e-25)
(49.096999 19.975844 -5.6916043e-21)
(49.519834 19.648783 -8.0264469e-26)
(49.926411 19.328973 5.5595863e-21)
(50.31707 19.016451 -2.3928938e-25)
(50.692256 18.711044 1.6401515e-20)
(51.052372 18.412363 -1.6314393e-20)
(51.397697 18.119849 -1.084387e-20)
(51.728341 17.83281 1.6246048e-20)
(52.044229 17.550454 0)
(52.345099 17.271903 0)
(52.630499 16.9962 1.6456741e-20)
(52.899784 16.722321 -5.5432256e-21)
(53.152102 16.449124 -5.6175737e-21)
(53.386401 16.175393 -2.2856552e-20)
(53.601444 15.89988 5.8361589e-21)
(53.795775 15.621123 1.7968356e-20)
(53.967732 15.337528 6.1772127e-21)
(54.115451 15.047483 -1.2813464e-20)
(54.236743 14.749636 -6.6818547e-21)
(54.329264 14.43872 -2.7958542e-20)
(54.390698 14.119811 3.6811166e-20)
(54.419562 13.786369 7.8684093e-21)
(54.411523 13.434559 -8.4658594e-21)
(54.366355 13.066977 0)
(54.28349 12.680469 9.9393261e-21)
(54.163638 12.275812 -1.0862616e-20)
(54.010287 11.855283 0)
(53.831234 11.424202 5.2330423e-20)
(53.640637 10.992973 -1.4279084e-20)
(53.459089 10.577958 -3.0738562e-20)
(53.307479 10.196629 -1.6211777e-20)
(53.196441 9.8574981 0)
(53.122329 9.5562875 -8.5225751e-20)
(53.073531 9.2825102 -3.4365354e-20)
(53.038968 9.0266754 3.4475353e-20)
(53.011481 8.7827852 -5.1720143e-20)
(52.987214 8.5476883 -6.8835687e-20)
(52.964268 8.3197711 0)
(52.941784 8.0982589 7.6275993e-24)
(52.919288 7.8826336 1.6990572e-20)
(52.896753 7.6725714 -1.3507192e-19)
(52.874371 7.4678812 -1.6762336e-20)
(52.851828 7.2684065 -1.3303573e-19)
(52.829126 7.0738477 1.3187147e-19)
(52.806472 6.8840382 -1.3063633e-19)
(52.78373 6.6989228 2.5863978e-19)
(52.76072 6.5181995 -1.2794665e-19)
(52.737677 6.3417699 1.265087e-19)
(52.714726 6.1695105 1.2502396e-19)
(52.69157 6.0013021 -1.0806444e-19)
(52.66846 5.8369477 -1.5241725e-20)
(52.645459 5.6763974 -1.2033897e-19)
(52.622306 5.519502 1.1871206e-19)
(52.599244 5.366124 -1.3169951e-19)
(52.576352 5.216192 7.2123837e-21)
(52.55339 5.0695931 7.1077092e-21)
(52.530575 4.9262039 2.2406972e-19)
(52.507956 4.7859423 0)
(52.485356 4.6487226 -2.1728188e-19)
(52.462958 4.5144284 6.6839636e-21)
(52.440771 4.3829806 2.1048578e-19)
(52.418705 4.2543029 2.0709856e-19)
(52.396893 4.1282935 -6.3663259e-21)
(52.375311 4.0048732 -4.0070521e-19)
(52.353936 3.8839718 1.9702697e-19)
(52.332861 3.7655004 0)
(52.312029 3.6493761 1.9041506e-19)
(52.291472 3.5355451 1.8130366e-19)
(52.271241 3.4239073 5.7474698e-21)
(52.251271 3.3144039 1.7507432e-19)
(52.231628 3.2069695 5.5485219e-21)
(52.212327 3.1015113 0)
(52.193321 2.997987 2.2530508e-24)
(52.174679 2.8963099 5.2585639e-21)
(52.156395 2.7964179 -3.3567701e-19)
(52.138449 2.6982486 -6.4911186e-19)
(52.12089 2.6017312 3.2364803e-19)
(52.103711 2.5067999 -4.8887315e-21)
(52.086906 2.4133938 -6.1435711e-19)
(52.070506 2.3214457 2.9684136e-19)
(52.054507 2.2308851 9.2502622e-21)
(52.038911 2.1416618 5.2152409e-26)
(52.023739 2.0536913 4.9531743e-26)
(52.008986 1.9669275 2.7550905e-19)
(51.994663 1.8812906 2.7896745e-19)
(51.980774 1.7967201 -4.2139713e-21)
(51.967322 1.7131478 2.6450771e-19)
(51.954317 1.6305057 -2.0273812e-21)
(51.94177 1.5487222 2.5863411e-19)
(51.929688 1.4677272 4.9580045e-19)
(51.918079 1.3874446 3.8308364e-21)
(51.906951 1.307804 -3.7584909e-21)
(51.896311 1.228719 -1.3785284e-26)
(51.886167 1.1501166 -4.630324e-19)
(51.876532 1.071901 4.5601429e-19)
(51.867412 0.99399594 -4.4560566e-19)
(51.858824 0.91629086 -4.3711124e-19)
(51.850767 0.83871164 2.5373945e-24)
(51.843267 0.76111694 4.2056146e-19)
(51.836304 0.68345974 0)
(51.829955 0.605515 4.046083e-19)
(51.824138 0.52734856 3.9762627e-19)
(51.819043 0.44848609 2.6186755e-27)
(51.814426 0.36936974 -3.824801e-19)
(51.810748 0.288851 0)
(51.807497 0.20838356 -3.6706256e-19)
(51.805548 0.12523365 8.7846422e-23)
(51.803989 0.042979665 -8.541239e-23)
(36.802756 26.846002 0)
(37.656234 26.441038 -4.1840466e-21)
(38.487758 26.08932 8.1113261e-21)
(39.293079 25.731576 -7.8683904e-21)
(40.069757 25.362713 -1.527247e-20)
(40.81693 24.986298 2.227303e-20)
(41.534835 24.606324 7.2229349e-21)
(42.224336 24.225533 -1.4074151e-20)
(42.886712 23.846048 6.8609483e-21)
(43.523513 23.4696 -1.339762e-20)
(44.136451 23.097529 -1.309397e-20)
(44.727275 22.730765 6.4065926e-21)
(45.297656 22.369847 -1.2547003e-20)
(45.849062 22.014972 0)
(46.382657 21.666077 0)
(46.899252 21.322944 0)
(47.399303 20.985314 0)
(47.882958 20.652985 0)
(48.350173 20.325889 -1.1355655e-20)
(48.800864 20.004088 -1.1222839e-20)
(49.235006 19.687717 -5.553643e-21)
(49.652686 19.376917 -5.503285e-21)
(50.054123 19.071752 -1.0932329e-20)
(50.439605 18.772134 0)
(50.809398 18.477799 -5.4193738e-21)
(51.16368 18.188319 1.6237594e-20)
(51.502494 17.903124 0)
(51.825723 17.621531 0)
(52.133076 17.342747 5.4735914e-21)
(52.424081 17.065886 -5.5213456e-21)
(52.698076 16.789976 1.1184921e-20)
(52.954194 16.513897 1.1363194e-20)
(53.191361 16.236484 -2.3013127e-24)
(53.408324 15.956485 0)
(53.603606 15.6724 -1.2207018e-20)
(53.775509 15.382646 0)
(53.922106 15.085712 1.9689802e-20)
(54.04103 14.780093 6.6177386e-25)
(54.130749 14.459924 -1.1007014e-24)
(54.188492 14.132792 3.8049261e-20)
(54.212501 13.788034 -3.2636107e-20)
(54.198786 13.425708 -3.517849e-20)
(54.147895 13.046917 0)
(54.059624 12.649352 0)
(53.935611 12.23446 0)
(53.780727 11.805562 -3.7274498e-20)
(53.604871 11.369739 -6.799075e-20)
(53.424637 10.939744 -1.4755917e-20)
(53.261446 10.533207 -4.7242452e-20)
(53.133003 10.165162 0)
(53.044139 9.8389985 0)
(52.987395 9.5471065 6.8394947e-20)
(52.950863 9.2789033 0)
(52.92496 9.026137 -8.6108688e-20)
(52.904062 8.7839501 1.720325e-20)
(52.885273 8.5498937 1.7165861e-20)
(52.867186 8.322691 5.1305785e-20)
(52.849174 8.1017328 -1.3614054e-19)
(52.830849 7.8865469 1.353539e-19)
(52.812253 7.6768605 1.1763013e-19)
(52.793638 7.4724832 1.6677011e-20)
(52.774644 7.273273 1.4883837e-19)
(52.755303 7.0789307 1.3110715e-19)
(52.735867 6.8892906 -1.6233659e-20)
(52.71618 6.7043178 -1.2847732e-19)
(52.696059 6.5236911 2.541523e-19)
(52.67578 6.3473436 1.4132342e-19)
(52.655475 6.1751311 -1.5513875e-20)
(52.63482 6.0069503 2.6045872e-19)
(52.614103 5.8426067 3.55599e-25)
(52.593393 5.682043 8.9532273e-20)
(52.572407 5.5251185 1.3246613e-19)
(52.551422 5.3717031 0)
(52.530518 5.2217133 0)
(52.509442 5.0750474 0)
(52.488432 4.9315864 0)
(52.46754 4.7912365 0)
(52.446582 4.6539246 0)
(52.425755 4.519534 2.053054e-19)
(52.405071 4.3879784 6.5167294e-21)
(52.384435 4.259192 2.0516278e-19)
(52.363993 4.1330702 0)
(52.343718 4.0095302 1.9843119e-19)
(52.323591 3.8885103 3.5968453e-24)
(52.303708 3.7699171 5.9946644e-21)
(52.284014 3.6536668 -5.8922933e-21)
(52.264544 3.5397127 -1.9110416e-19)
(52.245352 3.427948 1.138118e-20)
(52.226374 3.3183173 -1.1179809e-20)
(52.207677 3.210758 1.0985979e-20)
(52.18928 3.1051719 -1.7266824e-19)
(52.171137 3.001522 2.3494859e-24)
(52.153318 2.8997203 -5.2050754e-21)
(52.135821 2.799703 3.2202645e-19)
(52.118624 2.7014107 3.2625081e-19)
(52.101781 2.6047718 0)
(52.085285 2.5097192 3.0966068e-19)
(52.069129 2.4161944 2.9925142e-19)
(52.053349 2.324129 4.6659481e-21)
(52.03794 2.2334523 0)
(52.022907 2.1441156 -4.4924641e-21)
(52.00827 2.0560327 -2.777882e-19)
(51.994027 1.9691588 0)
(51.980187 1.8834135 -2.7604468e-19)
(51.966757 1.7987366 8.3328278e-21)
(51.953742 1.7150596 -5.3162891e-19)
(51.94115 1.6323152 4.0121568e-21)
(51.928995 1.5504301 -2.5196016e-19)
(51.917282 1.4693366 -2.4721296e-19)
(51.906022 1.3889568 -4.8516448e-19)
(51.895224 1.3092206 0)
(51.884893 1.2300416 0)
(51.87504 1.1513471 4.5632925e-19)
(51.865675 1.0730407 4.5117322e-19)
(51.856808 0.99504629 4.4258144e-19)
(51.848453 0.91725371 4.2908605e-19)
(51.840612 0.83958714 -4.2254614e-19)
(51.83331 0.76190755 1.6252427e-21)
(51.826527 0.68416463 -7.969677e-22)
(51.820339 0.60613767 -8.0059732e-19)
(51.814666 0.52788616 -7.6683307e-22)
(51.809695 0.44894374 -3.8505839e-19)
(51.805184 0.36974106 7.5496113e-19)
(51.801593 0.28914459 3.706639e-19)
(51.79841 0.20858856 7.2628844e-19)
(51.796503 0.12535008 3.5606988e-19)
(51.794967 0.04302698 3.4602431e-19)
(36.420224 26.141163 0)
(37.256851 25.810409 -3.9021374e-21)
(38.074929 25.520974 1.5194999e-20)
(38.871481 25.221895 -1.1102393e-20)
(39.643915 24.909583 7.2182639e-21)
(40.390815 24.586815 -7.0433346e-21)
(41.111823 24.256966 -6.8793037e-21)
(41.807218 23.922559 1.3448084e-20)
(42.477698 23.585666 -6.5803669e-21)
(43.124259 23.248059 6.4436133e-21)
(43.748089 22.911188 1.8946182e-20)
(44.35046 22.576161 -1.8589278e-20)
(44.932628 22.243756 1.8257644e-20)
(45.495737 21.914455 -5.9841954e-21)
(46.040737 21.588499 0)
(46.568334 21.265972 0)
(47.078982 20.946876 1.1741673e-24)
(47.572905 20.631214 5.6548023e-21)
(48.050167 20.319042 5.5913309e-21)
(48.510761 20.010483 5.5363324e-21)
(48.954687 19.7057 5.4910552e-21)
(49.382006 19.404847 5.4556885e-21)
(49.792848 19.108014 -1.0860919e-20)
(50.187374 18.815174 1.6237605e-20)
(50.565728 18.52615 5.4072726e-21)
(50.927984 18.240618 5.4111691e-21)
(51.274104 17.958115 0)
(51.603911 17.678048 0)
(51.917068 17.399708 1.6523482e-20)
(52.213064 17.122274 -1.6711125e-20)
(52.4912 16.844828 0)
(52.750586 16.566265 5.7579692e-21)
(52.990116 16.285479 1.7651438e-20)
(53.2085 16.001219 0)
(53.404234 15.711933 -6.2320741e-21)
(53.575603 15.416089 -6.3327785e-25)
(53.72061 15.112275 2.0215323e-20)
(53.836651 14.798686 2.1211494e-20)
(53.923095 14.469417 -7.4294012e-21)
(53.976825 14.133558 4.8236596e-24)
(53.995482 13.777467 -4.937114e-24)
(53.975955 13.404624 3.6601827e-20)
(53.919382 13.014641 0)
(53.826098 12.606329 -1.0812716e-20)
(53.69885 12.181923 5.9145452e-20)
(53.544196 11.746082 1.2946008e-20)
(53.374412 11.308 6.9183263e-25)
(53.208225 10.882692 -1.5207233e-20)
(53.06647 10.487807 8.0381223e-20)
(52.962121 10.134374 6.1073683e-25)
(52.894379 9.8207361 -1.6977318e-20)
(52.853398 9.5372001 -6.853608e-20)
(52.827905 9.2738751 6.8775189e-20)
(52.80997 9.023851 6.8796014e-20)
(52.795349 8.7832836 1.3735354e-19)
(52.781929 8.5503071 0)
(52.768681 8.3239065 -6.8160203e-20)
(52.755159 8.1036078 0)
(52.741035 7.8889632 -2.6946647e-19)
(52.726416 7.6797605 -1.337694e-19)
(52.711611 7.4757932 -1.6587069e-20)
(52.696203 7.2769371 1.6441764e-20)
(52.68026 7.0828984 -1.3029377e-19)
(52.664082 6.8935066 1.4510438e-19)
(52.647489 6.7087499 -3.1901846e-20)
(52.630295 6.5282863 -1.1040267e-19)
(52.612817 6.3520888 -1.2469421e-19)
(52.595196 6.1799808 0)
(52.577077 6.0118826 -1.0640729e-19)
(52.558788 5.8476039 -1.3502214e-19)
(52.540403 5.6870732 0)
(52.521618 5.5301637 -1.3134883e-19)
(52.502742 5.3767546 2.8774094e-20)
(52.483857 5.2267444 -1.4177582e-20)
(52.464696 5.0800472 0)
(52.445521 4.9365494 -2.2010081e-19)
(52.426384 4.7961412 -1.3544436e-20)
(52.407096 4.6587662 1.3332436e-20)
(52.387866 4.5243071 -2.0993244e-19)
(52.36871 4.3926679 2.1301364e-19)
(52.34953 4.2637963 4.4311591e-24)
(52.33048 4.1375843 -1.2490086e-20)
(52.311535 4.0139443 2.026335e-19)
(52.292677 3.8928248 -1.9320333e-19)
(52.274008 3.7741273 0)
(52.255474 3.6577668 1.866716e-19)
(52.23711 3.5437051 1.7771276e-19)
(52.218975 3.431827 5.632946e-21)
(52.201006 3.3220818 -1.7709765e-19)
(52.183274 3.21441 1.6854179e-19)
(52.165797 3.1087066 1.8157162e-19)
(52.148533 3.0049414 -1.7308912e-19)
(52.131552 2.9030247 -5.1511762e-21)
(52.114856 2.8028907 5.0583241e-21)