/*--------------------------------*- C++ -*----------------------------------*\
| =========                 |                                                 |
| \\      /  F ield         | OpenFOAM: The Open Source CFD Toolbox           |
|  \\    /   O peration     | Version:  2406                                  |
|   \\  /    A nd           | Website:  www.openfoam.com                      |
|    \\/     M anipulation  |                                                 |
\*---------------------------------------------------------------------------*/
FoamFile
{
    version     2.0;
    format      ascii;
    arch        "LSB;label=32;scalar=64";
    class       volScalarField;
    location    "0.009";
    object      p;
}
// * * * * * * * * * * * * * * * * * * * * * * * * * * * * * * * * * * * * * //

dimensions      [1 -1 -2 0 0 0 0];

internalField   nonuniform List<scalar> 
8951
(
101103.46
101022.36
100974.34
100914.4
100854.21
100803.18
100764.78
100740.55
100730.36
100730.52
100741.39
100769.51
100809.19
100862.59
100920.4
100991.62
101060.67
101133.42
101166.43
101197.99
101224.2
101248.64
101273.07
101291.31
101309.7
101314.68
101331.38
101335.04
101350.9
101369.05
101374.49
101260.26
101191.37
101122.22
101045.91
100973.89
100912.01
100863.1
100828.96
100810.92
100800.92
100801.98
100820.95
100853.08
100899.17
100950.67
101014.64
101075.59
101143.25
101173.6
101204.39
101229.06
101252.46
101276.09
101293.72
101312.84
101316.99
101334.31
101337.23
101351.94
101369.77
101376.79
101354.47
101297.72
101225.4
101144.1
101067.13
100999.36
100943.48
100902.79
100875.92
100858.57
100849.76
100861
100886.76
100927.02
100974.82
101035.26
101092.1
101154.55
101182.93
101212.02
101234.8
101256.96
101279.65
101296.56
101316.37
101319.86
101337.3
101339.52
101353.21
101370.59
101378.68
101444.01
101390.91
101319.46
101236.38
101155.9
101083.27
101020.95
100971.82
100935.71
100910.95
100896.42
100900.7
100920.28
100954.9
100999.45
101056.92
101110.66
101167.01
101194.19
101220.74
101241.4
101262.15
101283.73
101299.85
101319.95
101323.04
101340.44
101341.71
101354.73
101371.56
101380.09
101532.41
101481.39
101411.97
101328.98
101246.51
101170.23
101102.48
101045.8
101001.41
100969.18
100949
100946.21
100959.25
100987.76
101028.54
101082.03
101131.92
101180.74
101207.39
101230.69
101249
101268.14
101288.43
101303.65
101323.45
101326.41
101343.74
101343.82
101356.55
101372.82
101380.91
101611.21
101563.29
101497.46
101416.86
101334.8
101257.04
101185.91
101123.82
101072.75
101033.7
101007.47
100997.63
101003.94
101026.02
101062.65
101111.09
101156.16
101196.34
101222.68
101242.04
101257.72
101275.03
101293.82
101308.06
101326.82
101330
101347.02
101346
101358.67
101374.6
101381.6
101676.43
101631.73
101570.86
101495.2
101416.44
101339.97
101268.07
101203.09
101147.41
101102.84
101070.93
101054.47
101054.14
101069.77
101102.1
101144.34
101183.57
101214.72
101240.12
101255.01
101267.72
101282.95
101300
101313.14
101330.16
101333.89
101350.36
101348.51
101361.09
101376.97
101382.22
101728.37
101683.92
101628.08
101560.41
101488.47
101416.5
101346.78
101281.68
101223.8
101175.5
101138.95
101116.69
101110.1
101119.47
101147.39
101182
101214.38
101237.2
101259.65
101269.83
101279.18
101292.04
101307.08
101318.99
101333.88
101338.05
101354.04
101351.44
101363.77
101379.81
101382.81
101766.14
101724.69
101674.47
101615.35
101551.53
101486.06
101420.92
101358.29
101300.7
101250.78
101211.08
101184.2
101172.05
101175.6
101198.71
101224.99
101248.46
101264.77
101281.23
101286.69
101292.3
101302.44
101315.2
101325.73
101338.41
101342.25
101357.91
101354.58
101366.69
101382.98
101383.41
101797.25
101757.72
101713.54
101662.46
101606.97
101549.11
101490.28
101432.25
101377.27
101327.89
101286.82
101256.79
101240.13
101238.63
101256.68
101273.71
101285.88
101297.12
101305.06
101305.76
101307.31
101314.32
101324.52
101333.48
101343.79
101346.61
101361.64
101357.94
101369.8
101386.29
101384.05
101820.88
101785.32
101746.07
101702.02
101655.33
101606.42
101555.48
101503.8
101453.35
101406.51
101365.9
101334.32
101314.48
101309.04
101321.73
101327.85
101328.56
101332.88
101331.53
101327.12
101324.42
101327.87
101335.19
101342.34
101350.04
101351.78
101365.44
101361.71
101373.14
101389.55
101384.82
101830.39
101815.45
101786.7
101747.6
101706.46
101664.51
101620.62
101575.36
101530.24
101487.18
101448.52
101416.96
101395.54
101387.4
101393.38
101387.1
101376.92
101370.62
101360.84
101350.81
101343.77
101343.28
101347.35
101352.39
101357.37
101357.96
101369.78
101366.05
101376.81
101392.65
101385.87
101853.4
101841.77
101823.13
101797.46
101764.85
101727.9
101689.16
101649.52
101609.78
101571.26
101535.84
101505.99
101484.69
101474.11
101469.32
101449.88
101427.76
101410.03
101392.51
101376.74
101365.38
101360.69
101361.08
101363.72
101365.93
101365.11
101374.91
101371.02
101381.01
101395.73
101387.23
101893.33
101883.15
101862.75
101837.26
101811.87
101784.7
101755.45
101724.44
101692.33
101660.41
101630.56
101604.55
101583.68
101565.65
101542.95
101510.69
101478.24
101450.44
101425.88
101404.79
101389.04
101380.08
101376.49
101376.43
101375.81
101373.38
101380.84
101376.71
101385.89
101398.92
101388.83
101938.29
101935.1
101924.18
101902.6
101875.46
101850.68
101829.18
101807.31
101783.1
101757.07
101730.57
101704.2
101677.08
101644.78
101605.84
101564.49
101525.18
101490.76
101460.65
101434.51
101414.49
101401.26
101393.73
101390.61
101387.03
101382.91
101387.75
101383.24
101391.5
101402.4
101390.79
102011.47
102014.46
102014.31
102008.89
101994.04
101968.5
101938.73
101908.76
101878.32
101847.33
101815.11
101780.01
101741.56
101699.03
101654.49
101610.49
101568.39
101529.94
101495.51
101465.26
101441.26
101424.15
101412.83
101406.28
101399.7
101393.61
101395.75
101390.74
101397.94
101406.48
101393.75
102014.28
102008.7
101998.56
101985.28
101974.8
101968.44
101961.84
101953.12
101934.79
101904.45
101869.12
101831.8
101789.48
101741.78
101694.42
101649.95
101607.08
101566.46
101529.26
101496.06
101469.07
101448.62
101433.48
101423.42
101413.79
101405.41
101404.86
101399.39
101405.49
101411.5
101398.83
102010.75
102004.31
101995.92
101985.59
101973.8
101959.64
101942.27
101921.94
101903.7
101888.22
101870.49
101850.49
101821.17
101777.39
101729.34
101683.57
101640.58
101599.28
101560.55
101525.85
101497.24
101474.08
101455.43
101441.82
101429.02
101418.23
101415.1
101409.18
101414.48
101417.66
101408.39
101980.87
101975.92
101969.8
101962.5
101953.94
101943.84
101931.87
101917.82
101902.41
101885.84
101865.49
101838.83
101812.1
101788.38
101755.57
101713.77
101669.86
101627.87
101588.71
101553.75
101524.54
101499.71
101478.32
101460.94
101445.03
101431.94
101426.42
101419.79
101424.54
101424.47
101425.49
101942.96
101938.77
101933.66
101927.69
101920.76
101912.68
101903.27
101892.36
101879.71
101864.9
101847.62
101827.83
101804.79
101781.94
101761.93
101734.12
101695.21
101653.56
101614.14
101579.45
101550.09
101524.11
101500.75
101480.45
101461.64
101446.47
101438.71
101431.08
101435.06
101431.28
101443.76
101905.25
101902.02
101898.08
101893.49
101888.16
101881.95
101874.69
101866.23
101856.33
101844.79
101831.34
101815.63
101798.14
101777.87
101752.75
101729.03
101707.75
101675.04
101638.17
101603.53
101573.39
101545.94
101521.58
101499.82
101478.56
101461.78
101452.58
101443.21
101446.1
101438.22
101459.63
101864.96
101862.42
101859.33
101855.75
101851.6
101846.77
101841.14
101834.56
101826.89
101817.94
101807.52
101795.52
101781.56
101765.52
101748.35
101727.89
101706.69
101688.14
101659.74
101626.46
101594.34
101565.01
101539.96
101517.89
101495.63
101477.42
101467.57
101456.16
101457.91
101448.71
101468
101829.14
101827.23
101824.91
101822.23
101819.12
101815.49
101811.26
101806.32
101800.55
101793.8
101785.93
101776.72
101766.01
101753.62
101738.88
101722.89
101704.79
101686.24
101670.44
101644.73
101614.05
101583.4
101555.49
101533.36
101512.17
101492.92
101482.16
101469.13
101470.72
101460.32
101474.92
101794.13
101792.68
101790.91
101788.86
101786.5
101783.74
101780.52
101776.76
101772.35
101767.2
101761.17
101754.14
101745.96
101736.46
101725.69
101712.99
101699.09
101682.98
101665.65
101651.12
101627.87
101600.17
101570.25
101545.45
101526.87
101507.96
101496.07
101481.56
101483.64
101470.99
101491.98
101760.6
101759.53
101758.22
101756.72
101754.97
101752.94
101750.56
101747.78
101744.51
101740.67
101736.17
101730.88
101724.68
101717.39
101708.73
101698.78
101686.81
101673.55
101659.84
101646.26
101628.26
101604.54
101580.79
101556.72
101539.51
101522.57
101509.32
101494.59
101497.57
101486.32
101518.05
101726.61
101725.81
101724.84
101723.72
101722.44
101720.93
101719.17
101717.1
101714.67
101711.82
101708.46
101704.49
101699.8
101694.26
101687.73
101679.83
101670.63
101659.66
101646.31
101631.39
101617.19
101606.58
101589.76
101566.78
101548.41
101534.7
101519.7
101507.46
101512.04
101502.93
101530.92
101692.99
101692.37
101691.61
101690.75
101689.76
101688.6
101687.25
101685.69
101683.87
101681.77
101679.31
101676.42
101673
101668.96
101664.12
101658.46
101651.65
101643.67
101634.43
101623.51
101615.9
101606.33
101593.58
101577.76
101558.54
101544.09
101528.07
101520.25
101523.26
101512.67
101532.17
101666.74
101666.38
101665.94
101665.45
101664.87
101664.2
101663.4
101662.46
101661.34
101659.99
101658.36
101656.4
101654.07
101651.32
101648.11
101644.39
101640.23
101635.34
101629.1
101621.1
101610.14
101595.36
101587.19
101580.08
101562.91
101551.36
101541.35
101533.5
101529.5
101515.11
101531.65
101643.34
101642.98
101642.55
101642.06
101641.49
101640.84
101640.08
101639.18
101638.14
101636.92
101635.51
101633.87
101631.95
101629.67
101626.96
101623.79
101619.9
101615.38
101611.25
101607.69
101604.49
101600.58
101591.22
101581.87
101574.86
101563.86
101555.57
101547.57
101538.81
101525.43
101533.1
101631.18
101631
101630.78
101630.53
101630.24
101629.91
101629.5
101629.03
101628.47
101627.81
101627.03
101626.11
101625.05
101623.82
101622.37
101620.59
101618.5
101616.21
101613.27
101609.3
101604.19
101599.93
101593.17
101584.79
101579.95
101570.86
101561.73
101554.44
101547.48
101539.31
101534.2
101627.63
101627.29
101626.94
101626.58
101626.19
101625.77
101625.31
101624.78
101624.16
101623.43
101622.57
101621.54
101620.29
101618.78
101616.97
101614.83
101612.4
101609.55
101606.21
101602.95
101598.31
101592.85
101588.76
101581.41
101563.84
101560.89
101558.37
101551.75
101549.2
101545.5
101541.05
100046.19
100050.31
100062.51
100072.75
100085.39
100100.01
100117.64
100136.19
100159.91
100192.41
100235.73
100290.69
100356.89
100433.23
100519.25
100610.38
100708.17
100804.69
100899.7
100982.8
101038.79
101099.91
101151.08
101192.1
101227.38
101249.76
101271.3
101284.27
101302.92
101319.98
101328.06
100057.39
100071.52
100091.49
100103.27
100115.59
100126.42
100136.54
100150.68
100173.58
100206.99
100252
100308.37
100375.59
100452.36
100538.02
100627.56
100723.34
100813.59
100908.89
100984.65
101042
101103.13
101153.74
101194.23
101229.07
101251.05
101272.39
101285.16
101303.86
101320.59
101328.19
100070.25
100088.92
100097.49
100101.77
100110.32
100121.54
100133.74
100150.82
100176.49
100212.3
100259.43
100317.34
100385.66
100463.02
100548.75
100637.73
100733.5
100821.81
100917.08
100987.68
101046.04
101106.65
101156.53
101196.44
101230.81
101252.37
101273.5
101286.07
101304.79
101321.17
101328.37
100080.03
100095.87
100096.52
100099.75
100107.85
100117.92
100130.43
100149.2
100176.84
100214.7
100263.68
100323.07
100392.54
100470.66
100556.76
100645.67
100742.08
100830.37
100924.47
100991.05
101050.34
101110.16
101159.31
101198.65
101232.55
101253.69
101274.62
101286.98
101305.73
101321.75
101328.58
100082.45
100092.22
100091.67
100095
100102.87
100112.79
100126.58
100147.41
100177.17
100217.25
100268.1
100329.07
100399.75
100478.7
100565.18
100654.06
100750.93
100839.48
100930.92
100994.38
101054.7
101113.64
101162.09
101200.85
101234.3
101255.02
101275.75
101287.9
101306.68
101322.31
101328.82
100078.93
100083.17
100084.24
100089.01
100096.76
100107.17
100122.66
100145.67
100177.73
100220.14
100272.9
100335.48
100407.37
100487.1
100573.9
100662.71
100759.88
100848.45
100936.81
100997.71
101059.1
101117.1
101164.86
101203.05
101236.04
101256.35
101276.88
101288.83
101307.62
101322.86
101329.09
100073.66
100073.83
100075.79
100081.4
100089.33
100100.86
100118.39
100143.75
100178.31
100223.08
100277.78
100342
100415.05
100495.53
100582.59
100671.34
100768.62
100857.25
100942.99
101001.05
101063.55
101120.53
101167.62
101205.25
101237.79
101257.69
101278.02
101289.77
101308.57
101323.41
101329.39
100066.25
100064.78
100066.53
100072.17
100080.75
100093.93
100113.75
100141.64
100178.87
100226
100282.7
100348.54
100422.73
100503.94
100591.22
100679.92
100777.05
100866.11
100949.89
101004.41
101068.02
101123.94
101170.37
101207.45
101239.54
101259.03
101279.18
101290.72
101309.52
101323.95
101329.72
100055.18
100053.07
100054.95
100061.19
100071.14
100086.43
100108.8
100139.42
100179.43
100228.95
100287.68
100355.15
100430.45
100512.36
100599.82
100688.44
100785.43
100874.63
100956.94
101007.91
101072.5
101127.32
101173.12
101209.64
101241.29
101260.37
101280.33
101291.68
101310.48
101324.49
101330.08
100041.12
100039.03
100041.51
100048.86
100060.67
100078.42
100103.56
100137.15
100179.99
100231.96
100292.76
100361.83
100438.21
100520.79
100608.39
100696.92
100793.86
100882.31
100963.58
101011.76
101076.97
101130.68
101175.86
101211.83
101243.04
101261.71
101281.5
101292.64
101311.43
101325.07
101330.45
100024
100022.55
100026.2
100035.23
100049.35
100069.9
100098.09
100134.86
100180.58
100235.06
100297.95
100368.6
100446.03
100529.24
100616.93
100705.39
100802.27
100889.53
100969.75
101016.02
101081.42
101134.02
101178.59
101214.01
101244.79
101263.06
101282.67
101293.62
101312.39
101325.84
101330.84
100003.89
100003.73
100009.1
100020.33
100037.22
100060.94
100092.49
100132.57
100181.25
100238.3
100303.26
100375.46
100453.89
100537.71
100625.44
100713.96
100810.51
100896.8
100975.48
101020.58
101085.84
101137.34
101181.32
101216.19
101246.54
101264.41
101283.85
101294.6
101313.35
101326.92
101331.25
99980.836
99982.522
99990.193
100004.2
100024.36
100051.62
100086.8
100130.31
100182.04
100241.69
100308.71
100382.41
100461.81
100546.19
100633.93
100722.66
100818.27
100904.14
100980.79
101025.29
101090.22
101140.64
101184.03
101218.36
101248.29
101265.76
101285.04
101295.59
101314.32
101328.34
101331.68
99954.76
99958.908
99969.535
99986.939
100010.85
100042.02
100081.1
100128.15
100183
100245.25
100314.31
100389.47
100469.79
100554.68
100642.39
100731.4
100825.54
100911.47
100985.79
101030.13
101094.55
101143.92
101186.74
101220.53
101250.03
101267.12
101286.23
101296.59
101315.29
101329.97
101332.12
99925.635
99932.945
99947.24
99968.662
99996.825
100032.27
100075.43
100126.15
100184.18
100249.03
100320.08
100396.64
100477.82
100563.19
100650.84
100740.2
100832.52
100918.7
100990.6
101035.09
101098.84
101147.18
101189.43
101222.69
101251.78
101268.47
101287.43
101297.59
101316.27
101331.57
101332.58
99893.483
99904.757
99923.472
99949.545
99982.427
100022.5
100069.9
100124.38
100185.62
100253.04
100326.03
100403.93
100485.92
100571.71
100659.29
100749.1
100839.35
100925.83
100995.28
101040.14
101103.08
101150.43
101192.11
101224.84
101253.52
101269.83
101288.63
101298.6
101317.25
101333.06
101333.11
99858.433
99874.553
99898.467
99929.805
99967.854
100012.83
100064.62
100122.94
100187.38
100257.32
100332.18
100411.35
100494.09
100580.23
100667.79
100758.15
100846.56
100932.87
100999.9
101045.24
101107.27
101153.67
101194.78
101226.98
101255.26
101271.18
101289.84
101299.62
101318.24
101334.46
101333.73
99820.753
99842.663
99872.543
99909.715
99953.332
100003.41
100059.71
100121.91
100189.5
100261.89
100338.54
100418.9
100502.32
100588.77
100676.44
100767.21
100854.29
100939.82
101004.49
101050.37
101111.41
101156.88
101197.44
101229.12
101256.99
101272.54
101291.05
101300.64
101319.22
101335.81
101333.95
99780.915
99809.562
99846.116
99889.607
99939.103
99994.436
100055.31
100121.35
100192.04
100266.78
100345.13
100426.59
100510.61
100597.33
100685.21
100775.53
100861.82
100946.67
101009.07
101055.52
101115.51
101160.09
101200.08
101231.25
101258.72
101273.89
101292.27
101301.67
101320.21
101337.13
101333.99
99739.667
99775.903
99819.701
99869.87
99925.436
99986.11
100051.55
100121.36
100195.03
100272.02
100351.97
100434.43
100518.97
100605.89
100693.71
100783.26
100869.4
100953.27
101013.67
101060.69
101119.56
101163.27
101202.71
101233.38
101260.45
101275.25
101293.49
101302.7
101321.21
101338.43
101334.44
99698.013
99742.495
99793.887
99850.932
99912.632
99978.651
100048.57
100122.02
100198.54
100277.64
100359.08
100442.43
100527.38
100614.51
100702.24
100791.02
100877.34
100959.55
101018.3
101065.88
101123.56
101166.44
101205.33
101235.49
101262.17
101276.6
101294.71
101303.73
101322.2
101339.7
101335.38
99657.164
99710.289
99769.313
99833.233
99901.015
99972.286
100046.51
100123.42
100202.62
100283.68
100366.46
100450.58
100535.88
100623.29
100710.6
100798.58
100885.08
100965.81
101022.99
101071.06
101127.51
101169.6
101207.93
101237.59
101263.89
101277.95
101295.94
101304.77
101323.2
101340.92
101336.4
99618.463
99680.337
99746.602
99817.212
99890.924
99967.256
100045.5
100125.63
100207.32
100290.15
100374.12
100458.9
100544.53
100632.1
100718.77
100806.13
100892.1
100972.32
101027.76
101076.25
101131.42
101172.74
101210.52
101239.69
101265.6
101279.3
101297.17
101305.81
101324.21
101342.11
101337.41
99583.229
99653.481
99726.4
99803.36
99882.704
99963.794
100045.7
100128.76
100212.69
100297.07
100382.08
100467.47
100553.6
100641
100726.88
100813.62
100898.76
100979.18
101032.62
101081.42
101135.28
101175.86
101213.09
101241.77
101267.3
101280.65
101298.4
101306.86
101325.21
101343.27
101338.32
99551.929
99629.763
99709.842
99792.302
99876.694
99962.025
100047.25
100132.88
100218.75
100304.47
100390.41
100476.52
100563.21
100649.23
100734.86
100821.04
100905.46
100986.24
101037.55
101086.58
101139.11
101178.96
101215.64
101243.85
101269
101282
101299.63
101307.9
101326.21
101344.39
101339.1
99526.28
99611.109
99697.069
99784.474
99873.052
99961.971
100050.28
100138.12
100225.58
100312.41
100399.31
100486.36
100571.76
100656.9
100743.1
100828.4
100912.21
100993.24
101042.59
101091.72
101142.89
101182.05
101218.18
101245.91
101270.69
101283.34
101300.85
101308.95
101327.22
101345.48
101339.72
99507.209
99598.001
99688.603
99780.077
99872.191
99964.074
100054.73
100144.44
100233.34
100321.21
100409.21
100495.36
100579.68
100665.62
100751.32
100835.68
100918.97
101000.06
101047.75
101096.81
101146.63
101185.11
101220.69
101247.97
101272.37
101284.68
101302.08
101309.99
101328.23
101346.56
101340.12
99495.399
99590.963
99684.959
99779.474
99874.297
99968.345
100060.82
100152.03
100242.38
100331.62
100419.36
100503.74
100588.68
100674.44
100759.47
100842.88
100925.71
101006.72
101053.03
101101.87
101150.34
101188.15
101223.2
101250.01
101274.05
101286.01
101303.31
101311.03
101329.24
101347.62
101340.26
99491.451
99590.467
99686.519
99782.947
99879.568
99975.093
100068.88
100161.48
100253.41
100343.39
100427.98
100512.2
100597.84
100683.2
100767.58
100849.99
100932.43
101013.25
101058.39
101106.89
101154.02
101191.18
101225.68
101252.04
101275.72
101287.34
101304.53
101312.08
101330.25
101348.65
101340.12
99495.914
99596.932
99693.625
99790.812
99888.391
99985.029
100080.1
100174
100265.88
100352.63
100435.82
100521.94
100607.06
100691.97
100775.68
100857.04
100939.1
101019.68
101063.81
101111.87
101157.65
101194.17
101228.14
101254.05
101277.37
101288.67
101305.75
101313.12
101331.26
101349.65
101339.79
99509.388
99611.021
99707.025
99803.973
99901.796
99999.487
100096.21
100188.07
100274.94
100360.59
100446.3
100531.99
100616.38
100700.78
100783.77
100864.05
100945.7
101026.02
101069.27
101116.79
101161.25
101197.15
101230.59
101256.06
101279.02
101289.99
101306.97
101314.15
101332.27
101350.61
101339.38
99532.333
99633.941
99728.309
99824.315
99921.432
100017.79
100111.85
100198.55
100283.56
100371.05
100457.36
100542.2
100625.82
100709.65
100791.87
100871.12
100952.28
101032.26
101074.75
101121.66
101164.82
101200.1
101233.01
101258.05
101280.66
101291.31
101308.18
101315.18
101333.27
101351.52
101338.78
99562.429
99662.82
99754.539
99848.926
99943.325
100034.77
100121.9
100207.92
100296.05
100383.94
100468.75
100552.63
100635.39
100718.57
100799.96
100878.03
100958.9
101038.43
101080.22
101126.46
101168.35
101203.02
101235.42
101260.02
101282.29
101292.62
101309.38
101316.21
101334.28
101352.37
101338.15
99593.049
99692.421
99780.598
99871.18
99960.431
100046.97
100134.05
100223.46
100310.94
100397.43
100480.6
100563.34
100645.08
100727.53
100807.98
100884.62
100965.55
101044.54
101085.67
101131.18
101171.84
101205.92
101237.8
101261.98
101283.9
101293.93
101310.57
101317.23
101335.28
101353.07
101337.22
99624.79
99722.323
99806.083
99890.279
99977.52
100066.81
100154.76
100241.29
100326.76
100411.54
100492.97
100574.33
100654.89
100736.54
100815.92
100891.23
100972.1
101050.57
101091.1
101135.83
101175.3
101208.79
101240.17
101263.93
101285.51
101295.24
101311.76
101318.26
101336.28
101353.64
101336.75
99678.365
99771.376
99848.8
99927.723
100010.62
100094.63
100178.39
100260.69
100343.62
100426.46
100505.88
100585.6
100664.84
100745.59
100823.81
100898.01
100978.51
101056.52
101096.48
101140.41
101178.73
101211.62
101242.51
101265.86
101287.11
101296.54
101312.94
101319.28
101337.28
101354.2
101336.71
99747.763
99833.926
99903.106
99974.317
100049.35
100126.4
100204.35
100281.82
100361.75
100442.23
100519.36
100597.17
100674.92
100754.68
100831.66
100904.76
100984.78
101062.39
101101.82
101144.91
101182.12
101214.43
101244.82
101267.77
101288.69
101297.84
101314.1
101320.3
101338.28
101354.75
101337.5
99823.464
99902.697
99962.711
100025.05
100091.64
100161.25
100232.75
100304.8
100381.2
100458.86
100533.42
100609.04
100685.13
100763.8
100839.45
100911.49
100990.91
101068.17
101107.11
101149.33
101185.49
101217.21
101247.12
101269.67
101290.26
101299.13
101315.26
101321.32
101339.27
101355.27
101339.3
99907.704
99978.431
100027.79
100080.12
100137.63
100199.22
100263.63
100329.6
100402.04
100476.34
100548.09
100621.24
100695.48
100772.95
100847.2
100918.22
100996.88
101073.85
101112.34
101153.68
101188.82
101219.96
101249.39
101271.55
101291.82
101300.41
101316.41
101322.34
101340.27
101355.85
101341.59
99999.948
100060.68
100098.1
100139.48
100187.28
100240.29
100296.9
100356.19
100424.35
100494.67
100563.4
100633.78
100705.97
100782.11
100854.89
100924.96
101002.7
101079.43
101117.52
101157.95
101192.12
101222.67
101251.63
101273.42
101293.37
101301.69
101317.54
101323.35
101341.25
101356.55
101344.2
100097.5
100147.68
100172.59
100202.6
100240.34
100284.35
100332.45
100384.57
100448.21
100513.87
100579.35
100646.68
100716.6
100791.26
100862.5
100931.72
101008.32
101084.88
101122.63
101162.14
101195.39
101225.35
101253.85
101275.26
101294.9
101302.97
101318.67
101324.37
101342.24
101357.39
101347.05
100197.15
100237.5
100250.26
100269.04
100296.65
100331.35
100370.25
100414.96
100473.6
100533.92
100595.97
100659.96
100727.38
100800.41
100870.03
100938.52
101013.81
101090.21
101127.66
101166.25
101198.62
101227.99
101256.04
101277.09
101296.42
101304.23
101319.79
101325.4
101343.22
101358.38
101350.1
100297.02
100329.1
100330.8
100338.8
100356.32
100381.3
100410.4
100447.94
100500.11
100554.83
100613.24
100673.63
100738.31
100809.52
100877.45
100945.37
101019.35
101095.39
101132.61
101170.28
101201.82
101230.61
101258.2
101278.9
101297.93
101305.5
101320.9
101326.42
101344.2
101359.53
101353.3
100397.91
100423.08
100414.89
100412.4
100419.61
100434.13
100453.55
100483.48
100527.15
100576.69
100631.17
100687.69
100749.38
100818.56
100884.7
100952.31
101024.97
101100.43
101137.48
101174.24
101204.99
101233.18
101260.35
101280.68
101299.42
101306.75
101321.99
101327.43
101345.17
101360.82
101356.57
100503.28
100521.35
100503.83
100490.55
100486.66
100489.89
100500.28
100521.14
100554.87
100599.24
100649.76
100702.18
100760.62
100827.54
100891.76
100959.33
101030.57
101105.3
101142.26
101178.13
101208.13
101235.73
101262.46
101282.45
101300.89
101308
101323.03
101328.42
101346.13
101362.28
101359.86
100618.02
100626.18
100598.87
100573.88
100557.34
100550.29
100551.28
100560.61
100583.86
100622.63
100669.29
100717.43
100772.34
100836.69
100898.81
100966.48
101036.1
101109.92
101146.9
101181.92
101211.22
101238.23
101264.53
101284.19
101302.32
101309.23
101324.04
101329.41
101347.08
101363.93
101363.08
100748.56
100741.13
100702.83
100664.92
100636.19
100618.05
100606.93
100604.48
100617.95
100648.98
100691.04
100734.58
100785.51
100846.8
100906.55
100973.97
101041.59
101114.03
101151.25
101185.52
101214.21
101240.64
101266.53
101285.89
101303.73
101310.42
101325.1
101330.44
101348.04
101365.58
101366.18
100901.21
100873.62
100825.35
100773.74
100730.41
100697.86
100674.17
100660.01
100664.93
100683.9
100717.75
100755.66
100801.82
100859.27
100916.21
100982.34
101047.23
101117.52
101155.03
101188.89
101217.09
101242.98
101268.48
101287.55
101305.25
101311.61
101326.54
101331.64
101349
101367.01
101369.13
101054.33
101016.05
100967.92
100904.9
100844.15
100793.86
100755.57
100730.89
100724.74
100731.68
100750.31
100780.82
100821.29
100874.17
100928.05
100991.98
101053.57
101121.81
101158.66
101192.41
101220.1
101245.42
101270.52
101289.27
101307.15
101312.94
101328.67
101333.16
101349.99
101368.17
101371.91
100079.29
100093.58
100108.47
100118.85
100125.57
100133.6
100145.52
100161.05
100183.25
100214.63
100256.5
100309.57
100373.68
100447.68
100530.91
100619.12
100712.01
100806.75
100889.76
100975.83
101033.31
101096.27
101148.41
101189.99
101225.68
101248.45
101270.2
101283.39
101302
101319.4
101327.87
100070.05
100081.48
100097.13
100114.82
100125.17
100133.75
100145.13
100160.71
100182.94
100214.05
100255.41
100307.8
100371.2
100444.55
100527.21
100615.32
100707.85
100805.07
100885.48
100974.52
101031.49
101094.35
101146.68
101188.52
101224.43
101247.47
101269.35
101282.71
101301.3
101319.05
101327.58
100065.02
100074.12
100088.54
100107.32
100119.31
100129.87
100143.44
100160.61
100183.73
100215.05
100256.13
100307.87
100370.45
100442.96
100524.81
100612.57
100704.61
100802.67
100883.1
100972.97
101029.72
101092.63
101145.13
101187.17
101223.25
101246.52
101268.52
101282.03
101300.59
101318.7
101327.24
100065.01
100073.88
100087.1
100104.15
100116.62
100128.98
100144.39
100162.93
100186.85
100218.39
100259.15
100310.16
100371.77
100443.24
100524.03
100611.12
100702.34
100800.29
100880.75
100970.82
101027.58
101090.73
101143.48
101185.75
101222.02
101245.54
101267.67
101281.33
101299.86
101318.31
101326.98
100065.17
100074.18
100086.79
100102.9
100116.06
100129.64
100146.19
100165.79
100190.44
100222.23
100262.76
100313.12
100373.81
100444.25
100523.95
100610.25
100700.54
100798.05
100878.22
100968.41
101025.34
101088.71
101141.76
101184.27
101220.75
101244.51
101266.78
101280.6
101299.09
101317.89
101326.75
100064.57
100073.54
100085.69
100101.49
100115.6
100130.2
100147.67
100168.27
100193.68
100225.82
100266.23
100316.06
100375.93
100445.41
100524.05
100609.57
100698.95
100795.93
100875.66
100965.9
101023.14
101086.69
101140.03
101182.77
101219.46
101243.48
101265.89
101279.87
101298.32
101317.46
101326.52
100063.63
100072.42
100084.16
100099.72
100114.72
100130.31
100148.72
100170.37
100196.6
100229.15
100269.53
100318.93
100378.06
100446.63
100524.26
100608.98
100697.47
100793.9
100873.18
100963.36
101020.99
101084.69
101138.31
101181.28
101218.17
101242.44
101264.99
101279.14
101297.55
101317.02
101326.07
100062.56
100071.2
100082.6
100097.82
100113.57
100130.18
100149.56
100172.26
100199.32
100232.34
100272.75
100321.79
100380.23
100447.94
100524.57
100608.5
100696.1
100791.94
100870.78
100960.83
101018.87
101082.71
101136.6
101179.8
101216.88
101241.4
101264.09
101278.41
101296.77
101316.58
101325.76
100061.46
100069.98
100081.07
100095.88
100112.37
100130
100150.31
100174.06
100201.94
100235.46
100275.95
100324.68
100382.49
100449.36
100525.01
100608.13
100694.86
100790.05
100868.48
100958.31
101016.76
101080.73
101134.9
101178.31
101215.58
101240.35
101263.18
101277.67
101295.98
101316.13
101325.6
100060.41
100068.8
100079.58
100094.04
100111.28
100129.86
100151.06
100175.81
100204.51
100238.53
100279.15
100327.62
100384.83
100450.9
100525.59
100607.89
100693.74
100788.23
100866.3
100955.77
101014.68
101078.77
101133.2
101176.82
101214.29
101239.3
101262.27
101276.93
101295.18
101315.67
101325.47
100059.52
100067.77
100078.28
100092.52
100110.43
100129.84
100151.88
100177.57
100207.07
100241.59
100282.36
100330.61
100387.26
100452.56
100526.31
100607.77
100692.76
100786.48
100864.3
100953.2
101012.62
101076.82
101131.51
101175.33
101212.99
101238.24
101261.36
101276.18
101294.37
101315.2
101325.32
100058.85
100067
100077.31
100091.46
100109.87
100130.03
100152.83
100179.4
100209.66
100244.68
100285.62
100333.67
100389.8
100454.34
100527.17
100607.77
100691.91
100784.82
100862.37
100950.58
101010.58
101074.89
101129.83
101173.84
101211.68
101237.18
101260.44
101275.43
101293.56
101314.72
101325.09
100058.48
100066.58
100076.75
100090.84
100109.6
100130.45
100153.99
100181.35
100212.32
100247.83
100288.93
100336.82
100392.44
100456.24
100528.17
100607.91
100691.19
100783.43
100860.52
100947.94
101008.55
101072.97
101128.16
101172.36
101210.38
101236.11
101259.51
101274.67
101292.74
101314.24
101324.8
100058.48
100066.59
100076.66
100090.68
100109.68
100131.17
100155.4
100183.48
100215.11
100251.08
100292.34
100340.06
100395.2
100458.28
100529.31
100608.18
100690.6
100782.2
100858.97
100945.58
101006.53
101071.07
101126.5
101170.87
101209.07
101235.04
101258.58
101273.91
101291.91
101313.75
101324.46
100058.93
100067.07
100077.07
100091.04
100110.17
100132.19
100157.1
100185.83
100218.07
100254.45
100295.86
100343.41
100398.08
100460.45
100530.6
100608.57
100690.15
100780.89
100857.64
100943.64
101004.56
101069.18
101124.85
101169.39
101207.76
101233.96
101257.64
101273.14
101291.08
101313.26
101324.08
100059.91