/*--------------------------------*- C++ -*----------------------------------*\
| =========                 |                                                 |
| \\      /  F ield         | OpenFOAM: The Open Source CFD Toolbox           |
|  \\    /   O peration     | Version:  2406                                  |
|   \\  /    A nd           | Website:  www.openfoam.com                      |
|    \\/     M anipulation  |                                                 |
\*---------------------------------------------------------------------------*/
FoamFile
{
    version     2.0;
    format      ascii;
    arch        "LSB;label=32;scalar=64";
    class       volScalarField;
    location    "0.01";
    object      alphat;
}
// * * * * * * * * * * * * * * * * * * * * * * * * * * * * * * * * * * * * * //

dimensions      [1 -1 -1 0 0 0 0];

internalField   nonuniform List<scalar> 
2065
(
0.0015819992
0.0018827489
0.0021882767
0.0024902149
0.0027925957
0.00084836187
0.0010143159
0.0012072651
0.0014329975
0.0016833757
0.00066946256
0.00079035439
0.00093776231
0.0011249049
0.0011365297
0.0013527919
0.0015696818
0.0020634665
0.0023689364
0.0026698422
0.0030365544
0.0034396908
0.0038418232
0.0044674996
0.0049288571
0.0044285926
0.0038028343
0.0030118928
0.0020728173
0.0023238288
0.0011617741
0.0013243907
0.00060305635
0.00069800135
0.00079751257
0.00058308979
0.00068743259
0.00082813709
0.0009985592
0.0010402413
0.0012257851
0.0014440218
0.0016903357
0.0019621173
0.0037160284
0.0063933989
0.0101929
0.014578159
0.018524371
0.020877808
0.021065134
0.019435683
0.016805124
0.0039578259
0.0066581727
0.01036398
0.01457966
0.01834066
0.020519083
0.020618231
0.018962889
0.016348295
0.0042132044
0.0069142528
0.010542321
0.014608942
0.018176112
0.020152257
0.020154338
0.01847446
0.0158844
0.0044721612
0.00715976
0.010701795
0.014616394
0.017989389
0.019777348
0.019680191
0.017976102
0.015420613
0.0047375379
0.007393476
0.010840787
0.014598993
0.01777537
0.019395903
0.019200979
0.0050048654
0.013792734
0.010625127
0.0073962421
0.0043275393
0.0017216379
0.0002078311
0.013421795
0.010334587
0.0071873306
0.004206335
0.0016755268
0.00020393507
0.013031267
0.010030341
0.00697483
0.0040855783
0.0016322865
0.00019970212
0.012640553
0.0097275599
0.0067666841
0.0039658605
0.0015869056
0.00019519945
0.0355045
0.025524319
0.016113602
0.0080962276
0.0024650755
0.00015562366
0.033117803
0.023751964
0.014993118
0.0075842967
0.0023712217
0.00015375016
0.030820807
0.022091923
0.013980455
0.0071376395
0.0022847206
0.00015223568
0.028643672
0.02054036
0.013044788
0.0067253731
0.0022053909
0.00015096611
0.02658962
0.019079216
0.012153249
0.0063079912
0.0020906993
0.00014947555
0.024677979
0.017729933
0.011337186
0.0059345378
0.0020061951
0.00014814643
0.022896962
0.01646314
0.010551191
0.0055475771
0.0018872908
0.00014631859
0.021253656
0.015294124
0.009823928
0.005191598
0.001788309
0.00014379026
0.019731481
0.014217028
0.0091584041
0.0048649359
0.0016891397
0.00014155949
0.018375863
0.013247454
0.0085528905
0.0045684304
0.0016070212
0.00013946167
0.017237256
0.012441379
0.0080510577
0.0043169513
0.0015258501
0.00013792313
0.016254058
0.011756724
0.0076326224
0.0041156506
0.001472032
0.00013698272
0.015422066
0.011198381
0.0073037171
0.0039597892
0.0014250035
0.00013700972
0.014691197
0.010692984
0.007006318
0.0038275851
0.0013952318
0.00013772279
0.014139428
0.010324231
0.0067916336
0.0037308025
0.0013711972
0.00013944838
0.013732489
0.010064677
0.0066518478
0.0036751141
0.0013619014
0.00014217113
0.013442095
0.0098927511
0.0065678594
0.0036488658
0.0013627819
0.0001459091
0.013269832
0.0098118685
0.0065511434
0.0036638572
0.0013787825
0.00015073801
0.013188038
0.0097937298
0.0065696084
0.0036941634
0.0014011742
0.00015664907
0.01320749
0.0098696015
0.0066673444
0.0037779168
0.0014435062
0.00016373856
0.013274094
0.0099657207
0.0067614014
0.0038489245
0.0014824091
0.00017194465
0.013461438
0.010194364
0.0069823842
0.0040130972
0.0015581067
0.00018146454
0.013565861
0.010310494
0.0070812632
0.0040852101
0.0015999847
0.00019203008
0.014112522
0.010888974
0.0076003709
0.0044554619
0.0017603303
0.00020483006
0.04254754
0.050851779
0.059593259
0.067288498
0.071782166
0.071239999
0.065526141
0.056264112
0.045763315
0.039608892
0.047727614
0.056268747
0.063700489
0.0679642
0.067346433
0.061819648
0.052898347
0.042848649
0.036975901
0.044807547
0.05305096
0.060173414
0.064189781
0.063499077
0.058139744
0.049570174
0.039997489
0.034566614
0.042065105
0.049958619
0.056740276
0.060490854
0.059728335
0.054531374
0.046330203
0.037255187
0.032336136
0.039465731
0.046987122
0.053406841
0.056885554
0.056062033
0.051030892
0.043213966
0.034645637
0.030258341
0.037013503
0.044124705
0.05017799
0.053394304
0.052521845
0.047672595
0.040252192
0.032190834
0.028330357
0.034748415
0.041421124
0.047056875
0.050019878
0.049129039
0.044482676
0.03746501
0.029899162
0.026479335
0.032545811
0.038873203
0.044147542
0.046829707
0.045882835
0.041456224
0.03485471
0.027772546
0.02478331
0.03048041
0.036433222
0.041414788
0.04390346
0.042919705
0.038665641
0.032426598
0.025794543
0.023103081
0.028498429
0.034122121
0.038808119
0.041156394
0.040215772
0.036185517
0.030288056
0.024045872
0.021680738
0.026728858
0.03200046
0.036396198
0.038586621
0.037703671
0.03393733
0.028407186
0.022549467
0.020371261
0.025110951
0.030056249
0.03418613
0.036245877
0.035416928
0.031885831
0.026714189
0.021231277
0.019065737
0.023528074
0.028212018
0.032157479
0.034141219
0.033384753
0.030087086
0.025237709
0.020089533
0.017771934
0.02200253
0.0264695
0.030273135
0.032236411
0.031598883
0.02853616
0.023971338
0.019106034
0.016551054
0.020570882
0.024851384
0.028549007
0.030532281
0.030036187
0.027222671
0.022942504
0.018335703
0.015374845
0.019212106
0.023344162
0.026973928
0.029019088
0.028686503
0.026123465
0.022116894
0.01774202
0.014223358
0.017899724
0.021915201
0.025511252
0.027667049
0.027520033
0.025203527
0.021466345
0.017296561
0.013053187
0.016592729
0.020524698
0.02412572
0.026427457
0.02650167
0.024432848
0.020969747
0.016986966
0.011851212
0.01527265
0.019148145
0.022794118
0.02526092
0.025600895
0.023783376
0.020602315
0.01680056
0.01054036
0.013858488
0.017707653
0.021446752
0.024116471
0.024773228
0.023213125
0.020317786
0.016711214
0.0091577625
0.012427501
0.01628365
0.020129213
0.023001284
0.024010421
0.022743775
0.020116705
0.01669179
0.0075300468
0.010645009
0.014526938
0.018577645
0.021775682
0.023206342
0.022333764
0.019980173
0.016771576
0.006172688
0.0093135792
0.013190267
0.01733954
0.02074332
0.022386195
0.02194721
0.019836563
0.016802987
0.0036310464
0.006407536
0.010347121
0.014869527
0.018918941
0.021359907
0.021558102
0.019885302
0.01720216
0.00041319215
0.0035733434
0.0093349576
0.016651556
0.024952847
0.033966398
0.00039081098
0.0033159499
0.0086354316
0.015409656
0.023154976
0.031581678
0.00037053095
0.0030862674
0.0080225001
0.014310158
0.021524008
0.029388711
0.00035218885
0.0028585349
0.0074611744
0.013318991
0.020050699
0.02740491
0.00033591053
0.0026543223
0.0069594141
0.012430231
0.018716039
0.025591749
0.00032102278
0.0024384839
0.0064583242
0.011576348
0.017455956
0.023887006
0.00030813559
0.0022871674
0.0060638729
0.010849683
0.01633712
0.022337965
0.00029602138
0.0020731531
0.0055793437
0.010059494
0.015206893
0.020831747
0.00028605261
0.0019862272
0.0053147693
0.0095019171
0.014286268
0.019509314
0.0002762662
0.0017678485
0.0048026347
0.0087044064
0.013205035
0.018122213
0.00026832606
0.0016843047
0.0045841099
0.0082700522
0.012478583
0.017046766
0.00026268965
0.0016672367
0.0044191536
0.0078632972
0.01178422
0.016037736
0.00025691023
0.0015436984
0.0041640811
0.0073977699
0.01105748
0.015017008
0.0002517415
0.0013495997
0.0037709522
0.0068119607
0.010251743
0.013963183
0.00024630559
0.0012283144
0.0034710337
0.0062906107
0.0094989285
0.012968048
0.00024116061
0.0011119458
0.0031757668
0.0057780833
0.0087602323
0.011998504
0.0002367418
0.00099109205
0.002878613
0.0052738945
0.0080307581
0.011041232
0.00022967249
0.00086955652
0.0025613337
0.004729848
0.0072610027
0.010050111
0.00021966539
0.00072444362
0.0022088335
0.0041576038
0.0064577033
0.0090181811
0.00020487961
0.00057463619
0.0017928057
0.0034772566
0.005533808
0.0078640265
0.00018691692
0.00040343369
0.0012855205
0.0027358765
0.0045182819
0.0065998394
0.00014720636
0.00026675318
0.00073836681
0.0018269864
0.0033865686
0.005202886
7.2308138e-05
0.00013842712
0.00035417326
0.00099029024
0.0020974203
0.0036554376
2.0917892e-05
7.0124468e-05
0.0001619681
0.00044210418
0.001157121
0.0021441835
2.1028474e-05
9.2764802e-05
0.00012536628
0.00019667573
0.00047999182
0.0011809204
2.4376691e-05
0.00020409367
0.00033581343
0.00030669517
0.00031183508
0.00065761207
2.4768674e-05
0.00022073696
0.00052765857
0.00065210667
0.00062545418
0.00058970141
2.8743742e-05
0.00025237932
0.00069462751
0.0010433983
0.001152112
0.00096521467
3.4209466e-05
0.00033696573
0.00086154336
0.0013787242
0.0017298615
0.0018377519
3.9586628e-05
0.00040147604
0.0010387013
0.0017049067
0.0022765412
0.0026675947
4.5645934e-05
0.00049742848
0.0012608343
0.0020643372
0.0027836791
0.003353447
5.1866825e-05
0.00057976759
0.0014788638
0.0024204385
0.0032566556
0.0039261968
5.7584614e-05
0.00066442495
0.0016947215
0.0027549545
0.0036731067
0.0043891162
6.113566e-05
0.00072926833
0.001865063
0.0030190772
0.0039939387
0.0047302929
6.2740655e-05
0.00077132932
0.0019792591
0.0031957404
0.0042025252
0.0049422442
6.3775588e-05
0.00079512064
0.00203815
0.0032712111
0.0042825876
0.0050155271
6.4140908e-05
0.00079647627
0.0020335009
0.0032541081
0.0042482485
0.004964173
6.0931511e-05
0.00075938551
0.001939356
0.0031148491
0.0040770246
0.0047723554
5.7276664e-05
0.0007012167
0.0017888834
0.0028792448
0.0037814225
0.0044431296
5.2269281e-05
0.00062551791
0.0015916036
0.0025651372
0.0033794224
0.0039844122
4.6227757e-05
0.00053661008
0.0013579343
0.0021875813
0.0028848392
0.0033997437
3.9283936e-05
0.00044242382
0.0011126128
0.0017832721
0.0023304675
0.0026985611
3.2642434e-05
0.00033669386
0.00087387603
0.001388914
0.0017414209
0.0018781091
2.6576161e-05
0.0002604349
0.00068950135
0.0010279131
0.0011414051
0.0010193326
2.1132137e-05
0.00019245378
0.00047107696
0.00061785985
0.00062020193
0.00052513825
1.6717386e-05
0.00014857961
0.00030105118
0.00029421699
0.0002779779
0.00048891454
1.3943705e-05
8.1917138e-05
0.00013372496
0.00016504663
0.00032164633
0.00084045723
1.6268212e-05
8.1047459e-05
0.00014226868
0.00032360462
0.00044594141
0.0039024978
0.010408655
0.018790275
0.00044786299
0.0040005684
0.010706737
0.019352593
0.029309056
0.040269808
0.00044907817
0.0040852445
0.010969254
0.019855241
0.030096104
0.041397218
0.0004500231
0.0041683167
0.01121911
0.020320436
0.030809915
0.042398551
0.00045078767
0.0042493517
0.011456244
0.020747021
0.031445588
0.04326362
0.0004509677
0.0043288036
0.011671588
0.021120245
0.031985834
0.043978957
0.0004474182
0.0043787605
0.011823827
0.021400819
0.032401821
0.0445382
0.00044485211
0.0044262813
0.011951196
0.021624235
0.032725258
0.044964031
0.00044144519
0.0044686869
0.012057861
0.021794477
0.032961535
0.045258421
0.00043718761
0.0044981726
0.012125506
0.021902127
0.033100955
0.045413755
0.00043441596
0.0045187046
0.012173403
0.021958291
0.033142658
0.045421779
0.00043826444
0.0045354654
0.012207576
0.021952012
0.033067058
0.045262624
0.0004277917
0.0045165446
0.012103958
0.02178261
0.032823405
0.044917844
0.00042878934
0.0044696249
0.011979054
0.021553855
0.032470998
0.04441805
0.00043107359
0.0044198965
0.011838543
0.021291796
0.032054357
0.043811395
0.00043321026
0.0043621176
0.011672422
0.020980291
0.031565002
0.043105522
0.00043436116
0.0042968727
0.011482822
0.020622522
0.031004483
0.042309603
0.00043471701
0.004229617
0.011288361
0.020249898
0.030409881
0.04144835
0.00043644926
0.0041619414
0.011073604
0.019842643
0.029770851
0.040532802
0.00043478727
0.0040735118
0.01082545
0.019393994
0.029084383
0.039562485
0.00043297336
0.003988374
0.010581082
0.01893968
0.02837468
0.03855124
0.00043161685
0.0039169609
0.010350335
0.018490682
0.027655133
0.037511536
0.00042969983
0.0038163083
0.010085145
0.018020667
0.026944274
0.03649793
0.00042927279
0.003818488
0.010040615
0.017837473
0.026531829
0.035824327
7.7511858e-05
0.00013717515
0.0001651233
0.0004407885
0.0004436158
0.0038056156
0.043943575
0.045201466
0.046797986
0.048382371
0.049899841
0.051342025
0.052697534
0.053979716
0.055147666
0.056180807
0.057059123
0.05775664
0.058229411
0.058462979
0.058455405
0.058219045
0.057769881
0.057120597
0.056270687
0.055203078
0.053913549
0.052401811
0.050696068
0.051880635
0.054195405
0.056574479
0.058830689
0.060960189
0.062970099
0.064865462
0.066635439
0.068241343
0.069653103
0.070839911
0.071761591
0.072384427
0.072697853
0.072691841
0.072371644
0.071749577
0.070840166
0.069650833
0.068177996
0.066394506
0.064285268
0.061840224
0.061126815
0.064330067
0.067428329
0.070338727
0.073087179
0.075692726
0.078166903
0.080456169
0.082531496
0.084354088
0.085883141
0.087070078
0.087889041
0.088327397
0.088371829
0.088020191
0.087280458
0.086164271
0.084683032
0.082842538
0.08061784
0.077974899
0.074872717
0.071481354
0.075433107
0.079206467
0.082770684
0.086162331
0.089408577
0.092481228
0.095331406
0.097917548
0.1001934
0.10211148
0.10361755
0.10468962
0.10531208
0.10546891
0.10515108
0.10436213
0.1031109
0.10140764
0.099247658
0.096641567
0.093537609
0.089883458
0.082682981
0.087291573
0.091719588
0.095953419
0.10002926
0.10394679
0.10765514
0.11110941
0.11425576
0.11704116
0.11940959
0.12130521
0.12270363
0.12358789
0.12393799
0.12373853
0.1229879
0.12168971
0.11985113
0.11747493
0.11455912
0.11107597
0.1069704
0.094385905
0.099610561
0.10469866
0.10963535
0.1144326
0.11905615
0.12345768
0.12757897
0.1313548
0.13472376
0.1376269
0.14000433
0.14182056
0.14306404
0.14370878
0.14373313
0.14313028
0.14189886
0.1400417
0.13756093
0.13444806
0.13068944
0.12624404
0.10615772
0.11200042
0.11777975
0.12346735
0.1290359
0.13443952
0.13961419
0.1444869
0.14898321
0.15303357
0.15657562
0.15954872
0.16189868
0.16362076
0.16468356
0.1650587
0.16473376
0.16370195
0.16196115
0.15951102
0.15634534
0.15244712
0.14779704
0.11746194
0.12397139
0.13051604
0.13703253
0.14346699
0.14975082
0.15580275
0.16153735
0.1668708
0.17172606
0.17603445
0.17973662
0.18276701
0.18510857
0.18673496
0.1876101
0.18771576
0.18703937
0.18557322
0.1833127
0.1802517
0.1763774
0.17167826
0.12772413
0.13501602
0.1424388
0.14990417
0.15732607
0.16461532
0.17167581
0.17840921
0.18472329
0.1905328
0.19576214
0.20034614
0.20422376
0.20734786
0.20970383
0.2112476
0.21195578
0.21181065
0.2107991
0.20891106
0.206137
0.20246969
0.19791756
0.13645756
0.14469055
0.15312926
0.16168052
0.17023417
0.17867896
0.18690299
0.19479725
0.20225817
0.20919177
0.2155149
0.22115561
0.22605287
0.23013906
0.23340458
0.23579868
0.23729409
0.23786921
0.23750696
0.23619292
0.23391328
0.23066135
0.22646076
0.14336815
0.15268251
0.16229701
0.17209573
0.18194259
0.19170846
0.20126546
0.21049054
0.2192695
0.2274994
0.23508934
0.24196047
0.24804535
0.25328575
0.25763853
0.26106581
0.26353592
0.26502408
0.26551057
0.26497863
0.26341238
0.26080405
0.25717855
0.14847588
0.15905438
0.17001171
0.18121588
0.19250983
0.20374303
0.21477321
0.22546708
0.23570216
0.24536836
0.25436847
0.26261807
0.27004501
0.27658857
0.28218998
0.28682355
0.29044753
0.29303533
0.29456562
0.29502034
0.29438271
0.29264498
0.28983376
0.15252389
0.16451287
0.17691833
0.18960874
0.20241236
0.2151671
0.22772279
0.23993992
0.25169041
0.2628589
0.27334325
0.28305458
0.29191665
0.29986504
0.30684583
0.31281563
0.31773882
0.32158665
0.32433617
0.32596806
0.32646501
0.32581933
0.15689179
0.17026342
0.18407551
0.19818853
0.21242946
0.22663342
0.24064637
0.25432504
0.26753798
0.28016685
0.29210691
0.30326694
0.31356865
0.32294577
0.33134295
0.33871455
0.34502338
0.35023939
0.35433841
0.35729996
0.35910585
0.35974771
0.16280818
0.17741613
0.19247492
0.20783887
0.22333786
0.23880802
0.25409526
0.26905654
0.28356112
0.29749158
0.3107441
0.32322828
0.33486639
0.34559249
0.35535129
0.36409689
0.37179159
0.37840474
0.38391136
0.38829012
0.39152209
0.39359848
0.17083549
0.1864837
0.2025751
0.21895853
0.23546974
0.25195028
0.26825117
0.28423465
0.29977547
0.3147615
0.32909384
0.34268643
0.35546532
0.36736765
0.37834057
0.38834004
0.39732959
0.40527929
0.41216444
0.41796357
0.4226575
0.42623744
0.18057434
0.19703987
0.21391931
0.23105891
0.24830387
0.26550554
0.28252449
0.29923258
0.31551399
0.33126567
0.34639712
0.36082995
0.37449703
0.38734147
0.39931554
0.41037944
0.42050019
0.42965057
0.43780785
0.44495195
0.45106468
0.45613817
0.19041561
0.20741083
0.22477694
0.2423652
0.2600321
0.27764099
0.29506442
0.31218612
0.32890197
0.34512009
0.36076052
0.37575455
0.39004387
0.40357944
0.41632046
0.42823313
0.43928957
0.44946684
0.45874572
0.46710894
0.47454076
0.48103536
0.19665573
0.21384092
0.23134994
0.24904732
0.26680235
0.28449207
0.30200258
0.31923094
0.3360859
0.35248783
0.36836829
0.38366921
0.39834201
0.41234639
0.4256492
0.43822328
0.45004639
0.46110022
0.47136929
0.48083939
0.48949748
0.49733959
0.1930648
0.20990044
0.22705243
0.2443937
0.26180681
0.27918201
0.29641767
0.31342208
0.33011445
0.34642514
0.3622959
0.37767889
0.39253521
0.40683337
0.4205479
0.43365814
0.44614711
0.45800057
0.469206
0.47975131
0.48962511
0.49882352
0.16677739
0.18266738
0.19894727
0.21550698
0.23223122
0.24901141
0.26574452
0.2823341
0.29869052
0.31473087
0.33041881
0.34572903
0.36064004
0.37513359
0.38919411
0.40280816
0.41596384
0.42865013
0.44085612
0.4525701
0.46378054
0.47448144
0.11021415
0.12318178
0.13665474
0.15049188
0.16461797
0.17897437
0.1935124
0.20818937
0.22296119
0.23778513
0.25261581
0.26740002
0.2820907
0.29664681
0.311034
0.32522366
0.33919313
0.35292422
0.36640256
0.37960758
0.39251024
0.40508785
0.053686047
0.061691764
0.070209679
0.079125069
0.088413237
0.098044492
0.10799498
0.11827147
0.12892445
0.13999536
0.15138088
0.16300012
0.1747927
0.18670289
0.19869177
0.2107288
0.22279045
0.23485472
0.24690062
0.2589206
0.27092359
0.28291295
0.023745492
0.027975878
0.032560941
0.037534485
0.042847422
0.048442979
0.054248116
0.060182819
0.066180781
0.072313218
0.078593464
0.085009351
0.091531036
0.098151402
0.1048706
0.11170538
0.11866914
0.12577466
0.13302614
0.14043421
0.14802027
0.15582259
0.017272145
0.019780906
0.022427351
0.025176517
0.027986507
0.030819118
0.03365864
0.036495998
0.039326652
0.042145486
0.044947417
0.047729034
0.050510634
0.053312036
0.056151689
0.059048567
0.062025078
0.065111193
0.068327863
0.071695341
0.075215557
0.078888324
0.017368769
0.019585962
0.021842005
0.024113741
0.026379596
0.028619375
0.030814827
0.032951638
0.035019989
0.037013526
0.038927525
0.040761201
0.042514337
0.044186145
0.045775868
0.047282636
0.048704038
0.050045676
0.051318647
0.052516058
0.053648
0.054736321
0.019133816
0.021553992
0.023973712
0.026357929
0.028673925
0.030893111
0.032992178
0.034952799
0.03676214
0.038413074
0.039904234
0.041239896
0.042429403
0.043486208
0.044426838
0.045269902
0.046035019
0.046731469
0.047366055
0.047943519
0.048469136
0.048949717
0.021081529
0.023634861
0.026134715
0.028547819
0.030845903
0.033006533
0.035013343
0.036855813
0.03852871
0.040031445
0.041367457
0.042543478
0.043568793
0.044454541
0.045213153
0.04585786
0.046402327
0.046858632
0.047238503
0.047553275
0.047813467
0.048028535
0.025035659
0.027805696
0.030418936
0.032844363
0.035061802
0.03706136
0.038842227
0.040411133
0.041776144
0.042946551
0.043937072
0.044765633
0.045451547
0.04601413
0.046471699
0.046840931
0.047136501
0.047372496
0.047560948
0.047711749
0.047832374
0.047928964
0.031005025
0.033931499
0.036501188
0.038708279
0.040567511
0.042106474
0.043359611
0.044363717
0.045159218
0.045786433
0.046279061
0.046664822
0.04696622
0.047201324
0.047384517
0.047527157
0.047638149
0.047724421
0.047791311
0.047842881
0.047882784
0.047913712
0.041930672
0.043349313
0.044427305
0.045248288
0.045874919
0.046353998
0.046720614
0.047001262
0.047216181
0.047380913
0.047507323
0.047604447
0.047679162
0.047736706
0.047781077
0.047815325
0.047841785
0.047862237
0.047878025
0.047890212
0.047899584
0.047906744
0.04739601
0.058238288
0.067951364
0.074240197
0.075288667
0.071253952
0.063900833
0.055451624
0.0478472
0.046847493
0.058192761
0.068688286
0.076144942
0.078624022
0.076099437
0.070113645
0.062712947
0.055417619
0.046128258
0.057928628
0.069237191
0.077940456
0.081992654
0.081135127
0.0766598
0.070443091
0.063912578
0.045043219
0.057278927
0.069437944
0.079473082
0.085248571
0.086247151
0.083491281
0.078687358
0.073300573
0.04340582
0.056044172
0.069110119
0.080540105
0.088199908
0.091268314
0.090481564
0.087357937
0.083399144
0.041066545
0.054036145
0.068013156
0.080899936
0.090591426
0.095946148
0.097387264
0.096213642
0.093891178
0.037939061
0.051100664
0.065910763
0.080281816
0.092109507
0.099941052
0.10384817
0.1048683
0.10436252
0.034120393
0.047216634
0.062651136
0.078454021
0.092417996
0.10285505
0.10942038
0.11284439
0.1142968
0.02996584
0.042638266
0.058318916
0.075310823
0.09126516
0.10430779
0.11363073
0.11959648
0.12312363
0.026130067
0.037997754
0.053404078
0.071064211
0.088696123
0.10411969
0.11612533
0.12463825
0.13030781
0.023241924
0.034139352
0.048828067
0.066508833
0.085195244
0.10253187
0.11690098
0.12781371
0.13561498
0.021440609
0.031524574
0.045392802
0.062653169
0.081715428
0.10031722
0.11654445
0.12948349
0.13916699
0.02075635
0.030417422
0.043738448
0.060542641
0.079571981
0.098781835
0.11619347
0.13061747
0.1417882
0.021037517
0.030712366
0.043956389
0.060643484
0.079685667
0.0992294
0.1173496
0.13273918
0.14494274
0.021708711
0.031773877
0.04545295
0.062570071
0.082040318
0.10207842
0.12081622
0.13692607
0.14986819
0.022723934
0.033457657
0.047956004
0.065958052
0.086294512
0.10714537
0.12664676
0.14347234
0.15705842
0.023910036
0.035509126
0.051085255
0.070278283
0.091801283
0.1137413
0.1341925
0.15182228
0.16606654
0.024609735
0.037131115
0.053860582
0.07435181
0.09719103
0.12035225
0.14186432
0.16036953
0.17530519
0.021907672
0.035046276
0.052703508
0.074427221
0.098645351
0.12315688
0.14586681
0.16536141
0.18107102
0.013209158
0.02524877
0.042906435
0.065416184
0.090824179
0.11655011
0.14037711
0.16081983
0.17728297
0.0048435946
0.010954149
0.022644507
0.040687631
0.063733614
0.088950761
0.11306927
0.13408655
0.151141
0.0016243527
0.0038068
0.0085797133
0.017072682
0.029994195
0.046588739
0.064897097
0.082163914
0.096884512
0.0010930272
0.0019074476
0.0035118813
0.0066299351
0.01203113
0.019664664
0.028449999
0.037479752
0.045717625
0.0011372955
0.0018345082
0.0029113932
0.0045101302
0.0067561077
0.0096634039
0.013052371
0.016623731
0.020008183
0.0012135844
0.0019624971
0.0030948546
0.004651698
0.0066012451
0.0088131805
0.011098085
0.013262488
0.015156186
0.0013667473
0.0021949732
0.0034278217
0.0051126395
0.0071886694
0.0094750805
0.011734538
0.013771157
0.015472773
0.0015567569
0.0024897024
0.0038783327
0.0057626588
0.0080604982
0.010568632
0.013031973
0.015236224
0.017063684
0.0018219169
0.002906953
0.0045031762
0.00663929
0.0092058289
0.011960904
0.014620998
0.016964624
0.018881455
0.0024259046
0.00382084
0.0058346546
0.0084745621
0.011573012
0.014817754
0.017872808
0.020498741
0.022600087
0.0034128598
0.0053070843
0.0079887366
0.011418358
0.015329698
0.019307466
0.022945184
0.025964486
0.028298957
0.0090551457
0.013316859
0.018573536
0.024218374
0.029458689
0.033707894
0.036807306
0.038947695
0.040382525
0.036819039
0.036028715
0.035178698
0.033997952
0.03232409
0.030051167
0.027144944
0.023783376
0.020364154
0.017470378
0.015470138
0.014287614
0.013859369
0.014057495
0.014407071
0.014905712
0.015429469
0.015441577
0.012457764
0.0059760731
0.0019313845
0.0007307431
0.00063891106
0.0006769086
0.00072671034
0.0008170121
0.00093780719
0.0010942694
0.0014700342
0.0020890649
0.005743696
0.026530418
0.025670664
0.024880996
0.023803705
0.022319342
0.020367273
0.017951439
0.015298361
0.012787511
0.010853456
0.0096131513
0.0088903359
0.008612956
0.0086964807
0.0087888899
0.0088910771
0.0089100315
0.0084180406
0.0056217603
0.0020285357
0.00059161763
0.00033162777
0.00034068054
0.00035794444
0.00038534169
0.00042978261
0.00049714011
0.00057387928
0.00076993074
0.0010980244
0.0030261518
0.016820848
0.016017485
0.015424166
0.014586062
0.013457671
0.012014082
0.01028939
0.0085100486
0.0069763999
0.0059157005
0.0052670977
0.0048681029
0.0046833687
0.0046609305
0.0045839431
0.004437043
0.0041491944
0.0033728135
0.001555501
0.00044902372
0.00015441286
0.00013758994
0.00014831837
0.00015467219
0.00016669317
0.00018482485
0.00021544485
0.0002472889
0.00032776148
0.00046834769
0.0012413698
0.0084960348
0.0079011938
0.0075624957
0.0070264333
0.0063518726
0.005506658
0.0045628005
0.0036646766
0.0029913383
0.0025677552
0.0022990036
0.0021031966
0.0019851525
0.0018972857
0.001751998
0.0015265927
0.0011685923
0.00057953671
0.00016275696
4.7549392e-05
3.49969e-05
3.8935503e-05
4.1404346e-05
4.4713766e-05
4.7892766e-05
5.4069032e-05
6.3113853e-05
7.4693579e-05
9.7178465e-05
0.00013955319
0.00033511227
0.0025854938
0.0023217247
0.0022062069
0.0019528533
0.0017224518
0.0014144823
0.0011454529
0.00090908058
0.0007661185
0.00066131285
0.00058958558
0.0005166749
0.00046581298
0.00038976761
0.00027619406
0.00016172401
8.6285981e-05
2.5771621e-05
4.8732409e-06
2.8702258e-06
3.0182366e-06
3.4127832e-06
3.8296188e-06
4.225059e-06
4.7680442e-06
5.6025812e-06
7.0781353e-06
9.0958809e-06
1.2961964e-05
2.0306039e-05
4.3893461e-05
0.00015031691
0.00013769677
0.00012543624
0.00011030108
9.5421169e-05
8.0373468e-05
6.8176254e-05
5.8993918e-05
5.2722738e-05
4.7482613e-05
4.2617587e-05
3.7493375e-05
3.1817203e-05
2.4618552e-05
1.6492799e-05
9.5481589e-06
4.9414501e-06
2.2960377e-06
1.3835921e-06
7.6009237e-07
4.8838906e-07
3.8621943e-07
3.3875947e-07
3.06976e-07
2.7052977e-07
2.1858909e-07
1.7070986e-07
1.6677402e-07
1.8810928e-07
3.7697551e-07
1.2842459e-06
)
;

boundaryField
{
    Side1
    {
        type            empty;
    }
    Inlet
    {
        type            calculated;
        value           uniform 0.047769987;
    }
    Side2
    {
        type            empty;
    }
    Outlet
    {
        type            zeroGradient;
    }
    Botwall
    {
        type            compressible::alphatWallFunction;
        value           nonuniform List<scalar> 
59
(
2.420594e-05
2.3565878e-05
2.2870509e-05
2.2128649e-05
1.5548888e-05
1.5243563e-05
1.4991686e-05
1.4791306e-05
1.4538288e-05
1.4330939e-05
1.4021131e-05
1.3608073e-05
1.3233241e-05
1.2887876e-05
1.2628803e-05
1.2475065e-05
1.2479682e-05
1.259937e-05
1.288867e-05
1.3344525e-05
1.3969578e-05
1.4775656e-05
1.5760487e-05
1.6938921e-05
1.8299544e-05
1.9873216e-05
2.1614203e-05
2.3715327e-05
1.4659413e-05
1.2540185e-05
1.0469342e-05
7.8940195e-06
5.3347352e-06
2.7071355e-06
5.3292119e-07
0
0
0
0
0
0
0
0
0
0
0
0
0
0
0
0
0
0
0
0
0
0
0
0
)
;
    }
    Cyli
    {
        type            compressible::alphatWallFunction;
        value           nonuniform List<scalar> 
76
(
5.6841355e-05
5.3376229e-05
5.0219962e-05
4.7351382e-05
4.4793852e-05
4.244482e-05
4.040338e-05
3.8477338e-05
3.6884317e-05
3.5317294e-05
3.4037551e-05
3.3117504e-05
3.2194984e-05
3.1359967e-05
3.0472236e-05
2.963098e-05
2.8905684e-05
2.7751105e-05
2.6098465e-05
2.3689293e-05
2.0724728e-05
1.4119012e-05
1.2693892e-06
0
0
0
0
0
0
0
0
0
0
0
0
0
0
0
0
0
0
0
0
0
0
0
0
0
6.1886053e-05
6.217709e-05
6.2359581e-05
6.2500468e-05
6.2613959e-05
6.2640048e-05
6.2093836e-05
6.169487e-05
6.116994e-05
6.0514139e-05
6.0086421e-05
6.0677371e-05
5.9066024e-05
5.9220335e-05
5.9573241e-05
5.9903705e-05
6.008272e-05
6.0139688e-05
6.0408658e-05
6.0155631e-05
5.9879414e-05
5.9673555e-05
5.9381547e-05
5.9318845e-05
2.1858547e-06
1.7098401e-05
6.1102065e-05
6.1532754e-05
)
;
    }
    procBoundary0to1
    {
        type            processor;
        value           nonuniform List<scalar> 
44
(
0.0030972559
0.0030972559
0.0019524148
0.0013655175
0.0013655175
0.0018264644
0.0018264644
0.0029703235
0.0037870428
0.0037870428
0.0043008346
0.0043008346
0.0049266922
0.0053602276
0.0052545162
0.0052545162
0.0054471003
0.0055057038
0.0054396109
0.0052374429
0.0049013634
0.0049013634
0.0047918409
0.0041639181
0.0033370343
0.0033370343
0.0025565921
0.017473615
0.014958784
0.0076170439
0.010961337
0.014558899
0.017540075
0.019007699
0.017473615
0.018712984
0.0076170439
0.005274425
0.012252443
0.0094279708
0.0065639275
0.0038544404
0.0015475393
0.00019045825
)
;
    }
    procBoundary0to2
    {
        type            processor;
        value           nonuniform List<scalar> 
55
(
0.0020335241
0.0024053217
0.0027727403
0.003137048
0.0035015285
0.00074514728
0.0015260909
0.00030611962
0.00074514728
0.00073190849
0.01011873
0.028457443
0.018261833
0.028457443
0.039193778
0.00030611962
0.0002706537
0.0002706537
0.00021935675
0.00043730567
0.0037051482
0.0037051482
0.01011873
0.049024221
0.059179298
0.07135569
0.085672799
0.10222901
0.12110738
0.14240225
0.16618186
0.19248953
0.22132935
0.25255409
0.2859659
0.32404278
0.32404278
0.35923272
0.39452282
0.42870344
0.46016861
0.48658359
0.50434787
0.50731626
0.4846284
0.41727478
0.29484942
0.1638871
0.082714863
0.0557989
0.049389946
0.048206931
0.048006438
0.04793824
0.047912564
)
;
    }
    procBoundary0to3
    {
        type            processor;
        value           nonuniform List<scalar> 7(0.0014992786 0.0014992786 0.00091898772 0.00091898772 0.0011873957 0.0011873957 0.0022626016);
    }
}


// ************************************************************************* //
