/*--------------------------------*- C++ -*----------------------------------*\
| =========                 |                                                 |
| \\      /  F ield         | OpenFOAM: The Open Source CFD Toolbox           |
|  \\    /   O peration     | Version:  2406                                  |
|   \\  /    A nd           | Website:  www.openfoam.com                      |
|    \\/     M anipulation  |                                                 |
\*---------------------------------------------------------------------------*/
FoamFile
{
    version     2.0;
    format      ascii;
    arch        "LSB;label=32;scalar=64";
    class       volScalarField;
    location    "0.01";
    object      p;
}
// * * * * * * * * * * * * * * * * * * * * * * * * * * * * * * * * * * * * * //

dimensions      [1 -1 -2 0 0 0 0];

internalField   nonuniform List<scalar> 
2065
(
100324.2
100335.5
100343.07
100348.43
100352.58
100338.62
100343.51
100349.07
100352.5
100353.99
100347.31
100346.96
100347.12
100346.28
100339.32
100337.48
100335.92
100329.89
100328.82
100327.05
100322.79
100322.11
100318.79
100317.39
100317.73
100306.99
100303.6
100301.91
100303.43
100302.61
100308.51
100306.37
100316.73
100313.85
100311.42
100314.01
100313.53
100314.2
100314.99
100301.7
100307.03
100312.19
100316.39
100319.63
100319.99
100292.77
100258.05
100224.14
100195.9
100173.91
100156.08
100140.85
100127.62
100329.14
100303.41
100272.41
100242.97
100218.45
100197.14
100179.76
100164.96
100152.28
100331.25
100308.2
100283.9
100259.06
100237.18
100218.65
100202.68
100188.83
100177.01
100336.74
100318.52
100298.98
100277.91
100258
100241.03
100226.17
100213.2
100202.19
100343.41
100329.62
100313.58
100295.55
100278.01
100262.55
100248.88
100349.2
100113.42
100098.18
100083.68
100070.89
100061.2
100054.33
100138.92
100125.18
100112.24
100100.93
100092.58
100087.2
100164.68
100152.09
100140.31
100130.05
100122.31
100117.17
100190.81
100179.19
100168.29
100158.74
100151.4
100146.42
101587.79
101671.13
101754.51
101827.95
101877.57
101899.42
101438.55
101523.9
101607.39
101679.7
101729.28
101751.46
101277.05
101362.88
101445.1
101515.97
101565.79
101590.55
101104.4
101189.26
101269.24
101337.92
101386.87
101411.41
100922.29
101003.75
101079.25
101143.4
101189.71
101212.44
100732.04
100808.04
100877.64
100937.63
100981.18
101004.22
100544.43
100616
100681.39
100737.06
100777.68
100802.89
100359.83
100425.32
100484.36
100533.83
100569.13
100591.02
100182.53
100239.98
100290.94
100332.81
100361.88
100379.12
100021.18
100070.19
100112.93
100147.6
100171.4
100185.2
99883.85
99924.576
99959.456
99987.384
100006.53
100017.47
99775.417
99807.626
99834.673
99855.949
99870.318
99878.548
99699.868
99723.692
99743.351
99758.81
99769.402
99775.37
99659.853
99674.35
99685.173
99692.752
99697.486
99700.216
99643.866
99654.05
99661.407
99666.32
99669.029
99670.175
99654.366
99659.692
99662.525
99663.548
99663.481
99662.947
99685.361
99685.213
99683.302
99680.393
99677.433
99675.013
99729.771
99725.349
99719.802
99714.02
99709.044
99705.333
99784.515
99776.486
99767.901
99759.726
99753.105
99748.334
99844.728
99833.871
99822.914
99812.829
99804.819
99799.165
99906.385
99893.458
99880.824
99869.492
99860.7
99854.536
99966.016
99951.819
99938.125
99925.837
99916.227
99909.505
100022.96
100007.71
99993.24
99980.547
99970.849
99964.181
100071.36
100057.01
100043.18
100030.61
100020.45
100012.92
101858.45
101710.66
101568.27
101433.86
101342.43
101311.36
101339.62
101411.32
101501.45
101552.27
101427.29
101300.73
101196.61
101133.76
101125.24
101170.96
101253.67
101349.79
101214.58
101130.22
101035.54
100961.42
100925.11
100937.56
100997.05
101087.06
101186.43
100878.85
100830.47
100769.9
100726.24
100714.93
100746.1
100816.86
100912.36
101013.69
100544.26
100528.75
100502.21
100489.53
100503.4
100552.07
100632.65
100732.03
100833.43
100216.97
100232.32
100238.99
100256.56
100294.75
100359.48
100447.92
100548.81
100647.47
99905.226
99950.305
99988.436
100034.26
100094.67
100173.4
100267.9
100368.85
100464.02
99622.818
99692.409
99758.241
99829.257
99908.87
99998.841
100096.96
100195.69
100285.31
99369.805
99462.234
99553.639
99647.076
99742.631
99840.908
99940.014
100033.99
100115.89
99174.74
99277.339
99385.346
99495.165
99602.286
99705.711
99803.123
99890.288
99963.201
98946.083
99078.065
99229.155
99366.047
99487.632
99596.974
99691.82
99771.225
99834.666
98900.916
99035.698
99159.326
99283.624
99407.115
99520.448
99611.152
99682.171
99735.536
98855.75
98997.889
99143.951
99286.744
99402.244
99488.709
99564.401
99626.101
99669.304
98870.632
99008.456
99150.542
99286.028
99404.299
99500.366
99567.925
99610.713
99639.786
98940.929
99065.19
99194.094
99317.138
99425.114
99509.18
99567.121
99604.753
99628.696
99063.243
99168.887
99279.155
99386.84
99478.989
99548.834
99597.138
99627.476
99644.667
99223.611
99304.575
99392.425
99480.161
99555.931
99613.002
99650.674
99671.948
99681.771
99409.949
99463.395
99524.387
99588.835
99646.024
99688.712
99715.102
99727.759
99731.161
99610.218
99633.66
99665.364
99704.931
99742.612
99770.774
99786.632
99791.853
99790.002
99805.829
99801.252
99805.02
99820.534
99839.444
99853.999
99860.506
99859.471
99853.431
99976.732
99952.023
99933.76
99928.865
99931.329
99933.968
99932.6
99926.595
99917.432
100114.22
100076.63
100043.46
100023.82
100013.78
100007.08
99999.525
99989.813
99978.533
100213.73
100177.64
100138.02
100108.08
100087.92
100073.72
100061.48
100049.19
100036.5
100266.02
100227.48
100189.09
100159.27
100136.95
100121.02
100108.12
100096.07
100084.2
101868.69
102023.87
102059.92
102054.63
102042.18
102025.94
101374.81
101560.79
101615.53
101636.45
101652.53
101668.52
100885.98
101099.86
101171.77
101218.94
101259.37
101297.65
100407.05
100644.86
100736.59
100806.19
100869.41
100929.8
99945.252
100202.69
100311.63
100399.66
100483.54
100564.3
99507.875
99780.946
99903.018
100008.89
100109.37
100208.35
99102.887
99388.308
99521.897
99642.139
99757.742
99869.7
98739.115
99033.087
99179.119
99310.741
99438.072
99560.27
98432.862
98732.098
98881.976
99020.029
99154.949
99284.639
98170.173
98486.393
98654.688
98801.733
98943.688
99078.03
97989.031
98354.517
98484.151
98589.815
98713.393
98840.988
97884.953
98122.982
98234.765
98405.693
98579.555
98748.685
97665.525
98005.406
98191.159
98374.882
98549.857
98709.556
97628.024
98061.559
98249.074
98413.571
98574.711
98726.475
97817.107
98212.782
98352.298
98499.589
98656.258
98804.07
98080.075
98394.318
98518.644
98655.599
98802.033
98939.001
98366.933
98631.063
98749.208
98871.638
99001.112
99121.044
98692.534
98915.397
99021.857
99130.019
99237.564
99333.88
99094.603
99268.378
99340.922
99415.308
99492.894
99563.554
99528.456
99632.255
99667.498
99704.543
99747.594
99788.607
99902.984
99961.928
99960.398
99958.383
99967.764
99981.905
100169.34
100201.93
100180.3
100155.4
100141.49
100134.62
100281.51
100289.42
100276.73
100259.82
100244.52
100231.31
100295.69
100300.26
100303.62
100301.17
100297.26
100289.1
100288.89
100309.67
100312.01
100314.66
100312.57
100316.85
100303.71
100308.98
100312.68
100316.16
100321.75
100339.04
100308.99
100311.92
100314.24
100318.7
100325.45
100348.52
100310.96
100314.73
100316.68
100320.55
100327.28
100341.64
100311.86
100315.11
100317.11
100319.8
100323.89
100330.22
100313.81
100316.26
100317.4
100318.88
100320.79
100323.48
100317.81
100319.07
100319.06
100319.23
100319.48
100320.22
100324.01
100323.31
100322.01
100320.72
100320.01
100319.5
100331.66
100329.19
100325.91
100322.92
100320.86
100319.67
100340.34
100336.31
100330.83
100326
100322.76
100320.96
100348.92
100342.91
100336.06
100329.44
100324.74
100321.96
100354.68
100344.51
100337.17
100330.29
100325.23
100322.07
100351.86
100343.2
100335.5
100328.56
100323.58
100320.54
100344.26
100338.31
100331.5
100325.13
100320.55
100317.72
100333.58
100329.49
100324.2
100319.38
100315.76
100313.45
100321.78
100319.37
100315.96
100312.7
100310.27
100308.72
100311.4
100310.37
100308.78
100307.12
100305.93
100305.37
100303.4
100303.92
100303.57
100303.24
100303.04
100303.57
100297.81
100299.4
100299.89
100300.55
100302.04
100304.63
100294.53
100296.66
100297.84
100299.49
100303.58
100311.44
100292.74
100295.27
100296.88
100298.98
100303.5
100318.8
100291.44
100294.23
100296.81
100298.53
100301.93
100316.92
100288.12
100292.59
100295.16
100297.29
100295.82
100300.85
100283.46
100285.81
100287.9
100283.5
102274.73
102401.72
102435.1
102412.06
102829.13
102913.72
102915.52
102862.47
102781.64
102683.43
103366
103410.02
103379.92
103295.79
103185.57
103055.61
103878.85
103881.64
103818.72
103703.83
103565.69
103410.68
104349.85
104312.65
104217.55
104074.09
103911.11
103737.41
104748.43
104687.16
104566.2
104401.78
104218.57
104028.89
105096.71
105032.37
104887.21
104701.74
104502.38
104293.1
105408.76
105326.54
105163.16
104959.84
104739.68
104514.65
105661.46
105561.51
105384.76
105162.48
104927.36
104690.89
105855.8
105744.88
105552.27
105314.78
105067.64
104821.83
105985.87
105853.22
105651.77
105410.29
105158.63
104907.61
106044.29
105856.94
105654.41
105427.01
105185.26
104939.02
106001.26
105876.85
105674.32
105431.54
105179.99
104929.97
105916.55
105802.46
105609.93
105371.77
105122.89
104875.51
105750.7
105644.18
105460.33
105238.96
105004.23
104767.96
105529.81
105435.5
105263.32
105054.36
104836.71
104613.69
105260.75
105185.4
105032.04
104836.21
104633.15
104429.25
104943.83
104885.75
104753.88
104579.7
104394.41
104201.45
104603.45
104548.95
104439.33
104289.58
104122.38
103941.6
104229.2
104196.32
104109.3
103978.29
103826.52
103660.99
103799.64
103801.21
103741
103632.88
103501.81
103356.46
103339.39
103375.21
103341.77
103258.55
103151.05
103028.04
102863.76
102933.06
102925.14
102866.43
102782.63
102687.42
102371.24
102475.2
102489.38
102450.67
102386.88
102333.92
100268.87
100278.01
100177.28
101150.18
101713.29
101883.51
102505.16
102755.34
103039.3
103324.98
103589.23
103833.34
104054.66
104254.48
104415.51
104548.73
104640.07
104689.76
104700.84
104672.36
104600.89
104490.58
104341.27
104154.83
103930.39
103675.18
103392.39
103085.56
102775.02
102597.95
102772.79
103029.76
103286.02
103519.86
103734.77
103923.44
104085.8
104224.69
104336.22
104411.87
104455.11
104464.71
104439.01
104379.5
104286.84
104160.88
104003.68
103813.9
103597.24
103349.9
103075.8
102795.59
102667.58
102801.73
103031.43
103251.08
103449.14
103625.62
103785.57
103917.4
104031.54
104121.21
104182.83
104219.29
104227
104205.91
104158.39
104083.52
103980.91
103851.21
103698.35
103520.42
103313.43
103079.61
102831.8
102716.6
102823.4
103019.94
103204.29
103367.59
103510.8
103635.17
103745.57
103838.44
103909.48
103959.59
103989.25
103995.01
103978.53
103941.1
103881.64
103800.03
103696.85
103574.95
103426.95
103260.85
103067.62
102858.64
102748.68
102832.44
102996.85
103149.06
103278.19
103390.52
103490.57
103579.02
103651.62
103707.29
103747.33
103769.92
103773.99
103761.3
103731.8
103684.88
103620.43
103538.28
103439.51
103325.88
103193.6
103037.27
102865.23
102766.81
102833.28
102967.95
103084.83
103182.91
103271.93
103351.68
103420.11
103475.6
103518.81
103549.15
103565.38
103568.1
103557.86
103534.35
103497.41
103446.99
103382.98
103305.71
103216.72
103113.99
102992
102853.81
102778.24
102829.31
102928.17
103013.7
103090.56
103160.34
103221.46
103272.8
103314.73
103346.85
103368.3
103379.4
103380.4
103371.22
103351.83
103322.23
103282.4
103232.34
103172.16
103102.4
103022.6
102929.69
102825.31
102783.59
102808.59
102878.47
102945.52
103005.4
103057.87
103102.91
103140.98
103171.3
103193.45
103207.77
103214.26
103212.86
103203.66
103186.74
103162.14
103129.85
103089.88
103042.3
102987.18
102923.92
102851.06
102773.99
102768.55
102775.78
102829.56
102882.76
102927.81
102966.37
102999.22
103025.83
103046.27
103060.52
103068.57
103070.5
103066.4
103056.4
103040.63
103019.14
102991.92
102958.98
102920.33
102875.62
102823.56
102764.37
102711.06
102741.54
102751.09
102789.46
102828.36
102861.31
102888.36
102910.46
102927.66
102939.86
102947.12
102949.55
102947.29
102940.48
102929.26
102913.77
102894.1
102870.27
102842.33
102810.28
102773.65
102730.75
102681.83
102642.79
102729.5
102730.55
102756.62
102782.79
102804.26
102821.26
102834.29
102843.43
102848.66
102850.05
102847.73
102841.86
102832.6
102820.11
102804.51
102785.93
102764.44
102740.1
102712.99
102682.74
102647.92
102608.82
102579.18
102715.29
102706.58
102717.99
102734.34
102747.91
102757.58
102763.82
102766.88
102766.83
102763.78
102757.9
102749.33
102738.27
102724.85
102709.22
102691.5
102671.79
102650.18
102626.74
102601.21
102572.4
102540.96
102519.5
102680.96
102670.14
102673.35
102682.3
102689.37
102693.11
102694
102692.4
102688.45
102682.26
102673.97
102663.76
102651.75
102638.09
102622.91
102606.3
102588.36
102569.18
102548.85
102527.13
102503.01
102477.31
102627.1
102618.32
102617.7
102620.27
102621.43
102620.34
102617.32
102612.6
102606.27
102598.4
102589.1
102578.47
102566.61
102553.64
102539.65
102524.72
102508.94
102492.4
102475.16
102457.03
102437.14
102416.4
102548.06
102541.81
102538.94
102537.52
102535.31
102531.79
102527.07
102521.24
102514.35
102506.43
102497.54
102487.77
102477.17
102465.84
102453.83
102441.23
102428.09
102414.51
102400.55
102386.01
102370.17
102354.03
102446.77
102443.22
102439.89
102436.82
102433.3
102429.09
102424.17
102418.56
102412.26
102405.3
102397.73
102389.58
102380.91
102371.76
102362.18
102352.23
102341.96
102331.42
102320.69
102309.55
102297.33
102285.11
102329.67
102328.54
102325.81
102322.54
102319.04
102315.26
102311.1
102306.53
102301.56
102296.19
102290.45
102284.35
102277.94
102271.25
102264.32
102257.17
102249.85
102242.42
102234.91
102227.12
102218.43
102209.93
102202.95
102204.15
102202.82
102200.46
102197.94
102195.33
102192.54
102189.49
102186.19
102182.63
102178.85
102174.85
102170.66
102166.32
102161.84
102157.27
102152.62
102147.97
102143.34
102138.53
102132.99
102127.84
102076.7
102079.7
102079.87
102078.76
102077.49
102076.22
102074.85
102073.31
102071.6
102069.71
102067.67
102065.49
102063.19
102060.79
102058.32
102055.79
102053.24
102050.71
102048.23
102045.6
102042.38
102039.62
101957.43
101961.73
101963.26
101963.46
101963.51
101963.59
101963.6
101963.48
101963.22
101962.82
101962.31
101961.68
101960.96
101960.17
101959.32
101958.43
101957.53
101956.66
101955.83
101954.88
101953.43
101952.5
101853.05
101857.9
101860.4
101861.8
101863.08
101864.41
101865.68
101866.83
101867.84
101868.7
101869.42
101870
101870.47
101870.84
101871.11
101871.32
101871.47
101871.59
101871.7
101871.67
101871.23
101871.27
101771.82
101775.95
101778.78
101781.04
101783.25
101785.47
101787.63
101789.7
101791.68
101793.55
101795.32
101796.95
101798.46
101799.82
101801.05
101802.16
101803.16
101804.07
101804.87
101805.48
101805.72
101806.25
101731.6
101732.73
101733.47
101734.05
101734.67
101735.39
101736.18
101737.04
101737.99
101739.02
101740.13
101741.29
101742.49
101743.72
101745.01
101746.35
101747.69
101749
101750.27
101751.44
101752.42
101753.65
101718.93
101718.73
101718.63
101718.61
101718.67
101718.82
101719.05
101719.33
101719.67
101720.05
101720.46
101720.89
101721.3
101721.63
101721.85
101722.02
101722.23
101722.52
101722.87
101723.27
101723.69
101724.29
101708.6
101708.39
101708.19
101708.03
101707.91
101707.8
101707.67
101707.53
101707.4
101707.29
101707.2
101707.14
101707.09
101707.05
101707.04
101707.05
101707.08
101707.16
101707.31
101707.51
101707.72
101707.99
101685.98
101685.63
101685.26
101684.92
101684.62
101684.36
101684.13
101683.93
101683.77
101683.62
101683.48
101683.35
101683.24
101683.16
101683.11
101683.08
101683.1
101683.21
101683.38
101683.53
101683.64
101683.75
101664.12
101663.78
101663.43
101663.09
101662.77
101662.46
101662.16
101661.87
101661.59
101661.32
101661.08
101660.84
101660.63
101660.43
101660.25
101660.09
101659.96
101659.85
101659.77
101659.71
101659.67
101659.67
101640.86
101640.64
101640.4
101640.17
101639.95
101639.75
101639.55
101639.36
101639.19
101639.03
101638.88
101638.74
101638.61
101638.49
101638.39
101638.3
101638.22
101638.15
101638.1
101638.06
101638.02
101638
101624.83
101624.68
101624.52
101624.36
101624.19
101624.02
101623.85
101623.68
101623.51
101623.34
101623.18
101623.01
101622.85
101622.7
101622.55
101622.4
101622.26
101622.13
101622
101621.88
101621.76
101621.65
101613.91
101613.82
101613.71
101613.59
101613.46
101613.33
101613.19
101613.05
101612.9
101612.74
101612.58
101612.41
101612.24
101612.07
101611.89
101611.71
101611.53
101611.34
101611.16
101610.98
101610.8
101610.62
101605.36
101605.21
101605.06
101604.9
101604.73
101604.55
101604.36
101604.16
101603.95
101603.72
101603.49
101603.25
101603
101602.74
101602.47
101602.19
101601.9
101601.6
101601.27
101600.94
101600.62
101600.3
101620.07
101534.23
101466.36
101440.97
101470.83
101563.55
101698.75
101828.96
101965.48
101723.16
101641.93
101578.1
101554.29
101584.65
101678.45
101820.57
101969.68
102092.8
101830.05
101755.54
101695.29
101669.04
101696.67
101785.35
101922.84
102072.34
102185.93
101940.29
101871.99
101815.15
101787.56
101810.34
101890.27
102015.86
102153.35
102257.51
102050.01
101988.81
101935.99
101908.03
101924.79
101993.24
102102.84
102223.7
102317.09
102155.42
102102.6
102055.06
102027.72
102038.24
102093.64
102184.98
102287.3
102368.09
102252.36
102209.29
102168.67
102143.59
102148.76
102191.08
102263.75
102347.33
102415.63
102336.72
102304.33
102272.39
102252.02
102253.91
102285.22
102341.84
102409.66
102469.28
102405.64
102385.3
102363.98
102350.32
102353.15
102379.74
102429.27
102484.36
102524.35
102454.02
102447.72
102441.65
102439.53
102448.14
102472
102506.62
102536.9
102547.91
102477.78
102483.05
102487.53
102490.78
102498.7
102513.56
102533.29
102557.05
102576.06
102470.78
102477.45
102488.51
102506.24
102529.02
102555.48
102583.12
102604.45
102613.08
102453.4
102466.98
102485.11
102507.55
102533.71
102562.22
102590.15
102611.02
102617.73
102405.23
102421.47
102443.18
102469.64
102499.22
102529.46
102557.49
102579.22
102589.89
102337.55
102355.28
102378.65
102406.53
102436.89
102466.94
102494.08
102515.99
102529.73
102248.68
102267.25
102291.19
102319.07
102348.92
102377.83
102403.55
102425.07
102440.75
102144.28
102162.78
102186.5
102214.08
102242.83
102269.88
102293.86
102314.48
102330.93
102032.53
102050.08
102072.44
102098.11
102124.84
102150.27
102172.43
102191.46
102207.65
101927.99
101943
101962.35
101984.77
102008.26
102030.48
102049.99
102067.29
102082.5
101834.78
101845.7
101861.19
101879.74
101899.37
101918.08
101934.62
101949.45
101962.9
101770.09
101773.05
101779.74
101790.76
101804.88
101819.68
101833.26
101845.54
101856.75
101739.75
101739.89
101740.62
101742.49
101746.07
101751.54
101758.28
101765.52
101772.59
101726.97
101726.91
101726.88
101726.95
101727.26
101727.89
101728.88
101730.28
101731.97
101718.82
101718.89
101718.95
101719.03
101719.12
101719.2
101719.28
101719.38
101719.4
101705.83
101706.04
101706.33
101706.69
101707.11
101707.54
101707.96
101708.35
101708.64
101684.41
101684.54
101684.72
101684.95
101685.2
101685.46
101685.72
101685.97
101686.15
101663.62
101663.68
101663.76
101663.86
101663.96
101664.07
101664.17
101664.28
101664.37
101640.34
101640.39
101640.48
101640.58
101640.67
101640.76
101640.84
101640.94
101641.02
101624.84
101624.85
101624.86
101624.88
101624.91
101624.93
101624.94
101624.95
101624.96
101613.98
101613.99
101614.01
101614.02
101614.03
101614.03
101614.02
101614.01
101614.01
101604.88
101604.97
101605.05
101605.15
101605.26
101605.38
101605.51
101605.61
101605.59
101705.68
101807.21
101908.8
102011.82
102112.59
102207.74
102293.29
102365.6
102422.52
102459.48
102474.99
102466.55
102443.92
102393.87
102324.84
102235.27
102130.59
102019.38
101916.92
101828.41
101769.18
101739.87
101727.04
101718.79
101705.69
101684.33
101663.58
101640.29
101624.82
101613.96
101604.76
101785.07
101881.36
101977.19
102073.01
102165.01
102250.28
102325.19
102386.84
102433.77
102462.54
102472.98
102463.1
102436.71
102385.38
102315.3
102225.34
102120.37
102009.55
101909.33
101825.72
101769.2
101740.1
101727.14
101718.79
101705.61
101684.31
101663.6
101640.28
101624.83
101613.96
101604.7
101865.68
101955.41
102043.79
102131.11
102213.47
102288.24
102352.29
102403.96
102442.28
102465.06
102471.66
102460.72
102431.16
102378.88
102307.98
102217.76
102112.71
102002.55
101905.1
101825.12
101769.41
101740.29
101727.21
101718.8
101705.55
101684.29
101663.61
101640.28
101624.85
101613.98
101604.63
101937.62
102020.38
102101.06
102179.8
102252.79
102317.76
102372.1
102415.63
102447.86
102466.95
102470.83
102459.22
102427.14
102374.37
102302.97
102212.73
102108.06
101998.92
101903.79
101825.26
101769.63
101740.41
101727.27
101718.8
101705.51
101684.28
101663.61
101640.27
101624.82
101613.92
101604.51
101986.03
102063.21
102138.3
102210.31
102276.69
102334.9
102382.94
102421.61
102451.06
102468.15
102470.16
102458.31
102424.77
102371.96
102300.48
102210.43
102106.26
101997.97
101903.86
101825.47
101769.77
101740.5
101727.3
101718.81
101705.48
101684.28
101663.62
101640.27
101624.85
101614.01
101605.58
102010.75
102084.77
102155.99
102224.33
102287.32
102342.18
102387.41
102423.66
102452.02
102468.59
102470.15
102458.13
102424.09
102371.35
102299.93
102209.9
102105.86
101997.98
101904.05
101825.63
101769.81
101740.54
101727.31
101718.81
101705.48
101684.27
101663.62
101640.27
101624.83
101613.93
101602.33
)
;

boundaryField
{
    Side1
    {
        type            empty;
    }
    Inlet
    {
        type            totalPressure;
        rho             rho;
        psi             none;
        gamma           1;
        p0              uniform 102920.87;
        value           uniform 101328.54;
    }
    Side2
    {
        type            empty;
    }
    Outlet
    {
        type            freestreamPressure;
        freestreamValue nonuniform List<scalar> 0();
        value           nonuniform List<scalar> 0();
    }
    Botwall
    {
        type            zeroGradient;
    }
    Cyli
    {
        type            zeroGradient;
    }
    procBoundary0to1
    {
        type            processor;
        value           nonuniform List<scalar> 
44
(
100355.93
100355.93
100354.91
100344.88
100344.88
100334.12
100334.12
100324.86
100320.98
100320.98
100318.39
100318.39
100316.99
100317.32
100319.24
100319.24
100320.42
100320.31
100318.81
100315.88
100311.59
100311.59
100307.09
100303.51
100301.47
100301.47
100300.99
100236.92
100226.78
100338.65
100325.68
100310.76
100295.95
100282.45
100236.92
100270.32
100338.65
100353.45
100216.42
100205.84
100195.9
100187.17
100180.41
100175.79
)
;
    }
    procBoundary0to2
    {
        type            processor;
        value           nonuniform List<scalar> 
55
(
100283
100292.93
100300.14
100307.19
100314.01
100278
100277.03
100264.11
100278
100246.36
101946.87
102361.24
101958.47
102361.24
102309.84
100264.11
100209.49
100209.49
99951.242
100596.63
101363.95
101363.95
101946.87
102489.69
102590.96
102668.47
102731.01
102769.86
102782.33
102773.44
102743.97
102696.46
102644.81
102584.47
102529.18
102461.19
102461.19
102404.77
102346.78
102281.57
102209.85
102130.76
102044.25
101957.98
101876.47
101810.43
101756.98
101725.74
101708.42
101683.91
101659.7
101638
101621.54
101610.44
101599.97
)
;
    }
    procBoundary0to3
    {
        type            processor;
        value           nonuniform List<scalar> 7(100304.42 100304.42 100309.09 100309.09 100315.44 100315.44 100322.42);
    }
}


// ************************************************************************* //
