/*--------------------------------*- C++ -*----------------------------------*\
| =========                 |                                                 |
| \\      /  F ield         | OpenFOAM: The Open Source CFD Toolbox           |
|  \\    /   O peration     | Version:  2406                                  |
|   \\  /    A nd           | Website:  www.openfoam.com                      |
|    \\/     M anipulation  |                                                 |
\*---------------------------------------------------------------------------*/
FoamFile
{
    version     2.0;
    format      ascii;
    arch        "LSB;label=32;scalar=64";
    class       volScalarField;
    location    "0.014";
    object      omega;
}
// * * * * * * * * * * * * * * * * * * * * * * * * * * * * * * * * * * * * * //

dimensions      [0 0 -1 0 0 0 0];

internalField   nonuniform List<scalar> 
92813
(
21428.49
19308.733
17403.375
15707.147
14198.341
12853.967
11653.42
10578.942
9615.2825
8749.3161
7969.7481
7266.8553
6632.1556
6058.2246
5538.6099
5067.6629
4640.4333
4252.558
3900.2141
3580.5202
3290.0662
3025.6938
2784.7669
2564.9868
2364.3159
2180.9457
2013.2588
1859.8027
1719.2809
1590.5241
1472.4808
1364.2013
1264.8284
1173.5867
1089.7738
1012.7526
941.945
876.82553
816.91637
761.7825
711.02753
664.28994
621.2398
581.57566
545.02193
511.32685
480.25981
451.60951
425.18234
400.8008
378.30204
357.53663
338.36736
320.66819
304.32332
289.22628
275.27919
262.39197
250.48177
239.47231
229.29339
219.88034
211.17366
203.11858
195.66472
188.76582
182.37946
176.46685
170.99278
165.92538
161.23601
156.90054
152.89807
149.21258
145.83374
142.75938
139.9998
137.58666
135.5932
134.11641
132.91891
131.37909
129.46614
127.38359
125.35738
123.68488
122.19286
120.52507
117.9977
114.34463
111.4916
110.14089
109.26156
108.50558
107.80974
107.16262
106.55954
105.99734
105.47351
104.98547
104.53106
104.10787
103.71348
103.34535
103.00122
102.67886
102.37477
102.08683
101.81502
101.55944
101.3202
101.09831
100.89513
100.71066
100.54184
100.38492
100.23676
100.09537
99.963727
99.841781
99.74065
99.655754
99.584751
99.531306
99.502477
99.485993
99.453025
18766.375
17058.094
15502.803
14096.192
12826.224
11679.876
10644.659
9709.1088
8862.873
8096.6739
7402.2486
6772.2899
6200.3063
5680.5094
5207.7612
4777.4956
4385.6444
4028.5935
3703.1437
3406.802
3136.7395
2890.1987
2664.9178
2458.8897
2270.3236
2097.6201
1939.3449
1794.2026
1661.0287
1538.7731
1426.4873
1323.3118
1228.466
1141.2415
1060.9949
987.14118
919.14777
856.52933
798.84385
745.68784
696.69264
651.52121
609.86525
571.44255
535.99464
503.28457
473.09495
445.22636
419.49567
395.73473
373.789
353.51643
334.78638
317.47867
301.4827
286.69665
273.02676
260.38664
248.69673
237.88367
227.87987
218.62301
210.05569
202.12501
194.78228
187.98277
181.68544
175.85277
170.45076
165.44869
160.81887
156.53817
152.58718
148.95096
145.62085
142.59696
139.89303
137.54679
135.64191
134.25281
133.04859
131.39071
129.40998
127.29433
125.29265
123.66051
122.15845
120.41937
117.70708
114.00249
111.34187
110.08064
109.22466
108.47587
107.78424
107.14062
106.54071
105.98137
105.46017
104.9745
104.52224
104.10098
103.70826
103.34157
102.99864
102.67719
102.37379
102.08635
101.81492
101.55962
101.32068
101.09915
100.89635
100.7122
100.54358
100.38676
100.23866
100.09739
99.965947
99.844211
99.743147
99.658082
99.586681
99.532565
99.502524
99.484113
99.449917
16432.934
15054.105
13782.752
12617.799
11552.702
10580.13
9692.6513
8883.0641
8144.5531
7470.7705
6855.872
6294.5313
5781.9062
5313.5919
4885.5961
4494.3079
4136.463
3809.1221
3509.6452
3235.976
2985.7617
2756.6226
2546.6372
2354.0763
2177.3847
2015.1627
1866.1479
1729.1966
1603.2736
1487.4417
1380.851
1282.7279
1192.3674
1109.1266
1032.4199
961.71285
896.51739
836.38762
780.91621
729.73044
682.48887
638.87855
598.6125
561.42753
527.0821
495.35388
466.03866
438.94874
413.91148
390.76799
369.37204
349.58893
331.29461
314.37474
298.72395
284.24506
270.84847
258.45152
246.97793
236.35731
226.52471
217.42021
208.98849
201.17859
193.94353
187.24015
181.02883
175.27337
169.94099
165.00208
160.43013
156.20301
152.30271
148.71553
145.43452
142.462
139.81503
137.53681
135.71767
134.39324
133.11491
131.34915
129.328
127.19406
125.22732
123.63008
122.10917
120.27813
117.36556
113.6546
111.20378
110.02204
109.18589
108.44394
107.75669
107.11681
106.52026
105.96395
105.44553
104.96239
104.5124
104.09317
103.70223
103.33707
102.99539
102.67492
102.37226
102.08539
101.81438
101.55943
101.32084
101.09972
100.89735
100.71354
100.54513
100.38843
100.2404
100.09928
99.968062
99.846555
99.745563
99.660327
99.588523
99.533714
99.50242
99.482043
99.446607
14403.013
13285.064
12243.452
11278.45
10386.563
9563.7644
8805.7553
8108.1461
7466.5889
6876.8711
6334.98
5837.1432
5379.8397
4959.7949
4573.9781
4219.5958
3894.0823
3595.0917
3320.4855
3068.6318
2837.5836
2625.3017
2430.1688
2250.7132
2085.5998
1933.6176
1793.6667
1664.746
1545.9438
1436.4303
1335.4494
1242.3099
1156.3791
1077.0778
1003.876
936.28815
873.86964
816.21274
762.94381
713.72003
668.22652
626.17389
587.29606
551.34841
518.10585
487.36071
458.92173
432.61278
408.27152
385.74827
364.90497
345.61424
327.75854
311.22936
295.92651
281.75745
268.63671
256.48532
245.23032
234.80427
225.14487
216.19456
207.90017
200.21263
193.08671
186.4808
180.35671
174.67957
169.41783
164.54299
160.02971
155.85699
152.00805
148.47055
145.23931
142.31904
139.73048
137.52332
135.79375
134.52316
133.16418
131.29957
129.23578
127.08945
125.16474
123.59338
122.04549
120.10197
116.98624
113.31673
111.07733
109.96489
109.14562
108.41019
107.72747
107.09149
106.49847
105.94533
105.42981
104.94929
104.50168
104.08458
103.69548
103.33191
102.99156
102.67213
102.37025
102.08399
101.81347
101.55892
101.32074
101.10007
100.89817
100.71473
100.54655
100.38997
100.24204
100.10109
99.970114
99.848848
99.74793
99.662521
99.590305
99.534771
99.502179
99.479787
99.443084
12643.82
11733.152
10877.045
10076.419
9329.501
8634.1661
7988.0216
7388.4899
6832.8915
6318.5188
5842.6963
5402.8247
4996.4079
4621.0674
4274.5528
3954.7484
3659.677
3387.5013
3136.5219
2905.4867
2692.8019
2496.7301
2315.9234
2149.1434
1995.2566
1853.2264
1722.1044
1601.022
1489.1837
1385.8608
1290.3857
1202.1453
1120.5758
1045.1587
975.41743
910.91364
851.24429
796.0386
744.95557
697.68132
653.92674
613.42532
575.93137
541.21839
509.07732
479.31491
451.75266
426.22579
402.58212
380.681
360.39249
341.59643
324.18171
308.0456
293.09305
279.23613
266.39348
254.48981
243.45545
233.22593
223.74156
214.94717
206.79171
199.22804
192.21266
185.70553
179.6699
174.07221
168.88218
164.07235
159.61869
155.50134
151.7047
148.21791
145.03768
142.17137
139.64383
137.51234
135.87511
134.63795
133.18107
131.23205
129.12678
126.98026
125.10535
123.55019
121.96675
119.88796
116.57559
112.99671
110.96164
109.90937
109.10456
108.37536
107.69726
107.06527
106.47586
105.92597
105.41343
104.93561
104.49044
104.07551
103.68831
103.32637
102.98737
102.669
102.36795
102.08234
101.81233
101.55821
101.32048
101.10031
100.8989
100.71584
100.5479
100.39146
100.24364
100.10287
99.972147
99.851127
99.75028
99.664687
99.592045
99.535751
99.501808
99.477345
99.439347
11120.21
10375.073
9669.0424
9003.3497
8377.2204
7789.6338
7239.3447
6724.9191
6244.7781
5797.2471
5380.6011
4993.1022
4633.0287
4298.695
3988.4683
3700.7807
3434.1393
3187.1333
2958.4376
2747.1292
2551.9189
2371.3333
2204.2613
2049.6722
1906.614
1774.2089
1651.6474
1538.1833
1433.1281
1335.8476
1245.757
1162.3166
1085.0276
1013.429
947.09502
885.63237
828.67789
775.89622
726.97776
681.63653
639.60828
600.64867
564.53178
531.04868
500.00598
471.22447
444.53816
419.7934
396.84797
375.57014
355.83791
337.53824
320.56641
304.82536
290.22516
276.68243
264.11989
252.46592
241.65413
231.62295
222.31537
213.67856
205.66361
198.22529
191.32184
184.9148
178.96886
173.45181
168.33459
163.59087
159.19789
155.13705
151.39389
147.95917
144.83162
142.02155
139.55852
137.50837
135.96382
134.73395
133.16683
131.15342
129.00398
126.86781
125.04784
123.49919
121.87023
119.63178
116.13984
112.69937
110.85522
109.85502
109.06278
108.3396
107.66616
107.03825
106.45253
105.90597
105.39646
104.92139
104.47872
104.06601
103.68073
103.32046
102.98285
102.66557
102.36536
102.08044
101.81097
101.55733
101.32009
101.10044
100.89954
100.71689
100.54918
100.39289
100.24518
100.10463
99.974165
99.853396
99.752615
99.666829
99.593743
99.53665
99.501303
99.474713
99.435392
9799.1737
9187.0143
8602.8889
8048.1296
7522.547
7025.7673
6557.2361
6116.232
5701.8895
5313.2284
4949.1848
4608.6398
4290.4439
3993.4367
3716.4638
3458.3909
3218.1159
2994.5778
2786.7647
2594.0313
2415.3488
2249.4716
2095.4941
1952.5682
1819.9034
1696.7642
1582.4669
1476.3762
1377.9024
1286.498
1201.6552
1122.9025
1049.8017
981.94611
918.95781
860.48623
806.20618
755.81605
709.03626
665.60762
625.28976
587.85971
553.11059
520.85051
490.90129
463.09734
437.2849
413.3212
391.07375
370.41956
351.24444
333.44236
316.91485
301.57048
287.32435
274.09759
261.81698
250.41451
239.82703
229.99593
220.8668
212.38916
204.51623
197.20472
190.41459
184.10896
178.25398
172.81879
167.77556
163.09911
158.76801
154.76496
151.07668
147.69568
144.62291
141.87196
139.47782
137.51554
136.06036
134.80664
133.11709
131.05496
128.86885
126.75354
124.99001
123.43905
121.75213
119.32958
115.68672
112.42771
110.75679
109.80136
109.02023
108.30291
107.63418
107.01043
106.42849
105.88533
105.37891
104.90665
104.46651
104.05607
103.67275
103.31419
102.978
102.66182
102.36249
102.07829
101.8094
101.55627
101.31955
101.10047
100.90011
100.71786
100.55041
100.39427
100.24669
100.10636
99.97617
99.855654
99.754934
99.668943
99.595397
99.537464
99.500659
99.471885
99.431214
8651.6694
8146.9721
7662.3177
7199.0087
6757.1932
6336.8759
5937.9148
5560.028
5202.8052
4865.7251
4548.1758
4249.4745
3968.8868
3705.6428
3458.9524
3228.0183
3012.0476
2810.2619
2621.9053
2446.5639
2283.4282
2131.4458
1989.8885
1858.0665
1735.3308
1621.0721
1514.7191
1415.7367
1323.6243
1237.9138
1158.168
1083.9783
1014.9632
950.76604
891.054
835.51668
783.86472
735.82854
691.15712
649.61683
610.99013
575.07451
541.68146
510.63545
481.77302
454.9418
429.99985
406.81505
385.26439
365.23341
346.61555
329.31166
313.22942
298.28294
284.39226
271.48297
259.48586
248.33649
237.97495
228.34551
219.39638
211.07943
203.35001
196.16671
189.49126
183.28837
177.52563
172.17356
167.20554
162.59761
158.3297
154.38586
150.75406
147.42871
144.4132
141.72482
139.40489
137.53743
136.16274
134.85155
133.0418
130.93932
128.72457
126.64111
124.93002
123.3685
121.60765
118.97869
115.2254
112.18281
110.66531
109.74802
108.97683
108.26528
107.60134
106.98181
106.40373
105.86403
105.36077
104.89136
104.45382
104.04568
103.66436
103.30753
102.97278
102.65775
102.35932
102.07586
101.80759
101.55502
101.31887
101.10039
100.9006
100.71877
100.55157
100.39559
100.24815
100.10806
99.978161
99.857902
99.757235
99.671028
99.597002
99.538187
99.499867
99.468854
99.426807
7652.8717
7235.4725
6832.3245
6444.6264
6072.7099
5716.7919
5376.9711
5053.231
4745.4465
4453.3941
4176.7653
3915.1794
3668.1979
3435.3366
3216.0777
3009.8815
2816.196
2634.4668
2464.1445
2305.0042
2156.4192
2017.4991
1887.6664
1766.3671
1653.0752
1547.2919
1448.545
1356.3888
1270.4026
1190.19
1115.3783
1045.6164
980.57467
919.94304
863.43056
810.7643
761.68854
715.96386
673.36629
633.6864
596.72841
562.30935
530.25824
500.41529
472.63119
446.76633
422.69023
400.28104
379.42501
360.01597
341.95484
325.14916
309.51265
294.96483
281.43063
268.84003
257.12773
246.23287
236.09871
226.67239
217.90472
209.7499
202.16538
195.11168
188.55226
182.45341
176.78421
171.51654
166.62499
162.0869
157.88362
154.00051
150.42696
147.15945
144.20408
141.58231
139.34288
137.57671
136.26588
134.86512
132.94474
130.80286
128.57334
126.53368
124.86624
123.28597
121.43092
118.57822
114.76595
111.96396
110.57985
109.69471
108.93255
108.22669
107.5676
106.95238
106.37824
105.84207
105.34202
104.87553
104.44062
104.03484
103.65555
103.30047
102.9672
102.65333
102.35584
102.07316
101.80554
101.55357
101.31803
101.1002
100.90099
100.7196
100.55267
100.39685
100.24957
100.10973
99.980137
99.860137
99.759517
99.673081
99.598554
99.538814
99.49892
99.465613
99.422166
6781.7336
6435.5785
6099.4688
5774.4634
5460.9797
5159.3433
4869.7848
4592.4415
4327.3619
4074.5114
3833.781
3604.9956
3387.9233
3182.2854
2987.7647
2804.0148
2630.6686
2467.3462
2313.6621
2169.5441
2034.5154
1907.8197
1789.006
1677.6361
1573.2891
1475.5619
1384.0693
1298.4439
1218.3363
1143.4145
1073.3634
1007.8846
946.69561
889.52914
836.13282
786.26853
739.71189
696.25172
655.68944
617.83849
582.52368
549.5806
518.85495
490.20202
463.48604
438.57965
415.36342
393.72544
373.56092
354.77175
337.26609
320.95803
305.76719
291.61839
278.44134
266.17031
254.7439
244.10473
234.19921
224.97734
216.39246
208.40111
200.96284
194.04007
187.59799
181.60449
176.03011
170.84816
166.03437
161.56751
157.43039
153.60967
150.09636
146.88915
143.99717
141.44673
139.29507
137.63472
136.36173
134.84505
132.8354
130.64743
128.41595
126.43283
124.79727
123.18932
121.21528
118.12965
114.3187
111.76906
110.49945
109.64117
108.88732
108.18713
107.53296
106.92213
106.35199
105.81943
105.32265
104.85912
104.4269
104.02352
103.64629
103.293
102.96123
102.64855
102.35202
102.07017
101.80324
101.55191
101.31703
101.09988
100.9013
100.72035
100.55369
100.39805
100.25095
100.11138
99.982099
99.862358
99.761778
99.675098
99.600049
99.539336
99.497812
99.462155
99.417284
6020.449
5732.6721
5451.8865
5178.999
4914.4513
4658.6127
4411.7771
4174.1645
3945.9237
3727.1359
3517.8195
3317.9356
3127.3946
2946.062
2773.7657
2610.3022
2455.4436
2308.9441
2170.546
2040.2987
1917.847
1802.5441
1694.0442
1592.0061
1496.0982
1405.9995
1321.3998
1242.0005
1167.5146
1097.6671
1032.1948
970.84638
913.38214
859.57379
809.20427
762.06749
717.9681
676.72116
638.15183
602.09502
568.39491
536.90462
507.4857
480.00775
454.34795
430.39065
408.02702
387.15474
367.67763
349.5054
332.55325
316.74162
301.99587
288.24598
275.42635
263.47548
252.33575
241.95323
232.27745
223.26118
214.86032
207.03369
199.74293
192.95235
186.62889
180.74203
175.26378
170.16886
165.4342
161.04002
156.97068
153.21415
149.76324
146.61909
143.79426
141.32059
139.26488
137.71086
136.43997
134.78975
132.70796
130.47549
128.25416
126.33782
124.72163
123.07534
120.95362
117.63743
113.89326
111.59529
110.42307
109.58719
108.8411
108.14658
107.49739
106.89104
106.32497
105.79609
105.30264
104.84213
104.41265
104.0117
103.63657
103.28509
102.95486
102.64339
102.34786
102.06687
101.80068
101.55004
101.31587
101.09945
100.9015
100.72102
100.55465
100.39918
100.25228
100.11301
99.984045
99.864565
99.764015
99.677076
99.60148
99.539748
99.496534
99.458473
99.412158
5353.9419
5114.1739
4879.1823
4649.7229
4426.226
4209.0647
3998.5541
3794.9515
3598.4589
3409.2237
3227.3426
3052.8642
2885.7934
2726.0952
2573.6998
2428.5072
2290.3928
2159.2117
2034.8045
1917.3156
1806.4878
1701.7619
1602.8788
1509.5778
1421.6024
1338.7011
1260.628
1187.1438
1118.016
1053.0196
991.93743
934.56018
880.68661
830.12362
782.68625
738.19772
696.48934
657.40044
620.77821
586.47758
554.36089
524.29773
496.16462
469.84469
445.22743
422.20836
400.68878
380.57555
361.7808
344.22176
327.82043
312.5034
298.20161
284.85009
272.38778
260.75731
249.90478
239.77965
230.33447
221.52481
213.30905
205.64829
198.50623
191.84907
185.64548
179.86651
174.48569
169.47913
164.825
160.50505
156.5052
152.8148
149.42871
146.35072
143.59728
141.20675
139.2557
137.8017
136.48943
134.68923
132.561
130.29106
128.09267
126.24617
124.63757
122.93952
120.63901
117.10923
113.49761
111.43981
110.34972
109.53259
108.79387
108.10503
107.4609
106.85909
106.29718
105.77204
105.28199
104.82455
104.39784
103.99937
103.62638
103.27674
102.94806
102.63784
102.34334
102.06324
101.79784
101.54794
101.31453
101.09888
100.90161
100.72161
100.55553
100.40026
100.25356
100.1146
99.985974
99.866755
99.766227
99.679011
99.602844
99.540041
99.495077
99.45456
99.406782
4769.431
4569.2682
4372.2784
4179.0778
3990.0653
3805.5956
3625.9794
3451.4837
3282.3324
3118.707
2960.7485
2808.5585
2662.2023
2521.7112
2387.0859
2258.2995
2135.3019
2018.0232
1906.3777
1800.5834
1700.4605
1605.5196
1515.5716
1430.4222
1349.8772
1273.7432
1201.8289
1133.9458
1069.9083
1009.5353
952.64961
899.07928
848.6573
801.2221
756.61772
714.69395
675.30645
638.31683
603.59263
571.0073
540.44013
511.7761
484.90576
459.72504
436.13505
414.04192
393.35658
373.99465
355.87625
338.92579
323.07186
308.24699
294.3875
281.43333
269.32783
258.01766
247.45258
237.58532
228.37144
219.76922
211.73951
204.24566
197.2534
190.73081
184.64828
178.97845
173.69636
168.77951
164.20735
159.96326
156.03472
152.41259
149.09397
146.08562
143.40848
141.10847
139.27047
137.90023
136.50155
134.57354
132.39335
130.09771
127.93708
126.15498
124.54292
122.77567
120.26546
116.55589
113.13712
111.30007
110.2785
109.4772
108.74558
108.06246
107.42346
106.82628
106.26858
105.74727
105.26067
104.80637
104.38248
103.98652
103.6157
103.26792
102.94082
102.63187
102.33843
102.05928
101.79471
101.54561
101.31301
101.09817
100.90161
100.7221
100.55633
100.40127
100.2548
100.11617
99.987887
99.868928
99.768409
99.680899
99.604133
99.540209
99.493434
99.450409
99.40115
4256.0387
4088.631
3923.2428
3760.3645
3600.3544
3443.5373
3290.2052
3140.6172
2994.9999
2853.5472
2716.4213
2583.7532
2455.6443
2332.1679
2213.3711
2099.2773
1989.8887
1885.1897
1785.149
1690.0402
1599.744
1513.8255
1432.1518
1354.5826
1280.9745
1211.1827
1145.0616
1082.4654
1023.2491
967.26886
914.38283
864.4515
817.33818
772.90936
731.03502
691.5889
654.44877
619.4965
586.61831
555.70474
526.65074
499.35564
473.72309
449.66099
427.08143
405.90054
386.03839
367.41895
349.9699
333.62261
318.31194
303.97614
290.55675
277.99843
266.24884
255.25854
244.98083
235.37168
226.38958
217.99546
210.15261
202.82658
195.98514
189.59822
183.6379
178.07844
172.89637
168.07058
163.58192
159.41539
155.56012
152.00857
148.76039
145.82564
143.23044
141.02951
139.31087
137.99505
136.47091
134.43646
132.20363
129.89604
127.79062
126.06138
124.43515
122.57594
119.8289
115.99082
112.81415
111.1738
110.20866
109.42092
108.69621
108.01886
107.38507
106.7926
106.23918
105.72176
105.23868
104.78756
104.36653
103.97312
103.60451
103.25862
102.93312
102.62548
102.33314
102.05496
101.79129
101.54304
101.3113
101.09732
100.9015
100.72251
100.55705
100.40221
100.25599
100.11772
99.989782
99.871081
99.77056
99.682736
99.605341
99.540243
99.491596
99.446013
99.395257
3804.4366
3664.1796
3525.1211
3387.6396
3252.0497
3118.6412
2987.6796
2859.4065
2734.0391
2611.7699
2492.7672
2377.175
2265.1137
2156.6811
2051.9534
1950.9866
1853.819
1760.4724
1670.9549
1585.5811
1504.2785
1426.6539
1352.6191
1282.0767
1214.9249
1151.0585
1090.3698
1032.749
978.08515
926.26658
877.1816
830.71905
786.76876
745.22196
705.9717
668.91315
633.94393
600.96434
569.87755
540.58978
513.01038
487.05196
462.63034
439.66462
418.07714
397.79345
378.74225
360.8554
344.06781
328.31744
313.54516
299.69473
286.71269
274.54825
263.15325
252.48202
242.49132
233.14026
224.3902
216.20467
208.54934
201.39194
194.70223
188.45199
182.615
177.1671
172.08637
167.35301
162.9494
158.86229
155.08237
151.60396
148.42954
145.5729
143.06621
140.97398
139.37608
138.07112
136.39512
134.27642
131.99329
129.68791
127.6535
125.96272
124.31104
122.331
119.32832
115.42903
112.52817
111.05889
110.13956
109.36363
108.64573
107.97421
107.34571
106.75803
106.20896
105.69549
105.216
104.76811
104.35
103.95916
103.5928
103.24882
102.92494
102.61864
102.32743
102.05027
101.78754
101.54022
101.3094
101.09633
100.90127
100.72282
100.55768
100.40308
100.25713
100.11923
99.991658
99.873212
99.772677
99.684517
99.606461
99.540133
99.489553
99.441365
99.3891
3406.5923
3288.8907
3171.812
3055.6356
2940.6329
2827.0574
2715.1454
2605.1156
2497.1692
2391.489
2288.2396
2187.5671
2089.5994
1994.4463
1902.2004
1812.9379
1726.7199
1643.5936
1563.5944
1487.0661
1413.9719
1343.9499
1276.9469
1212.8994
1151.7388
1093.3922
1037.7828
984.83059
934.45322
886.56614
841.08347
797.91845
756.98392
718.19277
681.45837
646.69492
613.8178
582.74383
553.39157
525.68147
499.53611
474.88025
451.641
429.74784
409.13267
389.72986
371.47622
354.31105
338.17611
323.01559
308.77614
295.40674
282.85874
271.08575
260.0436
249.6903
239.98594
230.8927
222.3747
214.39806
206.93075
199.94266
193.40552
187.29291
181.58031
176.24516
171.26709
166.62753
162.31062
158.30492
154.60258
151.20015
148.10323
145.3299
142.91938
140.94609
139.46125
138.11188
136.27246
134.08586
131.7661
129.47893
127.52349
125.8563
124.16587
122.03065
118.7669
114.88568
112.27656
110.9532
110.0707
109.30527
108.59412
107.92849
107.30537
106.72256
106.1779
105.66846
105.19262
104.74802
104.33285
103.94462
103.58054
103.23851
102.91626
102.61134
102.32129
102.04519
101.78347
101.53714
101.3073
101.09517
100.90092
100.72302
100.55823
100.40388
100.25822
100.12071
99.993513
99.875321
99.774755
99.686237
99.607485
99.539871
99.487297
99.436458
99.382672
3055.5949
2956.6709
2857.9739
2759.6969
2662.0708
2565.314
2469.6328
2375.2214
2282.2615
2190.9216
2101.3567
2013.7081
1928.1032
1844.6556
1763.4654
1684.6193
1608.192
1534.2469
1462.8369
1394.3263
1328.7046
1265.6333
1205.0858
1147.0252
1091.409
1038.1899
987.31625
938.73265
892.38015
848.197
806.11912
766.08052
728.01387
691.85084
657.52256
624.95999
594.09425
564.85694
537.18041
510.99801
486.24431
462.85523
440.76821
419.92234
400.25839
381.71892
364.24836
347.79297
332.30096
317.72247
304.00957
291.11625
278.99845
267.61398
256.92254
246.88565
237.46666
228.63069
220.34458
212.57693
205.298
198.47978
192.09593
186.12183
180.53464
175.3134
170.43929
165.89501
161.66653
157.7443
154.12202
150.79877
147.7836
145.09959
142.79423
140.94936
139.55588
138.10329
136.1198
133.8712
131.52398
129.27527
127.39754
125.73914
123.99283
121.66481
118.15283
114.37433
112.0557
110.85466
110.00165
109.24577
108.54136
107.8817
107.26404
106.68619
106.14599
105.64064
105.16852
104.72726
104.31508
103.92948
103.56772
103.22765
102.90706
102.60354
102.3147
102.03971
101.77906
101.53378
101.30498
101.09385
100.90045
100.72312
100.55868
100.40461
100.25927
100.12217
99.995347
99.877404
99.776791
99.68789
99.608406
99.539447
99.484817
99.431286
99.375971
2745.4976
2662.236
2578.9362
2495.7179
2412.7746
2330.2919
2248.4475
2167.4109
2087.3433
2008.3964
1930.7126
1854.4241
1779.653
1706.5108
1635.0987
1565.5077
1497.8191
1432.1052
1368.4298
1307.1702
1248.3351
1191.6028
1136.9669
1084.4106
1033.9117
985.44316
938.97344
894.46674
851.88347
811.18068
772.31248
735.23047
699.88416
666.22138
634.18867
603.73159
574.79514
547.324
521.26284
496.55659
473.15064
450.99105
430.02472
410.19954
391.46447
373.76969
357.06666
341.30822
326.4486
312.44353
299.25022
286.82743
275.13544
264.13611
253.79281
244.07048
234.93556
226.35604
218.30141
210.74267
203.65232
197.00439
190.77446
184.93968
179.47888
174.3727
169.60385
165.15639
161.01819
157.18168
153.64218
150.40171
147.47318
144.88551
142.69563
140.98518
139.64285
138.03712
135.93648
133.6336
131.26861
129.0813
127.27186
125.60792
123.78289
121.22472
117.49956
113.90535
111.86173
110.76138
109.93208
109.18509
108.48741
107.83383
107.22172
106.64889
106.11322
105.61203
105.1437
104.70582
104.29667
103.91373
103.55431
103.21624
102.89733
102.59524
102.30764
102.03381
101.77429
101.53015
101.30244
101.09236
100.89983
100.72311
100.55904
100.40526
100.26027
100.12359
99.997158
99.879459
99.778781
99.689468
99.609214
99.538849
99.482103
99.425841
99.368992
2471.1754
2400.9996
2330.6153
2260.0804
2189.5553
2119.1958
2049.153
1979.573
1910.5963
1842.3574
1774.9844
1708.5982
1643.3124
1579.2329
1516.4579
1455.078
1395.1762
1336.8286
1280.1047
1225.3891
1172.7041
1121.7398
1072.5045
1024.9965
979.20913
935.1309
892.74599
852.03433
812.9719
775.53108
739.68102
705.38799
672.61571
641.32576
611.47789
583.03035
555.9402
530.16365
505.65628
482.37332
460.26991
439.30124
419.4228
400.59051
382.76086
365.89104
349.93906
334.86383
320.62523
307.18423
294.50291
282.54449
271.27343
260.65538
250.65725
241.24724
232.3948
224.07066
216.24686
208.89675
201.99501
195.51768
189.44219
183.74748
178.41401
173.42404
168.76177
164.41274
160.36684
156.61845
153.16478
150.01119
147.17495
144.69188
142.62893
141.05068
139.69974
137.91313
135.72049
133.36988
131.00464
128.89778
127.14196
125.4586
123.52496
120.70444
116.82514
113.48489
111.69089
110.67174
109.86171
109.1232
108.43228
107.78485
107.17838
106.61066
106.07958
105.58261
105.11814
104.68368
104.2776
103.89736
103.54029
103.20424
102.88705
102.58641
102.3001
102.02747
101.76915
101.52622
101.29967
101.09068
100.89908
100.72298
100.55929
100.40584
100.26121
100.12499
99.998944
99.881483
99.78072
99.690966
99.6099
99.538068
99.479146
99.420117
99.361731
2228.1984
2168.9727
2109.4356
2049.5944
1989.5809
1929.5242
1869.5514
1809.7868
1750.3515
1691.363
1632.9346
1575.1747
1518.187
1462.0695
1406.9148
1352.81
1299.8364
1248.0703
1197.5829
1148.7619
1101.6387
1055.9116
1011.5992
968.71073
927.25101
887.22042
848.61523
811.42763
775.64595
741.25494
708.23598
676.56744
646.2249
617.18151
589.40824
562.87423
537.54699
513.39276
490.37671
468.46321
447.61604
427.79863
408.97419
391.10594
374.15723
358.0917
342.87336
328.46676
314.83706
301.9501
289.7725
278.27174
267.41617
257.17509
247.51877
238.4185
229.84662
221.77651
214.18267
207.04074
200.32748
194.02092
188.10032
182.54635
177.34112
172.46852
167.91415
163.66526
159.71388
156.05625
152.69187
149.62985
146.89252
144.52377
142.59909
141.13589
139.70297
137.73842
135.47207
133.08349
130.73988
128.72283
127.00347
125.28562
123.20613
120.10274
116.15069
113.11478
111.53945
110.58443
109.79035
109.06007
108.37593
107.73475
107.13402
106.57149
106.04505
105.55239
105.09183
104.66083
104.25785
103.88034
103.52565
103.19165
102.87619
102.57704
102.29206
102.02068
101.76362
101.52199
101.29667
101.08882
100.89818
100.72272
100.55944
100.40634
100.26211
100.12635
100.0007
99.883474
99.782603
99.692375
99.610453
99.53709
99.475935
99.414108
99.354184
2012.7334
1962.6805
1912.2641
1861.4468
1810.3368
1759.0403
1707.6629
1656.3092
1605.0822
1554.0833
1503.4113
1453.1622
1403.4287
1354.2999
1305.8613
1258.1942
1211.3764
1165.4816
1120.5799
1077.059
1034.9561
993.9746
954.14017
915.46979
877.97639
841.66909
806.55323
772.6304
739.89859
708.35228
677.98272
648.77808
620.72372
593.8024
567.99456
543.27854
519.63084
497.02636
475.43863
454.84003
435.20201
416.49529
398.69005
381.75607
365.66292
350.38011
335.87719
322.12389
309.09022
296.74659
285.06387
274.01349
263.56751
253.69864
244.38035
235.5869
227.29335
219.47566
212.11069
205.17627
198.65122
192.51548
186.75012
181.3375
176.2614
171.50736
167.06225
162.91533
159.06093
155.49697
152.22583
149.26083
146.6302
144.38711
142.6091
141.22142
139.63495
137.52141
135.19142
132.77707
130.48097
128.55333
126.85201
125.0807
122.81257
119.42479
115.49797
112.79334
111.40366
110.49834
109.71786
108.99569
108.31835
107.68352
107.08863
106.53135
106.00964
105.52136
105.06477
104.63726
104.2374
103.86267
103.51035
103.17842
102.86474
102.5671
102.28349
102.01342
101.7577
101.51743
101.29342
101.08676
100.89712
100.72234
100.55949
100.40676
100.26296
100.12768
100.00243
99.885428
99.784425
99.693687
99.610862
99.535904
99.472458
99.407808
99.34635
1821.447
1779.0885
1736.3479
1693.1524
1649.5888
1605.7442
1561.7057
1517.5602
1473.3946
1429.2951
1385.3469
1341.6337
1298.2375
1255.238
1212.7125
1170.736
1129.3806
1088.716
1048.8096
1010.0463
972.4667
935.77725
900.00812
865.18131
831.31538
798.42559
766.52389
735.6189
705.7159
676.81697
648.9211
622.02432
596.11992
571.19857
547.24855
524.25595
502.20488
481.07765
460.85502
441.51633
423.03977
405.40251
388.58091
372.55064
357.2869
342.76449
328.95801
315.84195
303.39079
291.57916
280.38189
269.7741
259.73129
250.22945
241.24504
232.75513
224.73741
217.17027
210.03285
203.30509
196.96782
191.00283
185.39296
180.12227
175.17617
170.54187
166.20754
162.16461
158.40981
154.94282
151.76951
148.90792
146.39323
144.28845
142.65693
141.27855
139.4913
137.26666
134.88001
132.45555
130.2331
128.38476
126.68286
124.8326
122.33099
118.68336
114.8866
112.51655
111.27991
110.41262
109.64412
108.93002
108.25955
107.63115
107.0422
106.49025
105.97334
105.48951
105.03693
104.61293
104.21623
103.84433
103.49439
103.16455
102.85268
102.55656
102.27438
102.00569
101.75136
101.51253
101.28991
101.0845
100.89589
100.72182
100.55942
100.4071
100.26375
100.12898
100.00413
99.88734
99.786179
99.694892
99.611116
99.534496
99.468705
99.40121
99.338224
1651.4379
1615.5412
1579.2649
1542.512
1505.3493
1467.8471
1430.0767
1392.1097
1354.0185
1315.8759
1277.7543
1239.7261
1201.8627
1164.2344
1126.9104
1089.9583
1053.4442
1017.4328
981.98713
947.48783
913.9768
881.16233
849.07696
817.74571
787.1907
757.43131
728.48409
700.36267
673.07777
646.63718
621.04586
596.30603
572.41726
549.37665
527.1789
505.81653
485.28001
465.55796
446.63728
428.50336
411.14022
394.53071
378.65662
363.49888
349.03771
335.25271
322.12304
309.62752
297.74474
286.45321
275.7314
265.55789
255.91143
246.77101
238.11595
229.92598
222.18128
214.86256
207.95115
201.42903
195.27896
189.48454
184.03035
178.90211
174.08689
169.57355
165.35162
161.41494
157.76265
154.39646
151.32633
148.57568
146.18788
144.23405
142.73135
141.27405
139.28103
136.97418
134.54056
132.12748
129.99898
128.21149
126.4903
124.52726
121.75116
117.89914
114.3316
112.27916
111.16486
110.32659
109.56907
108.86305
108.19949
107.57763
106.99471
106.44816
105.93614
105.45683
105.0083
104.58785
104.19432
103.82529
103.47775
103.15002
102.83997
102.54541
102.2647
101.99746
101.7446
101.50728
101.28614
101.08203
100.89449
100.72116
100.55924
100.40735
100.26449
100.13024
100.00579
99.889207
99.787859
99.695981
99.611199
99.532851
99.464665
99.394309
99.329805
1500.1845
1469.7171
1438.8914
1407.586
1375.855
1343.7524
1311.3363
1278.6653
1245.799
1212.7981
1179.7239
1146.6379
1113.6018
1080.677
1047.9243
1015.4042
983.17625
951.29936
919.8317