/*--------------------------------*- C++ -*----------------------------------*\
| =========                 |                                                 |
| \\      /  F ield         | OpenFOAM: The Open Source CFD Toolbox           |
|  \\    /   O peration     | Version:  2406                                  |
|   \\  /    A nd           | Website:  www.openfoam.com                      |
|    \\/     M anipulation  |                                                 |
\*---------------------------------------------------------------------------*/
FoamFile
{
    version     2.0;
    format      ascii;
    arch        "LSB;label=32;scalar=64";
    class       surfaceScalarField;
    location    "0.03";
    object      phi;
}
// * * * * * * * * * * * * * * * * * * * * * * * * * * * * * * * * * * * * * //

dimensions      [1 0 -1 0 0 0 0];

oriented        oriented;

internalField   nonuniform List<scalar> 
3991
(
0.018731028
0.00090924294
-0.0030391286
-0.016608459
0.020932394
0.0013408021
-0.003549847
0.02281551
0.0020337718
-0.003921189
0.02432529
0.0029885375
-0.0045010872
0.0043228347
-0.0052530521
0.012549818
-0.00083955261
-0.010813642
0.014723437
-0.00084606814
0.017259366
-0.00051471353
0.020048971
0.00018836946
0.0088896733
-0.0026165857
-0.0071247676
0.010845789
-0.0028149226
0.013028171
-0.0027113509
0.0081303608
-0.0046577218
-0.0061002253
0.010272444
-0.0049688299
-0.0049121556
0.0095251593
-0.0067977578
-0.0073961979
0.011602599
-0.0070580866
0.011179846
-0.0088068527
-0.009181049
-0.01086463
-0.0097943315
-0.012780303
-0.0093968679
-0.0084227462
-0.012391707
0.015309777
-0.010056057
0.015908924
-0.0069595094
0.014004455
-0.012283386
-0.0041430506
0.0094851278
-0.0069896288
-0.0064444792
-0.0022437494
0.004558463
-0.0044962661
-0.0021483701
-0.00079596929
0.00070894842
-0.0040338576
-0.0026004591
-0.0048228685
0.0020123899
7.8029616e-05
-0.0028836679
0.00037165167
-0.00095725444
-0.0017163138
-0.00272746
-0.0051243933
0.0064068013
-0.0058039562
0.0069363304
0.0072286788
0.0070454943
-0.0035908607
0.027325622
-0.026778314
-0.0038175517
0.036590719
-0.036376437
-0.0037650352
0.044505585
-0.044568625
-0.0035122629
0.049816921
-0.050080151
-0.0029343809
0.051497442
-0.052085793
-0.0023373893
0.049276601
-0.049883028
-0.0023902862
0.043523961
-0.04347887
-0.0017691599
0.036663293
-0.037290786
0.028737041
-0.0014149009
-0.029096264
-0.0039601816
0.027728251
-0.0040483737
0.036666682
-0.0039243879
0.044369816
-0.0036228676
0.049504204
-0.0032164157
0.051080081
-0.002709544
0.048760175
-0.0024450704
0.043251611
-0.0018965328
0.036108358
0.028458714
-0.0016231598
-0.0043226978
0.028122136
-0.0044044347
0.036738155
-0.0042535902
0.04420776
-0.0039568864
0.04919598
-0.0035218301
0.050634197
-0.00302935
0.04825823
-0.0025842236
0.042798643
-0.002121604
0.035639405
0.028098538
-0.0017663544
-0.0048619046
0.028477196
-0.004917898
0.036785187
-0.0047973351
0.044075743
-0.0044203785
0.048807684
-0.0039072811
0.050110053
-0.0033707567
0.047712615
-0.0028241524
0.042244175
-0.0023440132
-0.001936541
-0.0056209084
0.028840585
-0.0056753877
-0.005448871
-0.0049728395
-0.0044264653
-0.0037723399
-0.001227821
0.024909785
-0.025101103
-0.00090774878
0.023326818
-0.023650804
-0.00062814981
0.021756099
-0.022039261
-0.00048059385
0.020197239
-0.020348045
-0.00021660198
0.01871683
-0.018983684
0.01640447
-0.016623828
-0.0013574451
0.024639855
-0.0010332618
0.022998763
-0.00071977935
0.021439082
-0.00047830185
0.019952446
-0.00026156795
0.018496757
0.01613976
-0.0014318285
0.024301086
-0.0010914945
0.022654553
-0.00077726431
0.021121288
-0.00051916548
0.019691107
-0.00027673989
0.018251509
0.015861394
-0.0015673428
-0.0012264004
-0.00091273134
-0.00061290333
-0.00030517505
-0.0022480223
0.020282555
0.0027062561
-0.02074608
-0.0017765899
0.018922734
-0.019399288
-0.0012831047
0.017664598
-0.018162864
-0.00080798444
0.016479239
-0.016958929
-0.00037058203
0.015433311
-0.015874926
0.014755703
-0.0151302
-0.0015861485
0.019861888
0.0020016326
-0.0012216657
0.018553301
-0.00090135529
0.017339681
-0.00061991385
0.016193451
-0.00037163902
0.015180993
0.014380315
-0.0017474572
0.019483635
0.0021205576
-0.0013746519
0.018175665
-0.00099493463
0.016955469
-0.00064105994
0.015835378
-0.00033961201
0.014875646
0.014037091
-0.0011589317
0.01921982
0.0014176564
-0.00090595126
0.017917947
-0.00068133126
0.016726443
-0.00048424349
0.015634193
-0.00029238089
0.014679972
0.013741134
-0.0013426606
0.018940479
0.001616925
-0.0010870559
0.017657586
-0.0008055389
0.016440481
-0.00052524241
0.01534974
-0.00026393639
0.014414787
0.013473641
-0.00076576481
0.018781649
0.00091959967
-0.00060355793
0.017490705
-0.00047374832
0.016306325
-0.00035374544
0.015225686
-0.00022241957
0.014279671
0.013247653
-0.00097887393
0.018568873
0.0011864142
-0.00079173091
0.017298689
-0.00058989473
0.016099965
-0.00038670797
0.015018278
-0.00019627901
0.014085303
0.01304776
-0.00040019408
0.01850528
0.00045873382
-0.00031993811
0.017213713
-0.00027474529
0.016050371
-0.00022296104
0.014962372
-0.0001555722
0.014014065
0.012888565
-0.00057132333
0.018365736
0.00070539336
-0.00048228699
0.017119642
-0.00034996396
0.015913388
-0.0002329751
0.014841074
-0.00012448467
0.013901573
0.012760355
-6.2736899e-05
0.018382785
4.0353507e-05
-2.5107743e-05
0.017077031
-5.966593e-05
0.015943311
-8.5382638e-05
0.014862469
-8.3136246e-05
0.013895281
0.012673449
-0.00014588738
0.018351119
0.00017202768
-0.00014928636
0.017075307
-0.000108549
0.015897814
-7.3265174e-05
0.014822738
-4.8465209e-05
0.013866409
0.012621139
0.00038165899
0.018457082
-0.00049324826
0.00028122596
0.017170508
0.00018522383
0.015988958
7.6055192e-05
0.014927486
-5.1770996e-06
0.013943312
0.012612024
0.00031153336
0.018547834
-0.00040802682
0.00021682403
0.017259885
0.00011795074
0.016082914
5.1158731e-05
0.014989672
2.951925e-06
0.013987252
0.012611015
0.00063305738
0.018719768
-0.00081091291
0.0004656092
0.017421862
0.00030756036
0.016235906
0.00016780783
0.015124726
5.7824334e-05
0.014092864
0.012664769
0.0011239666
0.019010737
-0.0014209086
0.00084595289
0.017694358
0.00058556033
0.016491208
0.0003377176
0.015367794
0.00013740794
0.01428862
0.012797953
0.0013483548
0.019350075
-0.0016938526
0.0010214564
0.01801545
0.00072623992
0.016780933
0.00046104396
0.015627795
0.00019092018
0.014553667
0.012984202
0.0018149555
0.019790349
-0.0022614472
0.0013993459
0.018425377
0.0010030125
0.017172123
0.00061044001
0.016015837
0.00025325014
0.014908363
0.013233896
0.0020585569
0.020284295
-0.0025588715
0.0015804089
0.018897677
0.0011320763
0.017615042
0.00072126133
0.016421594
0.00031360267
0.015307645
0.013542687
0.0025079592
0.020896935
-0.0031271542
0.0019262005
0.019473254
0.0013791566
0.018156134
0.00085397264
0.016940989
0.00037681926
0.015783875
0.013914639
0.002763572
0.021565597
-0.0034386569
0.0021234446
0.020107624
0.0015174066
0.018757187
0.00095490829
0.017499319
0.00042262556
0.016308944
0.014333649
0.003208461
0.022370371
-0.0040199288
0.0024661994
0.020843595
0.0017702493
0.019447109
0.0011067107
0.018156843
0.000494665
0.016917147
0.014822974
0.0034547341
0.02322286
-0.0043137815
0.0026305693
0.021661781
0.0018654233
0.020206828
0.0011696655
0.018847634
0.00053830493
0.017543446
0.015356836
0.0038959517
0.024112765
-0.0047925206
0.0029564385
0.022595048
0.0021109129
0.021046626
0.0013527274
0.01960054
0.00061305627
0.018278315
0.015965419
0.004185832
-0.0051805732
0.0031241315
0.0021261301
0.0013736488
0.00066326744
-0.0027664793
0.022310842
0.0028762518
-0.022426514
-0.0034082572
0.029082433
-0.028447942
-0.0037760234
0.035318896
-0.034959832
-0.0039333376
0.039860597
-0.039712632
-0.003852686
0.041683372
-0.041774106
-0.0036199304
0.040197576
-0.040441323
-0.0033709402
0.035949735
-0.036207163
-0.0030500398
0.030032722
-0.030361084
0.02373152
-0.02408146
-0.0046588601
0.022852649
0.0041109964
-0.0047807101
0.029196743
-0.0048251772
0.035354512
-0.0046633033
0.039688957
-0.0043071743
0.041317029
-0.0037232027
0.039603674
-0.0030038464
0.035221093
-0.0024052574
0.029426219
0.023321909
-0.0022100781
0.023364726
0.001692005
-0.0025331426
0.029512281
-0.0027546578
0.035567075
-0.0028612331
0.039785571
-0.0027371661
0.041182158
-0.0025644522
0.039420433
-0.0024946711
0.035142355
-0.002357191
0.029281365
0.02307933
-0.0035442095
0.023837003
0.0030657587
-0.0038976664
0.029857864
-0.0039265951
0.035586629
-0.0037034019
0.039551887
-0.0033352275
0.040802902
-0.0027964388
0.038871345
-0.0021666004
0.034502918
-0.0016848889
0.028791917
0.022806032
-0.0014092063
0.024223371
0.0010165423
-0.0016359252
0.030076531
-0.0018704444
0.03581141
-0.0019414546
0.039612371
-0.0018464852
0.040696853
-0.0017933347
0.038807522
-0.0018267419
0.034527348
-0.0017854259
0.028742994
0.022631525
-0.0025534846
0.024486606
0.0022835727
-0.0029169054
0.030431478
-0.0029025674
0.035787073
-0.0026836675
0.0393827
-0.0024159637
0.040417901
-0.0019672798
0.038348414
-0.0014412745
0.033991835
-0.0010784151
0.028372445
0.022466754
-0.0005963044
0.024716444
0.00035984501
-0.00058096723
0.030407245
-0.0008001445
0.035995825
-0.00097811584
0.03954969
-0.001006478
0.040434731
-0.0011352993
0.038466707
-0.0012881362
0.034135524
-0.0013035195
0.028379891
0.022343459
-0.0016807206
0.024856378
0.001532005
-0.0019882979
0.030705083
-0.0018389454
0.035835357
-0.0017072246
0.039406242
-0.0015453821
0.040260675
-0.0011234298
0.038033244
-0.00069703889
0.033699647
-0.00049422674
0.028169514
0.022301907
0.00025360276
0.024962739
-0.00036590609
0.00035001469
0.030600716
4.4708695e-05
0.036130617
-0.00010026959
0.039540002
-0.00017931377
0.040327706
-0.00045964764
0.038302953
-0.00071550576
0.033945691
-0.00080319523
0.028248696
0.022197477
-0.00077575543
0.025235552
0.00049224875
-0.00094708364
0.030762585
-0.00087819269
0.036050912
-0.00076609968
0.039415973
-0.00067975022
0.040228907
-0.000310424
0.037921859
-9.7754262e-06
0.033635388
5.9264614e-05
0.028171603
0.022290593
0.001169297
0.02489995
-0.00082612127
0.0011596042
0.030771015
0.0011696343
0.036033066
0.00097895289
0.039595622
0.00082677415
0.040368896
0.00036001323
0.038377236
-0.0001055805
0.034090724
-0.00019227299
0.028249695
0.022263526
0.00012951382
0.025019748
-0.00026738421
0.00018077129
0.030705536
0.00020815727
0.035993609
0.00027296063
0.039518516
0.00035062366
0.040278621
0.00049042019
0.038225603
0.0006929657
0.033877832
0.00060559572
0.028328392
0.022369026
0.0012147618
0.024964753
-0.0011692112
0.0012101882
0.030697052
0.0011278403
0.036060922
0.0010490376
0.039582347
0.00094907078
0.040364423
0.00078054787
0.038381215
0.00060044275
0.034046969
0.00050500279
0.028414884
0.022459
0.0023600305
0.024918917
-0.0023240093
0.002349792
0.030698336
0.0023318997
0.036067344
0.0021778994
0.039723267
0.0018567083
0.040672292
0.0015418192
0.03868344
0.0012332169
0.034344547
0.00099700046
0.028641904
0.022637838
0.0035849642
0.024827451
-0.0035087943
0.0036021856
0.030665417
0.0034448448
0.036210299
0.00317988
0.039973501
0.0029352127
0.040902336
0.0025509976
0.03905472
0.0021281007
0.034756222
0.0017371097
0.029023578
0.022946749
0.0046172183
0.024666613
-0.0044681915
0.0045043816
0.03076425
0.0043487149
0.036350607
0.0040284535
0.040278064
0.0034687768
0.041447636
0.0029520915
0.039558086
0.0024611115
0.035235688
0.0020320538
0.02944312
0.023277482
0.0058117027
0.024616944
-0.0057732316
0.0058059211
0.030756117
0.0055735469
0.036567688
0.0050752167
0.040760798
0.0045521669
0.041955222
0.0039250017
0.040171441
0.0032801575
0.035868721
0.0027239696
0.029989563
0.023732424
0.0074162262
0.024690496
-0.0075004031
0.0070143064
0.031144589
0.0065120342
0.037055067
0.0059467687
0.041310063
0.0051489941
0.042737843
0.0043548058
0.040951553
0.0036554229
0.036556006
0.0030477705
0.030587308
0.024213614
0.0092212253
0.0249779
-0.0095196279
0.0087870089
0.031565202
0.0081377561
0.0376888
0.0072424886
0.04218901
0.0063213123
0.04364298
0.0054076096
0.041850867
0.0045096344
0.037441735
0.0037450193
0.03134175
0.024823538
0.011123055
0.025489628
-0.011643673
0.010380783
0.032296272
0.0094463143
0.038608225
0.0083970701
0.04322149
0.0071644848
0.044859011
0.0059745135
0.043026287
0.0049647006
0.038439093
0.0041100153
0.03218641
0.025487154
0.013287794
0.026070282
-0.013880104
0.012385572
0.033185458
0.0112214
0.039757735
0.0097970108
0.044629283
0.008371506
0.04626803
0.0070305851
0.044352304
0.0058336725
0.039623235
0.0048267683
0.033182908
0.02628598
0.015220597
0.026786316
-0.015948975
0.014045067
0.034342508
0.012494314
0.04129279
0.010951281
0.046155239
0.0092684793
0.047934662
0.007650704
0.045955476
0.0063331772
0.04092826
0.0052074476
0.034298494
0.027171776
0.017055722
0.02698049
-0.017261767
0.015882889
0.035514591
0.014228201
0.042940197
0.012333608
0.048036177
0.010393522
0.049859155
0.0085436942
0.047791011
0.0071977059
0.042261774
0.0059088406
0.035577138
0.028280148
0.017875766
-0.017674026
0.017004785
0.015363398
0.013304375
0.011062973
0.0089570315
0.0077278738
0.0060043585
-0.00035785764
0.016797507
-0.01644325
-0.0010116859
0.017826405
-0.017176716
-0.0016961557
0.018701729
-0.018021492
-0.0023249028
0.01941335
-0.018789273
-0.0029119066
0.020131958
-0.019550021
0.020751425
-0.020792664
-0.00033521939
0.01712897
-0.00088672017
0.01837402
-0.0015442406
0.019354833
-0.0023136515
0.020178018
-0.0031850178
0.02099808
0.021671601
-0.00021649102
0.017341606
-0.0006416528
0.018794839
-0.0010153655
0.019723977
-0.0012529925
0.020410637
-0.0013310064
0.021070847
0.022026784
-0.00014229799
0.017479491
-0.00045371468
0.019101859
-0.00078795454
0.020053377
-0.0013453674
0.020962988
-0.0022413869
0.021961066
0.022845194
-1.6368001e-05
0.017491892
-0.0003127622
0.019393722
-0.0006244165
0.020360175
-0.00077281168
0.021105999
-0.00075035805
0.021933063
0.023105281
-4.2567468e-05
0.017529534
-0.00021855596
0.019565165
-0.00036729911
0.02050375
-0.00086896365
0.021601951
-0.0017206879
0.022778337
0.023661757
0.00018783591
0.017336978
-1.3939254e-05
0.019761235
-0.00034798875
0.020832093
-0.00041780008
0.021666691
-0.00020951045
0.022565226
0.023805917
-2.0916606e-05
0.01735367
-0.00011213374
0.01984912
3.9002159e-05
0.020677145
-0.00036903235
0.02206842
-0.0010866082
0.023274506
0.024242412
0.00042763353
0.016919269
0.00048643448
0.019780156
-0.00012677909
0.021280317
-0.00013543318
0.022068856
0.00022385855
0.022910383
0.024095296
1.1202573e-05
0.016899553
0.00022992026
0.019555349
0.0008547402
0.02064893
0.00081626001
0.022105818
0.00018853223
0.023529576
0.02476254
0.00015505985
0.016743992
-4.8293493e-05
0.019741544
-0.00027268203
0.020860388
-0.00020622689
0.022020909
0.00019898609
0.02309838
0.024126785
2.1838069e-05
0.01671992
0.00022282606
0.019519852
0.00039232356
0.02067668
0.00045128909
0.021960302
0.00043959957
0.023117066
0.024288688
0.00072268587
0.016025224
0.00097984003
0.019257166
0.0010965139
0.020561556
0.001061466
0.022004055
0.001091582
0.023098508
0.024211086
0.0010033656
0.01505578
0.001307285
0.018960338
0.0016281617
0.020231558
0.0019251226
0.021677611
0.0021285655
0.022867057
0.023999786
0.0014256284
0.013604088
0.0019932607
0.018400814
0.002485024
0.019729508
0.0029055345
0.021253803
0.0032137818
0.022549499
0.023691013
0.001074926
0.012514669
0.0018655107
0.017590873
0.0027252596
0.018856304
0.0033639609
0.020605893
0.0039229822
0.021982791
0.023136426
0.0024382566
0.01006127
0.0035004867
0.016529249
0.0042239869
0.018122748
0.0048621421
0.01995896
0.0053793421
0.021455792
0.02273151
0.0024337791
0.0076202304
0.0042065514
0.014745747
0.0053900149
0.016928118
0.0062845205
0.019052888
0.0069355033
0.020793663
0.022155594
0.0038259906
0.0037827056
0.0065075348
0.012054511
0.0075521678
0.015873599
0.0083643525
0.01823132
0.0090140714
0.020135095
0.021641709
0.0031539029
0.00061828793
0.0071184102
0.0080831896
0.0093264373
0.01365419
0.010395422
0.017151821
0.011082507
0.019438706
0.02107098
0.0028582344
-0.0022479765
0.0065303837
0.0044028184
0.010444475
0.0097343523
0.012426094
0.015160238
0.013301521
0.018553129
0.020481593
0.0014937525
-0.0037466887
0.0045590375
0.0013309707
0.0089556322
0.0053301912
0.013157026
0.010954803
0.015051827
0.01664935
0.019573904
0.00017074267
-0.0039238804
0.0028158668
-0.0013211442
0.0059993046
0.0021390823
0.010987962
0.005958023
0.015423491
0.012208853
0.017724783
-0.00031783196
-0.0036121111
0.0015488725
-0.0031943299
0.0042753785
-0.0005951958
0.0078172035
0.0024059919
0.013121432
0.0068952871
0.013170323
-0.00038299194
-0.0032349911
0.00029770603
-0.0038815604
0.0027148309
-0.0030200269
0.005929739
-0.00081775829
0.010530344
0.0022818534
0.0070823146
-0.00043696046
-0.0028042826
-0.00035570277
-0.0039696069
0.00078037434
-0.0041633379
0.0032048447
-0.0032505837
0.0063293398
-0.00085306885
0.0025851346
-0.00018684862
-0.0026234479
-4.5772e-05
-0.0041173997
0.00025485396
-0.0044716438
0.0015129079
-0.00451741
0.0039465095
-0.0032967486
-0.00060502719
0.00021783548
-0.0028471609
0.00088846548
-0.0047945835
0.0015142282
-0.0051048203
0.002199758
-0.0052116574
0.0037960196
-0.0049027061
-0.0029200373
0.00099277061
-0.0038458113
0.0019155308
-0.0057238866
0.0029696942
-0.0061662433
0.0041247512
-0.0063748884
0.0054606329
-0.0062479966
-0.0048662529
0.0014076816
-0.0052592928
0.0027255111
-0.0070482948
0.0040874983
-0.0075353529
0.0055375643
-0.0078327963
0.0070971695
-0.0078164373
-0.0069598257
0.0017608004
-0.0070253471
0.003119107
-0.0084125043
0.0045597583
-0.0089825375
0.0060959978
-0.0093761511
0.0077107154
-0.009438837
-0.0090516229
0.0014755615
-0.0085044904
0.0028547451
-0.0097965064
0.0043171656
-0.010450639
0.0058470361
-0.010912095
0.0075040857
-0.011102308
-0.010951201
0.0012422451
-0.009750476
0.0024464458
-0.01100504
0.0036692166
-0.011678498
0.0050225235
-0.012270832
0.0065605638
-0.012645801
-0.012818802
0.00099711692
-0.010753164
0.0018697874
-0.011882027
0.0026825631
-0.012495586
0.0035815853
-0.013174735
0.0047201293
-0.013789614
-0.014251651
0.00060534361
-0.011365069
0.00087873375
-0.012161794
0.0012208657
-0.01284331
0.0016221052
-0.013581436
0.0021809587
-0.014353891
-0.015050287
-0.00018671803
-0.011186705
-0.00041123676
-0.011944584
-0.00048688989
-0.012775318
-0.00053715672
-0.01353811
-0.00056137537
-0.014334907
-0.015088214
-0.0007625049
-0.01043382
-0.0016744242
-0.011041451
-0.0026877008
-0.011771581
-0.0035423476
-0.012694421
-0.0042972104
-0.01359367
-0.014306412
-0.0018290848
-0.0086124638
-0.0034581843
-0.0094202171
-0.0050721298
-0.01016562
-0.0067154436
-0.011059291
-0.0082399447
-0.01207828
-0.013091905
-0.0020636843
-0.0065554583
-0.0040900969
-0.0074000809
-0.006130975
-0.008131041
-0.0082479851
-0.0089487817
-0.010468242
-0.0098651706
-0.010874002
-0.002190685
-0.0043685463
-0.0047137715
-0.0048796075
-0.0072782477
-0.005569082
-0.0098906891
-0.0063385789
-0.012570091
-0.0071877099
-0.0081357736
-0.0024137945
-0.0019556611
-0.0048942735
-0.0023983245
-0.0075227567
-0.0029388282
-0.01028819
-0.0035701243
-0.013113575
-0.0043575703
-0.0053342731
-0.0020639929
0.00011300116
-0.0041434918
-0.00031448782
-0.0063536716
-0.00072291054
-0.0087553101
-0.0011607896
-0.011323153
-0.0017793548
-0.0026393512
-0.0015337778
0.0016520421
-0.0030330519
0.001191378
-0.0045841112
0.00083600246
-0.0061518186
0.00041678588
-0.0077876666
-0.00013082819
-0.00092587311
-0.00074957763
0.0024068743
-0.0015199551
0.001967797
-0.0023041422
0.001627069
-0.0030919218
0.001212598
-0.003843695
0.00063042198
-0.0001998951
-0.00010415257
0.0025160245
-0.00025647542
0.002125642
-0.00038304191
0.0017590017
-0.00050261575
0.0013378618
-0.00061150809
0.00074599396
-9.5003743e-05
0.00041268468
0.0021064114
0.00072511671
0.0018167461
0.0010514107
0.0014369932
0.0014975426
0.00089624186
0.0020900985
0.00015732508
-0.00088546773
0.00062263066
0.0014859237
0.001169122
0.0012725685
0.0018566777
0.00075190505
0.0027468672
8.3381428e-06
0.0039365073
0.00053235779
0.00095522588
0.0010763754
0.00073049363
0.0018969095
-0.00091325929
-0.015615298
0.016528777
-0.0020664207
-0.016627353
0.017780854
-0.0031714549
-0.017405136
-0.018153271
-0.00090477327
-0.014709973
-0.001986553
-0.015545173
-0.0031469581
-0.016244292
-0.0043211718
-0.01697868
-0.0053188857
-0.017732532
-0.018239186
-0.006264027
-0.0010356543
-0.013673876
-0.0022976971
-0.014282834
-0.0036040904
-0.014937716
-0.0050434919
-0.015539105
-0.0067748423
-0.016001022
-0.016574663
-0.0084392216
-0.0010297966
-0.012643781
-0.0021891975
-0.013123139
-0.0034244214
-0.013702219
-0.0046278691
-0.0143353
-0.0057135596
-0.014915038
-0.015240352
-0.0070477577
-0.0011454357
-0.011498202
-0.0025446664
-0.011723781
-0.0041254522
-0.012121394
-0.0058896142
-0.012571215
-0.0076530788
-0.013151618
-0.01376012
-0.0091333093
-0.0012788921
-0.010219312
-0.0025177955
-0.010484907
-0.0036331751
-0.011006009
-0.0048600747
-0.01134435
-0.0062919741
-0.011719869
-0.01201678
-0.0080356134
-0.0016514598
-0.0085679364
-0.003313105
-0.0088235912
-0.00512174
-0.0091978065
-0.0067946932
-0.0096718366
-0.0081926886
-0.010322335
-0.010552212
-0.0096577496
-0.0013029853
-0.0072653453
-0.0024780999
-0.0076489907
-0.0037205113
-0.0079560572
-0.005247971
-0.0081450409
-0.0072963474
-0.0082746581
-0.0086716973
-0.0091775883
-0.0017674879
-0.0054982931
-0.0035532852
-0.0058637611
-0.0053158068
-0.0061942153
-0.0068241243
-0.0066374824
-0.0082984288
-0.0068011677
-0.0071785847
-0.0097925603
-0.0010206024
-0.0044783107
-0.0022840926
-0.0046010094
-0.0038166248
-0.0046625376
-0.0057050622
-0.0047500199
-0.007711525
-0.0047958001
-0.0050256064
-0.0098657791
-0.001910577
-0.0025683944
-0.0037411242
-0.00277129
-0.0054373479
-0.0029673048
-0.0069278018
-0.0032607394
-0.0083576826
-0.0033672381
-0.0034519651
-0.0099328432
-0.0012865038
-0.001282737
-0.0028263785
-0.0012324875
-0.0044706209
-0.001324301
-0.0063558247
-0.0013769333
-0.0083309445
-0.0013937004
-0.0014914988
-0.010293188
-0.0017078269
0.00042395756
-0.0032915137
0.00034996427
-0.004953225
0.00033598312
-0.0067137597
0.00038203847
-0.0085352754
0.00042604596
0.00038112105
-0.01040987
-0.0017983962
0.0022209278
-0.0035355333
0.0020856338
-0.005247717
0.0020465417
-0.0069375891
0.002070163
-0.008676139
0.0021626527
0.0021816457
-0.010478833
-0.00093212377
0.0031513992
-0.0023587362
0.003510493
-0.0041161875
0.0038020962
-0.0061149676
0.004066923
-0.0082198523
0.004265296
0.0042828011
-0.010323465
-0.0021870843
0.0053367913
-0.0041878519
0.0055094848
-0.0059084904
0.0055207553
-0.0074110721
0.0055672613
-0.008815045
0.0056668247
0.0057352239
-0.010270183
-0.00082099893
0.0061558201
-0.0019949574
0.0066813603
-0.0035991662
0.0071228295
-0.0055679883
0.0075337529
-0.0076747367
0.0077709263
0.008084947
-0.01002717
-0.0020896418
0.0082444153
-0.0039592535
0.0085492049
-0.0057633058
0.0089249893
-0.0074876377
0.0092557339
-0.0089634286
0.0092437496
0.0095976171
-0.010479092
-0.0012538015
0.0094958262
-0.0024440999
0.009737321
-0.0037422274
0.010221078
-0.0052236465
0.010734446
-0.0073215386
0.011338186
0.011610697
-0.0093381346
-0.0017828314
0.011275177
-0.0036893224
0.011640697
-0.005662336
0.012190495
-0.0076341041
0.012702482
-0.0091617985
0.012861974
0.013049033
-0.010604758
-0.001362533
0.012634727
-0.002604198
0.012878874
-0.0037773208
0.013359853
-0.0049218608
0.013842937
-0.006437593
0.014373468
0.015081452
-0.008474386
-0.0013695737
0.014001488
-0.0030410512
0.014547125
-0.0048697136
0.015184932
-0.0068961479
0.015865541
-0.0089623525
0.016435486
0.016625774
-0.010511334
-0.0012122392
0.015210521
-0.0024872632
0.015818602
-0.0037244394
0.016418431
-0.004868332
0.0170052
-0.0060545316
0.017617151
0.018155744
-0.0075893032
-0.0012362774
-0.0025980635
-0.0042052718
-0.0059940027
-0.0079319579
-0.010574261
0.00013655562
0.00082079711
-0.0172254
-0.00069598552
-0.01192615
-0.010416409
0.011763525
-0.010918574
-0.0086010318
-0.010337974
-0.011096068
-0.0090168142
-0.0097995614
-0.008184209
-0.011441393
-0.0067801181
-0.010745557
-0.0057886493
-0.011473651
-0.0043207187
-0.011497927
-0.0029415468
-0.0116522
-0.0013917936
-0.011875809
7.6107893e-05
-0.011949109
0.0015904643
-0.011926427
0.0030681803
-0.011772824
0.0045544247
-0.011420817
0.0060055561
-0.011318409
0.0072577434
-0.011045895
0.0085257135
-0.010446406
0.0095550227
-0.010687679
0.010901283
-0.0093823239
0.011642005
-0.0098741744
0.012449834
-0.007855498
0.013008883
-0.0089982939
-0.0066895398
-0.010559773
-0.010565197
0.010703948
-0.0099500641
-0.0092154288
-0.009497825
-0.011552797
-0.0083159636
-0.010985729
-0.0077545425
-0.012006925
-0.006521306
-0.011982619
-0.0053173395
-0.012681079
-0.0039156754
-0.012902926
-0.0025638576
-0.013007036
-0.0011125463
-0.013330034
0.00032502185
-0.013389279
0.001755695
-0.013359612
0.0032219342
-0.013241264
0.004612751
-0.012813584
0.006101274
-0.012808641
0.0074332224
-0.012379204
0.0087445376
-0.011758881
0.0094011049
-0.011345229
0.010671516
-0.010653482
0.011192823
-0.01039587
0.012236674
-0.0088993766
0.012643611
-0.0094053285
-0.0071691262
-0.011892361
-0.01106721
0.012389445
-0.010647837
-0.010464905
-0.010210632
-0.011994806
-0.0087257575
-0.012475235
-0.0078282201
-0.012908809
-0.006418972
-0.013396081
-0.0053095165
-0.013794248
-0.0039768395
-0.014239638
-0.0023435455
-0.014643938
-0.00099856275
-0.014678286
0.00048109314
-0.014871833
0.0019508779
-0.014832238
0.0033387084
-0.014631609
0.0049449678
-0.014421988
0.0064448435
-0.014310594
0.0073644999
-0.013300556
0.0088195638
-0.013215405
0.010114729
-0.012641664
0.011459311
-0.011999024
0.012273766
-0.011210783
0.013363726
-0.0099893745
0.013927481
-0.0099691594
-0.0079552389
-0.010711033
-0.01126711
0.010905875
-0.0096978404
-0.011483343
-0.0088073226
-0.012890408
-0.0079498412
-0.013337531
-0.0068601612
-0.014002877
-0.0058813739
-0.014379201
-0.0047564522
-0.014923792
-0.0033413588
-0.015659087
-0.0020588588
-0.015930245
-0.00055982711
-0.016180958
0.00084093448
-0.016275981
0.0021903113
-0.016184753
0.0036613098
-0.016105336
0.0050281567
-0.015791253
0.0061113943
-0.015396227
0.0076395812
-0.014830829
0.0089975709
-0.014574896
0.0098862096
-0.013531644
0.010991837
-0.013105893
0.011863958
-0.012083642
0.012952956
-0.01107843
0.013497874
-0.010514198
-0.0089703351
-0.011447521
-0.012110311
0.012285181
-0.010247745
-0.012689111
-0.0092363168
-0.013907985
-0.0080986496
-0.014480761
-0.0069738442
-0.015133263
-0.0055193167
-0.015838468
-0.0041976396
-0.016250302
-0.003017763
-0.016843353
-0.001672238
-0.017279923
-0.00035605423
-0.017501113
0.0010078802
-0.017643909
0.0024226198
-0.017602904
0.0037267991
-0.017412686
0.0051405288
-0.017208031
0.0066600818
-0.0169184
0.0080096091
-0.016182771
0.0091679391
-0.015735147
0.010419982
-0.01478532
0.011746855
-0.014434241
0.012611359
-0.012948966
0.013714436
-0.012182138
0.014572608
-0.011372585
-0.0099968296
-0.0096885204
-0.012682558
0.010254567
-0.0086660243
-0.013717672
-0.0079402406
-0.014640168
-0.0069803595
-0.015446966
-0.0058737719
-0.016246211
-0.0050009679
-0.016716932
-0.0036699838
-0.017586618
-0.0022983936
-0.018219757
-0.0011730878
-0.018410001
0.00021021513
-0.018889111
0.001498578
-0.018936501
0.0027380585
-0.018846224
0.0041530252
-0.018831633
0.0054914523
-0.018549738
0.0063946928
-0.017824332
0.0076674653
-0.017458488
0.0090043843
-0.017074492
0.0099914066
-0.015774131
0.011156961
-0.015601832
0.01241123
-0.014204651
0.013377993
-0.013149925
0.014058666
-0.012053866
-0.011094095
-0.010007059
-0.013927656
0.011245607
-0.0087806387
-0.014951265
-0.0078149933
-0.015613372
-0.0066259007
-0.016642689
-0.0054622251
-0.017415646
-0.0040460567
-0.01813948
-0.0029279062
-0.018711075
-0.0019257261
-0.01922747
-0.0005399172
-0.019801265
0.00063536823
-0.020069417
0.0017473104
-0.020053141
0.0030614683
-0.020165052
0.0042107179
-0.019984812
0.0052847914
-0.019627501
0.0067010751
-0.019244035
0.0080994049
-0.018859652
0.0091016696
-0.018080035
0.010527713
-0.01720221
0.011409961
-0.016485496
0.012685481
-0.015483055
0.013935141
-0.01440146
0.014623613
-0.012743183
-0.012073702
-0.008071881
-0.014280811
0.0084179225
-0.0073723678
-0.015657878
-0.0063317602
-0.016661245
-0.0053001817
-0.017681291
-0.0043621718
-0.018360849
-0.0033558693
-0.019152835
-0.0020659356
-0.020007492
-0.00081747401
-0.020482538
0.00016283771
-0.020787422
0.0011756322
-0.021087662
0.002406202
-0.021288971
0.0034421834
-0.021205895
0.0044289422
-0.020975764
0.0056375823
-0.020840298
0.0068854784
-0.020496409
0.0077754975
-0.019753605
0.0089538521
-0.019261364
0.010119586
-0.018371088
0.011104022
-0.017471932
0.011841821
-0.016222604
0.013323466
-0.015885229
0.014281261
-0.013700948
-0.013002198
-0.0074061793
-0.015335808
0.0084537268
-0.0060171554
-0.017054451
-0.0050646606
-0.017620295
-0.0043035021
-0.018449217
-0.0031321639
-0.019539778
-0.0020847252
-0.020207671
-0.0012375703
-0.020861692
-0.00030366194
-0.021423227
0.00084676397
-0.021944469
0.0019223044
-0.022169705
0.0027755237
-0.022147722
0.0036714341
-0.022106762
0.0047999784
-0.022109551
0.0057812861
-0.021826301
0.0066781202
-0.021397111
0.0080103732
-0.021089576
0.0089988356
-0.020252957
0.010026526
-0.019401835
0.011273504
-0.018721792
0.012246385
-0.017196493
0.013179355
-0.016819691
0.014511821
-0.015035284
-0.013900387
-0.0054500091
-0.016159429
0.0062645496
-0.0047054965
-0.017807222
-0.0039880399
-0.018345415
-0.0028402611
-0.019605311
-0.0021165557
-0.020271657
-0.0010159185
-0.021316509
-1.9852235e-05
-0.021865573
0.00079018348
-0.022240101
0.0015268748
-0.022688126
0.0023400319
-0.022989317
0.0033056008
-0.023119827
0.0043638925
-0.023171509
0.0052324535
-0.022983592
0.006104084
-0.022702631
0.0070810402
-0.022378578
0.0077965529
-0.021809107
0.0087728151
-0.021232868
0.009830254
-0.020462059
0.010704193
-0.019598723
0.011912257
-0.01840734
0.012647151
-0.017556185
0.013777579
-0.016168971
-0.015208041
-0.0042459525
-0.017373455
0.0054506557
-0.0037440601
-0.018317701
-0.0026450453
-0.019454428
-0.0018934058
-0.020366539
-0.00092209954
-0.021252177
-0.00027171338
-0.021975728
0.00039448779
-0.022540509
0.0013897768
-0.023244092
0.002238315
-0.023543937
0.0030214447
-0.023779631
0.0038262647
-0.02393153
0.0046241262
-0.02397562
0.0054324351