/*--------------------------------*- C++ -*----------------------------------*\
| =========                 |                                                 |
| \\      /  F ield         | OpenFOAM: The Open Source CFD Toolbox           |
|  \\    /   O peration     | Version:  2406                                  |
|   \\  /    A nd           | Website:  www.openfoam.com                      |
|    \\/     M anipulation  |                                                 |
\*---------------------------------------------------------------------------*/
FoamFile
{
    version     2.0;
    format      ascii;
    arch        "LSB;label=32;scalar=64";
    class       volScalarField;
    location    "0.011";
    object      nut;
}
// * * * * * * * * * * * * * * * * * * * * * * * * * * * * * * * * * * * * * //

dimensions      [0 2 -1 0 0 0 0];

internalField   nonuniform List<scalar> 
92813
(
0.033537364
0.03623047
0.039015932
0.041840891
0.044676467
0.047502994
0.050305176
0.053070819
0.055789695
0.058453071
0.061053203
0.063582858
0.066034731
0.068400823
0.070672099
0.072839085
0.074893708
0.076822445
0.078612118
0.080251981
0.081729791
0.083032961
0.084149236
0.085065814
0.085769518
0.086246824
0.086483908
0.086466738
0.086181183
0.085613183
0.084748952
0.083575251
0.08207973
0.080251347
0.078080901
0.075561639
0.072690098
0.069467243
0.065898734
0.061995424
0.057780982
0.053287597
0.048557431
0.043647429
0.038629541
0.03358729
0.028660867
0.02401242
0.019852706
0.016411868
0.013856829
0.012146806
0.011049998
0.010316089
0.0097731283
0.0093302461
0.0089459428
0.0086014019
0.0082878508
0.0079994953
0.0077331982
0.0074880984
0.0072620084
0.0070519332
0.006856518
0.0066751572
0.0065059567
0.0063479279
0.0062008019
0.0060636466
0.0059351248
0.0058157874
0.0057057229
0.0056027099
0.0055070079
0.0054179457
0.0053337379
0.0052551937
0.0051817845
0.005113181
0.0050488641
0.0049887365
0.0049333315
0.0048813277
0.0048326545
0.0047870507
0.0047436907
0.0047031696
0.0046649845
0.0046289288
0.0045953215
0.0045640567
0.0045347142
0.0045069695
0.0044812341
0.0044569425
0.0044340338
0.0044124707
0.0043918365
0.0043723014
0.0043537098
0.0043360387
0.0043195037
0.0043039438
0.0042893316
0.0042756967
0.004262822
0.0042506891
0.0042392474
0.0042284245
0.0042182965
0.0042088337
0.0041999957
0.0041917624
0.0041840921
0.0041770001
0.0041705022
0.0041645776
0.004159215
0.0041543747
0.004150094
0.0041463516
0.0041432065
0.0041405451
0.0041386697
0.0041369379
0.004136751
0.037605481
0.040318877
0.04302989
0.045744419
0.048454008
0.051147354
0.053813483
0.056442429
0.059025124
0.061553232
0.064018928
0.066414602
0.068732494
0.070964294
0.07310089
0.075132625
0.077049336
0.078838788
0.08048816
0.081985853
0.083319528
0.084476088
0.085443286
0.086208393
0.086758267
0.087079409
0.087158046
0.086980236
0.086532002
0.085799512
0.084769303
0.083428571
0.081765534
0.079769882
0.077433332
0.074750281
0.071718671
0.068341235
0.064626023
0.060584992
0.056244635
0.051642828
0.046824061
0.04185006
0.036799837
0.031773772
0.026913589
0.022400634
0.018462767
0.015329307
0.013105026
0.011664344
0.010742326
0.010104737
0.0096122558
0.0091975068
0.0088308962
0.0084992425
0.008195987
0.0079163101
0.0076575427
0.0074191558
0.0071991236
0.0069944534
0.0068038903
0.0066269614
0.0064616077
0.0063072046
0.0061635161
0.0060295337
0.0059040407
0.005787467
0.0056799563
0.0055793807
0.0054858156
0.0053987003
0.0053161844
0.0052392965
0.0051673056
0.0050999045
0.0050369084
0.0049778189
0.0049233569
0.0048722764
0.0048242991
0.0047794521
0.0047367456
0.0046967439
0.0046591263
0.0046235571
0.0045903593
0.0045594652
0.0045305141
0.0045031004
0.0044776373
0.0044536326
0.0044309366
0.0044096041
0.0043891903
0.0043698343
0.0043514421
0.0043339385
0.0043175602
0.0043021644
0.0042876884
0.0042741837
0.0042614421
0.004249424
0.0042380932
0.0042273686
0.0042173211
0.0042079318
0.0041991564
0.0041909771
0.0041833528
0.0041762981
0.0041698333
0.0041639402
0.0041586072
0.0041537966
0.0041495407
0.0041458209
0.0041426936
0.0041400492
0.0041381856
0.0041364625
0.004136279
0.041820325
0.044455314
0.047071373
0.049674539
0.052261181
0.054824285
0.057355976
0.059848273
0.062293271
0.064683214
0.067010442
0.069267247
0.071445636
0.073537063
0.07553225
0.077421208
0.079193141
0.08083611
0.082337541
0.083685689
0.084868133
0.085871554
0.086683469
0.087291084
0.087681248
0.087840498
0.087755137
0.087411355
0.086795373
0.085893644
0.084693096
0.083181441
0.081347566
0.079182013
0.076677568
0.073829963
0.070638758
0.067108643
0.063249885
0.059077219
0.054620854
0.049923065
0.045032381
0.040017076
0.03496444
0.029988164
0.025241477
0.02092345
0.017270356
0.014480024
0.012572217
0.011350765
0.010549859
0.0099721989
0.0095099438
0.0091123548
0.0087575019
0.0084349596
0.008139079
0.0078656681
0.0076123805
0.007378728
0.0071628685
0.0069619216
0.0067746049
0.006600553
0.0064376745
0.0062856261
0.0061440727
0.006011893
0.0058881317
0.0057729975
0.0056668333
0.0055674802
0.0054750124
0.0053889088
0.0053072784
0.0052312398
0.0051599595
0.0050931569
0.005030841
0.0049722586
0.0049182645
0.0048676564
0.0048199805
0.0047755334
0.0047331561
0.0046933664
0.004656048
0.0046207016
0.0045876591
0.0045569186
0.0045281608
0.0045008984
0.0044755334
0.0044516736
0.0044290665
0.0044078464
0.0043875555
0.0043682826
0.0043500019
0.0043325858
0.0043162821
0.0043009768
0.0042865701
0.0042731332
0.0042604707
0.0042485188
0.0042372528
0.0042265858
0.004216581
0.0042072312
0.0041984892
0.0041903377
0.0041827363
0.0041756984
0.0041692481
0.0041633701
0.0041580522
0.0041532582
0.0041490162
0.0041453092
0.0041421919
0.0041395578
0.0041377028
0.0041359823
0.0041358012
0.046148271
0.048659632
0.051153272
0.053630437
0.056086482
0.058515017
0.060909185
0.063261923
0.065565985
0.067813989
0.069998403
0.072111465
0.074145023
0.076090356
0.077938033
0.079677869
0.081298862
0.082789173
0.084136362
0.085328691
0.086353695
0.087197906
0.087848653
0.088293037
0.08851789
0.088509796
0.088255166
0.087740363
0.086951861
0.085876463
0.084501559
0.082815469
0.080807858
0.078470247
0.075796648
0.072784307
0.069434616
0.065754499
0.061756172
0.057458744
0.052896751
0.048115766
0.043169825
0.038134646
0.033106438
0.028211457
0.023617006
0.019535998
0.016198868
0.013748923
0.012120595
0.011076336
0.010369733
0.0098395093
0.0094024574
0.0090200428
0.0086761309
0.0083623124
0.0080735534
0.0078063213
0.0075585726
0.0073297174
0.0071181334
0.0069211141
0.0067372505
0.0065662979
0.006406135
0.0062567273
0.0061176071
0.0059875436
0.0058659506
0.005752699
0.0056482293
0.0055506179
0.005459602
0.0053748509
0.0052944719
0.0052195891
0.0051492706
0.0050832779
0.0050219209
0.0049640599
0.00491071
0.0048607773
0.0048135936
0.0047696954
0.0047278129
0.004688377
0.0046514901
0.0046164979
0.0045837341
0.0045532539
0.0045247812
0.0044977699
0.0044725793
0.0044489413
0.0044264936
0.0044054389
0.0043853305
0.0043661899
0.0043480689
0.0043307923
0.0043146048
0.0042994315
0.0042851334
0.0042717965
0.0042592443
0.0042473871
0.0042362108
0.0042256256
0.0042156851
0.0042063937
0.0041977029
0.0041895948
0.0041820307
0.0041750225
0.0041685982
0.0041627454
0.0041574518
0.0041526826
0.0041484617
0.0041447736
0.0041416717
0.0041390522
0.0041372081
0.0041354943
0.0041353161
0.050555491
0.052921966
0.05527514
0.057612846
0.059928627
0.062215477
0.064466479
0.066674711
0.068833091
0.070934323
0.072970866
0.074934856
0.076817986
0.078611381
0.080305484
0.081890006
0.083353894
0.08468538
0.085872123
0.086902441
0.087763849
0.088442772
0.088926418
0.089201799
0.089255736
0.089074873
0.088645759
0.087954971
0.08698929
0.085735932
0.084182832
0.082319012
0.080135025
0.077623507
0.074779848
0.071602988
0.068096375
0.06426954
0.060136381
0.055721514
0.051064624
0.046213435
0.041229055
0.036195036
0.031217189
0.026434675
0.022029412
0.018223161
0.015225041
0.013107405
0.011728313
0.01083271
0.010203405
0.0097126871
0.0092976282
0.0089291815
0.0085959042
0.0082908175
0.0080092151
0.0077483086
0.0075063335
0.0072823866
0.0070751246
0.0068821526
0.0067018167
0.006533989
0.006376586
0.0062298673
0.0060932017
0.0059652022
0.0058457695
0.0057343726
0.0056314745
0.0055355076
0.0054458204
0.0053622853
0.0052831265
0.0052092779
0.0051398335
0.0050745835
0.0050140756
0.0049569164
0.0049041251
0.0048547893
0.0048080511
0.0047646214
0.004723183
0.0046840525
0.0046475405
0.0046128533
0.0045803226
0.0045500614
0.0045218234
0.0044950322
0.0044699749
0.004446526
0.0044242179
0.0044032957
0.0043833515
0.0043643228
0.0043463388
0.0043291889
0.0043130965
0.0042980366
0.0042838325
0.0042705785
0.0042581223
0.0042463474
0.0042352474
0.0042247331
0.0042148465
0.004205604
0.004196957
0.0041888852
0.0041813525
0.0041743692
0.004167966
0.0041621344
0.0041568611
0.0041521131
0.0041479105
0.0041442386
0.0041411499
0.0041385432
0.0041367092
0.0041350005
0.0041348249
0.055005309
0.057213052
0.059416756
0.061606188
0.06377385
0.065912205
0.068014048
0.070072286
0.07207972
0.07402895
0.075912303
0.077721758
0.079448844
0.081084537
0.082619175
0.08404241
0.085343192
0.086509825
0.087530058
0.088392295
0.089084066
0.089591727
0.089902421
0.090003112
0.089880628
0.089521699
0.088913041
0.088041492
0.086894196
0.085458852
0.083724026
0.081679541
0.079316958
0.07663017
0.073616107
0.070275581
0.066614329
0.062644754
0.058383082
0.053859324
0.049118578
0.044211496
0.039206984
0.034196737
0.029297241
0.024661506
0.020485603
0.016992301
0.01435053
0.01254983
0.011388118
0.010614826
0.010047889
0.0095898302
0.0091939466
0.0088382783
0.0085151585
0.008218574
0.0079439164
0.0076892737
0.0074531157
0.0072340087
0.0070309493
0.0068420182
0.0066652037
0.0065004719
0.0063458378
0.0062018179
0.0060676323
0.0059416866
0.0058244784
0.005715032
0.0056137006
0.0055194446
0.005431124
0.0053488167
0.0052709765
0.0051981884
0.005129651
0.0050651921
0.0050055532
0.0049491674
0.0048969599
0.0048482485
0.0048020197
0.0047590644
0.0047181102
0.0046793279
0.0046432062
0.0046088552
0.0045765926
0.0045465751
0.0045185824
0.0044920411
0.004467135
0.0044438897
0.0044217463
0.0044009639
0.0043812005
0.0043623
0.0043444623
0.0043274584
0.0043114714
0.0042965339
0.0042824368
0.0042692731
0.0042569203
0.0042452362
0.0042342182
0.0042237812
0.0042139546
0.0042047659
0.0041961679
0.0041881373
0.0041806406
0.0041736866
0.0041673082
0.0041615011
0.004156251
0.0041515269
0.0041473449
0.0041436911
0.0041406175
0.0041380249
0.0041362017
0.0041344997
0.0041343267
0.059464184
0.06150196
0.06355222
0.065588011
0.067601816
0.069586016
0.07153323
0.073436159
0.075287405
0.077079377
0.078804217
0.080453721
0.082019249
0.083491639
0.084861139
0.086117361
0.087249279
0.088245267
0.089093161
0.089781471
0.090297772
0.090628392
0.090760461
0.090680942
0.09037671
0.089834617
0.089041588
0.08798477
0.086651734
0.085030739
0.083111075
0.080883476
0.078340644
0.075477881
0.072293838
0.068791396
0.064978837
0.06087163
0.056489082
0.051866735
0.047054838
0.042108294
0.03710444
0.032143698
0.02735468
0.022905249
0.01900316
0.015859052
0.013580154
0.012070624
0.011092346
0.010417634
0.0099007743
0.0094700593
0.0090912778
0.0087475369
0.0084342517
0.0081460424
0.0078782151
0.0076298929
0.0073996884
0.0071854337
0.0069865167
0.0068016728
0.0066284529
0.0064668553
0.0063150605
0.0061737725
0.0060421215
0.0059182502
0.0058033113
0.0056959005
0.0055961042
0.0055035586
0.0054166007
0.0053354772
0.0052590101
0.0051872548
0.0051196134
0.0050559647
0.0049971503
0.0049415779
0.0048899382
0.0048418273
0.0047961358
0.0047536175
0.0047131468
0.0046747229
0.0046389645
0.0046049471
0.0045729551
0.0045431731
0.0045154055
0.0044891162
0.0044643558
0.0044413009
0.0044193281
0.0043986738
0.0043790886
0.0043603184
0.0043426187
0.0043257638
0.0043098782
0.0042950569
0.0042810667
0.0042679882
0.0042557345
0.004244139
0.0042331988
0.004222836
0.0042130671
0.0042039294
0.0041953791
0.0041873883
0.0041799269
0.0041730017
0.0041666476
0.0041608645
0.004155637
0.0041509361
0.0041467744
0.0041431382
0.0041400794
0.0041375005
0.004135688
0.0041339925
0.004133822
0.063894389
0.065762086
0.067655247
0.069533282
0.071388798
0.073214221
0.075002066
0.076744853
0.078434987
0.080064683
0.081625892
0.083110233
0.084508908
0.085812634
0.087011582
0.088095341
0.089052912
0.08987274
0.090542747
0.091051562
0.091386828
0.091534887
0.09148291
0.091217908
0.090726857
0.089996777
0.089014855
0.087768608
0.086246104
0.084436253
0.082329166
0.079916617
0.077192593
0.074153977
0.070801342
0.067139877
0.063180702
0.058942329
0.054448129
0.049739658
0.044871875
0.039905191
0.034926162
0.030045078
0.025404285
0.021186725
0.017605433
0.014839281
0.012914713
0.011661498
0.01083312
0.010236655
0.0097600366
0.0093525646
0.0089893366
0.0086568663
0.0083531117
0.0080731267
0.007811998
0.0075700439
0.0073458661
0.007136437
0.006941562
0.0067607849
0.006591215
0.0064327765
0.0062838741
0.0061453019
0.0060162139
0.0058944426
0.0057817866
0.0056764933
0.0055782118
0.0054873632
0.005401793
0.0053218254
0.0052467833
0.0051760561
0.0051093169
0.0050465212
0.0049884988
0.004933787
0.004882724
0.0048352054
0.0047901013
0.0047479985
0.0047080252
0.0046699909
0.0046345784
0.0046009111
0.0045692102
0.0045396674
0.004512119
0.0044860963
0.0044614921
0.004438623
0.0044168372
0.0043963108
0.0043769075
0.0043582802
0.0043407171
0.0043240213
0.0043082424
0.0042935369
0.0042796602
0.0042666689
0.0042545147
0.004243011
0.0042321496
0.0042218622
0.0042121532
0.0042030678
0.0041945671
0.004186618
0.0041791941
0.0041723
0.004165972
0.0041602145
0.0041550108
0.0041503341
0.0041461937
0.0041425759
0.0041395328
0.0041369683
0.0041351667
0.0041334784
0.0041333105
0.068261618
0.069964546
0.071697515
0.073414633
0.075108436
0.076771352
0.078395814
0.079974205
0.081498772
0.082961564
0.084354373
0.085668664
0.08689551
0.088025529
0.089048832
0.089954997
0.090733058
0.091371529
0.091858424
0.092182498
0.092331494
0.0922918
0.09205068
0.091595255
0.090912655
0.089990131
0.088815195
0.087375806
0.085660613
0.083659274
0.081362843
0.078764267
0.075858986
0.072645655
0.069126999
0.065310803
0.06121141
0.056849898
0.05225539
0.04747617
0.042570692
0.037606809
0.03268119
0.027915564
0.023467427
0.019532893
0.016317664
0.01394428
0.012349295
0.011312197
0.010602966
0.010068101
0.0096240607
0.0092367337
0.008887948
0.0085662751
0.0082717789
0.0079998756
0.0077453509
0.0075098444
0.0072917218
0.007087111
0.0068962145
0.0067194571
0.0065536207
0.0063983996
0.0062524667
0.0061165884
0.0059900985
0.005870496
0.0057601196
0.0056570169
0.0055602476
0.0054710595
0.005386912
0.0053080743
0.0052344828
0.0051647814
0.00509895
0.0050370493
0.0049797776
0.0049259592
0.004875481
0.0048285365
0.0047840623
0.0047423494
0.0047028766
0.0046652566
0.004630162
0.0045968569
0.00456546
0.0045361503
0.0045088113
0.0044830615
0.0044586208
0.0044359248
0.0044143376
0.0043939367
0.004374712
0.0043562383
0.004338806
0.0043222739
0.0043066051
0.0042920101
0.0042782501
0.0042653451
0.0042532875
0.0042418758
0.0042310915
0.0042208781
0.0042112287
0.0042021947
0.0041937435
0.0041858366
0.0041784509
0.0041715889
0.0041652876
0.0041595562
0.0041543767
0.0041497244
0.0041456056
0.0041420063
0.0041389791
0.0041364291
0.0041346385
0.0041329576
0.0041327922
0.072535494
0.07407622
0.07564795
0.077202292
0.078731948
0.080229443
0.081687205
0.083097546
0.084452616
0.085744352
0.086964427
0.088104195
0.089154631
0.090106283
0.090949225
0.091673035
0.09226679
0.092719078
0.093018008
0.093152479
0.093110355
0.092878114
0.092443162
0.09179279
0.090914349
0.08979539
0.088423826
0.086788143
0.084877671
0.082682929
0.080196047
0.077411305
0.074325775
0.070940104
0.06725942
0.063294444
0.059063272
0.054588833
0.049908087
0.045076764
0.04015518
0.035221622
0.030383597
0.025776095
0.021572274
0.017975222
0.015162954
0.013177852
0.01187391
0.011011823
0.010395289
0.009908917
0.0094916121
0.0091221145
0.0087869803
0.0084757709
0.0081902787
0.0079263122
0.0076783318
0.0074493516
0.0072372216
0.0070374335
0.0068504976
0.0066776591
0.0065156343
0.0063636943
0.0062208042
0.0060875816
0.0059637105
0.0058463756
0.0057382439
0.0056373703
0.0055421316
0.0054545508
0.005371872
0.0052941512
0.0052220039
0.0051533377
0.0050884308
0.005027468
0.0049709118
0.0049180061
0.0048681313
0.0048217473
0.0047779437
0.0047366066
0.0046976364
0.0046604576
0.004625656
0.0045927312
0.0045616522
0.0045325711
0.0045054396
0.0044799684
0.004455704
0.0044331705
0.0044117947
0.0043915224
0.0043724724
0.0043541668
0.004336862
0.0043204977
0.0043049466
0.0042904581
0.004276819
0.0042640018
0.0042520386
0.0042407205
0.0042300131
0.0042198732
0.0042102844
0.0042013022
0.0041929013
0.004185038
0.0041776922
0.0041708639
0.0041645909
0.0041588868
0.0041537323
0.004149105
0.0041450084
0.0041414282
0.0041384176
0.0041358823
0.0041341028
0.0041324298
0.0041322668
0.076683917
0.078064303
0.07947423
0.080864616
0.082228386
0.083558214
0.084846585
0.086085812
0.08726801
0.088385058
0.089428562
0.090389807
0.09125971
0.092028778
0.092687073
0.093224192
0.093629266
0.093890967
0.093997511
0.093937958
0.09370032
0.093271205
0.092638219
0.091788886
0.09071085
0.089392041
0.087820863
0.085986429
0.083878864
0.081489679
0.078812238
0.07584233
0.072578872
0.069024739
0.065187743
0.061081901
0.056729348
0.052155967
0.047406657
0.04254422
0.037632936
0.032762995
0.028053617
0.023654848
0.019753624
0.016546779
0.014157788
0.012535155
0.011475173
0.010749928
0.01020457
0.0097567238
0.0093617842
0.0090084022
0.0086863344
0.0083853551
0.0081086485
0.007852482
0.0076110335
0.0073886337
0.0071823395
0.0069874102
0.0068044947
0.0066354354
0.0064772868
0.0063286943
0.0061889165
0.0060583279
0.0059370943
0.0058221635
0.0057162184
0.005617566
0.0055239066
0.0054378797
0.0053567178
0.0052801181
0.0052093735
0.0051417617
0.0050778096
0.0050178195
0.0049619537
0.0049099605
0.0048607126
0.0048148786
0.0047717744
0.0047308106
0.0046923384
0.0046556222
0.0046210912
0.0045885634
0.0045578104
0.0045289517
0.0045020301
0.004476836
0.0044527617
0.00443038
0.0044092243
0.0043890862
0.0043702037
0.00435208
0.0043349001
0.0043187036
0.0043032794
0.0042888917
0.0042753755
0.0042626479
0.0042507754
0.0042395517
0.0042289203
0.0042188526
0.0042093247
0.0042003939
0.0041920434
0.0041842249
0.0041769201
0.004170127
0.0041638835
0.0041582075
0.0041530789
0.004148477
0.0041444029
0.004140842
0.0041378484
0.0041353282
0.0041335598
0.0041318949
0.0041317345
0.080672518
0.081894202
0.083142103
0.084367852
0.085564563
0.086725068
0.087841958
0.088907598
0.089914124
0.090853411
0.091717046
0.092496292
0.093182045
0.093764808
0.094234656
0.094581228
0.094793724
0.094860916
0.094771146
0.094513654
0.094076632
0.093446869
0.092612224
0.091560524
0.090279788
0.088758415
0.086985401
0.084950603
0.082645075
0.080061475
0.077194576
0.074041887
0.070604411
0.066887531
0.062902077
0.058665784
0.054204849
0.049549687
0.044753744
0.039885789
0.035016909
0.030250573
0.025719056
0.021588078
0.018051503
0.015277469
0.013308114
0.012003605
0.011138377
0.010517279
0.010026403
0.0096097237
0.0092339536
0.0088954352
0.0085859225
0.008294997
0.0080269294
0.0077784432
0.0075435629
0.0073277285
0.0071270389
0.0069370389
0.0067582791
0.0065928366
0.0064385912
0.0062933947
0.0061567783
0.006028843
0.0059102627
0.0057978924
0.0056940547
0.0055975503
0.0055055467
0.005421039
0.0053414298
0.0052659746
0.0051965589
0.0051300263
0.0050670766
0.0050080814
0.0049528956
0.004901795
0.0048532029
0.0048079168
0.0047655259
0.0047249502
0.0046869669
0.0046507289
0.0046164553
0.0045843393
0.0045539156
0.0045252767
0.0044985741
0.0044736495
0.0044497818
0.0044275451
0.0044066145
0.0043866209
0.0043678975
0.0043499694
0.0043329152
0.0043168838
0.0043015977
0.0042873064
0.0042739137
0.0042612792
0.0042494938
0.0042383649
0.0042278096
0.0042178128
0.0042083464
0.0041994672
0.0041911674
0.004183395
0.0041761328
0.0041693766
0.0041631642
0.0041575173
0.0041524155
0.0041478395
0.0041437884
0.0041402475
0.0041372712
0.0041347666
0.0041330094
0.0041313529
0.0041311949
0.084464263
0.08552899
0.086615116
0.08767604
0.088705054
0.089695151
0.090639053
0.091529223
0.092357863
0.093116894
0.093797935
0.094392266
0.094890807
0.095284088
0.095562228
0.095714933
0.095731492
0.095600801
0.095311348
0.094852584
0.094212918
0.093379369
0.092340117
0.091083365
0.089597598
0.087871786
0.085895635
0.083659883
0.081156664
0.078379964
0.075326173
0.07199476
0.068389091
0.064517392
0.060393927
0.056040703
0.051487336
0.046771383
0.041956022
0.037113914
0.032326463
0.027711826
0.023416758
0.019620103
0.016507415
0.014187889
0.012607591
0.011565487
0.010849339
0.010306243
0.0098574268
0.0094665821
0.0091077478
0.0087831912
0.0084856481
0.0082046329
0.0079451686
0.0077042662
0.0074760426
0.0072666439
0.0070713087
0.0068863319
0.0067119102
0.0065499377
0.006399573
0.0062577953
0.0061243591
0.0059991668
0.0058832582
0.005773604
0.0056717887
0.0055772933
0.0054870424
0.0054040581
0.0053260125
0.0052517442
0.0051835643
0.0051181349
0.0050562518
0.0049982583
0.0049437591
0.0048935135
0.0048456084
0.0048008782
0.0047591948
0.0047190397
0.0046815321
0.0046457796
0.0046117615
0.0045800647
0.0045499682
0.0045215523
0.0044950815
0.004470411
0.0044467682
0.0044246741
0.0044039675
0.0043841318
0.0043655589
0.0043478378
0.0043309133
0.0043150406
0.0042999045
0.0042857063
0.0042724352
0.0042598982
0.0042481958
0.0042371616
0.0042266824
0.0042167548
0.0042073503
0.0041985228
0.0041902737
0.0041825489
0.0041753307
0.004168613
0.0041624335
0.0041568166
0.0041517426
0.0041471928
0.0041431651
0.0041396445
0.004136686
0.0041341972
0.0041324513
0.0041308035
0.0041306481
0.088020291
0.088929901
0.089854892
0.090751233
0.091612382
0.092431495
0.093201443
0.09391482
0.094563937
0.095140806
0.095637116
0.096044212
0.096353071
0.096554286
0.096638051
0.096594163
0.096412031
0.096080698
0.095588831
0.094926127
0.094081252
0.09304152
0.091795499
0.09033186
0.088639647
0.086708524
0.084529042
0.082092972
0.079393713
0.076426786
0.073190437
0.069686373
0.065920646
0.061904698
0.057656748
0.053203821
0.048577735
0.043827267
0.039025803
0.03424738
0.029588972
0.025183986
0.021193711
0.017801197
0.01515757
0.013283784
0.01203903
0.011201263
0.010595658
0.010110872
0.0096951964
0.0093262818
0.0089830389
0.0086717647
0.0083853802
0.008114202
0.0078634141
0.007630011
0.0074086027
0.0072053687
0.0070151757
0.0068353023
0.0066654004
0.0065068126
0.006360256
0.0062218975
0.0060916247
0.0059693437
0.005856121
0.005749302
0.0056494436
0.0055567691
0.0054683668
0.0053869552
0.0053104526
0.0052374287
0.0051703898
0.0051060791
0.0050453355
0.0049883372
0.0049345468
0.0048851068
0.0048379201
0.0047937647
0.0047527627
0.0047130776
0.0046760308
0.0046407625
0.0046070113
0.004575731
0.0045459565
0.0045177755
0.0044915502
0.004467113
0.0044437157
0.0044217673
0.0044012766
0.0043816159
0.0043631868
0.0043456803
0.0043288941
0.0043131714
0.0042981969
0.0042840911
0.0042709372
0.0042585031
0.00424688
0.0042359396
0.0042255373
0.0042156771
0.0042063349
0.0041975594
0.0041893612
0.0041816855
0.0041745127
0.0041678355
0.0041616906
0.0041561047
0.0041510596
0.0041465367
0.0041425326
0.0041390329
0.0041360925
0.0041336201
0.0041318855
0.0041302464
0.0041300936
0.091299992
0.092056424
0.092821243
0.093553597
0.094247109
0.094895103
0.095490618
0.096026409
0.096494929
0.096888316
0.09719837
0.097416532
0.097533873
0.097541079
0.097428449
0.097185903
0.096803
0.096268962
0.095572675
0.094704119
0.093652275
0.092404817
0.090950788
0.089279419
0.087380435
0.085244322
0.082862634
0.080228361
0.077336374
0.074183971
0.070771538
0.06710334
0.063188484
0.059042071
0.054686858
0.050155051
0.045482696
0.04073094
0.035981249
0.031313438
0.026842336
0.022716079
0.019106599
0.016181723
0.014024077
0.012553977
0.011578554
0.010892507
0.010367298
0.0099267968
0.0095380291
0.0091879538
0.0088599607
0.0085612815
0.0082849399
0.0080237299
0.0077816985
0.0075556874
0.0073413665
0.0071439168
0.0069586911
0.0067839376
0.0066187096
0.0064635288
0.0063206657
0.0061857263
0.0060585817
0.0059394298
0.0058288826
0.0057249444
0.0056270384
0.005535995
0.0054495044
0.0053697414
0.0052947393
0.0052230292
0.0051570528
0.0050938646
0.0050343284
0.0049783109
0.0049252632
0.0048765764
0.0048301381
0.0047865852
0.0047462208
0.0047070665
0.0046704666
0.0046356724
0.004602212
0.0045713328
0.004541876
0.0045139509
0.0044879811
0.004463754
0.0044406239
0.0044188285
0.0043985395
0.0043790735
0.0043607848
0.0043434949
0.0043268598
0.004311277
0.0042964733
0.0042824631
0.0042694194
0.0042570935
0.0042455472
0.0042346986
0.0042243743
0.0042145796
0.0042052999
0.0041965768
0.0041884297
0.0041808045
0.0041736787
0.0041670438
0.0041609356
0.0041553816
0.0041503667
0.0041458709
0.0041418908
0.0041384125
0.0041354904
0.004133035
0.0041313119
0.0041296817
0.0041295314
0.094260933
0.094866237
0.095472108
0.09604137
0.096567817
0.097044955
0.097466016
0.09782394
0.09811135
0.098320537
0.098443441
0.098471629
0.098396292
0.098208241
0.097897909
0.097455372
0.09687037
0.096132347
0.095230453
0.094155003
0.092895352
0.091439623
0.089777422
0.087898655
0.085793859
0.083454501
0.080873319
0.078044732
0.074965332
0.071634482
0.068055034
0.064234193
0.060184557
0.055925466
0.051485024
0.046899897
0.042213904
0.037502281
0.032851065
0.028351659
0.024137829
0.020369936
0.017217623
0.014801751
0.013107658
0.011973457
0.011200699
0.010623837
0.010156665
0.0097510467
0.00938471
0.0090508024
0.0087388564
0.0084516836
0.00818418
0.0079334267
0.0077000149
0.0074812281
0.0072744185
0.0070823692
0.0069018798
0.0067321753
0.0065717704
0.0064201561
0.0062808267
0.0061493312
0.0060253161
0.005909476
0.0058015395
0.0057004243
0.0056045712
0.0055150402
0.0054304563
0.0053523956
0.0052788587
0.0052085393
0.0051435725
0.0050815016
0.0050232178
0.0049681661
0.0049159029
0.0048679244
0.0048222611
0.0047793421
0.0047395604
0.0047010013
0.0046648383
0.0046305006
0.004597365
0.0045668596
0.0045377205
0.0045100806
0.0044843688
0.0044603314
0.0044374898
0.0044158574
0.0043957517
0.0043765022
0.0043583546
0.0043412773
0.0043248099
0.0043093577
0.0042947301
0.0042808224
0.0042678804
0.0042556674
0.0042441969
0.0042334368
0.0042231922
0.0042134614
0.0042042441
0.0041955741
0.0041874784
0.0041799054
0.0041728278
0.0041662375
0.004160168
0.0041546468
0.0041496634
0.0041451953
0.0041412395
0.0041377831
0.0041348795
0.0041324415
0.0041307302
0.0041291089
0.0041289613
0.096858698
0.097315028
0.097763408
0.098170748
0.098531033
0.098837978
0.09908503
0.099265333
0.099371705
0.09939661
0.099332143
0.099170022
0.098901581
0.09851778
0.098009221
0.097366166
0.096578582
0.09563618
0.094528428
0.093246038
0.091778816
0.090115427
0.088246153
0.086161707
0.083853592
0.081314437
0.078538377
0.075521511
0.072262445
0.068762944
0.065028716
0.061070345
0.056904438
0.052555298
0.048057608
0.043450646
0.038792028
0.034171665
0.029676288
0.025416232
0.021542191
0.018217852
0.015584244
0.013678743
0.012386631
0.011510488
0.010882532
0.01038374
0.0099583274
0.0095814086
0.0092342229
0.0089143508
0.0086198546
0.0083426872
0.008083417
0.0078436311
0.0076183437
0.0074065851
0.0072077492
0.007020815
0.0068447175
0.0066799455
0.0065245327
0.0063767952
0.0062407686
0.0061127616
0.0059920064
0.0058795032
0.005774049
0.005675594
0.0055820076
0.0054940218
0.0054112565
0.0053348637
0.0052628016
0.0051939562
0.0051299671
0.0050690097
0.0050119857
0.0049578896
0.0049064583
0.0048591586
0.0048142934
0.0047720367
0.0047327819
0.0046948752
0.0046591445
0.0046252407
0.0045924693
0.0045623026
0.0045334887
0.0045061669
0.004480707
0.0044568466
0.0044343109
0.0044128521
0.0043929115
0.0043739006
0.0043558992
0.0043390237
0.0043227434
0.0043074153
0.0042929637
0.0042791696
0.0042663199
0.0042542227
0.0042428294
0.0042321532
0.0042219903
0.004212322
0.0042031666
0.004194551
0.0041865068
0.0041789875
0.0041719598
0.0041654161
0.0041593873
0.0041539003
0.0041489497
0.0041445097
0.0041405784
0.0041371444
0.0041342596
0.0041318395
0.0041301402
0.0041285278
0.0041283829
0.099046671
0.099356348
0.099648934
0.099895822
0.10009122
0.10022907
0.10030307
0.10030658
0.10023262
0.10007384
0.099822515
0.099470512
0.099009335
0.098430123
0.097723671
0.096880477
0.095890776
0.094744604
0.093431815
0.091943591
0.090270281
0.088401206
0.086327455
0.084040701
0.081533594
0.07880014
0.075836125
0.072639623
0.069211599
0.065556629
0.061683748
0.057607444
0.053348932
0.048938305
0.044417325
0.039830517
0.035252035
0.030781938
0.026513571
0.022578997
0.019137101
0.016333488
0.014243225
0.012800153
0.011823819
0.011134401
0.010605721
0.010163525
0.0097710732
0.0094131815
0.0090852179
0.008781498
0.0084988283
0.0082335948
0.0079857158
0.007754183
0.007536329
0.0073322407
0.0071410953
0.0069592262
0.00678729
0.0066273063
0.0064769738
0.0063335592
0.0062005317
0.0060760238
0.0059588455
0.00584947
0.0057463705
0.0056503493
0.0055592627
0.0054730455
0.0053919685
0.005317082
0.0052465634
0.0051792782
0.0051162454
0.0050564084
0.0050006094
0.0049474653
0.00489692
0.0048502888
0.0048062414
0.0047646662
0.0047258912
0.0046886771
0.0046533788
0.0046198852
0.0045875193
0.0045576543
0.0045291804
0.004502208
0.0044769868
0.0044533028
0.0044310818
0.0044098072
0.0043900194
0.0043712661
0.0043534193
0.0043367303
0.0043206574
0.0043054518
0.0042911699
0.0042775033
0.0042647379
0.0042527563
0.0042414439
0.0042308465
0.0042207668
0.0042111606
0.0042020665
0.0041935068
0.0041855145
0.0041780502
0.0041710741
0.0041645792
0.0041585931
0.0041531417
0.004148225
0.0041438137
0.0041399073
0.0041364962
0.0041336304
0.0041312287
0.0041295417
0.0041279383
0.004127796
0.10077609
0.10094166
0.10108042
0.10116866
0.10120086
0.10117122
0.10107371
0.1009019
0.10064904
0.10030794
0.099871049
0.099330424
0.098677752
0.097904374
0.097001325
0.095959377
0.094769098
0.093420914
0.091905147
0.09021354
0.088337094
0.086265919
0.083992072
0.081508364
0.078808811
0.075889049
0.072746814
0.069382509
0.065799879
0.062006804
0.058016221
0.053847192
0.04952636
0.045090758
0.040588473
0.036074169
0.031641903
0.027395439
0.023441944
0.019931096
0.017011668
0.014773663
0.013195925
0.012127359
0.01137811
0.010819861