/*--------------------------------*- C++ -*----------------------------------*\
| =========                 |                                                 |
| \\      /  F ield         | OpenFOAM: The Open Source CFD Toolbox           |
|  \\    /   O peration     | Version:  2406                                  |
|   \\  /    A nd           | Website:  www.openfoam.com                      |
|    \\/     M anipulation  |                                                 |
\*---------------------------------------------------------------------------*/
FoamFile
{
    version     2.0;
    format      ascii;
    arch        "LSB;label=32;scalar=64";
    class       volVectorField;
    location    "0.011";
    object      UMean;
}
// * * * * * * * * * * * * * * * * * * * * * * * * * * * * * * * * * * * * * //

dimensions      [0 1 -1 0 0 0 0];

internalField   nonuniform List<vector> 
92813
(
(40.747988 30.647116 -4.8654206e-21)
(41.627503 29.874542 1.6035251e-20)
(42.467558 29.149327 -9.7664673e-21)
(43.253894 28.457102 -9.8351072e-21)
(43.980037 27.773755 -8.2087124e-21)
(44.654068 27.102161 6.5195444e-21)
(45.283096 26.44931 5.0625074e-21)
(45.873108 25.819579 0)
(46.430329 25.215442 -2.8494199e-21)
(46.960131 24.637821 -1.1999358e-24)
(47.467328 24.086588 -1.4535543e-21)
(47.956749 23.560905 -9.5031301e-22)
(48.432983 23.059356 0)
(48.89916 22.580048 0)
(49.35591 22.120927 2.890378e-22)
(49.803721 21.680124 -1.6929029e-25)
(50.241648 21.255979 -2.3414431e-21)
(50.666892 20.847204 -2.173265e-21)
(51.07663 20.453181 2.5455586e-25)
(51.469473 20.073819 -8.9127999e-21)
(51.845156 19.709106 0)
(52.204258 19.358794 0)
(52.548731 19.02189 0)
(52.88031 18.697121 5.4572025e-21)
(53.199809 18.38331 -1.0793514e-20)
(53.507621 18.079254 -5.3442586e-21)
(53.803785 17.783749 0)
(54.088073 17.495593 0)
(54.360041 17.21357 5.2712717e-21)
(54.61905 16.93646 -1.5833478e-20)
(54.864327 16.662998 -1.0604622e-20)
(55.094913 16.391875 5.3458148e-21)
(55.30944 16.121674 -1.6225074e-20)
(55.506333 15.851182 0)
(55.684265 15.578889 0)
(55.841627 15.303033 -1.7264603e-20)
(55.976285 15.022149 1.1874663e-20)
(56.086669 14.734522 -1.2327375e-20)
(56.170673 14.437817 1.2884077e-20)
(56.223373 14.130217 -3.3837346e-20)
(56.243485 13.811673 -5.0140886e-20)
(56.231688 13.478505 1.5318141e-20)
(56.184726 13.12946 4.123934e-20)
(56.101628 12.76481 3.5683128e-20)
(55.983744 12.384772 9.6863537e-21)
(55.834154 11.991424 3.1650144e-20)
(55.657802 11.588036 0)
(55.461536 11.179122 0)
(55.254614 10.770803 0)
(55.050047 10.372051 5.838131e-20)
(54.864626 9.9952 6.2024241e-20)
(54.713247 9.6514448 6.4712611e-20)
(54.600085 9.3433588 1.6593601e-20)
(54.517758 9.0645078 -1.681507e-20)
(54.45501 8.8059801 6.7689617e-20)
(54.402929 8.5610153 -8.4825443e-20)
(54.35624 8.3256835 -4.2422243e-20)
(54.312304 8.0979659 3.7914501e-25)
(54.269914 7.8768494 -1.4360119e-19)
(54.228541 7.6617826 0)
(54.187972 7.4524232 1.2556582e-19)
(54.148074 7.2485134 -1.3314082e-19)
(54.108784 7.0498266 8.2636836e-21)
(54.070045 6.856171 1.3940605e-19)
(54.031791 6.6673576 1.2196526e-19)
(53.994026 6.4832033 8.0564517e-21)
(53.956731 6.3035632 1.1168183e-19)
(53.919878 6.1282801 2.5260173e-19)
(53.883458 5.9572038 1.5617516e-20)
(53.847478 5.7902033 -7.7163405e-21)
(53.811925 5.6271488 1.2959391e-19)
(53.776786 5.4679123 -1.5055082e-20)
(53.742083 5.3123731 1.2630264e-19)
(53.707822 5.1604213 1.2460805e-19)
(53.673984 5.011949 2.0698922e-25)
(53.640573 4.8668397 2.2804609e-19)
(53.607615 4.7249986 -7.0228767e-21)
(53.575101 4.5863251 2.1448724e-19)
(53.543023 4.4507234 1.3628514e-20)
(53.511405 4.3180957 -6.7092463e-21)
(53.480249 4.1883577 -2.1133459e-19)
(53.44956 4.061419 0)
(53.419348 3.9371931 -2.1098116e-19)
(53.389618 3.8155993 -1.9494688e-19)
(53.360377 3.6965516 3.143891e-24)
(53.331632 3.579978 0)
(53.303387 3.4657916 -1.853615e-19)
(53.275648 3.3539293 -5.8772236e-21)
(53.248414 3.2443017 2.4928101e-24)
(53.221689 3.1368526 0)
(53.195479 3.0314953 0)
(53.169782 2.9281723 -3.5060412e-19)
(53.144606 2.8268059 -3.9604679e-24)
(53.119958 2.7273327 -5.2841856e-21)
(53.095843 2.6296857 1.0380113e-20)
(53.072261 2.5337938 3.1596803e-19)
(53.049225 2.4395979 3.2014576e-19)
(53.026739 2.3470242 -3.0949806e-19)
(53.004804 2.2560148 0)
(52.983434 2.1664983 -3.0296247e-19)
(52.962631 2.0784126 0)
(52.942396 1.9916878 2.8725032e-19)
(52.922743 1.9062617 4.4736786e-21)
(52.903678 1.8220751 0)
(52.885187 1.7390458 -2.7565767e-19)
(52.867285 1.6571285 0)
(52.84998 1.5762311 2.6518404e-19)
(52.833289 1.4962915 -2.6238249e-19)
(52.817221 1.41723 3.9910992e-21)
(52.80179 1.33898 -1.9580472e-21)
(52.787006 1.2614622 0)
(52.77288 1.1845947 0)
(52.759421 1.1082929 4.7127571e-19)
(52.746647 1.0324687 -1.5050275e-26)
(52.734573 0.95703166 -4.5342008e-19)
(52.723218 0.88187993 0)
(52.712585 0.80692353 2.3095229e-24)
(52.702694 0.73203423 0)
(52.693534 0.6571427 -4.2099267e-19)
(52.685184 0.58205819 -2.0653562e-24)
(52.677607 0.50679054 0)
(52.67095 0.43094443 -3.9679121e-19)
(52.665072 0.35482734 3.8912065e-19)
(52.660309 0.27752272 0)
(52.656398 0.20007055 0)
(52.65374 0.12046006 3.668192e-19)
(52.651855 0.041141291 -3.5071248e-19)
(40.014657 30.159815 -5.9657303e-21)
(40.96024 29.419229 -1.7201141e-20)
(41.819413 28.759233 0)
(42.617091 28.123556 -1.0293012e-20)
(43.36366 27.496731 1.9567609e-20)
(44.064653 26.880539 -9.3309621e-21)
(44.724486 26.279724 6.8470413e-24)
(45.347449 25.697402 0)
(45.937964 25.135494 8.2123948e-21)
(46.500347 24.595048 1.57981e-20)
(47.038766 24.076385 -2.2449813e-24)
(47.557259 23.579159 1.4722864e-20)
(48.059441 23.102341 0)
(48.547907 22.644303 -6.9129934e-21)
(49.023849 22.2032 1.3433022e-20)
(49.487571 21.777348 -3.0818764e-24)
(49.938455 21.365345 6.3704338e-21)
(50.375109 20.966232 6.2220847e-21)
(50.796141 20.579645 0)
(51.200806 20.205635 0)
(51.589054 19.844276 5.8632329e-21)
(51.961374 19.495455 1.1865593e-24)
(52.318786 19.158671 -5.6893987e-21)
(52.662307 18.833085 -5.6192906e-21)
(52.992595 18.51769 1.1125634e-20)
(53.309996 18.211383 -5.522568e-21)
(53.614567 17.913027 5.4935898e-21)
(53.906119 17.621465 1.0961504e-20)
(54.184246 17.335519 -5.4818957e-21)
(54.448343 17.053988 1.64995e-20)
(54.69764 16.775632 -5.5364418e-21)
(54.93115 16.499157 5.5932017e-21)
(55.147588 16.223021 -1.1336717e-20)
(55.345438 15.946141 5.7676774e-21)
(55.523298 15.666966 -1.7694504e-20)
(55.679514 15.383684 2.4254811e-20)
(55.812087 15.094788 0)
(55.919214 14.798648 1.3039347e-20)
(55.998481 14.492869 6.8251926e-21)
(56.046272 14.174342 2.871334e-20)
(56.06102 13.846103 -1.5220737e-20)
(56.042709 13.50192 8.145629e-21)
(55.988833 13.141853 -2.6304334e-20)
(55.899554 12.766287 -9.4762547e-21)
(55.776755 12.375892 4.1100133e-20)
(55.624139 11.973275 0)
(55.447272 11.562133 0)
(55.253677 11.147415 3.9385702e-20)
(55.053661 10.736 7.0815954e-20)
(54.861595 10.338191 -1.5143397e-20)
(54.694349 9.9671112 -4.7857139e-20)
(54.563714 9.6321103 -6.6022675e-20)
(54.469171 9.332231 0)
(54.400894 9.0590208 0)
(54.348004 8.8036729 -6.8164987e-20)
(54.303026 8.5603088 5.1156181e-20)
(54.261898 8.3257521 8.5141334e-20)
(54.222699 8.0984262 0)
(54.184573 7.877532 1.691373e-20)
(54.147151 7.6626138 -1.6827485e-20)
(54.110296 7.4533689 1.6726687e-20)
(54.073904 7.249555 1.1627248e-19)
(54.037935 7.0509528 -1.4010197e-19)
(54.002345 6.8573734 8.1763088e-21)
(53.967076 6.6686299 -2.5097466e-19)
(53.93215 6.4845395 1.2826222e-19)
(53.897556 6.3049604 -2.5383514e-19)
(53.863269 6.1297345 -1.3336089e-19)
(53.829292 5.9587117 -1.2406505e-19)
(53.795639 5.7917623 1.3023296e-19)
(53.762302 5.6287558 -1.5129254e-20)
(53.729275 5.4695643 7.4663756e-21)
(53.696586 5.3140673 0)
(53.664245 5.1621546 0)
(53.632238 5.0137181 -2.2920406e-19)
(53.600573 4.8686406 -2.2588554e-19)
(53.569282 4.7268284 6.9548731e-21)
(53.538359 4.5881798 -2.2604986e-19)
(53.507798 4.4525996 2.1584469e-19)
(53.477629 4.3199894 6.6400451e-21)
(53.447856 4.1902654 -6.5348215e-21)
(53.418487 4.063337 0)
(53.389536 3.9391176 -2.0873568e-19)
(53.36101 3.8175268 1.9907554e-19)
(53.332918 3.6984783 -1.8965328e-19)
(53.305271 3.5819005 0)
(53.278075 3.467706 -2.8713714e-24)
(53.251337 3.3558328 0)
(53.225059 3.2461903 -1.8276872e-19)
(53.199247 3.1387238 0)
(53.173908 3.0333454 1.764511e-19)
(53.149043 2.9299989 1.7334037e-19)
(53.124661 2.8286059 6.8107641e-19)
(53.100772 2.7291036 5.2261066e-21)
(53.07738 2.6314251 3.233441e-19)
(53.054488 2.5354991 -6.4511287e-19)
(53.032111 2.4412674 4.9509603e-21)
(53.010253 2.3486552 3.0124794e-19)
(52.988916 2.257606 -3.0052404e-19)
(52.968117 2.1680474 2.9969868e-19)
(52.947857 2.0799181 0)
(52.928139 1.9931537 2.4410229e-24)
(52.908979 1.9076865 0)
(52.890382 1.823454 0)
(52.872336 1.7403752 0)
(52.854857 1.6583998 2.678129e-19)
(52.837952 1.5774447 2.0512922e-21)
(52.821638 1.4974556 -2.0142342e-21)
(52.805927 1.4183418 2.5501738e-19)
(52.790835 1.3400381 -4.9854566e-19)
(52.77637 1.2624646 1.9032272e-21)
(52.762542 1.1855417 4.7803488e-19)
(52.749364 1.1091816 -1.8318933e-21)
(52.736852 1.0333 0)
(52.725021 0.95780356 4.5309495e-19)
(52.713892 0.8825923 -3.4588929e-21)
(52.703467 0.80757562 -8.6689199e-19)
(52.693768 0.73262667 0)
(52.68478 0.65767567 -2.162675e-24)
(52.676587 0.5825279 4.1054017e-19)
(52.669147 0.50719605 -7.8504422e-22)
(52.66261 0.43128753 3.9424995e-19)
(52.656833 0.35510189 -7.7322039e-19)
(52.652154 0.27773413 0)
(52.64831 0.20021241 0)
(52.64569 0.12052005 -8.7152731e-23)
(52.643827 0.041162431 8.5040817e-23)
(39.252831 29.52455 -1.4425962e-23)
(40.18472 28.87579 -1.0494735e-20)
(41.058869 28.299543 -4.9978154e-21)
(41.8799 27.73283 4.76803e-21)
(42.653644 27.168321 9.131375e-21)
(43.384292 26.61012 -8.7566875e-21)
(44.075511 26.062706 -8.4146446e-21)
(44.730913 25.528808 -8.0988232e-21)
(45.354152 25.010228 3.2026977e-24)
(45.948859 24.508152 0)
(46.51859 24.023184 1.6307325e-24)
(47.06676 23.555335 -7.4267709e-25)
(47.596428 23.103995 1.1147324e-24)
(48.109927 22.668024 -6.6976378e-21)
(48.608608 22.246047 1.3053029e-20)
(49.09297 21.836733 -1.2739463e-20)
(49.56277 21.438939 1.2454763e-20)
(50.017236 21.051897 0)
(50.455495 20.675322 -5.9803654e-21)
(50.877018 20.30927 -5.8758565e-21)
(51.281735 19.953872 -7.5424286e-25)
(51.669984 19.609157 -5.7021524e-21)
(52.042442 19.274891 5.633809e-21)
(52.399861 18.950517 -1.11608e-20)
(52.742829 18.635238 0)
(53.071689 18.328115 0)
(53.38653 18.028126 1.0979437e-20)
(53.687204 17.734199 -1.0971752e-20)
(53.973345 17.445218 -5.4998945e-21)
(54.244385 17.160022 -5.5283752e-21)
(54.499564 16.877403 1.1153967e-20)
(54.737886 16.596086 -1.129181e-20)
(54.958144 16.314504 1.7207424e-20)
(55.158868 16.031613 5.8516925e-21)
(55.338587 15.745795 1.7991619e-20)
(55.495625 15.455264 2.9450159e-24)
(55.628063 15.158482 6.4078483e-21)
(55.733943 14.8538 -6.6798153e-21)
(55.810679 14.538792 -7.0122168e-21)
(55.855767 14.210249 -2.9573276e-20)
(55.867397 13.87195 3.1436209e-20)
(55.844886 13.51678 -3.3741362e-20)
(55.786735 13.146132 3.6370192e-20)
(55.693982 12.760311 0)
(55.568997 12.360563 5.3308361e-20)
(55.416024 11.949973 9.172839e-25)
(55.241138 11.532662 5.0160017e-20)
(55.052542 11.114124 -1.2200263e-19)
(54.861681 10.702285 -1.0199232e-19)
(54.68401 10.308804 8.9497142e-25)
(54.535422 9.9465448 -1.6200461e-20)
(54.423767 9.621651 4.9937573e-20)
(54.344752 9.329735 8.4444166e-20)
(54.287666 9.0614373 0)
(54.242737 8.8087499 6.8142054e-20)
(54.203834 8.5667824 4.1565748e-24)
(54.167778 8.3330038 1.6994581e-20)
(54.133096 8.1061667 1.1855783e-19)
(54.099138 7.8856154 0)
(54.065624 7.6709562 0)
(54.032459 7.4619115 1.6657165e-20)
(53.99956 7.2582506 -1.653436e-20)
(53.966905 7.0597607 2.4600366e-19)
(53.934461 6.8662568 -1.1378205e-19)
(53.902178 6.6775569 1.6095065e-20)
(53.870092 6.4934798 -1.5931193e-20)
(53.8382 6.3138883 -4.6539167e-24)
(53.806484 6.138626 0)
(53.774954 5.9675447 -7.7015123e-21)
(53.743633 5.8005178 -1.1409848e-19)
(53.712517 5.6374157 -7.5098099e-21)
(53.681606 5.4781131 7.4106472e-21)
(53.650935 5.3224908 1.2427467e-19)
(53.620521 5.1704403 1.9507471e-25)
(53.590349 5.0218553 2.2736559e-19)
(53.560434 4.8766193 -7.00138e-21)
(53.530814 4.7346409 -6.8971843e-21)
(53.501485 4.5958186 6.7922511e-21)
(53.472444 4.4600593 -2.1399376e-19)
(53.443727 4.3272647 0)
(53.415341 4.1973526 -6.4775983e-21)
(53.387295 4.0702333 -1.424837e-25)
(53.359606 3.9458205 6.2638613e-21)
(53.332285 3.8240348 -1.9111428e-19)
(53.305344 3.7047906 -6.0618739e-21)
(53.278796 3.588017 5.9596487e-21)
(53.252648 3.4736266 1.8745656e-19)
(53.226912 3.3615589 -1.1514831e-20)
(53.20159 3.2517221 -1.7539122e-19)
(53.17669 3.1440638 0)
(53.152223 3.0384948 -1.7476615e-19)
(53.128189 2.9349603 0)
(53.104601 2.8333814 -5.2655789e-21)
(53.081468 2.7336958 5.1754426e-21)
(53.058799 2.6358369 -3.2528028e-19)
(53.036596 2.5397333 6.3880262e-19)
(53.014876 2.4453273 -3.1847573e-19)
(52.993643 2.3525434 9.6222224e-21)
(52.972904 2.2613261 2.9755837e-19)
(52.952673 2.1716025 -2.9673805e-19)
(52.932954 2.0833117 -4.5503046e-21)
(52.913752 1.9963876 -2.8589139e-19)
(52.895082 1.9107643 -2.7182801e-19)
(52.87695 1.826379 -8.6056858e-21)
(52.859347 1.7431519 4.2226476e-21)
(52.842287 1.6610339 -2.6516967e-19)
(52.82578 1.5799385 0)
(52.809844 1.4998075 1.9944269e-21)
(52.79449 1.420555 -2.5244631e-19)
(52.779734 1.3421173 -3.2510297e-24)
(52.765586 1.2644114 0)
(52.752056 1.1873591 -4.7324481e-19)
(52.739157 1.1108725 4.6428769e-19)
(52.726906 1.0348655 4.5546623e-19)
(52.715319 0.95924671 -4.4678905e-19)
(52.704414 0.88391542 -4.3658855e-19)
(52.694197 0.80877965 -2.3483202e-24)
(52.684687 0.73371376 -2.4708316e-21)
(52.675873 0.65864533 4.1344124e-19)
(52.667835 0.58338509 7.9225288e-22)
(52.660533 0.50793782 0)
(52.654117 0.43191757 0)
(52.648442 0.35561652 3.8274089e-19)
(52.643845 0.27813859 3.7521292e-19)
(52.640068 0.2004995 0)
(52.637488 0.1206865 -7.2059817e-19)
(52.635645 0.041226271 0)
(38.612976 28.851148 9.8688301e-21)
(39.527276 28.288107 -9.654661e-21)
(40.40173 27.791568 4.624326e-21)
(41.233141 27.296471 0)
(42.022965 26.797213 -8.5456128e-21)
(42.773531 26.298657 1.6478477e-20)
(43.487397 25.80551 7.9526847e-21)
(44.167275 25.32063 -7.6951401e-21)
(44.816018 24.845981 0)
(45.436546 24.382969 7.230442e-21)
(46.031774 23.932473 0)
(46.604515 23.494835 -6.8346228e-21)
(47.157306 23.069863 1.0997197e-24)
(47.692172 22.656916 -6.4970513e-21)
(48.21045 22.255106 0)
(48.712816 21.863501 0)
(49.199352 21.481276 1.0322574e-24)
(49.669694 21.107868 -5.9765023e-21)
(50.123327 20.743056 5.877231e-21)
(50.559878 20.386878 5.7881681e-21)
(50.979259 20.039466 -8.4411108e-25)
(51.381688 19.7009 0)
(51.76764 19.371073 -5.5884018e-21)
(52.137671 19.049626 5.5413003e-21)
(52.492251 18.735961 5.5145556e-21)
(52.831668 18.429315 5.4942807e-21)
(53.155997 18.128807 -2.1957064e-20)
(53.4651 17.833469 0)
(53.758626 17.542264 -5.5234806e-21)
(54.03602 17.254085 5.5647914e-21)
(54.296529 16.967772 -1.6879977e-20)
(54.539154 16.682048 5.7076526e-21)
(54.762707 16.395448 0)
(54.965789 16.106818 -1.7825384e-20)
(55.146866 15.814546 -6.1083177e-21)
(55.304236 15.516881 -6.3087662e-21)
(55.436033 15.212252 -2.6228326e-20)
(55.540207 14.899041 2.7430045e-20)
(55.614129 14.574618 7.8907691e-25)
(55.656088 14.236609 -3.8129452e-20)
(55.664311 13.888053 0)
(55.637543 13.522066 3.4958358e-20)
(55.575377 13.141217 -3.7716526e-20)
(55.479606 12.745754 0)
(55.35313 12.337536 -5.5267095e-20)
(55.200711 11.920069 1.1977699e-20)
(55.028968 11.497908 -6.4795067e-20)
(54.846945 11.077249 8.3816737e-20)
(54.667357 10.66728 1.0462685e-19)
(54.506281 10.280651 0)
(54.377483 9.928725 4.9154026e-20)
(54.284432 9.6138084 1.6744127e-20)
(54.219898 9.3289086 -1.6921167e-20)
(54.173142 9.0646629 1.7000821e-20)
(54.135705 8.8141139 1.7017374e-20)
(54.10269 8.573274 -1.6991704e-20)
(54.071661 8.3401377 0)
(54.041514 8.1137109 7.642635e-24)
(54.011763 7.8934429 1.6796975e-20)
(53.982202 7.6789881 -1.6695149e-20)
(53.952779 7.4700884 0)
(53.923423 7.2665244 1.6451912e-20)
(53.894132 7.0680911 -2.7730023e-19)
(53.864886 6.8746071 -1.6161868e-20)
(53.835638 6.6858978 1.5996872e-20)
(53.806443 6.5017832 -1.1084217e-19)
(53.777303 6.3221321 -1.5664788e-20)
(53.748207 6.1467905 -1.2383716e-19)
(53.719173 5.975612 0)
(53.690231 5.8084738 0)
(53.661384 5.6452475 0)
(53.632635 5.4858102 -1.10299e-19)
(53.604028 5.3300443 3.5366434e-24)
(53.575583 5.1778423 -7.1495909e-21)
(53.547289 5.0291 0)
(53.519167 4.8837009 -2.221609e-19)
(53.49126 4.7415559 -6.8380763e-21)
(53.463565 4.6025634 2.2219985e-19)
(53.436084 4.466632 -6.6284782e-21)
(53.408857 4.3336635 -2.0223406e-19)
(53.381894 4.2035764 -2.0540989e-19)
(53.355207 4.0762818 0)
(53.328816 3.9516937 4.036896e-19)
(53.302735 3.8297331 1.8321651e-19)
(53.276978 3.7103148 6.0049559e-21)
(53.25156 3.5933684 -1.8890364e-19)
(53.226493 3.4788061 -1.8567239e-19)
(53.201788 3.3665688 0)
(53.177451 3.2565633 1.7369475e-19)
(53.153492 3.1487392 5.5050302e-21)
(53.129922 3.0430057 0)
(53.106746 2.9393095 1.6468345e-19)
(53.083976 2.837571 -3.2349462e-19)
(53.061625 2.7377283 8.10837e-26)
(53.039701 2.639715 3.2204979e-19)
(53.01821 2.5434591 -6.3733357e-19)
(52.997168 2.448904 0)
(52.976583 2.355973 3.0481897e-19)
(52.95646 2.2646117 0)
(52.936817 2.1747466 2.8914677e-19)
(52.917657 2.0863169 9.009141e-21)
(52.898988 1.9992564 -4.4216726e-21)
(52.880825 1.9134996 -2.3622088e-24)
(52.863175 1.8289827 -2.7257409e-19)
(52.846029 1.7456266 -2.6331037e-19)
(52.829404 1.6633812 -4.1009186e-21)
(52.813309 1.582162 0)
(52.797763 1.5019086 0)
(52.782777 1.4225362 -2.4789143e-19)
(52.76837 1.3439799 4.8656625e-19)
(52.75455 1.2661588 0)
(52.741329 1.1889918 0)
(52.728719 1.1123931 -4.6127494e-19)
(52.716738 1.0362761 -8.9976529e-19)
(52.705402 0.96054723 1.7272252e-21)
(52.694731 0.88510845 8.6748829e-19)
(52.684728 0.8098665 8.4929483e-19)
(52.675415 0.73469563 -4.172969e-19)
(52.666781 0.65952152 0)
(52.658904 0.58415938 -7.8408726e-22)
(52.651743 0.50860844 -3.9301093e-19)
(52.645452 0.43248692 0)
(52.639882 0.35608101 0)
(52.635371 0.2785029 -3.7100899e-19)
(52.631664 0.20075635 -5.3313778e-22)
(52.629125 0.12083007 3.567631e-19)
(52.627305 0.041282318 0)
(38.068252 28.160261 4.5271843e-21)
(38.964253 27.674816 8.9228005e-21)
(39.83095 27.251004 -4.3024369e-21)
(40.663576 26.824371 8.3053725e-21)
(41.461057 26.389146 -8.0307473e-21)
(42.223886 25.949744 -7.776663e-21)
(42.953341 25.510721 0)
(43.651152 25.074989 -1.1039705e-24)
(44.319349 24.644646 7.1219299e-21)
(44.960147 24.221296 3.4019224e-24)
(45.575831 23.806065 6.7599013e-21)
(46.168649 23.399602 6.595178e-21)
(46.74066 23.002097 1.7538723e-24)
(47.293575 22.613356 6.3097056e-21)
(47.828631 22.232932 6.1823321e-21)
(48.34657 21.860282 -4.0914188e-25)
(48.847679 21.494896 -5.9612918e-21)
(49.331887 21.136425 1.038347e-24)
(49.798953 20.784731 9.6782138e-25)
(50.248659 20.43986 -5.7069568e-21)
(50.68094 20.101941 -1.1784339e-25)
(51.095939 19.77107 5.5899168e-21)
(51.49397 19.447215 -2.8017564e-25)
(51.875412 19.130145 1.6543824e-20)
(52.240593 18.819428 -1.648572e-20)
(52.589713 18.514454 -1.0979387e-20)
(52.922799 18.21448 1.648387e-20)
(53.239689 17.918648 0)
(53.540023 17.626007 0)
(53.823241 17.335516 1.6825082e-20)
(54.088579 17.04607 -5.6844029e-21)
(54.335038 16.756386 -5.7788251e-21)
(54.561416 16.465116 -2.3587608e-20)
(54.766359 16.171021 6.0437074e-21)
(54.948307 15.872467 1.8682756e-20)
(55.105519 15.567754 6.4516157e-21)
(55.236163 15.25533 -1.3446824e-20)
(55.338146 14.933586 -7.0479224e-21)
(55.408989 14.599481 -2.9728112e-20)
(55.44737 14.252523 3.9369464e-20)
(55.451856 13.893459 8.4188925e-21)
(55.420798 13.516925 -9.0654041e-21)
(55.354924 13.126251 0)
(55.256662 12.721751 1.0585605e-20)
(55.129468 12.305895 -1.1459429e-20)
(54.978627 11.882583 0)
(54.811392 11.456865 5.353862e-20)
(54.637854 11.035853 -1.4377622e-20)
(54.471974 10.630099 -3.0595947e-20)
(54.329631 10.252534 -1.6041567e-20)
(54.221319 9.9118314 0)
(54.146152 9.6064286 -8.4086582e-20)
(54.094985 9.3277098 -3.3892015e-20)
(54.057738 9.0669241 3.3988832e-20)
(54.02736 8.8182258 -5.0974328e-20)
(54.00006 8.5784187 -6.7824058e-20)
(53.974017 8.3459263 0)
(53.948421 8.1199532 7.7489797e-24)
(53.922917 7.9000269 1.6729257e-20)
(53.897358 7.6858405 -1.329666e-19)
(53.871727 7.4771509 -1.6498088e-20)
(53.845965 7.2737484 -1.3091696e-19)
(53.82009 7.0754359 1.2975007e-19)
(53.79409 6.8820343 -1.2851708e-19)
(53.767926 6.6933772 2.5441521e-19)
(53.741668 6.5092851 -1.2584192e-19)
(53.715327 6.3296329 1.2441455e-19)
(53.688893 6.1542686 1.2294538e-19)
(53.662398 5.9830476 -1.0625881e-19)
(53.635877 5.8158508 -1.4985933e-20)
(53.609338 5.6525504 -1.1831283e-19)
(53.582789 5.4930262 1.1670457e-19)
(53.556282 5.3371621 -1.2946392e-19)
(53.529841 5.1848513 7.0895679e-21)
(53.50346 5.0359918 6.9862318e-21)
(53.477162 4.8904674 2.202284e-19)
(53.450998 4.748191 0)
(53.424967 4.6090609 -2.1353634e-19)
(53.399074 4.4729876 6.5684602e-21)
(53.373364 4.3398728 2.0684014e-19)
(53.347849 4.2096363 2.0350218e-19)
(53.322546 4.0821897 -6.2555188e-21)
(53.297476 3.9574475 -3.9366924e-19)
(53.272656 3.8353312 1.9358141e-19)
(53.248104 3.7157561 0)
(53.223838 3.5986525 1.8707058e-19)
(53.199869 3.4839322 1.7811259e-19)
(53.176214 3.3715379 5.646128e-21)
(53.152879 3.2613746 1.7198186e-19)
(53.129877 3.1533945 5.4503579e-21)
(53.107222 3.0475052 0)
(53.084918 2.9436547 2.2197991e-24)
(53.062981 2.8417631 5.1651562e-21)
(53.041425 2.7417689 -3.2970718e-19)
(53.02026 2.6436058 -6.3755375e-19)
(52.999492 2.5472016 3.1785803e-19)
(52.97914 2.4525008 -4.8012598e-21)
(52.959213 2.3594254 -6.033803e-19)
(52.939718 2.2679222 2.915317e-19)
(52.920672 2.1779172 9.084605e-21)
(52.902081 2.0893499 5.5880172e-26)
(52.883955 2.0021537 5.3169596e-26)
(52.866307 1.9162636 2.705581e-19)
(52.849147 1.8316153 2.7394919e-19)
(52.832467 1.7481302 -4.1380454e-21)
(52.816284 1.665758 2.59726e-19)
(52.800607 1.5844134 -1.9900072e-21)
(52.785458 1.5040375 2.5390861e-19)
(52.770847 1.4245449 4.8669742e-19)
(52.756795 1.3458691 3.7614146e-21)
(52.743309 1.2679308 -3.6903736e-21)
(52.730401 1.1906485 -1.5288959e-26)
(52.718085 1.1139359 -4.5462188e-19)
(52.706379 1.0377069 4.4773198e-19)
(52.695298 0.96186815 -4.375122e-19)
(52.684864 0.88632046 -4.291615e-19)
(52.67508 0.81097027 2.398665e-24)
(52.665967 0.73569279 4.1287028e-19)
(52.657515 0.66041362 0)
(52.649801 0.5849462 3.9719512e-19)
(52.642786 0.50928958 3.9035607e-19)
(52.636621 0.43306638 2.9981762e-27)
(52.631159 0.3565531 -3.754782e-19)
(52.626734 0.27887337 0)
(52.623098 0.20101864 -3.6017164e-19)
(52.6206 0.12097688 8.612534e-23)
(52.618805 0.041340834 -8.2646547e-23)
(37.604571 27.455511 0)
(38.482595 27.045346 -4.1422716e-21)
(39.337643 26.688939 8.0340588e-21)
(40.16551 26.326289 -7.7971381e-21)
(40.96394 25.952048 -1.514146e-20)
(41.732187 25.569807 2.2093715e-20)
(42.47055 25.18364 7.1687113e-21)
(43.179932 24.796335 -1.3976684e-20)
(43.861634 24.410025 6.8175652e-21)
(44.517217 24.026436 -1.3321683e-20)
(45.148379 23.646883 -1.3028841e-20)
(45.756839 23.272272 6.3794914e-21)
(46.344218 22.903114 -1.2503598e-20)
(46.911911 22.539586 0)
(47.460995 22.181621 0)
(47.99219 21.829022 0)
(48.505875 21.48157 0)
(49.002152 21.139113 0)
(49.480958 20.801621 -1.1385e-20)
(49.942187 20.469175 -1.1266395e-20)
(50.385803 20.141914 -5.5828776e-21)
(50.811891 19.819951 -5.5403451e-21)
(51.220643 19.503298 -1.1023715e-20)
(51.61229 19.191818 0)
(51.987026 18.885198 -5.4843685e-21)
(52.344948 18.582958 1.6465624e-20)
(52.686015 18.284476 0)
(53.010016 17.988998 0)
(53.316558 17.695659 5.5907857e-21)
(53.605057 17.403487 -5.6555057e-21)
(53.874726 17.111436 1.149257e-20)
(54.124556 16.818213 1.1713381e-20)
(54.353316 16.522589 -2.4881402e-24)
(54.559663 16.223293 0)
(54.742028 15.918609 -1.2722399e-20)
(54.89866 15.606897 0)
(55.027702 15.286789 2.0712168e-20)
(55.127073 14.956462 7.3752076e-25)
(55.194674 14.612523 -1.185767e-24)
(55.229234 14.256889 4.0727264e-20)
(55.229754 13.887186 -3.4932643e-20)
(55.194572 13.500523 -3.7658613e-20)
(55.125498 13.100488 0)
(55.025471 12.687648 0)
(54.898511 12.265056 0)
(54.750464 11.837014 -3.8495704e-20)
(54.589362 11.409199 -6.9061325e-20)
(54.426529 10.989886 -1.4775504e-20)
(54.276888 10.590863 -4.687706e-20)
(54.155013 10.224291 0)
(54.067229 9.8952112 0)
(54.008845 9.5986728 6.7461822e-20)
(53.969879 9.3254084 0)
(53.941388 9.0676614 -8.4873996e-20)
(53.917701 8.8206604 1.6951341e-20)
(53.895977 8.5818834 1.6910184e-20)
(53.874894 8.3501001 5.0529359e-20)
(53.853868 8.1246724 -1.3405071e-19)
(53.832645 7.9051842 1.3324821e-19)
(53.811127 7.6913627 1.1577629e-19)
(53.78933 7.482975 1.6411368e-20)
(53.767205 7.2798208 1.4644391e-19)
(53.744786 7.0817115 1.2897758e-19)
(53.722075 6.8884684 -1.5967948e-20)
(53.699034 6.6999356 -1.263594e-19)
(53.675754 6.5159331 2.4993329e-19)
(53.65225 6.3363419 1.3896336e-19)
(53.628517 6.1610131 -1.5253698e-20)
(53.604596 5.9898034 2.5606904e-19)
(53.580532 5.8225979 3.7614315e-25)
(53.556336 5.6592696 8.8012139e-20)
(53.532021 5.4997014 1.3020749e-19)
(53.507646 5.3437789 0)
(53.483243 5.1913959 0)
(53.458804 5.0424531 0)
(53.434361 4.8968346 0)
(53.409968 4.7544559 0)
(53.385629 4.6152147 0)
(53.361351 4.4790245 2.0172961e-19)
(53.337184 4.3457865 6.4029722e-21)
(53.313144 4.2154217 2.0157229e-19)
(53.289248 4.087843 0)
(53.265523 3.9629648 1.9490773e-19)
(53.241987 3.8407099 3.5797511e-24)
(53.218662 3.7209939 5.8888049e-21)
(53.195567 3.6037479 -5.7880065e-21)
(53.172719 3.4888832 -1.877151e-19)
(53.150133 3.3763446 1.1178993e-20)
(53.127819 3.2660354 -1.0980828e-20)
(53.105792 3.1579104 1.0790168e-20)
(53.084069 3.0518754 -1.6958643e-19)
(53.062654 2.9478803 2.3206891e-24)
(53.041566 2.8458446 -5.111927e-21)
(53.020821 2.745707 3.162571e-19)
(53.000429 2.647402 3.2039879e-19)
(52.9804 2.5508567 0)
(52.960752 2.4560169 3.0408481e-19)
(52.941496 2.3628033 2.938656e-19)
(52.92264 2.2711641 4.5818543e-21)
(52.904204 2.1810247 0)
(52.886194 2.0923248 -4.411161e-21)
(52.868621 2.0049978 -2.7276595e-19)
(52.8515 1.9189786 0)
(52.834839 1.834203 -2.7104354e-19)
(52.818634 1.7505928 8.181749e-21)
(52.802902 1.6680971 -5.2195667e-19)
(52.787653 1.5866317 3.9379929e-21)
(52.772909 1.5061341 -2.4731445e-19)
(52.758681 1.4265249 -2.4264711e-19)
(52.74499 1.347733 -4.7631932e-19)
(52.731844 1.2696794 0)
(52.719257 1.1922839 0)
(52.707241 1.1154598 4.4799193e-19)
(52.695815 1.0391208 4.4292394e-19)
(52.684996 0.96317302 4.3447691e-19)
(52.674803 0.88751891 4.2123181e-19)
(52.665242 0.81206116 -4.1479749e-19)
(52.656333 0.73667935 1.5951581e-21)
(52.648068 0.6612944 -7.8203005e-22)
(52.640522 0.58572495 -7.8584935e-19)
(52.633655 0.50996392 -7.5271452e-22)
(52.627618 0.43363924 -3.7793509e-19)
(52.622266 0.35702046 7.4106241e-19)
(52.61793 0.27924023 3.6367403e-19)
(52.614366 0.20127804 7.1255943e-19)
(52.611911 0.12112111 3.490535e-19)
(52.610142 0.041399774 3.3476527e-19)
(37.217216 26.74465 0)
(38.077238 26.408234 -3.8663832e-21)
(38.918083 26.114548 1.5062706e-20)
(39.736642 25.811163 -1.1010991e-20)
(40.530424 25.494037 7.1625269e-21)
(41.29809 25.165979 -6.9926793e-21)
(42.039311 24.830449 -6.8337096e-21)
(42.754375 24.490007 1.3366992e-20)
(43.443984 24.146731 -6.5449021e-21)
(44.109125 23.802387 6.4131522e-21)
(44.750966 23.458408 1.8870101e-20)
(45.370745 23.115883 -1.8528704e-20)
(45.969673 22.775568 1.8212954e-20)
(46.548832 22.437932 -5.9747545e-21)
(47.109102 22.103214 0)
(47.651117 21.771507 0)
(48.175265 21.442839 1.2216776e-24)
(48.681723 21.117245 5.6694328e-21)
(49.170517 20.794807 5.6127558e-21)
(49.641606 20.475661 5.5649307e-21)
(50.094961 20.159971 5.5272831e-21)
(50.530619 19.847869 5.5001781e-21)
(50.948674 19.539405 -1.0967805e-20)
(51.349231 19.234506 1.6426685e-20)
(51.732363 18.932948 5.4809357e-21)
(52.098063 18.634353 5.4964043e-21)
(52.446204 18.338201 0)
(52.776511 18.04383 0)
(53.08854 17.750457 1.6910378e-20)
(53.381663 17.457174 -1.7152887e-20)
(53.655053 17.162996 0)
(53.907686 16.866609 5.9487337e-21)
(54.1383 16.56691 1.8295171e-20)
(54.34552 16.262636 0)
(54.527776 15.951935 -6.5115708e-21)
(54.683341 15.633331 -6.7675735e-25)
(54.810333 15.305514 2.1319262e-20)
(54.906638 14.966579 2.2481556e-20)
(54.970804 14.612863 -7.9283731e-21)
(55.001426 14.248576 5.2562268e-24)
(54.997857 13.868258 -5.4009537e-24)
(54.958882 13.472062 3.9140983e-20)
(54.88726 13.063263 0)
(54.786354 12.64292 -1.1410312e-20)
(54.660754 12.214631 6.1599019e-20)
(54.516937 11.783157 1.3268845e-20)
(54.363915 11.355012 6.9963929e-25)
(54.214324 10.939835 -1.5156244e-20)
(54.083411 10.550158 7.9575531e-20)
(53.983151 10.196088 6.323492e-25)
(53.915292 9.8785482 -1.6748485e-20)
(53.872326 9.5900874 -6.7583967e-20)
(53.844412 9.3216325 6.7796105e-20)
(53.824011 9.0666103 6.7794552e-20)
(53.806706 8.8212295 1.3531498e-19)
(53.790452 8.5835263 0)
(53.774312 8.3525451 -6.7115732e-20)
(53.757874 8.1277721 0)
(53.740965 7.9088306 -2.6522722e-19)
(53.723526 7.69548 -1.3163883e-19)
(53.705604 7.4874933 -1.6320209e-20)
(53.687155 7.2846802 1.6174658e-20)
(53.668234 7.0868617 -1.2815698e-19)
(53.648851 6.8938571 1.4270607e-19)
(53.628973 6.7055242 -3.1371259e-20)
(53.60871 6.5216816 -1.0855364e-19)
(53.588081 6.3422167 -1.2259366e-19)
(53.567088 6.1669843 0)
(53.545779 5.9958425 -1.0459875e-19)
(53.524208 5.8286811 -1.3271809e-19)
(53.502389 5.6653737 0)
(53.480343 5.5058072 -1.29091e-19)
(53.458134 5.3498687 2.8277706e-20)
(53.435799 5.1974529 -1.3932303e-20)
(53.413334 5.0484634 0)
(53.390775 4.9027852 -2.1626784e-19)
(53.368185 4.7603359 -1.3308012e-20)
(53.345565 4.6210132 1.3099004e-20)
(53.32293 4.4847335 -2.06248e-19)
(53.300332 4.3513977 2.0926711e-19)
(53.277791 4.2209285 4.4313243e-24)
(53.255327 4.0932396 -1.2269307e-20)
(53.23297 3.968246 1.9900414e-19)
(53.210741 3.8458714 -1.8977301e-19)
(53.188665 3.7260319 0)
(53.166763 3.6086597 1.8334334e-19)
(53.145054 3.4936658 1.7453788e-19)
(53.123557 3.380997 5.5321383e-21)
(53.102283 3.2705547 -1.7392288e-19)
(53.08125 3.1622968 1.6551588e-19)
(53.060474 3.0561272 1.7830739e-19)
(53.039965 2.9519977 -1.6997309e-19)
(53.019743 2.8498272 -5.058335e-21)
(52.999823 2.7495551 4.9670474e-21)