/*--------------------------------*- C++ -*----------------------------------*\
| =========                 |                                                 |
| \\      /  F ield         | OpenFOAM: The Open Source CFD Toolbox           |
|  \\    /   O peration     | Version:  2406                                  |
|   \\  /    A nd           | Website:  www.openfoam.com                      |
|    \\/     M anipulation  |                                                 |
\*---------------------------------------------------------------------------*/
FoamFile
{
    version     2.0;
    format      ascii;
    arch        "LSB;label=32;scalar=64";
    class       volScalarField;
    location    "0.1";
    object      k;
}
// * * * * * * * * * * * * * * * * * * * * * * * * * * * * * * * * * * * * * //

dimensions      [0 2 -2 0 0 0 0];

internalField   nonuniform List<scalar> 
8260
(
785.35265
760.31457
725.87985
683.49327
634.17238
578.8711
518.96903
456.20621
392.52258
329.71956
269.39878
212.90144
161.22721
115.08757
74.887899
41.318964
16.4089
4.6914373
1.8440891
1.2217337
0.95397507
0.76493539
0.62996224
0.54987392
0.50063035
0.46759404
0.45270878
0.42786368
0.42275572
0.40507679
0.3947773
766.89284
738.65223
702.62936
660.03778
611.52457
557.81622
500.03369
439.6543
378.40682
317.97149
259.78281
205.13227
155.01097
110.1728
71.026668
38.456097
14.648732
4.1498326
1.7464157
1.1871585
0.93489561
0.75364498
0.62379991
0.54669987
0.49881762
0.46658607
0.45195333
0.42744122
0.42238804
0.40475821
0.39473358
739.57978
710.02255
673.91564
632.09445
585.07871
533.49659
478.29005
420.72377
362.30515
304.55213
248.80173
196.2717
147.93645
104.59308
66.672132
35.235819
12.811218
3.6852253
1.6632494
1.1689339
0.92449767
0.74759166
0.62053818
0.5450038
0.49784015
0.46591759
0.451552
0.4270298
0.42206552
0.40449087
0.39468539
702.34714
672.88498
637.95889
598.05756
553.52571
504.88602
452.9398
398.7749
343.70181
289.07851
236.15729
186.08753
139.82543
98.213729
61.72821
31.615409
10.907882
3.2580485
1.5846064
1.1399876
0.90640152
0.73675071
0.61464899
0.54184576
0.49601978
0.46478475
0.45089597
0.42658754
0.42155327
0.40416922
0.39467799
655.71342
627.63099
594.84202
557.76093
516.56293
471.63625
423.63551
373.4792
322.29544
271.29153
221.62955
174.39602
130.52869
90.917929
56.108526
27.563374
8.9769579
2.860431
1.5119174
1.1134508
0.88999534
0.72715777
0.60959391
0.53915848
0.49450205
0.46374891
0.45035549
0.42609261
0.42106205
0.40386829
0.39466703
600.28998
574.62015
544.81767
511.3107
474.15583
433.61199
390.18249
344.61465
297.85824
250.97109
205.01795
161.02104
119.89864
82.590106
49.732471
23.084513
7.1096439
2.4985399
1.4426373
1.0807592
0.86862074
0.714345
0.6026872
0.53538047
0.49236467
0.46233508
0.44960592
0.42551228
0.42045109
0.40352
0.3946032
537.07613
514.59728
488.46967
459.133
426.57016
390.93333
352.58373
312.1009
270.25783
227.95764
186.15614
145.80396
107.79685
73.122106
42.534835
18.258846
5.5656406
2.1834023
1.3711296
1.0471262
0.84670656
0.701477
0.59592189
0.53165953
0.49029748
0.46088322
0.44893214
0.42485588
0.41980583
0.40317113
0.39456759
467.80935
448.95611
426.91354
402.10346
374.46106
344.05344
311.11683
276.07303
239.52127
202.20333
164.95143
128.63318
94.117979
62.432998
34.493948
13.315353
4.2403294
1.9135788
1.3015309
1.0084602
0.82056029
0.68597651
0.58755754
0.5269296
0.48767355
0.45906708
0.44804857
0.42411281
0.41906085
0.40282054
0.39453386
394.74344
379.60793
361.74158
341.52926
318.87612
293.78209
266.37644
236.93641
205.89386
173.82647
141.43169
109.48309
78.824924
50.503146
25.702013
8.7080646
3.1698978
1.6937268
1.2280886
0.96735806
0.79297446
0.669897
0.57894796
0.52199341
0.48496473
0.4571358
0.44710238
0.42328226
0.41830115
0.40249462
0.39454692
320.31599
308.71687
294.85008
279.05087
261.20966
241.27715
219.29176
195.40163
169.88467
143.16216
115.79693
88.464776
61.999071
37.440053
16.560116
5.6314735
2.4249681
1.5465268
1.1542028
0.92159911
0.76170396
0.6516488
0.56878086
0.5160317
0.48165592
0.45483577
0.44573363
0.42234969
0.41748147
0.40219098
0.39455809
247.10738
238.63309
228.41158
216.64317
203.21707
188.05854
171.13922
152.50215
132.29549
110.80624
88.481125
65.906669
43.91387
23.67069
8.7531451
3.5048312
1.9172234
1.3959755
1.0735123
0.87310568
0.72914313
0.63276667
0.5581057
0.50969986
0.47810895
0.45236436
0.44412638
0.42131116
0.41664155
0.40190602
0.39458197
177.54561
171.6536
164.5235
156.24463
146.69509
135.76956
123.38645
109.50801
94.191888
77.639016
60.237234
42.509786
25.268947
11.407245
4.5857136
2.3501933
1.6442812
1.269976
0.99417148
0.82143162
0.69401977
0.61203288
0.54594311
0.50236948
0.47390525
0.44952879
0.44205672
0.42015344
0.41571604
0.40159395
0.39461702
113.76943
109.97479
105.35668
99.932766
93.591148
86.222005
77.704749
67.914004
56.900904
44.883633
32.356399
20.20493
10.88946
4.9998838
2.5725827
1.7747252
1.4222158
1.1240914
0.91056008
0.77158884
0.65922713
0.59083534
0.53327838
0.4947026
0.46935277
0.44653463
0.43971373
0.41887351
0.41469655
0.40132843
0.39466702
57.973036
55.708928
52.946517
49.709887
45.908739
41.488508
36.458476
30.939435
24.977041
18.820164
12.924403
7.8302203
4.383217
2.4960403
1.7601058
1.4822206
1.203221
1.0053973
0.83569616
0.72054567
0.62262531
0.56939866
0.51931781
0.48632004
0.46400421
0.44323748
0.43691769
0.41745769
0.41354871
0.40113172
0.39475797
21.951472
21.023689
19.936874
18.658899
17.106619
15.269975
13.191941
10.960786
8.7710077
6.6600381
4.7446538
3.1697025
2.1605842
1.635092
1.3999999
1.1878753
1.0326184
0.87706316
0.75382005
0.67661786
0.59363455
0.54849968
0.50500044
0.47797911
0.45824971
0.43982
0.43402116
0.4159072
0.41225166
0.40097189
0.39488916
7.1650732
6.9244539
6.6117256
6.2304636
5.7657938
5.228932
4.6028861
3.9378715
3.2654663
2.6367983
2.0829886
1.6550129
1.4194039
1.2707645
1.1091203
0.99506192
0.87558244
0.77743461
0.69727079
0.63156397
0.56539147
0.53095252
0.49038561
0.46895334
0.45200371
0.43614894
0.43108811
0.41421667
0.41079352
0.4008843
0.39506057
2.5527454
2.5072115
2.4325265
2.3347344
2.2127509
2.0695434
1.9013297
1.7261134
1.5502546
1.3845706
1.2375448
1.1487759
1.1007661
0.99405303
0.91519139
0.83897817
0.78647864
0.7101126
0.6419604
0.58891112
0.54973917
0.51283106
0.47707035
0.46083035
0.44591403
0.43246466
0.42844464
0.41236823
0.40913071
0.40084884
0.39523017
1.246163
1.2360399
1.2178295
1.1934469
1.1641768
1.1294596
1.0869013
1.0370625
1.0035395
0.96876359
0.94248953
0.92865177
0.86739981
0.82527436
0.78080342
0.71584801
0.67663843
0.64870902
0.59609429
0.56485678
0.52649419
0.49462625
0.46810925
0.45177049
0.43975118
0.42841805
0.42574953
0.41029767
0.40720826
0.40085059
0.39530235
0.85931335
0.85448682
0.84837332
0.84099096
0.83293976
0.82260014
0.80918815
0.79701726
0.79049754
0.78332103
0.77443214
0.72701932
0.72721149
0.69688899
0.67385294
0.62414141
0.6081775
0.58005622
0.56331102
0.54162516
0.5065205
0.48342887
0.4600311
0.44353841
0.43400907
0.42421636
0.42173509
0.40794512
0.40497299
0.40100532
0.39454444
0.68806105
0.68660814
0.68608021
0.68629936
0.68742224
0.68772989
0.68747914
0.68449359
0.67169462
0.65367394
0.63165391
0.62518709
0.60662736
0.60422531
0.59392414
0.5703894
0.54075742
0.51370617
0.51223233
0.51318198
0.49395131
0.46755227
0.45096645
0.43664936
0.42780218
0.42015107
0.41787402
0.40554388
0.40248476
0.40109961
0.39473346
0.59305283
0.59160399
0.58825219
0.58243592
0.57498472
0.56813198
0.56375948
0.56003603
0.55712512
0.55348484
0.55426298
0.54741917
0.5286787
0.52582038
0.51871455
0.52271259
0.50714818
0.47858217
0.47157851
0.478963
0.47533053
0.45877476
0.44284624
0.42904922
0.42360634
0.41576257
0.41460997
0.40363422
0.4007931
0.40113993
0.39490901
0.50813939
0.50768877
0.50678479
0.50544775
0.50472352
0.50600314
0.50713755
0.50721383
0.50518284
0.49914994
0.49078608
0.48585102
0.48558048
0.47701367
0.47552272
0.46661445
0.46417263
0.45745409
0.44987614
0.44747341
0.45174863
0.44650901
0.43124656
0.42288085
0.41885974
0.41074496
0.41157245
0.40233222
0.40002414
0.40111128
0.3951446
0.46839873
0.46798406
0.46694829
0.46533562
0.46339976
0.46089757
0.45953725
0.45869732
0.45770761
0.45651465
0.45465215
0.45339149
0.45037436
0.44839842
0.44605135
0.43898282
0.43621648
0.43175007
0.43601764
0.43138821
0.43549844
0.42883625
0.42222839
0.41798761
0.4129643
0.40699493
0.40833141
0.40127951
0.39966712
0.40093477
0.39538385
0.43489356
0.43497363
0.43486498
0.43456746
0.43429728
0.43445593
0.43506474
0.43590324
0.43649669
0.43648125
0.43566943
0.43272141
0.43087634
0.42817941
0.42570527
0.42434608
0.42155812
0.41815731
0.42303738
0.42183921
0.42577246
0.41653465
0.41423913
0.41002368
0.4070834
0.40445745
0.40499632
0.40007769
0.39949678
0.40056355
0.39558931
0.41909254
0.4192081
0.41913224
0.41887347
0.41850958
0.41802733
0.41740068
0.41676107
0.41639719
0.41616826
0.41594492
0.41557146
0.41498975
0.41569076
0.41533325
0.41313482
0.4119916
0.41017877
0.40912849
0.40946149
0.41581048
0.4102922
0.40640295
0.40492089
0.40381457
0.40172663
0.40211558
0.39850551
0.39910464
0.40030166
0.39586529
0.40672055
0.40681894
0.40684013
0.40678692
0.4067046
0.40661847
0.40652587
0.40641909
0.4063094
0.40624358
0.40637215
0.40671137
0.40721894
0.40631776
0.40597317
0.4057076
0.40433237
0.40318893
0.40287763
0.40327284
0.40588221
0.40672338
0.40253605
0.40203251
0.40149753
0.39979169
0.40025493
0.39725471
0.39822737
0.39926707
0.39576107
0.40108393
0.40113824
0.40115081
0.40112767
0.40109924
0.40107607
0.40105251
0.40101076
0.40093426
0.40085484
0.40078054
0.40074009
0.4007254
0.40085764
0.40101988
0.40105504
0.40083747
0.39982304
0.39942548
0.40054164
0.40113319
0.40279102
0.40041908
0.40001351
0.39994795
0.39868809
0.39840742
0.39661358
0.39754312
0.39778527
0.39548846
0.39809915
0.39810666
0.39809927
0.39808678
0.39807967
0.39807916
0.39808615
0.39810873
0.39815455
0.39819798
0.39822262
0.39822264
0.39823761
0.39828315
0.39830064
0.39832315
0.39829236
0.39818341
0.39820978
0.39892693
0.39907231
0.39943288
0.39879923
0.39823996
0.39821434
0.39760145
0.39732808
0.39633926
0.39674258
0.39738579
0.3962284
0.39715202
0.39713316
0.39710913
0.39709531
0.39709059
0.39708966
0.39708968
0.39709414
0.39710353
0.39711547
0.39712525
0.39713532
0.39716716
0.39723845
0.39734129
0.39744925
0.39754204
0.39767961
0.39778913
0.39825822
0.39836985
0.39816332
0.39813145
0.39747395
0.39735597
0.39711375
0.39686504
0.39622084
0.39642997
0.39699163
0.3965304
0.39689425
0.39687801
0.39686329
0.39685036
0.3968394
0.39683048
0.39682394
0.39682044
0.39682119
0.39682838
0.39684484
0.3968727
0.39691562
0.39698473
0.39708627
0.39720007
0.39735392
0.39757483
0.39767025
0.3979587
0.39827754
0.39778632
0.3981403
0.39734909
0.39720225
0.39712125
0.39688029
0.39696743
0.39696288
0.39721735
0.39733136
0.39747752
0.39747273
0.39746792
0.39746333
0.39745915
0.39745546
0.39745234
0.39744993
0.39744853
0.39744861
0.39745121
0.39745845
0.39747402
0.39750269
0.39754338
0.39759643
0.39767129
0.39774659
0.39780757
0.39782
0.39816109
0.39792458
0.39787971
0.3975271
0.39751186
0.39742321
0.3973404
0.39734903
0.39738328
0.39799566
0.39760209
100.54365
179.97965
279.71994
372.22625
442.78217
486.1496
502.51159
496.12004
472.17562
429.17622
377.19193
320.31558
262.24754
206.03162
153.90405
107.34341
67.110635
34.655722
13.447935
4.15906
1.6069642
0.97138841
0.7390339
0.61075358
0.5387719
0.49283237
0.47113627
0.44215178
0.43590199
0.41260571
0.39624661
212.97924
317.68125
400.08969
459.82546
498.01858
514.84127
512.55798
496.62997
461.29377
414.51121
361.27725
304.86717
248.2998
194.07732
144.07479
99.545404
61.145346
30.565325
11.242416
3.4307408
1.4556352
0.92982369
0.72361643
0.60297672
0.53441739
0.49053713
0.4698461
0.44139509
0.43532652
0.41191372
0.39614246
309.47077
387.49035
450.61168
495.98057
521.12506
526.88244
516.43892
489.82706
449.32777
400.44594
346.65845
290.88274
235.71929
183.28924
135.18624
92.483604
55.767381
26.982119
9.5362433
2.9891639
1.3481623
0.91191385
0.71673388
0.59933291
0.53227607
0.48925049
0.46907187
0.44064019
0.43468899
0.41137297
0.39604202
391.4591
454.61395
501.16253
529.4323
539.46483
534.2983
515.65602
481.38557
437.4959
387.13799
333.14346
278.10532
224.28036
173.49019
127.10412
86.056371
50.890037
23.832199
8.1237932
2.5823705
1.2732253
0.88933588
0.70613872
0.59347944
0.52879021
0.48734236
0.46791026
0.4398298
0.43394365
0.41078284
0.39594207
453.65635
501.82719
534.06904
549.9043
550.47493
537.83593
510.4655
472.08592
425.89339
374.55317
320.61433
266.38609
213.84037
164.55937
119.73309
80.189153
46.452772
21.059098
6.937331
2.3035777
1.2171133
0.87428598
0.69924381
0.58966766
0.52650983
0.48600389
0.46702437
0.43898608
0.43313824
0.41029075
0.39584954
502.32347
538.67073
559.37256
564.82103
558.03638
537.3277
504.38076
462.75464
414.7635
362.77193
309.05606
255.66083
204.31966
156.42046
113.00804
74.822504
42.416412
18.591236
5.9435035
2.0566249
1.1703403
0.85822646
0.69091271
0.58491872
0.52362809
0.48437265
0.46592664
0.43811115
0.43225388
0.40979951
0.39576358
540.65017
566.80941
577.87779
575.80666
561.41253
534.40953
497.72085
453.61284
404.2712
351.87682
298.47801
245.89573
195.66678
149.01966
106.87927
69.91188
38.749132
16.386562
5.1138464
1.873525
1.1344932
0.84587781
0.6845059
0.58129741
0.52141824
0.48307097
0.46496678
0.43723886
0.431375
0.40937519
0.39568297
570.96566
588.50153
591.78932
583.92221
562.56179
530.97229
491.10877
444.96805
394.58178
341.9396
288.89035
237.06675
187.84302
142.31497
101.30692
65.435592
35.419925
14.433371
4.4326594
1.7223642
1.1047371
0.83371558
0.67765932
0.57735492
0.51897758
0.4816475
0.46389454
0.43639751
0.4305208
0.408962
0.39560608
595.31628
605.57072
602.998
588.87765
562.55593
527.28192
484.81828
437.02888
385.81586
333.01037
280.29718
229.15264
180.81633
136.27213
96.259289
61.365404
32.403616
12.724924
3.8902688
1.6088299
1.0806306
0.82364122
0.67190437
0.57409465
0.51693703
0.48042386
0.4628928
0.43561709
0.42975255
0.40859042
0.39553117
615.59856
619.73617
612.2236
592.24355
562.0704
523.77505
479.14159
429.96962
378.06294
325.12207
272.6969
222.13342
174.55948
130.8638
91.724112
57.680774
29.689399
11.249375
3.4649197
1.5177588
1.0602968
0.81418914
0.6661429
0.57080793
0.51484472
0.47916403
0.46183471
0.43491007
0.42908099
0.408237
0.39545718
633.15706
632.20736
619.69123
595.11861
561.70783
520.8111
474.29596
423.91577
371.38478
318.29442
266.08395
215.9904
169.04859
126.06731
87.683804
54.375972
27.256936
9.9901725
3.1201771
1.448722
1.043108
0.80611006
0.66108109
0.56798281
0.51301498
0.47803361
0.46081141
0.43427179
0.4285056
0.40792033
0.39538479
648.52144
643.3888
626.08167
598.03415
561.80636
518.61541
470.43249
418.95678
365.82348
312.53848
260.45084
210.7065
164.26204
121.87615
84.116503
51.434193
25.081245
8.9293634
2.8506101
1.3945555
1.0282777
0.79878048
0.65621103
0.56526878
0.51122528
0.47691051
0.45976684
0.43368409
0.42799965
0.4076283
0.39531567
662.72063
653.63776
632.38005
601.31829
562.45155
517.32587
467.66199
415.15418
361.40928
307.86068
255.78979
206.26825
160.18476
118.26184
81.000653
48.837611
23.154162
8.0484462
2.6386907
1.3539596
1.0153566
0.79247378
0.65186396
0.56289981
0.50963692
0.47588018
0.45876983
0.43313374
0.42753885
0.40736983
0.39525261
676.07398
663.32896
638.90776
605.19347
563.85385
517.11448
466.05753
412.54981
358.16639
304.27672
252.10387
202.68565
156.82072
115.19286
78.307564
46.56764
21.463333
7.3281023
2.4771977
1.3242919
1.004022
0.78689817
0.64781242
0.56069835
0.5081454
0.47488272
0.45783793
0.43261621
0.42710342
0.40713999
0.39519761
689.28662
673.13242
646.00965
609.96513
566.70707
517.95609
465.75171
411.24049
356.14918
301.83758
249.42558
199.94154
154.15075
112.67625
76.037806
44.612523
19.998232
6.7490195
2.3559577
1.3004526
0.99404551
0.7821217
0.64422154
0.55876835
0.50683673
0.47396268
0.4569856
0.43212472
0.42668648
0.40692567
0.39515302
703.00611
683.94913
654.3655
616.11961
570.95755
520.60579
466.78127
411.34897
355.44685
300.52669
247.72929
198.0094
152.14556
110.70615
74.189226
42.959283
18.747857
6.2977107
2.2679706
1.2810374
0.98533659
0.77798418
0.64099613
0.55701554
0.50566163
0.47308871
0.45620288
0.43164996
0.42628355
0.40669429
0.39512052
716.75037
695.64332
664.03423
623.81449
576.80069
524.8003
469.51264
412.7039
355.88169
300.29125
246.9696
196.89767
150.81818
109.28201
72.762958
41.604687
17.723484
5.9413344
2.1940804
1.2632055
0.97778735
0.77447945
0.63821209
0.55548813
0.50464686
0.47228359
0.45550522
0.4311881
0.42589454
0.40642979
0.39509844
726.49838
704.71385
672.33649
631.13485
583.03139
529.86512
473.41724
415.4446
357.55739
301.06529
247.13257
196.61044
150.17746
108.40953
71.7643
40.559843
16.916613
5.6581284
2.1304169
1.2485275
0.97134135
0.77152331
0.63582541
0.55413934
0.50375623
0.47152975
0.45490005
0.43073775
0.4255134
0.4061399
0.39507947
735.30117
712.35818
679.37546
637.81161
589.23172
535.40425
478.1542
419.2837
360.44134
303.05835
248.32449
197.1296
150.22352
108.09808
71.201101
39.840186
16.315845
5.435858
2.0755359
1.2363336
0.96595091
0.76911345
0.63386812
0.55299215
0.50299567
0.47083828
0.45437881
0.43029576
0.4251366
0.40587628
0.39505554
746.06437
721.61024
687.603
645.4016
596.31786
541.92695
483.97802
424.26842
364.48451
306.14127
250.51409
198.55311
150.99701
108.34034
71.082222
39.460307
15.913837
5.2641746
2.0274537
1.2271612
0.96160549
0.76723778
0.63232189
0.5520323
0.50234873
0.4701966
0.45393219
0.42986295
0.42475822
0.40569328
0.39501993
756.7006
731.45548
696.79581
654.09464
604.55459
549.64073
491.03573
430.49021
369.73531
310.35619
253.72144
200.84905
152.5044
109.2028
71.421892
39.431965
15.70934
5.1336494
1.9844508
1.2212811
0.95835678
0.76593575
0.63121031
0.55128206
0.50182226
0.46960548
0.45358719
0.42943757
0.4243761
0.40559482
0.39497251
766.83013
741.40693
706.62364
663.77135
613.97289
558.63992
499.41052
438.03238
376.25132
315.75167
257.98403
204.04998
154.76555
110.67312
72.235363
39.772561
15.711159
5.0345839
1.944849
1.2194378
0.95629613
0.76523828
0.63053288
0.55074225
0.50141097
0.46905241
0.45333596
0.42901685
0.42399481
0.40553228
0.39491598
775.98572
750.69157
716.31773
673.88921
624.3708
568.90481
509.13963
446.92514
384.08136
322.36928
263.34026
208.19128
157.80753
112.77538
73.536865
40.505331
15.941894
4.9549115
1.9094933
1.2196915
0.95544641
0.76513549
0.63026524
0.55040237
0.50110581
0.46852678
0.45315829
0.42860247
0.42361514
0.40542656
0.39486839
782.63011
757.69197
723.93389
682.1447
633.14839
577.96041
518.08046
455.36111
391.7346
329.01267
268.84934
212.54867
161.07932
115.09686
75.02519
41.394286
16.315362
4.8686537
1.8761975
1.2214624
0.95548466
0.76535048
0.63028498
0.55020536
0.50087585
0.46802402
0.45296029
0.42819251
0.42319114
0.40526867
0.39482963
100.56987
170.10062
263.13445
352.26749
423.53535
470.69674
492.25306
490.67451
470.50948
430.83933
381.05722
325.38096
267.64384
211.20625
158.52436
111.24125
70.238301
36.811484
14.558667
4.4196207
1.654342
0.98207805
0.74318612
0.61315679
0.54047182
0.49388934
0.47172458
0.44257881
0.4363219
0.41302257
0.39629897
101.15956
166.22156
255.04051
341.54614
411.89846
459.69649
483.01459
483.59057
465.73828
428.57509
380.08485
325.34037
268.36357
212.35824
159.85195
112.56424
71.46737
37.805202
15.157838
4.6010579
1.6878059
0.98825337
0.74561206
0.61467338
0.54170171
0.49466692
0.47213185
0.44295415
0.43662428
0.41335377
0.39634926
102.48164
162.74901
246.80831
330.49358
399.84632
448.23078
473.26716
476.02409
460.11748
425.32754
378.65129
325.19652
269.04171
213.51668
161.21588
113.93983
72.74756
38.853089
15.797717
4.8060082
1.722542
0.99533344
0.74846195
0.616373
0.54295857
0.49547315
0.4725697
0.44326523
0.43690333
0.41371519
0.39639671
104.29344
159.80784
238.88029
319.39202
387.54607
436.37419
463.03225
467.9553
454.09395
421.72085
376.96445
324.89121
269.65371
214.66679
162.60852
115.36583
74.079294
39.960438
16.473804
5.0348716
1.7652674
1.0020685
0.75089268
0.61795417
0.54438439
0.4963633
0.47298235
0.44363566
0.43716389
0.41407527
0.39644555
106.74155
157.61346
231.36681
308.41038
375.12231
424.19177
452.33545
459.38257
447.63398
417.73408
374.99538
324.41438
270.18158
215.797
164.02388
116.84052
75.466905
41.128557
17.19002
5.2889672
1.8084719
1.0116023
0.75479994
0.62016191
0.54585383
0.4972766
0.4735181
0.44396518
0.43745471
0.41449447
0.39649631
109.70597
155.96637
224.44216
297.75254
362.70904
411.76681
441.22103
450.3227
440.72895
413.35222
372.72313
323.74087
270.6045
216.89286
165.4529
118.35794
76.910959
42.357449
17.962406
5.5711073
1.8629167
1.0192949
0.75744347
0.62193278
0.54751796
0.49830851
0.47397105
0.44434493
0.43772221
0.41489706
0.39656578
113.43774
155.46314
218.22905
287.49194
350.38317
399.17067
429.7452
440.8062
433.37242
408.57318
370.12505
322.83624
270.89437
217.93474
166.88173
119.90673
78.402435
43.644451
18.80438
5.8832394
1.9163777
1.0290583
0.76106159
0.62414948
0.54928913
0.49935864
0.47451508
0.44468742
0.43797385
0.41530952
0.39664271
118.12418
155.79667
212.99027
277.90477
338.37012
386.55761
417.9959
430.87036
425.59496
403.33977
367.16493
321.68511
271.03098
218.91138
168.30416
121.48473
79.942086
44.996974
19.71932
6.2294734
1.9858787
1.0398672
0.76494817
0.62650082
0.55116499
0.50046225
0.47511103
0.44508206
0.43819915
0.41574233
0.39672852
123.66534
156.87998
208.70174
269.09273
326.80059
374.04367
406.06272
420.57267
417.40381
397.6796
363.83792
320.26456
270.99875
219.80569
169.7078
123.08446
81.527167
46.418954
20.691557
6.6135238
2.0574878
1.0516389
0.76912965
0.62908065
0.55320018
0.50160424
0.47576497
0.44546304
0.43840658
0.41620737
0.3968285
130.38301
159.32594
205.7174
261.28035
315.84912
361.77149
394.05262
409.97935
408.83159
391.59432
360.13041
318.55525
270.8167
220.60092
171.07865
124.69709
83.152106
47.900035
21.719592
7.0391564
2.1441085
1.0649758
0.77370014
0.63185396
0.55532378
0.50279891
0.47649884
0.44589093
0.43859001
0.41670172
0.39695529
138.29841
162.98957
203.77667
254.49249
305.64012
349.87674
382.07791
399.16631
399.93176
385.08913
356.03226
316.5335
270.3976
221.27362
172.40073
126.31209
84.810291
49.432908
22.811279
7.5099049
2.2387346
1.0794496
0.77854614
0.63489341
0.55764841
0.50404112
0.47730852
0.44633365
0.43873478
0.4172223
0.39712466
147.48732
168.14438
203.79689
248.97905
296.30946
338.48202
370.24946
388.22054
390.75925
378.18052
351.53767
314.17894
269.72968
221.80004
173.65622
127.91734
86.4936
51.012273
23.946344
8.0260159
2.3485371
1.0961889
0.78405413
0.63829478
0.56002974
0.50533765
0.47820867
0.44683698
0.43885148
0.41776729
0.39735529
158.2837
174.76297
204.63415
244.67716
287.9398
327.69742
358.68903
377.21846
381.35237
370.90024
346.64823
311.4748
268.79839
222.15441
174.82548
129.49946
88.19307
52.63077
25.121473
8.5917771
2.4718525
1.1156288
0.78961885
0.64184876
0.56264151
0.50671941
0.47915949
0.44735457
0.43893852
0.41836938
0.39766156
170.33638
182.74361
206.91064
241.63648
280.58421
317.60051
347.47379
366.24872
371.7528
363.27609
341.36892
308.40606
267.57797
222.29732
175.8867
131.04419
89.900439
54.277463
26.353107
9.2097539
2.6127149
1.1379878
0.79649202
0.64620311
0.56532152
0.5081544
0.48017671
0.44787057
0.43897154
0.4190113
0.3980483
183.68194
192.24399
210.92767
239.83791
274.24201
308.22997
336.65901
355.38877
361.99784
355.34365
335.70012
304.95869
266.04657
222.23366
176.82087
132.53704
91.608595
55.944789
27.647448
9.8826568
2.7722864
1.163649
0.80288452
0.6502566
0.56819606
0.50973778
0.4812054
0.44837603
0.43896945
0.41973188
0.39851408
197.91181
203.04008
216.45835
239.72151
269.01434
299.61099
326.27305
344.67949
352.11892
347.13282
329.64363
301.11975
264.18625
221.97491
177.6105
133.9633
93.311897
57.629696
29.004033
10.611306
2.9536483
1.1932659
0.81171668
0.65595874
0.5713082
0.51133006
0.48229244
0.44888228
0.43894381
0.42049243
0.39905645
212.54968
214.83385
223.23354
240.45078
264.81234
291.75654
316.33851
334.14455
342.14477
338.65812
323.20066
296.87449
261.96593
221.40276
178.2252
135.30576
95.004213
59.340611
30.425682
11.406136
3.1596183
1.227482
0.81948601
0.66054521
0.57437104
0.51313867
0.48340685
0.44938886
0.43893125
0.42137274
0.39967474
226.33632
226.53794
230.73257
242.37879
261.60302
284.64571
306.85566
323.78951
332.09005
329.91529
316.37275
292.20604
259.35963
220.52402
178.6371
136.54261
96.666952
61.08105
31.926495
12.285725
3.3939839
1.2673587
0.83070698
0.66769472
0.57810357
0.51486291
0.48467109
0.44989966
0.43896178
0.42239487
0.40037039
237.94586
237.11477
238.29593
245.26326
259.35954
278.28063
297.83101
313.61752
321.96263
320.90474
309.15313
287.09942
256.34325
219.31276
178.79103
137.64524
98.275068
62.827147
33.470326
13.213467
3.6594844
1.313772
0.84161848
0.6733952
0.58124718
0.51690179
0.48612336
0.45043865
0.43913108
0.42352481
0.40113049
246.33139
245.14553
244.59377
247.97516
257.56109
272.45609
289.19843
303.61609
311.76473
311.63148
301.54144
281.54705
252.89922
217.74745
178.71168
138.59426
99.810686
64.563276
35.05452
14.191928
3.9620966
1.3680822
0.85468145
0.68100111
0.58564898
0.51889858
0.48775705
0.45101534
0.43958101
0.42466336
0.40193258
248.68721
247.89418
246.94822
248.44856
255.20576
266.81116
280.88381
293.7682
301.55237
302.1256
293.55893
275.55203
249.01671
215.81749
178.41499
139.37685
101.26019
66.282289
36.674336
15.243951
4.3118112
1.4319455
0.87160085
0.68944249
0.58895771
0.52145837
0.48950246
0.45158122
0.44023698
0.42593061
0.40285865
247.53505
247.1433
246.52806
247.51894
252.19517
261.16724
272.84503
284.15108
291.41202
292.4726
285.2632
269.14634
244.70857
213.50777
177.76852
139.965
102.60975
67.975223
38.322133
16.359076
4.7217846
1.5071381
0.88558601
0.69553145
0.59379032
0.52420043
0.49095463
0.45220564
0.44112474
0.4277498
0.40401137
243.6179
243.91548
243.68902
244.42312
247.88381
255.11974
264.92582
274.79495
281.44986
282.80361
276.76515
262.41244
240.01961
210.83306
176.82767
140.349
103.84826
69.633904
39.992605
17.535074
5.2024484
1.5957414
0.90820761
0.70747475
0.59784772
0.52723642
0.49249637
0.45305306
0.44251563
0.43022057
0.40556237
236.96637
237.43934
237.82754
239.1666
242.67932
248.98594
257.38442
265.95849
271.91749
273.35556
268.25831
255.48987
235.03496
207.83681
175.60835
140.52299
104.96924
71.252998
41.687901
18.802142
5.7226762
1.6993766
0.9271437
0.71361289
0.60262602
0.53058318
0.49353971
0.45415624
0.44430487
0.43291024
0.40803938
231.90869
232.5019
233.27646
234.94392
238.33101
243.82279
250.91227
258.14816
263.21772
264.47424
260.01719
248.57915
229.8924
204.60555
174.14812
140.49006
105.96662
72.826338
43.405973
20.187653
6.3290718
1.8205658
0.9490754
0.7238541
0.60697119
0.5333511
0.49490051
0.45548697
0.44632789
0.43552239
0.41145226
230.01334
230.67651
231.58265
233.20698
236.05126
240.43724
246.06094
251.79726
255.7294
256.51789
252.35186
241.93019
224.77627
201.25399
172.51686
140.34486
106.85398
74.345187
45.130397
21.648532
7.018617
1.963572
0.97792674
0.73587346
0.6114974
0.5369298
0.49626441
0.45695289
0.44867521
0.43836279
0.41337953
230.8096
231.3933
232.20215
233.56963
235.96194
239.22904
243.13572
247.17265
249.70887
249.77023
245.54171
235.79099
219.8807
197.91949
170.79125
140.03956
107.63408
75.801827
46.843194
23.159082
7.7925678
2.1280693
1.0029629
0.74020953
0.61533829
0.53987934
0.49754912
0.45838156
0.45095937
0.44038849
0.41389074
234.80833
234.96101
235.32461
236.20063
237.68744
239.92772
242.49089
244.48963
245.48673
244.45023
239.82069
230.3871
215.39809
194.74879
169.06661
139.65606
108.32128
77.190644
48.529288
24.698865
8.6313675
2.3117832
1.0293513
0.74963723
0.61969248
0.54256888
0.49900897
0.45961844
0.45268617
0.44110045
0.41377656
245.12207
244.7188
244.09655
243.50464
243.16404
243.23366
243.83926
244.30868
243.46127
240.85143
235.41312
225.91694
211.50287
191.87923
167.43724
139.24742
108.93472
78.507747
50.172921
26.241985
9.5144642
2.519132
1.0580594
0.75992113
0.62502263
0.54522411
0.50024446
0.46065017
0.45408417
0.44212836
0.41347668
256.84493
256.40635
255.4066
253.99586
252.25974
250.31864
248.21908
246.15862
243.70618
239.43131
232.64779
222.60415
208.35725
189.43188
165.98867
138.86535
109.49579
79.751999
51.760799
27.778239
10.457924
2.7524002
1.0872728
0.76140901
0.62604924
0.5458304
0.50225273
0.46150269
0.45513959
0.4436781
0.4134967
266.59304
266.81067
266.26848
264.93571
262.75517
259.73957
255.94455
251.38576
246.10341
239.96755
231.81853
220.74628
206.18058
187.54866
164.80486
138.55258
110.01836
80.917538
53.27558
29.280072
11.454182
3.0109166
1.1161394
0.76309725
0.6282192
0.54700606
0.5031415
0.46222971
0.45555757
0.44540766
0.41381021
268.98805
270.20844
270.72879
270.4358
269.07749
266.45585
262.47642
257.12228
250.3957
242.18233
232.32009
220.17158
204.98406
186.28596
163.93691
138.34524
110.52147
82.012064
54.716493
30.74003
12.479851
3.2974046
1.146761
0.76566279
0.62880001
0.54721595
0.50393632
0.46292171
0.45555864
0.44677442
0.4153724
265.37071
267.5579
268.99213
269.58537
269.11497
267.33025
264.00431
258.97795
252.15072
243.45417
232.78052
219.90957
204.25538
185.40691
163.28286
138.19553
111.00417
83.038674
56.087273
32.163281
13.537895
3.6167626
1.1810453
0.7658976
0.62805595
0.54711847
0.50426816
0.46358109
0.45519438
0.44817131
0.41968878
253.28847
257.81134
261.58709
264.11983
265.12832
264.50283
262.15597
257.88971
251.50052
242.96999
232.23733
219.07837
203.2219
184.3753
162.50263
137.88585
111.26162
83.897153
57.353877
33.544289
14.631838
3.9795021
1.2218164
0.76587893
0.6280435
0.54778519
0.50514492
0.4641106
0.45483363
0.45064322
0.42296587
231.40971
237.08508
242.72995
247.86015
251.99569
254.49148
254.74069
252.39546
247.42225
239.8004
229.54482
216.59456
200.90634
182.39516
161.07567
137.16
111.21509
84.580675
58.51451
34.884696
15.768592
4.399023
1.2727731
0.76686854
0.62962694
0.54842
0.50617004
0.46451023
0.45509589
0.45450576
0.42629041
209.85028
215.17422
220.61408
225.85499
230.5672
234.33285
236.66515
237.07595
234.96202
229.86405
221.58082
210.15973
195.79169
178.55151
158.43082
135.65976
110.83165
84.933736
59.494105
36.16822
16.948233
4.8900053
1.3419008
0.7707778
0.63125953
0.54885627
0.50745929
0.46501542