/*--------------------------------*- C++ -*----------------------------------*\
| =========                 |                                                 |
| \\      /  F ield         | OpenFOAM: The Open Source CFD Toolbox           |
|  \\    /   O peration     | Version:  2406                                  |
|   \\  /    A nd           | Website:  www.openfoam.com                      |
|    \\/     M anipulation  |                                                 |
\*---------------------------------------------------------------------------*/
FoamFile
{
    version     2.0;
    format      ascii;
    arch        "LSB;label=32;scalar=64";
    class       volScalarField;
    location    "0.1";
    object      p;
}
// * * * * * * * * * * * * * * * * * * * * * * * * * * * * * * * * * * * * * //

dimensions      [1 -1 -2 0 0 0 0];

internalField   nonuniform List<scalar> 
8260
(
101064.42
100965.55
100907.54
100838.11
100774.48
100727.33
100699.85
100691.95
100702.4
100728.65
100770.71
100825.4
100891.47
100961.28
101035.85
101110.69
101168.61
101203.6
101237.22
101264.98
101289.59
101311.17
101330.47
101347.04
101363.74
101373.11
101389.62
101393.12
101399.83
101399.09
101234.34
101255.1
101168.02
101083.41
100993.25
100914.15
100852.81
100810.69
100788.8
100785.54
100799.14
100829.61
100874.4
100931.19
100994.32
101059.17
101127.87
101178.74
101213.07
101245.11
101271.13
101294.44
101315.02
101333.52
101349.49
101365.75
101374.74
101392.34
101394.38
101400.88
101403.37
101242.23
101382.76
101303.14
101211.08
101113.12
101026.32
100956.06
100903.77
100871.33
100857.9
100860.08
100880.92
100917.34
100966.61
101025.2
101083.31
101147.9
101191.34
101225.05
101254.41
101278.34
101300.12
101319.53
101337.08
101352.36
101368.06
101376.65
101394.75
101395.68
101402.22
101407.12
101251.34
101487.82
101413.08
101321.89
101222.13
101131.01
101054.28
100993.78
100951.56
100927.98
100921.08
100932.9
100961.2
101003.35
101057.48
101109.76
101170.05
101206.22
101238.92
101264.95
101286.57
101306.6
101324.67
101341.14
101355.64
101370.68
101378.85
101397.49
101397.06
101403.79
101410.49
101262.12
101578.35
101508.65
101421.94
101324.44
101232.49
101152.25
101085.95
101035.81
101003.19
100987.82
100990.78
101010.77
101045.52
101094.26
101140.29
101194.59
101223.9
101254.66
101276.93
101295.95
101313.99
101330.55
101345.77
101359.41
101373.64
101381.41
101400.91
101398.67
101405.57
101413.48
101274.78
101652.82
101587.67
101507.71
101416.26
101327.34
101247.08
101178.02
101122.64
101082.97
101059.97
101054.65
101066.45
101093.76
101136.28
101175.49
101221.59
101245.34
101272.24
101290.5
101306.61
101322.4
101337.25
101351.04
101363.71
101376.98
101384.38
101404.26
101400.56
101407.58
101416.06
101285.97
101710.59
101650.51
101578.07
101495.54
101413.14
101336.23
101267.58
101209.85
101165.53
101136.43
101123.88
101128.05
101148.26
101183.91
101215.51
101250.99
101271.2
101291.78
101305.8
101318.72
101331.98
101344.88
101357.04
101368.63
101380.76
101387.81
101406.74
101402.75
101409.85
101418.21
101298.9
101753.46
101699.22
101636.17
101563.86
101489.91
101418.91
101353.46
101296.18
101249.75
101216.49
101198.16
101195.67
101209.45
101237.53
101260.18
101283.5
101301.02
101313.56
101323
101332.43
101342.85
101353.55
101363.87
101374.22
101385.04
101391.73
101408.69
101405.26
101412.38
101420.01
101311.5
101786.72
101737.16
101683.16
101621.93
101558.12
101495.17
101435.35
101381.06
101334.99
101299.68
101277.28
101269.46
101277.83
101297.01
101309.17
101321.46
101333.63
101337.88
101342.31
101347.92
101355.16
101363.39
101371.65
101380.57
101389.92
101396.17
101410.91
101408.11
101415.21
101421.69
101325.21
101811.48
101770.37
101724.01
101673.03
101620.26
101566.77
101514.22
101464.84
101421.17
101385.78
101361.08
101349.53
101353.44
101361.35
101362.59
101365.93
101368.14
101364.76
101363.9
101365.32
101369.04
101374.48
101380.51
101387.74
101395.49
101401.19
101413.75
101411.38
101418.39
101423.53
101342.09
101827.76
101805.94
101773.51
101731.4
101685.72
101639.28
101593.3
101549.25
101509.1
101475.12
101449.78
101436.02
101435.06
101431.07
101421.13
101413.54
101404.12
101394.06
101387.81
101384.74
101384.64
101386.97
101390.58
101395.85
101401.85
101406.84
101417.25
101415.1
101421.96
101425.81
101362.85
101867.34
101849.15
101820.59
101787.17
101750.22
101711.98
101673.47
101635.78
101600.42
101569.31
101544.87
101529.8
101521.73
101504.46
101481.05
101460.57
101441.72
101425.49
101413.76
101406.11
101402.05
101400.99
101401.91
101404.99
101409.12
101413.18
101421.4
101419.36
101426.02
101428.21
101384.48
101902.76
101893.43
101878.25
101851.83
101821.67
101790.98
101760.18
101729.58
101699.9
101672.3
101647.92
101626.61
101603.27
101571.62
101537.59
101506.66
101480.17
101458.26
101441.37
101429.24
101421.3
101416.64
101414.55
101415.3
101417.38
101420.22
101426.29
101424.21
101430.65
101431.01
101411.3
101984.92
101976.43
101953.93
101923.85
101895.21
101870.91
101847.8
101823.66
101797.86
101770.21
101740.16
101706.46
101668.11
101626.92
101586.74
101550.48
101519.09
101492.31
101470.47
101453.79
101442.07
101433.88
101428.64
101426.78
101426.74
101428.01
101431.99
101429.67
101435.91
101435.33
101430.01
102037.33
102038.98
102036.67
102024.28
102000.55
101971.43
101940.92
101909.16
101874.8
101837.46
101798.03
101757.12
101714.61
101671.42
101629.77
101591.25
101556.87
101526.56
101500.71
101479.71
101463.95
101452.56
101444.28
101439.39
101437.19
101436.59
101438.54
101435.77
101441.79
101440.65
101445.51
102033.57
102023.1
102008.45
101995.2
101985.12
101974.26
101961.73
101946.73
101921.46
101883.94
101841.21
101796.25
101751.93
101708.82
101667.11
101627.62
101591.69
101559.53
101531.33
101506.68
101486.86
101472.3
101461.14
101453.25
101448.65
101446.07
101445.92
101442.49
101448.23
101446.15
101461.42
102033.49
102024.31
102013.42
102001.26
101987.44
101970.32
101949.14
101924.35
101901.29
101882.83
101858.84
101825.09
101783.86
101741.07
101699.73
101660.15
101623.14
101589.46
101560.23
101533.94
101510.85
101492.75
101478.91
101468.34
101461.1
101456.46
101454.15
101449.83
101455.2
101451.59
101479.59
102001.24
101994.1
101985.53
101975.59
101964.06
101950.72
101935.26
101917.53
101898.39
101876.8
101854.64
101834.18
101806.96
101769.12
101727.82
101688.8
101652.13
101616.87
101586.43
101559.68
101535
101514.16
101497.47
101484.33
101474.55
101467.7
101463.29
101457.81
101462.75
101456.76
101484.6
101972.35
101966.47
101959.39
101951.36
101942.23
101931.64
101919.36
101905.34
101889.45
101871.65
101851.14
101826.75
101803.66
101783.11
101750.88
101713.84
101678.32
101643.29
101611.05
101583.08
101558.29
101536.02
101516.63
101501.14
101488.89
101479.73
101473.34
101466.44
101470.92
101462.19
101473.73
101937.6
101933.01
101927.49
101921.19
101913.94
101905.57
101895.98
101884.98
101872.39
101857.96
101841.67
101823.85
101802.88
101781.25
101761.02
101733.52
101700.73
101667.55
101636.07
101605.6
101579.72
101557.04
101536.13
101518.51
101503.96
101492.55
101484.2
101475.7
101479.48
101470.09
101474.36
101908.38
101904.7
101900.28
101895.23
101889.48
101882.87
101875.2
101866.31
101856.03
101844.17
101830.45
101814.54
101797.01
101776.66
101756.35
101740.14
101715.49
101685.51
101658.24
101628.5
101600.23
101576.72
101555.3
101535.95
101519.56
101506.09
101495.84
101485.58
101487.85
101478.65
101489.14
101877.01
101874.16
101870.73
101866.82
101862.31
101857.1
101851.08
101844.18
101836.29
101827.23
101816.88
101805.13
101791.49
101776.5
101759.85
101739.41
101716.73
101694.56
101670.79
101647.33
101621.05
101595.6
101573.45
101553.29
101535.52
101520.2
101508.24
101496.16
101495.69
101485.69
101505.48
101850.91
101848.63
101845.9
101842.81
101839.29
101835.25
101830.57
101825.11
101818.74
101811.31
101802.7
101792.74
101781.45
101768.67
101754.14
101738.89
101724.42
101705.08
101680.93
101658.74
101637
101613.45
101590.7
101569.99
101551.5
101534.82
101521.4
101507.82
101504.18
101489.48
101526.18
101824.82
101823.03
101820.88
101818.44
101815.64
101812.41
101808.67
101804.35
101799.36
101793.61
101787.01
101779.45
101770.73
101760.66
101749.07
101735.31
101721.75
101711.53
101694.25
101670.09
101647.64
101627.07
101606.4
101585.76
101566.98
101549.54
101535.1
101520.93
101515.37
101495.06
101530.4
101804
101802.6
101800.94
101799.06
101796.89
101794.4
101791.51
101788.18
101784.31
101779.83
101774.62
101768.52
101761.43
101753.22
101743.83
101733.33
101721.15
101706.91
101693.66
101679.22
101658.87
101638.15
101619.69
101600.52
101581.67
101563.99
101549.05
101535.15
101530.36
101508.75
101530.36
101786.65
101785.5
101784.15
101782.6
101780.83
101778.77
101776.39
101773.64
101770.47
101766.86
101762.73
101757.95
101752.42
101746.02
101738.5
101729.66
101719.76
101708
101692.78
101680.42
101667.87
101649.28
101631.43
101613.75
101595.5
101578.12
101563.13
101549.49
101546.67
101526.64
101534.24
101775.32
101774.38
101773.28
101772.04
101770.61
101768.97
101767.08
101764.89
101762.36
101759.39
101755.91
101751.83
101747
101741.27
101734.62
101727.04
101717.97
101706.96
101696.56
101685.44
101672.91
101659.62
101643.03
101626.25
101609.01
101592.21
101577.57
101564.2
101561.6
101549.32
101540.92
101766.43
101765.59
101764.62
101763.51
101762.22
101760.74
101759.02
101757.04
101754.74
101752.09
101749.03
101745.55
101741.62
101737.16
101732.01
101725.85
101718.73
101711.08
101703.05
101694.35
101683.3
101669.8
101655.57
101639.94
101623.28
101607.34
101592.83
101579.28
101574.24
101562.95
101574.32
101760.32
101759.64
101758.87
101758
101757.03
101755.91
101754.65
101753.22
101751.59
101749.73
101747.6
101745.14
101742.32
101739.09
101735.4
101731.32
101726.84
101721.86
101714.96
101705.11
101696.03
101685.52
101670.76
101655.5
101640.14
101624.78
101608.44
101592.09
101584.45
101561.51
101607.94
101767.69
101767.14
101766.51
101765.8
101764.97
101764.01
101762.91
101761.65
101760.2
101758.53
101756.6
101754.38
101751.81
101748.84
101745.38
101741.35
101736.55
101730.86
101724.1
101715.99
101705.71
101694.84
101683.88
101670.88
101656.75
101642.17
101624.89
101603.94
101591.45
101567.32
101586.24
101761.28
101760.63
101759.94
101759.21
101758.44
101757.61
101756.68
101755.63
101754.43
101753.04
101751.41
101749.51
101747.29
101744.68
101741.62
101738.04
101733.83
101728.81
101721.8
101715.87
101708.15
101696.05
101681.48
101669.75
101655.78
101634.09
101617.45
101607.43
101590.77
101571.01
101572.92
100281.45
100265.11
100254.72
100245.41
100235.61
100230.45
100236.99
100257.2
100288.27
100334.01
100393.08
100463.43
100543
100629.34
100718.86
100815.29
100900.89
100993.25
101053.66
101106.91
101160.16
101204.15
101242.9
101274.93
101303.69
101324.36
101342.39
101354.71
101361.03
101355.8
101220.17
100295.83
100277.64
100254.28
100235.5
100222.73
100220.48
100232.44
100259.89
100299.62
100351.97
100415.56
100488.65
100569.38
100655.06
100742.64
100835.9
100919.2
101004.9
101056.51
101113.6
101166.11
101209.1
101246.91
101278.15
101306.28
101326.33
101344.02
101356.35
101362.51
101356.41
101220.49
100250.66
100221.36
100194.06
100179.09
100176.52
100185.9
100209.54
100247.52
100295.93
100355.5
100424.78
100501.95
100585.22
100671.79
100759.42
100851.17
100935.78
101015.09
101061.6
101121.33
101172.36
101214.21
101251.01
101281.44
101308.92
101328.34
101345.7
101358.06
101364.02
101357.1
101220.69
100177.87
100152.96
100134.19
100128.55
100135.43
100154.91
100188.02
100234.19
100290.43
100356.64
100431.1
100511.98
100597.68
100685.36
100774.13
100864.03
100949.79
101024.37
101068.87
101129.19
101178.52
101219.28
101255.08
101284.73
101311.57
101330.36
101347.4
101359.87
101365.54
101357.8
101220.73
100082.42
100067.33
100060.51
100067.94
100088.28
100120.91
100165.73
100221.52
100286.2
100359.06
100438.44
100522.74
100610.57
100699.25
100789.52
100877.57
100962.97
101033.56
101077.31
101137.03
101184.63
101224.32
101259.15
101288.01
101314.23
101332.38
101349.13
101361.75
101367.07
101358.5
101220.68
99969.053
99969.197
99979.558
100004.22
100040.7
100087.77
100144.83
100210.65
100283.68
100362.91
100446.91
100534.33
100624.03
100713.57
100805.36
100892.22
100975.25
101042.31
101086.07
101144.73
101190.66
101229.3
101263.19
101291.29
101316.88
101334.41
101350.88
101363.66
101368.6
101359.22
101220.56
99839.623
99862.227
99895.075
99939.965
99994.103
100056.25
100125.76
100201.66
100282.7
100367.91
100456.15
100546.38
100637.66
100727.92
100820.94
100907.11
100986.46
101050.15
101094.98
101152.28
101196.64
101234.25
101267.2
101294.55
101319.54
101336.44
101352.67
101365.53
101370.11
101359.98
101220.42
99708.298
99756.76
99813.602
99879.036
99950.832
100027.84
100109.45
100194.99
100283.45
100374.1
100466.13
100558.8
100651.35
100742.17
100835.75
100920.96
100998.11
101057.55
101104.02
101159.68
101202.55
101239.13
101271.17
101297.79
101322.18
101338.48
101354.47
101367.28
101371.63
101360.79
101220.26
99585.012
99660.181
99739.274
99823.818
99912.62
100003.84
100096.68
100191.03
100286.14
100381.59
100476.89
100571.58
100665.11
100756.65
100849.96
100933.86
101010.53
101065
101113.15
101166.91
101208.39
101243.96
101275.11
101301.02
101324.83
101340.51
101356.29
101368.9
101373.19
101361.69
101220.1
99475.658
99576.328
99675.337
99776.785
99881.519
99985.614
100088.11
100190.14
100290.94
100390.44
100488.43
100584.72
100679.13
100772.31
100864.18
100946.01
101022.36
101073.03
101122.28
101173.98
101214.17
101248.74
101279.02
101304.22
101327.46
101342.55
101358.15
101370.39
101374.8
101362.69
101219.93
99385.811
99505.643
99624.511
99742.352
99859.759
99974.132
100084.35
100192.66
100297.96
100400.68
100500.76
100598.35
100693.97
100788.42
100877.57
100958.19
101033.31
101081.69
101131.33
101180.9
101219.87
101253.45
101282.88
101307.4
101330.08
101344.58
101360.05
101371.84
101376.42
101363.8
101219.77
99323.503
99459.08
99591.723
99721.052
99846.941
99968.903
100086.28
100199.09
100307.49
100412.52
100514.19
100612.97
100710.3
100803.44
100889.13
100970.32
101043.61
101090.69
101140.24
101187.69
101225.5
101258.1
101286.69
101310.54
101332.69
101346.61
101362.02
101373.34
101378.05
101365.03
101219.64
99294.228
99439.185
99578.902
99714.222
99845.29
99971.671
100093.32
100209.81
100320.41
100426.74
100529.55
100629.22
100725.03
100815.25
100901.73
100983.13
101053.56
101099.86
101148.99
101194.36
101231.04
101262.68
101290.46
101313.66
101335.29
101348.63
101364.02
101374.88
101379.68
101366.39
101219.59
99297.758
99446.809
99587.11
99722.921
99855.231
99983.263
100107.11
100225.58
100337.64
100444.3
100546.66
100644.46
100736.96
100826.37
100914.63
100995.44
101063.31
101109.13
101157.54
101200.92
101236.49
101267.19
101294.18
101316.73
101337.87
101350.66
101366.03
101376.44
101381.31
101367.9
101219.63
99313.413
99467.816
99609.72
99745.469
99877.135
100004.76
100128.5
100245.39
100356.09
100460.8
100558.86
100655.34
100749.91
100839.2
100926.78
101006.52
101073.01
101118.48
101165.9
101207.35
101241.85
101271.63
101297.83
101319.77
101340.42
101352.68
101368.05
101378
101382.93
101369.62
101219.65
99345.708
99495.279
99637.679
99774.482
99905.524
100030.92
100151.64
100262.7
100367.53
100471.82
100573.36
100670.48
100764.33
100851.98
100938.2
101016.85
101082.74
101127.84
101174.02
101213.66
101247.11
101275.99
101301.43
101322.76
101342.94
101354.72
101370.06
101379.56
101384.57
101371.58
101219.56
99432.555
99561.966
99686.486
99811.404
99935.016
100054.28
100166.6
100276.87
100387.26
100491.57
100590.96
100686.63
100778.98
100864.47
100949.18
101027.29
101092.43
101137.16
101181.87
101219.84
101252.27
101280.26
101304.95
101325.71
101345.44
101356.77
101372.08
101381.12
101386.24
101373.83
101219.4
99603.896
99704.252
99798.277
99896.774
99999.907
100104.32
100206.8
100310.09
100414.34
100514.37
100609.94
100703.08
100793.65
100876.82
100959.94
101038
101102.05
101146.37
101189.47
101225.9
101257.32
101284.46
101308.42
101328.61
101347.9
101358.83
101374.12
101382.66
101387.93
101376.31
101219.29
99771.905
99853.855
99925.135
100000.74
100083.03
100169.69
100258.02
100349.91
100445.79
100539.07
100629.97
100719.92
100808.39
100889.16
100970.58
101048.7
101111.58
101155.43
101196.85
101231.84
101262.27
101288.57
101311.81
101331.45
101350.32
101360.9
101376.17
101384.2
101389.62
101378.87
101219.32
99959.907
100018.02
100063.78
100115.41
100175.92
100243
100314.61
100394.51
100480.81
100565.74
100651.07
100737.13
100823.12
100901.49
100981.08
101059.28
101121.03
101164.28
101204.01
101237.64
101267.1
101292.57
101315.12
101334.22
101352.69
101362.99
101378.21
101385.71
101391.31
101381.47
101219.63
100170.63
100200.7
100217.65
100242.45
100278.81
100323.73
100377.47
100444.47
100518.54
100594.77
100673.38
100754.72
100837.78
100913.78
100991.5
101070.18
101130.37
101172.79
101210.88
101243.24
101271.74
101296.43
101318.31
101336.89
101354.99
101365.08
101380.15
101387.21
101392.98
101384.15
101220.46
100404.88
100402.15
100387.92
100383.26
100392.91
100414.04
100450.4
100501.35
100560.52
100627.29
100698.08
100773.62
100853.03
100926.4
101002.22
101080.7
101139.23
101180.55
101217.29
101248.56
101276.16
101300.11
101321.36
101339.47
101357.21
101367.17
101381.96
101388.68
101394.63
101387.02
101222.12
100671.03
100635.44
100591.67
100553.91
100533.15
100529.48
100542.62
100571.35
100613.57
100667.81
100728.72
100796.71
100870.95
100940.68
101013.9
101088.61
101146.94
101187.12
101223.25
101253.66
101280.42
101303.68
101324.34
101341.98
101359.41
101369.27
101383.85
101390.15
101396.4
101390.16
101224.53
100947.06
100896.35
100841.82
100778.52
100722.32
100683.42
100664.86
100666.26
100686.19
100721.16
100768.56
100826.38
100893.34
100958.34
101027.51
101096.7
101154.49
101193.42
101229.5
101259.03
101284.87
101307.38
101327.42
101344.56
101361.65
101371.35
101386.44
101391.7
101398.39
101394.13
101228.18
100327.76
100320.79
100309.57
100299.63
100291.59
100287.42
100291.61
100306.64
100331.77
100371.05
100423.47
100487.44
100560.99
100641.77
100725.67
100815.24
100896.14
100978.89
101045.81
101099.46
101154.66
101199.76
101239.36
101272.09
101301.39
101322.61
101340.96
101353.29
101359.77
101355.1
101219.72
100337.29
100335.31
100325.99
100315.82
100307.69
100304.68
100308.93
100320.33
100343.12
100379.53
100428.87
100489.92
100560.91
100639.77
100722.61
100810.88
100895
100973.63
101044.03
101096.6
101151.75
101197.13
101237.09
101270.2
101299.78
101321.36
101339.89
101352.17
101358.78
101354.13
101219.14
100331.16
100329.53
100324.37
100319.74
100316.2
100316.11
100321.92
100333.93
100356.31
100390.84
100437.57
100495.8
100564.07
100640.58
100721.88
100808.09
100893.3
100971.53
101041.82
101094.11
101149.32
101194.9
101235.1
101268.5
101298.27
101320.16
101338.84
101351.1
101357.79
101352.93
101218.45
100325.08
100324.93
100324.16
100324.41
100325.35
100328.56
100336.37
100349.89
100372.2
100405.09
100449.28
100504.56
100569.84
100643.57
100722.79
100806.21
100890.93
100969.26
101038.65
101091.08
101146.59
101192.48
101232.96
101266.68
101296.66
101318.87
101337.72
101350.03
101356.77
101351.71
101217.84
100322.28
100325.08
100327.96
100331.3
100335.28
100341.3
100351.11
100366.04
100388.42
100420.01
100461.94
100514.4
100576.7
100647.56
100724.44
100804.83
100888.72
100966.71
101035.27
101087.65
101143.55
101189.78
101230.59
101264.67
101294.9
101317.46
101336.49
101348.92
101355.68
101350.51
101216.91
100320.37
100325.77
100331.79
100337.85
100344.61
100353.26
100365.11
100381.43
100404.07
100434.74
100474.77
100524.65
100584.09
100652.08
100726.52
100804.17
100887.11
100964.11
101032.39
101084.09
101140.37
101186.92
101228.05
101262.51
101293.01
101315.94
101335.18
101347.76
101354.49
101349.31
101215.82
100318.22
100325.91
100334.58
100343.53
100353.24
100364.54
100378.49
100396.23
100419.33
100449.37
100487.78
100535.31
100592.02
100657.17
100729.09
100804.48
100885.63
100961.29
101030.1
101080.64
101137.13
101183.96
101225.41
101260.25
101291.02
101314.34
101333.8
101346.52
101353.23
101348.14
101214.86
100316.76
100326.88
100337.95
100349.54
100362.02
100375.83
100391.79
100410.91
100434.54
100464.14
100501.16
100546.53
100600.6
100662.95
100732.27
100805.5
100884.08
100958.26
101027.91
101077.43
101133.88
101180.95
101222.7
101257.9
101288.96
101312.67
101332.34
101345.2
101351.92
101346.98
101213.5
100318.07
100330.2
100343.39
100357.3
100372.02
100387.91
100405.59
100425.91
100450.02
100479.25
100515.01
100558.38
100609.93
100669.49
100736.13
100807.13
100883.1
100955.36
101025.27
101074.45
101130.61
101177.88
101219.92
101255.48
101286.82
101310.91
101330.82
101343.82
101350.55
101345.81
101211.7
100323.65
100337.38
100352.21
100367.76
100384.13
100401.55
100420.51
100441.71
100466.11
100494.92
100529.49
100570.94
100620.04
100676.84
100740.74
100809.39
100883.04
100953.11
101022.22
101071.7
101127.32
101174.77
101217.06
101252.97
101284.59
101309.08
101329.22
101342.36
101349.1
101344.63
101209.84
100334.77
100349.51
100365.39
100381.89
100399.18
100417.48
100437.14
100458.75
100483.14
100511.38
100544.71
100584.29
100630.97
100685.03
100746.14
100812.32
100883.7
100951.87
101019.24
101069.23
101124.07
101171.64
101214.14
101250.37
101282.27
101307.16
101327.54
101340.84
101347.59
101343.47
101207.88
100352.27
100367.45
100383.74
100400.45
100417.88
100436.3
100456
100477.48
100501.45
100528.86
100560.83
100598.5
100642.78
100694.12
100752.36
100815.98
100885.01
100951.67
101016.76
101067.06
101120.87
101168.5
101211.18
101247.71
101279.88
101305.16
101325.78
101339.24
101346.05
101342.38
101205.8
100376.1
100391.31
100407.46
100423.73
100440.61
100458.43
100477.49
100498.24
100521.32
100547.57
100578
100613.68
100655.55
100704.14
100759.48
100820.42
100886.9
100951.23
101014.64
101065.41
101117.79
101165.39
101208.19
101244.98
101277.41
101303.08
101323.95
101337.59
101344.46
101341.35
101203.63
100407.17
100421.6
100436.81
100451.91
100467.51
100484.02
100501.79
100521.23
100542.95
100567.68
100596.34
100629.93
100669.34
100715.16
100767.55
100825.66
100889.25
100950.91
101012.87
101064.09
101114.86
101162.36
101205.2
101242.2
101274.89
101300.93
101322.06
101335.88
101342.81
101340.39
101201.43
100443.16
100456.51
100470.52
100484.14
100498.04
100512.77
100528.75
100546.42
100566.36
100589.27
100615.95
100647.32
100684.21
100727.24
100776.62
100831.76
100891.98
100951.15
101011.81
101063.13
101112.11
101159.43
101202.24
101239.41
101272.31
101298.72
101320.09
101334.12
101341.11
101339.44
101199.31
100482.72
100494.86
100507.4
100519.31
100531.29
100543.99
100557.9
100573.52
100591.43
100612.28
100636.83
100665.88
100700.21
100740.42
100786.76
100838.78
100895.19
100952.01
101011.55
101062.68
101109.59
101156.67
101199.34
101236.6
101269.7
101296.44
101318.08
101332.32
101339.37
101338.43
101197.33
100523.79
100534.41
100545.48
100555.79
100565.94
100576.66
100588.51
100602.03
100617.83
100636.55
100658.89
100685.58
100717.35
100754.75
100798.04
100846.84
100899.27
100954.12
101012.54
101062.79
101107.41
101154.12
101196.53
101233.82
101267.06
101294.12
101316.01
101330.47
101337.6
101337.29
101195.54
100565.09
100574.04
100583.57
100592.35
100600.85
100609.77
100619.73
100631.31
100645.12
100661.79
100681.98
100706.38
100735.63
100770.26
100810.53
100856.13
100905.22
100958.12
101014.6
101063.25
101105.74
101151.87
101193.87
101231.08
101264.43
101291.76
101313.9
101328.59
101335.81
101336
101193.9
100605.15
100612.51
100620.46
100627.83
100634.92
100642.36
100650.77
100660.73
100672.85
100687.71
100705.94
100728.19
100755.04
100786.98
100824.29
100866.78
100913.07
100963.31
101017.13
101064.05
101104.4
101149.96
101191.38
101228.43
101261.82
101289.38
101311.76
101326.69
101334.03
101334.58
101192.41
100642.52
100648.43
100654.88
100661.01
100667.05
100673.51
100680.91
100689.76
100700.62
100714.04
100730.61
100750.92
100775.53
100804.9
100839.35
100878.78
100922.23
100969.27
101019.07
101065.11
101104.23
101148.46
101189.14
101225.91
101259.25
101287
101309.61
101324.79
101332.27
101333.13
101191.16
100678.22
100682.1
100687.04
100692.08
100697.39
100703.28
100710.12
100718.33
100728.36
100740.73
100755.95
100774.57
100797.11
100824.06
100855.71
100892.1
100932.53
100976.34
101022.55
101066.74
101104.64
101147.39
101187.18
101223.56
101256.77
101284.64
101307.47
101322.9
101330.58
101331.83
101190.39
100712.69
100715.63
100719.21
100722.65
100726.89
100732.4
100738.98
100746.83
100756.35
100767.94
100782.07
100799.21
100819.86
100844.48
100873.41
100906.75
100944.05
100984.62
101027.5
101068.79
101105.81
101146.85
101185.62
101221.41
101254.4
101282.32
101305.35
101321.04
101329
101330.84
101190.55
100743.98
100746.22
100749.72
100753.42
100757.49
100762.59
100768.78
100776.26
100785.3
100796.2
100809.31
100825.06
100843.89
100866.24
100892.48
100922.77
100956.85
100994.09
101033.36
101072.37
101108.1
101146.8
101184.43
101219.56
101252.2
101280.06
101303.26
101319.21
101327.42
101330.17
101192.1
100777.13
100778.71
100781.29
100784.9
100789.29
100794.16
100800.08
100807.24
100815.8
100825.96
100838.02
100852.34
100869.33
100889.41
100912.96
100940.18
100970.98
101004.75
101040.11
101076.14
101111.29
101147.74
101183.82
101217.99
101250.19
101277.9
101301.21
101317.42
101325.67
101329.56
101195.27
100813.1
100814.79
100817.27
100820.21
100823.88
100828.43
100834.05
100840.72
100848.55
100857.74
100868.54
100881.27
100896.3
100914.03
100934.83
100958.96
100986.42
101016.7
101048.49
101082.25
101115.36
101149.22
101183.65
101216.88
101248.47
101275.86
101299.21
101315.67
101323.91
101328.77
101200.02
100851.68
100853.42
100855.85
100858.56
100861.94
100866.13
100871.06
100876.88
100883.67
100891.61
100900.92
100911.87
100924.79
100940.04
100958.02
100979.02
101003.13
101030.01
101058.74
101089.84
101119.96
101151.19
101184.06
101216.14
101247.08
101274.01
101297.26
101313.95
101322.41
101327.8
101206.22
100892.14
100894.03
100896.47
100898.72
100901.44
100905.21
100909.67
100914.71
100920.45
100927.07
100934.77
100943.81
100954.51
100967.22
100982.34
101000.19
101020.94
101044.44
101070.01
101097.87
101125.9
101153.74
101184.83
101215.98
101246.04
101272.33
101295.39
101312.25
101320.97
101326.69
101213.56
100931.84
100933.76
100936.07
100938.77
100942.03
100945.44
100949.19
100953.38
100958.06
100963.34
100969.41
100976.52
100984.97
100995.15
101007.42
101022.16
101039.6
101059.73
101082.06
101106.61
101131.61
101156.18
101186.49
101216.77
101245.49
101270.95
101293.63
101310.56
101319.5
101325.42
101221.49
100970.6
100972.37
100974.98
100978.02
100981.12
100984.27
100987.61
100991.17
100994.99
100999.14
101003.77
101009.1
101015.45
101023.21
101032.77
101044.52
101058.78
101075.62
101094.74
101115.93
101137.05
101159.93
101189.34
101218.16
101245.34
101269.79
101292.01
101308.87
101317.99
101324.09
101229.26
101008.03
101009.95
101012.46
101015.13
101017.93
101020.87
101023.93
101027.03
101030.16
101033.37
101036.78
101040.59
101045.1
101050.68
101057.76
101066.77
101078.07
101091.83
101107.85
101125.76
101144.24
101166.17
101193.47
101219.82
101245.19
101268.53
101290.51
101307.2
101316.43
101322.83
101236.2
101045.28
101046.2
101047.97
101050.06
101052.34
101054.8
101057.39
101060
101062.53
101064.97
101067.4
101069.98
101072.97
101076.74
101081.7
101088.34
101097.04
101108.08
101121.39
101136.7
101153.64
101172.99
101196.53
101221.2
101246.28
101268.11
101289.27
101305.58
101314.79
101321.56
101241.73
101082.38
101082.7
101083.66
101084.93
101086.33
101087.82
101089.37
101090.94
101092.46
101093.88
101095.23
101096.64
101098.35
101100.65
101103.93
101108.65
101115.22
101123.98
101134.99
101148.12
101163.13
101179.4
101200.31
101223.45
101247.78
101268.71
101288.3
101304.08
101313.07
101320.04
101245.41
101111.12
101112.42
101114.73
101116.5
101117.31
101117.96
101118.49
101118.97
101119.38
101119.67
101119.92
101120.24
101120.83
101121.97
101123.97
101127.24
101132.17
101139.13
101148.24
101159.39
101172.53
101186.71
101205.66
101226.56
101248.68
101269.12
101287.52
101302.72
101311.35
101318.45
101247.46
101137.09
101135.53
101134.56
101134.78
101136.13
101137.63
101139.28
101140.84
101141.36
101140.83
101140.31
101139.96
101139.86
101140.25
101141.43
101143.75
101147.59
101153.25
101160.92
101170.48
101181.93
101194.44
101211.13
101229.63
101249.76
101269.9
101287.56
101301.67
101309.71
101317.34
101248.72
101161.88
101160.83
101159.89
101158.81
101157.54
101156.24
101154.91
101153.75
101153.57
101154.28
101154.9
101154.96
101154.73
101154.98
101156
101158.04
101161.38
101166.31
101172.98
101181.36
101191.49
101202.26
101216.9
101233.72
101252.68
101271.2
101287.22
101300.75
101308.08
101316.6
101249.61
101173.1
101173.14
101172.88
101172.37
101171.71
101170.91
101169.95
101168.77
101167.52
101166.41
101165.52
101165.32
101165.84
101166.72
101168.18
101170.48
101173.84
101178.46
101184.49
101191.96
101200.83
101210.52
101223.39
101238.73
101255.86
101272.22
101287.09
101300.06
101306.4
101315.53
101251.28
101175.44
101175.59
101175.67
101175.65
101175.58
101175.49
101175.41
101175.37
101175.43
101175.56
101175.76
101176.13
101176.86
101178.05
101179.82
101182.32
101185.72
101190.16
101195.73
101202.47
101210.35
101219.11
101230.02
101243.7
101258.83
101273.9
101287.71
101299.37
101304.61
101314.43
101256.1
101179.22
101179.8
101180.3
101180.75
101181.24
101181.81
101182.45
101183.19
101184.04
101184.98
101185.59
101185.92
101187
101188.97
101191.36
101194.19
101197.64
101201.87
101206.98
101213.01
101219.94
101227.71
101237.01
101249.01
101262.33
101275.9
101288.35
101299.08
101302.76
101313.85
101263.3
101186.93
101187.54
101188.13
101188.71
101189.39
101190.23
101191.25
101192.4
101193.29
101193.94
101195.25
101197.51
101199.91
101202.12
101204.45
101207.11
101210.24
101213.98
101218.44
101223.67
101229.63
101236.38
101244.3
101254.66
101266.12
101277.7
101288.45
101299.01
101301.38
101314.1
101268.36
101200.42
101200.55
101200.9
101201.3
101201.8
101202.42
101203.12
101203.98
101205.37
101207.42
101209.72
101211.95
101213.94
101215.9
101218.04
101220.42
101223.13
101226.28
101230.02
101234.39
101239.38
101245.09
101251.68
101260.4
101270.13
101279.99
101289.27
101298.72