/*--------------------------------*- C++ -*----------------------------------*\
| =========                 |                                                 |
| \\      /  F ield         | OpenFOAM: The Open Source CFD Toolbox           |
|  \\    /   O peration     | Version:  2406                                  |
|   \\  /    A nd           | Website:  www.openfoam.com                      |
|    \\/     M anipulation  |                                                 |
\*---------------------------------------------------------------------------*/
FoamFile
{
    version     2.0;
    format      ascii;
    arch        "LSB;label=32;scalar=64";
    class       volScalarField;
    location    "0.1";
    object      T;
}
// * * * * * * * * * * * * * * * * * * * * * * * * * * * * * * * * * * * * * //

dimensions      [0 0 0 1 0 0 0];

internalField   nonuniform List<scalar> 
8260
(
292.43772
292.43935
292.44238
292.45205
292.46676
292.48439
292.50292
292.52044
292.53493
292.54476
292.54857
292.5453
292.53432
292.51633
292.49348
292.47268
292.48229
292.5673
292.64538
292.68326
292.70937
292.73314
292.75754
292.78006
292.80311
292.82089
292.84645
292.854
292.8625
292.89364
292.89664
292.51851
292.51238
292.50988
292.5127
292.5193
292.52854
292.53918
292.54961
292.55805
292.56285
292.56263
292.55618
292.54279
292.52284
292.49927
292.47908
292.49294
292.58235
292.65457
292.68901
292.71376
292.73665
292.76034
292.78228
292.80496
292.82243
292.84816
292.85519
292.8633
292.8951
292.90328
292.60519
292.59348
292.58463
292.58001
292.57845
292.57931
292.58178
292.58459
292.58626
292.58541
292.58044
292.57014
292.55375
292.5313
292.50655
292.48679
292.50678
292.59888
292.66387
292.69509
292.71853
292.74046
292.76335
292.78466
292.80691
292.82399
292.8498
292.85618
292.86436
292.89638
292.91064
292.69345
292.67696
292.6623
292.65081
292.64175
292.63474
292.62929
292.62451
292.61919
292.6121
292.60181
292.58709
292.56716
292.54183
292.51557
292.49657
292.52504
292.61731
292.67417
292.70212
292.72411
292.74493
292.7669
292.78748
292.80921
292.82588
292.8515
292.85727
292.8656
292.89734
292.9159
292.78094
292.7606
292.74114
292.72373
292.70799
292.69376
292.68081
292.66859
292.65621
292.6426
292.62656
292.60697
292.58303
292.55449
292.52655
292.50936
292.54787
292.63743
292.68542
292.71008
292.73046
292.75003
292.7709
292.79066
292.81177
292.828
292.85363
292.85861
292.86704
292.89792
292.92168
292.8664
292.84336
292.82022
292.79797
292.77649
292.75583
292.73596
292.71662
292.69724
292.67699
292.65491
292.63004
292.60166
292.56961
292.53999
292.52637
292.57608
292.65899
292.69775
292.7191
292.7377
292.75584
292.77547
292.79433
292.81468
292.83048
292.85602
292.86017
292.86865
292.8984
292.93171
292.94849
292.92374
292.89809
292.87217
292.84608
292.81997
292.794
292.76812
292.74204
292.71523
292.68698
292.65655
292.62339
292.58761
292.55669
292.54948
292.61027
292.68144
292.71126
292.7293
292.74594
292.76246
292.78064
292.79849
292.81792
292.83332
292.85795
292.86195
292.87048
292.89868
292.93809
293.02552
292.99998
292.97282
292.94446
292.91502
292.88469
292.85369
292.82212
292.78996
292.75693
292.72264
292.68658
292.64848
292.60901
292.57795
292.58129
292.64993
292.70448
292.72606
292.74082
292.75529
292.76998
292.78651
292.80325
292.82159
292.83657
292.85934
292.86396
292.87257
292.89903
292.93884
293.09583
293.07039
293.04272
293.01306
292.9815
292.94819
292.91337
292.87723
292.8399
292.80135
292.76145
292.72002
292.67708
292.63466
292.60615
292.62547
292.69278
292.72808
292.7423
292.75377
292.76586
292.77849
292.79313
292.80863
292.82572
292.84024
292.86075
292.86621
292.87486
292.89943
292.95014
293.15821
293.13335
293.106
293.07604
293.04345
293.00839
292.97105
292.93166
292.89038
292.84736
292.80271
292.75653
292.7094
292.6662
292.64595
292.68344
292.73485
292.75226
292.76023
292.7683
292.77775
292.78807
292.80064
292.81471
292.83041
292.84437
292.86302
292.86873
292.87739
292.89988
292.96497
293.2116
293.18728
293.16031
293.13068
293.0982
293.06277
293.02443
292.98332
292.9396
292.89353
292.84541
292.79577
292.7464
292.70718
292.70568
292.74922
292.77335
292.77738
292.78004
292.78449
292.79104
292.79878
292.80915
292.82154
292.83571
292.84901
292.86583
292.87156
292.88017
292.90026
292.98077
293.25334
293.23052
293.20501
293.17652
293.14491
293.11004
293.07185
293.03037
292.98574
292.93829
292.88862
292.83822
292.79243
292.76861
292.78781
292.80871
292.80857
292.80362
292.80152
292.80237
292.80578
292.81073
292.81873
292.8292
292.84173
292.85421
292.8691
292.87475
292.88322
292.90011
292.99424
293.28371
293.26223
293.2379
293.21109
293.18134
293.14822
293.11151
293.07123
293.02766
292.98154
292.93455
292.8907
292.86111
292.86021
292.86626
292.85585
292.84161
292.83127
292.82442
292.82145
292.82205
292.824
292.82939
292.83776
292.84852
292.85996
292.87291
292.87833
292.8866
292.89992
293.00582
293.2977
293.2794
293.25908
293.23596
293.20949
293.17933
293.14562
293.10889
293.07013
293.03115
292.99565
292.96929
292.95618
292.94568
292.92195
292.8967
292.87581
292.85968
292.84813
292.84169
292.8395
292.83861
292.84112
292.8473
292.8562
292.86628
292.87737
292.88235
292.89043
292.90074
293.01356
293.31365
293.29675
293.27711
293.25527
293.23216
293.208
293.18236
293.15511
293.12703
293.10024
293.07594
293.05307
293.02739
292.99453
292.96281
292.93402
292.90919
292.88905
292.8728
292.8625
292.8578
292.85439
292.85384
292.85784
292.86483
292.87317
292.88252
292.88684
292.89478
292.90227
293.01856
293.33064
293.32192
293.31216
293.29991
293.28374
293.26363
293.23983
293.21275
293.18532
293.15852
293.13002
293.09806
293.06311
293.03081
292.99884
292.96828
292.94131
292.91812
292.89836
292.8844
292.8763
292.87098
292.86785
292.86916
292.87434
292.88077
292.88834
292.89186
292.89963
292.90428
293.02293
293.30283
293.29396
293.28445
293.27435
293.26405
293.25422
293.24547
293.23692
293.22182
293.19502
293.1604
293.12675
293.09499
293.06276
293.03022
292.99806
292.96906
292.94518
292.92425
292.90708
292.89551
292.88803
292.88241
292.88156
292.88463
292.88923
292.89481
292.89749
292.90499
292.90689
293.02652
293.29857
293.29218
293.28435
293.27494
293.26382
293.25041
293.23357
293.21396
293.19569
293.18142
293.16875
293.14612
293.11756
293.088
293.05756
293.02725
292.99633
292.96988
292.9481
292.92987
292.91599
292.90516
292.89759
292.89497
292.89573
292.89858
292.90206
292.90387
292.91101
292.91047
293.01994
293.2596
293.25423
293.24834
293.24177
293.23433
293.22615
293.21777
293.20822
293.19649
293.1808
293.1624
293.14844
293.1317
293.10324
293.0762
293.05092
293.02255
292.99521
292.97089
292.95145
292.93625
292.92351
292.91347
292.90899
292.90782
292.9087
292.91036
292.91119
292.91786
292.91574
293.00983
293.24394
293.24027
293.23599
293.23102
293.22512
293.21775
293.2084
293.19731
293.18506
293.17243
293.15888
293.14044
293.12245
293.10968
293.08809
293.06696
293.04311
293.01902
292.99399
292.97198
292.95606
292.94171
292.93016
292.92402
292.92061
292.91959
292.9198
292.91958
292.92553
292.92446
292.99548
293.20713
293.20373
293.19992
293.19566
293.19092
293.18571
293.18003
293.17389
293.16692
293.15837
293.14803
293.13777
293.1254
293.11
293.09698
293.07557
293.057
293.03729
293.01509
292.99365
292.97432
292.95853
292.94762
292.93931
292.93401
292.93157
292.93019
292.92908
292.93354
292.93692
293.01282
293.19028
293.18813
293.18558
293.18256
293.179
293.17482
293.1699
293.16409
293.15728
293.14948
293.14038
293.12919
293.11713
293.10564
293.09066
293.07932
293.06806
293.05126
293.03022
293.01157
292.99249
292.97544
292.96446
292.95456
292.94814
292.9441
292.94153
292.93959
292.94163
292.94456
293.03121
293.15698
293.15517
293.15317
293.15094
293.14839
293.14543
293.142
293.1381
293.13383
293.12922
293.1243
293.11883
293.11173
293.10172
293.09366
293.08187
293.06461
293.05287
293.04254
293.0276
293.00985
292.99392
292.98016
292.97029
292.96264
292.95683
292.95368
292.95096
292.95084
292.94984
293.02744
293.14577
293.14463
293.14325
293.1416
293.13962
293.13722
293.13432
293.13086
293.12691
293.1223
293.1168
293.11019
293.10265
293.09483
293.08475
293.0777
293.07204
293.05933
293.04904
293.03771
293.02347
293.00973
292.99565
292.98537
292.97705
292.96988
292.96627
292.96317
292.96241
292.95943
293.03325
293.12286
293.12201
293.12103
293.11989
293.11855
293.11697
293.11508
293.11277
293.10992
293.10675
293.10319
293.09922
293.09531
293.0913
293.08716
293.08042
293.07539
293.07145
293.05673
293.04092
293.03027
293.02011
293.00944
292.99849
292.99055
292.98296
292.9791
292.97605
292.97632
292.97585
293.03734
293.11569
293.11506
293.11435
293.11355
293.11266
293.11165
293.11049
293.10913
293.10737
293.10491
293.1017
293.09791
293.0932
293.08763
293.08182
293.07702
293.07083
293.06517
293.06154
293.05007
293.03802
293.027
293.01836
293.01003
293.00276
292.99578
292.99274
292.98916
292.99128
292.99249
293.04287
293.09577
293.09529
293.09475
293.09413
293.09343
293.09262
293.09171
293.09069
293.08963
293.08858
293.08758
293.0863
293.08464
293.08253
293.07945
293.07467
293.06941
293.06318
293.05733
293.05357
293.04642
293.03524
293.02762
293.021
293.01414
293.0087
293.00707
293.00335
293.00788
293.01142
293.0287
293.08717
293.08695
293.0867
293.08639
293.08602
293.08555
293.08495
293.08419
293.0832
293.08194
293.0804
293.0787
293.07675
293.07445
293.07181
293.06885
293.06568
293.06258
293.06012
293.05801
293.0548
293.04777
293.0404
293.03288
293.02602
293.02171
293.02009
293.01687
293.01987
293.02373
293.01549
293.08147
293.08148
293.08147
293.08139
293.08125
293.08102
293.0807
293.08026
293.0797
293.07901
293.07818
293.07726
293.07627
293.07521
293.07412
293.07313
293.07218
293.0716
293.07107
293.06856
293.06543
293.06012
293.05326
293.04524
293.03842
293.03253
293.02825
293.02217
293.02213
293.02946
293.05511
293.08322
293.08322
293.08321
293.08317
293.08311
293.08302
293.08291
293.08277
293.0826
293.08242
293.08222
293.08201
293.08181
293.08152
293.08106
293.08044
293.07963
293.07831
293.07666
293.07628
293.07361
293.06888
293.06185
293.05419
293.04668
293.03761
293.03035
293.01725
293.01613
293.01042
293.05031
293.07439
293.07437
293.0743
293.07422
293.07411
293.07398
293.07383
293.07366
293.07346
293.07321
293.07289
293.07244
293.07185
293.07108
293.07008
293.06871
293.06697
293.06513
293.06269
293.05685
293.05621
293.05946
293.04322
293.04789
293.04485
293.02663
293.01923
293.0125
293.00892
292.99776
293.02249
293.72608
293.583
293.43653
293.30186
293.18614
293.08427
292.99238
292.9093
292.83297
292.7646
292.70393
292.65031
292.6023
292.55816
292.51604
292.4727
292.42969
292.39252
292.40313
292.48569
292.57418
292.63154
292.67436
292.71119
292.74486
292.77228
292.79859
292.81522
292.82284
292.85221
292.88739
293.52731
293.39484
293.28455
293.18747
293.09645
293.00997
292.9286
292.85374
292.78525
292.72436
292.67067
292.62312
292.58011
292.54001
292.50094
292.46026
292.41956
292.38912
292.40888
292.49989
292.58434
292.63769
292.67893
292.71494
292.748
292.7748
292.80073
292.81719
292.82448
292.85304
292.88555
293.4525
293.33723
293.23235
293.13349
293.04027
292.95445
292.87655
292.80672
292.74471
292.6903
292.64253
292.6001
292.5613
292.52457
292.48799
292.44974
292.41103
292.3871
292.41665
292.51353
292.59287
292.64288
292.68295
292.71825
292.75079
292.77705
292.80272
292.81905
292.82613
292.85365
292.88377
293.36799
293.25649
293.15494
293.06079
292.97396
292.89512
292.82459
292.76212
292.70727
292.65938
292.61733
292.57968
292.54473
292.51102
292.47655
292.44061
292.40424
292.38639
292.42591
292.52679
292.60103
292.64814
292.68712
292.72171
292.7537
292.7794
292.80481
292.82096
292.82781
292.85448
292.88242
293.2733
293.16817
293.07393
292.98722
292.90801
292.83703
292.7744
292.71966
292.67207
292.63068
292.59419
292.56109
292.52974
292.49881
292.46626
292.4325
292.39896
292.38668
292.4366
292.53966
292.6086
292.65318
292.6912
292.72507
292.75655
292.7817
292.80688
292.8229
292.8295
292.85542
292.88153
293.16454
293.07184
292.98789
292.91064
292.84091
292.77933
292.72566
292.67923
292.63911
292.60416
292.57303
292.54423
292.51625
292.48788
292.45716
292.42549
292.39532
292.38819
292.44895
292.55205
292.61568
292.65813
292.69525
292.72844
292.75941
292.78402
292.80899
292.82484
292.8312
292.85653
292.88117
293.04988
292.97033
292.89792
292.83211
292.77376
292.72288
292.67895
292.64118
292.60856
292.5799
292.55389
292.52914
292.50429
292.47828
292.44936
292.4197
292.39311
292.39099
292.46262
292.56373
292.62231
292.66295
292.69923
292.73174
292.76222
292.78631
292.81108
292.82674
292.8329
292.8578
292.88134
292.92494
292.86164
292.80424
292.75278
292.70758
292.66838
292.63467
292.6057
292.58049
292.55793
292.53677
292.5158
292.49384
292.46999
292.44287
292.41517
292.39162
292.39506
292.47725
292.57459
292.62858
292.66767
292.70316
292.73501
292.76501
292.7886
292.81317
292.82851
292.83461
292.85918
292.88179
292.79384
292.74988
292.71036
292.67502
292.64373
292.61656
292.59321
292.57299
292.55499
292.53824
292.52165
292.50419
292.48487
292.46291
292.43758
292.41172
292.3906
292.40086
292.49237
292.58461
292.63455
292.6723
292.70703
292.73822
292.76774
292.79087
292.81523
292.83013
292.83635
292.86071
292.88227
292.66424
292.64079
292.61973
292.60059
292.58318
292.56801
292.55496
292.54323
292.53213
292.52086
292.50852
292.49428
292.47733
292.45695
292.43338
292.40926
292.39042
292.40863
292.50738
292.59379
292.64028
292.67683
292.71082
292.74137
292.77042
292.79312
292.81726
292.83162
292.83811
292.86234
292.88245
292.54024
292.53774
292.53417
292.5304
292.52674
292.5234
292.52023
292.51657
292.51197
292.5058
292.49738
292.48606
292.47116
292.45223
292.43047
292.40777
292.39135
292.41823
292.52183
292.60224
292.64581
292.68127
292.71454
292.74447
292.77303
292.79533
292.81927
292.83307
292.83988
292.86417
292.8823
292.42498
292.44141
292.4549
292.46621
292.47576
292.48347
292.4893
292.49314
292.49455
292.49306
292.48818
292.47947
292.4664
292.44911
292.42898
292.40721
292.39339
292.4292
292.53546
292.61004
292.65117
292.68562
292.71818
292.7475
292.77557
292.79752
292.82129
292.83458
292.84163
292.86615
292.88181
292.32283
292.35566
292.38436
292.4093
292.43067
292.44843
292.46255
292.47303
292.47984
292.48258
292.48088
292.47452
292.46347
292.44774
292.42827
292.40738
292.39643
292.44083
292.54816
292.6173
292.65639
292.68987
292.72175
292.75045
292.77802
292.79965
292.82334
292.83616
292.84336
292.8684
292.88119
292.23756
292.28306
292.32417
292.36061
292.39209
292.41854
292.43993
292.45637
292.46793
292.47447
292.4757
292.47163
292.46231
292.44754
292.42833
292.40854
292.40039
292.45296
292.55997
292.62412
292.66148
292.69402
292.72523
292.75333
292.7804
292.80174
292.82538
292.83775
292.84504
292.87082
292.88028
292.17387
292.22757
292.27717
292.32186
292.36111
292.39455
292.42204
292.44378
292.45962
292.46944
292.47329
292.47088
292.46233
292.44823
292.42949
292.41072
292.40522
292.46536
292.57085
292.63057
292.66643
292.69806
292.72862
292.75613
292.7827
292.80377
292.82737
292.83933
292.8467
292.87351
292.87919
292.12252
292.18658
292.24359
292.2943
292.33908
292.37778
292.41004
292.43608
292.45544
292.4675
292.47255
292.47115
292.4635
292.45006
292.43175
292.41359
292.41085
292.4777
292.58082
292.63671
292.67125
292.702
292.73191
292.75886
292.78494
292.80574
292.82933
292.84088
292.84835
292.876
292.87778
292.06813
292.14645
292.21452
292.27337
292.32404
292.36733
292.40358
292.43215
292.45299
292.46674
292.47335
292.47294
292.46598
292.45306
292.43508
292.41733
292.4172
292.48972
292.59008
292.64264
292.67596
292.70585
292.73513
292.76153
292.78714
292.80765
292.83124
292.84242
292.85
292.87824
292.87629
292.04351
292.11947
292.19038
292.25432
292.31025
292.35799
292.39766
292.42916
292.4525
292.46803
292.47596
292.47638
292.46983
292.45723
292.43942
292.42209
292.42429
292.50129
292.59869
292.64837
292.68056
292.70961
292.73825
292.76413
292.7893
292.8095
292.83309
292.84393
292.85164
292.88033
292.87484
292.0518
292.12005
292.18621
292.24842
292.30487
292.35431
292.39603
292.42958
292.45468
292.47164
292.48051
292.48146
292.47508
292.46256
292.44474
292.42767
292.432
292.51232
292.60673
292.65391
292.68505
292.71328
292.74129
292.76665
292.79142
292.8113
292.83491
292.84541
292.85325
292.88232
292.87357
292.07532
292.13744
292.19808
292.25602
292.30988
292.35828
292.40006
292.43406
292.45989
292.47763
292.48703
292.48821
292.48174
292.46903
292.451
292.43399
292.44018
292.52278
292.61426
292.65929
292.68944
292.71686
292.74424
292.76909
292.7935
292.81304
292.83673
292.84687
292.85483
292.88418
292.87354
292.11303
292.16768
292.22194
292.27444
292.32402
292.36955
292.40959
292.44265
292.46828
292.48602
292.4955
292.49661
292.4898
292.47665
292.45818
292.44098
292.4487
292.53268
292.62132
292.66448
292.69369
292.72032
292.74708
292.77144
292.79551
292.81471
292.8386
292.8483
292.85637
292.88608
292.87489
292.16509
292.20992
292.25602
292.30175
292.34579
292.38705
292.42386
292.45499
292.47961
292.49666
292.50577
292.50653
292.49918
292.48534
292.46619
292.44867
292.45747
292.54204
292.62787
292.6694
292.69775
292.72362
292.74977
292.77367
292.79745
292.81631
292.84043
292.84972
292.85787
292.88796
292.87736
292.2315
292.26326
292.29819
292.33532
292.37262
292.40851
292.44154
292.47021
292.49313
292.50909
292.51747
292.51768
292.50966
292.49497
292.47494
292.45706
292.4663
292.55065
292.63372
292.67396
292.70156
292.72673
292.75231
292.77578
292.79931
292.81786
292.84214
292.85111
292.85934
292.88985
292.88181
292.31828
292.33545
292.35507
292.3795
292.40735
292.43631
292.46421
292.4892
292.50949
292.52386
292.53109
292.53044
292.52156
292.50571
292.48452
292.46537
292.47422
292.55784
292.63877
292.67821
292.70519
292.72973
292.75479
292.77783
292.80116
292.8194
292.84417
292.85253
292.86096
292.89171
292.88768
293.72829
293.60545
293.46401
293.32836
293.20907
293.10571
293.01312
292.92799
292.85113
292.78171
292.71943
292.66386
292.61391
292.56802
292.52451
292.48024
292.43627
292.3967
292.40189
292.47859
292.56909
292.62822
292.67174
292.709
292.74297
292.77074
292.79717
292.81383
292.82168
292.85195
292.88859
293.70116
293.57867
293.44275
293.31595
293.20334
293.10443
293.01572
292.93403
292.85929
292.79097
292.72884
292.67273
292.62184
292.57486
292.53024
292.48514
292.44018
292.39981
292.40105
292.47419
292.56613
292.62625
292.67005
292.70751
292.74158
292.76955
292.79603
292.81263
292.82066
292.85172
292.88994
293.67598
293.55954
293.42888
293.30886
293.20221
293.10739
293.02166
292.94237
292.86903
292.80138
292.73922
292.68246
292.63055
292.58239
292.53656
292.49054
292.44444
292.40283
292.40007
292.46904
292.5626
292.62399
292.66816
292.70585
292.74004
292.76825
292.79478
292.81139
292.81957
292.85147
292.89185
293.65429
293.54662
293.42037
293.30506
293.20238
293.11068
293.02742
292.95008
292.87814
292.81132
292.74936
292.6922
292.63945
292.59023
292.54326
292.4964
292.44928
292.40614
292.39957
292.46372
292.55863
292.6214
292.66601
292.70397
292.73834
292.76681
292.79343
292.81008
292.81847
292.85133
292.89401
293.63341
293.53414
293.41325
293.30187
293.20243
293.11352
293.03259
292.95722
292.8868
292.82099
292.75943
292.70208
292.64866
292.59849
292.55045
292.50279
292.45462
292.40992
292.39956
292.45845
292.55441
292.61863
292.66371
292.70198
292.73654
292.76532
292.79207
292.80876
292.81707
292.85076
292.89609
293.61177
293.52177
293.40657
293.29858
293.20238
293.11621
293.03756
292.96419
292.89534
292.8306
292.76958
292.71217
292.65822
292.6072
292.55816
292.50969
292.46047
292.41428
292.39998
292.45326
292.54994
292.61567
292.66122
292.69977
292.73451
292.76356
292.7904
292.80706
292.81576
292.85041
292.89732
293.58888
293.50917
293.4005
293.29638
293.20315
293.11942
293.04282
292.97129
292.90394
292.84026
292.77983
292.72247
292.66813
292.61638
292.56641
292.51709
292.46691
292.41938
292.40082
292.44824
292.54534
292.61267
292.65872
292.69755
292.73247
292.76184
292.78881
292.80541
292.81441
292.85009
292.89823
293.56709
293.49685
293.39539
293.29537
293.20482
293.1232
293.04842
292.97855
292.9126
292.84998
292.7902
292.73304
292.67843
292.62605
292.57523
292.52501
292.47395
292.42532
292.40214
292.44343
292.54055
292.60957
292.65614
292.69524
292.73034
292.76004
292.78715
292.8037
292.81298
292.84984
292.89916
293.5487
293.48622
293.39208
293.29621
293.20813
293.12825
293.05493
292.98642
292.92166
292.85998
292.80083
292.74392
292.68913
292.63622
292.58462
292.53351
292.48161
292.43196
292.40412
292.4389
292.53556
292.60637
292.65348
292.69285
292.72811
292.75815
292.78543
292.80192
292.81147
292.84965
292.89983
293.53427
293.47797
293.3909
293.29921
293.21336
293.13489
293.06264
292.99515
292.93131
292.87039
292.8118
292.75515
292.70026
292.6469
292.59459
292.54261
292.48986
292.43919
292.40726
292.43476
292.53036
292.60305
292.65073
292.69035
292.72576
292.75616
292.78362
292.80009
292.80987
292.84947
292.90023
293.52482
293.47297
293.39228
293.30461
293.22078
293.14335
293.07183
293.00497
292.94175
292.88139
292.82322
292.76679
292.71184
292.6581
292.60514
292.55232
292.49871
292.44694
292.41149
292.43129
292.52496
292.59964
292.64789
292.68776
292.72329
292.75407
292.78171
292.79819
292.8082
292.84923
292.90041
293.51921
293.47106
293.39629
293.31252
293.23054
293.15384
293.08264
293.01608
292.95316
292.8931
292.83521
292.77893
292.72391
292.66984
292.6163
292.56268
292.50817
292.45512
292.41664
292.42896
292.51943
292.59613
292.64499
292.68507
292.72071
292.75186
292.7797
292.79622
292.80646
292.84892
292.90013
293.51748
293.47283
293.40325
293.32303
293.24266
293.16643
293.09521
293.02857
292.96565
292.90565
292.84785
292.79163
292.73653
292.68216
292.62808
292.57369
292.5183
292.46418
292.42262
292.42777
292.51382
292.59254
292.64203
292.6823
292.71802
292.74953
292.7776
292.79417
292.80466
292.84865
292.89902
293.51763
293.47693
293.41257
293.33584
293.25698
293.181
293.1095
293.04247
292.97928
292.91911
292.86124
292.80497
292.74974
292.69508
292.64051
292.58542
292.52921
292.47419
292.42962
292.42774
292.5082
292.58889
292.63902
292.67944
292.71522
292.7471
292.7754
292.79205
292.80284
292.84858
292.89654
293.51971
293.48285
293.42373
293.3506
293.27322
293.19738
293.12542
293.05777
292.99405
292.93354
292.87543
292.81899
292.76359
292.70865
292.65364
292.59792
292.54105
292.48516
292.43783
292.42885
292.5027
292.58519
292.63597
292.67652
292.71235
292.74455
292.77313
292.78986
292.80101
292.84888
292.89233
293.52371
293.49008
293.43609
293.36686
293.29113
293.2154
293.14286
293.07443
293.00998
292.94893
292.89047
292.83378
292.77814
292.72293
292.66752
292.61131
292.55399
292.49726
292.44703
292.43106
292.49743
292.58146
292.63292
292.67353
292.7094
292.7419
292.77082
292.7876
292.7992
292.84961
292.88654
293.5299
293.49903
293.44978
293.38452
293.31062
293.23505
293.1618
293.09243
293.02711
292.96535
292.9064
292.84937
292.79346
292.73796
292.68222
292.62565
292.56816
292.51068
292.45766
292.43427
292.49254
292.57774
292.62986
292.67052
292.70642
292.73918
292.76844
292.78529
292.7974
292.85076
292.88008
293.53859
293.50975
293.46464
293.4034
293.33163
293.25633
293.18233
293.11189
293.04552
292.9829
292.92331
292.86586
292.80962
292.75382
292.69779
292.64096
292.5833
292.52525
292.46934
292.43834
292.48829
292.57404
292.62683
292.66749
292.7034
292.73638
292.766
292.78294
292.79559
292.852
292.87451
293.54996
293.52234
293.48054
293.4232
293.35394
293.27924
293.20457
293.13296
293.0654
293.00176
292.94137
292.88333
292.8267
292.77058
292.71426
292.65718
292.59916
292.54013
292.48185
292.4446
292.48497
292.57043
292.62386
292.66445
292.70039
292.73355
292.76341
292.78057
292.79374
292.85286
292.871
293.56463
293.5376
293.49813
293.44415
293.37756
293.30383
293.22872
293.15593
293.08702
293.02216
292.96078
292.90198
292.8448
292.78829
292.73165
292.67427
292.61575
292.55579
292.49581
292.45257
292.48262
292.56683
292.62093
292.66153
292.69741
292.73067
292.76064
292.77817
292.79186
292.85289
292.86988
293.58184
293.55495
293.51713
293.4659
293.40202
293.32983
293.25475
293.18099
293.11068
293.04439
292.98178
292.922
292.86407
292.80704
292.75001
292.69225
292.63321
292.57248
292.51123
292.46243
292.48092
292.56339
292.61824
292.65854
292.69439
292.72784
292.75765
292.77579
292.78991
292.85192
292.87084
293.6018
293.57462
293.53727
293.48819
293.42714
293.35694
293.28244
293.20806
293.13644
293.06862
293.00456
292.94354
292.88464
292.82687
292.76934
292.71115
292.65158
292.59012
292.52763
292.47436
292.48137
292.55975
292.61546
292.65594
292.69163
292.72498
292.75449
292.77344
292.788
292.85001
292.87306
293.6213
293.59498
293.55885
293.5109
293.45166
293.38351
293.31034
293.23613
293.16372
293.09457
293.02902
292.96661
292.90654
292.84787
292.78964
292.73094
292.67084
292.60871
292.54505
292.48782
292.48406
292.55661
292.61334
292.65313
292.68869
292.72225
292.75133
292.77114
292.78595
292.8479
292.87496
293.63425
293.609
293.57462
293.52953
293.47339
293.40819
293.33724
293.26412
293.19166
293.12164
293.05478
292.991
292.92966
292.86994
292.81089
292.75157
292.69097
292.62828
292.56379
292.50336
292.48787
292.55394
292.61087
292.65099
292.68629
292.71957
292.74831
292.76893
292.78338
292.8465
292.87493
293.63821
293.61464
293.58268
293.54091
293.489
293.42808
293.36072
293.29
293.21863
293.1486
293.081
293.01611
292.95362
292.89285
292.83295
292.77295
292.71187
292.64877
292.58364
292.52004
292.49245
292.55155
292.60952
292.64898
292.68403
292.71709
292.7456
292.76676
292.78097
292.84607
292.87318
293.6314
293.60991
293.58103
293.54347
293.49664
293.44108
293.37855
293.31161
293.24271
293.17386
293.10645
293.04109
292.97781
292.9162
292.85553
292.79491
292.73336
292.66989
292.60414
292.53854
292.49941
292.54965
292.60771
292.64723
292.68183
292.71484
292.74313
292.7647
292.7789
292.8465
292.87236
293.61419
293.5952
293.56974
293.5366
293.49515
293.44561
293.3891
293.32733
293.26232
293.196
293.12989
293.06494
293.0015
292.93943
292.87824
292.81714
292.75518
292.69137
292.62499
292.55759
292.50901
292.54737
292.6068
292.64666
292.68116
292.71277
292.74091
292.76264
292.77709
292.84724
292.87523
293.58756
293.57134
293.54973
293.52159
293.48612
293.44324
293.39337
293.33756
293.27735
293.21452
293.15067
293.08695
293.02401
292.96199
292.90062
292.83927
292.77707
292.713
292.64615
292.57725
292.52054
292.54724
292.60717
292.64689
292.67955
292.71113
292.73893
292.76061
292.7755
292.84759
292.88316
293.55455
293.54156
293.52414
293.50125
293.47203
293.43582
293.39262
293.34304
293.2882
293.22955
293.16863
293.10679
293.04492
292.98344
292.92227
292.86098
292.79876
292.7346
292.66749
292.59759
292.53519
292.54899
292.60749
292.64637
292.6792
292.7095
292.73703
292.75861
292.77416
292.84728
292.8964
293.51751
293.50727
293.49365
293.47576
293.4526
293.42326
293.38715
293.34426
293.29529
293.24141
293.18403
293.12456
293.06419
293.00359
292.94295
292.88198
292.82
292.75601
292.68897
292.61867
292.55206
292.55321
292.60792
292.64785
292.67961
292.70861
292.73574
292.75654
292.77293
292.84597
292.91372
293.47891
293.47109
293.46071
293.44704
293.42919
293.40615
293.377
293.34119
293.29869
293.25021
293.19698
293.14044
293.08194
293.02251
292.96262
292.90219
292.84066
292.77711
292.71049
292.64025
292.57192
292.55798
292.61039
292.64982
292.68017
292.70753
292.73467
292.75474
292.77166
292.84412
292.93179
293.44313
293.43641
293.42793
293.41711
293.40316
293.38511
293.36197
293.33282
293.29711
293.25483
293.20667
293.15388
293.09794
293.04012
292.98125
292.92156
292.86069
292.79778
292.73178
292.66203
292.59192
292.56505
292.61342
292.6512
292.68102
292.70816
292.73432
292.75316
292.77053
292.84207
292.94449
293.41861
293.412
293.40379
293.39363
293.38108
293.3655
293.34603
293.32172
293.29162
293.25516
293.21241
293.16415
293.11161
293.0561
292.99874
292.94009
292.88007
292.81802
292.75292
292.68397
292.61331
292.57546
292.61694
292.65348
292.68297
292.70943
292.73499
292.75232
292.76982
292.83938
292.94897
293.40349
293.39698
293.38942
293.38046
293.36946
293.35564
293.33818
293.31619
293.28897
293.25612
293.21747
293.17321
293.12401
293.07104
293.01544
292.95802
292.89898
292.8379
292.77389
292.70602
292.63548
292.5874
292.62108
292.65745
292.68523
292.71066
292.7354
292.75217
292.76978
292.83628
292.94702
293.40312
293.39546
293.38682
293.37696
293.36556
293.35213
293.33594
293.31615
293.29178
293.2619
293.22607
293.18442
293.13764
293.08661
293.03242
292.97601
292.91783
292.85766
292.79474
292.72806
292.65806
292.60165
292.62641
292.66286
292.68898
292.71243
292.73625
292.75253
292.77017
292.83295
292.94028
293.41698
293.409
293.39989
293.3894
293.37725
293.36306
293.34628
293.32619
293.30201
293.273
293.23851
293.19846
293.15311
293.10334
293.05015
292.99452
292.937
292.87757
292.81559
292.75008
292.68083
292.61827
292.63273
292.66788
292.69221
292.71519
292.73749
292.75341
292.77075
292.83076
292.93126
293.42983
293.4226
293.41418
293.40422
293.39239
293.37827
293.36139
293.34119
293.31707
293.28832
293.25435
293.21498
293.17051
293.12144
293.06882
293.01368
292.95665
292.89777
292.83655
292.77211
292.70382
292.63797
292.63968
292.67284
292.6963
292.71845
292.73859
292.75452
292.77157
292.82972
292.92286
293.43233
293.42666
293.41987
293.41164
293.40155
293.38914
293.37385
293.35505
293.3321
293.30442
293.27154
293.23312
293.1891
293.14036
293.0881
293.03328
292.97656
292.91809
292.85751
292.79399
292.72662
292.6588
292.64693
292.67854
292.70139
292.72171
292.74071
292.75679
292.77203
292.83048
292.91794
293.41778
293.4139
293.40914
293.4032
293.39569
293.38614
293.37392
293.35831
293.33853
293.31379
293.28335
293.24679
293.20474
293.15789
293.1069
293.05275
292.99639
292.93827
292.87818
292.81537
292.74868
292.67938
292.65469
292.68361
292.70573
292.72504
292.74353
292.75908
292.77284
292.83243
292.91984
293.3864
293.38364
293.38027
293.37607
293.37074
293.36384
293.35486
293.34312
293.32776
293.30781
293.28262
293.25172
293.21472
293.17173
293.12351
293.07116
293.0158
292.9582
292.89851
292.83617
292.76993
292.69984
292.66345
292.68856
292.71067
292.72972
292.74731
292.76049
292.77209
292.83455