/*--------------------------------*- C++ -*----------------------------------*\
| =========                 |                                                 |
| \\      /  F ield         | OpenFOAM: The Open Source CFD Toolbox           |
|  \\    /   O peration     | Version:  2406                                  |
|   \\  /    A nd           | Website:  www.openfoam.com                      |
|    \\/     M anipulation  |                                                 |
\*---------------------------------------------------------------------------*/
FoamFile
{
    version     2.0;
    format      ascii;
    arch        "LSB;label=32;scalar=64";
    class       volScalarField;
    location    "0.01";
    object      nut;
}
// * * * * * * * * * * * * * * * * * * * * * * * * * * * * * * * * * * * * * //

dimensions      [0 2 -1 0 0 0 0];

internalField   nonuniform List<scalar> 
2065
(
0.043747307
0.050127155
0.057799696
0.066738098
0.076935377
0.088430447
0.10129991
0.11564595
0.13158454
0.14927354
0.16889553
0.19062642
0.21462807
0.24101129
0.26977364
0.30074722
0.33349331
0.36718905
0.4004807
0.43132187
0.4567078
0.47237294
0.47260289
0.45029463
0.39802043
0.310808
0.19352596
0.096779229
0.063718492
0.052962468
0.045671728
0.051902428
0.058544557
0.066073005
0.074695718
0.084527412
0.095656262
0.10817741
0.12220339
0.13786151
0.1553042
0.17470755
0.19624189
0.22005792
0.24625566
0.27481732
0.30555899
0.33802545
0.37137607
0.40424181
0.4345527
0.45928671
0.47416577
0.47346968
0.45010056
0.39669882
0.30846891
0.19103384
0.094967847
0.063318135
0.052806374
0.045542577
0.061467798
0.068037786
0.075407266
0.083768323
0.093265857
0.10402722
0.11617646
0.12984604
0.14517833
0.16232835
0.1814667
0.20275866
0.22634422
0.25231102
0.28062437
0.31108226
0.34321109
0.37615026
0.40851351
0.43820486
0.46218214
0.47615416
0.47439426
0.44981795
0.39512545
0.30574114
0.18810877
0.093086401
0.062919099
0.052634535
0.045404204
0.072670401
0.078957957
0.086077494
0.094145748
0.10330179
0.11368688
0.12544536
0.13872858
0.15369432
0.17050497
0.18932941
0.21032837
0.23363158
0.25931196
0.28731908
0.3174299
0.3491506
0.38159843
0.41336735
0.44233328
0.4654307
0.4783545
0.47537088
0.44941308
0.39325012
0.30257142
0.18469221
0.091135799
0.06251361
0.052446161
0.045256175
0.085688104
0.091579742
0.098364287
0.10607867
0.11485464
0.12483571
0.13617605
0.14903968
0.16359671
0.18001824
0.19847411
0.21912153
0.24208114
0.26740891
0.29503855
0.32472487
0.35595172
0.38781176
0.4188762
0.44699096
0.46906382
0.4807745
0.47638163
0.44884048
0.39100358
0.29887576
0.18070875
0.089097537
0.062092023
0.052236265
0.045094116
0.10064114
0.10611147
0.1124997
0.1198045
0.12815502
0.13769519
0.14858338
0.16099047
0.17509474
0.19107458
0.20910209
0.22933142
0.25187458
0.27677112
0.3039374
0.33310524
0.36373366
0.39488973
0.4251176
0.45223148
0.47310945
0.48341425
0.47739667
0.44803956
0.38829787
0.29455106
0.17607642
0.086953092
0.061644489
0.051999656
0.04491503
0.11764601
0.12270317
0.12866924
0.13553304
0.14342553
0.15249269
0.16289568
0.17480914
0.18841613
0.20389995
0.22143469
0.24117148
0.26321393
0.28758611
0.31418616
0.34272214
0.37262582
0.40293787
0.432171
0.45810593
0.47758849
0.48626194
0.47836932
0.44692841
0.38502059
0.28946983
0.17070695
0.084688233
0.061163387
0.051730369
0.044717213
0.13679862
0.14147331
0.14702309
0.15344361
0.16086875
0.16944702
0.17934195
0.19073067
0.20379899
0.21873292
0.23570735
0.25486999
0.27631617
0.30005559
0.32596755
0.35373573
0.38276361
0.41206324
0.4401128
0.46465756
0.48250868
0.48928711
0.4792288
0.44539576
0.38102709
0.28347334
0.16450713
0.082294734
0.06064436
0.051422725
0.044500195
0.15816592
0.16250787
0.16767614
0.17368025
0.18065545
0.18875149
0.19813321
0.20897902
0.22147585
0.23581048
0.25215696
0.27065882
0.29140308
0.31438593
0.33946766
0.36630749
0.39428017
0.42236666
0.44900838
0.47191316
0.48785541
0.49243087
0.47986977
0.44329039
0.37613011
0.27636287
0.15738054
0.079771933
0.060084067
0.051072646
0.044264547
0.18176634
0.18584082
0.19068946
0.19633206
0.20290197
0.21054834
0.21943513
0.22973962
0.24164745
0.25534369
0.27099947
0.28875291
0.30868234
0.33077093
0.35486024
0.38058547
0.40729249
0.43392919
0.45889856
0.47986947
0.4935778
0.49559144
0.4801375
0.44040628
0.37008611
0.26788895
0.14923707
0.077127325
0.059479191
0.050675607
0.044010897
0.20752302
0.21141866
0.21603345
0.22139675
0.22763486
0.23489285
0.24333078
0.25312113
0.26444445
0.27748049
0.29239441
0.30931684
0.3283164
0.34936307
0.37228018
0.39667956
0.42187833
0.4467901
0.46977851
0.48847235
0.49956777
0.49860317
0.47980681
0.43646208
0.36257705
0.25773739
0.14001351
0.074376759
0.058827147
0.050220713
0.043738657
0.23526187
0.2390729
0.24355384
0.24874047
0.25474745
0.26170762
0.26977227
0.27910467
0.28987517
0.30225308
0.316393
0.33241465
0.35037463
0.37022859
0.39178157
0.41462244
0.43803982
0.46091262
0.48156486
0.49758496
0.50562902
0.50120596
0.47855218
0.43107281
0.35318616
0.24551263
0.1297015
0.071546363
0.058126692
0.049703987
0.043435234
0.26467715
0.26850507
0.27296075
0.27808076
0.28396806
0.29073982
0.29852932
0.30748512
0.31776124
0.32950969
0.3428681
0.3579398
0.37476497
0.39328179
0.41327531
0.43431077
0.45564817
0.47613174
0.4940463
0.50694041
0.51143135
0.50300105
0.47590538
0.42371095
0.34136658
0.23073198
0.11838757
0.068673345
0.057373385
0.049114457
0.043160526
0.2952895
0.29922871
0.30376204
0.30892394
0.31480234
0.32149835
0.32912227
0.33779833
0.34765803
0.35882921
0.37142483
0.3855238
0.40114232
0.41819465
0.43644119
0.4554207
0.47436304
0.49207749
0.50681038
0.51607198
0.5164439
0.50338738
0.47119555
0.41365338
0.32640258
0.21290482
0.10632048
0.065776208
0.056549596
0.048455552
0.042867548
0.32633496
0.33046496
0.33516489
0.34046339
0.34643413
0.35315679
0.36072117
0.36922002
0.37875295
0.38941719
0.4012932
0.41442502
0.42879383
0.44427975
0.46061025
0.47729138
0.49351885
0.50806504
0.51913799
0.52421203
0.5198389
0.50147054
0.46346517
0.39990942
0.30736236
0.19153486
0.094734928
0.06282621
0.055631719
0.047734125
0.042539934
0.35674021
0.3611087
0.36603051
0.37152813
0.3776606
0.38449043
0.39207966
0.40049054
0.40978437
0.42001615
0.43122429
0.44340948
0.45650581
0.47034635
0.48461356
0.49877023
0.51196951
0.5229414
0.52985385
0.53014786
0.5203542
0.49593369
0.45135281
0.38112623
0.28304773
0.16629137
0.084611195
0.060023768
0.054616475
0.04693727
0.042258276
0.38506255
0.38967297
0.39482424
0.40053252
0.40684193
0.41379792
0.42144214
0.4298089
0.43891699
0.44877027
0.45934968
0.47059908
0.48239605
0.49451777
0.50658739
0.51800917
0.52787946
0.53487498
0.53711809
0.53201875
0.51609906
0.48485643
0.43293261
0.35547218
0.25197709
0.13746195
0.075230074
0.057377364
0.053508577
0.046085975
0.041980987
0.40926404
0.41406197
0.4193884
0.42525465
0.43169057
0.43872236
0.44636974
0.45464087
0.46352346
0.47297587
0.48291424
0.49321084
0.50366648
0.51398341
0.52371431
0.5321928
0.53844121
0.54106692
0.53813693
0.5270319
0.50428224
0.46546466
0.40550037
0.32051529
0.21253268
0.10694154
0.066628417
0.054781554
0.052247849
0.045279348
0.041788789
0.42630948
0.43118772
0.43657304
0.44247529
0.448911
0.45588706
0.46340117
0.47143228
0.47993787
0.4888383
0.49800801
0.50724223
0.51625208
0.52464693
0.53186914
0.5371643
0.5394814
0.53734538
0.52875446
0.51106238
0.48083308
0.4337965
0.3653091
0.2731884
0.16374929
0.086213496
0.059673637
0.052080634
0.050972562
0.04475923
0.04143337
0.43115263
0.43597302
0.44126538
0.44703693
0.45329175
0.46002224
0.4672068
0.47479003
0.48269171
0.4907956
0.49892969
0.50684374
0.51418405
0.52043895
0.52494363
0.52680002
0.52484358
0.51755032
0.5028468
0.4780721
0.43986856
0.38428416
0.30733968
0.21010294
0.10962765
0.069161545
0.054264464
0.050275405
0.049632049
0.0441428
0.041251487
0.41495549
0.41957601
0.42462182
0.43009576
0.43598849
0.44227555
0.44890964
0.45581301
0.46287317
0.46992242
0.47672159
0.48297509
0.48827266
0.49204161
0.49352011
0.49170271
0.48524307
0.47247242
0.45132717
0.41919992
0.37291309
0.30932192
0.22522167
0.13218695
0.07835005
0.057529323
0.051034477
0.048633596
0.048128126
0.04346476
0.041170032
0.36221717
0.36666562
0.37148408
0.3766628
0.38217469
0.38797359
0.39398488
0.40009647
0.40614871
0.41192198
0.41713368
0.42139602
0.42421624
0.42501475
0.42296444
0.4170084
0.40580479
0.38759699
0.36012595
0.32095739
0.26750334
0.19980769
0.13410073
0.082890232
0.058110355
0.050632647
0.049333004
0.047100865
0.046793244
0.043096826
0.040914899
0.26073437
0.2641016
0.26772775
0.27158472
0.27563475
0.27982085
0.2840537
0.28820386
0.2920945
0.29549203
0.29809012
0.29954706
0.29942144
0.29719284
0.29227233
0.28375408
0.27084036
0.25236886
0.2272917
0.19495382
0.15561005
0.11279136
0.078809111
0.057694397
0.050073075
0.048240537
0.046966838
0.045664693
0.045553139
0.042898686
0.040565946
0.1475971
0.14980515
0.1521846
0.15469794
0.15730989
0.15997931
0.16261686
0.16511375
0.16734374
0.1691621
0.17041327
0.17084104
0.17010901
0.16778607
0.1634917
0.15711905
0.14835297
0.13666649
0.12190531
0.10433677
0.085048629
0.066865963
0.054423415
0.048263653
0.046652542
0.045842278
0.045498598
0.044376535
0.044497045
0.042738456
0.040508829
0.074368012
0.075901395
0.077519321
0.079189103
0.080861133
0.082452859
0.083951076
0.085339344
0.086583096
0.087627954
0.08839073
0.088749734
0.088567855
0.087629514
0.085772076
0.082942213
0.079074499
0.07405735
0.068055082
0.061337434
0.05462317
0.049056088
0.045805376
0.044731413
0.044726944
0.044045475
0.04349012
0.043149234
0.043572778
0.042477857
0.040495065
0.047813008
0.048256871
0.048726678
0.049216015
0.049716285
0.050218553
0.050717682
0.051207638
0.051679733
0.052119974
0.052507718
0.052809332
0.052977026
0.052954704
0.052699336
0.052162604
0.051237927
0.049817927
0.048139784
0.046288581
0.044524881
0.043348838
0.04292353
0.043103662
0.042574442
0.042343959
0.042442972
0.042181651
0.042594546
0.041580766
0.040451494
0.041554815
0.041732742
0.041913694
0.042095365
0.042275259
0.042450672
0.0426196
0.042779513
0.042927377
0.043059343
0.043170412
0.043253354
0.043298052
0.043293394
0.043231425
0.043103965
0.042900818
0.042608701
0.042253423
0.04186455
0.041548269
0.041549986
0.041553562
0.041593899
0.041517016
0.041415741
0.041386824
0.041372062
0.041735738
0.041166843
0.040145777
0.040203242
0.040267943
0.040331808
0.040394193
0.040454936
0.040513667
0.040568563
0.04061811
0.04066114
0.040696671
0.040723938
0.04074214
0.040750139
0.040747173
0.040733709
0.040711813
0.040686389
0.040675814
0.040676987
0.040659521
0.040651068
0.040632027
0.040760057
0.040787654
0.040819927
0.040785332
0.040802675
0.040810549
0.040985969
0.040783581
0.039989823
0.039914176
0.039940146
0.039964971
0.039988033
0.040008851
0.040027002
0.040042156
0.040054133
0.040062925
0.040068695
0.040071696
0.04007233
0.040071303
0.040069861
0.040070435
0.040077459
0.04009729
0.04013179
0.040171804
0.040194437
0.040193663
0.040211008
0.040224459
0.040254145
0.040249433
0.040183902
0.040156594
0.04014348
0.040319571
0.040287545
0.039919121
0.03980101
0.039808873
0.039816394
0.039823287
0.039829422
0.039834695
0.039839038
0.039842425
0.039844861
0.039846402
0.039847142
0.039847191
0.039846872
0.039846759
0.039847797
0.039851622
0.039862626
0.039884707
0.039914014
0.039940371
0.039957823
0.039988434
0.03996978
0.039943835
0.039917012
0.039879794
0.0398678
0.039919599
0.039945481
0.039983766
0.039909289
0.039763182
0.03976511
0.039767042
0.039768868
0.039770589
0.039772217
0.039773763
0.039775205
0.039776448
0.039777304
0.039777591
0.039777325
0.039776627
0.039775722
0.039774867
0.039774404
0.039776159
0.039780454
0.039786923
0.039795133
0.039804606
0.039823117
0.039821046
0.039798629
0.03978671
0.039775078
0.039772117
0.039853572
0.039786675
0.039820685
0.039804204
0.0036999983
0.0057591903
0.0086662882
0.012445944
0.017185599
0.023033976
0.030179666
0.038930617
0.049159952
0.06136993
0.075799455
0.09266839
0.11220583
0.13469491
0.1603962
0.18948247
0.22196278
0.25756248
0.29555686
0.33454276
0.37222422
0.40505939
0.42789999
0.43373274
0.41395858
0.35992275
0.26801499
0.15604441
0.082736047
0.059467485
0.050048818
0.0062624061
0.0090502928
0.012460892
0.016625279
0.021680823
0.027837612
0.035392732
0.04439582
0.054982241
0.067510215
0.082215235
0.099332474
0.11910724
0.14180806
0.16767203
0.19684446
0.22930355
0.26473646
0.30237471
0.34077654
0.37760605
0.40929102
0.43067442
0.43477394
0.4130929
0.35724454
0.26399128
0.15236903
0.08132771
0.059077331
0.04986437
0.0079037193
0.010868304
0.014590114
0.019188357
0.024779065
0.031560023
0.039695765
0.049138543
0.060223243
0.073197537
0.088288737
0.10574104
0.12580993
0.14875554
0.17479908
0.20406597
0.2365061
0.27177222
0.30905132
0.34686898
0.38285065
0.41339441
0.4333354
0.43572283
0.4121608
0.35452732
0.25994429
0.1487213
0.07992526
0.058684099
0.049672398
0.0098120516
0.013173565
0.017278906
0.022247787
0.028238237
0.035442783
0.043895333
0.053778954
0.065316122
0.07871409
0.094191337
0.11198995
0.13236215
0.15555726
0.18178271
0.21114383
0.24356403
0.27865989
0.31557779
0.35281325
0.38795429
0.41736977
0.43588736
0.436588
0.41117541
0.35178752
0.25589052
0.14513121
0.078567283
0.058298581
0.04948271
0.01168556
0.01537326
0.019834694
0.025191756
0.031648456
0.039227839
0.048068701
0.058377931
0.070333482
0.08412862
0.099976243
0.11811146
0.13877881
0.16221765
0.18861998
0.21807085
0.25046777
0.2853865
0.32194319
0.35860047
0.39291103
0.42121497
0.43833232
0.43737582
0.41014713
0.34903701
0.25184441
0.14161797
0.077271445
0.057924178
0.049301197
0.013493685
0.017556016
0.022406828
0.02818767
0.03502417
0.042977479
0.052229438
0.062944192
0.07529099
0.089458995
0.10565653
0.1241107
0.14506003
0.16873199
0.19530234
0.2248373
0.25720287
0.29193976
0.32813656
0.36422212
0.39771565
0.42492879
0.44067335
0.43809363
0.40908702
0.34628817
0.24782047
0.13819842
0.076047197
0.057562437
0.049129777
0.015323308
0.019748396
0.024978523
0.03118968
0.038372709
0.046717527
0.0563642
0.067463695
0.080180307
0.094699064
0.11122538
0.12998119
0.15119722
0.17508925
0.2018184
0.23142991
0.2637533
0.29830672
0.33414686
0.36967011
0.4023636
0.42851084
0.44291441
0.4387496
0.40800677
0.34355376
0.24383322
0.13488718
0.074899159
0.057214095
0.048966208
0.017105747
0.021897952
0.027522444
0.034116137
0.041684785
0.050418467
0.060447266
0.07191386
0.084981761
0.099832391
0.116669
0.13570907
0.15717585
0.18127533
0.20815385
0.23782977
0.27010426
0.30447407
0.33996313
0.37493671
0.40685097
0.43196149
0.44506033
0.43935266
0.40691851
0.34084715
0.23989686
0.13169711
0.073828125
0.056879608
0.048802192
0.018862582
0.024017252
0.030041474
0.036979623
0.044940357
0.054056564
0.064453263
0.076272
0.08967398
0.10483893
0.12196824
0.14127556
0.16297869
0.18727487
0.21429059
0.24401721
0.27624012
0.31042818
0.34557455
0.38001464
0.41117442
0.43528179
0.44711665
0.43991233
0.40583472
0.33818257
0.23602514
0.12863908
0.07283324
0.056559126
0.048625058
0.020584669
0.026097692
0.032498381
0.039791067
0.048129388
0.057611503
0.068359979
0.080514368
0.094233276
0.10969543
0.12710046
0.14665995
0.1685878
0.19306804
0.22020515
0.24997466
0.28214471
0.31615534
0.35097052
0.38489698
0.41533116
0.43847339
0.44908951
0.44043864
0.40476819
0.33557417
0.23223117
0.12572165
0.071912873
0.056252521
0.04843149
0.022268939
0.028137813
0.03487925
0.042536348
0.051231616
0.061060989
0.072143563
0.084615995
0.098634196
0.1143767
0.13204256
0.15184151
0.17398156
0.19862752
0.22587396
0.25568343
0.28780148
0.32164183
0.35614064
0.38957719
0.41931885
0.44153838
0.4509855
0.44094191
0.40373179
0.3330359
0.22852746
0.12295158
0.071064536
0.055959548
0.048220665
0.023916412
0.030121044
0.037188572
0.045193223
0.054225776
0.064382112
0.075779424
0.088551546
0.10285252
0.11885995
0.13677296
0.15679606
0.1791298
0.20392676
0.23127676
0.26112434
0.29319374
0.32687398
0.36107473
0.39404906
0.42313549
0.44447924
0.45281155
0.44143268
0.40273836
0.33058144
0.22492581
0.12033411
0.070285016
0.055679459
0.048035405
0.025522796
0.03203939
0.0394209
0.047745268
0.057096647
0.067556609
0.079247847
0.092300514
0.10686777
0.12312442
0.14126608
0.16149645
0.1840035
0.20894367
0.23639227
0.26627801
0.29830476
0.33183819
0.36576282
0.39830661
0.42677938
0.44729864
0.45457473
0.44192152
0.40180059
0.3282241
0.22143731
0.11787279
0.069570649
0.055412206
0.047861209
0.027091927
0.033897634
0.04157838
0.050186994
0.059826502
0.070569607
0.082532196
0.095843508
0.11065427
0.12714167
0.14549135
0.16590921
0.18857867
0.21365461
0.24119876
0.27112493
0.30311781
0.33652101
0.37019515
0.40234408
0.43024895
0.44999935
0.45628213
0.4424189
0.40093085
0.32597666
0.21807229
0.11556812
0.068917597
0.055156221
0.047604709
0.028551258
0.035612347
0.043562153
0.052451814
0.062370596
0.073389947
0.085601872
0.099146955
0.11417613
0.13086792
0.14941037
0.17000185
0.19282891
0.21803538
0.2456743
0.27564553
0.30761618
0.34090907
0.37436207
0.40615577
0.4335427
0.45258404
0.4579407
0.44293502
0.40014108
0.32385133
0.21484242
0.11341899
0.068311699
0.054908995
0.047355633
0.02983375
0.037140216
0.045342834
0.054503291
0.064674214
0.075937475
0.088387981
0.10215068
0.11738451
0.13426486
0.15298934
0.17374941
0.19672797
0.22206188
0.24979686
0.27982025
0.31178325
0.3449891
0.37825405
0.40973602
0.43665906
0.45505519
0.45955706
0.44347968
0.39944269
0.32185965
0.21176855
0.11140723
0.067736549
0.054670455
0.047156419
0.031209641
0.038674533
0.047045455
0.056385288
0.066748038
0.07820763
0.090860494
0.10482364
0.12024812
0.13730983
0.15620534
0.17712601
0.20025054
0.22571022
0.25354452
0.28362964
0.31560246
0.34874788
0.38186152
0.41307905
0.43959627
0.45741498
0.46113731
0.44406212
0.39884641
0.32001234
0.2088706
0.10951446
0.067185552
0.054440234
0.046972168
0.032541945
0.040130249
0.048628472
0.058090763
0.068589834
0.080198242
0.093009492
0.10714227
0.12274278
0.13997894
0.1590342
0.18010647
0.20337185
0.22895676
0.25689556
0.28705436
0.31905736
0.3521722
0.38517491
0.41617889
0.44235231
0.45966511
0.46268691
0.44469088
0.39836223
0.3183192
0.20616721
0.10772273
0.066656816
0.054218464
0.046795
0.033838268
0.041502596
0.050079832
0.059628106
0.070213879
0.081918562
0.094839741
0.10909633
0.12483278
0.14221271
0.16142141
0.18264573
0.20605744
0.23177759
0.25982849
0.29007529
0.32213157
0.35524886
0.38818448
0.41902929
0.4449247
0.46180677
0.46421048
0.44537365
0.39799926
0.31678896
0.20367542
0.10601442
0.06615064
0.054005561
0.046621135
0.035073174
0.042768812
0.05137927
0.060970738
0.071609174
0.083378817
0.09637873
0.11072899
0.12657521
0.14407561
0.1634091
0.18476219
0.20830365
0.23415082
0.26232058
0.29266868
0.32480006
0.35795684
0.39088007
0.42162366
0.44731053
0.46384044
0.46571174
0.44611709
0.39776565
0.31542999
0.20140996
0.10437265
0.065668653
0.053802393
0.046448272
0.036250727
0.043920491
0.052511205
0.062096499
0.072742682
0.084535026
0.097570857
0.11197507
0.12789837
0.14549493
0.16493815
0.18641026
0.2100777
0.2360549
0.26435537
0.29482687
0.32706541
0.36029862
0.39325176
0.42395527
0.44949975
0.46576567
0.46719335
0.44692678
0.39766851
0.31425029
0.19938324
0.10278084
0.065211835
0.053609134
0.046278674
0.037370499
0.044952822
0.053462523
0.062985336
0.073587655
0.08535383
0.098395951
0.11283578
0.12881819
0.14649152
0.16602553
0.18759938
0.21137903
0.23747797
0.26591134
0.29652558
0.32890156
0.36225277
0.39528943
0.42601708
0.45150125
0.46758123
0.46865684
0.44780702
0.39771383
0.31325648
0.19760612
0.10122167
0.064781401
0.053425649
0.046113311
0.03844347
0.045868068
0.054221064
0.063608194
0.074121655
0.085854874
0.098898859
0.11335066
0.12932939
0.14702007
0.166604
0.18825851
0.21214717
0.23838199
0.26696859
0.29775077
0.33030291
0.36382438
0.39698784
0.42780155
0.45330294
0.4692854
0.47009904
0.4487607
0.39790636
0.31245368
0.19608798
0.099676579
0.064380239
0.053252043
0.045951756
0.039539707
0.046705892
0.054794987
0.063948926
0.07429195
0.085899395
0.098863405
0.11328384
0.1292728
0.14699573
0.16663588
0.18837121
0.2123659
0.23873297
0.2674765
0.29843644
0.33118304
0.36490556
0.39826313
0.42923352
0.45483033
0.47081066
0.47148382
0.4497781
0.39824931
0.31184545
0.19483925
0.09812466
0.064008949
0.053088409
0.045793279
0.0036971002
0.0057042846
0.0084800588
0.012104218
0.016672212
0.022229578
0.029067396
0.037428298
0.047283503
0.059070124
0.073053545
0.08947905
0.10862985
0.13075589
0.15613363
0.18495752
0.21725838
0.25278954
0.29085835
0.33011792
0.36828831
0.40184128
0.42563905
0.43267814
0.41430694
0.36169483
0.27097907
0.15893455
0.083873084
0.059817552
0.050246044
0.0039290821
0.0059966572
0.0087238733
0.012245161
0.016676571
0.022139537
0.028869977
0.037077054
0.046850563
0.058436073
0.072149262
0.088287186
0.10714349
0.1289973
0.15412046
0.18271104
0.21481303
0.25019761
0.2881941
0.32748042
0.36580647
0.39966946
0.42395275
0.43166468
0.41413859
0.36245189
0.27266181
0.16073455
0.084634961
0.060046169
0.050378581
0.0041783906
0.0062844532
0.0090029622
0.01247768
0.016832019
0.022182168
0.028766189
0.036781461
0.046345593
0.057709727
0.071171711
0.087038321
0.10561246
0.12718443
0.15203498
0.18037288
0.21225675
0.24747696
0.28538659
0.32469083
0.36316976
0.39735106
0.42214066
0.43056063
0.41392937
0.36322797
0.27442697
0.16266072
0.085469489
0.060295919
0.05052024
0.0044411799
0.0065700939
0.0092776115
0.012705515
0.016982642
0.022223945
0.028659524
0.036487461
0.045844686
0.05697806
0.070182135
0.085767646
0.10404664
0.12532023
0.1498798
0.17794477
0.20958989
0.2446262
0.2824324
0.32174361
0.36037152
0.39487799
0.42019425
0.42935801
0.4136731
0.36401999
0.27627404
0.16471876
0.086384885
0.06057169
0.050670035
0.0047178809
0.0068556322
0.0095485102
0.012930051
0.017130158
0.022265387
0.028552045
0.036196005
0.045344767
0.05624352
0.069183393
0.08447835
0.10244974
0.12340821
0.14765833
0.17542928
0.20681372
0.24164484
0.27932899
0.31863366
0.35740516
0.39224212
0.41810471
0.42804829
0.41336298
0.36482442
0.27820249
0.16691485
0.0050122144
0.0071484494
0.0098218272
0.013155582
0.01727813
0.022308485
0.028446274
0.035908628
0.044847897
0.055509214
0.06817861
0.0017122497
0.0020248762
0.0023337712
0.002639988
0.0029462758
0.0006278087
0.0012852859
0.023340598
0.032174563
0.00025803609
0.00061683497
0.0013680551
0.0023050707
0.00022828617
0.00050838264
0.0012772705
0.0024964632
0.003976174
0.00018540214
0.00034358811
0.00096585574
0.0021855474
0.0037312745
0.0055285461
0.00021317006
0.00049614406
0.0014705902
0.0029838664
0.0048738348
0.007080652
0.0002374066
0.00064540644
0.0019941705
0.0038620447
0.0061009182
0.0086563519
0.000257376
0.00081658895
0.0024725203
0.0046299615
0.0071914498
0.010112433
0.00027593838
0.00098546359
0.0029198673
0.0053950556
0.0083067289
0.011592533
0.00028509224
0.0011606585
0.0033574284
0.0061369283
0.0093787724
0.013017829
0.00029775946
0.0013397032
0.0037929228
0.0068678527
0.010434907
0.014420714
0.00030884033
0.001515251
0.0042164058
0.0075835705
0.011468016
0.015793198
0.00031843378
0.0017073281
0.0046547029
0.0082963045
0.012481637
0.017136393
0.00032610776
0.0019193412
0.0050984707
0.0090007539
0.013475059
0.018452921
0.00033223884
0.0021575808
0.005537252
0.0096753226
0.01443386
0.019736046
0.00033698857
0.0022704247
0.0058278361
0.010251305
0.015332527
0.020982027
0.00034126347
0.0023138201
0.0060267385
0.010718485
0.016121052
0.022126664
0.00034589103
0.0024254778
0.0062647845
0.011132237
0.016798854
0.023130826
0.00035020282
0.0025627884
0.0066181605
0.011747667
0.017674165
0.02429165
0.00035376054
0.0026332739
0.0068489574
0.012232943
0.018458553
0.025407617
0.00035702522
0.0027355098
0.0071367816
0.012764668
0.019267105
0.026528689
0.00035956578
0.0028161566
0.0073825267
0.013247651
0.020033508
0.027612018
0.00036171282
0.0029044741
0.0076366827
0.013728489
0.020785665
0.028672294
0.00036335961
0.0029835033
0.0078763908
0.014186296
0.021508485
0.029701305
0.0030604312
0.0081076464
0.014621844
0.022195258
0.030693814
0.0083208119
0.01502362
0.022815157
0.03162708
0.040187505
0.048480797
0.058432483
0.070138218
0.083688364
0.099161361
0.11664011
0.13619071
0.15785774
0.1816334
0.2074113
0.23500628
0.26651779
0.26410538
0.29564321
0.29423961
0.3248885
0.32466252
0.35327904
0.35434324
0.37949245
0.38189333
0.40160588
0.40532973
0.41664012
0.42166118
0.41946548
0.42582347
0.40104378
0.4089078
0.34554349
0.35524147
0.24429978
0.25408402
0.13583344
0.14276776
0.068568774
0.071859697
0.046268668
0.04713942
0.040964021
0.041299484
0.039989455
0.040113276
0.039826365
0.039878213
0.039773419
0.039789867
0.039756188
0.039760319
)
;

boundaryField
{
    Side1
    {
        type            empty;
    }
    Inlet
    {
        type            calculated;
        value           nonuniform List<scalar> 
92
(
0.039740317
0.039740317
0.039740317
0.039740317
0.039740317
0.039740317
0.039740317
0.039740317
0.039740317
0.039740317
0.039740317
0.039740317
0.039740317
0.039740317
0.039740317
0.039740317
0.039740317
0.041788789
0.04143337
0.039740317
0.039740317
0.040914899
0.040565946
0.040508829
0.039740317
0.039740317
0.039740317
0.039740317
0.039740317
0.039740317
0.039740317
0.039740317
0.039740317
0.039740317
0.039740317
0.039740317
0.039740317
0.039740317
0.039740317
0.039740317
0.039740317
0.039740317
0.039740317
0.039740317
0.039740317
0.039740317
0.039740317
0.039740317
0.039740317
0.039740317
0.039740317
0.039740317
0.039740317
0.039740317
0.039740317
0.039740317
0.039740317
0.039740317
0.039740317
0.039740317
0.039740317
0.039740317
0.039740317
0.039740317
0.039740317
0.039740317
0.039740317
0.039740317
0.039740317
0.039740317
0.039740317
0.039740317
0.039740317
0.039740317
0.039740317
0.039740317
0.039740317
0.039740317
0.039740317
0.039740317
0.039740317
0.039740317
0.039740317
0.039740317
0.039740317
0.039740317
0.039740317
0.039740317
0.039740317
0.039740317
0.039740317
0.039740317
)
;
    }
    Side2
    {
        type            empty;
    }
    Outlet
    {
        type            zeroGradient;
    }
    Botwall
    {
        type            nutkWallFunction;
        blending        stepwise;
        value           nonuniform List<scalar> 0();
    }
    Cyli
    {
        type            nutkWallFunction;
        blending        stepwise;
        value           nonuniform List<scalar> 
20
(
1.8706375e-05
2.2525484e-05
2.5814631e-05
2.8522615e-05
3.1014427e-05
3.2239295e-05
3.393202e-05
3.5407835e-05
3.668534e-05
3.7708254e-05
3.8533502e-05
3.9176143e-05
3.9751006e-05
4.0374331e-05
4.0957825e-05
4.1442486e-05
4.1889667e-05
4.2241467e-05
4.2542732e-05
4.2778794e-05
)
;
    }
    procBoundary2to0
    {
        type            processor;
        value           nonuniform List<scalar> 
55
(
0.00087614183
0.0010322532
0.0012158113
0.0014229595
0.0016515054
0.00027099763
0.0007079331
0.00011986778
0.00027270518
0.00027270518
0.0085228611
0.015397342
0.015397342
0.023950789
0.032950088
0.00011560349
0.00011560349
0.00013930888
0.00013930888
0.00036445346
0.00036445346
0.003129099
0.003129099
0.041457355
0.050578037
0.061235928
0.073516762
0.087512674
0.10332008
0.12102265
0.14067851
0.16230969
0.1858705
0.21124075
0.23822635
0.23822635
0.26795332
0.29604854
0.32411833
0.35124765
0.37618028
0.39704883
0.41087878
0.41247353
0.39267296
0.33546912
0.23441905
0.1291515
0.06539698
0.045387662
0.040598909
0.039841448
0.039761999
0.039752978
0.03975127
)
;
    }
    procBoundary2to3
    {
        type            processor;
        value           nonuniform List<scalar> 
35
(
0.08737539
0.060870593
0.050830052
0.083175261
0.10082706
0.12145283
0.14537483
0.17282899
0.20392853
0.23853026
0.27607041
0.31535142
0.3542575
0.38942824
0.41585556
0.4266159
0.41298569
0.36563013
0.28021189
0.08737539
0.16924407
0.0053232572
0.0032574827
0.0074497858
0.010099145
0.013383794
0.017428613
0.022354911
0.028344632
0.035627591
0.044357275
0.054781723
0.083175261
0.067172674
0.0032574827
)
;
    }
}


// ************************************************************************* //
