/*--------------------------------*- C++ -*----------------------------------*\
| =========                 |                                                 |
| \\      /  F ield         | OpenFOAM: The Open Source CFD Toolbox           |
|  \\    /   O peration     | Version:  2406                                  |
|   \\  /    A nd           | Website:  www.openfoam.com                      |
|    \\/     M anipulation  |                                                 |
\*---------------------------------------------------------------------------*/
FoamFile
{
    version     2.0;
    format      ascii;
    arch        "LSB;label=32;scalar=64";
    class       volScalarField;
    location    "0.046";
    object      omega;
}
// * * * * * * * * * * * * * * * * * * * * * * * * * * * * * * * * * * * * * //

dimensions      [0 0 -1 0 0 0 0];

internalField   nonuniform List<scalar> 
8260
(
19418.849
16554.209
13859.239
11452.194
9369.2685
7595.4091
6102.1323
4858.5097
3834.1343
2999.2428
2326.298
1790.1648
1367.9244
1038.9286
782.91587
578.93106
398.85702
264.79574
200.99428
168.05169
146.18886
131.15078
120.88933
114.79343
110.34549
106.75599
103.89496
101.90943
100.50954
99.638884
99.179316
16033.564
13811.426
11769.309
9915.2686
8259.1601
6803.1149
5542.2002
4466.2568
3561.6603
2811.7941
2198.436
1703.6676
1309.868
1000.2718
756.86445
559.68021
382.49532
254.20396
196.57576
165.77727
144.92497
130.41991
120.47275
114.55527
110.18487
106.64801
103.82672
101.86825
100.48513
99.624252
99.170521
13131.824
11494.886
9955.0167
8525.1006
7215.0959
6032.7466
4982.6728
4065.6421
3278.5043
2614.0825
2062.0223
1610.5716
1246.9636
958.14955
728.35347
538.48365
365.80732
246.89522
194.14044
164.54037
144.24978
130.035
120.25774
114.43037
110.09771
106.58847
103.78835
101.84248
100.46757
99.611716
99.160864
10638.898
9471.5113
8335.2594
7250.6761
6230.6648
5286.4139
4427.1173
3659.2655
2986.0259
2406.713
1917.1115
1510.6424
1178.8568
912.15585
696.92738
514.67713
347.64037
238.4234
190.53442
162.49458
143.08796
129.35315
119.87466
114.20127
109.93494
106.47679
103.71615
101.79707
100.44003
99.59421
99.149843
8523.8409
7713.8401
6892.6128
6087.1641
5309.3831
4570.7887
3881.9968
3251.9812
2687.3072
2191.4149
1764.5045
1404.1161
1105.4795
862.04861
662.16443
487.48883
327.46688
229.96612
187.1129
160.58931
142.05003
128.75716
119.55277
114.0088
109.7958
106.38188
103.65481
101.75725
100.41459
99.576605
99.137265
6755.6078
6202.7406
5622.0453
5037.4962
4458.2536
3894.0741
3354.7907
2849.6114
2386.3431
1970.6218
1605.5003
1291.5424
1026.9362
807.64503
623.55961
456.16445
305.54708
221.40271
183.12971
158.2054
140.71782
127.96533
119.11623
113.74188
109.60042
106.24845
103.56788
101.70194
100.38112
99.554498
99.122888
5293.1022
4921.7251
4519.9051
4105.6124
3684.9163
3264.9376
2853.5084
2458.6353
2087.8325
1747.4025
1441.8815
1173.7856
943.50191
748.78129
580.39458
420.02742
282.696
213.01073
178.98325
155.71421
139.3825
127.18049
118.69864
113.48374
109.40687
106.11728
103.48218
101.64673
100.34714
99.530819
99.106471
4096.5572
3851.5376
3579.6296
3293.1144
2995.4754
2691.2739
2386.0134
2085.8241
1796.9913
1525.3841
1275.9005
1052.0291
855.61604
685.23686
531.52244
378.64227
260.24544
204.81252
174.37046
152.81943
137.81703
126.23743
118.18511
113.1588
109.16004
105.95088
103.37254
101.57652
100.3053
99.502291
99.087739
3129.0782
2970.7375
2791.0248
2597.9032
2393.038
2178.9649
1959.1015
1737.6151
1519.165
1308.5314
1110.1627
927.69857
763.78287
616.52896
475.13558
333.05659
239.9837
196.80669
169.46867
149.75208
136.18804
125.274
117.66981
112.82403
108.90008
105.77637
103.25768
101.5026
100.26081
99.470888
99.066397
2356.202
2256.2705
2140.5717
2013.9995
1877.1112
1731.0586
1577.6546
1419.3682
1259.2461
1100.7302
947.34015
802.23642
668.20486
541.42658
409.07372
287.60597
223.10022
188.76426
164.16408
146.39744
134.33516
124.17855
117.0645
112.41784
108.58375
105.56362
103.1173
101.41283
100.20726
99.433719
99.042083
1746.3818
1684.8704
1612.7668
1532.466
1443.963
1347.5962
1244.0942
1134.643
1020.9329
905.11721
789.59434
676.55992
568.10574
456.00968
334.79019
250.61124
209.38986
180.51034
158.64353
142.95114
132.39517
123.06268
116.44193
111.98647
108.2469
105.33132
102.96548
101.31703
100.14862
99.392194
99.014319
1270.338
1233.7128
1190.3551
1141.2926
1086.2067
1024.921
957.45202
884.09501
805.53229
722.84361
637.27561
549.34819
458.99293
357.77046
269.91067
226.51291
196.5838
171.62358
153.20375
139.3096
130.21201
121.86169
115.72476
111.47909
107.85277
105.05212
102.78345
101.20423
100.07894
99.343528
98.982278
900.88464
880.18967
855.27645
826.49685
793.36058
755.39138
712.20801
663.57622
609.53693
550.34689
486.22591
416.80942
342.23476
273.23232
232.99431
208.01828
183.5531
163.85731
147.40628
135.68629
128.0867
120.5965
114.98024
110.9412
107.42863
104.74363
102.58372
101.08226
100.00226
99.289071
98.938458
609.74335
598.01689
583.644
566.87244
547.08601
523.49968
495.73628
463.57788
426.9091
385.35213
339.98171
298.31305
259.9333
228.02068
208.6098
190.03434
172.5965
155.09713
142.24432
132.04767
125.7515
119.36583
114.09692
110.30492
106.93105
104.3886
102.35132
100.93836
99.913181
99.226376
98.886
390.30925
383.48726
375.75012
367.15109
356.75433
343.99055
329.05556
312.43133
293.6101
273.03525
251.23067
233.94209
216.68074
202.92886
188.13686
175.56691
160.92609
148.44357
137.40021
129.0465
123.55416
117.89494
113.23715
109.61612
106.35663
104.01442
102.10224
100.78022
99.815662
99.157227
98.826854
267.08554
263.82351
259.91129
255.78983
251.26636
246.09759
240.05315
233.53271
224.88013
215.79716
206.30626
199.43759
191.95382
180.72372
170.08464
160.43363
152.5614
141.97566
133.43005
125.99835
121.46688
116.54206
112.15013
108.7294
105.728
103.58643
101.82576
100.60033
99.702886
99.079794
98.762974
201.44276
200.24386
198.87693
197.29061
195.75065
193.96007
191.71769
189.9719
187.92763
185.24336
183.28542
176.8791
168.88279
163.4121
155.43613
149.13389
142.75358
137.26964
129.80584
123.84132
119.29336
114.78464
111.08063
107.79315
105.02294
103.13539
101.5284
100.41542
99.580662
98.995695
98.697099
167.04955
166.21064
165.56401
164.93721
164.48823
164.72067
164.76799
163.31766
161.61418
157.67317
157.72954
156.32024
155.08653
151.76537
146.27532
139.29696
134.86449
131.02616
125.99998
120.68936
116.62091
113.12548
109.74973
106.68689
104.26925
102.61505
101.211
100.21168
99.445264
98.904487
98.621074
147.90676
147.96166
147.8279
147.33451
146.3372
144.63135
142.1995
140.77802
139.91944
140.19988
138.32905
136.33125
134.08209
134.60476
135.2175
132.42773
127.13204
124.01106
120.98797
117.20693
113.15238
110.76446
108.352
105.54428
103.45302
102.09684
100.89281
100.00348
99.301385
98.807387
98.543236
130.14124
129.99057
129.82917
129.60962
129.37989
129.40315
130.07361
130.09501
129.38835
127.22573
124.74092
123.57337
123.46092
121.49733
120.31172
120.47122
120.26168
117.21068
114.84274
112.26976
109.94145
107.92912
106.43254
104.25066
102.72123
101.53859
100.53078
99.788591
99.14786
98.701188
98.458182
121.06029
121.17286
121.16306
121.02417
120.71165
120.14855
118.90737
118.36995
117.9814
117.58621
117.75901
116.73056
115.55487
114.63122
113.29272
112.28028
111.6129
111.61699
110.38295
109.47927
107.20869
105.07678
104.35215
103.07808
102.01138
100.97501
100.20403
99.554626
98.995129
98.589352
98.373195
112.30932
112.3336
112.32181
112.2659
112.19237
112.15639
112.47191
112.72103
112.58635
112.19176
111.41194
111.37562
110.84151
110.45644
109.67393
108.44483
107.52585
106.85022
106.57504
106.28821
105.50744
103.67799
102.5962
101.88438
101.23764
100.48433
99.847966
99.31327
98.841058
98.475081
98.286524
107.77388
107.88475
107.92012
107.88889
107.80148
107.62284
107.26754
106.79648
106.62339
106.49698
106.33704
106.10425
106.13383
105.90271
105.88327
105.74657
105.30741
104.51936
103.823
103.62131
103.75092
102.88195
101.69426
101.0652
100.58365
100.03328
99.580465
99.064483
98.687932
98.367991
98.201449
103.64718
103.68146
103.67568
103.64151
103.59429
103.54453
103.51438
103.63075
103.74382
103.74682
103.68805
103.51462
103.23559
103.0061
102.87619
102.79174
103.0497
103.07064
102.43575
101.89916
101.48439
101.9637
101.21295
100.45057
100.06072
99.639091
99.280414
98.880683
98.554435
98.269115
98.123132
101.59065
101.62706
101.61971
101.57962
101.52156
101.46271
101.40214
101.30756
101.22527
101.20953
101.20043
101.17193
101.15011
101.151
101.24567
101.35136
101.06948
101.03995
101.16209
100.9348
100.37527
100.41375
100.71976
100.11603
99.698714
99.317749
99.114046
98.733781
98.408914
98.184181
98.053301
99.794629
99.815281
99.819847
99.818634
99.821896
99.830332
99.839215
99.846245
99.857314
99.894661
99.970671
100.05346
100.12041
100.13653
100.05764
99.978824
99.928582
99.896817
99.88174
99.852903
99.812466
99.662663
99.71841
99.726268
99.447021
99.137182
98.850749
98.560449
98.308237
98.112455
98.010638
99.027435
99.04882
99.05773
99.059704
99.06086
99.063474
99.067779
99.074214
99.087256
99.106158
99.131039
99.166051
99.209747
99.25352
99.338915
99.369543
99.330324
99.308691
99.355415
99.25931
99.479306
99.32313
99.119893
99.161411
99.073477
98.901294
98.636078
98.445642
98.221629
98.072208
97.98589
98.429257
98.439476
98.445391
98.450052
98.456327
98.465366
98.480118
98.502064
98.530393
98.566436
98.612965
98.6639
98.700969
98.725462
98.72107
98.73491
98.794402
98.874129
98.877324
98.92759
98.838503
98.969332
98.760614
98.740589
98.666136
98.6115
98.467561
98.324554
98.176943
98.054962
97.973108
98.235154
98.241776
98.246384
98.250783
98.256264
98.262977
98.271098
98.282651
98.297225
98.315933
98.341123
98.374012
98.412698
98.446619
98.46789
98.483807
98.499431
98.523582
98.547469
98.564189
98.561048
98.567219
98.540015
98.520652
98.503135
98.462027
98.380128
98.276036
98.161238
98.067003
98.027955
98.164084
98.168204
98.171817
98.176005
98.181741
98.189136
98.198323
98.209601
98.223587
98.241378
98.264766
98.296247
98.335236
98.365409
98.384395
98.393767
98.398681
98.408659
98.437779
98.445421
98.460697
98.45418
98.465413
98.446678
98.448755
98.411325
98.350051
98.269666
98.21949
98.174606
98.129568
98.283512
98.282026
98.280838
98.279828
98.278976
98.278359
98.278159
98.278645
98.280275
98.283832
98.29111
98.307301
98.336799
98.358114
98.367823
98.377569
98.391007
98.402732
98.408023
98.426108
98.429569
98.440862
98.444023
98.434078
98.448279
98.422376
98.389282
98.361415
98.344063
98.310617
98.304998
106410.29
90291.639
71187.943
54758.714
41798.775
31526.66
23489.118
17361.329
12740.17
9262.3544
6668.2236
4758.2851
3368.8716
2368.7295
1655.401
1150.0191
791.44726
531.11901
346.27225
231.45603
173.71532
146.91089
130.69951
120.29653
113.77264
108.76867
105.30229
102.80696
101.11446
100.04127
99.483409
94406.351
71298.838
54509.855
42575.648
33129.67
25519.214
19489.093
14716.397
10976.869
8087.9445
5894.1571
4254.1066
3044.1499
2161.7871
1524.7933
1068.1357
739.64576
497.81437
324.80766
219.64731
168.62404
144.53776
129.35534
119.58631
113.39063
108.54621
105.17017
102.73271
101.07427
100.0207
99.47688
75525.346
59835.171
47891.461
37914.987
29533.328
22701.982
17281.251
13040.667
9750.1992
7220.4354
5297.5787
3852.7146
2778.9372
1989.3197
1414.2033
997.94632
694.99097
469.49644
308.05181
212.75566
166.27526
143.43092
128.71105
119.24576
113.2081
108.43949
105.10426
102.69384
101.04893
100.00427
99.467144
66243.459
53363.792
42406.866
33293.15
25905.604
19999.562
15315.765
11624.328
8739.2356
6509.6843
4806.2579
3518.7888
2555.7259
1842.4938
1319.0533
936.97736
655.90746
444.78649
293.23998
205.62659
163.13621
141.76396
127.70261
118.7049
112.90929
108.26518
104.99568
102.631
101.01344
99.984895
99.455868
59063.299
47069.624
37282.803
29362.947
22966.232
17821.248
13710.17
10452.315
7897.096
5914.6072
4392.492
3235.5993
2364.9396
1715.968
1236.3905
883.54752
621.37791
422.53594
279.7965
199.76954
160.96035
140.63488
127.03547
118.35409
112.71475
108.15144
104.92295
102.58821
100.98642
99.967805
99.44433
52476.684
41863.426
33259.466
26262.033
20590.961
16023.625
12368.939
9468.2629
7187.3867
5410.8927
4040.4004
2993.1772
2200.5565
1606.2134
1164.1782
836.4237
590.70934
402.12737
267.69193
194.56493
158.70498
139.33374
126.23234
117.91853
112.46735
108.00653
104.82967
102.53343
100.95411
99.949114
99.432417
47370.796
37773.993
29993.406
23692.761
18607.353
14516.377
11241.651
8638.9129
6586.7885
4982.4986
3739.3354
2784.7053
2058.3579
1510.6927
1100.9128
794.79767
563.36831
383.5087
256.88758
190.13494
156.89699
138.29986
125.61192
117.5882
112.27723
107.89595
104.75634
102.48993
100.92665
99.931702
99.420386
43254.567
34375.42
27263.089
21548.332
16950.362
13253.607
10294.102
7938.8852
6077.4217
4617.3183
3481.3307
2605.0773
1935.1578
1427.4652
1045.4301
758.0163
538.88368
366.55244
247.32704
186.30734
155.18151
137.24463
124.95714
117.22915
112.06603
107.77314
104.67412
102.44097
100.89661
99.913475
99.408161
39724.353
31517.807
24988.602
19761.947
15564.513
12194.069
9496.3221
7347.1608
5644.9367
4305.762
3260.1055
2450.2674
1828.4365
1354.9937
996.88028
725.53509
517.0966
351.18096
238.95109
183.03891
153.72102
136.34573
124.41142
116.933
111.88819
107.67113
104.6037
102.39865
100.86945
99.895996
99.395808
36832.191
29156.415
23097.591
18269.445
14402.814
11303.864
8824.1324
6846.8419
5277.7745
4040.0878
3070.581
2317.0128
1736.1453
1292.0251
954.56452
697.00947
497.57766
337.2938
231.68643
180.23428
152.38327
135.48367
123.87519
116.6346
111.7049
107.56637
104.53042
102.35432
100.84119
99.878151
99.383307
34363.647
27164.446
21508.268
17016.39
13427.937
10555.943
8258.1054
6424.2626
4966.5417
3813.9777
2908.5961
2202.6288
1656.5877
1237.5191
917.80766
672.06326
480.11171
324.81319
225.43803
177.83352
151.2185
134.73093
123.41253
116.3779
111.54305
107.47535
104.46485
102.31421
100.81474
99.860785
99.370674
32280.88
25487.762
20173.261
15965.145
12610.855
9928.527
7782.5429
6068.3211
4703.5766
3622.2526
2770.7217
2104.8881
1588.3427
1190.6546
886.04323
650.39029
464.57179
313.66974
220.11325
175.77638
150.1737
134.03669
122.9772
116.1312
111.38365
107.38615
104.39959
102.27387
100.78798
99.843312
99.35791
30503.164
24070.098
19050.676
15084.458
11927.223
9403.8949
7384.6456
5770.0045
4482.6343
3460.6658
2654.1266
2021.9383
1530.2561
1150.6108
858.74944
631.73569
450.80073
303.81061
215.61937
174.01737
149.26354
133.43002
122.59725
115.91533
111.24007
107.30681
104.34001
102.2365
100.76245
99.826187
99.345023
28987.042
22872.065
18108.169
14348.835
11358.148
8967.9744
7054.0469
5521.9802
4298.6581
3325.8148
2556.537
1952.3611
1481.326
1116.6793
835.50637
615.79899
438.66816
295.1923
211.86808
172.51734
148.46561
132.88844
122.25094
115.7149
111.10326
107.23124
104.28244
102.19983
100.73705
99.809098
99.332017
27699.673
21865.26
17322.909
13740.023
10889.656
8610.1739
6783.0627
5318.7591
4147.7865
3215.1988
2476.2826
1894.9041
1440.7326
1088.4261
816.07419
602.26427
428.03812
287.765
208.77892
171.24707
147.78346
132.42293
121.95012
115.53965
110.9798
107.16321
104.22959
102.16547
100.7126
99.792319
99.318874
26631.661
21039.062
16684.556
13248.544
10513.215
8323.766
6566.6584
5156.7185
4027.2982
3126.5108
2411.7633
1848.4598
1407.833
1065.4555
800.2335
591.05855
418.8194
281.49581
206.26705
170.18367
147.207
132.02299
121.68451
115.38207
110.86549
107.09959
104.17965
102.13229
100.68859
99.775707
99.305556
25786.14
20391.405
16187.017
12867.329
10222.338
8102.9561
6399.9876
5031.6644
3934.1743
3057.5774
2361.4383
1812.2099
1382.0891
1047.4402
787.78889
582.21111
411.0262
276.35048
204.21196
169.31019
146.73596
131.69205
121.4588
115.24617
110.76369
107.04206
104.13395
102.10108
100.66542
99.759367
99.292067
25004.784
19830.854
15778.437
12566.197
9998.8754
7936.5134
6275.8707
4938.9599
3865.4468
3006.9096
2324.4034
1785.4999
1363.087
1034.1208
778.57109
575.62054
404.70262
272.2068
202.60441
168.61505
146.36463
131.42469
121.2681
115.12813
110.67251
106.98904
104.0916
102.07128
100.64284
99.743231
99.278416
24199.45
19285.404
15406.474
12310.832
9821.8801
7812.381
6187.8146
4875.7193
3819.4738
2973.3527
2299.9652
1767.8553
1350.521
1025.3053
772.45341
571.2179
399.88285
268.99523
201.40076
168.0903
146.09093
131.2215
121.11436
115.02956
110.59352
106.94139
104.05324
102.0433
100.62111
99.727354
99.264612
23538.592
18843.409
15112.728
12117.903
9696.3396
7730.8736
6134.6277
4840.2852
3795.1475
2956.1829
2287.6305
1758.9661
1344.1901
1020.8626
769.35389
568.93774
396.59901
266.65417
200.58171
167.73281
145.91206
131.08027
120.99607
114.94889
110.52597
106.89854
104.01845
102.01689
100.60012
99.711696
99.250664
22952.808
18482.163
14893.108
11988.177
9623.0641
7691.9529
6115.7774
4832.0727
3791.9379
2955.0339
2287.1627
1758.6766
1343.9768
1020.7313
769.2397
568.72812
394.89153
265.13964
200.13184
167.54578
145.82929
131.00243
120.91525
114.88732
110.47071
106.86113
103.98754
101.99223
100.58
99.696258
99.236588
22429.365
18186.929
14738.936
11918.027
9601.3236
7695.0625
6128.8455
4847.8409
3806.7938
2968.0738
2297.8609
1766.8193
1349.8538
1024.9058
772.12515
570.60141
394.82386
264.44643
200.05631
167.538
145.83821
130.98833
120.87209
114.84437
110.42717
106.82893
103.96012
101.9691
100.56063
99.680968
99.222388
21940.873
17941.011
14640.775
11902.922
9625.4994
7734.4824
6171.8036
4889.0873
3843.5479
2998.0557
2320.8693
1783.7459
1361.8956
1033.421
778.06273
574.66147
396.23581
264.54664
200.23683
167.63671
145.91666
131.01458
120.86535
114.81916
110.39438
106.80165
103.93586
101.94733
100.54194
99.665775
99.208051
21437.526
17714.523
14579.514
11928.562
9688.8437
7809.3695
6244.2234
4952.1132
3895.0984
3038.3474
2351.1001
1805.6509
1377.325
1044.1592
785.40115
579.62063
398.84327
265.23079
200.72527
167.88313
146.06487
131.08592
120.87748
114.80758
110.36957
106.77815
103.91402
101.92665
100.52386
99.650679
99.193584
103726.66
88149.988
70070.465
54429.145
42035.515
32219.97
24319.581
18109.148
13328.141
9707.7154
6994.1175
4989.3515
3528.0828
2475.6202
1725.4685
1194.9272
819.59688
547.99811
355.89145
235.66057
175.21883
147.65789
131.17087
120.545
113.90067
108.8355
105.34716
102.83471
101.13322
100.05391
99.486351
98384.024
83853.292
67506.436
53226.691
41519.499
31976.683
24249.762
18140.063
13412.689
9804.4443
7082.782
5061.9267
3583.3794
2515.6104
1753.1943
1213.4216
831.61469
555.57834
360.78979
238.05491
176.12327
148.13742
131.49531
120.71191
113.97906
108.88326
105.37914
102.85458
101.14653
100.0624
99.489387
93078.761
79887.827
64771.897
51642.194
40669.35
31579.363
24126.008
18157.92
13491.638
9900.0171
7172.8173
5136.8944
3641.1698
2557.7612
1782.5995
1233.1226
844.42164
563.62316
366.00489
240.65835
177.11171
148.63303
131.81477
120.88072
114.06654
108.92075
105.40601
102.87181
101.15937
100.07195
99.49439
88102.474
76184.003
62151.552
50049.647
39786.77
31150.626
23976.652
18157.408
13562.747
9993.0751
7263.3916
5213.8085
3701.2689
2602.0316
1813.7082
1254.0777
858.04199
572.16618
371.52978
243.47304
178.19015
149.19851
132.20767
121.07464
114.14837
108.98119
105.44502
102.89583
101.17496
100.08138
99.50055
83334.723
72751.111
59661.965
48462.727
38872.593
30687.44
23799.597
18144.578
13624.339
10082.146
7353.5734
5292.169
3763.4579
2648.362
1846.5376
1276.3324
872.48587
581.27445
377.31212
246.56553
179.41664
149.75991
132.54441
121.26262
114.2554
109.02242
105.475
102.9152
101.18956
100.09172
99.504139
78626.518
69544.925
57306.138
46893.132
37931.263
30189.367
23592.44
18110.313
13673.694
10165.346
7442.1364
5371.2793
3827.4014
2696.6286
1881.071
1299.9139
887.83576
590.99927
383.15179
249.70337
180.68583
150.42883
133.01416
121.48957
114.34717
109.07653
105.51147
102.93808
101.20581
100.10264
99.506596
73979.286
66487.147
55063.458
45334.651
36955.256
29647.904
23347.421
18046.36
13706.706
10240.399
7527.8467
5450.5451
3892.8762
2746.801
1917.3655
1324.9165
904.30306
601.55387
389.51174
253.21392
182.12116
151.11489
133.46181
121.71744
114.45121
109.13212
105.54912
102.96192
101.22277
100.1141
99.510253
69411.491
63511.928
52919.895
43795.001
35952.325
29067.634
23066.943
17956.279
13721.729
10307.008
7610.5596
5529.9134
3959.9196
2798.9798
1955.5581
1351.4793
921.85393
612.84109
396.57085
256.98806
183.69524
151.85433
133.93909
121.95933
114.56018
109.19067
105.58835
102.98635
101.24048
100.1261
99.518641
64943.33
60582.472
50849.727
42273.001
34921.548
28444.113
22745.087
17834.236
13716.132
10361.713
7687.8193
5607.8507
4027.6759
2852.7326
1995.4446
1379.4906
940.51264
624.90921
404.15536
261.04184
185.42321
152.64459
134.4433
122.21499
114.67156
109.24947
105.62817
103.01172
101.25883
100.13853
99.530344
60694.932
57613.112
48827.423
40755.224
33859.01
27774.473
22378.516
17677.598
13691.913
10402.482
7757.8315
5683.2155
4095.517
2907.7724
2036.9279
1408.9429
960.3094
637.89346
412.29153
265.40617
187.32051
153.50175
134.97966
122.48397
114.78709
109.31226
105.67013
103.0374
101.27796
100.15147
99.540761
56641.841
54618.871
46851.676
39256.585
32770.482
27058.275
21964.077
17481.479
13636.44
10425.235
7818.3849
5754.6796
4162.6896
2963.7272
2079.866
1439.8115
981.25872
651.78705
421.07626
270.12577
189.4049
154.41426
135.54287
122.76973
114.90515
109.3735
105.71144
103.06402
101.29759
100.16483
99.549514
52858.024
51587.122
44803.108
37723.513
31638.999
26289.25
21497.246
17241.017
13546.635
10423.692
7866.8669
5820.7077
4228.3129
3020.145
2124.0682
1472.0489
1003.3717
666.51209
430.20131
275.18146
191.69382
155.40989
136.13602
123.06214
115.02315
109.43965
105.75593
103.09042
101.31797
100.17879
99.558635
49435.959
48570.831
42659.391
36154.376
30464.447
25465.276
20974.557
16952.596
13422.176
10405.979
7901.901
5879.7147
4291.3838
3076.4856
2169.2898
1505.5801
1026.6539
682.11714
439.6538
280.63073
194.19138
156.46683
136.75937
123.37672
115.14765
109.50252
105.79745
103.11776
101.33865
100.19307
99.569012
46294.23
45506.996
40399.981
34486.909
29217.333
24575.603
20390.939
16612.431
13258.857
10360.183
7919.5516
5929.7962
4350.7831
3132.1282
2215.23
1540.2995
1051.0992
698.62972
449.71158
286.4996
196.92195
157.62197
137.3972
123.68293
115.26234
109.56931
105.84364
103.14404
101.35998
100.20792
99.579877
43416.637
42458.738
38053.933
32736.946
27903.632
23620.878
19744.909
16217.848
13052.353
10280.124
7916.3716
5969.0014
4405.2756
3186.3809
2261.5546
1576.0732
1076.6858
716.06509
460.41725
292.85809
199.88356
158.8508
138.07566
124.01408
115.39342
109.6336
105.88366
103.1715
101.38155
100.22283
99.591
40653.376
39383.667
35517.044
30842.731
26487.956
22587.317
19032.036
15766.768
12801.088
10169.051
7898.0975
5996.5447
4453.751
3238.5001
2307.8674
1612.7382
1103.3776
734.43004
471.90307
299.56434
203.12459
160.20221
138.73979
124.32532
115.50212
109.69556
105.92939
103.1966
101.40344
100.23824
99.602241
37874.299
36274.368
32856.399
28822.609
24980.594
21481.832
18256.631
15261.294
12505.398
10024.947
7854.6686
6009.6229
4494.9904
3287.7323
2353.7404
1650.1102
1131.1386
753.74992
484.29824
307.15674
206.58834
161.59866
139.42429
124.63842
115.63402
109.76156
105.96611
103.22379
101.42598
100.25331
99.613491
34965.878
33139.841
30153.696
26728.785
23409.799
20320.664
17429.209
14707.848
12168.28
9847.8263
7785.7285
6006.9214
4527.928
3333.3621
2398.7478
1687.9924
1159.9392
774.11781
497.78069
315.33341
210.41451
163.22921
140.12144
124.96391
115.74194
109.81179
106.00721
103.24651
101.44792
100.26882
99.62467
31887.474
30055.665
27497.359
24638.953
21819.81
19132.075
16568.531
14118.358
11796.568
9641.3289
7695.6507
5993.6165
4552.6523
3374.8757
2442.489
1726.1686
1189.6861
795.60597
512.35424
323.54757
214.4072
164.71706
140.66597
125.20988
115.85258
109.87734
106.03967
103.27369
101.47193
100.28347
99.635668
28876.603
27177.467
25022.154
22662.165
20283.447
17961.228
15703.643
13511.263
11401.329
9411.4057
7586.0131
5963.603
4568.5102
3411.8743
2484.6093
1764.3976
1220.2337
818.05627
527.79667
332.51127
218.76638
166.48178
141.40068
125.55689
115.96502
109.91438
106.0702
103.2929
101.49304
100.29847
99.646347
26123.252
24630.61
22834.391
20872.432
18858.249
16850.172
14864.345
12907.271
10996.162
9166.1342
7460.8176
5920.5348
4575.7717
3444.2028
2524.8429
1802.4606
1251.4556
841.43306
544.13278
342.31565
223.70892
168.36556
141.80311
125.74514
116.02859
109.97088
106.10016
103.32095
101.51893
100.31193
99.656562
23740.792
22472.698
20969.477
19314.572
17587.484
15836.512
14080.371
12328.207
10596.151
8915.1317
7325.5673
5867.4952
4574.6805
3471.8349
2563.0196
1840.1745
1283.2237
865.65849
561.23639
352.55398
228.53445
169.41688
142.21108
125.99867
116.12651
110.0008
106.11576
103.33645
101.5377
100.32568
99.666191
21772.358
20709.995
19437.821
18014.448
16503.056
14949.195
13375.589
11793.398
10215.903
8668.5115
7186.6791
5808.4997
4569.7112
3495.5832
2599.1378
1877.3806
1315.4108
890.65745
579.0541
363.03013
233.61279
171.50947
142.871
126.24749
116.17768
110.04345
106.14277
103.36567
101.56411
100.33722
99.675021
20212.424
19320.015
18229.009
16979.805
15624.987
14212.35
12772.874
11321.681
9869.6688
8436.3341
7050.6552
5746.8128
4559.3961
3515.8585
2633.2814
1913.9745
1347.8956
916.35317
597.62196
374.18341
239.07645
173.70887
143.04584
126.30198
116.21556
110.07845
106.15256
103.38023
101.57886
100.34898
99.682896
18978.137
18233.155
17295.225
16188.122
14953.688
13641.256
12291.966
10930.582
9571.0723
8228.3085
6923.8563
5686.1735
4546.7287
3533.4119
2665.5965
1949.8613
1380.5353
942.63671
616.84705
386.18365
244.33511
174.37202
143.13352
126.5204
116.30999
110.10046
106.17315
103.40666
101.60186
100.35823
99.689521
17975.838
17362.019
16561.828
15584.063
14456.564
13224.572
11936.734
10631.286
9331.7508
8053.3425
6812.2038
5630.1454
4533.6936
3548.9955
2696.2115
1984.9314
1413.1741
969.37026
636.62294
398.72246
249.60858
175.49561
143.59216
126.68137
116.33708
110.16591
106.18496
103.42819
101.61215
100.3676
99.694712
17109.812
16616.99
15945.5
15092.201
14071.161
12918.277
11683.456
10416.152
9152.9255
7915.661
6719.5806
5581.242
4521.4933
3562.9936
2725.1243
2018.993
1445.5769
996.38258
656.80848
411.59779
254.99062
176.98826
143.66755
126.70203
116.44668
110.20281
106.19937
103.44281
101.62881
100.37463
99.698035
16265.891
15890.231
15346.082
14620.071
13713.805
12652.091
11480.52
10253.69
9019.1508
7809.4705
6644.6318
5539.6002
4510.5159
3575.6646
2752.2011
2051.8285
1477.5819
1023.5607
677.37856
424.8836
260.69453
178.08156
143.70186
126.99109
116.57431
110.28354
106.24163
103.47733
101.63704
100.38043
99.699278
15351.292
15085.412
14667.026
14073.478
13295.312
12345.403
11260.37
10092.372
8895.7086
7714.2694
6576.4117
5499.4849
4497.3624
3584.6863
2776.0554
2082.7166
1508.8607
1050.8024
698.38792
438.71618
266.57819
179.73056
143.99645
127.20135
116.69872
110.40477
106.26416
103.49428
101.64589
100.38534
99.697996
14339.818
14156.716
13845.755
13379.339
12738.033
11920.159
10948.28
9867.5171
8733.8541
7597.9302
6495.9146
5450.3548
4475.9577
3585.1983
2795.0573
2110.8612
1538.9891
1078.0279
720.00277
453.49735
273.352
181.80158
144.67083
127.52403
117.0904
110.49562
106.31692
103.53835
101.65369
100.38734
99.693818
13258.907
13127.829
12891.75
12524.089
12003.551
11320.623
10484.197
9524.4468
8488.2204
7426.3808
6380.6816
5379.4513
4441.0683
3579.2526
2807.8357
2135.0396
1567.3226
1105.0179
742.37506
469.66097
281.86702
184.53033
145.80728
128.33746
117.33519
110.73429
106.4234
103.56439
101.65824
100.38838
99.686461
12126.25
12023.541
11838.419
11546.581
11127.104
10566.766
9866.1481
9043.3472
8132.1823
7174.2575
6210.4985
5272.6522
4383.2154
3558.9925
2808.9514
2153.171
1592.9599
1131.4419
765.46585
487.37912
292.39423
188.55854
147.4791
129.035
117.83826
110.981
106.48084
103.62378
101.6619
100.38661
99.675166
11001.709
10909.606
10754.921
10517.443
10178.917
9725.238
9151.1906
8464.4541
7686.6275
6848.7141
5984.9565
5126.5487
4298.147
3518.792
2803.1827
2165.7423
1615.4207
1156.8118
788.95095
506.38964
304.73564
193.64145
149.5123
129.96103
118.41416
111.20853
106.62991
103.66791
101.66928
100.38226
99.660144
9960.2468
9869.857
9732.3429
9532.0268
9254.1561
8885.7404
8418.7966
7853.847
7201.4603
6481.9514
5722.3969
4950.2467
4190.0432
3462.4888
2785.26
2170.3021
1633.728
1180.4628
812.27988
526.12939
318.2684
199.35362
151.52064
131.09128
119.07209
111.63777
106.82497
103.72931
101.68558
100.37531
99.640094
9073.2625
8981.2739
8852.4711
8675.4464
8438.8347
8131.7054
7745.6133
7276.7591
6728.6012
6113.5863
5450.4081
4761.3162
4069.0399
3394.4484
2755.9455
2169.0684
1648.0882
1202.0213
834.91175
545.96554
332.3519
204.71861
153.12754
131.92456
119.80157
111.96647
106.92385
103.78395
101.69451
100.36179
99.615586
8386.9703
8293.0983
8168.435
8005.0155
7794.0734
7526.5738
7194.6007
6793.4058
6323.0065
5789.2963
5204.4659
4585.7513
3953.0233
3326.4081
2724.7147
2164.6695
1659.8032
1221.8027
856.62243
565.48788
346.61018
210.23925
154.16351
132.29826
120.35871
112.30748
107.16583
103.83397
101.71702
100.35073
99.585028
7899.5613
7808.683
7690.0208
7537.7263
7344.4676
7102.6929
6805.6145
6448.1363
6028.3188
5549.0059
5018.5479
4450.6201
3862.5429
3273.1272
2700.8875
2163.1974
1671.6113
1240.9203
877.69381
584.58555
360.78204
215.79395
154.71709
132.37908
120.64688
112.74367
107.37352
103.92653
101.7272
100.32623
99.548563
7520.66
7440.7801
7335.9219
7200.8407
7028.5817
6811.8203
6543.795
6219.2716
5835.4829
5393.6309
4899.9912
4366.1675
3808.0197
3243.6917
2691.4059
2166.4205
1685.9833
1260.9498
898.94997
603.67661
375.08583
221.65063
155.11719
132.35451
120.72535
112.98561
107.53711
104.02441
101.72498
100.30394
99.505074
7144.915
7080.9579
6995.4834
6883.5291
6738.6661
6553.627
6320.7746
6033.2373
5686.7126
5280.8185
4820.0306
4314.3742
3778.9815
3232.2987
2692.9615
2178.5391
1705.1676
1283.175
921.24589
623.45565
390.30709
228.80249
155.80001
132.18299
120.72118
113.04536
107.64781
104.04974
101.71487
100.26929
99.454027
6725.7759
6678.6304
6613.3491
6524.8914
6407.3096
6253.9235
6057.5617
5811.1523
5508.6609
5146.7034
4726.6678
4255.9092
3747.6917
3219.8224
2694.3837
2193.4203
1726.2884
1306.6703
944.28649
644.01376
406.78095
237.85416
157.15343
131.94363
120.65698