/*--------------------------------*- C++ -*----------------------------------*\
| =========                 |                                                 |
| \\      /  F ield         | OpenFOAM: The Open Source CFD Toolbox           |
|  \\    /   O peration     | Version:  2406                                  |
|   \\  /    A nd           | Website:  www.openfoam.com                      |
|    \\/     M anipulation  |                                                 |
\*---------------------------------------------------------------------------*/
FoamFile
{
    version     2.0;
    format      ascii;
    arch        "LSB;label=32;scalar=64";
    class       volScalarField;
    location    "0.005";
    object      Ma;
}
// * * * * * * * * * * * * * * * * * * * * * * * * * * * * * * * * * * * * * //

dimensions      [0 0 0 0 0 0 0];

internalField   nonuniform List<scalar> 
92813
(
0.14909985
0.14979239
0.15053852
0.15127021
0.15191886
0.15250796
0.15305737
0.15358245
0.15409666
0.15461111
0.15513511
0.15567595
0.15623947
0.15682928
0.15744158
0.15807735
0.15873264
0.15939534
0.1600521
0.16069839
0.16133095
0.16194514
0.16254573
0.16313706
0.16371986
0.16429342
0.16485627
0.16540639
0.16594132
0.16645816
0.16695362
0.16742399
0.16786511
0.16827233
0.16864054
0.16896399
0.16923601
0.16945201
0.16960531
0.1696726
0.16965354
0.16955053
0.16934093
0.16901313
0.168557
0.16796517
0.16723567
0.16637843
0.16542505
0.16444016
0.16351929
0.16275107
0.16216518
0.16172891
0.16138891
0.16110309
0.1608471
0.16060838
0.160381
0.16016276
0.15995241
0.15974838
0.1595508
0.15935963
0.15917369
0.15899351
0.15881906
0.1586492
0.15848432
0.15832451
0.15816864
0.15801717
0.15786974
0.15772543
0.15758466
0.15744777
0.15731401
0.15718265
0.15705464
0.15692999
0.15680811
0.15668939
0.15657386
0.15646073
0.15635069
0.15624348
0.15613885
0.1560367
0.15593732
0.15584039
0.15574553
0.15565355
0.15556405
0.15547686
0.15539234
0.15531033
0.15523081
0.15515387
0.15507939
0.15500729
0.15493758
0.15487025
0.15480528
0.15474273
0.15468262
0.15462496
0.15456976
0.154517
0.15446664
0.15441864
0.15437292
0.15432945
0.15428824
0.15424929
0.15421262
0.15417825
0.1541462
0.15411652
0.1540892
0.15406431
0.1540418
0.15402182
0.15400425
0.15398951
0.15397706
0.15396932
0.15396317
0.14647767
0.14737548
0.14827431
0.14912134
0.14990798
0.15064566
0.15134682
0.15202128
0.152678
0.15332538
0.15397103
0.15462161
0.15528229
0.1559558
0.15664118
0.15733657
0.15803764
0.15873715
0.15942795
0.1601065
0.16077082
0.16141939
0.1620537
0.16267545
0.16328506
0.16388191
0.1644647
0.16503156
0.16558017
0.16610774
0.16661107
0.16708649
0.16752988
0.1679366
0.16830146
0.16861872
0.16888188
0.16908518
0.1692203
0.16926847
0.16923076
0.16910013
0.16885864
0.1684965
0.16800345
0.16737384
0.1666093
0.16572636
0.1647673
0.163809
0.16295027
0.16226343
0.16175254
0.16137143
0.16106791
0.16080645
0.16056834
0.16034412
0.16012943
0.15992291
0.15972355
0.15952973
0.15934187
0.15915996
0.15898267
0.15881079
0.15864426
0.1584818
0.15832405
0.15817104
0.15802154
0.15787624
0.15773465
0.15759589
0.15746044
0.15732865
0.15719975
0.15707293
0.15694926
0.15682882
0.15671096
0.15659604
0.15648413
0.15637445
0.15626772
0.15616366
0.15606202
0.1559627
0.15586604
0.15577173
0.15567929
0.15558962
0.15550236
0.15541727
0.15533473
0.15525461
0.15517687
0.15510161
0.15502875
0.15495817
0.15488991
0.15482395
0.15476028
0.15469893
0.15463994
0.15458332
0.15452906
0.15447717
0.15442759
0.15438028
0.15433518
0.15429225
0.15425152
0.15421299
0.15417668
0.15414262
0.15411082
0.15408136
0.1540542
0.15402945
0.15400704
0.15398712
0.15396961
0.1539549
0.15394246
0.15393475
0.15392853
0.14353608
0.14456201
0.14563627
0.14665015
0.14759976
0.14849719
0.14935354
0.15017712
0.15097546
0.15175567
0.1525244
0.15328751
0.15404965
0.15481357
0.15557953
0.15634609
0.15710994
0.15786623
0.15861004
0.15933839
0.16004958
0.16074272
0.16141831
0.16207731
0.1627201
0.16334629
0.1639548
0.164544
0.16511173
0.16565536
0.16617181
0.16665748
0.16710829
0.16751963
0.16788628
0.16820245
0.16846164
0.16865728
0.16877967
0.16881519
0.16876344
0.16861029
0.16834309
0.16795268
0.16742943
0.16676983
0.16597972
0.16508314
0.16413342
0.16321706
0.16242889
0.16181914
0.16137089
0.16103274
0.1607575
0.16051594
0.16029359
0.16008293
0.15988047
0.15968544
0.15949693
0.1593132
0.15913493
0.15896215
0.15879338
0.15862965
0.15847091
0.1583157
0.15816494
0.15801861
0.15787535
0.15773608
0.15760025
0.15746694
0.15733669
0.15720988
0.15708578
0.15696342
0.15684396
0.15672764
0.1566137
0.15650246
0.15639406
0.15628772
0.15618419
0.15608316
0.15598441
0.15588783
0.1557938
0.155702
0.15561189
0.15552444
0.15543933
0.15535623
0.15527558
0.15519725
0.1551212
0.15504755
0.15497622
0.1549071
0.15484022
0.15477557
0.15471314
0.15465296
0.15459506
0.15453945
0.15448612
0.15443509
0.1543863
0.15433972
0.15429527
0.15425295
0.15421276
0.15417472
0.15413886
0.15410521
0.15407378
0.15404464
0.15401778
0.15399328
0.15397109
0.15395136
0.153934
0.15391942
0.15390707
0.15389944
0.1538932
0.14081351
0.14195404
0.14316748
0.14432634
0.14542078
0.14646048
0.14745508
0.1484117
0.14933673
0.15023634
0.15111631
0.15198175
0.15283679
0.1536841
0.15452458
0.15535766
0.15618127
0.1569922
0.15778709
0.15856355
0.15932004
0.16005571
0.16077071
0.16146557
0.16214052
0.16279522
0.16342873
0.16403956
0.16462572
0.16518469
0.16571348
0.16620857
0.1666659
0.16708086
0.16744821
0.16776207
0.16801586
0.16820255
0.16831095
0.16833239
0.16826472
0.16808728
0.16779308
0.16737311
0.16681915
0.16613044
0.16531816
0.16441538
0.16348705
0.16262596
0.1619157
0.16138188
0.16099127
0.16069183
0.1604425
0.16021981
0.16001291
0.15981577
0.15962561
0.1594422
0.15926469
0.15909117
0.15892262
0.15875913
0.158599
0.15844358
0.15829277
0.15814496
0.15800134
0.15786184
0.15772494
0.15759185
0.15746192
0.15733418
0.15720928
0.15708757
0.15696839
0.15685063
0.1567355
0.15662344
0.15651356
0.1564061
0.15630134
0.15619847
0.15609825
0.15600036
0.15590461
0.15581087
0.15571957
0.15563041
0.1555427
0.15545757
0.1553747
0.15529369
0.15521501
0.15513856
0.15506428
0.15499231
0.15492257
0.15485498
0.15478955
0.15472627
0.15466514
0.15460617
0.15454941
0.15449485
0.1544425
0.15439236
0.15434438
0.15429854
0.15425477
0.15421306
0.15417342
0.15413588
0.15410047
0.15406722
0.15403616
0.15400734
0.15398076
0.1539565
0.15393452
0.15391496
0.15389775
0.15388329
0.15387101
0.15386345
0.1538572
0.13828634
0.13952852
0.14085363
0.14213392
0.14335422
0.14451986
0.14563793
0.14671398
0.14775325
0.14876094
0.14974203
0.15070102
0.15164159
0.15256635
0.15347659
0.15437241
0.15525273
0.15611564
0.15695895
0.15778092
0.15858032
0.15935639
0.16010902
0.16083838
0.16154448
0.16222692
0.1628848
0.16351674
0.16412082
0.16469462
0.1652352
0.16573908
0.16620222
0.16661997
0.16698704
0.16729743
0.16754445
0.16772087
0.16781397
0.16782013
0.16773383
0.16752998
0.16720722
0.16675634
0.16617125
0.16545491
0.16462526
0.16372592
0.16283296
0.16204001
0.16141254
0.16095169
0.16061352
0.16034895
0.16012347
0.1599188
0.15972715
0.15954357
0.15936583
0.15919421
0.1590279
0.15886476
0.15870611
0.15855208
0.15840076
0.15825381
0.1581111
0.15797081
0.15783449
0.15770196
0.15757155
0.15744477
0.15732085
0.15719881
0.15707937
0.15696286
0.1568487
0.15673564
0.15662493
0.1565172
0.15641147
0.15630788
0.15620681
0.15610748
0.15601063
0.15591595
0.15582325
0.15573241
0.15564388
0.15555739
0.15547215
0.15538936
0.15530877
0.15522988
0.1551532
0.15507866
0.15500619
0.15493591
0.15486781
0.15480176
0.15473779
0.15467591
0.15461609
0.15455836
0.15450275
0.15444926
0.1543979
0.15434867
0.15430152
0.15425644
0.15421335
0.15417227
0.15413321
0.15409618
0.15406124
0.15402841
0.15399773
0.15396925
0.15394297
0.15391897
0.15389721
0.15387784
0.15386078
0.15384645
0.15383427
0.15382677
0.15382053
0.13593247
0.13727256
0.1386932
0.14007592
0.14140365
0.14267788
0.14390327
0.14508387
0.14622383
0.14732746
0.148399
0.14944232
0.15046075
0.15145677
0.1524319
0.15338669
0.15432081
0.15523323
0.15612266
0.1569879
0.15782804
0.15864244
0.15943083
0.16019311
0.16092908
0.16163824
0.16231969
0.16297203
0.16359342
0.16418147
0.16473326
0.16524532
0.1657136
0.16613338
0.16649928
0.16680516
0.16704412
0.1672088
0.16728645
0.16727628
0.16716727
0.16693582
0.1665834
0.16610079
0.16548502
0.16474393
0.16390383
0.16302003
0.16217748
0.16146355
0.16092033
0.16052762
0.16023654
0.16000339
0.15980008
0.15961281
0.15943631
0.15926636
0.15910116
0.15894153
0.1587866
0.15863399
0.15848541
0.15834101
0.15819863
0.15806032
0.15792584
0.15779321
0.15766433
0.15753891
0.15741508
0.15729474
0.15717695
0.1570607
0.15694682
0.15683561
0.15672657
0.15661831
0.15651209
0.1564088
0.15630731
0.15620766
0.15611035
0.15601463
0.15592124
0.15582981
0.15574023
0.15565236
0.15556666
0.1554829
0.15540018
0.15531978
0.15524154
0.15516482
0.15509018
0.15501759
0.15494696
0.15487842
0.15481198
0.15474751
0.15468505
0.15462459
0.15456612
0.15450965
0.15445522
0.15440282
0.15435247
0.15430416
0.15425786
0.15421355
0.15417117
0.15413072
0.15409224
0.15405574
0.15402127
0.15398888
0.15395858
0.15393045
0.15390447
0.15388074
0.1538592
0.15384002
0.15382312
0.15380891
0.15379682
0.15378939
0.15378316
0.13374349
0.13518883
0.13669479
0.13816343
0.13958062
0.14094578
0.14226175
0.14353141
0.14475797
0.1459449
0.14709573
0.14821376
0.14930189
0.15036242
0.15139693
0.15240629
0.15339062
0.15434953
0.15528232
0.15618825
0.15706665
0.15791699
0.1587389
0.15953212
0.16029625
0.16103069
0.16173445
0.16240612
0.16304384
0.16364521
0.16420732
0.16472667
0.16519913
0.16561993
0.16598355
0.16628369
0.16651326
0.16666444
0.16672634
0.1666978
0.16656249
0.16630264
0.16591942
0.16540482
0.16475986
0.16399871
0.16315769
0.16230404
0.16152715
0.16090008
0.16043928
0.16010858
0.15985934
0.15965461
0.1594721
0.15930174
0.15914037
0.15898415
0.15883161
0.15868416
0.1585408
0.15839886
0.15826052
0.15812592
0.15799262
0.15786309
0.15773701
0.15761214
0.15749086
0.15737267
0.15725555
0.15714176
0.15703021
0.15691986
0.15681166
0.15670584
0.156602
0.15649864
0.15639701
0.15629825
0.15620108
0.15610544
0.15601197
0.15591994
0.15583007
0.15574196
0.15565556
0.15557072
0.15548792
0.15540694
0.15532678
0.15524883
0.15517297
0.15509847
0.15502591
0.15495532
0.15488657
0.15481981
0.15475506
0.1546922
0.15463127
0.15457227
0.15451517
0.15445999
0.15440676
0.15435547
0.15430615
0.15425878
0.15421334
0.15416981
0.15412815
0.15408835
0.15405047
0.15401451
0.15398053
0.15394858
0.15391868
0.1538909
0.15386523
0.15384177
0.15382047
0.15380148
0.15378474
0.15377066
0.15375867
0.1537513
0.15374509
0.13175368
0.13329067
0.13486727
0.13640473
0.13789332
0.13933174
0.14072159
0.14206485
0.14336391
0.14462145
0.1458403
0.14702317
0.14817252
0.14929039
0.1503783
0.15143721
0.15246756
0.15346933
0.15444222
0.1553858
0.15629961
0.15718317
0.15803609
0.15885794
0.15964819
0.16040609
0.16113056
0.16182012
0.16247285
0.16308632
0.16365755
0.16418298
0.16465841
0.16507893
0.16543891
0.1657319
0.1659506
0.16608639
0.16613081
0.16608166
0.16591797
0.1656284
0.16521325
0.16466703
0.1639957
0.1632214
0.16239191
0.16158511
0.16088786
0.16035157
0.15996849
0.15969312
0.15948092
0.1593021
0.15913933
0.15898557
0.15883935
0.15869696
0.15855723
0.15842213
0.15829051
0.15815939
0.15803145
0.15790681
0.15778273
0.15766214
0.15754458
0.15742762
0.15731407
0.15720323
0.15709292
0.15698581
0.15688061
0.15677627
0.15667384
0.1565735
0.15647496
0.15637662
0.15627965
0.15618551
0.15609277
0.1560012
0.15591164
0.15582338
0.15573709
0.15565238
0.15556921
0.15548748
0.15540762
0.15532947
0.15525195
0.15517649
0.15510306
0.15503083
0.1549604
0.15489183
0.154825
0.15476005
0.15469703
0.15463583
0.15457646
0.15451894
0.15446324
0.15440938
0.15435737
0.15430722
0.15425894
0.15421253
0.15416797
0.15412524
0.1540843
0.15404517
0.15400789
0.15397249
0.153939
0.1539075
0.15387801
0.15385059
0.15382525
0.15380206
0.153781
0.15376221
0.15374564
0.15373169
0.15371981
0.15371248
0.1537063
0.12997275
0.1315818
0.13321242
0.13480183
0.13634461
0.13783946
0.13928726
0.14068928
0.14204719
0.14336294
0.14463868
0.14587654
0.14707849
0.14824625
0.14938117
0.15048419
0.15155587
0.15259639
0.15360567
0.15458351
0.15552955
0.15644337
0.15732451
0.15817243
0.15898646
0.15976572
0.16050899
0.1612147
0.16188083
0.16250487
0.16308374
0.16361379
0.16409068
0.16450938
0.16486409
0.16514824
0.16535437
0.16547246
0.16549736
0.1654258
0.16523152
0.16491076
0.164463
0.16388652
0.16319348
0.16241582
0.16161347
0.16087121
0.16026456
0.15981861
0.1595065
0.15927977
0.15910044
0.15894552
0.15880169
0.1586643
0.15853331
0.15840485
0.15827805
0.1581555
0.15803577
0.15791559
0.15779822
0.15768369
0.15756897
0.15745746
0.15734856
0.15723962
0.15713393
0.15703058
0.15692719
0.15682687
0.15672813
0.1566299
0.15653336
0.15643858
0.15634544
0.15625221
0.15616
0.15607056
0.15598233
0.15589492
0.15580932
0.15572492
0.15564229
0.15556103
0.15548117
0.1554026
0.15532575
0.15525048
0.15517565
0.15510274
0.15503178
0.15496187
0.1548936
0.15482711
0.15476224
0.15469914
0.15463788
0.15457836
0.15452059
0.15446458
0.15441031
0.15435779
0.15430703
0.15425803
0.15421081
0.15416538
0.15412172
0.1540798
0.15403961
0.15400116
0.15396449
0.15392965
0.15389668
0.15386565
0.15383657
0.15380952
0.1537845
0.1537616
0.15374078
0.1537222
0.1537058
0.15369198
0.15368021
0.15367293
0.1536668
0.12839965
0.13005921
0.13172687
0.13335223
0.13493334
0.13646923
0.13796034
0.13940736
0.1408113
0.14217349
0.1434954
0.14477859
0.14602455
0.14723463
0.14840993
0.14955128
0.15065922
0.15173398
0.15277561
0.15378398
0.1547588
0.15569964
0.15660598
0.15747717
0.15831239
0.15911062
0.1598705
0.16059033
0.16126796
0.16190074
0.16248549
0.1630184
0.16349498
0.16391003
0.16425755
0.16453082
0.16472234
0.16482029
0.16482431
0.1647276
0.16450042
0.16414734
0.16366715
0.16306327
0.16235572
0.161588
0.1608312
0.16017036
0.15966063
0.15930054
0.1590515
0.15886719
0.1587172
0.15858461
0.15845913
0.15833799
0.15822232
0.1581079
0.15799416
0.1578843
0.15777661
0.1576675
0.15756085
0.15745658
0.15735135
0.15724907
0.15714894
0.15704816
0.15695047
0.15685469
0.15675835
0.15666494
0.15657275
0.15648074
0.15639019
0.15630106
0.1562134
0.1561254
0.15603804
0.15595339
0.15586976
0.15578656
0.15570501
0.15562454
0.15554565
0.15546791
0.15539142
0.15531607
0.15524228
0.15516995
0.15509787
0.15502756
0.15495912
0.15489158
0.15482551
0.15476113
0.15469827
0.15463705
0.15457759
0.15451979
0.15446364
0.15440918
0.15435636
0.15430521
0.15425572
0.1542079
0.15416177
0.15411732
0.15407457
0.15403348
0.15399405
0.15395629
0.15392026
0.153886
0.15385355
0.15382299
0.15379434
0.15376767
0.15374299
0.15372037
0.15369981
0.15368144
0.15366522
0.15365153
0.15363987
0.15363264
0.15362655
0.12703549
0.12871667
0.1304031
0.13204965
0.13365513
0.13521856
0.13673999
0.13821963
0.13965793
0.1410556
0.14241355
0.1437328
0.14501438
0.14625923
0.14746819
0.14864189
0.14978074
0.15088496
0.15195458
0.15298948
0.15398937
0.15495377
0.15588206
0.15677348
0.15762707
0.15844164
0.15921567
0.15994731
0.16063425
0.16127368
0.16186226
0.16239598
0.16287019
0.16327944
0.16361754
0.16387748
0.16405169
0.16412843
0.16411017
0.1639829
0.16372185
0.16333607
0.16282484
0.16219855
0.16148709
0.16074646
0.16005526
0.1594895
0.1590775
0.15879567
0.15860157
0.15845417
0.15833067
0.15821922
0.15811167
0.15800675
0.15790648
0.15780619
0.15770565
0.15760862
0.15751306
0.15741517
0.15731939
0.1572255
0.15712991
0.15703699
0.15694574
0.15685324
0.15676367
0.15667557
0.15658639
0.1565
0.15641447
0.15632878
0.15624431
0.15616092
0.15607883
0.15599617
0.15591375
0.15583397
0.15575503
0.15567611
0.15559867
0.15552223
0.15544713
0.15537299
0.15529993
0.15522787
0.1551572
0.15508784
0.15501859
0.15495093
0.15488505
0.15481992
0.15475611
0.15469388
0.15463307
0.15457377
0.15451615
0.15446009
0.15440561
0.15435272
0.15430138
0.15425162
0.15420343
0.15415681
0.15411178
0.15406835
0.15402652
0.15398628
0.15394762
0.15391057
0.15387519
0.15384151
0.1538096
0.15377952
0.15375131
0.15372503
0.15370069
0.15367837
0.15365807
0.15363991
0.15362388
0.15361033
0.15359879
0.1535916
0.15358556
0.12585074
0.12753821
0.12923008
0.1308857
0.13250387
0.13408336
0.13562385
0.13712515
0.13858725
0.14001037
0.14139494
0.14274147
0.14405057
0.14532282
0.14655872
0.14775869
0.14892296
0.15005164
0.15114468
0.15220189
0.15322292
0.1542072
0.155154
0.15606242
0.15693133
0.15775936
0.15854485
0.15928573
0.15997951
0.16062321
0.16121326
0.16174546
0.16221493
0.16261599
0.16294219
0.16318622
0.16333991
0.16339442
0.16335106
0.16318866
0.16289377
0.16247536
0.16193633
0.16129564
0.16059504
0.15990223
0.159296
0.15883345
0.15851462
0.15830167
0.15815481
0.15803974
0.15794049
0.15784928
0.1577594
0.15767071
0.15758589
0.15749983
0.15741261
0.15732853
0.15724518
0.15715863
0.15707388
0.15699048
0.15690468
0.15682124
0.15673898
0.1566549
0.15657354
0.15649321
0.15641133
0.15633205
0.15625328
0.15617402
0.15609572
0.15601816
0.15594172
0.1558645
0.15578711
0.15571228
0.15563811
0.15556356
0.15549029
0.15541796
0.15534673
0.15527625
0.15520669
0.15513797
0.15507048
0.15500416
0.15493778
0.15487282
0.15480955
0.1547469
0.15468538
0.15462535
0.15456662
0.15450928
0.15445353
0.15439926
0.15434647
0.15429518
0.15424536
0.15419702
0.15415015
0.15410475
0.15406084
0.15401843
0.15397755
0.15393816
0.15390029
0.15386397
0.15382925
0.15379618
0.15376482
0.15373524
0.15370747
0.15368158
0.1536576
0.15363559
0.15361554
0.15359762
0.15358177
0.15356836
0.15355694
0.15354979
0.15354382
0.12483005
0.1265122
0.12819878
0.12985308
0.13147375
0.13305921
0.1346088
0.13612198
0.13759837
0.1390378
0.14044024
0.14180582
0.14313474
0.14442722
0.14568347
0.14690364
0.14808777
0.1492358
0.15034752
0.15142266
0.15246073
0.15346104
0.15442272
0.15534469
0.15622567
0.15706409
0.15785808
0.15860538
0.15930327
0.15994856
0.16053745
0.1610655
0.16152755
0.1619177
0.16222927
0.16245467
0.16258453
0.16261428
0.16254285
0.16234323
0.16201419
0.16156458
0.16100362
0.16036063
0.15969032
0.15906815
0.15856238
0.15820422
0.15796987
0.15781597
0.15770958
0.15762313
0.15754644
0.15747479
0.15740242
0.15733005
0.15726068
0.15718893
0.1571152
0.15704412
0.15697301
0.15689797
0.15682438
0.15675156
0.15667572
0.15660186
0.15652866
0.15645315
0.15638011
0.15630762
0.15623318
0.1561611
0.15608916
0.15601644
0.1559444
0.15587276
0.15580204
0.15573037
0.15565812
0.15558831
0.15551899
0.15544887
0.15537985
0.15531172
0.15524441
0.15517767
0.15511169
0.15504635
0.15498209
0.15491886
0.15485544
0.15479323
0.1547326
0.15467248
0.1546133
0.1545555
0.1544989
0.15444357
0.15438972
0.15433727
0.1542862
0.15423655
0.15418827
0.15414138
0.15409585
0.15405169
0.15400892
0.15396756
0.15392764
0.15388913
0.15385207
0.15381648
0.15378244
0.15374999
0.15371919
0.15369012
0.15366281
0.15363733
0.1536137
0.15359201
0.15357223
0.15355453
0.15353888
0.15352561
0.15351432
0.15350721
0.15350131
0.12396069
0.12562842
0.12730077
0.12894474
0.13055889
0.13214136
0.13369116
0.13520746
0.13668955
0.13813691
0.13954918
0.1409261
0.14226754
0.1435734
0.14484359
0.14607799
0.14727642
0.14843861
0.14956421
0.15065276
0.15170363
0.15271597
0.15368873
0.15462066
0.15551027
0.15635578
0.1571551
0.15790573
0.15860474
0.15924866
0.15983345
0.16035438
0.16080603
0.1611822
0.16147601
0.16167969
0.16178222
0.16178524
0.16168258
0.16144398
0.16108159
0.16060467
0.16003145
0.15940331
0.15878691
0.15825715
0.15786034
0.15760104
0.15744017
0.15733619
0.1572645
0.15720381
0.1571484
0.15709575
0.15704089
0.15698508
0.15693099
0.15687359
0.15681356
0.15675548
0.15669661
0.15663328
0.15657098
0.15650877
0.15644309
0.1563789
0.15631481
0.15624804
0.15618339
0.15611879
0.15605195
0.15598715
0.15592212
0.15585604
0.15579035
0.15572472
0.1556598
0.15559376
0.15552676
0.15546203
0.15539765
0.15533204
0.15526733
0.1552035
0.15514018
0.15507724
0.1550149
0.15495301
0.15489203
0.15483195
0.15477153
0.15471213
0.15465419
0.15459665
0.15453985
0.15448433
0.15442991
0.15437661
0.1543247
0.15427411
0.1542248
0.15417681
0.15413011
0.15408468
0.15404052
0.15399763
0.15395602
0.15391573
0.15387678
0.15383917
0.15380292
0.1537681
0.15373474
0.15370293
0.1536727
0.15364415
0.15361731
0.15359225
0.15356899
0.15354762
0.15352812
0.15351066
0.1534952
0.15348208
0.15347093
0.15346385
0.15345802
0.12323178
0.12487712
0.12652755
0.12815334
0.12975304
0.13132457
0.13286667
0.13437822
0.13585825
0.13730594
0.1387206
0.14010171
0.1414488
0.1427615
0.14403943
0.14528223
0.14648947
0.14766068
0.14879529
0.14989268
0.15095202
0.15197227
0.15295218
0.15389029
0.1547849
0.155634
0.15643524
0.15718589
0.15788274
0.15852205
0.15909949
0.15961003
0.16004794
0.1604067
0.16067913
0.16085725
0.16093084
0.16090555
0.1607652
0.16048873
0.16009586
0.15959917
0.15902844
0.15843775
0.15790081
0.15747996
0.15719194
0.15702087
0.15692219
0.15686052
0.15681842
0.15678141
0.15674631
0.1567121
0.15667504
0.15663634
0.1565969
0.15655383
0.15650793
0.15646277
0.15641598
0.15636466
0.15631377
0.15626216
0.15620685
0.1561524
0.15609746
0.15603962
0.1559834
0.15592674
0.15586766
0.1558102
0.15575215
0.15569284
0.15563357
0.15557404
0.15551498
0.15545468
0.15539303
0.15533343
0.15527407
0.15521307
0.15515272
0.15509327
0.155034
0.15497495
0.15491632
0.15485791
0.15480028
0.15474339
0.15468606
0.1546295
0.15457429
0.15451939
0.15446501
0.15441182
0.15435962
0.15430839
0.15425847
0.15420976
0.15416225
0.15411595
0.15407085
0.15402692
0.15398415
0.15394254
0.15390212
0.15386291
0.15382495
0.15378825
0.15375285
0.15371879
0.15368615
0.15365498
0.15362535
0.15359733
0.15357097
0.15354633
0.15352346
0.15350241
0.1534832
0.15346598
0.15345073
0.15343776
0.15342674
0.15341969
0.15341394
0.12263188
0.12424799
0.12586998
0.12747094
0.12904938
0.13060305
0.13213046
0.13363027
0.13510124
0.13654232
0.13795259
0.13933123
0.14067754
0.14199088
0.14327063
0.14451617
0.14572685
0.14690197
0.14804076
0.14914237
0.15020577
0.15122971
0.15221272
0.1531531
0.15404892
0.1548979
0.15569745
0.15644454
0.15713568
0.15776683
0.15833335
0.1588299
0.15925042
0.15958811
0.15983549
0.15998361
0.16002724
0.15997052
0.15978806
0.1594771
0.15905931
0.15855544
0.15800816
0.15748188
0.15704748
0.15674278
0.15655565
0.15645965
0.15641301
0.15638774
0.15637019
0.15635569
0.15634018
0.15632374
0.15630532
0.15628445
0.15625826
0.15622971
0.15619876
0.15616613
0.15613101
0.15609223
0.1560529
0.15601175
0.15596711
0.15592244
0.15587663
0.15582794
0.1557802
0.15573149
0.15568035
0.15563028
0.15557927
0.15552683
0.15547407
0.15542071
0.15536758
0.15531311
0.15525692
0.15520248
0.15514824
0.15509194
0.15503602
0.15498102
0.15492587
0.15487077
0.15481592
0.15476104
0.1547068
0.15465318
0.154599
0.15454533
0.15449288
0.15444069
0.15438877
0.15433795
0.15428801
0.15423889
0.15419099
0.15414421
0.15409852
0.15405395
0.15401048
0.15396807
0.15392672
0.15388642
0.1538472
0.15380909
0.15377215
0.15373638
0.15370183
0.15366856
0.15363664
0.15360614
0.15357711
0.15354964
0.15352377
0.15349957
0.15347708
0.15345637
0.15343745
0.15342048
0.15340544
0.15339263
0.15338175
0.15337474
0.15336907
0.12214896
0.1237303
0.12531857
0.1268892
0.12844066
0.12997055
0.13147718
0.13295902
0.13441466
0.13584284
0.13724246
0.13861248
0.139952
0.14126014
0.14253605
0.14377891
0.14498781
0.14616184
0.1473
0.14840121
0.14946423
0.15048757
0.15146952
0.15240812
0.15330117
0.15414614
0.15494013
0.15567983
0.15636142
0.15698056
0.15753228
0.15801091
0.15841007
0.1587227
0.15894128
0.15905532
0.15906717
0.15897547
0.15875105
0.15841061
0.15797809
0.15748621
0.15698953
0.15655527
0.15623842
0.15604639
0.15594831
0.15591349
0.15591045
0.1559155
0.15591877
0.15592669
0.15593047
0.15593113
0.15593258
0.15592901
0.15591472
0.15590164
0.15588648
0.15586564
0.15584146
0.15581631
0.15578858
0.15575747
0.15572396
0.15568912
0.15565233
0.15561306
0.15557381
0.15553307
0.15549006
0.1554474
0.15540348
0.15535804
0.15531184
0.15526475
0.1552176
0.15516906
0.15511842
0.15506918
0.15502014
0.15496865
0.15491721
0.15486675
0.15481577
0.1547647
0.15471369
0.15466239
0.1546116
0.1545613
0.15451034
0.15445959
0.15440996
0.15436053
0.15431112
0.1542627
0.15421508
0.1541681
0.15412226
0.15407744
0.15403362
0.1539908
0.15394898
0.15390813
0.15386822
0.15382925
0.15379125
0.15375426
0.15371835
0.15368353
0.15364985
0.15361739
0.15358621
0.15355639
0.15352799
0.15350108
0.15347571
0.15345195
0.15342986
0.15340949
0.15339087
0.15337416
0.15335934
0.15334669
0.15333595
0.15332897
0.15332339
0.12177116
0.12331353
0.12486394
0.12639981
0.1279195
0.12942052
0.13090104
0.13235938
0.13379403
0.1352036
0.13658684
0.13794256
0.13926968
0.14056713
0.14183386
0.14306882
0.1442709
0.14543896
0.14657176
0.14766799
0.14872617
0.14974456
0.15072118
0.15165382
0.15253998
0.15337683
0.15416117
0.15488937
0.15555728
0.15616022
0.15669291
0.15714935
0.15752285
0.15780596
0.15799132
0.15806977
0.15804862
0.1579163
0.1576548
0.1572943
0.15686413
0.1564108
0.15599529
0.15567532
0.15547917
0.15538772
0.15536747
0.15537956
0.15540765
0.15543956
0.15546631
0.15549523
0.1555185
0.15553699
0.15555593
0.15556682
0.15556777
0.155571
0.15557085
0.15556101
0.15554767
0.15553748
0.15552089
0.15549921
0.15547764
0.15545258
0.1554245
0.15539508
0.15536434
0.15533146
0.15529681
0.1552616
0.15522479
0.15518647
0.1551469
0.15510614
0.15506504
0.15502252
0.15497753
0.15493352
0.15488977
0.15484321
0.15479629
0.15475043
0.15470369
0.15465672
0.15460962
0.15456194
0.15451464
0.15446774
0.15442006
0.15437228
0.15432549
0.1542789
0.15423203
0.15418606
0.1541408
0.15409601
0.15405226
0.15400944
0.15396751
0.15392648
0.15388635
0.15384707
0.15380862
0.153771
0.15373425
0.1536984
0.15366354
0.15362969
0.1535969
0.15356527
0.15353485
0.15350573
0.15347796
0.15345162
0.15342677
0.15340347
0.15338178
0.15336176
0.15334346
0.15332701
0.15331241
0.15329993
0.15328934
0.15328239
0.1532769
0.121487
0.12298761
0.12449706
0.12599459
0.1274785
0.12894623
0.13039589
0.13182577
0.13323431
0.13462005
0.13598165
0.13731783
0.13862734
0.13990896
0.14116145
0.14238357
0.14357399
0.14473133
0.14585413
0.14694084
0.14798972
0.14899875
0.1499657
0.15088806
0.15176302
0.15258744
0.15335779
0.15407009
0.15471986
0.1553021
0.1558112
0.15624094
0.15658442
0.15683368
0.15698084
0.15702343
0.15696781
0.15679252
0.15650459
0.15613924
0.15573686
0.1553544
0.15504777
0.1548538
0.15477016
0.15476473
0.15480156
0.15484902
0.15490459
0.15496146
0.15501355
0.15506195
0.15510431
0.15514118
0.15517479
0.1552001
0.15521917
0.15523691
0.15524972
0.15525171
0.15525226
0.15525605
0.15524923
0.15523724
0.15522853
0.15521284
0.15519309
0.15517422
0.15515186
0.15512662
0.1551007
0.15507294
0.1550432
0.15501216
0.15497928
0.15494491
0.1549099
0.15487351
0.15483428
0.1547955
0.15475711
0.15471561
0.15467326
0.15463205
0.15458962
0.15454682
0.15450368
0.15445969
0.15441592
0.15437248
0.15432815
0.15428337
0.15423948
0.15419577
0.15415148
0.15410801
0.15406516
0.15402259
0.15398097
0.15394019
0.15390019
0.15386097
0.15382256
0.15378488
0.15374792
0.15371168
0.15367619
0.1536415
0.15360771
0.15357484
0.15354297
0.15351218
0.15348254
0.15345413
0.15342701
0.15340126
0.15337694
0.15335411
0.15333284
0.15331318
0.15329519
0.15327901
0.15326464
0.15325234
0.15324189
0.15323498
0.15322958
0.12128632
0.12274351
0.12420962
0.12566577
0.12711031
0.12854075
0.12995523
0.13135209
0.13272982
0.13408695
0.1354221
0.1367339
0.13802099
0.139282
0.14051551
0.14172009
0.14289421
0.14403625
0.14514452
0.14621721
0.14725231
0.14824755
0.14920039
0.15010801
0.15096728
0.15177473
0.15252648
0.15321818
0.15384503
0.15440169
0.15488233
0.15528061
0.15558969
0.15580118
0.15590602
0.15591269
0.15582176
0.15560988
0.15531157
0.15496508
0.15462373
0.1543445
0.15416399
0.15409636
0.1541073
0.15416197
0.15424066
0.15431995
0.15440463
0.15448543
0.1545592
0.15462675
0.15468747
0.15474179
0.15479076
0.15483233
0.15486742
0.15489838
0.15492354
0.15494039
0.15495528
0.15496974
0.15497293
0.15497354
0.15497662
0.15496943
0.15495844
0.15495077
0.15493633
0.15491851
0.15490189
0.15488145
0.15485865
0.15483515
0.15480903
0.15478105
0.15475217
0.15472202
0.15468866
0.15465513
0.15462215
0.15458586
0.15454814
0.1545116
0.15447356
0.15443498
0.15439587
0.15435562
0.15431542
0.15427551
0.1542346
0.15419286
0.15415189
0.15411113
0.15406947
0.15402853
0.15398815
0.15394783
0.15390838
0.15386968
0.15383164
0.15379427
0.1537576
0.15372154
0.15368609
0.15365125
0.15361705
0.15358355
0.15355085
0.15351899
0.15348804
0.15345812
0.15342927
0.15340159
0.15337515
0.15335
0.15332621
0.15330386
0.15328301
0.15326373
0.15324606
0.15323016
0.15321603
0.1532039
0.15319361
0.15318673
0.15318143
0.12116077
0.12257402
0.12399449
0.12540609
0.12680761
0.12819679
0.12957194
0.13093153
0.13227412
0.13359828
0.1349026
0.13618562
0.13744587
0.13868184
0.13989196
0.14107458
0.14222796
0.14335028
0.14443958
0.1454938
0.14651066
0.1474876
0.14842178
0.14931005
0.15014895
0.15093465
0.1516629
0.152329
0.1529278
0.15345368
0.15390066
0.15426253
0.15453281
0.15470269
0.15476552
0.15473865
0.15461111
0.15437952
0.15409571
0.15380162
0.15355771
0.15340524
0.15335654
0.15339161
0.15347036
0.15357277
0.15368504
0.15379781
0.15390711
0.1540094
0.15410344
0.15418975
0.15426839
0.15433978
0.15440444
0.15446163
0.15451201
0.1545569
0.15459551
0.15462695
0.15465454
0.15467861
0.15469459
0.15470789
0.15472008
0.15472191
0.15472221
0.15472456
0.15471737
0.15470749
0.1547006
0.15468708
0.15467115
0.1546556
0.15463622
0.15461457
0.15459185
0.15456804
0.15454072
0.15451243
0.15448488
0.15445395
0.15442094
0.15438906
0.1543555
0.1543212
0.15428616
0.15424975
0.15421314
0.15417682
0.15413939
0.15410074
0.15406273
0.15402497
0.15398599
0.15394761
0.15390976
0.15387173
0.15383448
0.1537979
0.15376184
0.15372635
0.15369145
0.15365705
0.15362314
0.15358972
0.15355682
0.15352452
0.15349294
0.1534621
0.15343211
0.15340307
0.15337504
0.15334811
0.15332235
0.15329781
0.15327458
0.15325272
0.15323231
0.1532134
0.15319606
0.15318045
0.15316656
0.15315462
0.15314449
0.15313765
0.15313244
0.12109976
0.12246681
0.12384168
0.12520632
0.12656145
0.12790566
0.12923767