/*--------------------------------*- C++ -*----------------------------------*\
| =========                 |                                                 |
| \\      /  F ield         | OpenFOAM: The Open Source CFD Toolbox           |
|  \\    /   O peration     | Version:  2406                                  |
|   \\  /    A nd           | Website:  www.openfoam.com                      |
|    \\/     M anipulation  |                                                 |
\*---------------------------------------------------------------------------*/
FoamFile
{
    version     2.0;
    format      ascii;
    arch        "LSB;label=32;scalar=64";
    class       volScalarField;
    location    "0.018";
    object      nutMean;
}
// * * * * * * * * * * * * * * * * * * * * * * * * * * * * * * * * * * * * * //

dimensions      [0 2 -1 0 0 0 0];

internalField   nonuniform List<scalar> 
92813
(
0.033445811
0.036344833
0.039359766
0.042462213
0.045639223
0.048882722
0.052187661
0.05555115
0.058971702
0.062448947
0.065983527
0.069576784
0.073230545
0.076947239
0.080729717
0.084581113
0.088504801
0.092503628
0.09657814
0.10067815
0.10481008
0.1089987
0.11324856
0.11756137
0.12193769
0.12637739
0.13087957
0.13544254
0.14006369
0.14473935
0.14946475
0.15423385
0.15903924
0.16387206
0.16872181
0.17357614
0.17842088
0.18323988
0.18801493
0.19272578
0.19735007
0.20186332
0.20623904
0.21044886
0.21446265
0.21824872
0.22177404
0.22500477
0.22790655
0.23044491
0.23258543
0.23429423
0.23553924
0.23629121
0.23652404
0.23621545
0.23534814
0.23391054
0.23189568
0.22930141
0.22613369
0.22240715
0.21814422
0.21337055
0.20810999
0.20237118
0.19612611
0.18934646
0.18203852
0.17423113
0.16596266
0.15727226
0.14819964
0.13878918
0.12909085
0.11916023
0.10905531
0.098839495
0.088590807
0.078403715
0.068383853
0.058643244
0.049296574
0.040456552
0.032243457
0.0247912
0.018242507
0.012753034
0.0085094467
0.0057857581
0.0047094215
0.0044978982
0.0044521925
0.0044254474
0.004402014
0.0043803296
0.0043601017
0.0043411909
0.0043235158
0.0043069592
0.0042914111
0.0042768009
0.0042630549
0.004250137
0.0042380094
0.0042266156
0.0042159912
0.00420613
0.0041969527
0.0041884139
0.0041804846
0.0041731239
0.0041662976
0.0041599658
0.0041541217
0.0041487848
0.0041439343
0.0041396027
0.0041356628
0.0041321772
0.0041287354
0.0041253305
0.0041222391
0.0041191878
0.004116493
0.0041126526
0.0041142943
0.037401422
0.040224925
0.043143203
0.046153082
0.049246193
0.05241405
0.055650442
0.058951749
0.062315482
0.065740463
0.069226839
0.072775394
0.076387497
0.080065174
0.083810682
0.087626595
0.091515529
0.095479074
0.099516069
0.10358809
0.1076907
0.11185134
0.11607228
0.12035476
0.12469909
0.12910491
0.13357101
0.13809535
0.14267499
0.14730591
0.15198297
0.15669984
0.16144875
0.1662205
0.17100427
0.17578743
0.18055555
0.18529228
0.18997921
0.19459599
0.19912018
0.20352727
0.2077909
0.21188292
0.21577351
0.21943128
0.22282375
0.22591763
0.22867922
0.23107476
0.23307055
0.23463356
0.23573279
0.2363401
0.23643065
0.23598358
0.23498287
0.23341793
0.23128236
0.22857509
0.22530323
0.22148213
0.21713444
0.21228473
0.20695466
0.20114655
0.19482834
0.18797753
0.18060578
0.17274382
0.1644304
0.15570434
0.14660548
0.13717841
0.12747353
0.11754661
0.10745571
0.097265165
0.087054605
0.076919594
0.066966225
0.057306229
0.048053317
0.039319277
0.031225027
0.023905036
0.017501898
0.012172069
0.008105847
0.0055843206
0.0046621799
0.0044889063
0.0044476803
0.0044216266
0.0043984909
0.0043770492
0.0043570394
0.0043383267
0.0043208327
0.0043044417
0.0042890447
0.0042745733
0.0042609557
0.0042481576
0.0042361427
0.0042248552
0.0042143322
0.0042045668
0.0041954796
0.0041870247
0.0041791715
0.0041718782
0.0041651111
0.0041588324
0.0041530371
0.0041477452
0.0041429365
0.004138643
0.0041347368
0.0041312833
0.0041278698
0.0041244951
0.004121436
0.0041184191
0.0041157643
0.0041119775
0.004113624
0.041624387
0.044367672
0.047198826
0.050119225
0.053124239
0.056208114
0.059365874
0.062593692
0.065888999
0.069250483
0.072677775
0.076171156
0.079731614
0.083360703
0.087060094
0.090831798
0.094677833
0.098599144
0.1025947
0.10662888
0.11069338
0.114817
0.11900072
0.12324498
0.12754963
0.13191388
0.13633611
0.1408139
0.1453439
0.14992167
0.15454177
0.15919748
0.16388069
0.16858185
0.17328981
0.17799167
0.1826728
0.18731664
0.19190469
0.19641651
0.20082964
0.20511967
0.20926047
0.21322421
0.21698138
0.22050112
0.22375152
0.22669999
0.22931353
0.23155916
0.23340398
0.23481592
0.23576512
0.23622464
0.23617101
0.23558482
0.2344513
0.23276064
0.23050701
0.22769054
0.22431934
0.22040945
0.21598345
0.2110645
0.20567136
0.19979845
0.19341146
0.18649511
0.17906576
0.17115557
0.16280331
0.15404738
0.14492785
0.13548962
0.12578347
0.11586532
0.1057934
0.09563332
0.085466432
0.075389155
0.065507893
0.055933941
0.046779973
0.038157154
0.030187264
0.02300515
0.016753247
0.011589179
0.0077084787
0.0053980809
0.0046208724
0.0044804981
0.0044431476
0.0044177151
0.0043948788
0.0043736871
0.0043539025
0.0043353945
0.0043180872
0.0043018669
0.0042866257
0.0042722974
0.0042588122
0.0042461376
0.0042342387
0.0042230611
0.0042126425
0.0042029757
0.0041939809
0.004185612
0.0041778365
0.0041706122
0.004163906
0.0041576818
0.0041519369
0.0041466913
0.0041419256
0.0041376712
0.0041337994
0.0041303785
0.0041269942
0.0041236508
0.0041206249
0.0041176439
0.0041150304
0.0041112995
0.0041129508
0.046067527
0.048728443
0.051474368
0.054307419
0.057224917
0.060222989
0.063298055
0.06644715
0.069668196
0.072959897
0.076321319
0.079752611
0.083254709
0.08682863
0.090475554
0.094197054
0.097994683
0.10186907
0.10581951
0.10980949
0.11382933
0.11790934
0.12204956
0.12624963
0.13050885
0.13482594
0.13919877
0.14362452
0.14809939
0.15261855
0.1571762
0.16176525
0.1663772
0.17100219
0.17562872
0.18024366
0.18483214
0.18937745
0.19386096
0.19826221
0.20255876
0.20672633
0.21073903
0.21456932
0.21818809
0.22156498
0.22466875
0.22746746
0.22992885
0.23202071
0.23371093
0.23496849
0.23576467
0.2360738
0.23587392
0.23514698
0.23387932
0.23206173
0.22968916
0.22676305
0.22329242
0.2192941
0.21479021
0.20980235
0.20434519
0.19840464
0.19194702
0.18496469
0.17747795
0.16952005
0.16112965
0.15234474
0.14320565
0.13375756
0.1240517
0.11414404
0.10409312
0.093965927
0.083845566
0.073829236
0.064023601
0.05453938
0.045488064
0.036980387
0.029139153
0.022099436
0.016003614
0.011010946
0.0073237351
0.0052309103
0.0045862558
0.0044728205
0.0044386022
0.004413726
0.0043911899
0.0043702537
0.0043506997
0.0043324012
0.0043152852
0.0042992396
0.0042841581
0.0042699764
0.0042566267
0.0042440787
0.0042322987
0.0042212335
0.0042109218
0.0042013556
0.0041924551
0.0041841737
0.0041764774
0.0041693234
0.0041626791
0.0041565108
0.0041508175
0.0041456193
0.0041408975
0.0041366827
0.0041328462
0.0041294585
0.0041261042
0.0041227928
0.0041198012
0.0041168572
0.0041142865
0.0041106135
0.0041122698
0.05070821
0.053287453
0.055949535
0.058696942
0.061528142
0.064440628
0.067431929
0.070500032
0.073643324
0.076860753
0.080151807
0.083516431
0.086954884
0.090468144
0.094057272
0.097723421
0.10146766
0.10529048
0.1091914
0.11313164
0.11710074
0.12113092
0.12522143
0.12937126
0.13357911
0.13784315
0.14216076
0.14652867
0.15094264
0.1553974
0.15988682
0.16440338
0.16893822
0.17348114
0.17802034
0.18254243
0.18703236
0.19147325
0.19584638
0.20013128
0.20430555
0.20834509
0.21222428
0.21591587
0.21939115
0.22262037
0.22557292
0.22821752
0.23052267
0.23245692
0.23398898
0.23508892
0.23572922
0.23588563
0.23553767
0.23466853
0.23326552
0.23131997
0.22882786
0.22579192
0.22222207
0.21813582
0.21355446
0.20849774
0.20297474
0.19696342
0.19043364
0.18338519
0.17584143
0.16783647
0.15940876
0.15059589
0.14143845
0.13198194
0.12227805
0.11238278
0.10235504
0.092263402
0.082192654
0.072240731
0.062514448
0.053123807
0.044179025
0.03579064
0.028082596
0.021190019
0.015255447
0.010440297
0.0069552429
0.0050840163
0.0045577211
0.004465779
0.0044340546
0.0044096808
0.0043874442
0.004366767
0.0043474469
0.0043293612
0.0043124393
0.0042965713
0.0042816518
0.0042676189
0.0042544071
0.0042419875
0.0042303284
0.0042193774
0.0042091741
0.0041997102
0.0041909051
0.0041827123
0.004175096
0.004168013
0.0041614315
0.0041553199
0.0041496791
0.0041445292
0.0041398519
0.0041356773
0.0041318764
0.0041285227
0.0041251989
0.0041219204
0.0041189638
0.0041160582
0.0041135318
0.0041099185
0.0041115799
0.055529005
0.058028098
0.060607783
0.063271174
0.066017507
0.068845311
0.071753113
0.074739538
0.077803568
0.080944546
0.08416212
0.08745628
0.090827343
0.09427596
0.097803015
0.10140945
0.10509579
0.10886267
0.11270966
0.11659505
0.12050772
0.12448216
0.12851693
0.13261044
0.13676089
0.14096584
0.1452222
0.14952627
0.15387331
0.15825766
0.16267281
0.1671108
0.17156242
0.17601716
0.1804629
0.18488602
0.1892713
0.19360171
0.19785845
0.20202105
0.20606725
0.20997313
0.21371332
0.21726089
0.22058761
0.22366433
0.2264611
0.22894727
0.23109212
0.23286496
0.2342354
0.2351746
0.23565636
0.23565792
0.23516024
0.23414765
0.23260818
0.23053383
0.22792185
0.22477611
0.22110747
0.21693387
0.21227541
0.20714946
0.20155794
0.19547275
0.18886969
0.18175517
0.17415492
0.1661037
0.15763962
0.14879992
0.13962548
0.13016215
0.12046206
0.11058121
0.10057906
0.090525863
0.080508064
0.070624237
0.060981242
0.051688198
0.042854006
0.034589307
0.027019222
0.020278775
0.014510936
0.0098799296
0.0066063366
0.0049575449
0.0045343481
0.004459244
0.0044294977
0.0044055836
0.0043836464
0.0043632308
0.0043441475
0.0043262772
0.0043095519
0.0042938638
0.0042791084
0.0042652265
0.0042521543
0.0042398652
0.0042283287
0.0042174936
0.0042074002
0.0041980398
0.0041893314
0.0041812279
0.0041736924
0.0041666811
0.0041601631
0.0041541091
0.0041485217
0.0041434208
0.0041387885
0.0041346546
0.0041308898
0.0041275706
0.0041242781
0.0041210331
0.0041181126
0.0041152466
0.0041127661
0.0041092145
0.0041108811
0.060516609
0.062937174
0.065436068
0.068017161
0.07068032
0.073424815
0.076249865
0.079154835
0.08213919
0.085202541
0.088344833
0.091566193
0.094866977
0.098247741
0.10170915
0.10525191
0.10887669
0.11258384
0.11637255
0.12019822
0.12404909
0.1279621
0.13193519
0.13596639
0.14005337
0.14419309
0.14838206
0.15261612
0.15689004
0.16119776
0.16553237
0.16988551
0.1742476
0.17860782
0.18295378
0.18727166
0.19154604
0.19575976
0.19989397
0.20392828
0.20784055
0.21160706
0.21520272
0.21860095
0.22177407
0.22469353
0.22732996
0.22965343
0.23163398
0.23324171
0.23444716
0.23522268
0.23554345
0.2353883
0.23473949
0.23358229
0.23190535
0.22970161
0.22696965
0.22371435
0.21994754
0.2156872
0.21095188
0.20575577
0.20009234
0.19393048
0.18725339
0.18007308
0.17241702
0.16432046
0.15582104
0.14695577
0.13776581
0.12829739
0.11860308
0.10873887
0.098764932
0.088753316
0.078792029
0.068980239
0.059424675
0.050233405
0.041514054
0.033377701
0.025950578
0.019367497
0.013772232
0.0093325226
0.0062801566
0.0048507649
0.0045151723
0.0044530908
0.0044249208
0.004401434
0.0043797965
0.0043596455
0.0043408017
0.0043231495
0.0043066232
0.0042911171
0.0042765281
0.0042627992
0.0042498687
0.0042377117
0.0042262996
0.0042155821
0.0042056001
0.0041963445
0.0041877336
0.0041797204
0.0041722665
0.0041653274
0.0041588738
0.0041528781
0.004147345
0.0041422939
0.0041377073
0.0041336144
0.0041298862
0.0041266019
0.0041233415
0.0041201309
0.0041172473
0.0041144223
0.0041119893
0.0041085013
0.0041101732
0.065661125
0.068004745
0.070424432
0.072924906
0.075506557
0.07816924
0.080912722
0.083736854
0.086641581
0.089626889
0.092692902
0.095839873
0.099068242
0.10237856
0.10577145
0.10924753
0.11280723
0.11645071
0.12017723
0.1239388
0.12772274
0.13156872
0.13547431
0.13943727
0.14345468
0.14752297
0.15163832
0.15579607
0.15999052
0.16421521
0.16846286
0.17272464
0.17699071
0.18124994
0.18548965
0.18969585
0.19385294
0.19794365
0.20194912
0.20584908
0.2096215
0.21324292
0.21668851
0.21993214
0.22294666
0.22570411
0.22817572
0.23033229
0.23214464
0.23358366
0.23462091
0.23522997
0.23538759
0.23507411
0.23427292
0.23297007
0.23115486
0.22882141
0.22596955
0.22260516
0.21874096
0.21439443
0.20958232
0.20431432
0.19857521
0.19233436
0.18558289
0.17833722
0.17062617
0.16248532
0.15395173
0.14506227
0.13585839
0.12638679
0.1167004
0.10685521
0.096912343
0.086945715
0.077044759
0.067309176
0.057845373
0.048760228
0.040160174
0.032157099
0.024878177
0.01845796
0.013041485
0.0088008156
0.0059796232
0.0047622545
0.0044993372
0.0044472184
0.0044203152
0.0043972315
0.0043758946
0.004356011
0.0043374095
0.0043199779
0.0043036532
0.0042883315
0.0042739108
0.0042603369
0.00424755
0.004235527
0.0042242411
0.0042136428
0.0042037736
0.004194624
0.0041861119
0.0041781897
0.0041708179
0.0041639519
0.0041575632
0.0041516268
0.0041461488
0.0041411482
0.0041366077
0.0041325564
0.0041288652
0.0041256166
0.0041223889
0.0041192134
0.0041163678
0.0041135851
0.0041112014
0.0041077791
0.0041094562
0.070954396
0.073222599
0.075564602
0.077986098
0.080487891
0.083070285
0.085733469
0.088477683
0.091303207
0.094210361
0.097199508
0.10027103
0.10342546
0.10666333
0.10998524
0.11339177
0.11688331
0.12045985
0.12412052
0.12781349
0.13152521
0.13529875
0.1391314
0.14302028
0.14696194
0.15095259
0.15498802
0.15906304
0.16317152
0.16730667
0.17146074
0.17562454
0.17978796
0.18393957
0.18806643
0.19215439
0.19618768
0.20014897
0.20401944
0.20777895
0.21140561
0.21487618
0.21816621
0.22125002
0.22410101
0.22669178
0.22899418
0.23097974
0.23262009
0.23388695
0.23475295
0.23519307
0.23518565
0.23471245
0.23375781
0.23230838
0.23035431
0.22789108
0.22491966
0.22144686
0.21748612
0.2130539
0.20816474
0.20282225
0.1970036
0.19068203
0.18385615
0.17654577
0.16878071
0.16059673
0.15203026
0.14311813
0.1339021
0.12442939
0.11475322
0.10492966
0.095020954
0.085102982
0.075266436
0.065611488
0.056243949
0.047269459
0.038793376
0.030928777
0.023803543
0.017552001
0.012320908
0.0082876479
0.0057072839
0.0046901287
0.0044861091
0.0044415452
0.0044156739
0.0043929753
0.0043719406
0.0043523271
0.0043339706
0.0043167624
0.0043006416
0.0042855064
0.0042712563
0.0042578394
0.0042451981
0.0042333111
0.0042221531
0.0042116756
0.0042019207
0.0041928784
0.0041844659
0.0041766355
0.0041693466
0.0041625542
0.0041562311
0.0041503547
0.0041449328
0.0041399835
0.0041354898
0.0041314804
0.0041278268
0.0041246144
0.0041214201
0.0041182806
0.004115474
0.0041127352
0.0041104023
0.0041070476
0.0041087301
0.076389354
0.078583693
0.0808495
0.083193597
0.085617105
0.088120668
0.090704806
0.09337006
0.096116981
0.098946128
0.10185806
0.10485338
0.10793261
0.11109637
0.11434524
0.11767974
0.12110022
0.12460659
0.12819787
0.131818
0.13545261
0.13914846
0.14290238
0.14671114
0.15057111
0.15447812
0.15842724
0.16241296
0.16642893
0.17046788
0.17452161
0.17858069
0.18263473
0.18667196
0.19067927
0.19464232
0.19854524
0.20237067
0.20609987
0.20971281
0.21318778
0.21650181
0.21963084
0.22254971
0.22523232
0.22765181
0.22978068
0.23159126
0.23305595
0.23414738
0.23483932
0.23510829
0.23493426
0.23430017
0.23319113
0.23159437
0.22950115
0.22690834
0.22381788
0.22023762
0.2161812
0.21166365
0.2066967
0.20127626
0.19537452
0.18897108
0.18207107
0.17469679
0.16687886
0.15865308
0.15005514
0.14112202
0.13189575
0.12242418
0.11276071
0.10296159
0.09309043
0.083225064
0.073457277
0.063887611
0.05462104
0.045761901
0.037414714
0.029694071
0.022728259
0.016651511
0.011612828
0.0077960366
0.0054651254
0.0046322347
0.0044748702
0.0044360079
0.0044109909
0.0043886649
0.0043679341
0.0043485937
0.0043304849
0.0043135027
0.0042975882
0.0042826419
0.0042685645
0.0042553068
0.004242813
0.0042310637
0.0042200354
0.0042096805
0.0042000414
0.0041911075
0.0041827957
0.0041750576
0.0041678522
0.004161134
0.0041548773
0.0041490619
0.0041436967
0.0041387994
0.004134353
0.004130386
0.0041267705
0.0041235949
0.0041204348
0.0041173322
0.0041145656
0.0041118723
0.0041095921
0.004106307
0.0041079948
0.081959567
0.084081588
0.086272631
0.088540819
0.09088751
0.093313604
0.09581987
0.098407084
0.10107601
0.10382739
0.10666195
0.10958039
0.1125834
0.11567159
0.1188455
0.12210569
0.12545239
0.1288855
0.13240393
0.1359471
0.13949971
0.14311258
0.14678225
0.1505052
0.15427743
0.15809434
0.16195076
0.16584077
0.16975762
0.17369363
0.17764018
0.1815877
0.18552555
0.18944155
0.19332252
0.19715397
0.2009199
0.20460302
0.20818468
0.21164498
0.21496236
0.21811422
0.22107696
0.22382584
0.22633529
0.22857901
0.2305302
0.23216194
0.23344751
0.23436044
0.23487579
0.23497177
0.23462982
0.23383388
0.23256965
0.23082502
0.22859268
0.22587075
0.22266206
0.21897541
0.21482413
0.21022147
0.20517521
0.19967271
0.19368493
0.18719902
0.18022545
0.17278827
0.16491879
0.15665263
0.14802481
0.13907252
0.12983814
0.12037015
0.11072204
0.10095044
0.091120473
0.081311939
0.071617537
0.062138048
0.052977321
0.044238419
0.036025345
0.028454395
0.02165399
0.015758524
0.010919706
0.0073292153
0.0052543017
0.0045863372
0.0044651233
0.0044305572
0.0044062618
0.0043842997
0.004363875
0.0043448105
0.004326952
0.0043101985
0.0042944928
0.0042797376
0.0042658351
0.0042527387
0.0042403945
0.0042287848
0.004217888
0.0042076574
0.0041981354
0.0041893112
0.0041811009
0.004173456
0.0041663347
0.0041596912
0.0041535015
0.0041477478
0.0041424404
0.0041375958
0.0041331973
0.0041292731
0.0041256961
0.004122558
0.004119433
0.0041163681
0.0041136427
0.0041109963
0.0041087706
0.0041055574
0.0041072504
0.087658732
0.089709985
0.09182765
0.09402133
0.096292555
0.098642413
0.10107186
0.10358186
0.10617333
0.10884717
0.1116042
0.11444523
0.11737101
0.12038222
0.12347942
0.12666305
0.12993336
0.13329021
0.1367324
0.14019445
0.14366024
0.147185
0.15076495
0.1543963
0.15807476
0.16179542
0.16555272
0.16934036
0.17315127
0.17697753
0.1808102
0.18463933
0.18845402
0.19224193
0.19598977
0.19968286
0.20330521
0.20683963
0.21026753
0.21356913
0.21672313
0.21970734
0.22249857
0.22507253
0.22740418
0.22946778
0.23123726
0.23268653
0.2337897
0.23452132
0.23485794
0.23477944
0.23426855
0.23330997
0.2318899
0.2299972
0.22762608
0.22477571
0.22144987
0.21765804
0.21341261
0.20872474
0.20359667
0.1980078
0.19193177
0.18536332
0.17831697
0.1708181
0.16289856
0.15459361
0.14593763
0.13696818
0.12772802
0.11826625
0.10863639
0.098895654
0.089110836
0.079363641
0.069747542
0.060363351
0.051313539
0.042699959
0.034626542
0.027211294
0.020582526
0.014875183
0.010244222
0.006890632
0.0050749573
0.0045502794
0.0044564839
0.0044251546
0.0044014831
0.0043798794
0.0043597631
0.0043409774
0.004323372
0.0043068498
0.0042913554
0.0042767934
0.0042630681
0.004250135
0.0042379425
0.0042264744
0.0042157109
0.0042056062
0.0041962028
0.0041874893
0.0041793816
0.0041718304
0.0041647937
0.0041582256
0.0041521035
0.0041464124
0.0041411635
0.0041363724
0.0041320222
0.0041281413
0.0041246034
0.0041215034
0.0041184142
0.004115388
0.004112705
0.0041101073
0.0041079379
0.0041047986
0.0041064967
0.093480133
0.095462195
0.097507848
0.099628355
0.10182536
0.1041001
0.10645367
0.10888717
0.11140162
0.11399804
0.11667733
0.11944037
0.12228795
0.12522077
0.12823942
0.13134433
0.13453567
0.13781325
0.14117586
0.14455276
0.14792687
0.15135841
0.15484323
0.15837726
0.16195595
0.16557412
0.16922585
0.17290455
0.17660284
0.18031249
0.18402432
0.18772816
0.19141282
0.19506585
0.19867374
0.20222171
0.205694
0.20907341
0.21234137
0.21547832
0.2184633
0.22127452
0.22388917
0.22628342
0.22843276
0.23031206
0.23189602
0.2331594
0.23407715
0.23462501
0.23478115
0.23452702
0.2338464
0.23272458
0.23114828
0.22910765
0.2265984
0.22362056
0.2201789
0.21628307
0.21194408
0.20717038
0.20195695
0.19627767
0.190112
0.18346134
0.17634328
0.16878412
0.16081619
0.15247416
0.14379196
0.13480755
0.12556415
0.11611143
0.10650296
0.096796715
0.08706134
0.077380296
0.067847698
0.058564128
0.049630522
0.041147571
0.033219672
0.025966422
0.019515802
0.014003836
0.0095892969
0.0064838896
0.0049260684
0.0045220985
0.0044486645
0.0044197704
0.0043966523
0.0043754037
0.0043555983
0.0043370943
0.0043197447
0.0043034563
0.0042881756
0.0042738093
0.0042602633
0.0042474957
0.0042354569
0.0042241323
0.0042135039
0.0042035269
0.0041942435
0.0041856419
0.0041776375
0.0041701807
0.0041632291
0.0041567368
0.0041506831
0.0041450554
0.0041398659
0.0041351289
0.0041308276
0.0041269903
0.004123492
0.0041204309
0.0041173784
0.0041143919
0.0041117525
0.0041092052
0.004107094
0.0041040309
0.0041057339
0.099416337
0.10133084
0.10330585
0.10535448
0.10747844
0.10967906
0.11195756
0.11431512
0.11675287
0.11927186
0.12187309
0.12455746
0.12732578
0.13017877
0.13311701
0.13614095
0.13925075
0.14244615
0.14572588
0.14901353
0.15229118
0.15562439
0.15900867
0.16243969
0.16591263
0.16942206
0.17296182
0.176525
0.18010397
0.18369025
0.18727438
0.19084598
0.19439366
0.19790493
0.20136618
0.20476256
0.20807841
0.2112965
0.21439846
0.21736501
0.22017552
0.22280857
0.22524171
0.22745161
0.22941432
0.23110534
0.23250022
0.23357456
0.2343042
0.23466626
0.2346406
0.23421002
0.23335912
0.23207362
0.230341
0.228153
0.22550656
0.22240254
0.21884658
0.21484785
0.21041569
0.20555467
0.2002515
0.19447849
0.18822253
0.1814904
0.1743019
0.16668411
0.15866962
0.1502924
0.1415861
0.13258913
0.12334528
0.11390469
0.104321
0.094653196
0.084971884
0.075362126
0.065918507
0.056741086
0.04792917
0.039582412
0.031806247
0.024721573
0.018455937
0.013147031
0.0089581484
0.0061125835
0.0048054564
0.0044999806
0.0044414296
0.0044143824
0.0043917675
0.0043708723
0.0043513805
0.0043331611
0.0043160699
0.004300018
0.0042849534
0.004270785
0.0042574206
0.0042448207
0.0042329377
0.0042217587
0.0042112672
0.0042014194
0.0041922574
0.0041837689
0.0041758686
0.0041685067
0.0041616406
0.0041552247
0.0041492401
0.0041436765
0.0041385473
0.004133865
0.0041296131
0.00412582
0.0041223618
0.0041193403
0.0041163253
0.0041133796
0.004110785
0.00410829
0.0041062389
0.0041032541
0.0041049619
0.10545908
0.1073077
0.10921342
0.1111914
0.11324338
0.11537079
0.1175749
0.11985694
0.12221812
0.12465953
0.12718221
0.12978708
0.13247497
0.1352466
0.13810256
0.14104326
0.14406887
0.14717916
0.15037277
0.15356718
0.15674352
0.15997324
0.16325157
0.16657391
0.16993517
0.17332969
0.17675108
0.18019221
0.1836452
0.18710135
0.19055096
0.1939835
0.19738742
0.20075014
0.20405806
0.20729648
0.21044958
0.21350029
0.21643051
0.21922107
0.22185181
0.22430168
0.22654856
0.22856969
0.23034167
0.23184072
0.23304325
0.23392569
0.23446493
0.23463965
0.2344313
0.23382374
0.23280219
0.23135283
0.22946426
0.22712979
0.2243474
0.22111881
0.21745012
0.21334945
0.20882412
0.20387316
0.19847559
0.19260648
0.18626024
0.17944771
0.17219033
0.16451577
0.15645675
0.14804639
0.13931835
0.13031146
0.1210702
0.11164502
0.10208981
0.09246474
0.082842471
0.073309437
0.063960594
0.054895016
0.046210506
0.038005815
0.030387952
0.023478701
0.017405238
0.012307549
0.0083543386
0.0057800937
0.0047099949
0.004482387
0.0044346012
0.0044089741
0.0043868272
0.0043662851
0.0043471097
0.0043291778
0.0043123476
0.0042965346
0.0042816887
0.0042677206
0.00425454
0.0042421099
0.0042303849
0.0042193534
0.0042090008
0.0041992838
0.0041902447
0.0041818703
0.0041740748
0.0041668082
0.0041600282
0.0041536892
0.0041477742
0.0041422755
0.0041372074
0.0041325805
0.0041283785
0.00412463
0.0041212125
0.0041182313
0.0041152547
0.0041123509
0.0041098025
0.0041073617
0.0041053726
0.0041024684
0.0041041808
0.11159911
0.11338351
0.11522124
0.11712971
0.1191107
0.12116563
0.12329584
0.12550263
0.1277872
0.13015071
0.13259419
0.1351186
0.13772479
0.14041347
0.1431852
0.14604038
0.14897915
0.15200131
0.15510548
0.15820267
0.16127293
0.16439404
0.16756096
0.17076895
0.17401266
0.17728615
0.18058287
0.18389548
0.18721591
0.1905352
0.19384356
0.1971303
0.2003838
0.20359146
0.20673968
0.20981377
0.21279797
0.21567548
0.21842832
0.22103762
0.2234836
0.22574546
0.22780157
0.22962972
0.23120715
0.23251088
0.23351812
0.2342062
0.23455326
0.23453959
0.23414799
0.23336319
0.23217086
0.23055783
0.22851409
0.22603444
0.22311767
0.2197664
0.21598649
0.21178466
0.2071655
0.20212071
0.19662445
0.19065792
0.18422198
0.17733046
0.17000597
0.16227677
0.15417542
0.14573421
0.13698699
0.12797309
0.11873768
0.1093315
0.09980877
0.090231092
0.080673223
0.071222705
0.061974683
0.053026851
0.044475663
0.036419267
0.028966632
0.022239925
0.016366258
0.011488448
0.0077817732
0.0054891404
0.004635995
0.0044680838
0.0044280462
0.0044035335
0.0043818303
0.004361642
0.0043427857
0.0043251442
0.0043085777
0.0042930062
0.0042783815
0.0042646159
0.0042516214
0.0042393634
0.0042277984
0.0042169166
0.0042067045
0.0041971201
0.0041882053
0.004179946
0.004172256
0.0041650852
0.0041583916
0.0041521299
0.0041462851
0.0041408523
0.004135846
0.0041312752
0.0041271234
0.00412342
0.004120044
0.0041171037
0.0041141666
0.0041113058
0.0041088049
0.0041064202
0.004104495
0.0041016737
0.0041033905
0.11782596
0.11954775
0.12131868
0.12315867
0.12506946
0.12705251
0.12910917
0.13124077
0.13344855
0.13573367
0.1380972
0.1405401
0.14306321
0.14566724
0.14835273
0.15112005
0.15396932
0.15690029
0.15991163
0.16290753
0.16586699
0.16887443
0.17192458
0.17501254
0.17813283
0.18127929
0.18444512
0.18762285
0.19080418
0.19398006
0.19714058
0.20027497
0.20337161
0.20641788
0.2094002
0.21230394
0.21511343
0.21781204
0.22038214
0.22280516
0.22506154
0.22713085
0.228992
0.23062329
0.23200271
0.2331081
0.23391749
0.23440924
0.2345629
0.23436026
0.23378524
0.23282317
0.23146023
0.22968416
0.22748651
0.22486329
0.22181411
0.21834213
0.21445234
0.21014986
0.20543508
0.20029172
0.19469342
0.1886291
0.18210451
0.17513573
0.16774621
0.15996472
0.15182342
0.14335385
0.1345903
0.12557258
0.11634659
0.10696326
0.097477372
0.087952147
0.078464397
0.069102534
0.059961634
0.051137667
0.042725952
0.03482447
0.027544333
0.021007598
0.015341792
0.010693115
0.007244751
0.0052412738
0.004579637
0.0044561642
0.0044216672
0.0043980517
0.0043767762
0.0043569431
0.0043384087
0.0043210604
0.0043047604
0.0042894328
0.0042750316
0.0042614709
0.0042486648
0.0042365811
0.0042251783
0.0042144482
0.0042043787
0.0041949283
0.0041861392
0.004177996
0.0041704122
0.0041633376
0.0041567306
0.0041505469
0.0041447729
0.0041394065
0.0041344628
0.0041299488
0.0041258478
0.0041221899
0.0041188558
0.0041159573
0.0041130605
0.004110244
0.0041077921
0.0041054656
0.0041036064
0.0041008701
0.004102591
0.12412767
0.12578837
0.12749357
0.12926596
0.13110722
0.1330188
0.1350021
0.13705845
0.13918911
0.14139526
0.14367796
0.14603817
0.14847674
0.15099434
0.1535915
0.15626855
0.15902557
0.16186229
0.16477736
0.16766784
0.17051175
0.17340055
0.17632866
0.17929106
0.18228211
0.18529553
0.18832439
0.19136097
0.19439688
0.19742297
0.20042929
0.20340507
0.20633866
0.20921746
0.21202794
0.21475555
0.21738481
0.21989929
0.22228161
0.22451348
0.22657567
0.22844821
0.23011048
0.23154145
0.23271985
0.23362432
0.2342338
0.23452783
0.23448741
0.23409566
0.23333733
0.23219824
0.23066525
0.22872731
0.22637741
0.22361262
0.22043333
0.21684255
0.21284402
0.20844083
0.20362725
0.19838042
0.19267801
0.18651633
0.1799046
0.17286059
0.1654084
0.15757719
0.14939855
0.14090338
0.13212659
0.12310855
0.11389583
0.10453955
0.095095238
0.085627948
0.076216419
0.066949699
0.057922444
0.049228715
0.040962885
0.033223384
0.026123323
0.019784287
0.014334923
0.009925258
0.0067479552
0.0050363786
0.0045373067
0.0044459492
0.0044153918
0.0043925227
0.0043716644
0.0043521883
0.0043339785
0.0043169263
0.0043008954
0.0042858142
0.0042716391
0.0042582857
0.0042456701
0.004233763
0.0042225247
0.0042119484
0.0042020232
0.0041927086
0.0041840464
0.0041760203
0.0041685433
0.0041615652
0.0041550453
0.0041489398
0.0041432373
0.0041379381
0.0041330577
0.004128601
0.0041245512
0.0041209392
0.0041176478
0.0041147919
0.0041119365
0.0041091655
0.0041067642
0.0041044979
0.0041027065
0.0041000578
0.0041017825
0.1304905
0.13209159
0.13373203
0.13543756
0.13720981
0.13905023
0.14096023
0.14294114
0.14499424
0.1471207
0.14932158
0.15159784
0.1539503
0.1563796
0.15888624
0.16147053
0.1641325
0.16687185
0.16968722
0.17246817
0.17519179
0.17795701
0.18075793
0.18358933
0.18644549
0.18932001
0.19220585
0.19509522
0.19797961
0.20084983
0.20369592
0.20650711
0.20927175
0.21197731
0.21461033
0.2171564
0.21960027
0.22192568
0.22411549
0.22615171
0.22801548
0.22968729
0.23114721
0.23237485
0.23334962
0.23405112
0.23445928
0.23455482
0.23432017
0.23373954
0.23279828
0.2314828
0.22978086
0.22768268
0.22518264
0.22227872
0.21897172
0.21526386
0.21115749
0.20665249
0.20173559
0.19638113
0.19057382
0.18431588
0.17761892
0.17050202
0.16298984
0.15511175
0.14689854
0.13838085
0.12959422
0.12057968
0.11138439
0.10205972
0.092662144
0.083258714
0.073929902
0.064765153
0.05585826
0.047301437
0.039188203
0.031618184
0.02470609
0.018572874
0.013349051
0.0091890455
0.006296242
0.0048723559
0.0045056515
0.0044369118
0.0044091674
0.0043869418
0.0043664946
0.0043473778
0.0043294955
0.0043127421
0.004296983
0.0042821506
0.0042682039
0.0042550602
0.0042426375
0.0042309093
0.0042198376
0.0042094172
0.0041996383
0.0041904611
0.004181927
0.0041740191
0.0041666492
0.0041597679
0.0041533353
0.0041473086
0.004141678
0.0041364467
0.0041316305
0.0041272316
0.0041232334
0.0041196679
0.0041164198
0.0041136072
0.0041107944
0.0041080702
0.004105721
0.0041035171
0.0041017958
0.0040992367
0.0041009651
0.1368991
0.13844188
0.14001841
0.14165771
0.14336134
0.14513077
0.14696739
0.14887256
0.15084753
0.15289348
0.15501146
0.15720239
0.15946707
0.16180612
0.16422001
0.16670898
0.16927305
0.1719119
0.17462413
0.17729148
0.17989012
0.18252686
0.18519548
0.18789061
0.19060637
0.19333635
0.19607339
0.19880971
0.2015368
0.20424542
0.20692558
0.20956653
0.21215668
0.21468361
0.21713395
0.2194935
0.22174716
0.22387888
0.22587178
0.2277082
0.22936971
0.23083742
0.232092
0.2331137
0.23388283
0.23437991
0.23458589
0.23448285
0.23405434
0.2332854
0.23216196
0.23067122
0.22880193
0.22654566
0.22389802
0.22085774
0.21742537
0.21360192
0.2093881
0.20477868
0.19975331
0.19428843
0.18837658
0.18202401
0.17524412
0.168057
0.1604878
0.1525659
0.14432117
0.13578433
0.12699159
0.11798472
0.10881136
0.099523245
0.090178017
0.080844838
0.071605645
0.062550038
0.053770395
0.045357406
0.037403881