/*--------------------------------*- C++ -*----------------------------------*\
| =========                 |                                                 |
| \\      /  F ield         | OpenFOAM: The Open Source CFD Toolbox           |
|  \\    /   O peration     | Version:  2406                                  |
|   \\  /    A nd           | Website:  www.openfoam.com                      |
|    \\/     M anipulation  |                                                 |
\*---------------------------------------------------------------------------*/
FoamFile
{
    version     2.0;
    format      ascii;
    arch        "LSB;label=32;scalar=64";
    class       volScalarField;
    location    "0.018";
    object      pMean;
}
// * * * * * * * * * * * * * * * * * * * * * * * * * * * * * * * * * * * * * //

dimensions      [1 -1 -2 0 0 0 0];

internalField   nonuniform List<scalar> 
92813
(
101297.27
101221.32
101182.87
101138.53
101092.53
101050.24
101012.66
100979.49
100950.42
100925.13
100903.1
100884.24
100868.48
100855.21
100844.27
100835.35
100828.26
100823
100819.38
100817.34
100816.76
100817.43
100819.16
100821.86
100825.44
100829.75
100834.75
100840.35
100846.46
100853.03
100859.98
100867.3
100874.92
100882.8
100890.95
100899.26
100907.65
100916.13
100924.66
100933.28
100942
100950.8
100959.68
100968.63
100977.6
100986.58
100995.58
101004.56
101013.54
101022.53
101031.49
101040.43
101049.31
101058.15
101066.93
101075.65
101084.29
101092.86
101101.36
101109.76
101118.06
101126.26
101134.36
101142.34
101150.21
101157.96
101165.56
101172.99
101180.23
101187.3
101194.15
101200.81
101207.26
101213.49
101219.5
101225.29
101230.85
101236.18
101241.28
101246.14
101250.76
101255.14
101259.29
101263.22
101266.94
101270.41
101273.65
101276.68
101279.45
101281.85
101284.41
101286.81
101289.05
101291.17
101293.21
101295.17
101297.05
101298.85
101300.58
101302.24
101303.82
101305.34
101306.78
101308.16
101309.48
101310.74
101311.93
101313.07
101314.15
101315.17
101316.15
101317.07
101317.94
101318.76
101319.52
101320.24
101320.92
101321.53
101322.1
101322.62
101323.09
101323.5
101323.87
101324.16
101324.41
101324.57
101324.71
101449.26
101392.58
101341.55
101285.5
101232.04
101183.67
101140.12
101101.12
101066.2
101034.98
101007.28
100982.99
100961.73
100943.21
100927.09
100913.11
100901.3
100891.53
100883.59
100877.51
100873.16
100870.35
100868.88
100868.65
100869.56
100871.46
100874.31
100877.97
100882.34
100887.35
100892.93
100899.03
100905.56
100912.48
100919.74
100927.25
100934.94
100942.75
100950.65
100958.66
100966.8
100975.05
100983.4
100991.82
101000.25
101008.64
101017.01
101025.35
101033.7
101042.04
101050.38
101058.7
101066.97
101075.18
101083.34
101091.44
101099.46
101107.42
101115.3
101123.08
101130.76
101138.33
101145.79
101153.13
101160.35
101167.46
101174.41
101181.19
101187.8
101194.24
101200.5
101206.58
101212.47
101218.17
101223.68
101229
101234.12
101239.05
101243.79
101248.32
101252.67
101256.82
101260.77
101264.56
101268.16
101271.57
101274.78
101277.8
101280.56
101282.96
101285.53
101287.85
101290.05
101292.13
101294.13
101296.05
101297.9
101299.67
101301.37
101302.99
101304.55
101306.03
101307.46
101308.82
101310.11
101311.35
101312.52
101313.64
101314.71
101315.72
101316.68
101317.58
101318.44
101319.24
101320
101320.71
101321.37
101321.98
101322.54
101323.06
101323.52
101323.93
101324.29
101324.58
101324.82
101324.98
101325.12
101531.13
101482.05
101425.18
101364.92
101308.91
101258.38
101212.73
101171.37
101133.92
101100.22
101070.11
101043.28
101019.45
100998.38
100979.77
100963.4
100949.22
100937.09
100926.87
100918.56
100912.06
100907.16
100903.66
100901.5
100900.54
100900.67
100901.82
100903.86
100906.68
100910.22
100914.4
100919.15
100924.41
100930.1
100936.17
100942.54
100949.16
100955.95
100962.88
100969.98
100977.25
100984.68
100992.24
100999.9
101007.57
101015.23
101022.9
101030.6
101038.35
101046.16
101054.01
101061.9
101069.78
101077.66
101085.53
101093.38
101101.22
101109.02
101116.77
101124.46
101132.08
101139.62
101147.07
101154.42
101161.66
101168.8
101175.78
101182.61
101189.27
101195.77
101202.08
101208.21
101214.15
101219.9
101225.44
101230.78
101235.92
101240.85
101245.57
101250.09
101254.4
101258.5
101262.39
101266.12
101269.66
101272.99
101276.14
101279.11
101281.79
101284.15
101286.7
101288.94
101291.09
101293.12
101295.08
101296.96
101298.77
101300.51
101302.17
101303.77
101305.3
101306.76
101308.15
101309.49
101310.76
101311.97
101313.13
101314.23
101315.28
101316.27
101317.21
101318.1
101318.95
101319.74
101320.49
101321.19
101321.84
101322.44
101323
101323.5
101323.96
101324.36
101324.71
101325
101325.24
101325.4
101325.53
101600.55
101553.28
101495.87
101435.08
101378.14
101326.29
101278.95
101235.69
101196.31
101160.62
101128.26
101099.08
101073.06
101049.81
101029
101010.49
100994.26
100980.12
100967.94
100957.68
100949.27
100942.51
100937.23
100933.34
100930.7
100929.22
100928.81
100929.35
100930.75
100932.93
100935.83
100939.35
100943.44
100948.04
100953.08
100958.48
100964.21
100970.19
100976.4
100982.84
100989.49
100996.34
101003.36
101010.51
101017.68
101024.87
101032.1
101039.38
101046.74
101054.17
101061.67
101069.21
101076.77
101084.34
101091.91
101099.48
101107.04
101114.58
101122.07
101129.52
101136.89
101144.2
101151.42
101158.54
101165.58
101172.51
101179.29
101185.93
101192.41
101198.74
101204.9
101210.88
101216.69
101222.31
101227.74
101232.98
101238.02
101242.87
101247.52
101251.97
101256.21
101260.25
101264.09
101267.75
101271.23
101274.5
101277.58
101280.47
101283.05
101285.38
101287.88
101290.05
101292.14
101294.13
101296.05
101297.89
101299.66
101301.37
101303
101304.56
101306.06
101307.49
101308.86
101310.17
101311.42
101312.61
101313.75
101314.83
101315.86
101316.84
101317.76
101318.64
101319.47
101320.25
101320.99
101321.67
101322.32
101322.91
101323.46
101323.95
101324.4
101324.8
101325.15
101325.43
101325.67
101325.82
101325.96
101663.15
101616.09
101559.46
101499.41
101442.52
101390.14
101341.86
101297.4
101256.56
101219.18
101185.08
101154.14
101126.11
101100.81
101078
101057.54
101039.4
101023.34
101009.26
100997.15
100986.88
100978.32
100971.31
100965.72
100961.45
100958.39
100956.45
100955.53
100955.54
100956.38
100958
100960.32
100963.25
100966.75
100970.75
100975.17
100979.98
100985.1
100990.5
100996.18
101002.1
101008.24
101014.59
101021.09
101027.7
101034.36
101041.12
101047.95
101054.89
101061.91
101069.01
101076.18
101083.39
101090.63
101097.89
101105.17
101112.45
101119.72
101126.97
101134.18
101141.34
101148.45
101155.47
101162.43
101169.3
101176.06
101182.69
101189.19
101195.54
101201.74
101207.77
101213.64
101219.33
101224.84
101230.17
101235.31
101240.26
101245.01
101249.57
101253.93
101258.09
101262.06
101265.82
101269.42
101272.83
101276.04
101279.05
101281.86
101284.34
101286.64
101289.09
101291.19
101293.22
101295.17
101297.04
101298.85
101300.58
101302.24
101303.84
101305.37
101306.84
101308.24
101309.59
101310.87
101312.1
101313.27
101314.38
101315.44
101316.46
101317.41
101318.32
101319.18
101320
101320.77
101321.49
101322.17
101322.8
101323.39
101323.92
101324.41
101324.86
101325.24
101325.59
101325.87
101326.1
101326.26
101326.39
101717.39
101670.41
101614.9
101556.21
101500.07
101447.85
101399.32
101354.24
101312.48
101273.99
101238.6
101206.17
101176.57
101149.61
101125.14
101103.04
101083.11
101065.29
101049.54
101035.71
101023.73
101013.51
101004.87
100997.69
100991.87
100987.3
100983.9
100981.57
100980.23
100979.78
100980.15
100981.28
100983.08
100985.5
100988.46
100991.91
100995.79
101000.06
101004.66
101009.57
101014.77
101020.22
101025.91
101031.81
101037.84
101043.98
101050.25
101056.63
101063.13
101069.74
101076.44
101083.25
101090.11
101097.02
101103.97
101110.95
101117.95
101124.96
101131.96
101138.94
101145.88
101152.77
101159.6
101166.37
101173.07
101179.66
101186.13
101192.47
101198.68
101204.74
101210.65
101216.4
101221.98
101227.38
101232.61
101237.65
101242.51
101247.17
101251.65
101255.93
101260.01
101263.9
101267.59
101271.12
101274.46
101277.59
101280.53
101283.27
101285.64
101287.94
101290.31
101292.34
101294.32
101296.22
101298.05
101299.82
101301.51
101303.14
101304.7
101306.2
101307.64
101309.01
101310.33
101311.59
101312.79
101313.93
101315.03
101316.07
101317.06
101318
101318.9
101319.74
101320.54
101321.3
101322.01
101322.67
101323.29
101323.87
101324.4
101324.88
101325.31
101325.7
101326.04
101326.31
101326.55
101326.7
101326.83
101763.87
101716.98
101662.87
101605.95
101551.06
101499.55
101451.28
101406.1
101363.96
101324.79
101288.5
101255.02
101224.21
101195.94
101170.09
101146.52
101125.13
101105.85
101088.54
101073.13
101059.61
101047.89
101037.76
101029.09
101021.82
101015.84
101011.06
101007.4
101004.76
101003.06
101002.25
101002.22
101002.92
101004.29
101006.25
101008.75
101011.74
101015.15
101018.95
101023.12
101027.6
101032.37
101037.42
101042.71
101048.17
101053.79
101059.57
101065.49
101071.55
101077.74
101084.06
101090.49
101096.99
101103.57
101110.2
101116.88
101123.61
101130.35
101137.09
101143.83
101150.55
101157.22
101163.86
101170.44
101176.96
101183.37
101189.67
101195.86
101201.92
101207.84
101213.62
101219.25
101224.71
101230
101235.12
101240.06
101244.82
101249.4
101253.78
101257.98
101261.98
101265.79
101269.41
101272.85
101276.12
101279.18
101282.05
101284.7
101286.98
101289.27
101291.56
101293.52
101295.44
101297.3
101299.09
101300.81
101302.46
101304.05
101305.58
101307.04
101308.45
101309.8
101311.08
101312.31
101313.49
101314.62
101315.69
101316.71
101317.68
101318.6
101319.48
101320.31
101321.09
101321.84
101322.54
101323.19
101323.8
101324.36
101324.88
101325.36
101325.79
101326.16
101326.5
101326.77
101327
101327.15
101327.28
101803.33
101756.74
101704.39
101649.54
101596.25
101545.82
101498.22
101453.36
101411.22
101371.77
101334.99
101300.79
101269.09
101239.82
101212.86
101188.12
101165.49
101144.87
101126.19
101109.44
101094.6
101081.49
101069.92
101059.89
101051.29
101043.97
101037.9
101032.99
101029.12
101026.23
101024.27
101023.14
101022.78
101023.13
101024.12
101025.69
101027.8
101030.37
101033.39
101036.8
101040.58
101044.67
101049.08
101053.76
101058.66
101063.75
101069.03
101074.49
101080.11
101085.88
101091.81
101097.86
101104.01
101110.24
101116.56
101122.94
101129.38
101135.85
101142.34
101148.83
101155.32
101161.78
101168.21
101174.6
101180.93
101187.16
101193.3
101199.33
101205.24
101211.03
101216.67
101222.16
101227.5
101232.68
101237.7
101242.53
101247.19
101251.68
101255.97
101260.08
101264
101267.73
101271.26
101274.63
101277.82
101280.81
101283.6
101286.16
101288.34
101290.62
101292.81
101294.72
101296.6
101298.4
101300.15
101301.82
101303.44
101304.98
101306.48
101307.91
101309.28
101310.59
101311.85
101313.06
101314.21
101315.31
101316.36
101317.36
101318.31
101319.21
101320.08
101320.89
101321.66
101322.39
101323.07
101323.71
101324.31
101324.87
101325.38
101325.84
101326.26
101326.64
101326.96
101327.23
101327.46
101327.61
101327.74
101836.36
101790.51
101740.18
101687.58
101636.13
101587.08
101540.46
101496.24
101454.42
101415.04
101378.07
101343.47
101311.2
101281.2
101253.39
101227.71
101204.05
101182.33
101162.5
101144.56
101128.48
101114.11
101101.34
101090.08
101080.2
101071.64
101064.37
101058.27
101053.25
101049.23
101046.18
101043.99
101042.6
101041.97
101042.01
101042.69
101043.93
101045.69
101047.93
101050.6
101053.67
101057.11
101060.89
101064.97
101069.29
101073.86
101078.65
101083.63
101088.81
101094.17
101099.69
101105.38
101111.16
101117.05
101123.05
101129.13
101135.28
101141.47
101147.7
101153.95
101160.21
101166.44
101172.67
101178.86
101185
101191.05
101197.02
101202.89
101208.65
101214.29
101219.79
101225.16
101230.38
101235.44
101240.34
101245.07
101249.63
101254.01
101258.22
101262.23
101266.06
101269.7
101273.16
101276.45
101279.56
101282.47
101285.18
101287.63
101289.74
101292.01
101294.09
101295.95
101297.77
101299.53
101301.22
101302.85
101304.42
101305.94
101307.39
101308.79
101310.13
101311.41
101312.64
101313.82
101314.94
101316.02
101317.04
101318.02
101318.95
101319.84
101320.68
101321.48
101322.23
101322.95
101323.62
101324.25
101324.84
101325.38
101325.88
101326.34
101326.76
101327.12
101327.44
101327.7
101327.93
101328.07
101328.21
101863.95
101819.28
101771.09
101720.8
101671.29
101623.78
101578.35
101535.01
101493.79
101454.72
101417.84
101383.12
101350.54
101320.07
101291.65
101265.24
101240.77
101218.15
101197.35
101178.37
101161.23
101145.78
101131.88
101119.48
101108.48
101098.82
101090.41
101083.19
101077.07
101071.99
101067.9
101064.71
101062.35
101060.77
101059.91
101059.71
101060.12
101061.08
101062.56
101064.51
101066.89
101069.66
101072.82
101076.3
101080.07
101084.12
101088.41
101092.92
101097.66
101102.6
101107.72
101113.02
101118.45
101124
101129.67
101135.44
101141.3
101147.21
101153.18
101159.18
101165.2
101171.22
101177.23
101183.23
101189.17
101195.04
101200.83
101206.54
101212.14
101217.63
101223
101228.23
101233.32
101238.26
101243.05
101247.67
101252.12
101256.41
101260.51
101264.43
101268.18
101271.73
101275.1
101278.32
101281.34
101284.16
101286.79
101289.13
101291.18
101293.41
101295.39
101297.2
101298.97
101300.67
101302.32
101303.91
101305.44
101306.91
101308.33
101309.68
101310.99
101312.24
101313.45
101314.59
101315.69
101316.74
101317.74
101318.7
101319.61
101320.48
101321.3
101322.08
101322.82
101323.52
101324.17
101324.79
101325.37
101325.9
101326.4
101326.85
101327.26
101327.61
101327.93
101328.19
101328.41
101328.55
101328.68
101887.19
101844.09
101797.97
101749.84
101702.25
101656.35
101612.25
101569.95
101529.51
101490.99
101454.41
101419.8
101387.15
101356.43
101327.63
101300.7
101275.6
101252.27
101230.67
101210.85
101192.79
101176.38
101161.5
101148.09
101136.07
101125.38
101115.94
101107.7
101100.58
101094.5
101089.41
101085.26
101081.98
101079.5
101077.76
101076.72
101076.32
101076.51
101077.24
101078.49
101080.19
101082.32
101084.86
101087.76
101090.98
101094.5
101098.29
101102.34
101106.64
101111.15
101115.88
101120.8
101125.86
101131.07
101136.42
101141.88
101147.44
101153.08
101158.78
101164.53
101170.31
101176.1
101181.9
101187.69
101193.43
101199.12
101204.74
101210.28
101215.72
101221.06
101226.28
101231.38
101236.34
101241.16
101245.83
101250.34
101254.69
101258.86
101262.87
101266.69
101270.34
101273.81
101277.1
101280.22
101283.16
101285.89
101288.44
101290.66
101292.66
101294.84
101296.73
101298.48
101300.19
101301.85
101303.44
101304.98
101306.47
101307.9
101309.28
101310.6
101311.87
101313.09
101314.26
101315.38
101316.45
101317.48
101318.45
101319.39
101320.28
101321.13
101321.93
101322.69
101323.42
101324.1
101324.75
101325.35
101325.91
101326.44
101326.92
101327.36
101327.76
101328.11
101328.42
101328.68
101328.9
101329.04
101329.16
101906.62
101865.5
101821.3
101775.18
101729.45
101685.19
101642.48
101601.34
101561.83
101524.01
101487.92
101453.61
101421.07
101390.32
101361.32
101334.07
101308.53
101284.67
101262.45
101241.92
101223.11
101205.87
101190.14
101175.84
101162.9
101151.28
101140.91
101131.73
101123.67
101116.67
101110.68
101105.62
101101.46
101098.11
101095.54
101093.7
101092.52
101091.96
101091.98
101092.53
101093.57
101095.07
101097.01
101099.33
101102
101105.01
101108.31
101111.89
101115.75
101119.84
101124.17
101128.7
101133.41
101138.28
101143.3
101148.44
101153.71
101159.06
101164.5
101170
101175.53
101181.09
101186.68
101192.26
101197.8
101203.3
101208.74
101214.1
101219.39
101224.58
101229.65
101234.61
101239.44
101244.13
101248.68
101253.07
101257.31
101261.38
101265.28
101269.01
101272.56
101275.93
101279.13
101282.17
101285.01
101287.66
101290.11
101292.21
101294.19
101296.29
101298.08
101299.79
101301.44
101303.04
101304.59
101306.08
101307.52
101308.91
101310.25
101311.54
101312.77
101313.96
101315.1
101316.19
101317.23
101318.23
101319.18
101320.09
101320.96
101321.78
101322.57
101323.32
101324.02
101324.7
101325.32
101325.91
101326.47
101326.98
101327.45
101327.89
101328.28
101328.62
101328.93
101329.18
101329.39
101329.53
101329.65
101922.5
101883.66
101841.32
101797.1
101753.19
101710.57
101669.31
101629.4
101590.93
101553.95
101518.51
101484.65
101452.41
101421.78
101392.77
101365.38
101339.57
101315.32
101292.63
101271.56
101252.12
101234.21
101217.75
101202.67
101188.94
101176.49
101165.28
101155.24
101146.33
101138.47
101131.63
101125.74
101120.75
101116.59
101113.22
101110.6
101108.68
101107.4
101106.72
101106.61
101107.01
101107.89
101109.24
101111
101113.13
101115.62
101118.44
101121.56
101124.98
101128.65
101132.58
101136.74
101141.08
101145.61
101150.29
101155.13
101160.09
101165.17
101170.33
101175.57
101180.86
101186.2
101191.57
101196.93
101202.26
101207.57
101212.83
101218.02
101223.15
101228.17
101233.1
101237.92
101242.61
101247.18
101251.6
101255.87
101259.99
101263.96
101267.75
101271.38
101274.83
101278.1
101281.21
101284.16
101286.91
101289.46
101291.81
101293.8
101295.75
101297.76
101299.48
101301.12
101302.72
101304.26
101305.76
101307.21
101308.6
101309.95
101311.24
101312.49
101313.69
101314.84
101315.95
101317.01
101318.03
101319
101319.92
101320.81
101321.66
101322.46
101323.23
101323.96
101324.64
101325.3
101325.91
101326.49
101327.03
101327.54
101328
101328.42
101328.81
101329.14
101329.44
101329.69
101329.9
101330.03
101330.16
101934.98
101898.67
101858.19
101815.82
101773.73
101732.76
101692.97
101654.37
101617.02
101580.98
101546.3
101513.04
101481.23
101450.88
101422.01
101394.62
101368.71
101344.24
101321.23
101299.74
101279.82
101261.36
101244.29
101228.56
101214.13
101200.96
101189
101178.2
101168.5
101159.87
101152.23
101145.56
101139.8
101134.88
101130.77
101127.42
101124.79
101122.82
101121.45
101120.7
101120.47
101120.77
101121.54
101122.74
101124.35
101126.34
101128.68
101131.35
101134.33
101137.58
101141.12
101144.89
101148.87
101153.05
101157.42
101161.94
101166.6
101171.39
101176.28
101181.26
101186.31
101191.41
101196.55
101201.7
101206.83
101211.95
101217.02
101222.04
101226.99
101231.86
101236.64
101241.31
101245.86
101250.29
101254.59
101258.75
101262.75
101266.6
101270.28
101273.81
101277.15
101280.33
101283.34
101286.19
101288.84
101291.31
101293.54
101295.42
101297.36
101299.25
101300.89
101302.47
101304.01
101305.5
101306.95
101308.35
101309.7
101311
101312.26
101313.46
101314.63
101315.75
101316.82
101317.85
101318.83
101319.78
101320.68
101321.54
101322.37
101323.15
101323.9
101324.61
101325.28
101325.92
101326.52
101327.08
101327.61
101328.1
101328.55
101328.96
101329.34
101329.67
101329.97
101330.21
101330.41
101330.55
101330.66
101944.36
101910.69
101872.1
101831.57
101791.26
101751.96
101713.68
101676.43
101640.27
101605.25
101571.44
101538.89
101507.63
101477.69
101449.09
101421.85
101395.96
101371.42
101348.22
101326.46
101306.18
101287.29
101269.73
101253.46
101238.44
101224.64
101212.02
101200.54
101190.15
101180.81
101172.46
101165.07
101158.59
101152.96
101148.15
101144.11
101140.8
101138.17
101136.18
101134.79
101133.96
101133.67
101133.89
101134.56
101135.65
101137.15
101139.02
101141.23
101143.78
101146.63
101149.77
101153.17
101156.79
101160.62
101164.65
101168.86
101173.23
101177.73
101182.35
101187.07
101191.86
101196.74
101201.65
101206.57
101211.5
101216.42
101221.31
101226.15
101230.93
101235.64
101240.25
101244.78
101249.19
101253.49
101257.65
101261.68
101265.57
101269.3
101272.88
101276.29
101279.53
101282.6
101285.52
101288.27
101290.82
101293.18
101295.29
101297.08
101298.99
101300.77
101302.34
101303.86
101305.34
101306.77
101308.17
101309.52
101310.82
101312.08
101313.29
101314.46
101315.58
101316.67
101317.71
101318.7
101319.66
101320.57
101321.45
101322.29
101323.09
101323.86
101324.58
101325.27
101325.93
101326.55
101327.13
101327.68
101328.19
101328.68
101329.12
101329.52
101329.89
101330.21
101330.5
101330.74
101330.94
101331.07
101331.18
101950.96
101919.94
101883.23
101844.53
101806.01
101768.38
101731.63
101695.77
101660.85
101626.93
101594.07
101562.32
101531.72
101502.3
101474.09
101447.12
101421.38
101396.88
101373.63
101351.72
101331.19
101311.99
101294.05
101277.35
101261.84
101247.52
101234.33
101222.25
101211.24
101201.26
101192.27
101184.22
101177.08
101170.79
101165.33
101160.65
101156.7
101153.44
101150.84
101148.85
101147.45
101146.61
101146.28
101146.43
101147.02
101148.03
101149.44
101151.22
101153.33
101155.77
101158.53
101161.55
101164.81
101168.31
101172.01
101175.91
101179.97
101184.19
101188.53
101192.98
101197.54
101202.17
101206.85
101211.55
101216.27
101220.99
101225.69
101230.35
101234.96
101239.5
101243.96
101248.33
101252.6
101256.75
101260.79
101264.69
101268.46
101272.07
101275.53
101278.83
101281.96
101284.92
101287.75
101290.39
101292.83
101295.09
101297.07
101298.78
101300.65
101302.31
101303.81
101305.27
101306.69
101308.07
101309.41
101310.7
101311.96
101313.17
101314.34
101315.47
101316.56
101317.6
101318.61
101319.58
101320.5
101321.39
101322.24
101323.05
101323.83
101324.57
101325.27
101325.95
101326.58
101327.19
101327.76
101328.29
101328.79
101329.26
101329.69
101330.09
101330.45
101330.76
101331.05
101331.27
101331.47
101331.61
101331.72
101955.12
101926.63
101891.79
101854.91
101818.17
101782.21
101747
101712.56
101678.92
101646.15
101614.31
101583.44
101553.59
101524.79
101497.08
101470.48
101445
101420.65
101397.46
101375.52
101354.87
101335.46
101317.25
101300.2
101284.32
101269.55
101255.88
101243.3
101231.75
101221.2
101211.63
101202.99
101195.25
101188.36
101182.29
101177
101172.46
101168.61
101165.43
101162.89
101160.93
101159.55
101158.69
101158.33
101158.44
101158.99
101159.94
101161.28
101162.98
101165.02
101167.39
101170.04
101172.95
101176.1
101179.48
101183.06
101186.82
101190.75
101194.82
101199.01
101203.32
101207.71
101212.15
101216.63
101221.14
101225.66
101230.17
101234.64
101239.08
101243.45
101247.75
101251.97
101256.09
101260.1
101264
101267.78
101271.41
101274.9
101278.24
101281.43
101284.44
101287.3
101290.01
101292.55
101294.89
101297.04
101298.88
101300.53
101302.34
101303.88
101305.31
101306.71
101308.07
101309.39
101310.68
101311.92
101313.13
101314.29
101315.42
101316.5
101317.55
101318.56
101319.53
101320.47
101321.36
101322.22
101323.04
101323.83
101324.58
101325.3
101325.98
101326.63
101327.25
101327.84
101328.39
101328.92
101329.4
101329.86
101330.28
101330.66
101331.02
101331.32
101331.6
101331.83
101332.02
101332.14
101332.26
101957.14
101930.98
101897.95
101862.88
101827.9
101793.62
101759.98
101726.98
101694.66
101663.09
101632.31
101602.39
101573.35
101545.26
101518.13
101491.99
101466.88
101442.78
101419.75
101397.88
101377.2
101357.69
101339.3
101322.02
101305.84
101290.72
101276.67
101263.65
101251.64
101240.6
101230.51
101221.34
101213.06
101205.62
101199
101193.15
101188.05
101183.66
101179.93
101176.85
101174.37
101172.48
101171.12
101170.27
101169.91
101169.99
101170.5
101171.42
101172.71
101174.36
101176.35
101178.64
101181.19
101184
101187.05
101190.32
101193.79
101197.43
101201.22
101205.15
101209.2
101213.35
101217.56
101221.82
101226.12
101230.43
101234.74
101239.03
101243.28
101247.49
101251.63
101255.69
101259.66
101263.53
101267.29
101270.93
101274.43
101277.8
101281.02
101284.08
101286.98
101289.73
101292.33
101294.75
101296.98
101299.01
101300.72
101302.32
101304.04
101305.48
101306.85
101308.18
101309.48
101310.74
101311.97
101313.16
101314.31
101315.43
101316.51
101317.56
101318.57
101319.54
101320.47
101321.37
101322.24
101323.06
101323.86
101324.62
101325.35
101326.04
101326.71
101327.34
101327.94
101328.51
101329.04
101329.55
101330.02
101330.47
101330.88
101331.25
101331.59
101331.9
101332.16
101332.38
101332.57
101332.7
101332.81
101957.08
101933.03
101901.82
101868.57
101835.38
101802.78
101770.72
101739.18
101708.21
101677.87
101648.21
101619.28
101591.13
101563.8
101537.33
101511.74
101487.07
101463.33
101440.55
101418.83
101398.23
101378.71
101360.23
101342.8
101326.41
101311.03
101296.67
101283.3
101270.89
101259.44
101248.91
101239.27
101230.5
101222.56
101215.43
101209.07
101203.46
101198.55
101194.32
101190.73
101187.76
101185.37
101183.54
101182.22
101181.4
101181.04
101181.13
101181.63
101182.52
101183.78
101185.4
101187.32
101189.53
101192.01
101194.74
101197.69
101200.86
101204.22
101207.73
101211.4
101215.2
101219.1
101223.07
101227.11
101231.19
101235.3
101239.41
101243.51
101247.59
101251.62
101255.59
101259.49
101263.31
101267.03
101270.65
101274.15
101277.52
101280.75
101283.85
101286.79
101289.57
101292.21
101294.7
101297
101299.12
101301.02
101302.59
101304.17
101305.76
101307.11
101308.41
101309.67
101310.91
101312.11
101313.28
101314.42
101315.52
101316.6
101317.63
101318.63
101319.6
101320.54
101321.43
101322.3
101323.13
101323.93
101324.69
101325.42
101326.13
101326.8
101327.44
101328.05
101328.64
101329.18
101329.71
101330.2
101330.66
101331.09
101331.49
101331.85
101332.18
101332.48
101332.74
101332.95
101333.14
101333.26
101333.37
101955.06
101933.24
101903.78
101872.27
101840.83
101809.91
101779.42
101749.35
101719.74
101690.66
101662.14
101634.25
101607.03
101580.53
101554.78
101529.81
101505.66
101482.34
101459.89
101438.41
101417.96
101398.52
101380.05
101362.55
101346.03
101330.47
101315.87
101302.22
101289.51
101277.69
101266.78
101256.74
101247.54
101239.16
101231.57
101224.74
101218.66
101213.27
101208.56
101204.5
101201.06
101198.22
101195.93
101194.16
101192.91
101192.13
101191.79
101191.9
101192.39
101193.28
101194.53
101196.09
101197.96
101200.11
101202.52
101205.17
101208.04
101211.1
101214.35
101217.75
101221.3
101224.95
101228.68
101232.5
101236.37
101240.27
101244.18
101248.09
101251.98
101255.84
101259.64
101263.38
101267.04
101270.62
101274.08
101277.44
101280.68
101283.78
101286.75
101289.56
101292.21
101294.74
101297.11
101299.29
101301.29
101303.05
101304.51
101306.05
101307.51
101308.78
101310
101311.2
101312.37
101313.51
101314.62
101315.71
101316.76
101317.78
101318.77
101319.73
101320.65
101321.55
101322.41
101323.24
101324.04
101324.81
101325.54
101326.25
101326.93
101327.57
101328.19
101328.78
101329.34
101329.88
101330.38
101330.86
101331.3
101331.72
101332.11
101332.46
101332.78
101333.07
101333.33
101333.53
101333.72
101333.83
101333.94
101950.55
101931.71
101904.38
101874.43
101844.57
101815.23
101786.29
101757.68
101729.43
101701.61
101674.26
101647.43
101621.18
101595.55
101570.56
101546.27
101522.7
101499.87
101477.83
101456.66
101436.44
101417.15
101398.76
101381.28
101364.7
101349.04
101334.28
101320.42
101307.45
101295.36
101284.12
101273.73
101264.16
101255.39
101247.39
101240.14
101233.63
101227.81
101222.66
101218.16
101214.29
101211
101208.28
101206.09
101204.42
101203.23
101202.5
101202.21
101202.32
101202.85
101203.73
101204.94
101206.47
101208.3
101210.39
101212.74
101215.31
101218.09
101221.07
101224.21
101227.5
101230.9
101234.41
101237.99
101241.64
101245.34
101249.05
101252.77
101256.48
101260.15
101263.78
101267.36
101270.86
101274.28
101277.6
101280.81
101283.91
101286.87
101289.7
101292.38
101294.92
101297.32
101299.56
101301.62
101303.5
101305.11
101306.47
101307.96
101309.29
101310.47
101311.62
101312.75
101313.86
101314.94
101315.99
101317.02
101318.02
101318.99
101319.94
101320.85
101321.73
101322.58
101323.41
101324.2
101324.97
101325.7
101326.41
101327.09
101327.74
101328.36
101328.96
101329.53
101330.07
101330.58
101331.07
101331.53
101331.96
101332.36
101332.74
101333.08
101333.4
101333.68
101333.92
101334.13
101334.3
101334.42
101334.52
101944.79
101927.6
101903.13
101875.3
101846.91
101819.01
101791.53
101764.34
101737.45
101710.89
101684.71
101658.97
101633.71
101608.97
101584.79
101561.22
101538.28
101516.01
101494.42
101473.64
101453.71
101434.64
101416.4
101399
101382.45
101366.74
101351.89
101337.89
101324.74
101312.42
101300.93
101290.24
101280.35
101271.24
101262.88
101255.26
101248.36
101242.14
101236.59
101231.68
101227.4
101223.71
101220.58
101217.99
101215.91
101214.33
101213.23
101212.56
101212.31
101212.48
101213.01
101213.87
101215.07
101216.57
101218.35
101220.4
101222.68
101225.18
101227.89
101230.76
101233.79
101236.95
101240.22
101243.59
101247.02
101250.5
101254.01
101257.54
101261.06
101264.55
101268.01
101271.42
101274.75
101278.02
101281.19
101284.25
101287.2
101290.02
101292.72
101295.26
101297.67
101299.95
101302.06
101304
101305.74
101307.2
101308.47
101309.89
101311.1
101312.2
101313.27
101314.33
101315.37
101316.39
101317.39
101318.36
101319.3
101320.22
101321.12
101321.98
101322.83
101323.64
101324.42
101325.18
101325.91
101326.61
101327.29
101327.94
101328.57
101329.16
101329.74
101330.28
101330.81
101331.3
101331.77
101332.21
101332.63
101333.02
101333.39
101333.72
101334.02
101334.29
101334.53
101334.73
101334.9
101335.01
101335.12
101938.68
101922.62
101899.91
101874.53
101848.06
101821.55
101795.39
101769.55
101743.96
101718.65
101693.64
101668.98
101644.73
101620.91
101597.57
101574.76
101552.49
101530.81
101509.74
101489.39
101469.82
101451.02
101432.99
101415.73
101399.27
101383.59
101368.71
101354.63
101341.35
101328.86
101317.17
101306.25
101296.1
101286.69
101278.03
101270.07
101262.82
101256.25
101250.33
101245.05
101240.39
101236.31
101232.8
101229.84
101227.39
101225.43
101223.96
101222.92
101222.33
101222.15
101222.34
101222.87
101223.74
101224.92
101226.4
101228.14
101230.14
101232.36
101234.8
101237.41
101240.19
101243.11
101246.14
101249.28
101252.5
101255.77
101259.07
101262.4
101265.73
101269.04
101272.32
101275.55
101278.73
101281.83
101284.84
101287.76
101290.56
101293.24
101295.8
101298.2
101300.48
101302.63
101304.61
101306.41
101308.02
101309.31
101310.53
101311.85
101312.93
101313.95
101314.96
101315.95
101316.92
101317.87
101318.8
101319.72
101320.61
101321.48
101322.32
101323.15
101323.94
101324.71
101325.46
101326.18
101326.88
101327.55
101328.19
101328.82
101329.41
101329.98
101330.53
101331.06
101331.55
101332.03
101332.48
101332.91
101333.31
101333.69
101334.04
101334.36
101334.65
101334.91
101335.15
101335.34
101335.51
101335.62
101335.72
101931.86
101917.22
101895.92
101872.06
101847.68
101822.94
101798.1
101773.51
101749.16
101725.06
101701.2
101677.62
101654.37
101631.48
101609
101586.97
101565.41
101544.36
101523.85
101503.97
101484.8
101466.34
101448.57
101431.51
101415.19
101399.6