/*--------------------------------*- C++ -*----------------------------------*\
| =========                 |                                                 |
| \\      /  F ield         | OpenFOAM: The Open Source CFD Toolbox           |
|  \\    /   O peration     | Version:  2406                                  |
|   \\  /    A nd           | Website:  www.openfoam.com                      |
|    \\/     M anipulation  |                                                 |
\*---------------------------------------------------------------------------*/
FoamFile
{
    version     2.0;
    format      ascii;
    arch        "LSB;label=32;scalar=64";
    class       volScalarField;
    location    "0.01";
    object      T;
}
// * * * * * * * * * * * * * * * * * * * * * * * * * * * * * * * * * * * * * //

dimensions      [0 0 0 1 0 0 0];

internalField   nonuniform List<scalar> 
2065
(
291.9994
292.00674
292.0204
292.04509
292.07906
292.12012
292.16579
292.21412
292.26339
292.31156
292.35685
292.39816
292.43479
292.46615
292.49227
292.5133
292.52948
292.54119
292.54886
292.55259
292.55272
292.54959
292.54349
292.5345
292.52425
292.51397
292.51709
292.55157
292.60341
292.67457
292.91746
292.09696
292.09709
292.10463
292.121
292.14488
292.17538
292.21114
292.25059
292.29207
292.33373
292.37383
292.41108
292.4446
292.47365
292.49807
292.51785
292.53312
292.54417
292.55134
292.55473
292.55461
292.5513
292.54508
292.53604
292.52586
292.51581
292.51985
292.55474
292.60595
292.6764
292.91841
292.19766
292.19266
292.19349
292.20135
292.21553
292.23578
292.26151
292.29161
292.32472
292.35924
292.39346
292.42609
292.45603
292.48238
292.50481
292.52315
292.53736
292.54767
292.55427
292.55725
292.55686
292.55334
292.54696
292.53783
292.52769
292.51788
292.52302
292.55838
292.60874
292.67839
292.91932
292.29736
292.2879
292.2826
292.28279
292.2883
292.29922
292.31544
292.33635
292.36096
292.38797
292.41591
292.44342
292.46932
292.49261
292.51274
292.52938
292.54236
292.55176
292.5577
292.5602
292.55946
292.55569
292.54913
292.53991
292.5298
292.52027
292.52675
292.56253
292.61184
292.68055
292.92052
292.39335
292.38038
292.37011
292.36388
292.3619
292.36456
292.37206
292.38425
292.40051
292.41993
292.44126
292.46326
292.48471
292.50453
292.52204
292.53671
292.54824
292.55658
292.56171
292.56365
292.5625
292.55842
292.55164
292.54232
292.53223
292.52304
292.53108
292.56724
292.61523
292.68287
292.92244
292.48414
292.46868
292.45473
292.44345
292.43532
292.4309
292.43067
292.43481
292.44312
292.45501
292.4696
292.48577
292.5024
292.51839
292.53292
292.54531
292.55516
292.56223
292.56643
292.56769
292.56605
292.56161
292.55457
292.54511
292.53504
292.52624
292.53607
292.57255
292.61895
292.6854
292.92549
292.56799
292.55114
292.5348
292.51993
292.5071
292.49698
292.49022
292.48727
292.48825
292.49297
292.50084
292.51104
292.52256
292.53437
292.54557
292.55538
292.56328
292.56889
292.57199
292.57245
292.57022
292.56534
292.55798
292.54836
292.5383
292.52996
292.54179
292.57852
292.62305
292.6882
292.92992
292.64351
292.62622
292.60865
292.59156
292.57553
292.56122
292.54935
292.54051
292.53512
292.53327
292.53475
292.53901
292.54528
292.55264
292.5602
292.56714
292.57281
292.57672
292.57854
292.57804
292.57511
292.56971
292.56198
292.55214
292.5421
292.53431
292.5483
292.58526
292.62761
292.69143
292.93574
292.70983
292.69261
292.67481
292.65681
292.63903
292.62207
292.60659
292.59328
292.58268
292.57518
292.57085
292.56947
292.57052
292.5733
292.57699
292.58077
292.58394
292.58591
292.58625
292.58464
292.58087
292.57485
292.56667
292.55658
292.54653
292.5394
292.5558
292.59295
292.63277
292.69519
292.94256
292.76641
292.74994
292.73274
292.71487
292.69656
292.67827
292.66063
292.64428
292.62982
292.61779
292.6085
292.60202
292.59813
292.59636
292.59605
292.59647
292.59689
292.59668
292.59532
292.59241
292.58766
292.5809
292.57218
292.56179
292.55173
292.54541
292.5645
292.60183
292.63881
292.69958
292.94974
292.8142
292.79886
292.78254
292.76539
292.74746
292.72898
292.71044
292.69239
292.67541
292.66009
292.6469
292.63611
292.62778
292.62171
292.61743
292.61437
292.61185
292.60924
292.60597
292.60156
292.59566
292.58803
292.57868
292.56793
292.55785
292.55254
292.57465
292.61218
292.6461
292.70477
292.95661
292.85318
292.83954
292.82466
292.80865
292.79168
292.77384
292.7554
292.73679
292.71853
292.70115
292.68519
292.67106
292.65901
292.64908
292.64106
292.63454
292.62898
292.6238
292.61841
292.61231
292.60509
292.59645
292.58636
292.57519
292.5651
292.56105
292.5865
292.62419
292.65505
292.71106
292.96247
292.88462
292.87262
292.85944
292.845
292.82939
292.81275
292.79518
292.77695
292.75846
292.74018
292.72259
292.70616
292.69126
292.67812
292.66676
292.65697
292.6484
292.64054
292.63289
292.62492
292.6162
292.6064
292.59545
292.58379
292.57373
292.57128
292.60031
292.63798
292.66596
292.71876
292.96797
292.90991
292.89951
292.88799
292.87528
292.86131
292.84615
292.82995
292.81279
292.79492
292.77667
292.75848
292.74076
292.72396
292.70839
292.69426
292.68157
292.67013
292.65962
292.64961
292.63964
292.62926
292.61815
292.60624
292.59404
292.58408
292.5837
292.61643
292.65353
292.67892
292.72821
292.98049
292.93074
292.92177
292.91177
292.90069
292.88846
292.87504
292.86047
292.84479
292.82806
292.81053
292.79252
292.77441
292.75659
292.73944
292.72323
292.70814
292.69416
292.68114
292.66878
292.65672
292.64457
292.63203
292.61906
292.60631
292.59663
292.59908
292.63532
292.67067
292.69376
292.73957
293.00477
292.94907
292.94136
292.93274
292.92312
292.9124
292.90048
292.88739
292.87324
292.85803
292.84174
292.82457
292.80681
292.78879
292.77085
292.75332
292.73645
292.72039
292.70514
292.69056
292.67643
292.66245
292.6484
292.63434
292.62109
292.61208
292.61857
292.65746
292.68928
292.7101
292.75264
293.02199
292.96584
292.95922
292.95179
292.94347
292.93416
292.92377
292.91219
292.89937
292.88547
292.87064
292.85479
292.83797
292.8204
292.80238
292.78423
292.76625
292.74865
292.73159
292.71506
292.699
292.68324
292.6677
292.65258
292.63906
292.63149
292.64371
292.68326
292.70948
292.72759
292.76707
293.0254
292.98186
292.97616
292.96977
292.96258
292.95451
292.94547
292.9354
292.92421
292.91178
292.89816
292.88357
292.86798
292.85138
292.83388
292.81575
292.79729
292.77878
292.76042
292.74235
292.72464
292.7073
292.69043
292.67446
292.66117
292.65654
292.67637
292.71273
292.73176
292.74648
292.78333
293.05274
292.99771
292.99288
292.98743
292.9813
292.97438
292.9666
292.95785
292.94807
292.93714
292.92494
292.91142
292.89683
292.8814
292.86502
292.8476
292.82935
292.81057
292.79154
292.77247
292.75357
292.73504
292.71722
292.70093
292.68897
292.68994
292.71708
292.74515
292.75693
292.76785
292.80197
293.05253
293.01276
293.00871
293.00415
292.999
292.99316
292.98656
292.97911
292.97072
292.96131
292.9508
292.93908
292.92596
292.91141
292.89585
292.87952
292.86221
292.84389
292.82488
292.80549
292.78606
292.76699
292.74895
292.73348
292.72517
292.73587
292.7634
292.77975
292.78567
292.79327
292.82521
293.04547
293.02702
293.02376
293.02007
293.01586
293.01108
293.00564
292.99945
292.99243
292.98447
292.97549
292.9654
292.95411
292.94151
292.92742
292.91206
292.89583
292.87864
292.86044
292.84159
292.82255
292.80402
292.78722
292.77521
292.77516
292.79459
292.81134
292.81648
292.81842
292.82387
292.8537
293.07013
293.0399
293.03744
293.03464
293.03143
293.02775
293.02352
293.01868
293.01313
293.00678
292.99951
292.99121
292.98178
292.97109
292.959
292.94531
292.93024
292.91449
292.8981
292.88105
292.86408
292.8484
292.83618
292.83211
292.84169
292.85468
292.85729
292.85574
292.85535
292.85937
292.88654
293.09208
293.05167
293.05004
293.04815
293.04596
293.04342
293.04046
293.03702
293.03302
293.02837
293.02299
293.01676
293.0096
293.00139
292.99205
292.98141
292.96901
292.95471
292.93999
292.92633
292.91404
292.9045
292.90051
292.90342
292.90826
292.90666
292.90182
292.89783
292.89574
292.89823
292.92217
293.06838
293.05814
293.05749
293.0567
293.05573
293.05455
293.05311
293.05135
293.04922
293.04665
293.04358
293.03993
293.03565
293.03071
293.02511
293.01898
293.01253
293.00561
292.99691
292.9862
292.97632
292.96962
292.96654
292.96441
292.95882
292.95142
292.94533
292.94062
292.93739
292.93777
292.95535
293.05625
293.06386
293.06375
293.0636
293.06338
293.06309
293.06271
293.06221
293.06156
293.06073
293.05966
293.0583
293.05658
293.05445
293.05183
293.04871
293.04518
293.0415
293.03847
293.03617
293.03146
293.02238
293.01276
293.00564
292.99865
292.9913
292.98513
292.97988
292.97609
292.97483
292.98559
292.99884
293.07347
293.07337
293.07327
293.07315
293.07299
293.07281
293.07257
293.07225
293.07184
293.0713
293.0706
293.06967
293.06848
293.06695
293.06502
293.06259
293.05957
293.05587
293.05139
293.04757
293.04546
293.04138
293.03468
293.02903
293.02252
293.01643
293.0109
293.00735
293.00585
293.00494
293.06286
293.07317
293.07312
293.07305
293.07295
293.07281
293.07261
293.07235
293.07201
293.07159
293.07105
293.0704
293.06962
293.06869
293.06762
293.06638
293.06498
293.06348
293.06181
293.05985
293.05746
293.05462
293.0523
293.0497
293.04543
293.04155
293.03666
293.03156
293.02911
293.02886
293.02101
293.05882
293.0595
293.05946
293.05941
293.05935
293.05928
293.05919
293.05909
293.05896
293.05881
293.05863
293.05841
293.05817
293.05788
293.05756
293.05719
293.05682
293.05648
293.05619
293.05589
293.05537
293.05428
293.05274
293.05127
293.05037
293.0498
293.04795
293.04531
293.04416
293.04292
293.04232
293.03654
293.03621
293.0364
293.03662
293.03685
293.0371
293.03736
293.03763
293.0379
293.03818
293.03847
293.03878
293.03911
293.03944
293.03978
293.04012
293.04047
293.04089
293.04143
293.04214
293.04306
293.04415
293.04558
293.04821
293.05159
293.05446
293.0566
293.05756
293.0583
293.05893
293.06089
293.04623
293.03053
293.03064
293.03077
293.03091
293.03108
293.03129
293.03152
293.0318
293.03212
293.03249
293.03291
293.03335
293.03379
293.03422
293.03464
293.03505
293.03552
293.03627
293.03763
293.0398
293.04277
293.04622
293.04962
293.05292
293.05564
293.05846
293.0611
293.06373
293.06917
293.06681
293.05612
293.02956
293.02938
293.02921
293.02905
293.02895
293.02893
293.02905
293.02935
293.02988
293.03067
293.03175
293.0331
293.0347
293.03649
293.03837
293.04021
293.04181
293.04299
293.04374
293.04433
293.04516
293.04647
293.04835
293.04996
293.04827
293.04449
293.04357
293.0484
293.05453
293.04445
293.04727
293.33975
293.22718
293.11792
293.01253
292.91329
292.82177
292.74078
292.67217
292.61661
292.57439
292.54464
292.52575
292.51563
292.51211
292.51307
292.51617
292.51981
292.52299
292.52489
292.52471
292.52233
292.51744
292.50974
292.49936
292.48646
292.4712
292.45695
292.47236
292.52389
292.62335
292.76518
293.22474
293.10866
293.00433
292.90765
292.81865
292.73898
292.67067
292.61447
292.57056
292.53884
292.51803
292.50641
292.50198
292.50282
292.50685
292.51199
292.51708
292.52127
292.52384
292.52408
292.52202
292.51736
292.50986
292.49965
292.48698
292.472
292.45851
292.4751
292.52783
292.62639
292.76629
293.11583
293.00674
292.90898
292.81901
292.73809
292.66812
292.61016
292.56441
292.53064
292.50801
292.49487
292.48954
292.49012
292.49471
292.5013
292.50826
292.51468
292.51981
292.52298
292.52363
292.52188
292.51744
292.51012
292.50008
292.48759
292.47289
292.46016
292.47782
292.5316
292.62935
292.76765
292.98957
292.89159
292.80379
292.72446
292.65526
292.59751
292.55159
292.51721
292.49368
292.47985
292.47397
292.47458
292.47971
292.48753
292.4964
292.50503
292.51269
292.51866
292.52232
292.52337
292.5219
292.51767
292.51052
292.50063
292.48832
292.47389
292.46192
292.48054
292.53521
292.63224
292.76932
292.85278
292.76774
292.69292
292.6275
292.57249
292.52844
292.49532
292.47257
292.45915
292.45389
292.45506
292.4612
292.47036
292.48112
292.4921
292.50229
292.5111
292.51777
292.52189
292.5233
292.52208
292.51803
292.51105
292.5013
292.48915
292.475
292.46379
292.4833
292.53872
292.63506
292.77146
292.69973
292.63366
292.57747
292.52962
292.49088
292.46154
292.44172
292.43075
292.42719
292.43026
292.43804
292.44911
292.46199
292.47545
292.48837
292.50006
292.50988
292.51712
292.52168
292.52342
292.52242
292.51854
292.51171
292.50208
292.4901
292.47623
292.46578
292.48614
292.54216
292.63778
292.77414
292.54042
292.49788
292.46273
292.43355
292.41181
292.39765
292.39126
292.39204
292.39809
292.40877
292.42259
292.43826
292.45456
292.47047
292.48525
292.49832
292.50894
292.51672
292.52169
292.52372
292.52293
292.51919
292.51249
292.50298
292.49115
292.47756
292.46789
292.48907
292.54558
292.64042
292.77743
292.38358
292.36459
292.34979
292.34008
292.33603
292.33767
292.34467
292.35626
292.37142
292.38926
292.40868
292.42859
292.44798
292.4662
292.48277
292.49698
292.50827
292.51658
292.52191
292.5242
292.52359
292.51998
292.51341
292.504
292.49232
292.479
292.47011
292.49213
292.54901
292.64294
292.78143
292.2281
292.23379
292.24131
292.25162
292.26515
292.28191
292.30155
292.32352
292.34716
292.37168
292.39624
292.41998
292.44224
292.46269
292.48085
292.49597
292.50788
292.51667
292.52234
292.52485
292.5244
292.5209
292.51445
292.50513
292.49359
292.48055
292.47243
292.49531
292.55245
292.64536
292.78664
292.08067
292.11061
292.13995
292.16949
292.1997
292.23064
292.26212
292.29383
292.32528
292.3559
292.38512
292.41239
292.43744
292.45997
292.47934
292.49524
292.50778
292.51699
292.52296
292.52568
292.52535
292.52197
292.51561
292.50638
292.49497
292.48219
292.47485
292.49861
292.55591
292.64768
292.79396
291.94512
291.99774
292.04736
292.09471
292.14027
292.18423
292.22657
292.26714
292.30566
292.34179
292.3753
292.40596
292.43362
292.45779
292.47815
292.49483
292.50794
292.51754
292.52377
292.52667
292.52645
292.52316
292.51689
292.50773
292.49645
292.48392
292.47735
292.50204
292.55939
292.64988
292.80344
291.82738
291.8987
291.96556
292.02838
292.08746
292.14298
292.19497
292.24338
292.2882
292.32945
292.36703
292.40077
292.43053
292.456
292.47733
292.49473
292.50834
292.51829
292.52476
292.52782
292.52769
292.52448
292.51829
292.50919
292.49803
292.48575
292.47994
292.50557
292.56285
292.65199
292.81554
291.73117
291.81646
291.89661
291.97179
292.04202
292.10729
292.16761
292.22293
292.27337
292.3192
292.36031
292.39655
292.42798
292.45463
292.47687
292.49492
292.50898
292.51924
292.52592
292.52912
292.52907
292.52592
292.51979
292.51075
292.49969
292.48765
292.48261
292.50918
292.56629
292.65399
292.82987
291.65489
291.75216
291.84239
291.92663
292.00517
292.07798
292.145
292.20618
292.2614
292.3109
292.35479
292.393
292.42581
292.45366
292.47673
292.49537
292.50983
292.52037
292.52724
292.53056
292.53057
292.52747
292.5214
292.5124
292.50145
292.48963
292.48533
292.51286
292.56967
292.65591
292.84515
291.57887
291.69162
291.79434
291.88838
291.97475
292.05404
292.12651
292.1923
292.25149
292.30392
292.34987
292.38986
292.42415
292.45306
292.4769
292.49606
292.51089
292.52167
292.52871
292.53213
292.53219
292.52914
292.5231
292.51414
292.50328
292.49168
292.4881
292.51657
292.57296
292.65774
292.85985
291.51599
291.63542
291.74736
291.85076
291.9454
292.03152
292.10948
292.17963
292.24224
292.29747
292.34571
292.38741
292.42299
292.45283
292.47734
292.49698
292.51212
292.52313
292.53031
292.53382
292.53393
292.5309
292.5249
292.51597
292.50519
292.49378
292.4909
292.52028
292.57619
292.6595
292.87303
291.50193
291.6154
291.72481
291.82869
291.92571
292.01507
292.09639
292.16961
292.23486
292.29238
292.34249
292.38565
292.42231
292.45295
292.47805
292.4981
292.51353
292.52472
292.53205
292.53562
292.53576
292.53275
292.52677
292.51786
292.50717
292.49591
292.49373
292.52398
292.57936
292.6612
292.88435
291.50285
291.61231
291.71826
291.81982
291.91594
292.00562
292.08809
292.16286
292.22973
292.28879
292.34026
292.38455
292.42209
292.4534
292.47901
292.49942
292.51509
292.52645
292.53389
292.53753
292.53769
292.53469
292.52873
292.51983
292.50921
292.4981
292.49657
292.52763
292.58252
292.66285
292.89352
291.52086
291.62366
291.72427
291.82164
291.91477
292.00269
292.08448
292.15937
292.22684
292.28669
292.33901
292.38409
292.42232
292.45416
292.48019
292.50091
292.5168
292.5283
292.53584
292.53953
292.5397
292.53671
292.53075
292.52186
292.51131
292.50034
292.49942
292.53123
292.58565
292.6645
292.90066
291.55642
291.64938
291.74213
291.83322
291.92148
292.00589
292.0854
292.15909
292.22615
292.28606
292.33872
292.38427
292.42296
292.45521
292.48158
292.50256
292.51862
292.53024
292.53788
292.5416
292.54178
292.53879
292.53283
292.52394
292.51345
292.50262
292.5023
292.53476
292.58877
292.66617
292.9061
291.60876
291.68913
291.77151
291.85415
291.93569
292.01492
292.09068
292.16191
292.22762
292.28689
292.33937
292.38505
292.424
292.45652
292.48315
292.50434
292.52054
292.53227
292.53998
292.54374
292.54393
292.54093
292.53496
292.52606
292.51564
292.50493
292.5052
292.53824
292.59188
292.66789
292.91018
291.67591
291.7414
291.81132
291.88348
291.9566
292.02924
292.09996
292.16758
292.23107
292.28906
292.3409
292.38637
292.42539
292.45806
292.48487
292.50622
292.52255
292.53437
292.54214
292.54593
292.54613
292.54312
292.53713
292.52822
292.51786
292.50727
292.50815
292.54167
292.59495
292.66966
292.91311
291.75654
291.80424
291.85895
291.91863
291.98202
292.04721
292.11217
292.17541
292.23606
292.29233
292.34317
292.38817
292.42706
292.45978
292.48669
292.50818
292.52462
292.53651
292.54433
292.54815
292.54837
292.54534
292.53934
292.53041
292.5201
292.50963
292.51119
292.54509
292.59796
292.67146
292.91522
291.85824
291.88545
291.91994
291.96358
292.01441
292.07022
292.12806
292.18597
292.24291
292.29682
292.3462
292.39041
292.42898
292.46162
292.48859
292.51017
292.52671
292.53868
292.54654
292.5504
292.55063
292.54759
292.54156
292.53262
292.52235
292.51197
292.51429
292.54851
292.60088
292.67322
292.9167
293.34912
293.23416
293.12938
293.0306
292.93708
292.84951
292.76961
292.6999
292.64217
292.59677
292.56343
292.54088
292.52736
292.52088
292.51937
292.52061
292.52284
292.52496
292.52607
292.52535
292.52258
292.5174
292.5095
292.49897
292.48593
292.4705
292.45575
292.47013
292.52054
292.62064
292.76339
293.32596
293.21458
293.11625
293.02531
292.93983
292.85893
292.78376
292.71665
292.65954
292.61334
292.57828
292.55352
292.53763
292.52887
292.52533
292.52489
292.52579
292.52689
292.52721
292.52592
292.52272
292.51724
292.50912
292.49843
292.48524
292.46968
292.45462
292.46823
292.51786
292.61863
292.76253
293.30949
293.20486
293.1128
293.02786
292.94733
292.87081
292.79899
292.73376
292.67705
292.63009
292.59341
292.56655
292.54835
292.53734
292.53173
292.52954
292.52905
292.52905
292.52852
292.5266
292.52294
292.51712
292.50876
292.49787
292.48453
292.46882
292.45345
292.46616
292.51503
292.61646
292.76166
293.29597
293.19732
293.10988
293.02967
292.95358
292.88115
292.81269
292.74965
292.69383
292.64658
292.60866
292.57998
292.55962
292.54637
292.53867
292.53466
292.53268
292.53149
292.53003
292.52742
292.52324
292.51704
292.50841
292.49731
292.4838
292.46792
292.45225
292.46397
292.5121
292.61411
292.76071
293.28163
293.18871
293.10556
293.02965
292.95813
292.88992
292.82502
292.76451
292.71
292.66288
292.62407
292.59381
292.57143
292.55601
292.54617
292.54027
292.53671
292.53424
292.53178
292.5284
292.52364
292.51702
292.50809
292.49675
292.48306
292.467
292.45103
292.46165
293.26676
293.17992
293.10125
293.02933
292.96198
292.89779
292.83643
292.77861
292.7257
292.67903
292.63964
293.50017
293.46676
293.43634
293.41083
293.38682
293.66631
293.55136
291.8199
291.92829
293.76366
293.65951
293.55395
293.45001
293.79051
293.67612
293.58369
293.47423
293.34816
293.63998
293.67699
293.60854
293.48482
293.35332
293.23209
293.52955
293.55242
293.42546
293.30001
293.18774
293.08967
293.16367
293.19382
293.15974
293.0875
293.00864
292.93604
292.92066
292.94537
292.91897
292.86776
292.8137
292.76339
292.54186
292.58407
292.61631
292.61215
292.5959
292.57786
292.1792
292.27456
292.34244
292.37157
292.38588
292.39454
291.82412
291.95254
292.0652
292.1337
292.1794
292.21375
291.4678
291.67878
291.81507
291.91207
291.9845
292.04199
291.06567
291.41493
291.59224
291.7111
291.80579
291.8839
290.75076
291.17981
291.40757
291.54682
291.65613
291.74864
290.51471
290.96444
291.2458
291.41072
291.53512
291.63949
290.42037
290.77826
291.06746
291.27011
291.42479
291.54874
290.37175
290.71056
290.93331
291.14079
291.31238
291.45471
290.28153
290.68543
290.92681
291.09865
291.25065
291.38909
290.21897
290.60775
290.88093
291.08034
291.24138
291.38008
290.20277
290.60401
290.87225
291.07439
291.23972
291.38144
290.2182
290.62158
290.89207
291.09557
291.26143
291.4032
290.30199
290.6803
290.94436
291.14394
291.30663
291.44557
290.40106
290.76591
291.02232
291.21592
291.37329
291.50727
290.53484
290.88129
291.12498
291.30941
291.4591
291.58606
291.02066
291.24895
291.42195
291.56222
291.68075
291.39151
291.55252
291.68389
291.79559
292.02752
292.12741
292.23085
292.33216
292.42868
292.51867
292.6006
292.67355
292.73694
292.79048
292.83494
292.87073
292.91832
292.89938
292.93783
292.92229
292.95416
292.94121
292.96892
292.95796
292.98284
292.97346
292.9965
292.98843
293.01016
293.0033
293.02314
293.01743
293.03539
293.03081
293.04621
293.04277
293.05576
293.05356
293.05968
293.0589
293.06435
293.06409
293.0737
293.07358
293.07322
293.0732
293.05922
293.05939
293.03551
293.03589
293.03025
293.0304
293.03005
293.02978
)
;

boundaryField
{
    Side1
    {
        type            empty;
    }
    Inlet
    {
        type            totalTemperature;
        gamma           1.4;
        T0              uniform 294.31799;
        value           nonuniform List<scalar> 
92
(
292.97693
292.97704
292.97714
292.97726
292.97743
292.97769
292.97806
292.97855
292.97915
292.97988
292.98074
292.98169
294.31799
294.31799
292.98463
292.98653
292.99388
294.31799
294.31799
292.99283
292.99456
294.31799
294.31799
294.31799
292.99768
293.0002
293.00406
293.00617
293.00815
293.01125
293.00245
293.00245
293.00245
293.00245
293.00245
293.00245
293.00245
293.00245
293.00245
293.00245
293.00245
293.00245
293.00245
293.00245
293.00245
293.00245
293.00245
293.00245
293.00245
293.00245
293.00245
293.00245
293.00245
293.00245
293.00245
293.00245
293.00245
293.00245
293.00245
293.00245
293.01285
293.00245
292.96321
292.96339
292.96359
292.96377
292.96395
292.96417
292.96441
292.96468
292.96508
292.96567
292.96655
292.96762
292.96927
292.97025
292.97139
292.97253
292.9736
292.97445
292.97511
292.97561
292.97601
292.97634
292.97661
292.97685
292.96298
292.96286
292.96273
292.9626
293.00245
293.00245
)
;
    }
    Side2
    {
        type            empty;
    }
    Outlet
    {
        type            zeroGradient;
    }
    Botwall
    {
        type            zeroGradient;
    }
    Cyli
    {
        type            zeroGradient;
    }
    procBoundary2to0
    {
        type            processor;
        value           nonuniform List<scalar> 
55
(
293.63774
293.6071
293.56848
293.53151
293.49737
293.71965
293.6598
293.70069
293.74564
293.74564
291.54315
291.69365
291.69365
291.94213
292.03888
293.74095
293.74095
293.76696
293.76696
290.69782
290.69782
291.18001
291.18001
292.13135
292.23261
292.33003
292.42239
292.50895
292.58864
292.66059
292.7244
292.77945
292.82573
292.86364
292.89405
292.89405
292.93637
292.9528
292.96679
292.97969
292.99213
293.00453
293.01699
293.02882
293.03991
293.04955
293.05782
293.06029
293.06455
293.07383
293.07322
293.05907
293.03513
293.0301
293.03035
)
;
    }
    procBoundary2to3
    {
        type            processor;
        value           nonuniform List<scalar> 
35
(
292.50909
292.61161
292.7596
292.608
292.58377
292.56623
292.55426
292.54641
292.54118
292.53733
292.53377
292.52956
292.52416
292.51708
292.5078
292.4962
292.4823
292.46605
292.44978
292.50909
292.45923
293.25279
293.36368
293.17185
293.09762
293.02952
292.9659
292.90536
292.84732
292.79219
292.74102
292.69505
292.608
292.65534
293.36368
)
;
    }
}


// ************************************************************************* //
