/*--------------------------------*- C++ -*----------------------------------*\
| =========                 |                                                 |
| \\      /  F ield         | OpenFOAM: The Open Source CFD Toolbox           |
|  \\    /   O peration     | Version:  2406                                  |
|   \\  /    A nd           | Website:  www.openfoam.com                      |
|    \\/     M anipulation  |                                                 |
\*---------------------------------------------------------------------------*/
FoamFile
{
    version     2.0;
    format      ascii;
    arch        "LSB;label=32;scalar=64";
    class       volScalarField;
    location    "0.035";
    object      rho;
}
// * * * * * * * * * * * * * * * * * * * * * * * * * * * * * * * * * * * * * //

dimensions      [1 -3 0 0 0 0 0];

internalField   nonuniform List<scalar> 
8260
(
1.1998908
1.1989533
1.1984078
1.1977249
1.197083
1.196599
1.1963049
1.1962049
1.196294
1.1965526
1.1969874
1.1975769
1.1982895
1.1990861
1.1999081
1.2007492
1.2011259
1.201192
1.2012891
1.2014487
1.2016056
1.201741
1.2018653
1.2019706
1.2020601
1.202137
1.2022036
1.2022561
1.2023004
1.2023269
1.2023461
1.2014812
1.2006831
1.1998951
1.1990345
1.1982708
1.1976746
1.1972646
1.1970536
1.1970278
1.1971791
1.1975134
1.1980149
1.1986468
1.199382
1.2001128
1.2008751
1.2011774
1.2012425
1.201339
1.2014912
1.2016398
1.2017682
1.2018872
1.2019883
1.2020745
1.2021486
1.2022132
1.2022641
1.2023073
1.202333
1.2023517
1.2024467
1.2017381
1.2008945
1.1999806
1.1991691
1.1985139
1.198032
1.1977456
1.197645
1.1977025
1.1979596
1.1983918
1.1989638
1.1996598
1.2003284
1.2010293
1.201248
1.2013104
1.2014014
1.2015421
1.2016804
1.2018004
1.2019128
1.202009
1.202091
1.2021621
1.2022242
1.2022733
1.2023152
1.2023399
1.2023579
1.2031829
1.2025368
1.2017186
1.200808
1.1999786
1.1992864
1.1987504
1.1983934
1.1982188
1.1982112
1.1984002
1.1987685
1.1992873
1.1999472
1.2005633
1.2011943
1.2013359
1.2013888
1.2014731
1.2015999
1.2017264
1.2018368
1.2019419
1.2020324
1.2021099
1.2021774
1.2022368
1.2022838
1.2023241
1.2023478
1.202365
1.2037813
1.2031966
1.2024361
1.2015653
1.2007484
1.200045
1.1994766
1.1990663
1.1988281
1.1987625
1.1988865
1.1991913
1.199656
1.2002714
1.2008301
1.201365
1.2014422
1.2014793
1.2015553
1.2016658
1.2017788
1.2018785
1.201975
1.2020591
1.2021314
1.2021949
1.2022511
1.2022957
1.2023343
1.2023567
1.2023731
1.2042319
1.2037026
1.2030186
1.2022203
1.20145
1.2007662
1.2001929
1.1997545
1.1994717
1.1993559
1.1994212
1.1996654
1.2000772
1.200639
1.201131
1.2015402
1.2015678
1.2015841
1.2016491
1.2017408
1.2018385
1.201926
1.2020128
1.2020895
1.2021558
1.2022147
1.2022674
1.2023093
1.2023458
1.2023669
1.2023823
1.2045364
1.2040604
1.2034578
1.2027571
1.2020638
1.2014293
1.2008792
1.2004392
1.2001338
1.1999817
1.1999989
1.2001893
1.2005526
1.2010509
1.2014614
1.2017223
1.2017103
1.2017063
1.201756
1.2018261
1.2019061
1.20198
1.2020558
1.2021242
1.2021837
1.2022374
1.2022859
1.2023248
1.2023589
1.2023784
1.2023927
1.2047176
1.2042998
1.2037898
1.2031964
1.2025962
1.2020325
1.2015296
1.2011123
1.2008066
1.2006355
1.2006176
1.2007641
1.2010858
1.2015034
1.2018108
1.201921
1.2018673
1.201848
1.2018769
1.2019229
1.2019828
1.2020414
1.2021046
1.2021636
1.2022153
1.2022631
1.2023069
1.2023423
1.2023737
1.2023916
1.2024045
1.2048334
1.2044598
1.2040403
1.2035585
1.2030625
1.2025853
1.2021484
1.2017746
1.2014891
1.2013161
1.2012771
1.2013911
1.2016762
1.2019857
1.2021681
1.2021408
1.2020423
1.2020102
1.202013
1.2020327
1.2020697
1.202111
1.20216
1.2022082
1.2022512
1.2022923
1.2023308
1.2023624
1.2023906
1.2024067
1.202418
1.2049124
1.2046103
1.2042608
1.2038815
1.2034945
1.2031128
1.2027533
1.2024368
1.2021865
1.2020262
1.2019792
1.2020696
1.2023095
1.2024968
1.2025219
1.2023699
1.2022428
1.2021921
1.2021641
1.2021564
1.2021681
1.2021899
1.2022229
1.2022589
1.202292
1.2023256
1.2023582
1.2023853
1.2024099
1.2024238
1.2024333
1.204969
1.204818
1.2045768
1.204289
1.2039788
1.2036714
1.2033809
1.203122
1.2029131
1.2027754
1.202733
1.2028051
1.2029744
1.2030123
1.2028408
1.2026098
1.2024743
1.2023915
1.2023299
1.2022936
1.202279
1.2022793
1.2022943
1.2023164
1.2023385
1.2023636
1.2023894
1.2024115
1.2024318
1.2024434
1.2024507
1.2051526
1.2050743
1.2049374
1.2047299
1.2044996
1.204271
1.2040533
1.2038562
1.2036939
1.2035867
1.2035575
1.2035966
1.2036132
1.2034429
1.2031232
1.2028811
1.202728
1.202604
1.2025095
1.2024429
1.2024025
1.2023802
1.2023752
1.2023816
1.2023916
1.2024068
1.202425
1.2024414
1.2024569
1.2024657
1.2024707
1.2055706
1.2056416
1.2055891
1.2054153
1.2052192
1.2050347
1.2048661
1.2047136
1.2045814
1.2044788
1.204403
1.2043064
1.2040848
1.2037312
1.203413
1.2031791
1.2029872
1.2028306
1.202702
1.2026043
1.2025368
1.2024922
1.2024664
1.2024552
1.2024518
1.2024558
1.2024652
1.2024753
1.2024854
1.202491
1.2024938
1.2064159
1.2063128
1.206169
1.2059919
1.2058263
1.2057011
1.2056021
1.2054959
1.205363
1.2051958
1.204977
1.204688
1.204342
1.2040074
1.2037182
1.2034655
1.2032498
1.2030632
1.2029055
1.2027765
1.2026813
1.2026134
1.2025671
1.2025376
1.2025193
1.2025108
1.2025105
1.2025134
1.2025177
1.2025195
1.2025205
1.2067228
1.2067839
1.2068176
1.2068227
1.2067391
1.2065442
1.2063156
1.2060818
1.2058215
1.2055299
1.2052174
1.2048915
1.2045799
1.2042836
1.2039995
1.2037378
1.2034988
1.2032922
1.2031137
1.2029588
1.2028344
1.2027421
1.2026754
1.2026274
1.2025937
1.202572
1.2025613
1.2025557
1.2025539
1.2025517
1.202551
1.2067225
1.2066494
1.2065356
1.2063933
1.2062873
1.2062337
1.2061904
1.2061428
1.20601
1.2057589
1.2054485
1.2051269
1.2048213
1.204523
1.2042431
1.2039823
1.2037316
1.2035054
1.2033148
1.2031449
1.2029965
1.2028776
1.2027892
1.2027236
1.2026748
1.2026395
1.2026174
1.2026029
1.2025943
1.2025878
1.202586
1.2067202
1.2066639
1.2065896
1.2064993
1.2064013
1.2062882
1.2061321
1.2059257
1.2057502
1.2056589
1.2055399
1.2053203
1.2050305
1.2047321
1.2044484
1.2041914
1.2039399
1.2037011
1.2035005
1.2033247
1.2031626
1.2030207
1.2029089
1.2028248
1.2027621
1.2027135
1.2026795
1.2026551
1.202639
1.2026279
1.2026254
1.2064393
1.2063897
1.2063291
1.2062614
1.2061859
1.2061005
1.2060057
1.2059004
1.2057763
1.2056139
1.2054494
1.2053421
1.2051876
1.2049272
1.2046309
1.2043567
1.2041177
1.2038813
1.2036703
1.2034881
1.203323
1.2031686
1.2030358
1.2029325
1.2028555
1.2027941
1.2027478
1.2027129
1.2026883
1.2026726
1.2026695
1.2062561
1.2062189
1.2061724
1.2061191
1.2060573
1.2059847
1.2058991
1.2057999
1.20569
1.2055751
1.2054417
1.205257
1.2050952
1.2050001
1.2047854
1.2045121
1.2042661
1.204043
1.2038275
1.2036353
1.203467
1.2033124
1.2031683
1.2030477
1.2029553
1.2028803
1.2028217
1.2027763
1.2027427
1.2027218
1.202718
1.2059766
1.2059446
1.2059054
1.2058613
1.2058118
1.205756
1.2056933
1.2056227
1.2055416
1.2054455
1.2053368
1.2052302
1.2050905
1.2049308
1.2048287
1.2046472
1.2044196
1.2041959
1.2039734
1.2037698
1.2035963
1.2034427
1.2032965
1.2031666
1.2030601
1.2029711
1.2029002
1.2028448
1.2028026
1.2027761
1.2027708
1.2057721
1.2057486
1.2057193
1.2056862
1.2056482
1.2056042
1.2055528
1.2054927
1.205423
1.2053436
1.205252
1.205139
1.2050184
1.2048783
1.2047334
1.2046645
1.2045381
1.2043406
1.2041137
1.2038995
1.2037167
1.2035568
1.2034118
1.2032824
1.2031662
1.2030645
1.2029826
1.2029181
1.2028681
1.2028358
1.2028277
1.2055118
1.2054918
1.2054675
1.2054402
1.2054096
1.205375
1.2053357
1.2052914
1.2052413
1.205184
1.205119
1.2050488
1.204967
1.204874
1.2047646
1.2046094
1.2044872
1.2044062
1.2042354
1.2040276
1.2038361
1.2036657
1.2035155
1.2033894
1.203271
1.2031606
1.2030687
1.2029959
1.2029389
1.2029008
1.2028887
1.2053144
1.2053003
1.2052829
1.2052634
1.2052411
1.2052152
1.205185
1.2051496
1.2051081
1.2050598
1.2050034
1.2049371
1.2048621
1.2047819
1.2046895
1.2045983
1.2044859
1.2043534
1.2042699
1.2041212
1.2039436
1.2037765
1.2036261
1.2034931
1.2033717
1.203258
1.2031588
1.2030777
1.2030144
1.2029712
1.2029539
1.2050784
1.2050664
1.2050517
1.2050355
1.2050172
1.2049965
1.2049731
1.2049467
1.2049169
1.2048832
1.204845
1.2048016
1.2047509
1.2046896
1.2046217
1.2045367
1.2044356
1.2043257
1.204204
1.2041353
1.2040151
1.2038726
1.2037364
1.2035985
1.203467
1.2033532
1.2032501
1.2031629
1.2030939
1.2030462
1.2030231
1.2048983
1.20489
1.20488
1.2048687
1.204856
1.2048411
1.2048236
1.2048031
1.2047788
1.2047501
1.2047165
1.2046772
1.2046324
1.2045818
1.2045224
1.2044593
1.2043883
1.2043077
1.2042274
1.204134
1.2040373
1.2039214
1.2038055
1.2036836
1.2035559
1.2034413
1.2033385
1.2032492
1.2031761
1.2031245
1.2030967
1.2047016
1.2046946
1.2046863
1.2046771
1.2046669
1.2046555
1.2046426
1.2046281
1.2046117
1.2045935
1.2045734
1.2045511
1.2045257
1.2044959
1.2044606
1.2044145
1.2043617
1.2043006
1.2042196
1.2041386
1.2040442
1.2039445
1.203835
1.2037294
1.2036235
1.2035208
1.2034224
1.2033338
1.2032596
1.2032054
1.2031742
1.2045696
1.2045653
1.2045601
1.2045542
1.2045475
1.2045397
1.2045305
1.20452
1.2045077
1.2044933
1.204476
1.2044549
1.2044293
1.2043986
1.2043626
1.2043241
1.204282
1.204239
1.2041905
1.2041341
1.2040879
1.2040101
1.2038982
1.2037814
1.2036891
1.2035982
1.2035035
1.2034171
1.2033439
1.2032875
1.2032542
1.2044141
1.2044106
1.2044066
1.2044021
1.204397
1.2043913
1.2043846
1.2043769
1.2043679
1.2043574
1.2043453
1.2043314
1.2043158
1.2042987
1.2042806
1.2042603
1.2042345
1.2042
1.2041632
1.2041144
1.2040527
1.2040166
1.2039587
1.2038563
1.2037527
1.2036636
1.2035791
1.2034972
1.2034261
1.2033695
1.2033349
1.2043405
1.2043381
1.2043353
1.2043322
1.2043286
1.2043246
1.2043199
1.2043145
1.2043082
1.204301
1.2042924
1.2042824
1.2042702
1.2042551
1.2042361
1.2042127
1.2041862
1.204157
1.204122
1.2040832
1.2040337
1.2039617
1.2039092
1.2038723
1.2038044
1.2037209
1.2036429
1.2035693
1.2035018
1.2034471
1.2034132
1.2042507
1.2042482
1.2042453
1.2042421
1.2042385
1.2042343
1.2042295
1.204224
1.2042177
1.2042105
1.2042023
1.2041929
1.2041818
1.2041691
1.2041548
1.2041378
1.2041179
1.2040939
1.2040649
1.2040297
1.203992
1.2039537
1.203904
1.2038703
1.20384
1.2037717
1.2036992
1.2036325
1.2035701
1.2035193
1.2034885
1.2041335
1.2041326
1.2041316
1.2041304
1.2041291
1.2041275
1.2041257
1.2041236
1.2041211
1.2041181
1.2041144
1.20411
1.2041048
1.2040985
1.2040905
1.2040809
1.2040688
1.2040541
1.204037
1.2040181
1.203996
1.2039704
1.2039415
1.2038873
1.2038227
1.2037781
1.2037262
1.2036679
1.2036115
1.2035648
1.2035358
1.1883517
1.1886822
1.1890775
1.1894332
1.1897134
1.1899853
1.1903404
1.190802
1.1913423
1.1920061
1.1927819
1.1936522
1.1946025
1.1956076
1.1966427
1.1977574
1.1987499
1.1997325
1.2002024
1.2004795
1.2007301
1.2009939
1.2012433
1.2014516
1.2016279
1.2017739
1.2018964
1.2019918
1.202067
1.2021159
1.2021498
1.1891922
1.1894643
1.1896033
1.189738
1.189902
1.1901442
1.1905137
1.1910118
1.1916129
1.1923182
1.1931156
1.1939925
1.1949365
1.195919
1.196925
1.1979897
1.1989607
1.1998383
1.2002131
1.2005045
1.2007597
1.2010249
1.2012698
1.2014732
1.2016457
1.2017887
1.2019088
1.2020023
1.2020762
1.2021241
1.2021578
1.1890139
1.1891117
1.1891872
1.1893567
1.1896233
1.1899838
1.1904557
1.1910459
1.1917139
1.1924703
1.1933051
1.1942058
1.1951606
1.1961392
1.1971409
1.1981696
1.1991472
1.1999298
1.2002509
1.2005405
1.2007964
1.2010595
1.2012983
1.2014964
1.2016646
1.2018043
1.2019217
1.2020132
1.2020857
1.2021327
1.2021657
1.1885828
1.1887066
1.1888529
1.1890988
1.1894388
1.189874
1.1904171
1.1910645
1.1917868
1.192588
1.1934558
1.1943781
1.1953439
1.1963233
1.197334
1.1983342
1.1993066
1.2000154
1.2003014
1.2005771
1.2008334
1.2010936
1.2013264
1.2015193
1.2016834
1.2018199
1.2019346
1.2020241
1.2020952
1.2021413
1.2021736
1.1879654
1.1881612
1.1883974
1.188745
1.1891919
1.1897313
1.1903643
1.1910811
1.1918634
1.1927097
1.1936086
1.1945502
1.1955249
1.1965044
1.1975257
1.1985074
1.1994477
1.2000929
1.20035
1.2006142
1.2008717
1.2011279
1.2013546
1.2015424
1.2017023
1.2018356
1.2019477
1.2020352
1.2021049
1.2021499
1.2021815
1.1872146
1.1875155
1.1878839
1.1883686
1.1889434
1.1895947
1.1903193
1.1911079
1.1919488
1.1928377
1.1937652
1.1947242
1.1957056
1.1966841
1.1977143
1.1986829
1.1995712
1.2001578
1.2003952
1.2006521
1.2009105
1.201162
1.2013827
1.2015654
1.2017213
1.2018513
1.2019609
1.2020463
1.2021146
1.2021586
1.2021895
1.1863167
1.1867967
1.1873466
1.187992
1.1887036
1.1894687
1.1902845
1.1911446
1.1920409
1.192969
1.1939225
1.1948966
1.1958825
1.1968585
1.1978928
1.1988511
1.1996924
1.2002147
1.2004382
1.2006913
1.20095
1.201196
1.2014106
1.2015885
1.2017403
1.2018672
1.2019741
1.2020575
1.2021244
1.2021674
1.2021976
1.18543
1.1861129
1.1868476
1.187649
1.1884921
1.1893654
1.1902676
1.1911947
1.1921411
1.1931041
1.19408
1.1950666
1.1960546
1.19703
1.198062
1.1990046
1.1998154
1.2002691
1.2004805
1.2007319
1.2009898
1.2012297
1.2014385
1.2016115
1.2017593
1.201883
1.2019874
1.2020688
1.2021343
1.2021762
1.2022057
1.1846453
1.1855137
1.1864104
1.1873566
1.1883227
1.1892944
1.1902747
1.1912614
1.1922513
1.1932438
1.1942382
1.1952344
1.1962232
1.19721
1.1982269
1.1991406
1.1999308
1.2003243
1.2005233
1.2007738
1.2010296
1.2012632
1.2014662
1.2016344
1.2017784
1.2018989
1.2020007
1.2020802
1.2021442
1.2021851
1.2022139
1.1839873
1.185028
1.1860579
1.187137
1.1882124
1.189265
1.190311
1.1913474
1.1923727
1.1933887
1.1943972
1.1954002
1.1963902
1.197391
1.1983855
1.1992726
1.200033
1.2003791
1.2005673
1.2008168
1.2010693
1.2012964
1.2014938
1.2016573
1.2017974
1.2019148
1.202014
1.2020915
1.2021542
1.202194
1.2022222
1.1834869
1.1846625
1.1858352
1.1870176
1.1881731
1.1892842
1.190382
1.1914553
1.1925063
1.1935388
1.1945571
1.1955656
1.1965621
1.1975692
1.1985302
1.1994001
1.2001234
1.2004339
1.2006126
1.2008605
1.2011088
1.2013293
1.2015211
1.2016801
1.2018163
1.2019307
1.2020273
1.202103
1.2021642
1.202203
1.2022305
1.1832278
1.1845017
1.1857584
1.1869943
1.1881949
1.189361
1.1904951
1.1915889
1.1926539
1.1936961
1.1947206
1.1957347
1.1967393
1.1977183
1.1986542
1.1995234
1.2002068
1.2004883
1.2006589
1.2009047
1.201148
1.2013619
1.2015483
1.2017027
1.2018352
1.2019465
1.2020407
1.2021144
1.2021743
1.202212
1.2022388
1.1832453
1.1845575
1.1858376
1.1870902
1.1883097
1.1894933
1.1906447
1.191756
1.192824
1.1938685
1.1948948
1.1959095
1.1968856
1.1978352
1.1987801
1.1996359
1.2002866
1.2005418
1.2007063
1.2009492
1.2011867
1.2013941
1.2015752
1.2017253
1.201854
1.2019623
1.202054
1.2021258
1.2021843
1.202221
1.2022471
1.1835297
1.1848338
1.1860843
1.1873117
1.1885171
1.1896932
1.1908458
1.1919633
1.1930314
1.1940663
1.1950767
1.196052
1.1970082
1.1979588
1.1988981
1.1997385
1.2003661
1.2005951
1.2007547
1.2009938
1.2012251
1.201426
1.2016018
1.2017476
1.2018726
1.201978
1.2020673
1.2021373
1.2021944
1.20223
1.2022555
1.1839301
1.1852441
1.186466
1.1876538
1.188824
1.1899745
1.191109
1.192197
1.1932428
1.194241
1.195199
1.1961639
1.1971446
1.198081
1.1990077
1.1998449
1.2004454
1.2006491
1.200804
1.2010382
1.2012629
1.2014574
1.2016282
1.2017697
1.2018911
1.2019935
1.2020805
1.2021487
1.2022045
1.2022391
1.2022639
1.1843253
1.1856322
1.1868571
1.1880342
1.1891746
1.1902829
1.1913684
1.1923839
1.1933627
1.1943486
1.1953429
1.1963144
1.1972822
1.1981982
1.1991129
1.1999512
1.2005227
1.2007044
1.2008537
1.2010822
1.2013002
1.2014885
1.2016541
1.2017915
1.2019095
1.202009
1.2020936
1.20216
1.2022145
1.2022481
1.2022723
1.1853528
1.1863832
1.1873969
1.1884396
1.1894946
1.1905301
1.1915203
1.1925263
1.1935587
1.1945393
1.1955119
1.1964689
1.1974169
1.1983108
1.1992139
1.2000519
1.200597
1.2007606
1.2009032
1.2011255
1.2013369
1.201519
1.2016797
1.2018131
1.2019275
1.2020243
1.2021067
1.2021713
1.2022245
1.2022572
1.2022807
1.187083
1.1878375
1.1885422
1.189312
1.1901532
1.1910322
1.1919162
1.1928518
1.1938216
1.1947539
1.1956876
1.1966205
1.197548
1.1984193
1.1993102
1.2001482
1.2006686
1.2008171
1.2009524
1.2011683
1.2013729
1.2015489
1.2017048
1.2018344
1.2019454
1.2020394
1.2021196
1.2021825
1.2022345
1.2022663
1.2022892
1.1886665
1.1892663
1.1897683
1.190324
1.1909636
1.191667
1.1924087
1.1932306
1.1941152
1.1949805
1.1958668
1.1967702
1.1976755
1.1985246
1.1994018
1.2002414
1.200738
1.200874
1.2010015
1.2012104
1.2014084
1.2015783
1.2017295
1.2018553
1.201963
1.2020543
1.2021323
1.2021936
1.2022444
1.2022753
1.2022976
1.1903946
1.1907832
1.1910569
1.1913951
1.1918333
1.1923526
1.1929396
1.1936392
1.1944286
1.1952196
1.1960493
1.1969173
1.1977981
1.1986265
1.1994888
1.2003318
1.2008054
1.2009307
1.2010503
1.2012517
1.2014429
1.201607
1.2017535
1.2018757
1.2019802
1.2020689
1.2021449
1.2022047
1.2022543
1.2022844
1.2023061
1.1923051
1.1924431
1.1924565
1.19255
1.1927638
1.1930823
1.193516
1.194082
1.1947577
1.1954705
1.1962357
1.1970609
1.1979144
1.1987249
1.1995714
1.2004164
1.2008702
1.2009858
1.201098
1.2012916
1.2014763
1.2016347
1.2017768
1.2018955
1.201997
1.2020832
1.2021573
1.2022155
1.2022641
1.2022934
1.2023146
1.1943985
1.1942467
1.1939822
1.1938075
1.1937668
1.1938923
1.1941749
1.1945742
1.195114
1.1957445
1.1964369
1.1972096
1.19803
1.1988225
1.19965
1.2004901
1.2009292
1.2010357
1.2011435
1.2013296
1.2015082
1.2016613
1.2017992
1.2019148
1.2020133
1.2020973
1.2021695
1.2022264
1.2022738
1.2023024
1.2023231
1.1967619
1.1963292
1.1958103
1.1953458
1.1950431
1.1949328
1.1949875
1.1952017
1.1955767
1.1960923
1.1966926
1.197395
1.1981676
1.1989336
1.1997316
1.2005531
1.2009787
1.2010782
1.2011874
1.2013669
1.2015395
1.2016875
1.2018214
1.2019339
1.2020296
1.2021113
1.2021817
1.2022371
1.2022835
1.2023115
1.2023316
1.1991707
1.1986403
1.1980667
1.1973931
1.1967845
1.1963478
1.1961082
1.1960743
1.1962386
1.1965677
1.1970388
1.1976442
1.1983477
1.1990763
1.1998328
1.2006248
1.2010293
1.2011246
1.2012357
1.2014072
1.2015728
1.201715
1.2018444
1.2019534
1.2020461
1.2021254
1.2021938
1.2022478
1.2022932
1.2023203
1.20234
1.188821
1.1891642
1.1895387
1.1898902
1.190195
1.1904849
1.1908143
1.1912287
1.191711
1.1923132
1.1930276
1.1938401
1.1947358
1.1956915
1.1966723
1.1977251
1.1986588
1.19959
1.2001433
1.2004312
1.2006919
1.2009611
1.2012163
1.2014297
1.2016101
1.2017593
1.2018843
1.2019817
1.2020583
1.2021081
1.2021423
1.1890076
1.1893943
1.1897641
1.1900846
1.1903688
1.1906531
1.1909721
1.1913332
1.1917849
1.1923558
1.1930404
1.1938274
1.1947027
1.1956453
1.196621
1.1976681
1.1986259
1.1995374
1.2001331
1.2004151
1.2006724
1.2009419
1.2011996
1.2014157
1.2015984
1.2017495
1.2018761
1.2019747
1.2020522
1.2021027
1.2021368
1.1890448
1.1894062
1.1897889
1.1901396
1.1904509
1.1907469
1.1910683
1.1914259
1.1918702
1.192422
1.1930831
1.1938467
1.1947004
1.1956261
1.1965924
1.1976256
1.1985944
1.1995074
1.200121
1.2004061
1.2006592
1.2009272
1.201186
1.2014037
1.2015879
1.2017405
1.2018682
1.2019679
1.2020461
1.2020971
1.202128
1.1890764
1.1894131
1.1898145
1.1901904
1.1905268
1.1908438
1.1911752
1.1915425
1.1919834
1.1925182
1.193156
1.1938942
1.1947233
1.1956273
1.1965784
1.1975892
1.1985591
1.199472
1.2001004
1.2003939
1.2006447
1.2009116
1.2011717
1.2013911
1.2015769
1.2017308
1.2018598
1.2019606
1.2020395
1.2020911
1.2021194
1.1891334
1.1894545
1.189868
1.190257
1.1906085
1.1909414
1.191284
1.1916603
1.1920987
1.1926197
1.1932365
1.1939505
1.1947548
1.1956359
1.1965691
1.197553
1.1985208
1.199433
1.200074
1.200379
1.200628
1.200894
1.2011556
1.201377
1.2015646
1.2017203
1.2018506
1.2019526
1.2020324
1.2020847
1.2021119
1.1891938
1.1894954
1.1899128
1.1903142
1.1906801
1.1910279
1.1913827
1.1917674
1.1922057
1.192717
1.1933165
1.1940086
1.1947892
1.1956472
1.1965615
1.1975165
1.1984788
1.1993947
1.2000454
1.2003627
1.2006104
1.2008753
1.2011384
1.2013619
1.2015515
1.2017089
1.2018407
1.201944
1.2020247
1.2020778
1.2021063
1.1892509
1.1895249
1.1899395
1.1903527
1.1907351
1.1910999
1.191469
1.1918639
1.1923049
1.1928105
1.1933962
1.1940688
1.194827
1.195662
1.1965561
1.1974822
1.1984398
1.1993574
1.2000203
1.2003456
1.2005929
1.2008558
1.2011203
1.201346
1.2015375
1.2016968
1.2018302
1.2019349
1.2020166
1.2020705
1.2021
1.189298
1.1895512
1.1899565
1.190378
1.190777
1.1911601
1.1915457
1.1919527
1.1923992
1.1929022
1.1934771
1.1941324
1.1948694
1.1956816
1.1965546
1.1974563
1.1984062
1.1993154
1.1999988
1.2003295
1.2005758
1.2008361
1.2011016
1.2013294
1.201523
1.2016841
1.2018191
1.2019253
1.2020079
1.2020627
1.2020907
1.189331
1.1895753
1.1899689
1.1903959
1.1908105
1.1912125
1.1916156
1.1920363
1.1924904
1.1929934
1.1935602
1.1942003
1.1949172
1.1957068
1.196558
1.1974405
1.1983707
1.1992666
1.1999758
1.2003147
1.2005591
1.2008161
1.2010824
1.2013122
1.2015078
1.2016708
1.2018074
1.201915
1.2019987
1.2020544
1.20208
1.1893475
1.1895897
1.1899786
1.1904111
1.1908409
1.1912615
1.1916825
1.1921177
1.1925809
1.1930859
1.1936466
1.1942733
1.1949711
1.1957384
1.1965672
1.1974315
1.1983369
1.1992193
1.1999486
1.2003006
1.2005431
1.2007959
1.2010627
1.2012943
1.2014919
1.2016569
1.201795
1.2019042
1.201989
1.2020456
1.2020701
1.1893728
1.1896075
1.1899773
1.1904219
1.1908706
1.191311
1.1917505
1.1922008
1.1926738
1.1931819
1.1937379
1.1943525
1.195032
1.1957773
1.1965829
1.1974277
1.1983116
1.1991781
1.1999165
1.2002876
1.2005279
1.2007757
1.2010424
1.2012758
1.2014753
1.2016422
1.201782
1.2018928
1.2019787
1.2020362
1.2020612
1.1893857
1.1896383
1.190018
1.1904613
1.1909172
1.1913721
1.1918276
1.1922915
1.1927735
1.1932846
1.1938363
1.1944393
1.195101
1.195824
1.1966056
1.1974293
1.1982924
1.1991429
1.1998833
1.2002764
1.2005139
1.2007556
1.2010218
1.2012567
1.2014581
1.2016269
1.2017684
1.2018806
1.2019677
1.2020263
1.2020525
1.1894213
1.1896908
1.19008
1.1905212
1.1909848
1.1914525
1.1919214
1.1923965
1.1928856
1.1933982
1.1939448
1.1945357
1.1951792
1.1958795
1.1966361
1.197437
1.1982778
1.1991055
1.1998478
1.2002686
1.2005014
1.2007359
1.2010008
1.2012371
1.2014403
1.201611
1.201754
1.2018679
1.2019562
1.2020157
1.2020431
1.1895298
1.1897923
1.1901579
1.1906096
1.1910849
1.191563
1.1920414
1.1925237
1.1930164
1.1935275
1.1940668
1.1946442
1.1952684
1.195945
1.1966754
1.1974517
1.198268
1.1990724
1.1998101
1.2002612
1.2004905
1.200717
1.2009799
1.201217
1.2014218
1.2015943
1.201739
1.2018544
1.2019439
1.2020045
1.2020327
1.1896789
1.1899655
1.1903486
1.1907863
1.19125
1.1917239
1.1922017
1.1926833
1.1931731
1.193678
1.1942063
1.1947675
1.1953705
1.1960219
1.1967245
1.197474
1.1982636
1.1990459
1.1997745
1.2002528
1.2004813
1.200699
1.200959
1.2011966
1.2014029
1.2015771
1.2017233
1.2018403
1.201931
1.2019927
1.2020215
1.1899425
1.1902255
1.1906103
1.1910328
1.191481
1.1919431
1.192411
1.1928831
1.1933625
1.1938547
1.1943672
1.1949083
1.1954873
1.1961112
1.1967843
1.1975046
1.1982646
1.1990222
1.1997401
1.2002454
1.2004736
1.2006826
1.2009384
1.201176
1.2013836
1.2015593
1.2017069
1.2018254
1.2019175
1.2019802
1.2020096
1.1903362
1.1906236
1.1909764
1.1913689
1.1917909
1.1922296
1.1926766
1.1931292
1.1935893
1.1940616
1.1945523
1.1950691
1.1956205
1.1962144
1.1968555
1.1975437
1.1982686
1.198997
1.1997143
1.2002404
1.2004684
1.2006678
1.2009186
1.2011554
1.2013639
1.2015411
1.2016899
1.2018099
1.2019032
1.201967
1.201997
1.1908456
1.1911099
1.1914296
1.1917881
1.192176
1.1925821
1.1929986
1.1934226
1.1938553
1.1943003
1.1947631
1.1952509
1.1957713
1.1963321
1.1969389
1.197592
1.198278
1.1989801
1.1997052
1.2002398
1.2004651
1.2006558
1.2008996
1.2011349
1.2013441
1.2015223
1.2016724
1.2017937
1.2018882
1.201953
1.2019837
1.1914296
1.1916583
1.1919452
1.1922681
1.1926184
1.1929874
1.1933681
1.1937577
1.194157
1.1945691
1.194999
1.1954534
1.1959395
1.1964648
1.197035
1.1976513
1.1983025
1.1989796
1.1996864
1.2002344
1.2004682
1.2006464
1.2008818
1.2011148
1.2013242
1.2015033
1.2016543
1.2017768
1.2018725
1.2019384
1.2019698
1.1920503
1.192248
1.1924994
1.1927841
1.1930955
1.1934263
1.19377
1.1941231
1.1944862
1.1948624
1.1952564
1.1956745
1.1961238
1.1966117
1.1971439
1.1977227
1.1983406
1.1989882
1.1996611
1.2002235
1.2004747
1.200641
1.200866
1.2010952
1.2013045
1.201484
1.2016357
1.2017594
1.2018561
1.201923
1.2019551
1.1926731
1.1928403
1.1930562
1.1933042
1.1935794
1.193875
1.194184
1.1945024
1.1948304
1.1951708
1.1955284
1.1959095
1.1963214
1.1967711
1.1972647
1.1978053
1.1983888
1.1990056
1.1996477
1.2002154
1.2004846
1.2006387
1.2008512
1.2010762
1.2012853
1.2014646
1.2016168
1.2017413
1.2018391
1.2019069
1.2019396
1.1932702
1.1934083
1.1935904
1.1938037
1.1940454
1.1943095
1.1945882
1.1948766
1.1951738
1.1954821
1.1958061
1.1961521
1.1965277
1.19694
1.1973955
1.1978981
1.198446
1.1990316
1.199647
1.2002033
1.2004941
1.2006417
1.2008404
1.2010594
1.2012665
1.2014454
1.2015975
1.2017228
1.2018213
1.20189
1.2019233
1.1938264
1.1939371
1.1940868
1.1942665
1.1944756
1.1947102
1.1949629
1.1952274
1.1955004
1.1957829
1.1960787
1.1963942
1.196737
1.1971147
1.1975339
1.1979996
1.1985117
1.1990649
1.1996499
1.2001982
1.2005123
1.2006493
1.2008302
1.2010427
1.2012489
1.2014262
1.201578
1.2017037
1.201803
1.2018724
1.2019062
1.1943204
1.1944087
1.1945294
1.1946782
1.194857
1.1950648
1.1952954
1.1955411
1.1957967
1.1960608
1.1963358
1.1966275
1.1969432
1.1972907
1.1976771
1.1981079
1.1985853
1.1991049
1.1996532
1.2001818
1.2005305
1.2006637
1.2008267
1.2010301
1.2012328
1.201408
1.2015586
1.2016844
1.2017841
1.2018541
1.2018884
1.1946985
1.1947865
1.1948981
1.1950271
1.1951835
1.1953696
1.1955815
1.1958124
1.1960558
1.1963083
1.1965701
1.1968454
1.1971406
1.1974635
1.1978217
1.1982211
1.1986655
1.199151
1.1996655
1.2001868
1.2005581
1.200677
1.2008241
1.2010266
1.2012171
1.2013897
1.2015391
1.2016646
1.2017647
1.2018352
1.2018698
1.1950343
1.1950878
1.1951759
1.1952974
1.1954463
1.19562
1.1958172
1.1960371
1.1962736
1.1965209
1.1967768
1.1970432
1.1973251
1.1976299
1.1979651
1.1983374
1.1987511
1.1992048
1.1996912
1.2001983
1.2005784
1.2006957
1.2008285
1.2010189
1.2012037
1.2013732
1.2015201
1.201645
1.2017449
1.2018156
1.2018506
1.1953212
1.1953732
1.1954442
1.195537
1.1956585
1.1958141
1.1960033
1.1962192
1.1964541
1.1967014
1.1969569
1.1972206
1.1974957
1.1977883
1.1981057
1.198455
1.1988415
1.1992666
1.1997261
1.2002109
1.2005966
1.2007125
1.2008407
1.2010201
1.201192
1.2013574
1.2015017
1.2016249
1.2017246
1.2017956
1.2018307
1.1955307
1.195579
1.1956466
1.1957362
1.1958533
1.1960015
1.1961781
1.1963836
1.1966156
1.1968633
1.1971199
1.1973834
1.1976552
1.1979395
1.1982431
1.1985732
1.1989358
1.1993339
1.199766
1.2002254
1.2006147
1.2007432
1.2008569
1.2010183
1.2011843
1.2013422
1.2014836
1.2016053
1.2017044
1.201775
1.2018102
1.1957413
1.1957867
1.1958485
1.1959301
1.1960379
1.1961777
1.1963528
1.1965566
1.1967814
1.1970239
1.1972782
1.1975401
1.1978087
1.1980865
1.1983787
1.198692
1.1990329
1.1994058
1.1998115
1.2002469
1.2006369
1.2007816
1.2008715
1.2010178
1.2011789
1.2013327
1.2014678
1.2015861
1.2016837
1.2017541
1.2017893
1.1959866
1.1960312
1.1960906
1.196168
1.1962699
1.1963999
1.1965551
1.1967396
1.196956
1.1971925
1.1974417
1.197699
1.1979625
1.198233
1.1985142
1.1988118
1.1991324
1.1994814
1.1998609
1.2002697
1.2006551
1.2008149
1.2008898
1.20103
1.201179
1.2013192
1.2014521
1.2015668
1.2016635
1.201733
1.201768
1.1962732
1.1963148
1.1963696
1.19644
1.196531
1.1966438
1.1967873
1.1969651
1.1971659
1.1973865
1.1976226
1.1978692
1.1981228
1.1983829
1.1986514
1.1989331
1.199234
1.19956
1.1999141
1.2002966
1.2006729
1.2008585
1.2009224
1.2010374
1.2011737
1.201311
1.2014386
1.20155
1.2016433
1.2017118
1.2017465
1.1966105
1.1966474
1.1966957
1.1967564
1.1968328
1.1969336
1.1970652
1.1972215
1.1974001
1.197601
1.1978197
1.1980508
1.1982904
1.1985367
1.1987905
1.1990554
1.1993369
1.1996406
1.1999711
1.2003296
1.2006963
1.2009044
1.2009502
1.2010454
1.2011791
1.2013118
1.2014285
1.2015325
1.2016237
1.201691
1.201725
1.1969904
1.1970176
1.1970559
1.197105
1.1971725
1.1972626
1.1973722
1.197502
1.1976555
1.197832
1.1980282
1.1982395
1.1984616
1.1986915
1.198929
1.1991765
1.1994387
1.1997213
1.2000295
1.2003658
1.2007211
1.200945
1.2009838
1.2010708
1.2011918
1.2013048
1.2014143
1.2015186
1.2016054
1.2016702
1.2017036
1.1973918
1.1974155
1.1974491
1.1974907
1.1975409
1.1976069
1.1976919
1.1977971
1.1979232
1.1980712
1.1982403
1.1984274
1.1986286
1.1988404
1.1990611
1.1992918
1.199536
1.199799
1.2000862
1.2004013
1.2007407
1.2009824
1.2010239
1.2010967
1.2011981
1.2013054
1.2014095
1.2015059
1.2015873
1.2016505
1.2016829
1.1977876
1.1978041
1.1978326
1.1978736
1.1979196
1.1979687
1.1980293
1.198106
1.1982016
1.1983177
1.1984552
1.1986132
1.198789
1.1989796
1.1991825
1.1993969
1.1996249
1.1998706
1.2001391
1.2004349
1.2007577
1.2010182
1.2010666
1.2011208
1.2012115
1.2013119
1.201402
1.2014914
1.201572
1.2016313
1.2016624
1.1981194
1.1981322
1.1981489
1.1981703
1.1982068
1.1982595
1.1983226
1.1983887
1.1984601
1.1985482
1.198657
1.1987867
1.1989368
1.1991052
1.1992898
1.1994887
1.1997024
1.1999337
1.2001869
1.2004664
1.2007736
1.201048
1.2011105
1.2011503
1.2012289
1.2013108
1.2014002
1.2014872
1.2015566
1.2016135
1.2016433
1.1983875
1.1983994
1.1984145
1.19843
1.1984465
1.198468
1.1984998
1.1985514
1.1986244
1.198713
1.1988117
1.1989224
1.1990531
1.1992045
1.1993746
1.1995618
1.1997652
1.1999863
1.2002282
1.200495
1.2007894
1.2010745
1.2011536
1.201182
1.201243
1.2013199
1.2014033
1.201477
1.201544
1.2015976
1.2016253
1.1985349
1.198552
1.1985722
1.1985942
1.1986176
1.1986425
1.1986697
1.1987026
1.1987468
1.198807
1.1988914
1.1989979
1.1991217
1.1992655
1.1994291
1.1996113
1.1998106
1.2000269
1.2002621
1.2005199
1.2008042
1.2010943
1.201196
1.2012143
1.2012637
1.2013338
1.2014053
1.2014703
1.2015339
1.201583
1.2016087
1.1985401
1.1985604
1.1985832
1.1986089
1.1986381
1.1986717
1.1987107
1.1987562
1.1988094
1.1988721
1.1989485
1.1990455
1.1991651
1.1993057
1.1994665
1.1996463
1.1998436
1.2000578
1.2002894
1.200541
1.2008174
1.2011117
1.2012353
1.2012478
1.201288
1.201344
1.2014074
1.20147
1.2015255
1.2015705
1.2015946
1.198534
1.1985543
1.1985769
1.1986023
1.198632
1.1986669
1.1987084
1.1987581
1.1988177
1.1988896
1.1989757
1.1990763
1.1991956
1.1993374
1.199499
1.1996782
1.1998739
1.2000856
1.2003134
1.2005592
1.200828
1.2011201
1.2012706
1.2012815
1.2013131
1.2013588
1.2014156
1.201469
1.2015198
1.2015619
1.2015821
1.1986038