/*--------------------------------*- C++ -*----------------------------------*\
| =========                 |                                                 |
| \\      /  F ield         | OpenFOAM: The Open Source CFD Toolbox           |
|  \\    /   O peration     | Version:  2406                                  |
|   \\  /    A nd           | Website:  www.openfoam.com                      |
|    \\/     M anipulation  |                                                 |
\*---------------------------------------------------------------------------*/
FoamFile
{
    version     2.0;
    format      ascii;
    arch        "LSB;label=32;scalar=64";
    class       volScalarField;
    location    "0.044";
    object      Ma;
}
// * * * * * * * * * * * * * * * * * * * * * * * * * * * * * * * * * * * * * //

dimensions      [0 0 0 0 0 0 0];

internalField   nonuniform List<scalar> 
35803
(
0.1575139
0.15859266
0.15962513
0.16069451
0.16174834
0.16277358
0.1637539
0.16469167
0.16576591
0.16705784
0.16857275
0.17013796
0.17183456
0.17363515
0.17549048
0.17704049
0.17760641
0.17609176
0.17222118
0.16918399
0.16744763
0.16614969
0.16462689
0.16339801
0.16150793
0.16067821
0.15931923
0.15900081
0.15806315
0.15757643
0.1499694
0.15457091
0.15577659
0.15704666
0.15833774
0.1596303
0.16091063
0.16216801
0.16341411
0.16474728
0.16623588
0.16787853
0.16958073
0.17138401
0.17325926
0.1751567
0.17670652
0.17720702
0.17557185
0.17169738
0.16884038
0.16721185
0.16596521
0.16448003
0.16327925
0.16136566
0.16057733
0.15925786
0.15894924
0.15802467
0.1575475
0.14995649
0.15084369
0.15225164
0.15383014
0.15543291
0.15703433
0.15862676
0.16020342
0.16177345
0.16339526
0.16512459
0.16695695
0.16882942
0.17076651
0.17273908
0.17469724
0.17626295
0.17671649
0.17496901
0.17112502
0.16847935
0.16695849
0.16576607
0.16432375
0.16315633
0.1612543
0.16048274
0.15919363
0.15889208
0.15797957
0.15751574
0.14994104
0.14705252
0.14864835
0.15047433
0.15235643
0.15425351
0.15615378
0.15804823
0.15993812
0.16185748
0.16384338
0.16589258
0.16795342
0.17004009
0.17212251
0.17414763
0.17572595
0.17612212
0.17425165
0.1704676
0.16806637
0.16666337
0.16553168
0.16413976
0.16300754
0.16114997
0.1603932
0.15912457
0.15882675
0.15792256
0.15747912
0.14992279
0.14326767
0.14503372
0.14705629
0.14917406
0.15133848
0.15352922
0.15573132
0.15793561
0.16015407
0.16240465
0.16468198
0.16694425
0.16919345
0.17139643
0.17349344
0.1750785
0.17539991
0.17339443
0.16971671
0.16760165
0.16632551
0.16526214
0.16393084
0.1628362
0.16100726
0.16030934
0.15904833
0.1587524
0.15785303
0.15743657
0.14990122
0.13958137
0.14148184
0.14365297
0.14595762
0.14834782
0.15079604
0.15327982
0.15577933
0.15828699
0.16080215
0.16331309
0.16578455
0.16820551
0.17053718
0.1727093
0.17429322
0.17451728
0.17236978
0.16886783
0.16707748
0.16593844
0.16495083
0.16369205
0.16263512
0.16081987
0.16019448
0.15896249
0.15866577
0.15777242
0.15738717
0.14987575
0.13612618
0.13811156
0.14037834
0.14281439
0.14537598
0.14803112
0.1507512
0.15350756
0.15627727
0.15904286
0.1617829
0.16446257
0.16705758
0.16952051
0.17176583
0.17333571
0.17343244
0.17114267
0.1679243
0.16648615
0.16549615
0.16459243
0.16342073
0.16240165
0.16067457
0.1600384
0.15886728
0.15856704
0.15768502
0.15732981
0.14984291
0.13300717
0.13506447
0.13738267
0.13988809
0.14255161
0.14534341
0.14823289
0.15118621
0.15416977
0.15715207
0.16010013
0.1629736
0.16573398
0.1683213
0.17062827
0.17216364
0.1720913
0.16966624
0.1668989
0.16581687
0.16499132
0.16418095
0.16311208
0.16213131
0.16057
0.15986494
0.1587574
0.15846402
0.15759246
0.15726304
0.14981782
0.1305173
0.13256002
0.13485194
0.1373441
0.14002071
0.14285898
0.14583043
0.14889967
0.15202674
0.1551696
0.15828365
0.16131873
0.16422043
0.16691155
0.16925469
0.17071958
0.17042117
0.16792785
0.16580823
0.16505924
0.16441526
0.16371082
0.16276082
0.16182086
0.16039742
0.15968033
0.15862033
0.15837348
0.15749154
0.15718514
0.14978501
0.12874425
0.13069581
0.13288793
0.13528941
0.13789417
0.14068753
0.14364606
0.14673692
0.14991908
0.15314484
0.15636025
0.15950352
0.16250251
0.16525735
0.16758992
0.16891595
0.16832392
0.16598335
0.16465241
0.16420355
0.16375821
0.16317622
0.16235973
0.16146661
0.16016757
0.15947245
0.15846561
0.15826071
0.15737574
0.15709438
0.14975156
0.12768552
0.1295015
0.13154399
0.13379314
0.13625119
0.13891284
0.14176288
0.14477494
0.14791199
0.15112601
0.15435735
0.15753287
0.160561
0.16331204
0.16554998
0.16662226
0.16569952
0.16394832
0.16341145
0.16324447
0.16301017
0.16256991
0.16189965
0.16106527
0.15990382
0.15922055
0.15826888
0.15812777
0.15724462
0.15698922
0.14971158
0.12730485
0.1289444
0.1308015
0.13285551
0.13510772
0.13756144
0.14021397
0.14304981
0.14603987
0.14913963
0.15228689
0.15539805
0.15835901
0.16099941
0.16299829
0.16363425
0.16267217
0.16200121
0.16207766
0.16218667
0.16216159
0.16188298
0.16137026
0.16061371
0.15958443
0.158923
0.15805816
0.15793024
0.15711454
0.15686774
0.14968091
0.12759299
0.12897795
0.13056681
0.13235262
0.13434022
0.13653039
0.13892281
0.14150969
0.14426863
0.1471588
0.15011665
0.15304782
0.15580891
0.15817065
0.15968655
0.15983771
0.15970751
0.16010719
0.16065353
0.16104328
0.16121585
0.16110391
0.16076494
0.16011102
0.15921428
0.15857916
0.15783731
0.15770134
0.15693675
0.15672703
0.14964079
0.12819307
0.12934569
0.130668
0.13215543
0.1338256
0.13569631
0.1377736
0.14004973
0.14249997
0.14508073
0.14772183
0.15031053
0.15266582
0.15452151
0.15549074
0.15593568
0.15707457
0.15825864
0.15916008
0.15980463
0.16017534
0.16024978
0.16008115
0.15955095
0.15879336
0.15818984
0.15755445
0.15744275
0.1567302
0.15656284
0.14959802
0.12873379
0.12965275
0.13073608
0.13197526
0.13336648
0.13491466
0.13662916
0.13850961
0.1405399
0.14268148
0.14487141
0.1469868
0.14882767
0.15017339
0.15131397
0.15305437
0.15486122
0.15632976
0.15757663
0.15848058
0.15906244
0.15932633
0.15932622
0.15893008
0.15830934
0.15775761
0.15724107
0.15712943
0.15647031
0.15636958
0.14955065
0.12861001
0.12920527
0.12993743
0.13084465
0.13195632
0.13326301
0.13473484
0.13637337
0.13806977
0.13981048
0.14155591
0.14330461
0.14501006
0.1467262
0.14877623
0.15096279
0.15281811
0.15446018
0.15593186
0.15707377
0.15786687
0.15833097
0.15851598
0.1582424
0.15777022
0.15728266
0.15685898
0.15678227
0.15617968
0.15613943
0.14949741
0.12954083
0.12998089
0.13048557
0.13105933
0.13173161
0.13256473
0.13358588
0.13479313
0.13616627
0.13763315
0.1392019
0.14091637
0.14275805
0.14476684
0.14693307
0.14903698
0.15101071
0.15273186
0.1543103
0.15560565
0.15658179
0.15725593
0.15763206
0.15749911
0.15716506
0.1567476
0.15642578
0.15637817
0.15583375
0.15586195
0.1494376
0.13147998
0.13188436
0.13234678
0.13286519
0.13343228
0.13403126
0.13464432
0.13526576
0.13600763
0.1370645
0.13841228
0.13995222
0.14159749
0.14340501
0.14523075
0.14724406
0.14930832
0.1511493
0.15275712
0.15412673
0.15521626
0.15608426
0.15668061
0.15669152
0.15649446
0.15615716
0.15592525
0.15593151
0.15544029
0.15552775
0.14936799
0.13278051
0.13308107
0.13343642
0.13385983
0.13436937
0.13499
0.13574544
0.13661595
0.13744677
0.13826133
0.13919471
0.14021249
0.14135045
0.14279717
0.14426281
0.14594383
0.14779015
0.14966495
0.15131725
0.15273611
0.15387572
0.15484278
0.15565569
0.15584641
0.15574937
0.1555085
0.15538861
0.15544106
0.15498964
0.15513689
0.14923581
0.13529134
0.13550836
0.13575592
0.136035
0.13634689
0.13669176
0.13707306
0.13750953
0.13804468
0.13871058
0.13953363
0.14062281
0.14179267
0.14281529
0.14392583
0.14521843
0.14674135
0.14842337
0.14998145
0.15145869
0.15265762
0.15364793
0.15463801
0.15495071
0.15495436
0.15481653
0.1547985
0.1549182
0.15449294
0.15469515
0.14912776
0.13687363
0.13704574
0.13724909
0.13748938
0.1377757
0.13811862
0.13852779
0.13900716
0.13954975
0.14014092
0.14075671
0.14134504
0.14200433
0.14296542
0.14409148
0.14501417
0.14615168
0.14749217
0.14886373
0.15025924
0.15154782
0.15262005
0.15367942
0.15403449
0.15412361
0.15407383
0.15415455
0.15435017
0.15395466
0.15419912
0.14900518
0.13930527
0.13942317
0.13955792
0.1397101
0.13988045
0.14006982
0.14028055
0.14051856
0.14079752
0.14114192
0.14158864
0.14216985
0.14282458
0.14345637
0.1442221
0.14522195
0.14600105
0.14691827
0.14804988
0.14924455
0.15042055
0.151712
0.15278979
0.15314164
0.15325292
0.15327643
0.15344678
0.15372417
0.15338116
0.15366278
0.14893443
0.14081457
0.14090457
0.14101097
0.14113643
0.14128531
0.14146389
0.14167971
0.14193831
0.14224299
0.1425903
0.14296769
0.14336435
0.14380439
0.14430446
0.14478384
0.14536775
0.14614932
0.14674036
0.14762094
0.14863892
0.14958999
0.15075755
0.15191472
0.15228067
0.15233117
0.15246625
0.15271059
0.15307545
0.1527749
0.15312792
0.14889023
0.14294394
0.14300352
0.14307226
0.14315122
0.14324154
0.14334324
0.14345542
0.14357893
0.14371616
0.1438756
0.14407485
0.14433702
0.14467208
0.14507459
0.14552165
0.14588586
0.14626025
0.14692138
0.14754153
0.14834149
0.14912559
0.14997169
0.15098234
0.15141061
0.15145689
0.15168845
0.1519606
0.15241812
0.15213847
0.15248985
0.1488292
0.14411399
0.14415388
0.14420151
0.1442583
0.14432672
0.14441063
0.14451597
0.14465006
0.14481697
0.14501435
0.14523147
0.14544829
0.14565241
0.14586443
0.14613142
0.1465027
0.14687436
0.14723804
0.14776256
0.14827783
0.14889469
0.14950637
0.15022463
0.15067544
0.15075096
0.1509986
0.15120264
0.1517254
0.15147553
0.15186296
0.14866221
0.14584589
0.14586859
0.14589455
0.14592417
0.14595757
0.14599374
0.1460297
0.14606099
0.14608688
0.14611248
0.14614937
0.14621558
0.14632457
0.14647217
0.14665162
0.14689797
0.14724243
0.14757005
0.14782769
0.14832686
0.14882059
0.14920172
0.14980359
0.15021575
0.15020347
0.15040395
0.15052259
0.15106369
0.15085366
0.15136455
0.14859857
0.14683311
0.14684378
0.14685735
0.14687413
0.14689501
0.14692137
0.14695524
0.1469992
0.14705535
0.14712424
0.14720397
0.14729093
0.14737067
0.14743215
0.14748025
0.14754087
0.14765406
0.14788698
0.14813698
0.14843038
0.14878811
0.14898024
0.14949541
0.14987224
0.14962767
0.14982012
0.14991875
0.15045822
0.15034251
0.15079554
0.14854089
0.14802203
0.14802502
0.14802837
0.1480321
0.14803642
0.14804169
0.14804838
0.148057
0.14806781
0.14808011
0.14809153
0.14809716
0.14810218
0.14812113
0.1481705
0.14822828
0.1482927
0.14837001
0.1484633
0.14849559
0.14856723
0.14867794
0.14925509
0.14962142
0.14908521
0.14925131
0.14937577
0.14984803
0.14988488
0.15035266
0.14850815
0.14860498
0.14860118
0.14859693
0.14859226
0.14858737
0.14858252
0.14857819
0.148575
0.14857371
0.14857474
0.14857651
0.14857619
0.14857397
0.1485711
0.14856908
0.14856882
0.14857195
0.14857458
0.14859283
0.14849203
0.14841785
0.14834544
0.14899077
0.14947393
0.14882666
0.14887782
0.14888519
0.14924816
0.14940357
0.14978882
0.14851055
0.14899011
0.14897835
0.14896499
0.14895032
0.14893477
0.14891884
0.14890292
0.14888732
0.1488724
0.14885841
0.14884549
0.1488327
0.14881891
0.1488033
0.14878838
0.14877773
0.14876975
0.14875833
0.14880121
0.14868338
0.14834957
0.14806024
0.14864235
0.14935167
0.14868497
0.14857652
0.14860156
0.14887716
0.14894851
0.14923732
0.14851246
0.14926097
0.14925139
0.14924063
0.14922921
0.14921775
0.14920689
0.14919716
0.14918874
0.14918143
0.14917462
0.14916768
0.14916037
0.1491535
0.14914954
0.14915317
0.14916711
0.1491815
0.14917172
0.14918839
0.14905595
0.14867061
0.14815069
0.14867088
0.14935023
0.14869759
0.14844326
0.14866292
0.1487249
0.14873205
0.14894141
0.14845829
0.016944073
0.03202821
0.058552629
0.092195499
0.11806518
0.13378832
0.14323967
0.14979152
0.15505474
0.15964397
0.16378243
0.16757808
0.17108656
0.17433747
0.17734191
0.18004074
0.18238872
0.18389881
0.18412838
0.18193174
0.17704157
0.17306286
0.17027462
0.16792026
0.16520111
0.16351606
0.16170868
0.16098326
0.15985731
0.15885619
0.15038483
0.025865819
0.04789549
0.080585134
0.11071088
0.12913454
0.13962786
0.14653232
0.15196262
0.15667901
0.16093337
0.16482855
0.16843021
0.17177602
0.17488886
0.17777222
0.1803634
0.1825985
0.18397268
0.18404852
0.18165776
0.17672032
0.17285346
0.17012443
0.16779559
0.16510258
0.16344559
0.16165521
0.16094194
0.15981886
0.15882915
0.1503725
0.037882244
0.065535044
0.097759434
0.12081667
0.13426392
0.14254028
0.14854328
0.15353379
0.15796444
0.16199643
0.16570751
0.16915223
0.17236201
0.17535724
0.17813602
0.18063284
0.18276516
0.18401809
0.18395672
0.18139146
0.17642426
0.17266647
0.16998689
0.16768184
0.16501285
0.16338006
0.16160414
0.1609014
0.15978105
0.15879829
0.15035713
0.05387922
0.085149572
0.11222424
0.12890334
0.13866806
0.14523882
0.15046325
0.15503911
0.15919408
0.1630123
0.16654703
0.16984093
0.17292004
0.17580242
0.17848052
0.18088553
0.18291456
0.18404773
0.18385621
0.18111461
0.17612942
0.17248023
0.16984713
0.16756578
0.16492135
0.16331339
0.16155241
0.16086057
0.15974324
0.15876815
0.15034118
0.073835531
0.10293472
0.12291133
0.13457664
0.14195591
0.14748514
0.15219729
0.15645369
0.16036757
0.16398735
0.16735399
0.17050225
0.17345485
0.17622792
0.17880815
0.18112306
0.18304851
0.18406811
0.1837463
0.18082657
0.17583672
0.17229778
0.16970835
0.16745073
0.16483083
0.16324729
0.16150084
0.16081966
0.15970543
0.15873832
0.15032512
0.094190078
0.11665418
0.13035168
0.13872793
0.14464045
0.14948754
0.15381325
0.15779604
0.16148858
0.1649211
0.16812637
0.17113374
0.173964
0.1766314
0.17911678
0.18134364
0.18316661
0.18407766
0.18362367
0.18052853
0.17554735
0.17211895
0.16957027
0.16733623
0.16474076
0.16318134
0.16144919
0.16077859
0.1596676
0.15870856
0.15030859
0.1104252
0.12614007
0.13557168
0.1419362
0.14693967
0.15131537
0.15533261
0.15907322
0.16255948
0.16581382
0.16886344
0.17173448
0.17444667
0.17701218
0.17940586
0.181547
0.18326949
0.18407667
0.18348682
0.18022143
0.17526233
0.17194367
0.16943296
0.1672225
0.16465133
0.1631157
0.16139755
0.16073741
0.15962974
0.15867888
0.15029239
0.12208908
0.13259618
0.13941371
0.14458023
0.14899765
0.15302098
0.15677529
0.16029329
0.16358424
0.16666735
0.16956611
0.17230508
0.17490331
0.17737061
0.17967571
0.18173358
0.18335864
0.18406731
0.18333444
0.17990616
0.17498238
0.17177172
0.16929642
0.16710953
0.16456251
0.16305032
0.1613459
0.16069612
0.15959187
0.15864928
0.15027642
0.12973289
0.13709169
0.14243727
0.14688745
0.15089777
0.1546352
0.15815369
0.16146199
0.164566
0.16748316
0.17023515
0.17284609
0.17533433
0.17770695
0.17992655
0.18190378
0.18343436
0.18404763
0.18316754
0.17958242
0.17470824
0.17160289
0.16916064
0.16699737
0.16447433
0.16298523
0.16129426
0.16065475
0.15955401
0.15861975
0.15026072
0.13497549
0.14054195
0.14501941
0.14899416
0.15268931
0.15617755
0.15947626
0.16258374
0.16550684
0.16826215
0.17087108
0.17335786
0.17573996
0.17802138
0.18015857
0.18205797
0.18349619
0.18401417
0.18298552
0.1792518
0.17444057
0.17143695
0.16902565
0.16688606
0.1643868
0.16292042
0.16124262
0.16061329
0.15951612
0.15859029
0.15024533
0.13886665
0.14340593
0.14733948
0.150969
0.15440057
0.15766074
0.16074893
0.16366166
0.16640816
0.16900494
0.17147428
0.1738407
0.1761204
0.17831403
0.18037194
0.18219637
0.1835436
0.18396776
0.182789
0.17891685
0.17417973
0.17127365
0.16889146
0.16677564
0.16429993
0.16285591
0.16119102
0.16057178
0.15947815
0.15856091
0.1502303
0.14203007
0.14594985
0.14950526
0.15285605
0.15605084
0.15909362
0.16197609
0.16469811
0.16727089
0.16971197
0.17204507
0.17429484
0.17647585
0.17858505
0.18056683
0.18231877
0.18357588
0.18390852
0.18257925
0.17858044
0.17392575
0.17111278
0.16875811
0.16666614
0.16421375
0.1627917
0.16113944
0.16053022
0.15944017
0.1585316
0.15021572
0.14481463
0.14831745
0.15157713
0.1546823
0.15765282
0.16048212
0.16316109
0.16569463
0.16809557
0.1703835
0.1725837
0.17472049
0.17680646
0.17883457
0.18074339
0.18242457
0.18359309
0.18383759
0.18235768
0.17824305
0.17367857
0.17095414
0.16862563
0.1665576
0.16412825
0.16272781
0.16108792
0.16048862
0.15940222
0.15850236
0.15020166
0.14740508
0.15058983
0.15359245
0.15646552
0.15921492
0.16183022
0.16430619
0.1666519
0.16888242
0.17101973
0.17309035
0.17511782
0.17711238
0.17906273
0.18090174
0.18251348
0.183596
0.18375575
0.18212458
0.17790566
0.17343811
0.17079754
0.16849406
0.16645004
0.16404345
0.16266423
0.16103645
0.160447
0.15936429
0.1584732
0.15018818
0.14990527
0.1528151
0.15557428
0.15821678
0.1607422
0.16314038
0.16541238
0.16757011
0.16963147
0.17162072
0.17356513
0.17548696
0.17739373
0.17926964
0.18104201
0.18258545
0.18358574
0.18366352
0.18188078
0.17756929
0.17320419
0.17064284
0.16836344
0.16634349
0.16395936
0.16260097
0.16098507
0.16040537
0.15932641
0.15844412
0.15017536
0.15237315
0.15502143
0.15753644
0.15994244
0.16223709
0.16441385
0.16647975
0.16844903
0.17034256
0.17218646
0.17400811
0.17582799
0.17765061
0.1794554
0.1811643
0.18264029
0.18356228
0.18356138
0.18162642
0.17723519
0.17297661
0.17048989
0.16823381
0.16623799
0.16387599
0.16253805
0.16093378
0.16036375
0.15928858
0.15841511
0.15016325
0.15484219
0.15722522
0.15948629
0.16164513
0.16370006
0.16565057
0.16750764
0.16928806
0.17101537
0.17271681
0.17441927
0.17614098
0.17788309
0.17962014
0.18126862
0.18267748
0.18352379
0.18344966
0.18136212
0.17690404
0.1727551
0.17033856
0.16810522
0.16613356
0.16379335
0.16247547
0.16088262
0.16032214
0.1592508
0.15838619
0.15015189
0.15733102
0.15943428
0.16142594
0.16332424
0.16513003
0.16684915
0.16849479
0.17008636
0.17164944
0.17321159
0.17479857
0.17642594
0.17809126
0.17976394
0.18135459
0.18269617
0.1834739
0.1833283
0.18108876
0.17657634
0.17253942
0.17018877
0.16797771
0.16603022
0.16371145
0.16241325
0.16083159
0.16028056
0.15921307
0.15835737
0.15014133
0.1598467
0.16164892
0.16335276
0.16497629
0.16652426
0.16800714
0.16943943
0.17084283
0.17224417
0.17367052
0.1751459
0.17668289
0.17827517
0.1798869
0.18142165
0.18269903
0.18341801
0.18319739
0.18080705
0.1762528
0.17232932
0.17004042
0.16785131
0.16592801
0.16363031
0.16235139
0.16078072
0.16023902
0.15917541
0.15832865
0.15013159
0.16238422
0.16386196
0.16525956
0.16659534
0.16787838
0.16912125
0.17033938
0.17155616
0.17279885
0.17409324
0.17546113
0.17691179
0.1784349
0.17998917
0.1814707
0.18268983
0.18335346
0.18305751
0.18051781
0.17593401
0.17212455
0.16989344
0.16772608
0.16582695
0.16354992
0.16228991
0.16073003
0.16019753
0.15913782
0.15830005
0.15012271
0.16492667
0.16605917
0.16713506
0.16817339
0.16918658
0.17018751
0.17119212
0.17222488
0.17331267
0.17447937
0.17574405
0.17711261
0.17857051
0.18007079
0.18150257
0.18266902
0.18328023
0.18290688
0.18022177
0.17562049
0.17192485
0.16974779
0.16760206
0.16572706
0.16347031
0.16222882
0.16067954
0.16015611
0.15910029
0.15827159
0.15011469
0.16744718
0.16822048
0.16896477
0.16970073
0.17044204
0.17120142
0.17199488
0.17284736
0.17378473
0.17482844
0.17599447
0.17728532
0.17868205
0.18013133
0.18151716
0.18263622
0.18320002
0.18274512
0.17991955
0.17531267
0.17172993
0.16960342
0.16747927
0.16562838
0.16339149
0.16216812
0.16062928
0.16011476
0.15906284
0.15824328
0.15010756
0.16991216
0.17032102
0.17073257
0.17116657
0.17163732
0.17215797
0.17274464
0.17342188
0.17421407
0.17514
0.17621216
0.17742986
0.17876937
0.18017062
0.18151636
0.18259154
0.18311093
0.18257196
0.17961199
0.17501091
0.17153951
0.16946032
0.16735777
0.16553092
0.16331347
0.16210783
0.16057926
0.1600735
0.15902546
0.15821513
0.15010134
0.1722841
0.17233327
0.17242256
0.17255968
0.17276458
0.17305169
0.17343827
0.17394664
0.1745997
0.17541355
0.17639691
0.177546
0.17883155
0.18018907
0.18150019
0.18253445
0.1830111
0.1823862
0.17930011
0.17471552
0.1713533
0.16931847
0.16723759
0.16543472
0.16323629
0.16204795
0.16052949
0.16003233
0.15898816
0.15818718
0.15009603
0.17453251
0.17423912
0.17401623
0.1738678
0.17381549
0.17387722
0.1740725
0.17441981
0.17494062
0.17564868
0.17654839
0.17763289
0.17886688
0.18018873
0.18146815
0.18246485
0.18290109
0.18219011
0.17898518
0.17442678
0.17117104
0.16917788
0.16711876
0.16533979
0.16315995
0.16198852
0.16047999
0.15999126
0.15895093
0.15815947
0.15009163
0.17662933
0.17601654
0.17549565
0.17507744
0.17478186
0.17463078
0.17464456
0.17483924
0.17523583
0.17584495
0.17666574
0.17768707
0.17887639
0.18017081
0.18141995
0.18238269
0.1827806
0.18198379
0.1786683
0.17414491
0.17099248
0.16903856
0.16700132
0.16524616
0.16308446
0.16192961
0.16043075
0.15995032
0.15891378
0.15813202
0.15008813
0.17854416
0.17764051
0.17684646
0.17617777
0.17565737
0.17530774
0.17515029
0.17520425
0.17548386
0.17600119
0.1767457
0.17770902
0.17886641
0.18013417
0.18135576
0.18228804
0.18264957
0.18176832
0.17835099
0.17387004
0.17081737
0.16890053
0.16688529
0.16515387
0.16300978
0.16187125
0.1603818
0.1599095
0.15887671
0.15810472
0.1500855
0.18025488
0.17909389
0.17805541
0.17715993
0.17643459
0.17590347
0.17559038
0.17551188
0.17568286
0.17611307
0.17678489
0.17770673
0.17883504
0.18007688
0.18127562
0.18218101
0.18250822
0.18154474
0.17803455
0.17360218
0.17064547
0.16876388
0.16677065
0.16506292
0.16293589
0.16181337
0.16033322
0.1598688
0.15883976
0.15807774
0.15008335
0.18174435
0.18036232
0.17911081
0.17801543
0.17710746
0.17641406
0.17595986
0.17575867
0.17582663
0.17617142
0.1767911
0.17768113
0.17877866
0.17999916
0.18117954
0.18206181
0.18235684
0.18131399
0.17772005
0.17334125
0.1704766
0.16862873
0.16665735
0.1649733
0.16286299
0.16175579
0.16028502
0.15982822
0.15880293
0.15805107
0.15008144
0.18299807
0.1814333
0.18000251
0.17873662
0.1776697
0.17683221
0.1762508
0.17593481
0.17590417
0.1761867
0.17677339
0.17762862
0.17869775
0.17990116
0.18106754
0.18193066
0.18219578
0.18107698
0.1774084
0.17308713
0.17031057
0.16849493
0.16654558
0.16488504
0.1627911
0.16169863
0.16023701
0.15978777
0.15876621
0.15802473
0.15007968
0.18400043
0.18229246
0.18071881
0.1793142
0.17811246
0.17714458
0.17644118
0.17602252
0.1759309
0.17617636
0.17672665
0.17754601
0.17859232
0.17978281
0.18093961
0.18178769
0.18202547
0.18083465
0.17710034
0.17283973
0.17014727
0.16836244
0.16643543
0.16479816
0.16272014
0.16164196
0.16018921
0.15974745
0.15872962
0.15799876
0.15007793
0.18472316
0.1829131
0.18123319
0.17971964
0.17840624
0.17732815
0.17652782
0.1760534
0.17592981
0.17613514
0.17664321
0.1774336
0.17846223
0.17964402
0.18079572
0.18163252
0.18184609
0.18058793
0.17679651
0.17259896
0.16998655
0.16823143
0.16632682
0.16471267
0.16265012
0.16158585
0.1601416
0.15970729
0.15869317
0.15797318
0.15007611
0.18513246
0.18326548
0.18151938
0.17993187
0.17854508
0.17740183
0.17655546
0.17605179
0.17588819
0.17605048
0.17652385
0.17729146
0.17830729
0.17948469
0.18063585
0.18146631
0.18165795
0.18033771
0.17649727
0.17236466
0.16982828
0.16810196
0.16621974
0.16462856
0.16258104
0.1615303
0.1600941
0.15966729
0.15865685
0.15794809
0.15007413
0.1853167
0.18342354
0.18164261
0.18001191
0.1785879
0.17742111
0.17655095
0.1760012
0.17579187
0.17591992
0.17636845
0.17711939
0.17812739
0.17930472
0.18045988
0.18129021
0.18146236
0.1800848
0.17620298
0.17213669
0.16967238
0.16797408
0.16611422
0.16454584
0.16251292
0.16147536
0.16004661
0.15962746
0.15862071
0.1579234
0.15007189
0.18537766
0.18348225
0.18168833
0.18003785
0.17859094
0.17739495
0.17648093
0.17588139
0.17563926
0.17574392
0.17617648
0.17691719
0.17792243
0.17910406
0.18026805
0.18110248
0.18125941
0.17983
0.17591398
0.17191495
0.16951879
0.16784782
0.16601027
0.16446451
0.16244579
0.16142105
0.15999939
0.1595878
0.15858479
0.15789673
0.1500693
0.18527097
0.18340092
0.1816165
0.17996697
0.17850293
0.17727086
0.17631839
0.17569101
0.1754302
0.1755218
0.1759475
0.17668469
0.17769235
0.17888266
0.18006055
0.18090502
0.18104976
0.17957399
0.17563057
0.17169931
0.16936743
0.16772325
0.16590789
0.16438457
0.16237967
0.1613674
0.15995245
0.15954835
0.15854919
0.15786824
0.15006623
0.18484244
0.18305189
0.18131958
0.17970385
0.1782538
0.17702195
0.17606208
0.17542794
0.17516335
0.17525288
0.1756811
0.17642175
0.1774371
0.17864044
0.17983728
0.18069706
0.1808341
0.17931743
0.17535298
0.17148962
0.16921826
0.16760039
0.16580711
0.16430602
0.1623146
0.16131445
0.15990578
0.15950914
0.15851373
0.15784511
0.15006237
0.18409248
0.18242516
0.18078717
0.17924368
0.17784633
0.17664954
0.17570976
0.17509018
0.17483731
0.17493642
0.1753769
0.17612823
0.17715666
0.17837739
0.17959821
0.1804789
0.18061301
0.17906095
0.17508138
0.17128578
0.16907127
0.1674793
0.16570792
0.16422887
0.16225061
0.16126222
0.1598594
0.15947003
0.15847822
0.15782487
0.15005765
0.18310371
0.18156918
0.18004733
0.17860392
0.17728871
0.17615486
0.17526044
0.1746763
0.17445068
0.17457168
0.17503447
0.17580401
0.17685104
0.17809349
0.17934329
0.18025077
0.18038707
0.17880517
0.17481594
0.17108762
0.16892645
0.16736001
0.16561035
0.1641531
0.16218773
0.16121072
0.15981333
0.15943068
0.15844288
0.15780392
0.15005216
0.18189039
0.18049895
0.17911149
0.177792
0.17658479
0.17553959
0.17471397
0.17418558
0.17400209
0.17415798
0.17465342
0.17544898
0.17652028
0.17778879
0.17907248
0.18001274
0.18015684
0.17855069
0.17455679
0.17089499
0.1687838
0.16724257
0.1655144
0.16407873
0.162126
0.16116001
0.15976756
0.15939121
0.15840769
0.15778244
0.15004609
0.1804408
0.1792118
0.17798163
0.17681091
0.17573713
0.17480513
0.17407101
0.17361791
0.17349006
0.17369467
0.17423332
0.17506299
0.17616444
0.17746335
0.17878572
0.17976484
0.17992291
0.17829811
0.174304
0.17070775
0.16864337
0.16712703
0.1654201
0.16400577
0.16206546
0.16111013
0.15972205
0.15935174
0.15837265
0.15776157
0.1500396
0.17874064
0.17770229
0.17665793
0.17566295
0.17474818
0.17395316
0.1733331
0.17297348
0.17291301
0.1731812
0.17377381
0.17464592
0.17578359
0.17711731
0.17848299
0.179507
0.1796857
0.17804804
0.17405765
0.1705258
0.16850517
0.16701342
0.16532747
0.16393421
0.16200609
0.16106104
0.15967688
0.15931236
0.15833776
0.1577409
0.15003289
0.17678825
0.17597198
0.1751439
0.17435192
0.17362094
0.17298567
0.172503
0.1722509
0.17227032
0.17261721
0.17327455
0.17419766
0.17537788
0.17675087
0.17816433
0.17923911
0.17944497
0.17780101
0.17381779
0.170349
0.16836925
0.16690178
0.1652365
0.16386405
0.16194784
0.16101273
0.15963207
0.15927314
0.15830301
0.15772037
0.15002608
0.1746028
0.17403439
0.17344893
0.17288412
0.17235944
0.17190601
0.17158203
0.17144772
0.17156372
0.17200224
0.17273526
0.17371812
0.17494745
0.17636433
0.17782983
0.17896095
0.17920097
0.1775575
0.17358441
0.17017719
0.16823556
0.16679205
0.16514716
0.16379526
0.16189072
0.16096519
0.15958777
0.15923422
0.15826843
0.15769983
0.15001922
0.17222109
0.17191296
0.17158733
0.17126822
0.17096841
0.17071922
0.17056841
0.17056474
0.17079538
0.1713361
0.1721556
0.17320716
0.17449246
0.17595801
0.17747972
0.17867224
0.17895393
0.17731807
0.17335736
0.17001009
0.16810408
0.16668422
0.16505945
0.16372786
0.1618352
0.16091859
0.15954426
0.15919576
0.15823409
0.15767933
0.15001225
0.16968072
0.16963143
0.16957406
0.16951289
0.16945498
0.16942657
0.16945753
0.16960485
0.16996588
0.17061908
0.17153495
0.17266424
0.17401264
0.17553194
0.17711398
0.17837259
0.17870377
0.17708356
0.17313663
0.16984772
0.16797506
0.16657858
0.16497367
0.16366203
0.16178246
0.16087331
0.15950178
0.15915794
0.15819999
0.15765885
0.15000506
0.16698802
0.16718983
0.16740964
0.16761781
0.16781402
0.1680149
0.16824612
0.16856459
0.16906937
0.16984784
0.17087028
0.17208659
0.17350585
0.17508463
0.17673112
0.17806123
0.17845054
0.17685581
0.17292349
0.16969138
0.16784952
0.16647604
0.1648906
0.16359817
0.16173306
0.16082957
0.15945993
0.15912056
0.15816598
0.15763858
0.14999743
0.16409656
0.16454262
0.16504949
0.16554665
0.16601285
0.16646163
0.16691711
0.16742452
0.16808442
0.16900938
0.17015439
0.17146855
0.17296766
0.17461271
0.17632817
0.17773623
0.17819378
0.17663744
0.1727214
0.16954347
0.16772865
0.16637726
0.16481056
0.16353632
0.16168227
0.16078614
0.15941681
0.15908272
0.1581316
0.1576183
0.14998915
0.16100933
0.16157445
0.16232243
0.16312052
0.1638993
0.16464672
0.16536986
0.1660989
0.16693241
0.16804047
0.16934542
0.17077719
0.17237079
0.17409333
0.17588629
0.17738438
0.17792898
0.17642809
0.17253719
0.16940378
0.16761084
0.1662801
0.16473124
0.16347513
0.16161571
0.16073907
0.15936832
0.15904298
0.15809654
0.15759745
0.1499801
0.014783326
0.02771753
0.052237162
0.085900975
0.11356685
0.13099497
0.14153934
0.14862318
0.15414778
0.15889328
0.16315135
0.16704908
0.17064923
0.17398305
0.17706366
0.17983221
0.18225186
0.18384735
0.18419117
0.18211651
0.17727033
0.17321893
0.17039354
0.1680179
0.16527859
0.16357437
0.16175581
0.16102144
0.15989264
0.15888505
0.1503901
0.016991402
0.030028338
0.053208666
0.085053592
0.11258765
0.13037754
0.14114526
0.14834052
0.15390308
0.15865951
0.16292645
0.16684072
0.17046597
0.17382983
0.17694218
0.17974207
0.18218971
0.18381986
0.18421951
0.18221035
0.17740362
0.17331141
0.17047004
0.16808261
0.16533232
0.16361629
0.16179036
0.16105106
0.15991972
0.1589029
0.15039336
0.018660174
0.031519757
0.053617214
0.084064522
0.11152091
0.12962453
0.1406174
0.14794461
0.15356782
0.158353
0.1626425
0.16658363
0.17024202
0.17364271
0.17679282
0.17962976
0.18211083
0.18378842
0.18424059
0.18231305
0.17754788
0.17340862
0.17054742
0.16814795
0.16538656
0.16365893
0.16182529
0.16108133
0.15994748
0.15891957
0.15039662
0.020049494
0.032574307
0.053648599
0.082885477
0.11026537
0.12873227
0.14001432
0.14750768
0.1532098
0.15803268
0.16234854
0.16631757
0.17000917
0.17344678
0.17663498
0.17950988
0.18202516
0.18375175
0.18425979
0.18241513
0.17769547
0.17351088
0.17062825
0.16821627
0.1654431
0.16370349
0.16186174
0.16111285
0.15997639
0.15893802
0.15039988
0.021387444
0.03363922
0.053745179
0.081750378
0.10894202
0.12778374
0.13938761
0.14706315
0.15285195
0.15771516
0.16205695
0.1660519
0.16977451
0.17324733
0.17647256
0.17938515
0.18193464
0.18371029
0.18427631
0.1825137
0.17784242
0.17361508
0.1707106
0.16828611
0.16550095
0.16374917
0.16189912
0.16114508
0.16000596
0.15895713
0.15040319
0.022700007
0.034705072
0.053958958
0.08076086
0.10764781
0.12682915
0.13875696
0.14661938
0.15249859
0.1574034
0.16177018
0.1657889
0.16954011
0.17304619
0.17630709
0.17925676
0.18184021
0.18366446
0.18428908
0.18260775
0.17798737
0.17371947
0.17079287
0.16835614
0.16555917
0.16379525
0.16193681
0.16117757
0.16003582
0.15897632
0.1504066