/*--------------------------------*- C++ -*----------------------------------*\
| =========                 |                                                 |
| \\      /  F ield         | OpenFOAM: The Open Source CFD Toolbox           |
|  \\    /   O peration     | Version:  2406                                  |
|   \\  /    A nd           | Website:  www.openfoam.com                      |
|    \\/     M anipulation  |                                                 |
\*---------------------------------------------------------------------------*/
FoamFile
{
    version     2.0;
    format      ascii;
    arch        "LSB;label=32;scalar=64";
    class       volScalarField;
    location    "0.009";
    object      k;
}
// * * * * * * * * * * * * * * * * * * * * * * * * * * * * * * * * * * * * * //

dimensions      [0 2 -2 0 0 0 0];

internalField   nonuniform List<scalar> 
8951
(
0.39280009
0.5494374
0.47849155
0.46297238
0.44479686
0.39274077
245.01401
229.29244
208.76185
183.0158
152.72769
119.53424
85.739387
53.98314
27.246161
9.4267737
2.4637399
1.0621473
0.75066832
0.62243211
0.55059391
0.47924816
0.46359756
0.44582431
0.39267218
300.71213
302.86641
304.43857
305.10758
304.53484
302.30237
298.13719
292.02037
284.28575
275.51088
266.11896
255.86764
243.68928
228.08071
207.788
182.36826
152.43065
119.54784
85.979437
54.341869
27.597718
9.6174722
2.5067375
1.0680268
0.75253834
0.62447438
0.55169852
0.48001418
0.46423497
0.44681652
0.39259743
298.70154
300.76584
302.27348
302.91919
302.38057
300.2543
296.26684
290.37244
282.84845
274.20994
264.85306
254.57709
242.40047
226.89473
206.82701
181.72208
152.1274
119.55148
86.210447
54.694018
27.946433
9.8094534
2.5504531
1.0738482
0.75490591
0.62648271
0.55275687
0.4807883
0.4648619
0.44778394
0.39252007
296.82471
298.80212
300.24529
300.86401
300.35071
298.31639
294.4878
288.79563
281.46629
272.95588
263.63275
253.33151
241.15145
225.73761
205.88137
181.07918
151.81927
119.54775
86.432735
55.039578
28.292231
10.001802
2.5942361
1.0793431
0.75701468
0.62843597
0.55378022
0.48157237
0.46545725
0.44877713
0.39244386
295.091
296.98426
298.36366
298.95298
298.45772
296.50254
292.81493
287.30488
280.15279
271.75968
262.46595
252.1365
239.9463
224.61257
204.95369
180.44152
151.50757
119.5368
86.646627
55.378552
28.635025
10.194801
2.6389084
1.084936
0.75928182
0.63032556
0.5547861
0.48237136
0.46600722
0.44978182
0.39237246
293.50803
295.32063
296.63779
297.19639
296.71327
294.82576
291.26231
285.9145
278.92117
270.63228
261.36081
250.99786
238.78928
223.52297
204.04664
179.81111
151.19365
119.51762
86.852449
55.710972
28.974659
10.389144
2.6848247
1.0907035
0.76148364
0.63213809
0.55579636
0.48319414
0.46650705
0.45083698
0.39230913
292.08125
293.8175
295.07493
295.60254
295.12696
293.29708
289.84218
284.63728
277.78365
269.58416
260.32544
249.92149
237.68474
222.47222
203.16297
179.19003
150.87892
119.49221
87.050605
56.036914
29.310895
10.585127
2.7319126
1.0966619
0.76385655
0.63387808
0.55683534
0.48405407
0.46696253
0.45193698
0.39225646
290.81399
292.47897
293.68015
294.17755
293.70621
291.92533
288.5647
283.48426
276.75121
268.62512
259.36767
248.91329
236.63714
221.46383
202.30543
178.58039
150.56484
119.46148
87.241546
56.356541
29.643479
10.78335
2.7801305
1.1027556
0.76615225
0.63553785
0.55792578
0.48496977
0.46738459
0.45306525
0.39221601
289.70741
291.30699
292.45632
292.92533
292.45624
290.71722
287.43812
282.46483
275.8336
267.7642
258.49503
247.97908
235.65093
220.50129
201.47684
177.98431
150.2529
119.42635
87.425777
56.670149
29.972223
10.984333
2.8295297
1.1089276
0.76867258
0.63713491
0.5590855
0.48596801
0.46778969
0.45428735
0.39218806
288.76045
290.30121
291.40402
291.84752
291.38003
289.67736
286.46873
281.58673
275.03931
267.00967
257.71466
247.12456
234.73055
219.58816
200.68
177.40396
149.94461
119.38777
87.60385
56.978187
30.297077
11.188024
2.880141
1.1151621
0.77111483
0.63866336
0.56032356
0.48709347
0.46818878
0.455608
0.39217148
287.96968
289.45884
290.52132
290.94319
290.47805
288.80789
285.66056
280.85562
274.37534
266.3688
257.03315
246.35518
233.88037
218.72792
199.91771
176.84146
149.64149
119.34673
87.776347
57.281232
30.61834
11.394466
2.931956
1.1214876
0.7738721
0.64014489
0.56163863
0.48832352
0.46859769
0.45699169
0.39216367
287.32914
288.77453
289.80364
290.20871
289.74804
288.10841
285.01542
280.27631
273.84721
265.84786
256.45646
245.67609
233.10465
217.92404
199.19276
176.29897
149.34507
119.30418
87.943846
57.579759
30.937163
11.603717
2.9849479
1.1279307
0.77645301
0.64156296
0.56301739
0.48952316
0.4690245
0.45841109
0.39216088
286.8303
288.24022
289.24358
289.63745
289.1845
287.57515
284.53164
279.84973
273.45823
265.45159
255.98968
245.09204
232.40744
217.17991
198.50788
175.77859
149.05685
119.26111
88.106869
57.874012
31.254212
11.815514
3.0390719
1.1345095
0.77900356
0.6429375
0.56443655
0.49068147
0.46948128
0.45983978
0.39215863
286.46197
287.84526
288.83114
289.22023
288.77956
287.20187
284.2056
279.57261
273.2103
265.18363
255.63714
244.60729
231.79258
216.49876
197.86572
175.28239
148.77832
119.21844
88.265873
58.164115
31.569938
12.029105
3.0941546
1.1412275
0.78224425
0.64424805
0.56586592
0.49179009
0.46996349
0.46124194
0.39215237
286.20996
287.57625
288.55409
288.9461
288.52364
286.98062
284.03168
279.44529
273.10653
265.04756
255.40234
244.22546
231.26355
215.88369
197.26886
174.81238
148.51092
119.17708
88.421282
58.450034
31.884658
12.24444
3.1502456
1.1480769
0.7848188
0.64548949
0.56726996
0.49284117
0.47049114
0.46255521
0.3921381
286.05748
287.41692
288.39691
288.80051
288.40352
286.89968
283.99615
279.44542
273.11762
265.0347
255.28776
243.94926
230.82339
215.33754
196.71972
174.37047
148.25603
119.13792
88.573536
58.731741
32.19841
12.461469
3.2074624
1.1550624
0.78725069
0.64665207
0.56861504
0.49382962
0.47106798
0.463827
0.39211294
285.98506
287.34811
288.34113
288.76513
288.39837
286.92461
284.05805
279.54795
273.22986
265.10877
255.28524
243.77973
230.47459
214.86287
196.22056
173.95849
148.015
119.10178
88.723093
59.009233
32.511159
12.680314
3.26592
1.162184
0.78962591
0.64771987
0.56987079
0.49475427
0.47168444
0.46499626
0.39207549
285.96992
287.34534
288.35744
288.80747
288.48442
287.06405
284.2633
279.80439
273.50284
265.32553
255.36864
243.7244
230.21903
214.4618
195.77343
173.57812
147.78908
119.0695
88.870403
59.282591
32.822938
12.90142
3.3257086
1.1694317
0.79218712
0.64869147
0.57101731
0.49561685
0.47235387
0.46597433
0.39202593
285.98958
287.39071
288.44204
288.93879
288.67162
287.32287
284.58513
280.17654
273.8951
265.67564
255.58982
243.75511
230.05622
214.13604
195.38009
173.23089
147.57942
119.04182
89.01588
59.551741
33.133671
13.125888
3.3868943
1.1767814
0.79489022
0.64954603
0.57203945
0.4964229
0.47304728
0.46666788
0.39196617
286.02368
287.46524
288.56719
289.11825
288.91255
287.64799
284.98914
280.64194
274.38623
266.12979
255.92699
243.88119
229.99463
213.88702
195.04195
172.91813
147.38707
119.01946
89.159907
59.81665
33.441946
13.353391
3.4495247
1.1842042
0.79739707
0.65026501
0.57293212
0.49718124
0.4737551
0.46717491
0.39189976
286.03328
287.52721
288.69451
289.31731
289.20114
288.02092
285.45187
281.18026
274.96074
266.67721
256.36412
244.13259
230.01341
213.71341
194.75995
172.64092
147.21292
119.00307
89.302857
60.077488
33.74713
13.581747
3.5137202
1.1916819
0.79944677
0.65083778
0.57369521
0.49790362
0.47447051
0.4675682
0.39183185
285.9927
287.54654
288.79316
289.50113
289.48491
288.41169
285.9486
281.76778
275.60048
267.30379
256.89084
244.47454
230.10509
213.61657
194.5348
172.40007
147.05773
118.99331
89.445077
60.334542
34.04941
13.811216
3.5796132
1.1992141
0.80111106
0.65130261
0.57433747
0.49860128
0.47513557
0.4679309
0.39176898
285.86822
287.4976
288.82821
289.63622
289.73314
288.78633
286.44978
282.37903
276.28373
267.99224
257.49471
244.90324
230.30512
213.60248
194.36631
172.196
146.92202
118.99085
89.586857
60.588093
34.348927
14.04175
3.6472888
1.2068111
0.80264412
0.65170479
0.57487003
0.49927534
0.4758121
0.46836141
0.39171854
285.62274
287.34371
288.77609
289.6919
289.917
289.11515
286.92497
282.98675
276.98622
268.72256
258.16046
245.40747
230.58265
213.63764
194.25228
172.02872
146.80604
118.99378
89.728404
60.838386
34.645824
14.273261
3.7168549
1.214483
0.8041731
0.65185962
0.57530468
0.49993181
0.47648047
0.46909859
0.39168797
285.22398
287.0438
288.59435
289.65148
290.00882
289.36826
287.34498
283.56252
277.68211
269.47248
258.87025
245.97425
230.93004
213.74239
194.19377
171.898
146.70995
119.00395
89.869966
61.085611
34.940196
14.505284
3.7885769
1.2222349
0.80563717
0.65191976
0.57565757
0.5005755
0.47689873
0.4702338
0.39168306
284.64376
286.57479
288.25435
289.47433
289.97464
289.51195
287.67727
284.07581
278.3435
270.21742
259.60379
246.58842
231.33894
213.92219
194.19128
171.80273
146.63357
119.02317
90.011702
61.329901
35.232049
14.737752
3.8625586
1.2300688
0.80697454
0.65191111
0.57594396
0.50120994
0.47720649
0.47182655
0.39170755
283.85123
285.90403
287.72491
289.11424
289.80496
289.50993
287.89035
284.49631
278.94156
270.93106
260.3385
247.23235
231.79654
214.1539
194.22023
171.74057
146.57629
119.0497
90.153615
61.571323
35.521292
14.970301
3.9388792
1.2379875
0.80808496
0.6518471
0.57618644
0.50183975
0.47751634
0.47378382
0.39176325
282.81926
285.0041
286.97824
288.54832
289.42441
289.35296
287.95202
284.79464
279.44693
271.58523
261.04953
247.88605
232.28844
214.43022
194.29734
171.71089
146.53722
119.08321
90.295622
61.809899
35.807831
15.201769
4.017846
1.2460051
0.80896295
0.65160474
0.57641444
0.50246458
0.47776414
0.47576096
0.39185143
281.5183
283.84382
285.98351
287.74939
288.86009
289.05817
287.87233
284.93523
279.82348
272.14758
261.70926
248.52724
232.79823
214.7412
194.41724
171.71164
146.51509
119.12317
90.437544
62.045642
36.091595
15.432658
4.099744
1.2541646
0.80981501
0.65138363
0.57666126
0.50307061
0.4780336
0.47758818
0.39197285
279.92363
282.39378
284.70329
286.66638
288.00894
288.43836
287.56237
284.8933
280.03899
272.58648
262.28959
249.13223
233.3077
215.07428
194.56516
171.72909
146.50867
119.16882
90.579098
62.278546
36.372626
15.662797
4.1838452
1.2625083
0.81054613
0.65107066
0.57693238
0.5036621
0.47836762
0.47952702
0.39212778
278.02681
280.64564
283.13045
285.29813
286.88444
287.56708
286.98659
284.66083
280.06229
272.87821
262.76471
249.67681
233.79712
215.41541
194.73326
171.77055
146.51299
119.21905
90.719872
62.508552
36.651066
15.892267
4.2697324
1.271056
0.81102165
0.6503165
0.57726486
0.50421159
0.47877172
0.48182839
0.39231834
275.81789
278.58725
281.25101
283.6295
285.46977
286.42204
286.16033
284.16186
279.92258
272.98565
263.10463
250.13499
234.24523
215.74905
194.91185
171.82797
146.52638
119.27256
90.859313
62.735491
36.926964
16.12127
4.3574739
1.279821
0.81124744
0.64994518
0.57767874
0.50468654
0.47924793
0.48445608
0.39254465
273.29035
276.20836
279.05018
281.64023
283.73551
284.97125
285.0288
283.38257
279.52285
272.91788
263.2809
250.48
234.62963
216.05832
195.08973
171.89283
146.54796
119.32783
90.996719
62.959082
37.200233
16.349888
4.4470738
1.2887991
0.81127156
0.64968575
0.5781584
0.50509216
0.47979601
0.48733432
0.39279496
270.45224
273.51547
276.53304
279.33417
281.68038
283.21891
283.59768
282.32239
278.85022
272.64542
263.27588
250.68826
234.92756
216.3252
195.2545
171.95782
146.57185
119.38292
91.13123
63.178944
37.470614
16.578065
4.5386581
1.2980501
0.81123904
0.64926088
0.57866837
0.50541767
0.48041445
0.49039761
0.3930407
267.31583
270.51803
273.70575
276.71361
279.30817
281.15146
281.85611
280.96498
277.88758
272.08689
263.11293
250.72867
235.11615
216.53091
195.39277
172.01466
146.59347
119.4356
91.261835
63.394629
37.737761
16.805845
4.6319606
1.3076132
0.81113536
0.64861155
0.57913852
0.50561574
0.48110055
0.49353563
0.39323648
263.89988
267.23168
270.58026
273.78616
276.62177
278.76447
279.79515
279.28957
276.63097
271.26719
262.69565
250.6393
235.17064
216.65625
195.49036
172.05428
146.60773
119.48337
91.387385
63.605628
38.001459
17.033184
4.7267705
1.31751
0.81087908
0.64780259
0.57948219
0.50568085
0.48184675
0.49664634
0.39338881
260.23128
263.68079
267.17816
270.57041
273.63665
276.07007
277.42485
277.30552
275.08217
270.15523
262.01598
250.35222
235.11717
216.68386
195.532
172.06702
146.60995
119.52354
91.506599
63.811373
38.261452
17.260071
4.8230447
1.3277517
0.81048034
0.6471391
0.57964712
0.50567805
0.48262429
0.49970124
0.39351967
256.3426
259.89525
263.52621
267.08945
270.37157
273.07472
274.75992
275.01152
273.22186
268.75402
261.08124
249.81222
234.91684
216.63699
195.52205
172.05575
146.59991
119.553
91.618086
64.01125
38.517445
17.486347
4.9208933
1.338346
0.80996472
0.64674501
0.57967247
0.50564822
0.48331297
0.50271092
0.39361695
252.27225
255.91109
259.65753
263.37299
266.85225
269.80561
271.81225
272.42227
271.06222
267.07325
259.86654
249.04166
234.4933
216.47021
195.45209
172.00646
146.56573
119.56778
91.720392
64.204605
38.769147
17.711835
5.0205126
1.3493151
0.80930489
0.64646578
0.57964179
0.5055798
0.48385834
0.50567785
0.39367025
248.0634
251.76935
255.61057
259.45632
263.11022
266.29175
268.59949
269.55332
268.61332
265.09822
258.38046
248.03569
233.87301
216.12471
195.27263
171.89188
146.49753
119.56702
91.812135
64.390764
39.016307
17.936406
5.1220062
1.3606884
0.80849227
0.64610203
0.57950182
0.50546735
0.48462872
0.50860629
0.3936738
243.76291
247.51521
251.42839
255.37984
259.18258
262.56629
265.14921
266.42794
265.89352
262.8444
256.63742
246.77416
233.04847
215.62356
194.97669
171.71214
146.39479
119.55155
91.891648
64.56902
39.258741
18.159992
5.2253529
1.3725008
0.80752639
0.64557403
0.57908833
0.50538695
0.48566666
0.51150117
0.3936277
239.41989
243.19659
247.15728
251.18763
255.11053
258.66669
261.49406
263.07337
262.92313
260.32729
254.62578
245.26751
232.01895
214.96128
194.56884
171.46189
146.25093
119.50931
91.956836
64.738646
39.496375
18.382588
5.3305643
1.3847971
0.8064107
0.64490516
0.57845317
0.50537282
0.48682878
0.51436367
0.39353855
235.08417
238.86269
242.84541
246.92638
250.93868
254.63484
257.66719
259.52804
259.72846
257.5689
252.36427
243.53659
230.77642
214.13107
194.03978
171.13314
146.06024
119.43672
92.00583
64.898905
39.7291
18.604765
5.4376735
1.397637
0.80519965
0.6441581
0.577852
0.50540015
0.4882784
0.51718773
0.39343095
230.80473
234.5624
238.54125
242.64363
246.71298
250.51411
253.71289
255.82456
256.34007
254.59138
249.86894
241.56877
229.31368
213.12674
193.38265
170.71954
145.81788
119.3346
92.036692
65.049069
39.956669
18.82669
5.5467761
1.4111029
0.8039574
0.64339723
0.57730126
0.50547625
0.48978731
0.51997222
0.39334618
226.62828
230.34295
234.29234
238.38689
242.48036
246.35025
249.6769
251.99972
252.79445
251.42534
247.16494
239.38305
227.65831
211.9535
192.59571
170.21661
145.51978
119.20005
92.046724
65.188517
40.17882
19.048499
5.6578768
1.4252895
0.80279923
0.64271021
0.57693452
0.50561246
0.49105161
0.52272791
0.39323328
222.59784
226.24848
230.14377
234.20192
238.28689
242.18899
245.60378
248.0949
249.13002
248.1045
244.28017
237.00441
225.81989
210.615
191.67802
169.6209
145.16247
119.03092
92.041382
65.316937
40.395324
19.270371
5.7711027
1.4402967
0.80189832
0.64218213
0.57675807
0.50580242
0.49192304
0.52547196
0.39311865
218.75162
222.31877
226.13687
230.13143
234.17625
238.07447
241.53727
244.15219
245.38561
244.66242
241.24022
234.44917
223.79593
209.1081
190.62787
168.92971
144.74326
118.8251
92.018798
65.433706
40.605999
19.492511
5.88661
1.4562332
0.80141111
0.64182534
0.57669388
0.5060323
0.492605
0.52822156
0.39303315
215.12226
218.5885
222.30837
226.21413
230.189
234.04863
237.51999
240.21405
241.60187
241.13664
238.07781
231.74404
221.609
207.44712
189.44929
168.1434
144.26095
118.58075
91.968661
65.538085
40.810809
19.71512
6.0045775
1.4732126
0.80132395
0.64167991
0.57677472
0.50628537
0.49310634
0.53099592
0.39297954
211.73636
215.08662
218.68971
222.48404
226.36163
230.15021
233.59245
236.32209
237.82001
237.56681
234.82953
228.92094
219.28652
205.65491
188.15059
167.26504
143.71566
118.29715
91.894912
65.629839
41.009779
19.938453
6.125193
1.4913471
0.8014467
0.64170268
0.57724536
0.50654462
0.49343018
0.53381804
0.39295637
208.61421
211.83599
215.30661
218.96987
222.7259
226.41393
229.79194
232.51562
234.07988
233.99197
231.5315
226.01067
216.8524
203.74195
186.7402
166.29888
143.10858
117.97426
91.798291
65.708916
41.203074
20.162764
6.2486404
1.5107442
0.80180296
0.64195587
0.57776096
0.50679166
0.49358628
0.53671295
0.39296589
205.76989
208.85345
212.17891
215.69479
219.30854
222.87012
226.15236
228.83011
230.41969
230.44996
228.21982
223.04514
214.3324
201.72698
185.23254
165.25131
142.44207
117.61272
91.678895
65.775415
41.390812
20.388363
6.3751389
1.5315058
0.80251496
0.6427904
0.57811876
0.50701305
0.4935896
0.53970101
0.39300829
203.2114
206.14979
209.32058
212.67625
216.1307
219.54372
222.70205
225.29878
226.87539
226.9775
224.93072
220.0579
211.75526
199.63348
183.64513
164.13061
141.72015
117.21422
91.537282
65.829596
41.573079
20.615199
6.5051529
1.553736
0.80366598
0.64388933
0.57839509
0.50711391
0.49345727
0.54278703
0.39306396
200.94103
203.73007
206.73986
209.92606
213.20817
216.4548
219.46562
221.95132
223.47777
223.60967
221.6997
217.08283
209.15071
197.48537
181.99207
162.94687
140.94831
116.78135
91.374482
65.871928
41.750019
20.842345
6.6392633
1.5775366
0.80528769
0.64498601
0.57854204
0.50709939
0.49322836
0.54596007
0.39309251
198.95588
201.59408
204.43965
207.45069
210.55143
213.61828
216.46275
218.81214
220.25505
220.3785
218.56055
214.15329
206.549
195.30688
180.28924
161.71211
140.13338
116.31749
91.192014
65.903105
41.921957
21.069645
6.7772576
1.6029976
0.80736087
0.646058
0.57856573
0.50702224
0.49293808
0.54920399
0.39307905
197.24849
199.73693
202.41802
205.25168
208.16598
211.04407
213.70813
215.90094
217.23183
217.31267
215.54485
211.30181
203.98114
193.1247
178.55647
160.44021
139.28354
115.82687
90.991835
65.92404
42.089348
21.297387
6.9194175
1.6301441
0.80982591
0.64705527
0.57852131
0.50687683
0.49260963
0.55248717
0.39302398
195.80753
198.14963
200.66881
203.32615
206.05273
208.73737
211.21162
213.23246
214.42901
214.4369
212.68097
208.55883
201.47753
190.96898
176.81853
159.14648
138.40807
115.31439
90.776276
65.935839
42.252703
21.525761
7.0659042
1.658892
0.81260018
0.64792777
0.57830493
0.50663863
0.49226263
0.55576697
0.39292312
194.61824
196.81961
199.18202
201.66719
204.20842
206.69919
208.979
210.81628
211.86353
211.77134
209.99324
205.95076
199.06427
188.8629
175.0959
157.84608
137.51678
114.78574
90.548261
65.939332
42.412574
21.754925
7.2167975
1.6893927
0.81559769
0.64870771
0.57784422
0.50629853
0.49189674
0.55898548
0.39279166
193.66275
195.73094
197.94406
200.26401
202.62562
204.92606
207.0116
208.65911
209.54614
209.33323
207.50306
203.50166
196.76598
186.82526
173.40836
156.55455
136.6203
114.24733
90.311194
65.937257
42.56959
21.985012
7.3721323
1.7217136
0.81874241
0.64948976
0.57748689
0.50587558
0.49148435
0.5620712
0.3926641
192.92024
194.86452
196.93795
199.10215
201.29292
203.4102
205.3058
206.76294
207.48404
207.13597
205.22977
201.23573
194.6089
184.88513
171.77895
155.28915
135.73029
113.70611
90.068807
65.931257
42.724438
22.216118
7.5319503
1.7559088
0.82197468
0.65033897
0.57720374
0.50539737
0.49112572
0.56495503
0.39254556
192.36716
194.19829
196.14338
198.16353
200.19492
202.13946
203.85337
205.12432
205.67886
205.18716
203.18729
199.17298
192.62096
183.06952
170.22916
154.06711
134.85874
113.16951
89.825105
65.921768
42.877793
22.44828
7.6962192
1.7920593
0.8252543
0.65125855
0.57696133
0.50483369
0.49099961
0.56755767
0.39245631
191.97729
193.70725
195.53693
197.42661
199.31241
201.0975
202.64136
203.73441
204.12602
203.48684
201.38035
197.32229
190.81231
181.39258
168.77574
152.90381
134.0174
112.64519
89.584428
65.911895
43.030429
22.681461
7.8646108
1.8302535
0.82856353
0.65224225
0.57681009
0.50418729
0.49100178
0.5698004
0.39245621
191.72183
193.36362
195.09208
196.86651
198.62262
200.26418
201.65295
202.58048
202.81715
202.03151
199.81014
195.68922
189.18827
179.86755
167.43379
151.81361
133.21775
112.14094
89.35133
65.904
43.183164
22.915657
8.0366917
1.8705271
0.83190826
0.65333013
0.57677594
0.50351329
0.49112474
0.5716248
0.39260231
191.56927
193.13673
194.77914
196.45485
198.09891
199.61521
200.867
201.64576
201.74036
200.81554
198.47834
194.28374
187.76772
178.51112
166.21918
150.81058
132.47104
111.66461
89.130487
65.900534
43.336868
23.150889
8.212367
1.9128553
0.83531291
0.65460189
0.57681993
0.50287154
0.49138095
0.57300939
0.39291746
191.48527
192.99267
194.56512
196.15975
197.71069
199.12148
200.25576
200.90823
200.87525
199.82365
197.37565
193.10354
186.55559
177.33194
165.14423
149.90716
131.78785
111.22387
88.926638
65.902169
43.492471
23.387262
8.3913479
1.9572158
0.83880697
0.65611248
0.57707511
0.50229858
0.49177372
0.57397893
0.39338001
191.43305
192.89595
194.41543
195.94755
197.4254
198.75195
199.78887
200.33943
200.19602
199.0339
196.48492
192.13329
185.54505
176.33231
164.2168
149.11348
131.17772
110.8261
88.744616
65.912164
43.651044
23.62492
8.5734494
2.0036218
0.84241035
0.65783385
0.57766639
0.50179792
0.49227176
0.57466568
0.39394654
191.38318
192.81557
194.29769
195.7847
197.20881
198.47237
199.43507
199.907
199.67574
198.42345
195.78861
191.36393
184.73172
175.5129
163.44202
148.4374
130.6489
110.47814
88.589155
65.936127
43.813663
23.863969
8.758488
2.0520923
0.84612868
0.65965471
0.57819585
0.50131415
0.49282694
0.57523123
0.39456698
191.30185
192.71447
194.17265
195.63077
197.02026
198.2427
199.15599
199.57437
199.28141
197.96369
195.26356
190.78015
184.10433
174.86963
162.82123
147.88404
130.20805
110.18615
88.464795
65.974033
43.98135
24.104502
8.9462009
2.1026341
0.84994712
0.66142076
0.5785708
0.50085114
0.49340542
0.5760036
0.39517706
191.12974
192.53579
193.98619
195.43446
196.81105
198.01653
198.90719
199.29883
198.97235
197.61605
194.87595
190.35147
183.64323
174.39132
162.35073
147.45522
129.85988
109.95541
88.376149
66.028308
44.155154
24.346617
9.1363325
2.1552026
0.85389734
0.66298181
0.57877285
0.50041444
0.49399228
0.5768797
0.39570867
190.80557
192.22461
193.68735
195.14695
196.53337
197.74653
198.64199
199.03476
198.7048
197.33964
194.58381
190.04694
183.32323
174.06065
162.02161
147.14904
129.60693
109.7901
88.328216
66.101247
44.336075
24.590493
9.3286161
2.209779
0.85804062
0.66422795
0.57883904
0.50001139
0.49458594
0.57821605
0.39613795
190.30542
191.75001
193.24003
194.72838
196.14457
197.3879
198.31357
198.73337
198.42805
197.08968
194.35525
189.83028
183.11374
173.85472
161.81999
146.95992
129.44939
109.69296
88.321277
66.193933
44.525031
24.836379
9.5228659
2.2663385
0.86237166
0.66510585
0.57883899
0.49965017
0.49519331
0.5802506
0.39643266
189.59799
191.07899
192.60938
194.14214
195.6068
196.90248
197.88549
198.36286
198.11926
196.83149
194.14605
189.66395
182.98136
173.74605
161.72688
146.87777
129.38417
109.66412
88.338847
66.307273
44.722921
25.084576
9.7189521
2.3248465
0.86687305
0.66562223
0.5787926
0.49934165
0.49582581
0.58277018
0.39664052
188.65234
190.17908
191.76112
193.35186
194.88117
196.24827
197.31095
197.86937
197.71196
196.5138
193.91405
189.50949
182.89075
173.70118
161.71202
146.87365
129.38548
109.67765
88.397327
66.443556
44.930621
25.33541
9.9168024
2.3852633
0.87152241
0.66583839
0.57861071
0.49909913
0.49649995
0.58581446
0.3968438
187.44266
189.02242
190.6651
192.32487
193.93231
195.38715
196.54953
197.21197
197.16936
196.09231
193.61405
189.32514
182.80311
173.68578
161.73398
146.91252
129.43148
109.73853
88.508914
66.604113
45.14883
25.589175
10.116384
2.4475667
0.87629302
0.66586702
0.57812921
0.49893137
0.49723205
0.58930773
0.3971108
185.95276
187.59042
189.30006
191.03699
192.73295
194.28868
195.56522
196.35649
196.45003
195.52282
193.19953
189.06072
182.67792
173.67125
161.80417
147.02649
129.5588
109.8761
88.660649
66.788758
45.377981
25.846109
10.317646
2.5117651
0.88115381
0.66580061
0.57746908
0.49884613
0.49803475
0.59307639
0.39751125
184.17876
185.87667
187.65685
189.47613
191.26785
192.93431
194.33785
195.2771
195.52664
194.7756
192.63896
188.68775
182.48727
173.63526
161.88818
147.183
129.74374
110.06241
88.848882
66.996611
45.618203
26.106379
10.520522
2.5779025
0.88607553
0.66547405
0.57666981
0.49884934
0.49891147
0.5969879
0.39812061
182.12801
183.88562
185.7367
187.63998
189.53089
191.31393
192.85345
193.95394
194.37674
193.82464
191.90336
188.17827
182.19722
173.54397
161.93443
147.34025
129.95316
110.28315
89.068662
67.226004
45.869282
26.370096
10.724997
2.646006
0.8910397
0.66447024
0.57571648
0.498937
0.49985935
0.60083625
0.39901569
179.81937
181.63293
183.55163
185.53644
187.52535
189.4256
191.10424
192.37243
192.97911
192.64148
190.95716
187.48506
181.75499
173.34297
161.92363
147.4756
130.16816
110.52591
89.31354
67.474409
46.13062
26.637322
10.93104
2.7161081
0.89604434
0.66294168
0.57460285
0.49909784
0.50087697
0.60438234
0.40022828
177.28441
179.14705
181.12655
183.18646
185.26775
187.28095
189.09658
190.53323
191.32903
191.21615
189.78523
186.58901
181.14483
173.01315
161.84881
147.5582
130.36757
110.77671
89.575643
67.738431
46.401197
26.908063
11.138819
2.7882554
0.90110414
0.66114964
0.57334113
0.49932323
0.50195599
0.60753786
0.40171474
174.56562
176.46753
178.49761
180.62227
182.78588
184.90285
186.84791
188.44499
189.43516
189.54708
188.38011
185.47784
180.34944
172.52691
161.65274
147.56138
130.53279
111.02081
89.846075
68.013838
46.679529
27.18213
11.348707
2.8625117
0.90624724
0.6590679
0.57198291
0.49960699
0.50308404
0.61026905
0.40343907
171.71467
173.64337
175.71069
177.88608
180.11765
182.32414
184.38518
186.12984
187.30926
187.63912
186.73748
184.1379
179.34067
171.85312
161.30114
147.5034
130.64182
111.24215
90.115053
68.295613
46.963647
27.459005
11.560764
2.938956
0.91150699
0.65677626
0.57059018
0.49994114
0.50424924
0.61259311
0.40530217
168.78993
170.73088
172.81958
175.02866
177.31019
179.58771
181.74638
183.62134
184.97499
185.51211
184.87039
182.57593
178.12066
170.99537
160.79937
147.32784
130.66526
111.42652
90.37235
68.578049
47.251116
27.737975
11.774942
3.0176896
0.9169539
0.65436194
0.56921195
0.50031388
0.50543876
0.61455678
0.4071125
165.85282
167.79008
169.8825
172.10592
174.41653
176.74296
178.97647
180.9591
182.46517
183.19221
182.7973
180.80231
176.69272
169.9474
160.12824
146.99676
130.62982
111.56099
90.606938
68.854871
47.539078
28.018048
11.991359
3.0988935
0.92268192
0.65194315
0.56794944
0.50070865
0.50663599
0.61619252
0.40868734
162.96443
164.88152
166.9591
169.17618
171.49307
173.84368
176.1257
178.1888
179.81957
180.71197
180.54206
178.83064
175.05966
168.6959
159.27242
146.52299
130.50124
111.61944
90.807979
69.119631
47.824367
28.298195
12.209985
3.1832018
0.92879984
0.64966174
0.56684998
0.50110948
0.50782145
0.61754276
0.40988312
160.18221
162.06296
164.10727
166.29711
168.59684
170.94564
173.24792
175.36148
177.08386
178.11455
178.14039
176.68983
173.24312
167.25677
158.24003
145.8959
130.22315
111.61073
90.96877
69.36586
48.103583
28.577241
12.430937
3.2714189
0.93543052
0.64765868
0.56588452
0.50150468
0.50897212
0.61880214
0.41062721
157.55652
159.38595
161.37961
163.52217
165.78177
168.10277
170.39631
172.52864
174.30732
175.44666
175.63279
174.4148
171.27118
165.6512
157.04709
145.11838
129.82626
111.5437
91.077811
69.586569
48.37319
28.854011
12.653773
3.3626451
0.94269386
0.64616241
0.56519385
0.50187599
0.51006146
0.62022945
0.41094822
155.12844
156.89346
158.82098
160.898
163.09612
165.36455
167.62103
169.7403
171.54039
172.75142
173.06117
172.04063
169.17055
163.89667
155.69619
144.19152
129.30352
111.36731
91.116628
69.775968
48.629779
29.12678
12.878295
3.457044
0.95071634
0.64530684
0.56479253
0.50220932
0.51106216
0.62194355
0.4110266
152.92844
154.61843
156.46692
158.4628
160.58068
162.77418
164.96726
167.04298
168.83001
170.07408
170.46862
169.60579
166.97315
162.0172
154.20249
143.12322
128.65403
111.07626
91.105357
69.931401
48.870003
29.393833
13.105065
3.5542101
0.95960353
0.64501691
0.56455628
0.50250175
0.51194551
0.6239286
0.41097341
150.97587
152.58308
154.34274
156.24519
158.26749
160.36711
162.47368
164.47816
166.21967
167.45897
167.89894
167.15181
164.71628
160.04385
152.59094
141.92742
127.88412
110.69107
91.044652
70.046747
49.09017
29.653425
13.333325
3.6539972
0.96943155
0.64502876
0.56437419
0.50275183
0.51268294
0.62607485
0.41089969
149.27924
150.79898
152.46342
154.26385
156.17919
158.17013
160.17125
162.08076
163.74776
164.94708
165.39433
164.72041
162.43893
158.01048
150.88836
140.62233
127.00314
110.20893
90.893357
70.111546
49.28684
29.90396
13.562002
3.7564301
0.98026074
0.64519039
0.5640787
0.5029548
0.51325908
0.62829931
0.41085516
147.83674
149.26742
150.83374
152.52744
154.32874
156.20081
158.08238
159.87808
161.44619
162.57438
162.99359
162.35158
160.18014
155.95262
149.12417
139.22984
126.02466
109.63535
90.659351
70.123921
49.458781
30.144169
13.790595
3.8616189
0.992135
0.64556781
0.56353041
0.50310992
0.51368213
0.63065205
0.41086672
146.63721
147.98019
149.44886
151.03498
152.71947
154.46728
156.22042
157.88892
159.33928
160.37036
160.73047
160.08201
157.97751
153.90629
147.33025
137.77504
124.96605
108.98042
90.361378
70.108545
49.60593
30.372921
14.01852
3.9694259
1.005083
0.64621023
0.56270521
0.50321747
0.51398135
0.63322889
0.41094374
145.66107
146.92039
148.29502
149.77633
151.34545
152.96835
154.58947
156.12317
157.44294
158.35706
158.63239
157.94351
155.86542
151.90604
145.53911
136.28585
123.84733
108.25647
90.002
70.052996
49.725889
30.589103
14.245146
4.0800036
1.0191232
0.64711337
0.56170123
0.50327506
0.51419765
0.6360506
0.41109959
144.88111
146.06321
147.35023
148.73288
150.19199
151.69395
153.18471
154.58189
155.76465
156.54864
156.7199
155.96233
153.87444
149.98445
143.78172
134.78894
122.69009
107.47763
89.586362
69.934521
49.817055
30.791886
14.469837
4.1928572
1.0342628
0.64822311
0.56069883
0.50327927
0.51437376
0.63882973