/*--------------------------------*- C++ -*----------------------------------*\
| =========                 |                                                 |
| \\      /  F ield         | OpenFOAM: The Open Source CFD Toolbox           |
|  \\    /   O peration     | Version:  2406                                  |
|   \\  /    A nd           | Website:  www.openfoam.com                      |
|    \\/     M anipulation  |                                                 |
\*---------------------------------------------------------------------------*/
FoamFile
{
    version     2.0;
    format      ascii;
    arch        "LSB;label=32;scalar=64";
    class       volScalarField;
    location    "0.09";
    object      Ma;
}
// * * * * * * * * * * * * * * * * * * * * * * * * * * * * * * * * * * * * * //

dimensions      [0 0 0 0 0 0 0];

internalField   nonuniform List<scalar> 
2065
(
0.11395679
0.11543506
0.11681392
0.1181359
0.11938698
0.12050672
0.12145411
0.12204429
0.12202235
0.12143483
0.11996679
0.11766658
0.11459732
0.11093468
0.1068675
0.10257475
0.098301545
0.094430572
0.09131911
0.089277672
0.08843768
0.088633116
0.089578882
0.090660766
0.091134989
0.090770703
0.089312254
0.08659936
0.083114527
0.08002815
0.078099632
0.077571486
0.078047311
0.079800536
0.081117726
0.081538079
0.081840117
0.082020542
0.082531891
0.08361864
0.084983179
0.0864195
0.087953783
0.089691241
0.091489452
0.093439405
0.095357695
0.097496284
0.099503251
0.10173319
0.10371482
0.10591996
0.10781343
0.11004517
0.1116179
0.11400223
0.11508257
0.11793002
0.09033193
0.093669625
0.096720403
0.09955119
0.10224736
0.10475618
0.10703541
0.10892912
0.11014109
0.11032734
0.10970956
0.10796819
0.10525694
0.10183029
0.097890962
0.093657148
0.089490348
0.085852713
0.083107946
0.081561936
0.08123551
0.08190036
0.083442884
0.085000163
0.086016555
0.086108088
0.085196625
0.083009236
0.080046347
0.07747209
0.075910217
0.075572885
0.076181367
0.078038479
0.079485172
0.080226704
0.0809542
0.081475606
0.082249737
0.083542683
0.085058685
0.086682942
0.088389875
0.090251976
0.092131323
0.094133852
0.096089903
0.098234922
0.1002452
0.10245085
0.10441498
0.10658516
0.1084506
0.11064231
0.11218752
0.11452301
0.11558875
0.11838768
0.051024019
0.056318282
0.061696163
0.066963833
0.072074684
0.077080471
0.081896415
0.086434411
0.090496362
0.093667225
0.095653788
0.096206383
0.095558043
0.093677504
0.090778208
0.087195324
0.083258673
0.07947258
0.076325456
0.074174167
0.073270584
0.07349286
0.074817148
0.076934032
0.07902851
0.080649123
0.081322509
0.080938463
0.079413064
0.07702186
0.07498143
0.073779854
0.073635949
0.074412776
0.076373654
0.077973413
0.079081636
0.080229322
0.08109124
0.082135693
0.083626477
0.085289591
0.087081693
0.088937428
0.090900873
0.092845007
0.094886607
0.096869286
0.099012146
0.10101902
0.10319536
0.10513806
0.10727004
0.10910475
0.11125371
0.11276926
0.11505353
0.11610314
0.11885092
0.023118731
0.02690919
0.03109845
0.035768849
0.040797049
0.046181502
0.051793723
0.057621289
0.063478676
0.069119264
0.074060503
0.077850668
0.080086497
0.080620491
0.079906798
0.077920147
0.07499557
0.071703821
0.068600162
0.066183729
0.064801051
0.064598574
0.06544702
0.067533776
0.070179113
0.072861394
0.075128249
0.076468648
0.076653511
0.075840611
0.074090916
0.072596402
0.071747388
0.071803802
0.072818767
0.074861969
0.076639993
0.078138507
0.079690204
0.080888303
0.082199482
0.083875981
0.085674932
0.087610799
0.089590241
0.091632324
0.093625468
0.095693366
0.097692254
0.099825195
0.1018223
0.10396488
0.10588236
0.1079731
0.10977461
0.11187823
0.11336208
0.11559298
0.11662497
0.11931908
0.014457996
0.016594825
0.018974543
0.021733762
0.024924311
0.028632004
0.032837702
0.037754368
0.043078467
0.048602163
0.054122225
0.058952477
0.062516641
0.064458097
0.064774247
0.063948741
0.062003507
0.059621771
0.05738246
0.055845904
0.055287367
0.055766996
0.057438062
0.060169098
0.063339682
0.066631343
0.069566963
0.071607415
0.072477825
0.07231902
0.071309934
0.070363442
0.069877296
0.070154342
0.071473209
0.073568843
0.075541825
0.077429669
0.079358774
0.080881633
0.082445351
0.084289755
0.086209033
0.088262806
0.090340999
0.092440337
0.094467553
0.096549999
0.098555243
0.10067124
0.10265254
0.1047575
0.10664614
0.10869287
0.11045886
0.11251476
0.11396504
0.11614066
0.11715359
0.11979136
0.010392383
0.010907673
0.011596732
0.01244682
0.013525324
0.014930601
0.0167891
0.019186912
0.022474683
0.026305583
0.030841044
0.035969958
0.041006417
0.04531051
0.048302876
0.049786827
0.04995325
0.049138196
0.047695525
0.046362939
0.045708556
0.045908427
0.047182155
0.049661124
0.052922401
0.056609007
0.060492449
0.064090601
0.066844125
0.068460711
0.068978899
0.068710866
0.06833018
0.068230699
0.068803631
0.070432115
0.072564317
0.074729861
0.076982054
0.07925249
0.081077675
0.082872002
0.084860893
0.086882702
0.089028726
0.091181652
0.093318721
0.095366014
0.097452204
0.099454774
0.10154745
0.10350728
0.10557129
0.10742764
0.10942781
0.11115624
0.11316221
0.11457722
0.11669586
0.11768843
0.12026729
0.010511135
0.010062707
0.0097710882
0.0095634867
0.0093874611
0.0092567502
0.0091562859
0.0091605174
0.0094817734
0.010517631
0.012635656
0.0160758
0.02066793
0.025625504
0.030231141
0.033842941
0.036171056
0.037192542
0.037200057
0.036598715
0.036040974
0.036099185
0.037042862
0.039181965
0.042310852
0.046049126
0.050202565
0.054616148
0.058835046
0.062291341
0.064663907
0.065894138
0.066359407
0.066549503
0.066871329
0.067839316
0.069738687
0.071907254
0.074243321
0.076813703
0.079380229
0.081478717
0.083472781
0.085579446
0.087684517
0.089898638
0.09210375
0.094261187
0.096315514
0.0983956
0.10038736
0.10245093
0.10438408
0.10640415
0.10822507
0.11017639
0.11186553
0.1138195
0.11519774
0.11725793
0.11822895
0.12074668
0.011378952
0.010811766
0.010321409
0.00985367
0.0093296152
0.0087212419
0.0078858572
0.0066660669
0.0049519171
0.0026756081
0.001592634
0.0049818224
0.0095778344
0.014432492
0.019007988
0.022686195
0.025338409
0.02670594
0.027103316
0.02688305
0.026775032
0.027334466
0.029078421
0.031983104
0.035684246
0.03983127
0.044349787
0.049184205
0.05394257
0.058061058
0.061168145
0.06312248
0.064321216
0.065089499
0.065887823
0.067303106
0.069420501
0.071634981
0.074103808
0.076930991
0.079745489
0.082077149
0.084236699
0.086433549
0.088601785
0.090862172
0.093098804
0.095261379
0.097310684
0.099375994
0.10134947
0.10337871
0.1052805
0.10725387
0.10903656
0.110937
0.11258546
0.11448552
0.11582568
0.11782627
0.11877462
0.12122936
0.012284614
0.011994165
0.011793491
0.011642823
0.01147066
0.011205207
0.010784716
0.010133736
0.0092174122
0.0081070597
0.0072465908
0.0071995606
0.0086989419
0.011270889
0.014236683
0.016721191
0.018643231
0.019500734
0.019480569
0.018988929
0.018828937
0.019757076
0.022267468
0.025900757
0.030115165
0.03455856
0.03928533
0.044382887
0.049557886
0.054263645
0.058060824
0.060743703
0.06265132
0.064025065
0.065343943
0.06718807
0.069488239
0.071751944
0.074312697
0.077330748
0.080342337
0.082860946
0.085150202
0.087410195
0.089621442
0.091908768
0.094158558
0.096312768
0.098346223
0.10038917
0.10233752
0.10432776
0.10619402
0.10811818
0.10986017
0.11170807
0.11331464
0.11515915
0.11646013
0.11840025
0.11932488
0.12171515
0.013021107
0.013066077
0.013200781
0.01342523
0.01370638
0.013998112
0.014251668
0.014429729
0.014493268
0.014427903
0.014238918
0.014087947
0.0140036
0.014198771
0.014824416
0.015862292
0.016692855
0.01692919
0.016315249
0.014981447
0.013369478
0.012493972
0.013618486
0.016910958
0.021295418
0.025929478
0.030505755
0.035236204
0.040396925
0.045825414
0.051007003
0.055425235
0.058815668
0.061411106
0.063407691
0.065257627
0.067486706
0.069939613
0.072247722
0.074854414
0.078000495
0.081154984
0.083814564
0.086198251
0.08849584
0.090730685
0.093027917
0.095274934
0.097408695
0.099416981
0.10143074
0.10334783
0.10529495
0.10712202
0.10899474
0.11069394
0.11248797
0.11405161
0.11583922
0.11710017
0.11897927
0.11987919
0.12220391
0.013054413
0.013548153
0.014122818
0.014759293
0.015438593
0.016134527
0.016819124
0.017464822
0.018046367
0.018540408
0.018925104
0.019273522
0.019539691
0.019621126
0.019666377
0.019633942
0.019194104
0.01827633
0.016420716
0.013612942
0.01034655
0.007965221
0.0091170558
0.013362908
0.018505731
0.02341683
0.027923155
0.032408764
0.037399522
0.042885473
0.048396815
0.053345383
0.057394648
0.060651178
0.063262698
0.065618964
0.068176473
0.070746177
0.073087891
0.075699715
0.078916904
0.082163266
0.084920375
0.087365203
0.089676917
0.091917171
0.094209367
0.096439899
0.098542558
0.10051794
0.10249621
0.10437668
0.1062771
0.10806182
0.10988119
0.11153583
0.113275
0.11479486
0.11652455
0.11774494
0.11956267
0.12043703
0.12269544
0.012742274
0.013663634
0.014600569
0.015564414
0.016552957
0.01755792
0.018561905
0.019544094
0.020483766
0.021349722
0.022114445
0.022805068
0.023307899
0.023491949
0.023433476
0.023055965
0.022067691
0.020373069
0.017599298
0.013817421
0.009250581
0.0050877196
0.0064679734
0.011856934
0.01756254
0.022560448
0.026873609
0.030966803
0.035545219
0.040865537
0.046532706
0.051898499
0.056533863
0.060401382
0.063582231
0.066401911
0.069222129
0.071869361
0.074227453
0.076811941
0.080053405
0.083343886
0.086159665
0.088635382
0.090940097
0.093169076
0.095443193
0.09764551
0.099707955
0.10164402
0.10358107
0.10542029
0.10727095
0.10901065
0.11077512
0.1123838
0.11406744
0.11554284
0.11721395
0.11839352
0.12014976
0.12099787
0.12318957
0.01214387
0.013380439
0.014582409
0.015764161
0.016944502
0.018133363
0.019328985
0.020519617
0.021686993
0.022798712
0.023808439
0.024694531
0.025293839
0.025628088
0.025597689
0.025083632
0.023820589
0.021656143
0.018335236
0.01383899
0.0084686965
0.0030813615
0.0059788624
0.01231638
0.01825055
0.023161536
0.027183856
0.030829851
0.034904103
0.039860398
0.045496523
0.051144584
0.056263898
0.060656893
0.064355355
0.067563455
0.070580936
0.073267561
0.075619778
0.078152347
0.081380844
0.084672691
0.087513197
0.089993348
0.09227241
0.094475102
0.09671981
0.098883988
0.10089868
0.10279
0.10468076
0.10647483
0.10827322
0.1099657
0.1116741
0.11323575
0.11486352
0.116294
0.11790625
0.11904496
0.12073984
0.12156119
0.12368606
0.011333246
0.012713942
0.014032027
0.015320791
0.016599194
0.017877542
0.019159967
0.020440892
0.021703541
0.022917282
0.024026388
0.024951513
0.02565312
0.026020643
0.026040119
0.025419732
0.023962211
0.021484036
0.017788884
0.012792114
0.0068452558
0.0016440546
0.0076303997
0.014432853
0.02033074
0.025050535
0.02874952
0.031932726
0.035439253
0.03990629
0.045334766
0.051111533
0.056575009
0.06141208
0.065542945
0.069054578
0.072207825
0.074899014
0.077220879
0.079683252
0.08286833
0.086126133
0.088961853
0.091424071
0.093661292
0.095824454
0.098029966
0.10014776
0.10210862
0.10395054
0.10579073
0.10753648
0.10928059
0.11092414
0.11257569
0.11408959
0.11566149
0.11704676
0.11860026
0.11969828
0.12133222
0.12212648
0.12418471
0.010325413
0.011677972
0.012970471
0.014240895
0.015500612
0.016757538
0.018015539
0.019271182
0.020510723
0.021706836
0.022812113
0.023755472
0.024458987
0.024795483
0.024816773
0.024128153
0.022524498
0.019778639
0.015704095
0.01027433
0.0039455462
0.0038094893
0.010933888
0.0178276
0.023562045
0.028023841
0.03138184
0.034125077
0.037069016
0.040968895
0.046033541
0.051771339
0.057463271
0.062639566
0.067092932
0.070825698
0.074058761
0.076723714
0.078990929
0.081369409
0.084484898
0.087680945
0.090486977
0.092912985
0.095094601
0.097206813
0.09936473
0.1014294
0.10333171
0.10512031
0.10690649
0.10860139
0.11028975
0.11188313
0.11347746
0.11494324
0.11645959
0.1177996
0.11929479
0.12035252
0.12192622
0.12269324
0.12468526
0.010360793
0.011463479
0.012584639
0.013713477
0.014844309
0.015974151
0.017097516
0.018201492
0.019262178
0.02024001
0.021075118
0.021660915
0.021921683
0.021850636
0.021049953
0.019290873
0.016332237
0.011994856
0.0063831591
0.0013992775
0.0081864354
0.015548202
0.022293794
0.027771173
0.031914038
0.034906167
0.037232243
0.039645529
0.042952583
0.047554681
0.053121994
0.058896708
0.064277292
0.068952463
0.072828927
0.076092131
0.078704284
0.080894553
0.083177919
0.086199896
0.089315109
0.092070643
0.094445975
0.096560628
0.098612318
0.10071549
0.10272167
0.10456194
0.10629406
0.1080236
0.10966577
0.11129742
0.11283986
0.11437698
0.11579461
0.11725606
0.11855101
0.11998866
0.12100673
0.12252114
0.12326097
0.12518749
0.008855139
0.0096072249
0.010449782
0.011339755
0.012247373
0.013154616
0.014048481
0.014914617
0.015732354
0.016470619
0.017078522
0.017443004
0.017546084
0.017307095
0.016371543
0.014491775
0.011395659
0.0069837933
0.0020382222
0.0064767769
0.01389397
0.021234513
0.027698819
0.032822777
0.036580706
0.039173588
0.041085288
0.04300437
0.045724755
0.049798345
0.055077535
0.060798914
0.066265065
0.07106891
0.075018979
0.078269107
0.080806039
0.082900234
0.085078058
0.087985299
0.091007571
0.093696222
0.09600927
0.098048106
0.10003154
0.10207399
0.10401759
0.10579341
0.10746667
0.10913772
0.11072588
0.11230038
0.11379157
0.11527188
0.11664168
0.11804918
0.11929949
0.12068072
0.12165999
0.1231163
0.12382919
0.1256911
0.0072589115
0.0075230056
0.0079574348
0.008497802
0.0090864705
0.009683173
0.010260678
0.010798897
0.011278651
0.01167773
0.011945316
0.012018412
0.011862137
0.011402095
0.010354208
0.0084634373
0.0055629516
0.0030512931
0.0066486046
0.013311966
0.020800497
0.027872676
0.033927988
0.038592046
0.041892141
0.044050151
0.045532036
0.046985868
0.049140557
0.052646046
0.057542183
0.06310059
0.068541852
0.073390057
0.077353454
0.080553567
0.082996829
0.084979635
0.087041896
0.089817784
0.092738217
0.095348248
0.097589468
0.099546249
0.10145551
0.10343232
0.10531042
0.10702037
0.10863316
0.11024459
0.11177808
0.11329549
0.11473555
0.11615987
0.11748245
0.11883726
0.1200436
0.12136987
0.12231138
0.12371101
0.1243974
0.12619581
0.0054607931
0.005327435
0.0053589001
0.0054959585
0.0056756703
0.005847612
0.0059779797
0.0060440602
0.0060367697
0.0059370689
0.0057224393
0.0053906832
0.0049519729
0.0044981801
0.0043479018
0.0055840689
0.0090942905
0.014670155
0.021499001
0.02872521
0.035361109
0.040864248
0.044952316
0.047715586
0.04940292
0.050435464
0.05144156
0.053059033
0.055976588
0.06041793
0.06572895
0.07104824
0.075864775
0.079792514
0.082911725
0.085246696
0.087106645
0.089044341
0.091676571
0.09448804
0.097011869
0.099173874
0.10104488
0.10287567
0.104783
0.10659375
0.10823727
0.10978879
0.11134018
0.11281892
0.11427979
0.11566931
0.11703878
0.11831509
0.11961871
0.12078197
0.12205502
0.12295997
0.12430455
0.12496512
0.1267013
0.098673252
0.10075071
0.1025342
0.10428387
0.10611886
0.10786144
0.10943878
0.11092898
0.11242057
0.11384502
0.11525039
0.11659035
0.11790649
0.11913774
0.12039194
0.1215133
0.12273514
0.1236049
0.12489626
0.12553186
0.12720725
0.17029216
0.17287976
0.13599602
0.14385286
0.15080605
0.15684813
0.16190397
0.16598382
0.16918955
0.17166722
0.12763023
0.13653342
0.14409778
0.15070376
0.15640766
0.16118007
0.1650432
0.16809155
0.17045804
0.12841643
0.13701731
0.14429078
0.15056654
0.1559453
0.16044216
0.16409229
0.16698525
0.16924191
0.12916905
0.13743269
0.14440701
0.15036532
0.15543218
0.15966523
0.1631103
0.16585289
0.16800293
0.12984163
0.13775032
0.14439851
0.15005488
0.1548289
0.15881592
0.16206902
0.16466972
0.16671823
0.1303893
0.13789793
0.14424862
0.14957943
0.1540846
0.15784989
0.16093009
0.16340185
0.16535706
0.1307249
0.13778752
0.1438142
0.14886606
0.15314242
0.1567169
0.15964828
0.16200804
0.16388034
0.13064349
0.13732938
0.1430166
0.14785438
0.15194389
0.15536366
0.15817426
0.16044244
0.16224472
0.13013242
0.13635887
0.14181296
0.14647419
0.15042397
0.15373239
0.15645461
0.15865433
0.16040245
0.12896943
0.13485428
0.14010594
0.14464712
0.14851938
0.15176849
0.15444075
0.15659815
0.15830974
0.12709432
0.13270101
0.13782436
0.14232504
0.14619011
0.14943541
0.15209815
0.15424078
0.15593412
0.12449204
0.12990198
0.13497954
0.1395162
0.14343894
0.14673156
0.14942195
0.15157534
0.15326734
0.12123319
0.12654378
0.13165295
0.13628894
0.1403207
0.14370067
0.14644759
0.14863042
0.15033204
0.11747766
0.12277618
0.12798216
0.13276727
0.13694603
0.14044057
0.1432636
0.14548894
0.14720915
0.11340813
0.11877858
0.12414308
0.12911997
0.13347513
0.13710437
0.14001929
0.1423012
0.14405386
0.10919093
0.11472224
0.12031982
0.12554104
0.13010335
0.1338862
0.13690539
0.139254
0.14104836
0.1050259
0.11078757
0.11668801
0.1222136
0.12702366
0.13098126
0.13411242
0.13652796
0.13836028
0.10121127
0.10720883
0.11343912
0.11931158
0.12440922
0.1285684
0.13182621
0.13431682
0.13619295
0.098061228
0.1042443
0.11078081
0.1170128
0.12242948
0.12681944
0.13022122
0.13279185
0.13470642
0.095852468
0.10210866
0.10885237
0.11539122
0.12111986
0.12575453
0.12931702
0.13198309
0.13395398
0.094738865
0.10093421
0.10774418
0.11445834
0.12041422
0.1252714
0.12901835
0.13182044
0.13388553
0.094658518
0.10065546
0.10731428
0.1140193
0.12008588
0.12508474
0.12894145
0.13182502
0.13394501
0.095164196
0.10083806
0.10721563
0.11372829
0.1197182
0.12473773
0.12867344
0.131626
0.13378786
0.095788561
0.10096872
0.1068924
0.11303561
0.11879969
0.12375455
0.12771955
0.13073681
0.13296615
0.09577866
0.10049088
0.10584932
0.11143925
0.11679886
0.12150833
0.12537152
0.12838702
0.13066209
0.094953317
0.099072027
0.10379785
0.1088283
0.11372298
0.1180989
0.12174611
0.1246339
0.12684417
0.092966501
0.096543556
0.1007174
0.10522509
0.10968323
0.11374036
0.11717766
0.11993595
0.12206787
0.089788673
0.092874828
0.096544751
0.10058722
0.10467707
0.10847597
0.11174724
0.11440175
0.11646725
0.085852982
0.088510465
0.091731898
0.095362276
0.099129482
0.10271874
0.10588096
0.10849669
0.11056578
0.08235067
0.084659586
0.087511664
0.09079929
0.094300649
0.097731432
0.10084072
0.10348352
0.10562773
0.080137381
0.082240329
0.084875662
0.087971079
0.091338569
0.094714177
0.097846679
0.10057139
0.10282872
0.079480978
0.081519836
0.084091597
0.087132307
0.090469912
0.09385815
0.097035766
0.099825981
0.10215921
0.079883706
0.081894406
0.084433669
0.087435149
0.090728995
0.094074446
0.097224735
0.10000524
0.10234161
0.081557373
0.083496612
0.085963767
0.0888926
0.092102478
0.095347021
0.09839511
0.10109147
0.10336691
0.082737876
0.084495158
0.08674108
0.089448261
0.092483016
0.095624257
0.09861603
0.10126875
0.10349922
0.082887721
0.084381467
0.086357908
0.088797532
0.091586022
0.094517885
0.097358174
0.099922056
0.10211264
0.082787606
0.083845893
0.085268556
0.087075976
0.08921113
0.091540139
0.093890078
0.096104231
0.098079862
0.082648509
0.083373102
0.084387349
0.085729543
0.087376094
0.089235167
0.091171604
0.093055291
0.094792455
0.082951082
0.083500818
0.084320242
0.085439557
0.086845657
0.088455463
0.090149553
0.091815511
0.093367819
0.083844436
0.084204763
0.084816083
0.085754087
0.087017729
0.088520241
0.090125661
0.091702082
0.093167673
0.085072087
0.085290353
0.085719885
0.086437793
0.087468997
0.088756205
0.090195568
0.091676248
0.093091318
0.08632364
0.086343138
0.086513298
0.086921756
0.087628944
0.088634081
0.089859364
0.091181217
0.092494123
0.087683645
0.087514729
0.087429743
0.087516874
0.08786038
0.088478533
0.089314645
0.09031229
0.091383868
0.089289804
0.088975995
0.088685523
0.088497726
0.088503748
0.088788539
0.089369643
0.090143416
0.091027781
0.091002366
0.09059487
0.090169525
0.089796878
0.089567273
0.089561777
0.089827923
0.090367527
0.091092827
0.092894901
0.092423585
0.091902024
0.091390675
0.090974803
0.090741784
0.090750079
0.091007211
0.091483322
0.094771875
0.094255702
0.093664224
0.093047779
0.092483356
0.092058171
0.091843781
0.091873737
0.092135715
0.096899126
0.096369392
0.095750196
0.09508304
0.094434639
0.093883549
0.093499171
0.093323508
0.093362587
0.09889983
0.09836374
0.09772939
0.097032627
0.096333745
0.095705936
0.095216716
0.09491111
0.094803758
0.10114895
0.10063192
0.10001629
0.099333614
0.098638381
0.097997683
0.097474254
0.097111195
0.096924417
0.10314513
0.10264364
0.10204384
0.10137445
0.1006861
0.1000419
0.099501573
0.099106975
0.098874627
0.10538008
0.10490856
0.10434284
0.10370875
0.10305253
0.10243219
0.10190311
0.10150438
0.10125185
0.1072983
0.10685302
0.106318
0.1057168
0.10509238
0.1044994
0.10399022
0.10360179
0.10334884
0.10956445
0.10915297
0.10865785
0.10810049
0.10752007
0.10696626
0.10648704
0.10611663
0.10586903
0.11116164
0.11077626
0.11031231
0.10978975
0.10924543
0.10872658
0.10827901
0.10793522
0.10770807
0.11358751
0.1132417
0.11282521
0.11235584
0.11186653
0.11139951
0.11099559
0.11068354
0.11047447
0.11468174
0.1143528
0.11395629
0.11350907
0.11304256
0.11259724
0.11221246
0.11191627
0.1117197
0.11757227
0.1172816
0.11693178
0.11653778
0.11612755
0.11573724
0.11540189
0.11514596
0.11497831
0.17503532
0.17707192
0.17904925
0.18102735
0.18304272
0.18429077
0.17373698
0.1756962
0.17760341
0.1795168
0.18147371
0.18270553
0.17244141
0.17432303
0.17615984
0.17800685
0.17990167
0.18111474
0.17114033
0.17294555
0.17471221
0.17649282
0.17832385
0.17951335
0.16981917
0.17155085
0.17324908
0.17496328
0.17672922
0.17788925
0.16845647
0.17011838
0.17175065
0.17339945
0.17509958
0.17622463
0.1670234
0.16862068
0.17019064
0.17177654
0.1734114
0.17449571
0.16548258
0.1670218
0.16853424
0.17006029
0.17163124
0.17267299
0.16379231
0.16528149
0.16674275
0.16821404
0.16972478
0.1707236
0.16190657
0.16335455
0.16477122
0.1661925
0.16764694
0.16861444
0.15978316
0.16120046
0.16258162
0.16396177
0.1653703
0.1663208
0.1573894
0.15878568
0.16013917
0.16148462
0.16285466
0.16382298
0.15471573
0.15609976
0.15743381
0.15875409
0.16010431
0.16123401
0.15177808
0.15315022
0.15446385
0.15576157
0.15712825
0.15876568
0.14865834
0.15002399
0.15133084
0.15264101
0.15411016
0.15630633
0.14551812
0.14688855
0.14820109
0.14952648
0.15102966
0.1530974
0.14253402
0.14391348
0.14523409
0.14656917
0.14808244
0.15010941
0.13985932
0.14123528
0.14254734
0.14386907
0.14536047
0.14742512
0.13770968
0.13908595
0.14039436
0.14170942
0.1431949
0.14531633
0.13622732
0.13758299
0.13886235
0.14014445
0.14159895
0.14374724
0.1355064
0.13687811
0.13816472
0.13944269
0.14088178
0.14303214
0.13548994
0.13688521
0.13818701
0.13947285
0.14091608
0.14309216
0.13559313
0.13702971
0.13836288
0.13967172
0.14112611
0.14325867
0.1354696
0.13693459
0.13828906
0.13961329
0.14107171
0.14312436
0.13471383
0.13624346
0.13765022
0.13901101
0.14046709
0.14218325
0.13248339
0.13410572
0.13560161
0.13703611
0.13853303
0.14036572
0.12864912
0.13030031
0.13187611
0.13348847
0.13542967
0.13869672
0.12382427
0.12544063
0.12697634
0.12851684
0.13026856
0.1328876
0.11817792
0.11975933
0.12126985
0.12281142
0.12467896
0.12815058
0.11230271
0.11393322
0.11553893
0.11727339
0.11961835
0.12495675
0.10745967
0.10920979
0.1109902
0.11300135
0.11588677
0.12276019
0.10478051
0.10666395
0.10861112
0.11083598
0.1140129
0.12131694
0.10418355
0.10614319
0.10817809
0.11049993
0.11375793
0.12083931
0.10437693
0.10635312
0.1084116
0.11076131
0.11404087
0.12109862
0.10535573
0.10729838
0.10933036
0.11165186
0.11486918
0.12157661
0.10545328
0.10736784
0.1093701
0.11166319
0.11486669
0.12164632
0.10406111
0.10599635
0.1080386
0.11040613
0.11377633
0.12093607
0.099918107
0.1018378
0.10397686
0.1066186
0.11062987
0.11957276
0.096460265
0.098265085
0.10036846
0.1031098
0.1075157
0.1177992
0.094872031
0.096518742
0.098472347
0.1010822
0.10541563
0.11602768
0.094584758
0.096134947
0.097974983
0.10043882
0.10455324
0.11474121
0.094481742
0.096018612
0.09785281
0.10032015
0.10446031
0.11467687
0.093832371
0.095364534
0.097243619
0.099819031
0.10416354
0.11469189
0.092542993
0.093948614
0.095775956
0.09843161
0.10309437
0.1143524
0.092035195
0.093316008
0.095048377
0.097659516
0.10238543
0.11402753
0.091974144
0.093144866
0.094800286
0.097387141
0.10217415
0.11400662
0.092171638
0.0932028
0.094756352
0.097307764
0.10218342
0.11420509
0.092622662
0.093463119
0.094879349
0.097372309
0.10229037
0.11450792
0.093609752
0.094185073
0.095340389
0.097649063
0.10254248
0.11489389
0.094886283
0.095260222
0.096171001
0.098214547
0.10293213
0.11531026
0.096900714
0.097116609
0.097787819
0.099476886
0.10379063
0.11591065
0.098787644
0.098906267
0.099418987
0.10084163
0.10475769
0.11653854
0.10112591
0.10117081
0.10154125
0.10266734
0.10601641
0.11725467
0.10321049
0.10322284
0.10351911
0.10447028
0.10741401
0.11803828
0.10572296
0.10570674
0.10593381
0.10671695
0.10924252
0.11913484
0.10757735
0.1075722
0.10780128
0.10856117
0.11098261
0.1203814
0.11034877
0.11033017
0.11051159
0.11114603
0.113216
0.12184637
0.11160457
0.11159823
0.11179751
0.11246667
0.11465137
0.1231209
0.11488065
0.11487989
0.11505774
0.11563507
0.11745068
0.12521318
)
;

boundaryField
{
    Side1
    {
        type            empty;
    }
    Inlet
    {
        type            calculated;
        value           nonuniform List<scalar> 0();
    }
    Side2
    {
        type            empty;
    }
    Outlet
    {
        type            calculated;
        value           nonuniform List<scalar> 
35
(
0.11793002
0.11838768
0.11885092
0.11931908
0.11979136
0.12026729
0.12074668
0.12122936
0.12171515
0.12220391
0.12269544
0.12318957
0.12368606
0.12418471
0.12468526
0.12518749
0.1256911
0.12619581
0.1267013
0.12720725
0.11757227
0.1172816
0.11693178
0.11653778
0.11612755
0.11573724
0.11540189
0.11514596
0.11497831
0.11488065
0.11487989
0.11505774
0.11563507
0.11745068
0.12521318
)
;
    }
    Botwall
    {
        type            calculated;
        value           nonuniform List<scalar> 
59
(
0.14989373
0.14988402
0.14987444
0.14986499
0.14985564
0.14984631
0.1498369
0.14982729
0.14981733
0.14980683
0.14979573
0.14978376
0.14977116
0.14975934
0.14974693
0.14973181
0.14971848
0.14970585
0.14969548
0.14968527
0.14967658
0.14966969
0.14966146
0.14965086
0.14963987
0.14962693
0.14961456
0.14960152
0.14959369
0.14958996
0.14958649
0.149582
0.14957394
0.14955719
0.14953158
0.14951834
0.14951971
0.14952571
0.14952993
0.14952719
0.14951105
0.14949967
0.14950192
0.14951027
0.14951692
0.14952029
0.14952452
0.14953432
0.1495485
0.14956348
0.14958215
0.14960363
0.14962678
0.14964902
0.1496716
0.14968467
0.1497013
0.14970781
0.14972232
)
;
    }
    Cyli
    {
        type            calculated;
        value           nonuniform List<scalar> 0();
    }
    procBoundary1to0
    {
        type            processor;
        value           nonuniform List<scalar> 
44
(
0.11249056
0.12681194
0.086725425
0.086725425
0.045886485
0.045886485
0.019757753
0.012637778
0.012637778
0.010057634
0.010057634
0.01110748
0.012050363
0.01268259
0.01268259
0.013167675
0.012697163
0.011886678
0.01092249
0.0099684569
0.0092587326
0.0090450151
0.0092587326
0.0082044115
0.0071860959
0.0057993829
0.0057993829
0.17140916
0.17410289
0.13544146
0.14359227
0.15090693
0.1572955
0.16263586
0.16693056
0.16693056
0.12681194
0.12681194
0.17634167
0.17845317
0.18049679
0.18253361
0.18459994
0.18586471
)
;
    }
    procBoundary1to3
    {
        type            processor;
        value           nonuniform List<scalar> 
62
(
0.004158976
0.0034534416
0.0028250275
0.0022826702
0.0018322602
0.0014823884
0.00127231
0.0013144706
0.0017024644
0.0024239305
0.0034331528
0.0046877153
0.0061977158
0.008135296
0.010552036
0.013847861
0.018350524
0.024103466
0.030758787
0.037552295
0.043569426
0.048373903
0.051775204
0.053921542
0.055093348
0.055663582
0.056229805
0.057342018
0.059666575
0.063602299
0.068603064
0.07372694
0.078446416
0.08230075
0.085313755
0.087528804
0.089257119
0.091061022
0.09354078
0.096238917
0.096238917
0.1003195
0.10230963
0.10400518
0.10567227
0.10743299
0.10910764
0.1106199
0.11204942
0.11348209
0.11485324
0.11620462
0.11749641
0.11876105
0.11994874
0.12115548
0.12223637
0.12340918
0.12424528
0.12548543
0.12609714
0.12771328
)
;
    }
}


// ************************************************************************* //
