/*--------------------------------*- C++ -*----------------------------------*\
| =========                 |                                                 |
| \\      /  F ield         | OpenFOAM: The Open Source CFD Toolbox           |
|  \\    /   O peration     | Version:  2406                                  |
|   \\  /    A nd           | Website:  www.openfoam.com                      |
|    \\/     M anipulation  |                                                 |
\*---------------------------------------------------------------------------*/
FoamFile
{
    version     2.0;
    format      ascii;
    arch        "LSB;label=32;scalar=64";
    class       volVectorField;
    location    "0.09";
    object      U;
}
// * * * * * * * * * * * * * * * * * * * * * * * * * * * * * * * * * * * * * //

dimensions      [0 1 -1 0 0 0 0];

internalField   nonuniform List<vector> 
2065
(
(39.098929 2.6117511 6.7169454e-21)
(39.617947 2.4274581 -3.4553773e-20)
(40.096339 2.336652 0)
(40.549289 2.3455011 3.7959208e-18)
(40.971677 2.4626916 -7.0535486e-18)
(41.340434 2.7125827 6.5708048e-18)
(41.640422 3.0805668 -3.0258127e-18)
(41.799126 3.6360827 -2.6238728e-18)
(41.743048 4.1628562 2.3179955e-18)
(41.476696 4.7643317 1.7561268e-20)
(40.895373 5.3726597 -3.372568e-20)
(40.043692 5.7793616 -2.0205785e-18)
(38.953151 5.9588498 3.6187943e-18)
(37.695436 5.8716494 -3.3221984e-18)
(36.338417 5.514589 3.1279661e-18)
(34.937209 4.9143219 -1.4187545e-18)
(33.564939 4.0982945 -4.0946928e-20)
(32.334805 3.1229513 0)
(31.348949 2.0708375 1.0893912e-18)
(30.698168 1.0832235 -1.0757598e-18)
(30.428469 0.35536575 0)
(30.499965 0.071871452 -5.5864356e-20)
(30.82673 0.2563068 -5.3698861e-20)
(31.188967 0.90528081 -7.1545816e-19)
(31.317015 1.7629229 8.058033e-19)
(31.13791 2.5412651 0)
(30.580795 3.1142689 -8.468251e-20)
(29.620501 3.305191 7.9917102e-20)
(28.451451 2.9513563 0)
(27.466104 2.0342366 0)
(26.860797 0.94334976 0)
(26.695405 0.12528913 -1.1316235e-19)
(26.858519 -0.34078855 0)
(27.462965 -0.38596283 -1.0404237e-19)
(27.919804 0.057313072 0)
(28.056832 0.59690767 0)
(28.154317 0.76042875 0)
(28.220518 0.46787657 4.7678585e-19)
(28.398712 0.10742509 4.386514e-19)
(28.7722 -0.089444579 1.3797635e-19)
(29.240895 -0.094393417 -2.5865233e-19)
(29.733436 -0.029783052 1.5637362e-20)
(30.259008 -0.052672931 -1.8475537e-19)
(30.854337 -0.13028121 1.9634779e-19)
(31.47075 -0.17975419 -1.7875791e-19)
(32.139406 -0.19993662 1.4494697e-19)
(32.796999 -0.21136804 8.8938014e-19)
(33.529969 -0.21903391 -4.0376329e-19)
(34.217517 -0.23247756 0)
(34.981383 -0.23032805 0)
(35.659974 -0.22463338 5.1507064e-20)
(36.415661 -0.22061208 -4.1940384e-20)
(37.064774 -0.21658181 1.5001835e-20)
(37.830184 -0.20258611 -5.2729012e-24)
(38.370861 -0.20244157 5.6566961e-20)
(39.189067 -0.1704656 -5.8080501e-19)
(39.561153 -0.16930442 -5.2402385e-19)
(40.538797 -0.12752688 0)
(31.016746 1.801571 -9.9312645e-21)
(32.163938 1.8066798 1.8343928e-20)
(33.209149 1.8681868 4.3355789e-18)
(34.174117 2.0090562 -3.985683e-18)
(35.085627 2.2616222 -1.4422394e-20)
(35.923052 2.6354842 0)
(36.667486 3.1458953 -1.2241452e-20)
(37.263251 3.7633518 2.2519069e-20)
(37.605658 4.4652529 0)
(37.573598 5.2235439 -3.6048003e-20)
(37.282703 5.7547731 3.2796163e-20)
(36.608967 6.1845038 0)
(35.641982 6.3196067 2.8898719e-20)
(34.475296 6.1647471 -2.6408346e-20)
(33.177467 5.7376237 -2.4176802e-20)
(31.81518 5.0673966 0)
(30.501216 4.1720319 1.3647012e-18)
(29.370891 3.1183076 3.8063341e-20)
(28.523485 2.0019153 -1.1112018e-18)
(28.046621 0.97946179 1.0303277e-18)
(27.95212 0.25947593 -1.8934067e-18)
(28.184075 0.0036883096 1.7852684e-18)
(28.715741 0.2504739 -1.6606465e-18)
(29.23843 0.96630667 8.5902311e-19)
(29.546889 1.8559796 -4.7461549e-20)
(29.516221 2.6688913 0)
(29.143105 3.2361879 8.2625767e-20)
(28.364215 3.4095669 -7.8210135e-20)
(27.384336 2.996589 0)
(26.584969 2.0149022 5.2907016e-19)
(26.108098 0.89228365 -6.7463128e-19)
(26.007118 0.066459453 3.2372909e-19)
(26.214628 -0.39747284 0)
(26.854826 -0.4216669 1.0289482e-19)
(27.356648 0.059628433 -3.9809564e-19)
(27.604022 0.60247464 3.7412671e-19)
(27.848609 0.7446817 0)
(28.032333 0.43908526 0)
(28.300532 0.07333172 -4.2944236e-19)
(28.744516 -0.12204777 4.032204e-19)
(29.265234 -0.12373685 -2.5160043e-19)
(29.822593 -0.059562574 0)
(30.407694 -0.084524022 0)
(31.045922 -0.1619719 0)
(31.690256 -0.20958288 0)
(32.377051 -0.2274078 -3.0560605e-19)
(33.047722 -0.23717939 -4.3737333e-19)
(33.78301 -0.24284281 -2.6574072e-19)
(34.47178 -0.2544118 3.6449573e-19)
(35.227389 -0.25034301 -1.1146599e-19)
(35.900052 -0.24342617 0)
(36.643819 -0.23854622 -3.3354128e-19)
(37.283362 -0.23433424 -2.4174531e-20)
(38.035127 -0.21879413 2.8522197e-19)
(38.566391 -0.21859408 1.8946375e-20)
(39.367907 -0.18400075 2.6565101e-19)
(39.735002 -0.18337534 5.2825514e-19)
(40.696033 -0.13763607 0)
(17.551036 0.236108 5.4997251e-18)
(19.367998 0.418242 -5.0573234e-18)
(21.211686 0.62579343 -4.6761274e-18)
(23.015035 0.86413041 4.3283758e-18)
(24.759081 1.1876458 -7.7796899e-21)
(26.458141 1.6198201 -1.4363276e-20)
(28.079507 2.1616878 0)
(29.585674 2.8450047 2.4429906e-20)
(30.902935 3.6558468 -2.8925127e-18)
(31.887722 4.5376152 2.64871e-18)
(32.451889 5.3684129 1.8984409e-20)
(32.517621 6.0976924 0)
(32.216076 6.489744 0)
(31.526345 6.6425364 -1.4315714e-20)
(30.548007 6.4595632 -1.6827149e-18)
(29.389424 5.9879865 3.0916567e-18)
(28.154808 5.2552485 -1.3997707e-18)
(27.004352 4.2737962 1.5952047e-24)
(26.071936 3.1326257 -1.2354607e-18)
(25.447089 1.9402121 1.0554292e-18)
(25.196926 0.86291818 6.2159377e-20)
(25.289228 0.16657682 0)
(25.746998 -0.095498098 0)
(26.476467 0.2022409 -2.6392288e-20)
(27.181795 0.97662377 -8.4468665e-19)
(27.692304 1.9044207 4.631468e-20)
(27.852911 2.7601831 6.8897683e-19)
(27.656257 3.3327151 4.021197e-20)
(27.105933 3.4948712 -6.0688824e-19)
(26.332404 3.0326977 5.6151901e-19)
(25.726153 1.9971571 6.4375236e-20)
(25.375499 0.8458124 0)
(25.339845 0.01105881 2.3731889e-19)
(25.603939 -0.45662526 -4.6637967e-19)
(26.279901 -0.46223409 -4.034406e-19)
(26.835031 0.048421764 -2.7932397e-23)
(27.208726 0.59388687 -3.5709191e-23)
(27.598628 0.71686384 1.6508715e-19)
(27.899446 0.4045848 3.014029e-19)
(28.260143 0.036319575 -5.5346311e-19)
(28.771745 -0.15889809 2.5888797e-19)
(29.343012 -0.15750725 2.4192511e-19)
(29.958291 -0.093651288 -9.5824956e-21)
(30.594714 -0.11955802 0)
(31.26783 -0.19577884 -9.2142352e-20)
(31.934471 -0.24095748 -2.0563094e-24)
(32.634766 -0.25594528 -1.5393467e-19)
(33.314683 -0.26384283 2.8143711e-19)
(34.049334 -0.26724675 2.5692802e-19)
(34.737013 -0.2766864 -3.5291796e-19)
(35.482645 -0.27049624 -1.620594e-19)
(36.148024 -0.26221241 1.4938444e-19)
(36.878752 -0.25636928 3.2205801e-19)
(37.507804 -0.2518169 6.5292072e-21)
(38.244986 -0.23489611 -3.1684784e-19)
(38.766095 -0.23467504 3.6839676e-20)
(39.550106 -0.19752538 2.5847682e-19)
(39.911683 -0.19749657 2.7329288e-19)
(40.855199 -0.14740905 0)
(7.8363817 -1.3580549 1.0262452e-20)
(9.1734269 -1.2397165 0)
(10.645262 -1.0556023 -9.1793856e-21)
(12.27826 -0.78675229 -8.5860428e-21)
(14.025437 -0.43834559 -7.9753437e-21)
(15.883479 0.010997962 7.4131708e-21)
(17.803553 0.57634291 2.0677882e-20)
(19.775623 1.2684464 0)
(21.723553 2.1529319 3.026201e-18)
(23.554427 3.1896306 -2.8031687e-18)
(25.103814 4.2964351 -2.5880497e-18)
(26.232651 5.3516488 2.3812394e-18)
(26.838026 6.1919098 -8.5620928e-21)
(26.900676 6.7234213 -1.5150682e-20)
(26.607527 6.8865403 1.3759827e-20)
(25.94627 6.7207579 1.6496224e-18)
(25.037673 6.2178063 1.2890309e-20)
(24.064831 5.4185101 -1.3615093e-18)
(23.198579 4.339819 1.2368329e-18)
(22.55832 3.1053673 -1.1194897e-18)
(22.221254 1.8325434 0)
(22.216352 0.72957588 -3.061134e-20)
(22.5216 0.013449422 -9.2014694e-19)
(23.239831 -0.24178144 9.0856323e-19)
(24.152415 0.11215209 5.2011706e-20)
(25.059054 0.94194805 -8.064167e-19)
(25.785701 1.9230917 -4.5988483e-20)
(26.168381 2.8058046 6.6238482e-19)
(26.15979 3.4102924 -7.9035924e-20)
(25.856708 3.5577448 -3.6767247e-20)
(25.314194 3.0501212 -5.8164144e-19)
(24.904496 1.969102 -6.2894437e-20)
(24.676658 0.79562178 2.3659362e-20)
(24.708468 -0.031581313 1.7756046e-19)
(25.052967 -0.52091159 -6.5033276e-26)
(25.75739 -0.50921873 0)
(26.37475 0.025674466 3.7821854e-19)
(26.883213 0.57139268 3.3302007e-23)
(27.412835 0.67791534 -1.8505985e-19)
(27.829031 0.36359742 0)
(28.280896 -0.006275612 0)
(28.855941 -0.19991887 0)
(29.473901 -0.19540749 -1.746867e-19)
(30.138823 -0.13157606 1.3985115e-20)
(30.817931 -0.1574553 9.7706036e-20)
(31.518131 -0.23149823 1.2409858e-25)
(32.201662 -0.273675 2.4356999e-19)
(32.911067 -0.28547117 -1.487478e-19)
(33.596645 -0.2912249 6.8078213e-20)
(34.327991 -0.29213645 -1.2451036e-19)
(35.012392 -0.29924063 2.2832813e-19)
(35.746512 -0.29077968 1.0497232e-19)
(36.403306 -0.28100863 -1.9367757e-19)
(37.119953 -0.27408281 3.8914702e-20)
(37.737659 -0.26899619 2.588237e-24)
(38.459363 -0.25082777 -3.8574103e-20)
(38.969615 -0.25052173 0)
(39.735385 -0.21087404 0)
(40.090926 -0.21144404 -2.5090447e-19)
(41.01606 -0.156949 0)
(4.3889882 -2.3396562 4.8936999e-18)
(5.2587745 -2.2211433 -4.6129061e-18)
(6.1942064 -2.0576988 0)
(7.2495689 -1.8257564 0)
(8.441431 -1.4966947 -3.7982833e-18)
(9.7921499 -1.047331 3.748804e-21)
(11.284869 -0.45604305 6.6656387e-18)
(12.981424 0.28663267 -1.7596928e-18)
(14.755551 1.328315 2.0579388e-18)
(16.51817 2.5553099 -2.7194697e-18)
(18.207694 3.8638867 -9.834816e-21)
(19.619623 5.1128567 9.0895606e-21)
(20.611331 6.1229473 8.3547941e-21)
(21.112932 6.7654636 2.2912083e-20)
(21.147213 7.0150335 1.7494168e-18)
(20.893505 6.8817073 -1.5849037e-18)
(20.360484 6.3567469 1.459694e-18)
(19.762089 5.4939399 8.5628065e-22)
(19.263874 4.3199757 1.0239581e-20)
(18.979333 2.998978 -1.1494948e-18)
(18.951993 1.6505582 1.0344913e-18)
(19.181439 0.56534513 1.5225338e-20)
(19.764789 -0.20720567 -9.1943844e-19)
(20.702222 -0.43352679 -2.7234622e-20)
(21.79878 -0.024601957 -2.5647775e-20)
(22.916255 0.85808687 2.405334e-20)
(23.867859 1.8936895 -7.1935035e-19)
(24.483051 2.8186308 6.7113479e-19)
(24.704221 3.4467238 -5.8088758e-19)
(24.62822 3.5853375 3.5574374e-20)
(24.349783 3.0470817 5.6554882e-19)
(24.136448 1.9262694 -2.9517267e-20)
(24.033518 0.74957043 -6.9332517e-25)
(24.139798 -0.089315982 2.61441e-20)
(24.587061 -0.59235627 5.0042393e-20)
(25.309777 -0.5630948 3.8685898e-19)
(25.995372 -0.0095316408 2.8406187e-23)
(26.638614 0.53435479 -6.8536591e-19)
(27.298726 0.62823949 3.3735308e-20)
(27.826183 0.31532989 2.8315638e-19)
(28.364239 -0.05439064 -2.5947528e-19)
(28.996612 -0.24501864 5.4162042e-19)
(29.655948 -0.23709639 -2.8070698e-19)
(30.361621 -0.17285678 -1.099925e-20)
(31.074827 -0.19775216 -9.4368227e-20)
(31.794764 -0.26878579 4.2950566e-19)
(32.490057 -0.3074788 -3.9277417e-19)
(33.204535 -0.31571009 7.2046847e-20)
(33.892386 -0.31911203 -6.6036915e-20)
(34.618009 -0.31729312 0)
(35.297056 -0.32188813 0)
(36.018339 -0.31104751 5.1103073e-20)
(36.665299 -0.29971681 4.7175829e-20)
(37.366907 -0.29162894 3.7538534e-20)
(37.972475 -0.28584793 0)
(38.677878 -0.26654124 -9.4108683e-20)
(39.176627 -0.26607539 3.503682e-20)
(39.923494 -0.22397553 -1.6399227e-20)
(40.272506 -0.22511325 -3.8303945e-21)
(41.178347 -0.16610221 3.7358115e-22)
(1.8466532 -3.0612087 -4.6804049e-18)
(2.3130169 -2.9545899 8.8398331e-18)
(2.8076137 -2.833987 -4.3702426e-21)
(3.3367759 -2.6829059 -3.9774966e-18)
(3.939819 -2.4745298 0)
(4.6504726 -2.1791187 0)
(5.5020765 -1.7536356 -3.2643914e-21)
(6.4966452 -1.1594343 3.0791586e-21)
(7.7234732 -0.31380042 0)
(9.0188663 0.71501964 0)
(10.419861 1.9829623 2.6189725e-18)
(11.897134 3.3906133 5.5966872e-21)
(13.275548 4.7606817 -4.5029477e-18)
(14.423365 5.9021817 4.149976e-18)
(15.221109 6.6597199 -9.6849413e-21)
(15.629817 6.9996393 -3.470773e-18)
(15.74686 6.8788527 1.5519808e-18)
(15.655707 6.3762133 -5.528952e-21)
(15.479667 5.4437631 -1.023994e-20)
(15.392001 4.1875788 -4.7014059e-21)
(15.479222 2.7821253 0)
(15.728828 1.4645519 0)
(16.233124 0.30101356 -1.5054297e-20)
(17.083112 -0.47718902 -7.1415069e-21)
(18.20046 -0.67115377 0)
(19.481009 -0.21296419 0)
(20.806686 0.7196445 0)
(21.983132 1.810504 0)
(22.835536 2.7857765 2.061873e-20)
(23.30798 3.4396585 0)
(23.467133 3.5743687 0)
(23.451061 3.0198706 0)
(23.438503 1.8687008 -3.8585807e-19)
(23.467648 0.6906354 -2.7641394e-20)
(23.673714 -0.1563799 -1.288305e-20)
(24.225476 -0.67027087 3.9276005e-19)
(24.961142 -0.62404199 -3.7800941e-19)
(25.714391 -0.057858249 3.5952581e-19)
(26.484144 0.48284031 3.3335545e-19)
(27.262236 0.56864707 -2.5110522e-19)
(27.893084 0.26024525 2.4060172e-19)
(28.509715 -0.10745074 0)
(29.191381 -0.29389319 -8.7239568e-20)
(29.88599 -0.28214782 -2.7108645e-20)
(30.623589 -0.21698881 -1.3653965e-20)
(31.362629 -0.2399946 0)
(32.095599 -0.30729234 0)
(32.797852 -0.34210908 7.6180697e-20)
(33.513691 -0.34647016 -3.4975725e-20)
(34.200708 -0.34732514 9.6290033e-20)
(34.918414 -0.34256066 -5.8880078e-20)
(35.59016 -0.34450151 0)
(36.297459 -0.33119567 -4.9858062e-20)
(36.933403 -0.31825235 4.7309979e-24)
(37.619093 -0.30894549 -3.6062008e-20)
(38.211817 -0.30240128 4.4787216e-22)
(38.900155 -0.28199782 2.251655e-24)
(39.386818 -0.28131243 -6.8503755e-20)
(40.114198 -0.23681292 -8.0166185e-21)
(40.456231 -0.23852593 -7.49283e-21)
(41.341891 -0.17489833 0)
(0.11251235 -3.6141818 4.8414538e-18)
(0.42359528 -3.4356264 -8.9589825e-18)
(0.69381167 -3.2889016 -8.4994685e-22)
(0.96258894 -3.14585 1.9824963e-22)
(1.2024214 -2.997001 3.6807461e-18)
(1.5030334 -2.8071183 0)
(1.8593726 -2.5421195 -3.3249419e-18)
(2.3281284 -2.1232192 3.1475307e-18)
(2.8669391 -1.5546105 2.9548871e-18)
(3.5364109 -0.76159343 -5.6140939e-18)
(4.3372422 0.2735402 -2.5129069e-22)
(5.3061353 1.553841 -5.4071006e-21)
(6.4513263 2.9848081 2.3314565e-18)
(7.6427566 4.3894988 -2.1677151e-18)
(8.7656309 5.5930666 1.9973156e-18)
(9.7021127 6.4325684 -1.8352028e-18)
(10.400054 6.830007 3.3602376e-18)
(10.872625 6.7439986 -3.0337261e-18)
(11.186733 6.2159118 1.3806635e-18)
(11.434966 5.2714742 -1.2712429e-18)
(11.76179 3.9281493 2.3336857e-18)
(12.155882 2.5532819 -2.1534684e-18)
(12.692369 1.1729903 1.0112575e-18)
(13.483058 -0.025510374 -3.7545514e-21)
(14.538911 -0.78960125 -8.9911157e-19)
(15.818467 -0.95510557 8.5310278e-19)
(17.271053 -0.45488901 6.2556317e-21)
(18.78894 0.52452902 0)
(20.179084 1.6719059 0)
(21.26643 2.7016377 -6.4974171e-19)
(21.99344 3.3899252 -9.6518057e-21)
(22.397704 3.5394531 5.5889263e-19)
(22.643284 2.9522075 8.0499638e-21)
(22.828643 1.7998931 4.0400852e-19)
(23.000668 0.6281688 -8.7273357e-19)
(23.340239 -0.23924297 7.9867083e-19)
(23.98306 -0.75457108 -3.8388304e-19)
(24.731724 -0.69207189 -3.6823428e-19)
(25.545244 -0.11911819 3.50233e-19)
(26.42592 0.41761705 1.0125839e-20)
(27.306322 0.50072101 -5.8153325e-20)
(28.030483 0.19856467 1.6720033e-20)
(28.715025 -0.16472887 1.2213462e-19)
(29.436824 -0.34595223 2.8157811e-20)
(30.160095 -0.33005925 2.6224453e-20)
(30.921311 -0.26344683 3.6864468e-20)
(31.678431 -0.28374589 -6.6446211e-20)
(32.418475 -0.34666788 -2.0207775e-20)
(33.123212 -0.37729295 7.4036508e-20)
(33.83703 -0.3776349 -1.7017995e-20)
(34.520413 -0.3757021 3.1267835e-20)
(35.228211 -0.36781414 -2.8708486e-20)
(35.890867 -0.36698752 5.2818907e-20)
(36.583154 -0.35115146 2.4366257e-20)
(37.206996 -0.33655126 -2.2519279e-20)
(37.875978 -0.32597942 3.4481844e-20)
(38.455264 -0.31874167 0)
(39.125822 -0.29715602 5.402907e-20)
(39.599881 -0.29621156 1.6769976e-20)
(40.307273 -0.24936964 0)
(40.641916 -0.25167915 -5.8722179e-20)
(41.506638 -0.18349524 0)
(-1.0508826 -3.7707634 4.5711895e-22)
(-0.9721891 -3.5900119 -4.2890247e-18)
(-0.89990765 -3.4346663 4.0482103e-18)
(-0.82559127 -3.287578 -3.8332808e-18)
(-0.71124695 -3.1295295 0)
(-0.60377802 -2.9386172 -3.420724e-18)
(-0.48628696 -2.6686378 6.4889448e-18)
(-0.3320144 -2.2687771 -3.076063e-18)
(-0.12842365 -1.6984286 7.1055759e-22)
(0.14937962 -0.90808171 -1.3422957e-21)
(0.53799286 0.10308764 2.585418e-18)
(1.0963664 1.3167804 -2.4081418e-18)
(1.9279248 2.6711308 -2.2505434e-18)
(2.8803245 4.0429065 4.188402e-18)
(3.8947775 5.2512176 -1.9322341e-18)
(4.8540643 6.1099418 0)
(5.7641522 6.5380328 0)
(6.5141056 6.4783456 -1.490612e-18)
(7.1952024 5.9306301 2.7144955e-18)
(7.803761 4.9646267 -1.2506698e-18)
(8.4731865 3.6159727 -2.2572457e-21)
(9.1387295 2.2241495 0)
(9.9734483 0.80631519 3.9602394e-21)
(10.998992 -0.38894819 -4.7397152e-19)
(12.226432 -1.1438564 4.4951889e-19)
(13.647035 -1.2829348 -4.2590231e-19)
(15.244073 -0.74819953 7.8574189e-19)
(16.924102 0.27423135 -3.7253599e-19)
(18.504943 1.4779683 0)
(19.815644 2.5643987 3.154039e-19)
(20.790117 3.2945463 -5.8561626e-19)
(21.444675 3.4554154 2.7947048e-19)
(21.946615 2.8661173 -1.1891514e-20)
(22.330251 1.7207501 -6.9743249e-21)
(22.663412 0.54812103 -6.7137385e-21)
(23.153683 -0.32990455 -6.2173488e-21)
(23.869406 -0.84206194 5.8588114e-21)
(24.634391 -0.76603987 5.6103057e-21)
(25.495296 -0.19203675 -1.6526042e-19)
(26.466001 0.34087981 1.3795886e-19)
(27.432124 0.42422322 5.2758598e-20)
(28.235716 0.13146774 -2.5228528e-19)
(28.976379 -0.22538426 1.1872302e-19)
(29.728858 -0.40059023 -6.8301419e-21)
(30.473897 -0.38028897 0)
(31.251217 -0.3117017 -7.3186422e-21)
(32.019315 -0.3285477 5.3817442e-20)
(32.761207 -0.38657762 -6.8828761e-20)
(33.464292 -0.41279583 8.1112929e-20)
(34.17311 -0.40899341 -8.296081e-20)
(34.850291 -0.40408294 4.577148e-20)
(35.546384 -0.39293432 -1.4028204e-19)
(36.198337 -0.38925825 5.1653813e-20)
(36.874665 -0.37084811 -2.3851174e-20)
(37.485436 -0.35455557 -1.1616125e-24)
(38.137014 -0.34268266 -3.2860075e-20)
(38.702378 -0.33489216 0)
(39.354501 -0.3119752 1.7653937e-20)
(39.815504 -0.31075327 5.7540064e-20)
(40.502503 -0.26161474 -3.0794435e-20)
(40.829371 -0.26453382 2.5195473e-20)
(41.672515 -0.19196209 -8.06062e-22)
(-2.0785605 -3.6795216 4.3912976e-18)
(-2.1725609 -3.5077848 -2.0661639e-18)
(-2.2684847 -3.3635374 -2.3865169e-22)
(-2.366613 -3.2311537 1.8555967e-18)
(-2.4616162 -3.0838887 -1.7629227e-18)
(-2.5529086 -2.8878766 0)
(-2.6397259 -2.6066019 1.5882422e-18)
(-2.6986473 -2.2063608 -1.5020376e-18)
(-2.7114445 -1.6432557 -6.9300315e-22)
(-2.6491903 -0.87046594 0)
(-2.4918924 0.055753506 1.2483604e-18)
(-2.1653345 1.2014326 -1.1648594e-18)
(-1.7119374 2.4538665 0)
(-1.0114098 3.7424355 -1.0057684e-18)
(-0.16049956 4.8943 9.2404764e-19)
(0.74452635 5.703353 -8.5215751e-19)
(1.8616303 6.1370628 7.9425015e-19)
(2.8151463 6.0893094 7.2715476e-19)
(3.7584707 5.5489614 -1.3378086e-18)
(4.6752474 4.5635202 6.1981052e-19)
(5.619999 3.2229852 5.7784845e-19)
(6.5497639 1.8212662 -5.3575249e-19)
(7.6520463 0.39705868 5.0395456e-19)
(8.8773819 -0.79354882 1.1032302e-22)
(10.249112 -1.5333802 -8.9205617e-19)
(11.77759 -1.6483698 4.2180586e-19)
(13.475408 -1.0862448 -1.5305064e-21)
(15.273435 -0.026241207 2.8560814e-21)
(17.009836 1.2310546 0)
(18.521811 2.374947 -3.1161799e-19)
(19.729475 3.1518074 2.936453e-19)
(20.634611 3.3335628 -4.2441428e-21)
(21.381307 2.7527986 -2.4637838e-19)
(21.969851 1.6207358 2.280754e-19)
(22.477594 0.45268004 6.5958685e-21)
(23.111604 -0.42771866 9.1390038e-21)
(23.88812 -0.93529911 -5.7264978e-21)
(24.67064 -0.84694542 -1.8058141e-19)
(25.564955 -0.27514787 1.6092372e-19)
(26.603181 0.25371983 9.6102697e-21)
(27.6375 0.34091287 1.4992696e-21)
(28.50461 0.060001942 7.9323309e-21)
(29.289112 -0.28861797 0)
(30.06301 -0.45717419 6.6404543e-21)
(30.822903 -0.43229 0)
(31.609678 -0.36123528 0)
(32.382442 -0.37396392 9.9589439e-20)
(33.121552 -0.42670358 -6.7107945e-20)
(33.819272 -0.44838432 -8.7940508e-21)
(34.520484 -0.44033141 0)
(35.189106 -0.43231427 4.4752458e-20)
(35.871888 -0.41780601 -2.7461135e-20)
(36.511705 -0.41122762 0)
(37.171207 -0.39022054 0)
(37.768064 -0.37220991 1.0814394e-20)
(38.401659 -0.35900833 7.8224038e-21)
(38.952686 -0.35076648 1.7344832e-21)
(39.585803 -0.32641794 1.7327905e-20)
(40.033371 -0.32491228 -1.6135476e-20)
(40.699683 -0.27355791 7.5578703e-21)
(41.01841 -0.2770801 2.6500099e-20)
(41.83947 -0.20032505 -3.1011038e-21)
(-2.694552 -3.5783558 -2.9365629e-22)
(-2.9427879 -3.3976384 2.1270752e-18)
(-3.1687566 -3.2529158 -2.4555429e-22)
(-3.3987492 -3.1269707 1.9078251e-18)
(-3.632796 -3.005757 -3.8622931e-23)
(-3.8707558 -2.8644371 -3.8352556e-23)
(-4.1110947 -2.6708951 -1.6320093e-18)
(-4.3486564 -2.3932356 0)
(-4.5549785 -2.0266246 -1.4532e-18)
(-4.7350037 -1.4866822 1.3858747e-18)
(-4.8366601 -0.77158929 1.590586e-22)
(-4.8445147 0.11230575 -1.210319e-18)
(-4.6823714 1.1298271 -5.0711846e-22)
(-4.3111948 2.2947435 2.120246e-18)
(-3.7165162 3.4912216 -9.8142522e-19)
(-2.9554193 4.5865206 0)
(-2.167625 5.3173007 8.1695599e-19)
(-1.3034038 5.6759862 5.128835e-22)
(-0.24422778 5.6075 -7.0901473e-19)
(0.9446037 5.0669604 -6.4981009e-22)
(2.1032826 4.0909222 -3.0134924e-22)
(3.2915511 2.7652207 5.7272767e-19)
(4.48417 1.3606068 -5.3492593e-19)
(5.8188329 -0.057543369 9.8133121e-22)
(7.2231414 -1.2347509 0)
(8.7065728 -1.9514767 4.4121226e-19)
(10.29667 -2.0429573 -8.2602151e-19)
(12.037203 -1.4587217 3.8891557e-19)
(13.89637 -0.36823391 3.6110503e-19)
(15.741475 0.93637327 -3.3683143e-19)
(17.421725 2.1360171 0)
(18.84061 2.9627198 2.9056991e-19)
(19.987576 3.1749394 -2.6854639e-19)
(20.968441 2.6119074 -2.4722904e-19)
(21.76483 1.5008301 2.2920484e-19)
(22.449116 0.34456154 2.0803077e-19)
(23.211309 -0.53521602 -2.9677508e-21)
(24.038521 -1.0319235 -1.7861722e-19)
(24.83695 -0.93270171 0)
(25.748819 -0.36625125 1.2630422e-21)
(26.833049 0.15844227 0)
(27.916935 0.25248738 -1.3791387e-21)
(28.831785 -0.014634084 -6.1943523e-20)
(29.648051 -0.35352736 5.4580505e-20)
(30.434626 -0.51504002 0)
(31.202712 -0.48552573 0)
(31.99308 -0.411557 1.2519107e-20)
(32.765038 -0.4196013 -5.1155544e-21)
(33.497224 -0.46674764 -3.7454439e-20)
(34.186382 -0.48383027 -3.2236189e-20)
(34.877645 -0.47149915 3.1720234e-20)
(35.5356 -0.46025252 -2.5562956e-20)
(36.203652 -0.44232067 4.2910863e-24)
(36.830075 -0.43281345 2.4811443e-20)
(37.471981 -0.409207 0)
(38.054199 -0.38946246 -1.0618969e-20)
(38.669352 -0.37491395 -1.8663042e-20)
(39.205682 -0.36623955 -2.8304849e-22)
(39.819326 -0.34045162 8.5127731e-21)
(40.253169 -0.33863405 -3.9642237e-21)
(40.8986 -0.28519389 1.4851123e-20)
(41.208848 -0.2893091 0)
(42.007447 -0.20857887 3.7629735e-21)
(-3.2415234 -3.1081891 1.1016124e-18)
(-3.6004041 -2.959686 1.0350771e-18)
(-3.9345408 -2.850218 -9.8286376e-19)
(-4.2648696 -2.7550823 9.3596007e-19)
(-4.6004627 -2.653788 -1.782419e-18)
(-4.9416612 -2.5271789 8.4793207e-19)
(-5.2865252 -2.3512531 8.0541662e-19)
(-5.6287489 -2.100416 -7.6327609e-19)
(-5.9567696 -1.7476436 0)
(-6.2525183 -1.2574512 0)
(-6.4812184 -0.61099536 -2.3448814e-22)
(-6.6266486 0.20216009 0)
(-6.6290028 1.1096236 2.7289623e-22)
(-6.3935171 2.1622029 5.1815551e-19)
(-5.9628472 3.1949742 4.2030714e-22)
(-5.2655389 4.2294799 -4.4963929e-19)
(-4.3828821 4.9382895 -4.1127154e-19)
(-3.4447658 5.2596342 3.8024988e-19)
(-2.3677966 5.1290599 0)
(-1.2174887 4.5225027 0)
(0.14986837 3.5567517 1.504323e-22)
(1.5664776 2.2488994 -5.5981952e-22)
(3.0209611 0.84578867 -2.671621e-19)
(4.5646775 -0.55400976 4.9830538e-19)
(6.1364574 -1.7009545 6.7265015e-23)
(7.6974151 -2.3826253 -2.1667306e-19)
(9.2904393 -2.4511361 -2.0327376e-19)
(10.996832 -1.8531315 3.8122415e-19)
(12.847963 -0.74064976 7.5399107e-22)
(14.744792 0.60199011 -3.3365013e-19)
(16.550094 1.8523743 1.5512864e-19)
(18.151786 2.7299142 -1.4392571e-19)
(19.522695 2.979176 1.3293874e-19)
(20.72484 2.4444052 1.221954e-19)
(21.723414 1.3619372 -1.1239037e-19)
(22.574337 0.22438414 1.0099954e-19)
(23.445049 -0.64908709 -1.8723767e-19)
(24.310883 -1.1311772 8.7106895e-20)
(25.121516 -1.0224417 8.2431913e-20)
(26.036805 -0.46334648 -1.5857399e-19)
(27.147486 0.057246039 7.3133213e-20)
(28.263436 0.16049701 2.0388822e-20)
(29.211164 -0.091230199 5.2651454e-25)
(30.047823 -0.41920828 -5.297587e-20)
(30.839049 -0.57353524 0)
(31.609082 -0.53947521 -4.6090364e-20)
(32.397903 -0.46221567 2.1998316e-20)
(33.164346 -0.46509954 -2.0625152e-20)
(33.885957 -0.50643635 -1.8321462e-20)
(34.563899 -0.51891861 -1.5783376e-21)
(35.243049 -0.50235193 9.7139261e-22)
(35.888493 -0.48776339 -1.7906327e-20)
(36.540581 -0.46637767 2.1051821e-24)
(37.15252 -0.45393956 1.2183145e-20)
(37.776174 -0.42775009 0)
(38.343146 -0.40626576 -9.1333232e-21)
(38.939514 -0.39036148 1.7894173e-20)
(39.460849 -0.38123774 -1.9591559e-22)
(40.054664 -0.35404786 1.046622e-21)
(40.474595 -0.35193733 4.874039e-21)
(41.099025 -0.2964871 0)
(41.400501 -0.30121043 8.538176e-22)
(42.176382 -0.21670192 -2.4367294e-22)
(-3.6067181 -2.4914461 -2.7390423e-19)
(-4.026786 -2.4248649 -2.3871939e-28)
(-4.4349552 -2.3579783 -2.4302701e-19)
(-4.8429291 -2.2837648 6.9113326e-19)
(-5.2503073 -2.2047504 -2.8684206e-23)
(-5.6635981 -2.0992291 -4.1757037e-19)
(-6.081495 -1.9466714 1.9840252e-19)
(-6.4980443 -1.7256886 -1.880437e-19)
(-6.9034552 -1.4124827 0)
(-7.2790367 -0.97687788 1.6790997e-19)
(-7.5967613 -0.40005417 -3.1610381e-19)
(-7.8379212 0.3283493 2.9521614e-19)
(-7.9358619 1.1427701 -1.36011e-19)
(-7.8340959 1.9824344 -1.2764541e-19)
(-7.4902203 2.9792946 -4.2092343e-23)
(-6.9225876 3.8707573 -1.5939903e-22)
(-6.1158661 4.4974628 1.0366474e-19)
(-5.1393386 4.7655467 -9.3896515e-23)
(-3.9252137 4.6101611 0)
(-2.5856269 3.9892978 -6.1040878e-28)
(-1.1292288 2.9757986 1.5432586e-19)
(0.50540028 1.6760589 -1.4328871e-19)
(2.2078792 0.2801363 1.3308154e-19)
(3.9362759 -1.0730336 -1.8544175e-19)
(5.6395089 -2.1715382 -1.8717606e-23)
(7.2389722 -2.8033382 5.3485802e-20)
(8.7990681 -2.842722 -1.9543867e-22)
(10.416271 -2.2442263 -4.6895763e-20)
(12.178575 -1.128508 8.8070091e-20)
(14.059469 0.23874156 1.3680184e-23)
(15.938121 1.5309108 -3.8445833e-20)
(17.687652 2.4575028 3.5675809e-20)
(19.256809 2.7490693 -3.2928829e-20)
(20.659909 2.2500435 -3.0037937e-20)
(21.842075 1.2088071 2.7643564e-20)
(22.844075 0.093575572 2.5028164e-20)
(23.800751 -0.76681661 -2.293669e-20)
(24.692012 -1.2319877 2.5353843e-27)
(25.508913 -1.1149351 3.1437758e-22)
(26.416307 -0.5645263 -2.2830895e-27)
(27.537298 -0.048072756 4.2563454e-27)
(28.668954 0.066461283 4.6596885e-21)
(29.636305 -0.16863853 -2.9640699e-20)
(30.483047 -0.48482656 2.6087167e-20)
(31.271704 -0.6320367 -2.4689489e-20)
(32.037953 -0.59364275 1.0718274e-20)
(32.820739 -0.51279989 2.3511492e-21)
(33.577639 -0.5101334 6.1175456e-22)
(34.285553 -0.54552365 -2.6304859e-25)
(34.950083 -0.55345389 -8.7712909e-21)
(35.615148 -0.53271136 -9.5322932e-22)
(36.246487 -0.51472238 -7.0328236e-21)
(36.881558 -0.48988481 6.4892787e-21)
(37.478091 -0.47453626 0)
(38.082959 -0.44579744 0)
(38.634198 -0.4225771 -1.2839454e-21)
(39.211547 -0.40531669 -1.7253685e-21)
(39.717654 -0.39572386 5.9221523e-23)
(40.291413 -0.36718193 -1.0303628e-21)
(40.697344 -0.36482854 -1.9194261e-21)
(41.300724 -0.30743136 -1.820597e-25)
(41.59319 -0.3127745 8.4026312e-22)
(42.34621 -0.22466717 0)
(-3.7731444 -1.7935983 -5.4520774e-19)
(-4.2389263 -1.7945799 2.3923995e-28)
(-4.6884396 -1.7847319 -2.4316479e-19)
(-5.1276572 -1.7657838 4.5966779e-19)
(-5.5696259 -1.7201935 -2.5511801e-23)
(-6.0183965 -1.6412937 5.2640616e-23)
(-6.4744746 -1.5154486 2.8491278e-24)
(-6.9334644 -1.3254761 -1.8700268e-19)
(-7.3862515 -1.0504394 0)
(-7.8144341 -0.66839281 1.6672622e-19)
(-8.18879 -0.15580733 -3.1426724e-19)
(-8.4801533 0.50285811 2.8997224e-19)
(-8.623542 1.1598315 -1.3360659e-19)
(-8.6155164 1.8703137 -1.2693668e-19)
(-8.3670423 2.7449631 -3.8770135e-23)
(-7.8753877 3.5269685 -1.5405895e-22)
(-7.1180603 4.0605016 2.0733577e-19)
(-6.1265242 4.2395991 -9.5169632e-20)
(-4.8636969 4.0171084 0)
(-3.370353 3.3633232 8.0578955e-23)
(-1.7208685 2.3514073 -1.5080601e-22)
(0.12856718 1.0524219 7.1684708e-20)
(2.0326284 -0.31742308 3.0911276e-23)
(3.9149585 -1.6227234 -1.2297155e-19)
(5.6897024 -2.6575438 -2.0754548e-23)
(7.2857236 -3.2295534 5.3088629e-20)
(8.7761592 -3.2347417 0)
(10.279306 -2.6193382 -4.6226345e-20)
(11.91436 -1.5102612 8.7011541e-20)
(13.71443 -0.14067024 1.3445086e-23)
(15.609891 1.1802794 -7.622771e-20)
(17.465729 2.1509797 -8.4877104e-24)
(19.1985 2.4855011 -5.1201919e-24)
(20.769628 2.039817 2.2916261e-22)
(22.116617 1.0398806 -1.2066263e-24)
(23.243359 -0.044293405 4.9232911e-20)
(24.26381 -0.88591113 3.5401573e-22)
(25.167694 -1.3329834 -2.0477585e-20)
(25.98316 -1.2089641 0)
(26.874021 -0.66814966 2.2250452e-27)
(27.992431 -0.1557775 -1.7448647e-20)
(29.125168 -0.028381002 8.9973211e-21)
(30.100599 -0.24581057 -2.8602979e-20)
(30.94843 -0.54963029 1.2999782e-20)
(31.728143 -0.68996185 2.882353e-27)
(32.485449 -0.64756524 0)
(33.258299 -0.56293828 2.0882338e-21)
(34.002248 -0.55440688 -9.6003044e-21)
(34.693883 -0.58379177 5.5047661e-22)
(35.343137 -0.58726763 -8.1061249e-21)
(35.992378 -0.56243143 7.4922885e-21)
(36.608269 -0.5410176 -6.9133624e-21)
(37.225453 -0.51275896 6.3830601e-21)
(37.805826 -0.49454082 0)
(38.391502 -0.46330217 6.824056e-22)
(38.926639 -0.4383587 -1.2645202e-21)
(39.484847 -0.41974919 1.6731381e-21)
(39.975561 -0.40966247 4.4592109e-27)
(40.529168 -0.37983307 -3.0454202e-21)
(40.92108 -0.37725688 -9.4567166e-22)
(41.503458 -0.3180174 1.7702224e-21)
(41.786736 -0.32399284 8.2766352e-22)
(42.516855 -0.23244763 0)
(-3.7512288 -1.062933 0)
(-4.2227895 -1.1397822 0)
(-4.6791849 -1.1868363 -9.7481378e-19)
(-5.1308471 -1.2061607 9.2531436e-19)
(-5.5841476 -1.1946317 2.684872e-23)
(-6.0424333 -1.1466616 -5.1025486e-23)
(-6.5068106 -1.0528323 -1.9364951e-22)
(-6.9742016 -0.9003825 0)
(-7.4359221 -0.67432897 7.0778522e-19)
(-7.8759335 -0.3556739 -1.1781279e-22)
(-8.2651906 0.070116765 -6.2849062e-19)
(-8.5629299 0.59714542 2.1568915e-22)
(-8.7422604 1.2062591 -2.64506e-22)
(-8.7653095 1.8164834 2.434269e-22)
(-8.5949775 2.5254458 0)
(-8.1445132 3.1846599 1.0857827e-22)
(-7.411082 3.6104404 5.0458072e-22)
(-6.384261 3.7247373 -4.645743e-22)
(-5.0646668 3.436153 0)
(-3.4461518 2.7377872 3.3169463e-19)
(-1.6393852 1.6910818 -3.0995237e-19)
(0.40960116 0.3901722 -5.6064788e-22)
(2.4533198 -0.93519304 -2.6513064e-19)
(4.4636676 -2.1767257 2.4466589e-19)