/*--------------------------------*- C++ -*----------------------------------*\
| =========                 |                                                 |
| \\      /  F ield         | OpenFOAM: The Open Source CFD Toolbox           |
|  \\    /   O peration     | Version:  2406                                  |
|   \\  /    A nd           | Website:  www.openfoam.com                      |
|    \\/     M anipulation  |                                                 |
\*---------------------------------------------------------------------------*/
FoamFile
{
    version     2.0;
    format      ascii;
    arch        "LSB;label=32;scalar=64";
    class       volScalarField;
    location    "0.028";
    object      alphat;
}
// * * * * * * * * * * * * * * * * * * * * * * * * * * * * * * * * * * * * * //

dimensions      [1 -1 -1 0 0 0 0];

internalField   nonuniform List<scalar> 
35803
(
0.045282766
0.049754431
0.05499652
0.060955018
0.067624994
0.074978578
0.082949836
0.091430961
0.10025771
0.10915595
0.1176525
0.12504142
0.13025011
0.13171396
0.12719622
0.11385401
0.088688036
0.05258523
0.023433199
0.01163114
0.0085768665
0.0072847074
0.0066075434
0.0061498222
0.0057933962
0.0054872312
0.0053106663
0.0050878596
0.0050301049
0.0049077591
0.0048524537
0.051062917
0.055582224
0.060676614
0.066408851
0.072806102
0.079852077
0.08748546
0.095595822
0.10401644
0.11246126
0.12045871
0.12727538
0.13182185
0.13251103
0.12709181
0.11273552
0.086641884
0.05036666
0.021864193
0.011310516
0.0084628456
0.0072322568
0.0065781997
0.0061305809
0.0057800435
0.0054802975
0.0053064993
0.0050856881
0.0050286166
0.004907503
0.0048525933
0.057840276
0.062241052
0.067153947
0.072640305
0.0787354
0.085431153
0.092672637
0.10035168
0.10829203
0.11620203
0.12359831
0.12973543
0.13349977
0.13327946
0.12680978
0.11128361
0.084116669
0.047659408
0.020436407
0.010957971
0.0084005279
0.0071998545
0.0065595164
0.0061169511
0.0057720037
0.0054758183
0.0053042237
0.0050836777
0.0050276837
0.0049074148
0.0048527558
0.065758725
0.069925667
0.074578342
0.079760671
0.085500713
0.091789372
0.098572953
0.10574298
0.11311648
0.12039348
0.12707939
0.13241038
0.13525018
0.13395999
0.12626279
0.1093832
0.080992114
0.044421762
0.019033579
0.010632633
0.0083071208
0.007149025
0.0065296348
0.006095986
0.0057609381
0.0054687205
0.0053002118
0.0050815247
0.0050264138
0.0049073122
0.0048529508
0.074908033
0.078765821
0.083079851
0.08788322
0.093195773
0.099002949
0.1052475
0.11181707
0.11852102
0.12504761
0.13088974
0.13526335
0.13700855
0.13445766
0.1253239
0.10687704
0.077111406
0.040622837
0.017611545
0.010302257
0.0082151976
0.0070991856
0.0065002423
0.0060745836
0.0057497003
0.0054617677
0.0052964932
0.0050790083
0.0050253282
0.0049071879
0.0048531891
0.085328288
0.088807087
0.092714054
0.097062655
0.10186626
0.10710429
0.11271369
0.11857524
0.1244879
0.13012529
0.13496483
0.13820206
0.13865136
0.13461508
0.12380236
0.10354756
0.072278803
0.03628812
0.016167971
0.0099907315
0.0081070427
0.0070378977
0.0064632764
0.0060477925
0.0057343899
0.0054530534
0.0052915191
0.0050760206
0.005023983
0.0049070461
0.0048534837
0.096977472
0.1000032
0.10344348
0.1072651
0.11147556
0.11604844
0.12091387
0.12594359
0.13092364
0.13551049
0.13916284
0.14105439
0.13997189
0.13418818
0.12141971
0.099096631
0.066259953
0.031501978
0.014729082
0.0096974113
0.0079910099
0.0069722893
0.0064233579
0.0060184592
0.0057185412
0.0054437702
0.0052862707
0.0050728379
0.0050227787
0.004906872
0.0048538465
0.10964923
0.11219014
0.11509823
0.11832022
0.12185239
0.12565973
0.12966351
0.13372412
0.13761235
0.14096524
0.14321961
0.14352464
0.14063804
0.132806
0.11777297
0.093121269
0.058801916
0.02647657
0.013339497
0.0093966342
0.0078593956
0.0068960457
0.006375797
0.0059834237
0.0057000305
0.0054330824
0.0052794589
0.0050690799
0.0050213056
0.0049066624
0.0048542855
0.12294671
0.12497108
0.12729127
0.12984397
0.13261322
0.13555262
0.13857147
0.14151589
0.14413886
0.14605531
0.14667684
0.14512485
0.1401274
0.12991098
0.11228226
0.085091271
0.049716526
0.022247519
0.012080887
0.0091137237
0.0077164873
0.0068129684
0.0063231083
0.0059437381
0.0056798095
0.0054215857
0.0052717272
0.0050647785
0.005019372
0.0049063794
0.0048548091
0.13615842
0.13762924
0.13930747
0.14112245
0.14304436
0.14501251
0.14692063
0.14859706
0.1497734
0.15003891
0.14877579
0.14507411
0.13763367
0.12467669
0.10413366
0.074334187
0.03907842
0.018327255
0.010956329
0.0088228063
0.0075566006
0.0067183737
0.0062624781
0.0058959285
0.0056556899
0.0054087524
0.0052629608
0.0050599687
0.0050166963
0.004905961
0.0048554323
0.14802419
0.1489127
0.14989847
0.15091186
0.15190858
0.1528097
0.15348885
0.1537522
0.15330549
0.15170752
0.14830624
0.14215681
0.13193748
0.11590066
0.09221176
0.060113681
0.028285087
0.014871386
0.010044695
0.0085445498
0.0073845305
0.0066148486
0.0061956572
0.0058426352
0.0056280471
0.0053952755
0.005254719
0.0050547561
0.0050134998
0.004905317
0.004856178
0.15645502
0.15676945
0.15703928
0.15720293
0.15720924
0.1569625
0.15631316
0.15504028
0.152818
0.14916928
0.14340195
0.13453244
0.12123962
0.10188983
0.075072713
0.042082708
0.020758087
0.012277654
0.0095675014
0.0082540015
0.0071962086
0.0064992756
0.006119408
0.0057836957
0.0055938593
0.0053806168
0.0052458897
0.0050491599
0.0050092817
0.0049043708
0.0048568838
0.15823122
0.15793381
0.15747254
0.15678795
0.15579271
0.15436797
0.15234247
0.14946533
0.14537623
0.13956032
0.13127651
0.11949309
0.10297244
0.080424047
0.051185975
0.025895676
0.014883458
0.010345341
0.0089424693
0.0079358336
0.0069975091
0.0063765453
0.0060344873
0.0057191615
0.0055530259
0.0053616075
0.0052358948
0.0050430026
0.0050032907
0.0049029576
0.0048576187
0.14825043
0.14735368
0.14617375
0.14466108
0.14271644
0.14018671
0.13686165
0.13245311
0.12656793
0.11866169
0.10789671
0.093132433
0.073652442
0.049720191
0.029301548
0.016751186
0.011314662
0.009504454
0.0085599086
0.0076328178
0.0067913358
0.0062489304
0.0059364392
0.005649921
0.005505921
0.0053379009
0.0052214387
0.0050359133
0.0049969775
0.0049009913
0.0048583657
0.1189018
0.11754984
0.11583008
0.11367853
0.11096737
0.10752809
0.10313223
0.097473062
0.090182003
0.080864823
0.069509179
0.056511749
0.04201568
0.027717043
0.016990376
0.011740654
0.0097402437
0.0088426152
0.0079760398
0.0072760784
0.0065963839
0.0061089525
0.0058260886
0.0055793772
0.0054546596
0.0053105712
0.0052050629
0.005027327
0.0049896138
0.0048984409
0.0048590965
0.075319696
0.074104509
0.072625776
0.070840731
0.068615759
0.065794416
0.062252559
0.057824853
0.052354928
0.045739042
0.037997971
0.029843757
0.022146742
0.015580944
0.011272718
0.0097345415
0.0090635799
0.0082384864
0.0075730614
0.007008417
0.006417218
0.0059704073
0.0057015215
0.0055071116
0.0053978679
0.0052773892
0.0051864821
0.0050167585
0.0049803799
0.0048952887
0.0048597681
0.038342472
0.037804009
0.037071734
0.036125248
0.034912745
0.033367426
0.031469142
0.029106687
0.026233244
0.022890698
0.01921933
0.015580039
0.012497676
0.01025334
0.0090422653
0.0089650736
0.0081177319
0.0076156418
0.0070881307
0.0066821504
0.0062536247
0.0058167988
0.0055814509
0.0054342544
0.0053366266
0.0052414587
0.0051641671
0.0050043161
0.0049692675
0.0048917178
0.0048603541
0.01829868
0.018178157
0.017928191
0.017540437
0.017018063
0.016358459
0.015578795
0.014634632
0.013508411
0.012215131
0.010827525
0.0095261607
0.00868921
0.008311915
0.0083361219
0.0077648441
0.0075553948
0.0072124644
0.0067071777
0.0064748654
0.0060455598
0.0057029461
0.0054609558
0.0053547174
0.0052732736
0.0052067019
0.0051379365
0.0049905506
0.004957366
0.0048901866
0.0048608917
0.0100211
0.0099981298
0.00993121
0.0098167241
0.009657924
0.0094362422
0.0091665657
0.0088759292
0.008562686
0.0082182808
0.0079304296
0.0077370349
0.0075781744
0.0074910455
0.0071180505
0.0069404977
0.0066682021
0.0065460134
0.0063312818
0.0060966439
0.0058380033
0.0055653201
0.0053451371
0.0052785867
0.0052123673
0.0051742239
0.0051083123
0.0049763597
0.004945457
0.0048899823
0.0048614422
0.0071710927
0.0071508388
0.0071307948
0.0071172684
0.0071145999
0.0071227007
0.0070948751
0.0070436681
0.0070027218
0.0069175561
0.006836581
0.0066905925
0.0066417172
0.0064983412
0.006472034
0.0062793856
0.0062488079
0.0061452029
0.0058876737
0.0058281557
0.0056727151
0.0054042776
0.0052182068
0.0052253274
0.0051557889
0.0051344052
0.0050808736
0.0049632136
0.004935313
0.0048902453
0.0048618356
0.0064737468
0.0064679686
0.0064645161
0.0064498494
0.0064273081
0.006408162
0.0063978939
0.0063875125
0.0063574446
0.0063013146
0.0061926771
0.0061153432
0.0060600496
0.0060164975
0.0058871849
0.0059271539
0.0057500653
0.0057016267
0.0056597423
0.0055336196
0.0054161806
0.0052819495
0.0051460298
0.0051726717
0.0050969639
0.0050932967
0.0050535157
0.0049520958
0.0049290475
0.0048906707
0.0048578403
0.00585208
0.0058367842
0.0058225504
0.0058191831
0.0058253554
0.0058225711
0.0058118815
0.0057971212
0.0057801052
0.005760385
0.0057309348
0.0057294709
0.0056887064
0.0056273687
0.00556554
0.0055521997
0.0055033914
0.0054427243
0.0053647985
0.0053458963
0.0053152029
0.005209016
0.0050677178
0.0051000589
0.0050475486
0.0050541568
0.0050249036
0.0049427839
0.0049257874
0.0048922554
0.0048590754
0.0055059642
0.0055085655
0.0055136711
0.0055176451
0.0055163289
0.0055132058
0.0055114793
0.0055092409
0.0055015099
0.0054817558
0.0054460363
0.0054074405
0.0053891219
0.005369335
0.0053856309
0.0053261941
0.0052448788
0.0052400209
0.005206682
0.0051830659
0.0052030966
0.0051254524
0.0050240344
0.0050097777
0.0050129396
0.0050149196
0.0049970093
0.0049334687
0.0049223171
0.0048939273
0.0048608343
0.00525942
0.0052559659
0.0052507357
0.005243486
0.0052402363
0.0052384838
0.0052354903
0.0052314256
0.0052262543
0.0052204288
0.0052145491
0.0052198075
0.0052172764
0.0052155133
0.0051797564
0.0051799133
0.0051322459
0.005124722
0.0051227866
0.0050776001
0.0050824579
0.0050670122
0.0049783758
0.0049485789
0.0049871537
0.004969706
0.0049748909
0.0049204064
0.0049149965
0.0048880661
0.0048621579
0.0050863449
0.0050865745
0.005087183
0.0050891113
0.0050915136
0.0050941987
0.0050972261
0.0050994472
0.0050990361
0.0050944853
0.0050820469
0.0050600105
0.0050475298
0.0050361836
0.005030901
0.0050246032
0.0050284773
0.0050259044
0.0050314635
0.0049950857
0.0050100276
0.0049803148
0.0049495118
0.004914702
0.0049490114
0.0049454125
0.0049540064
0.0049082416
0.0049028238
0.0048849366
0.0048622844
0.0049857195
0.0049853512
0.0049843892
0.0049828289
0.0049810384
0.0049791548
0.0049773217
0.004975426
0.0049743722
0.0049739692
0.0049723918
0.0049706502
0.0049662783
0.00496186
0.0049566682
0.0049568183
0.0049551295
0.0049586435
0.004955673
0.0049304721
0.004949272
0.004940189
0.0049179918
0.0048964288
0.0049143211
0.0049264229
0.0049314596
0.0048978522
0.0048917074
0.0048828715
0.0048652242
0.0049264405
0.0049264817
0.0049262544
0.004925851
0.0049255418
0.0049254635
0.0049258292
0.0049271522
0.0049291767
0.0049307585
0.0049305982
0.0049274326
0.0049215022
0.0049171264
0.0049162877
0.0049141099
0.0049200285
0.004918548
0.0049192037
0.0049075163
0.0049122047
0.0049212075
0.0049012123
0.004886418
0.0048950226
0.0049048641
0.0049103667
0.0048894067
0.0048829537
0.0048766542
0.0048665588
0.0048974485
0.0048973548
0.0048970919
0.0048967129
0.0048963244
0.0048959434
0.0048955194
0.00489542
0.0048954513
0.0048952718
0.0048947133
0.0048935464
0.0048921004
0.0048921177
0.004892659
0.0048936162
0.0048942044
0.0048971529
0.0048940779
0.0048974282
0.0048957868
0.0049130313
0.0048935415
0.0048831347
0.0048853538
0.0048912226
0.0048937348
0.0048827818
0.0048775889
0.0048736428
0.0048672903
0.0048848761
0.0048847671
0.004884645
0.0048845123
0.004884386
0.004884289
0.004884237
0.0048842155
0.0048842105
0.004884176
0.0048837128
0.0048828879
0.0048821107
0.0048820526
0.0048824457
0.0048835717
0.0048849483
0.0048864823
0.0048851506
0.0048851701
0.0048860872
0.0048907985
0.0048891026
0.0048789651
0.0048821362
0.0048824485
0.0048850871
0.0048798663
0.0048750589
0.0048715613
0.0048689521
0.0048795578
0.0048794493
0.0048793243
0.0048791805
0.0048790387
0.0048789309
0.0048788946
0.0048789534
0.0048790657
0.0048791737
0.0048791044
0.0048788538
0.0048785919
0.0048784658
0.0048785813
0.004879358
0.0048808437
0.0048818279
0.004881424
0.0048808477
0.0048805208
0.0048810891
0.0048827668
0.0048804623
0.0048797081
0.0048779211
0.0048796262
0.0048752055
0.0048702573
0.0048713546
0.0048699346
0.0048802066
0.0048801649
0.004880087
0.0048799707
0.0048798215
0.0048796533
0.0048794794
0.0048793114
0.0048791745
0.0048790625
0.0048789512
0.0048788184
0.0048786642
0.0048785197
0.0048784049
0.0048782623
0.0048781014
0.0048776412
0.0048769095
0.0048769467
0.0048772399
0.0048768554
0.0048757289
0.0048803088
0.0048750769
0.0048748702
0.0048746187
0.0048739008
0.0048718023
0.0048720223
0.0048700573
0.0025398214
0.0022902484
0.002364726
0.0028815848
0.0041305619
0.007135573
0.011669717
0.017453993
0.024398002
0.032827314
0.042772844
0.053551677
0.065436628
0.077826316
0.089604655
0.098950745
0.10299001
0.097381066
0.077906508
0.047856428
0.0223414
0.010897146
0.0077075759
0.006724346
0.0061594467
0.0056967712
0.0054143207
0.0051812427
0.0051052018
0.0049143043
0.0048489065
0.0022440235
0.0021470026
0.0025123584
0.0032576575
0.0055212385
0.0092671393
0.014101712
0.019936481
0.026920532
0.035497002
0.04532005
0.056052803
0.067832863
0.080000457
0.091403654
0.10017094
0.10338307
0.096682626
0.076132581
0.045739282
0.021031286
0.010528638
0.0076018939
0.0066899405
0.0061417076
0.0056883971
0.0054094379
0.0051780806
0.0051035015
0.0049138476
0.0048488587
0.0020238075
0.0021756333
0.0026299966
0.0039993624
0.0068908216
0.010960893
0.016002558
0.022015357
0.029207034
0.037961744
0.04770238
0.058446488
0.070138456
0.08208705
0.093111118
0.10129416
0.10367772
0.095895454
0.074310096
0.043679484
0.01987606
0.010179801
0.0075380116
0.0066674339
0.0061296429
0.0056833271
0.0054060895
0.0051756564
0.0051020405
0.0049133962
0.0048488065
0.0019276487
0.0022574867
0.0030132852
0.0051654256
0.0084760737
0.012739254
0.017906976
0.024053769
0.031447235
0.040303478
0.050006783
0.060772146
0.072373842
0.084098848
0.094736897
0.10232904
0.10388121
0.095024249
0.072446814
0.041678224
0.01882909
0.0098753509
0.0074711508
0.0066418459
0.0061155652
0.0056768585
0.0054021147
0.0051729506
0.0051005468
0.0049129512
0.0048487555
0.0019573677
0.0023985626
0.0039081825
0.0065477676
0.010109968
0.014514062
0.019803908
0.026090848
0.033713648
0.042547512
0.052271416
0.06304873
0.074550908
0.086044376
0.096288009
0.1032819
0.10399922
0.094073848
0.070551719
0.039736064
0.017866163
0.009603573
0.0074135256
0.0066187405
0.0061025664
0.0056709807
0.0053984931
0.005170444
0.0050991274
0.0049125222
0.0048487072
0.0020093665
0.003012954
0.0050788719
0.0080285194
0.011760972
0.016292328
0.021705442
0.028148859
0.035940562
0.044734623
0.054509408
0.065284066
0.076675048
0.087927458
0.097767567
0.1041558
0.10403518
0.093048076
0.068633298
0.037854885
0.016975737
0.0093605634
0.0073601421
0.0065960218
0.0060894192
0.0056647569
0.0053947719
0.0051678814
0.0050977113
0.0049121097
0.0048486618
0.0023795271
0.0039849492
0.0064096266
0.0095584918
0.013425021
0.018077512
0.02361251
0.030227499
0.038126749
0.046900964
0.056725849
0.067481234
0.078748957
0.08975034
0.099177768
0.10495331
0.10399223
0.09195153
0.06669903
0.036037617
0.016152289
0.0091434422
0.0073116021
0.0065744493
0.0060766146
0.0056585206
0.005391162
0.0051653713
0.0050963246
0.0049117145
0.0048486201
0.0032015717
0.0051762151
0.0078163443
0.011106045
0.015094584
0.01986689
0.025528573
0.032335495
0.040244893
0.049056013
0.058920316
0.069641169
0.080774182
0.091514729
0.10052065
0.10567703
0.1038736
0.090788694
0.064755722
0.034287732
0.015392637
0.0089498692
0.0072669748
0.0065537018
0.0060639512
0.0056520588
0.0053875653
0.0051628436
0.0050949461
0.0049113366
0.0048485831
0.0042087768
0.0064299013
0.0092382611
0.012659454
0.016768282
0.021659193
0.027460869
0.034413974
0.042319553
0.051199564
0.061090845
0.071763837
0.082751558
0.093221905
0.10179805
0.10632952
0.10368281
0.089563471
0.062808868
0.032608932
0.014694313
0.0087779998
0.0072259207
0.0065338786
0.0060515372
0.0056454393
0.0053840399
0.0051603224
0.0050935805
0.0049109754
0.0048485525
0.0053670501
0.0077662214
0.010695052
0.014223738
0.018444448
0.02345139
0.029412368
0.036453196
0.044385331
0.053330297
0.063235129
0.073848724
0.084681465
0.094872843
0.10301162
0.10691328
0.10342362
0.08828076
0.060862974
0.031004698
0.014054927
0.0086268494
0.0071879725
0.0065149101
0.0060393738
0.005638649
0.0053805781
0.005157791
0.0050922166
0.0049106277
0.0048485298
0.0066000043
0.0091095716
0.012141032
0.015780457
0.020117188
0.025246021
0.031369681
0.038459221
0.046443907
0.055443687
0.065350824
0.075895115
0.086564039
0.096468367
0.10416299
0.10743093
0.10309947
0.086946891
0.058923874
0.029486408
0.013471933
0.0084975201
0.0071527537
0.0064967874
0.0060275305
0.005631765
0.0053772129
0.0051552575
0.0050908451
0.0049102901
0.004848516
0.0078340575
0.010444328
0.013583133
0.017335704
0.021787557
0.027047394
0.03330872
0.040423831
0.048488888
0.057535891
0.067435945
0.077902248
0.088399314
0.098009256
0.10525381
0.10788523
0.1027142
0.085567761
0.056996925
0.028055275
0.012941815
0.0083835114
0.0071198858
0.0064794687
0.0060160556
0.0056248665
0.0053739691
0.0051527211
0.005089444
0.0049099587
0.0048485108
0.0090665446
0.01177656
0.015022622
0.018886968
0.023451384
0.028858337
0.035196053
0.042375215
0.050519018
0.059604082
0.069488791
0.079869384
0.09018731
0.099496313
0.10628581
0.10827903
0.10227215
0.084150173
0.055087254
0.026701639
0.01246115
0.0082818788
0.0070891445
0.0064629194
0.0060049931
0.0056180508
0.0053708757
0.0051501929
0.005087981
0.0049096305
0.0048485132
0.010288755
0.01310092
0.016455119
0.02043088
0.025110935
0.030661686
0.037051373
0.044317183
0.0525306
0.061645671
0.071507873
0.081795851
0.091928092
0.10093041
0.10726082
0.10861515
0.10177766
0.082700289
0.053203991
0.025423952
0.012026845
0.0081914666
0.0070602961
0.0064470975
0.0059943527
0.0056113935
0.0053679563
0.0051476907
0.0050864076
0.0049093053
0.0048485249
0.011501159
0.014416405
0.017878298
0.02196467
0.026768326
0.032441653
0.038890516
0.046244498
0.054520044
0.06365851
0.073491903
0.083681071
0.093621805
0.10231253
0.10818082
0.10889665
0.10123508
0.081224244
0.051354732
0.024222803
0.011635872
0.0081107584
0.0070331347
0.0064319643
0.005984114
0.0056049395
0.0053652365
0.0051452348
0.0050846624
0.0049089839
0.0048485487
0.012701173
0.015719578
0.019288752
0.023484152
0.028426974
0.034180318
0.040717039
0.048152998
0.056484627
0.06564083
0.075439773
0.085524575
0.095268701
0.10364377
0.10904791
0.10912681
0.10064915
0.079728323
0.049546483
0.023098896
0.011285201
0.008038555
0.007007477
0.0064174821
0.0059742385
0.0055987006
0.0053627313
0.0051428447
0.005082683
0.0049086695
0.0048485852
0.013885479
0.017007212
0.020684066
0.024992363
0.030066202
0.035890794
0.042524286
0.050039226
0.05842219
0.067591121
0.077350527
0.087326017
0.096869153
0.10492537
0.10986444
0.10930904
0.10002524
0.078218932
0.047785579
0.022052431
0.010971786
0.00797374
0.0069831576
0.0064036166
0.0059646944
0.0055926731
0.0053604515
0.0051405489
0.0050804306
0.004908369
0.0048486346
0.015050585
0.01827639
0.022061452
0.026489919
0.031675866
0.037579779
0.044310601
0.051901018
0.06033097
0.06950807
0.079223343
0.08908517
0.098423663
0.10615872
0.11063293
0.10944689
0.099368654
0.076702735
0.046077582
0.021083011
0.010692612
0.0079154306
0.0069600321
0.0063903367
0.0059554729
0.0055868572
0.0053583803
0.005138367
0.0050779222
0.0049080912
0.0048486974
0.016193642
0.019524959
0.023418567
0.027976716
0.033248653
0.039251418
0.046074535
0.053736506
0.062209411
0.07139051
0.081057527
0.090801932
0.099932858
0.10734534
0.11135585
0.1095439
0.098684099
0.075186468
0.044427306
0.020189597
0.010444722
0.0078627752
0.0069379737
0.0063776158
0.005946585
0.0055812669
0.0053564256
0.005136296
0.0050752523
0.0049078489
0.0048487745
0.017313407
0.020751914
0.024757475
0.029438325
0.034796339
0.040901671
0.047813934
0.055543972
0.064056111
0.073237402
0.082852499
0.092476316
0.10139749
0.10848689
0.11203541
0.10960345
0.097976102
0.073676594
0.042838871
0.019370487
0.010225259
0.0078149074
0.0069168814
0.0063654319
0.0059380443
0.0055759207
0.0053544443
0.0051343051
0.0050725819
0.0049076536
0.0048488662
0.018408838
0.021955778
0.026078998
0.030869128
0.036321991
0.042528601
0.04952708
0.057321873
0.06586979
0.075047808
0.084607781
0.094108445
0.10281844
0.10958523
0.11267475
0.10962913
0.097248484
0.072179185
0.041315749
0.018623374
0.01003151
0.0077711748
0.0068966795
0.0063537673
0.0059298571
0.0055708274
0.0053524124
0.0051323409
0.0050700822
0.0049074979
0.004848972
0.019480165
0.023136112
0.027381983
0.032267967
0.03782595
0.044130578
0.051212433
0.059068786
0.067649267
0.076820881
0.086322986
0.095698543
0.10419672
0.1106424
0.1132769
0.10962515
0.096505107
0.0706999
0.039860735
0.017945475
0.0098609394
0.0077310709
0.0068773122
0.0063426056
0.0059220263
0.0055659833
0.0053504543
0.005130408
0.0050678575
0.0049073389
0.0048490904
0.020528152
0.024294386
0.028658995
0.033641709
0.039305558
0.045705908
0.052868586
0.06078336
0.069393434
0.078555848
0.087997802
0.09724694
0.10553349
0.11166018
0.11384486
0.10959622
0.095750171
0.069244643
0.038475938
0.017337275
0.0097112214
0.0076941554
0.0068587429
0.0063319292
0.0059145539
0.0055613778
0.0053486111
0.0051285763
0.0050658964
0.004907183
0.0048492195
0.021553751
0.025431659
0.029908161
0.034991652
0.040759609
0.047253203
0.054494283
0.062464297
0.071101247
0.080251987
0.089631986
0.098754114
0.10683016
0.11264078
0.11438179
0.10954673
0.094989119
0.067817179
0.03716313
0.016793571
0.0095801683
0.0076600669
0.0068409483
0.0063217155
0.005907432
0.0055569947
0.0053468616
0.0051268686
0.0050640953
0.0049070398
0.0048493567
0.022557711
0.026550506
0.031127863
0.036317976
0.042187067
0.048771096
0.056086772
0.064110327
0.072771706
0.081908615
0.091225392
0.10022078
0.10808789
0.11358626
0.11489124
0.10948117
0.094228454
0.066421327
0.035924026
0.016306772
0.0094658488
0.0076285074
0.0068239131
0.0063119331
0.0059006403
0.00555281
0.0053452125
0.005125275
0.0050623476
0.0049069289
0.0048494988
0.023542172
0.027646491
0.032323735
0.037619201
0.043586863
0.050258309
0.057643043
0.065720391
0.074403864
0.083525129
0.092778068
0.10164778
0.10930766
0.11449873
0.11537655
0.1094041
0.093474049
0.065061054
0.034760207
0.015872703
0.0093667356
0.0075992346
0.0068076228
0.0063025384
0.0058941491
0.0055487934
0.0053436674
0.0051237968
0.0050606254
0.0049068485
0.0048496429
0.024508638
0.02872014
0.033496681
0.038894737
0.044958167
0.051714273
0.059166003
0.067293721
0.075996885
0.085101157
0.094290246
0.10303424
0.11049062
0.11538176
0.11584119
0.10932006
0.092731189
0.063740067
0.033672873
0.015488177
0.0092818948
0.0075720534
0.0067920585
0.0062934746
0.005887919
0.0055449127
0.0053422253
0.0051224301
0.0050589628
0.0049067689
0.0048497859
0.025458761
0.029771808
0.034647162
0.040144057
0.04629995
0.053137983
0.060657333
0.068829371
0.077550058
0.086636717
0.095761266
0.1043807
0.11163922
0.11623711
0.11628866
0.10923362
0.092004859
0.062461682
0.032662651
0.015150316
0.00921159
0.0075468085
0.006777193
0.0062846721
0.0058819081
0.0055411379
0.005340853
0.0051211742
0.0050573719
0.0049067062
0.0048499246
0.026394625
0.030802237
0.035774771
0.041366461
0.047611155
0.054527813
0.062111334
0.070323597
0.079062892
0.088131295
0.097190239
0.10568817
0.1127542
0.11706701
0.11672249
0.10914931
0.091299844
0.061228977
0.031729618
0.014856337
0.0091512557
0.0075233737
0.0067629918
0.0062760506
0.0058760762
0.005537442
0.0053395229
0.0051199849
0.0050558279
0.0049066381
0.0048500575
0.027316574
0.031813291
0.036878952
0.04256125
0.048890843
0.055882797
0.063527284
0.071776814
0.080534279
0.089581618
0.098576992
0.10695881
0.1138369
0.1178739
0.11714618
0.10907165
0.090620765
0.060044814
0.030873418
0.014603904
0.0091000197
0.0075016637
0.0067494185
0.0062675309
0.0058704016
0.005533792
0.0053381552
0.0051188043
0.0050543228
0.0049065709
0.0048501844
0.028224818
0.032806222
0.037959874
0.043728078
0.050138411
0.057202449
0.064906269
0.073194887
0.081958675
0.090987271
0.099923803
0.10819204
0.11488877
0.11866017
0.11756319
0.10900513
0.089972133
0.058911858
0.030093338
0.014391554
0.0090558199
0.0074812853
0.0067364413
0.0062590484
0.0058648677
0.0055301743
0.0053366222
0.0051175648
0.0050528816
0.0049065187
0.0048503053
0.029120563
0.033781737
0.039017903
0.044867332
0.051354291
0.058486137
0.066243893
0.07456659
0.083336618
0.09235065
0.10122889
0.10938804
0.11591116
0.11942812
0.11797693
0.10895428
0.08935838
0.057832555
0.029397595
0.014207731
0.0090102372
0.0074620598
0.0067240396
0.0062505672
0.0058594707
0.0055265787
0.0053347996
0.0051161621
0.0050515124
0.0049064878
0.0048504204
0.03000725
0.034742332
0.040054407
0.04597903
0.052537176
0.059730848
0.067535929
0.075891878
0.08467553
0.093665817
0.10249153
0.11054726
0.11690529
0.12017996
0.1183907
0.10892354
0.088784149
0.056817652
0.028773421
0.014032172
0.0089660616
0.0074440151
0.0067122141
0.0062420924
0.0058542169
0.0055230065
0.0053325611
0.0051145065
0.0050502034
0.0049064759
0.0048505303
0.030882644
0.035686416
0.041067875
0.047060177
0.053682046
0.06093147
0.068783009
0.077172623
0.085967464
0.094939795
0.10371154
0.11167007
0.11787229
0.12091777
0.11880767
0.10891705
0.088254748
0.055874723
0.028210175
0.013864985
0.0089228961
0.0074271125
0.0067009896
0.0062336759
0.0058491279
0.0055194791
0.0053298691
0.0051125395
0.0050489251
0.0049064712
0.0048506358
0.031738166
0.036606768
0.042052239
0.048106893
0.054785827
0.062088412
0.069986318
0.078405214
0.087210369
0.096167351
0.10488645
0.1127566
0.11881314
0.12164347
0.11923071
0.10893902
0.087775897
0.055009209
0.027701936
0.013705218
0.0088811632
0.0074113383
0.0066904115
0.0062254135
0.0058442174
0.0055160355
0.0053267726
0.0051102825
0.0050476539
0.0049064606
0.0048507381
0.032564399
0.037494519
0.043000584
0.049114727
0.055850321
0.063203141
0.071141606
0.079587555
0.088403094
0.097347001
0.10602164
0.11380287
0.11972855
0.12235884
0.1196627
0.10899362
0.087353275
0.054224936
0.027243715
0.013552056
0.008841
0.0073966736
0.0066805363
0.0062174318
0.0058394947
0.0055127211
0.0053234088
0.005107847
0.00504639
0.00490644
0.0048508386
0.033372118
0.038354175
0.043913407
0.050081421
0.056869577
0.064269802
0.072246188
0.080718256
0.089544547
0.098477668
0.1071128
0.11481828
0.12061412
0.12306527
0.1201063
0.10908454
0.086992449
0.053524702
0.026830869
0.013404713
0.0088025867
0.0073831007
0.0066714164
0.0062098663
0.0058349684
0.0055095948
0.0053199802
0.0051054082
0.0050451527
0.0049064213
0.0048509385
0.034174057
0.039195911
0.04479763
0.051010633
0.057844087
0.065286731
0.07329863
0.081795851
0.090633438
0.099558245
0.10815911
0.11579727
0.12148218
0.1237596
0.12056375
0.10921517
0.086698839
0.052910728
0.026459273
0.013262424
0.0087660794
0.0073705971
0.0066630849
0.0062028363
0.0058306365
0.0055067194
0.0053167754
0.0051031439
0.0050439281
0.0049064161
0.0048510387
0.034970005
0.040021684
0.045655634
0.051904237
0.058774923
0.066253941
0.074297757
0.082818762
0.091668342
0.1005875
0.10915976
0.11673941
0.12232634
0.12445358
0.12103625
0.10938874
0.086477623
0.05238499
0.026125233
0.013124434
0.0087316496
0.0073591333
0.0066555449
0.0061964223
0.0058264907
0.0055041358
0.0053141177
0.0051011606
0.0050426544
0.0049064298
0.0048511402
0.035756743
0.040830074
0.04648718
0.052762449
0.059662237
0.067171007
0.075242306
0.083785361
0.092647759
0.10156405
0.11011385
0.11764428
0.12314664
0.125142
0.12152819
0.1096082
0.086333667
0.051949533
0.025825339
0.012989977
0.0086994981
0.0073486724
0.0066487664
0.0061906536
0.005822541
0.0055018467
0.0053122128
0.0050994586
0.0050413531
0.0049064667
0.0048512434
0.036531451
0.041618967
0.047290962
0.053584447
0.060505339
0.068037001
0.076130879
0.084693987
0.093570095
0.10248641
0.11102027
0.1185113
0.12394311
0.12582553
0.1220397
0.10987382
0.086271404
0.051606739
0.025556294
0.012858261
0.0086698769
0.0073391717
0.0066426911
0.0061855066
0.0058188315
0.0054998174
0.0053110032
0.0050979581
0.0050400365
0.0049065241
0.0048513487
0.037293014
0.042387047
0.048065787
0.054369162
0.061303195
0.068850713
0.076961998
0.085543026
0.094433515
0.10335296
0.11187776
0.11933969
0.12471551
0.12650459
0.12257195
0.11019291
0.086294964
0.05135959
0.025314714
0.01272844
0.0086431125
0.0073305866
0.0066372439
0.0061809101
0.0058153689
0.0054979988
0.0053102851
0.005096575
0.0050386663
0.0049066019
0.0048514559
0.038041929
0.043134024
0.048810895
0.055115564
0.062054644
0.069610697
0.077734248
0.086331028
0.09523562
0.10416526
0.11269038
0.12013481
0.12546968
0.12718509
0.12313102
0.11056843
0.086411445
0.051212068
0.025096907
0.012599577
0.0086196297
0.0073228731
0.0066323452
0.006176755
0.0058121053
0.0054963438
0.0053099161
0.0050952633
0.0050372916
0.004906698
0.0048515646
0.038779398
0.043860072
0.049525646
0.05582251
0.062758311
0.070315188
0.078446575
0.087063298
0.095987015
0.10492286
0.11344699
0.12088185
0.12619134
0.12785441
0.12370591
0.11099248
0.086615898
0.051172134
0.024898604
0.012470584
0.0085999763
0.0073159878
0.0066279234
0.0061729044
0.0058090433
0.0054948032
0.0053097885
0.0050939948
0.0050360105
0.0049068084
0.0048516749
0.039506374
0.044565003
0.05020895
0.056488417
0.063412336
0.070963762
0.079107437
0.087735704
0.096661114
0.10561062
0.11414823
0.12158699
0.12688699
0.12851894
0.1243031
0.11147096
0.086914763
0.051239519
0.0247156
0.012340245
0.0085852052
0.0073098984
0.006623931
0.0061692121
0.005806271
0.0054933487
0.00530982
0.0050927524
0.0050348128
0.004906933
0.0048517868
0.040223853
0.045248134
0.050859089
0.057111386
0.064013813
0.071560888
0.079707471
0.088329932
0.097265774
0.1062351
0.11479404
0.12224876
0.12755572
0.12917823
0.1249226
0.11200414
0.08730911
0.051427613
0.024537853
0.012207638
0.0085752171
0.0073046096
0.0066203709
0.0061655561