/*--------------------------------*- C++ -*----------------------------------*\
| =========                 |                                                 |
| \\      /  F ield         | OpenFOAM: The Open Source CFD Toolbox           |
|  \\    /   O peration     | Version:  2406                                  |
|   \\  /    A nd           | Website:  www.openfoam.com                      |
|    \\/     M anipulation  |                                                 |
\*---------------------------------------------------------------------------*/
FoamFile
{
    version     2.0;
    format      ascii;
    arch        "LSB;label=32;scalar=64";
    class       volScalarField;
    location    "0.028";
    object      nut;
}
// * * * * * * * * * * * * * * * * * * * * * * * * * * * * * * * * * * * * * //

dimensions      [0 2 -1 0 0 0 0];

internalField   nonuniform List<scalar> 
35803
(
0.03766202
0.041413782
0.045798866
0.05079181
0.056384794
0.062549857
0.06922893
0.076328971
0.0837098
0.091142506
0.098228756
0.10436954
0.10867286
0.10983185
0.10599735
0.09480455
0.0737934
0.043722159
0.019481661
0.0096694218
0.0071294363
0.0060545741
0.005490947
0.0051103921
0.004813866
0.0045593239
0.0044118695
0.0042270936
0.0041785811
0.0040771472
0.004034645
0.04241138
0.046195112
0.050463144
0.05527242
0.060640748
0.066551271
0.072950252
0.079742512
0.086784784
0.09384208
0.1005158
0.10618382
0.10993946
0.11045885
0.10588037
0.093853112
0.072081336
0.04187438
0.018176587
0.0094025037
0.0070344172
0.0060108101
0.0054664327
0.0050943036
0.004802644
0.0045534813
0.0044083365
0.0042252158
0.0041772722
0.0040769297
0.0040347275
0.048002034
0.051682688
0.055801749
0.06040918
0.06552795
0.071148547
0.077222759
0.083656585
0.090301364
0.096914908
0.1030927
0.10819823
0.1113058
0.111072
0.10562257
0.092627187
0.069970351
0.039620267
0.01698874
0.0091089774
0.0069823266
0.0059836737
0.005450752
0.0050828515
0.004795829
0.0045496619
0.0044063756
0.0042234698
0.0041764307
0.0040768512
0.0040348169
0.054535466
0.05802104
0.061924606
0.066281408
0.071107269
0.076391521
0.082087316
0.088100952
0.094277818
0.10036691
0.10595453
0.11039187
0.11273285
0.11161233
0.10514429
0.091027881
0.067360378
0.036925483
0.015821564
0.0088380255
0.006904357
0.0059411945
0.0054257453
0.0050652808
0.0047864906
0.004543654
0.004402974
0.0042216044
0.0041753118
0.0040767598
0.0040349201
0.062084439
0.065312951
0.068935513
0.072979032
0.077451767
0.082338011
0.087588181
0.093105819
0.098729321
0.10419684
0.10908339
0.11272698
0.11416045
0.11199527
0.10433586
0.088922558
0.064121117
0.03376455
0.014638399
0.0085628403
0.0068275785
0.0058995054
0.0054011217
0.0050473189
0.004776984
0.0045377514
0.0043998154
0.0042194355
0.0041743403
0.0040766489
0.0040350397
0.07068515
0.073598647
0.076883138
0.080549839
0.084601165
0.089016045
0.093740169
0.098671672
0.10364005
0.1083706
0.11242487
0.11512622
0.11548535
0.1120895
0.10303838
0.086130427
0.060090311
0.030158725
0.013437344
0.0083032716
0.0067372636
0.005848266
0.0053701794
0.0050248504
0.0047640677
0.0045303649
0.0043956107
0.0042168729
0.0041731535
0.0040765212
0.0040351785
0.080305344
0.082843208
0.085739924
0.088968879
0.092527684
0.096390327
0.10049693
0.10473835
0.10893328
0.11279236
0.11586123
0.11744652
0.11653573
0.11169219
0.10102058
0.082404311
0.055073934
0.026178178
0.01224023
0.0080587721
0.0066403506
0.0057933964
0.005336755
0.0050002397
0.0047506726
0.0045224826
0.0043911708
0.0042141448
0.0041720957
0.0040763619
0.0040353395
0.090776116
0.092915239
0.095370291
0.098098836
0.10109189
0.10431689
0.10770651
0.11114224
0.11443016
0.11726453
0.11917266
0.11944175
0.11703527
0.11049489
0.097947948
0.077410364
0.048862877
0.021999194
0.01108417
0.0078080098
0.0065304336
0.0057296472
0.005296949
0.0049708594
0.0047350326
0.0045133995
0.0043854206
0.0042109335
0.0041708067
0.0040761605
0.0040355285
0.10177285
0.10348466
0.10545097
0.10762042
0.10997602
0.1124766
0.11504504
0.11755113
0.11978632
0.12142659
0.12197835
0.12070639
0.11654994
0.10803471
0.0933401
0.070709243
0.041302377
0.018482382
0.010037032
0.0075720258
0.0064110714
0.0056601753
0.0052528472
0.0049375782
0.0047179227
0.0045036152
0.0043788949
0.0042072648
0.0041691216
0.0040758776
0.0040357573
0.11270139
0.11395605
0.11538774
0.11694073
0.11858786
0.12027677
0.12191782
0.12336637
0.12439649
0.12466314
0.12364866
0.12059245
0.11441087
0.1036265
0.086523066
0.061745088
0.032456055
0.015222803
0.0091013403
0.0073293231
0.0062775392
0.0055810878
0.0052021093
0.0048975097
0.0046975327
0.0044927031
0.0043715028
0.0042031676
0.0041668141
0.0040754699
0.0040360364
0.12252043
0.12329129
0.12414659
0.12502998
0.12590226
0.12669765
0.12731099
0.12757967
0.12725663
0.12597199
0.12318019
0.11809243
0.10960788
0.096274813
0.076574851
0.049911024
0.023485376
0.012349863
0.0083425716
0.0070970756
0.006133822
0.0054945333
0.0051461866
0.0048528518
0.0046742111
0.0044812465
0.0043645402
0.0041987317
0.0041640803
0.0040748615
0.0040363663
0.12950975
0.1297812
0.13003212
0.13020701
0.13025304
0.13008938
0.12959306
0.12857973
0.12677671
0.12378515
0.11902711
0.11168259
0.10065225
0.084580284
0.062304765
0.034924721
0.017230914
0.010193653
0.0079446213
0.0068545668
0.0059765464
0.0053979213
0.005082387
0.0048034798
0.0046454765
0.0044687907
0.0043570673
0.0041939688
0.0041605039
0.0040739856
0.0040367174
0.13096811
0.13072805
0.13036023
0.12981654
0.12902338
0.12787783
0.12623456
0.12388418
0.12052641
0.11573215
0.10888405
0.099123602
0.085422417
0.066712211
0.042454948
0.021482406
0.012351104
0.0085871764
0.0074239532
0.0065890946
0.005810602
0.0052953119
0.0050113375
0.0047494434
0.0046112409
0.0044526821
0.0043485689
0.0041887188
0.0041554407
0.0040726995
0.0040370741
0.12267096
0.12193441
0.12097469
0.1197442
0.11815423
0.11607996
0.11334733
0.1097168
0.10486137
0.098327942
0.089420152
0.077191391
0.061048171
0.041212636
0.024291511
0.013892095
0.0093867642
0.0078870244
0.0071046798
0.006336212
0.0056384168
0.0051885893
0.0049293412
0.0046914829
0.0045717878
0.0044326161
0.004336285
0.0041826493
0.0041500872
0.0040709322
0.0040374248
0.098346256
0.097226188
0.095808591
0.094042843
0.091817656
0.088985943
0.085357959
0.080682888
0.074656752
0.066952058
0.057557126
0.046800093
0.034800063
0.022962465
0.014081065
0.0097340131
0.0080781435
0.0073357679
0.0066184412
0.0060387722
0.0054755354
0.0050715575
0.0048370975
0.0046324228
0.0045288568
0.0044094921
0.0043223256
0.004175276
0.0041438438
0.004068658
0.0040377362
0.062254666
0.061245785
0.060020629
0.058545013
0.056710729
0.054388599
0.051471664
0.047820629
0.043306064
0.037841612
0.031444008
0.024702421
0.018336842
0.012905059
0.0093401115
0.0080684196
0.0075147787
0.0068327384
0.0062825158
0.0058153361
0.005325756
0.0049557165
0.0047330246
0.0045719113
0.0044813128
0.004381497
0.0043064823
0.004166198
0.0041360182
0.0040658535
0.0040379671
0.031691758
0.031247647
0.030644571
0.029865119
0.02886456
0.027587272
0.026017852
0.024064886
0.021691268
0.018931501
0.015899378
0.01289237
0.010345084
0.0084903438
0.0074900694
0.0074286901
0.0067288423
0.0063146072
0.0058788217
0.0055433712
0.005188942
0.0048273675
0.0046326669
0.0045108925
0.0044300727
0.004351246
0.0042874627
0.0041555098
0.0041265859
0.0040626512
0.0040380704
0.015123601
0.015024686
0.014819012
0.014499676
0.014069183
0.013525477
0.012882796
0.012104225
0.011174376
0.010105471
0.0089583369
0.0078824018
0.0071912368
0.0068812529
0.0069037762
0.006432781
0.0062612979
0.0059789533
0.0055616096
0.0053702416
0.0050152869
0.0047320268
0.0045319564
0.0044443088
0.0043770782
0.0043220162
0.0042651836
0.0041436768
0.0041164066
0.0040610733
0.004038012
0.0082845796
0.0082658658
0.008210887
0.0081166355
0.0079857922
0.0078030034
0.0075805833
0.0073409006
0.0070825786
0.0067985275
0.0065614342
0.0064028973
0.0062726723
0.0062014093
0.0058941485
0.0057489319
0.0055250223
0.0054253748
0.0052488174
0.0050554907
0.0048421418
0.0046170009
0.0044351412
0.0043805409
0.0043260908
0.0042947231
0.0042402377
0.0041314918
0.0041061093
0.0040605426
0.0040377305
0.0059301066
0.0059135463
0.005897205
0.0058862932
0.0058844065
0.0058914827
0.0058689046
0.0058270454
0.0057937361
0.0057239051
0.0056575901
0.0055374334
0.0054977882
0.0053799475
0.0053590237
0.0052008134
0.0051767107
0.0050922458
0.0048801251
0.0048319556
0.0047041988
0.0044826217
0.004329135
0.0043357465
0.0042786701
0.0042613444
0.0042172265
0.0041202076
0.004097232
0.0040604237
0.0040374068
0.0053552139
0.0053505533
0.0053478441
0.0053358794
0.0053174232
0.0053018025
0.0052935588
0.0052852615
0.0052607255
0.0052146866
0.005125277
0.0050618903
0.0050168528
0.0049815911
0.0048752211
0.004908808
0.0047628408
0.004723856
0.004690386
0.0045870442
0.0044907658
0.0043804506
0.004268609
0.0042914691
0.0042293671
0.0042268418
0.0041942555
0.004110589
0.0040915256
0.0040604746
0.0040337046
0.0048421392
0.0048295698
0.0048178995
0.0048152385
0.0048204922
0.00481836
0.0048097161
0.0047977373
0.0047839285
0.0047679203
0.0047438887
0.0047430512
0.004709721
0.0046594424
0.0046087358
0.0045983026
0.0045586516
0.0045089509
0.004445368
0.0044308231
0.0044064282
0.0043193551
0.0042030708
0.0042306796
0.0041878719
0.0041939315
0.0041701667
0.0041024388
0.0040883074
0.0040613891
0.0040343492
0.0045567989
0.0045590118
0.004563311
0.0045666844
0.0045656912
0.0045632162
0.0045619132
0.0045602052
0.0045539738
0.0045378193
0.0045084873
0.0044768261
0.0044620116
0.0044460297
0.004460039
0.0044113579
0.0043445666
0.0043412093
0.0043140208
0.0042953256
0.0043129248
0.0042495542
0.0041663712
0.0041553152
0.0041587053
0.0041609916
0.0041466649
0.0040943166
0.0040850315
0.0040622696
0.0040352399
0.0043536833
0.0043508735
0.004346605
0.0043406741
0.0043380658
0.0043367111
0.0043343463
0.004331115
0.0043269906
0.0043223497
0.0043176888
0.0043222724
0.0043204307
0.0043192614
0.0042899582
0.0042904786
0.0042514664
0.0042457183
0.0042446553
0.0042076771
0.004212481
0.0042006337
0.0041281183
0.0041041882
0.0041369523
0.0041231737
0.0041279726
0.0040831238
0.0040786621
0.0040569325
0.0040357739
0.0042114327
0.0042116599
0.0042122081
0.0042138547
0.0042159001
0.0042181872
0.0042207664
0.0042226879
0.004222442
0.0042187845
0.0042086184
0.0041905354
0.0041804005
0.0041712398
0.0041671544
0.0041622675
0.0041658348
0.0041641371
0.0041692318
0.0041396348
0.0041523147
0.0041283242
0.0041037194
0.0040757455
0.0041049902
0.0041026984
0.0041102411
0.0040726351
0.0040682621
0.0040539924
0.004034774
0.0041287866
0.0041285118
0.004127752
0.0041265026
0.0041250697
0.004123569
0.0041221215
0.0041206356
0.0041198627
0.0041196464
0.0041184753
0.0041171855
0.0041137359
0.0041102743
0.0041061929
0.0041065618
0.0041054522
0.0041086864
0.004106618
0.0040860626
0.0041020618
0.0040949713
0.0040773548
0.0040603176
0.0040759067
0.0040865715
0.0040910928
0.0040635817
0.0040586358
0.0040517822
0.0040366558
0.0040806443
0.0040806955
0.0040805279
0.0040802168
0.0040799866
0.0040799515
0.0040802885
0.0040814231
0.0040831441
0.0040845049
0.0040844321
0.0040818853
0.0040770722
0.0040735753
0.0040730446
0.0040714424
0.0040765807
0.0040756243
0.0040764626
0.0040671179
0.0040714952
0.0040796089
0.0040634317
0.0040518532
0.0040595916
0.0040682859
0.0040731694
0.0040560911
0.004050997
0.0040461653
0.0040373986
0.0040572539
0.0040571877
0.0040569839
0.0040566859
0.0040563828
0.0040560894
0.0040557655
0.0040557171
0.0040557863
0.0040556923
0.0040552989
0.0040544165
0.004053317
0.0040534434
0.0040540128
0.0040549382
0.0040555752
0.0040581954
0.0040558564
0.0040589286
0.0040578677
0.0040723233
0.0040565667
0.0040485529
0.0040510397
0.0040564213
0.0040589244
0.0040501532
0.0040461959
0.0040432133
0.0040376669
0.0040472353
0.0040471576
0.0040470716
0.0040469793
0.0040468955
0.0040468397
0.0040468258
0.0040468426
0.0040468796
0.0040468996
0.0040465705
0.0040459443
0.0040453582
0.0040453679
0.0040457527
0.0040467474
0.0040479628
0.0040493282
0.0040483629
0.0040485406
0.0040494983
0.0040536743
0.0040524453
0.0040445418
0.0040476644
0.0040483017
0.0040509879
0.0040471743
0.004043578
0.0040410085
0.0040389724
0.0040426865
0.0040426082
0.0040425184
0.004042415
0.0040423157
0.0040422472
0.0040422411
0.0040423175
0.0040424423
0.0040425684
0.0040425536
0.0040423966
0.0040422405
0.0040422101
0.004042396
0.0040431482
0.004044507
0.0040454745
0.0040453191
0.0040450706
0.0040450256
0.0040456361
0.0040471039
0.0040455346
0.004045473
0.0040442779
0.00404606
0.0040428151
0.0040391066
0.0040403058
0.0040398388
0.0040433031
0.0040432851
0.0040432388
0.0040431619
0.0040430594
0.0040429432
0.0040428248
0.0040427146
0.0040426347
0.0040425812
0.0040425355
0.0040424808
0.0040424176
0.0040423719
0.0040423599
0.004042333
0.0040422971
0.0040420231
0.0040415355
0.0040417224
0.0040422413
0.004042178
0.004041428
0.0040455948
0.0040418064
0.0040420914
0.0040421025
0.00404195
0.004040323
0.0040407075
0.0040394475
0.0021385043
0.0019288555
0.0019921404
0.0024278383
0.0034792719
0.0060076906
0.0098196349
0.014678961
0.020507991
0.02757759
0.035909633
0.044926286
0.054852272
0.065179558
0.074970339
0.082705567
0.085987155
0.081215945
0.064903261
0.039836948
0.018592327
0.0090664892
0.0064111616
0.0055922334
0.0051214321
0.0047358664
0.0045005117
0.0043066585
0.0042430292
0.0040841088
0.004033268
0.0018895813
0.0018082257
0.0021160648
0.0027434523
0.0046482666
0.0077986241
0.011861822
0.016762243
0.022623136
0.029813845
0.038039736
0.047014046
0.056848122
0.066985521
0.076459279
0.083709398
0.086300789
0.080625242
0.063419351
0.038074114
0.017501906
0.0087597608
0.0063231543
0.0055635424
0.0051066227
0.0047288564
0.0044964244
0.004304014
0.0042415954
0.0040837011
0.0040332309
0.001704325
0.0018324343
0.0022151578
0.0033680063
0.0058009623
0.0092231575
0.013459476
0.018508297
0.024542027
0.031880299
0.040034349
0.049015294
0.058772442
0.068723454
0.077877512
0.084637936
0.086536664
0.079961355
0.061895905
0.03635867
0.016540263
0.0084693756
0.0062699049
0.0055447399
0.0050965278
0.0047245925
0.0044936127
0.0043019835
0.0042403608
0.0040833028
0.0040331942
0.0016236357
0.0019015298
0.0025380245
0.0043496667
0.0071346338
0.010718479
0.015060058
0.020220533
0.026422462
0.033844127
0.041964552
0.050960777
0.060639502
0.07040057
0.079229341
0.085494441
0.086697861
0.079227311
0.060339229
0.034691967
0.015668704
0.0082159262
0.0062141788
0.0055233753
0.0050847601
0.0047191676
0.0044902818
0.00429972
0.0042390992
0.0040829092
0.0040331577
0.0016490106
0.0020205172
0.0032916967
0.0055131637
0.0085090731
0.012210814
0.016654351
0.02193158
0.028324754
0.035725635
0.043861045
0.052864682
0.062457205
0.072021672
0.080518207
0.086281953
0.086787528
0.078426927
0.058756898
0.033074608
0.014867108
0.0079896658
0.0061661351
0.0055040753
0.0050738902
0.0047142353
0.0044872456
0.0042976231
0.0042378994
0.0040825268
0.004033122
0.0016930235
0.0025381728
0.0042774548
0.0067592691
0.0098978262
0.013706054
0.018252471
0.023660102
0.030193616
0.037558993
0.045734746
0.054733479
0.064230013
0.073589973
0.081746808
0.087003186
0.086808693
0.077564028
0.05715577
0.031508133
0.014125869
0.0077873448
0.0061216196
0.005485097
0.0050628974
0.0047090166
0.0044841274
0.0042954806
0.0042367025
0.0040821562
0.0040330873
0.0020049727
0.0033569109
0.0053978065
0.0080467182
0.011297622
0.0152072
0.019855268
0.025405903
0.032028084
0.039374671
0.047590063
0.056569937
0.065960423
0.07510763
0.082917271
0.087660557
0.086764249
0.076642546
0.055541571
0.02999496
0.013440387
0.0076065659
0.0060811328
0.005467072
0.0050521899
0.0047037885
0.0044811025
0.0042933827
0.0042355303
0.0040817984
0.0040330536
0.002697529
0.0043601266
0.006581987
0.0093490348
0.012702205
0.01671198
0.021465661
0.027176321
0.033805228
0.041180661
0.049426676
0.058374888
0.067649784
0.076576122
0.084031345
0.088256296
0.086657022
0.075666145
0.05391968
0.02853797
0.012808009
0.0074453812
0.0060439004
0.0054497331
0.0050416001
0.0046983737
0.004478089
0.0042912712
0.004234365
0.0040814537
0.0040330212
0.0035459633
0.0054158555
0.0077790568
0.010656478
0.014110455
0.018219338
0.023089739
0.028921859
0.035545686
0.04297678
0.051242927
0.060148299
0.069298792
0.077996517
0.085090558
0.088792543
0.086489842
0.074638064
0.052294929
0.027140209
0.01222668
0.0073022554
0.00600964
0.005433163
0.0050312177
0.0046928282
0.004475135
0.0042891657
0.0042332106
0.0040811222
0.0040329905
0.0045216447
0.0065412838
0.0090056991
0.011973315
0.015520981
0.019726732
0.024730002
0.030634327
0.037278531
0.04476191
0.053036876
0.061889744
0.070907771
0.079369642
0.086096321
0.08927142
0.086265606
0.073562794
0.050671461
0.0258045
0.011694409
0.0071763683
0.0059779629
0.0054173039
0.0050210434
0.0046871408
0.0044722338
0.0042870523
0.0042320577
0.0040808017
0.0040329618
0.0055603837
0.0076728835
0.010223535
0.013284065
0.016928845
0.021236311
0.026375186
0.032318815
0.03900517
0.046532246
0.05480656
0.06359863
0.07247685
0.080696207
0.08705001
0.089695088
0.085987289
0.072445659
0.049054153
0.02454029
0.011209079
0.0070686358
0.0059485559
0.0054021482
0.0050111349
0.0046813753
0.0044694126
0.0042849374
0.0042308986
0.0040804898
0.0040329358
0.0066003473
0.0087975922
0.011438456
0.014593888
0.018334952
0.022751702
0.028005029
0.033968416
0.040720222
0.048284554
0.056550313
0.065274328
0.074006073
0.081976883
0.087953022
0.090065784
0.08565822
0.071291104
0.047447421
0.023348627
0.010767762
0.0069736498
0.0059211044
0.0053876613
0.0050015323
0.0046755974
0.0044666916
0.00428282
0.0042297147
0.0040801837
0.0040329127
0.0076394018
0.0099206008
0.012651581
0.015900701
0.019735804
0.024275285
0.029591409
0.035606816
0.04242262
0.050016452
0.058266709
0.066916227
0.075495468
0.083212357
0.088806815
0.090385861
0.085282327
0.070104685
0.045855486
0.022221502
0.010367608
0.0068889603
0.0058954217
0.0053738144
0.0049922722
0.0046698881
0.0044640949
0.0042807091
0.0042284792
0.0040798812
0.0040328926
0.0086702982
0.01103747
0.013859262
0.017201686
0.021133311
0.025792611
0.031150875
0.037237204
0.044109241
0.051725761
0.059954499
0.068523769
0.076945101
0.084403378
0.089612936
0.090657772
0.08486328
0.068891566
0.044285862
0.021157635
0.01000604
0.0068136057
0.0058713137
0.0053605726
0.0049833624
0.0046643099
0.0044616417
0.0042786191
0.004227151
0.0040795826
0.0040328752
0.0096935026
0.012147401
0.015059565
0.018494517
0.022529248
0.027290381
0.032696729
0.038855155
0.045777054
0.053410671
0.061612604
0.070096476
0.078355107
0.085550782
0.090373042
0.090884079
0.084404519
0.067656957
0.042744803
0.020157509
0.0096805373
0.0067463242
0.0058486089
0.0053479036
0.0049747864
0.0046589006
0.0044593531
0.0042765663
0.004225679
0.0040792888
0.0040328606
0.010706895
0.013247535
0.016249632
0.019775664
0.023926474
0.02875349
0.034231935
0.040457141
0.04742375
0.055069683
0.063240091
0.071633962
0.079725707
0.086655504
0.091088906
0.09106746
0.083909886
0.066406128
0.041238101
0.019221706
0.009388575
0.0066861179
0.0058271551
0.005335776
0.0049665119
0.00465367
0.0044572412
0.0042745668
0.0042240103
0.0040790027
0.0040328506
0.011707721
0.014335167
0.017427423
0.02104766
0.025307551
0.030192934
0.035750857
0.042040227
0.049047496
0.056701521
0.064836156
0.073135943
0.081057227
0.087718598
0.09176243
0.091210718
0.083383559
0.065144392
0.039770983
0.018350395
0.009127619
0.0066320583
0.0058068148
0.0053241615
0.0049585129
0.0046486153
0.0044553141
0.0042726434
0.0042221123
0.0040787297
0.0040328453
0.012693054
0.015407828
0.018590558
0.022310984
0.026663887
0.031614301
0.037252056
0.043602556
0.050646786
0.058305069
0.066400108
0.074602234
0.082350097
0.088741234
0.092395642
0.091316985
0.08282979
0.063877261
0.038348049
0.017543244
0.0088951581
0.0065834108
0.005787468
0.0053130341
0.004950782
0.0046437367
0.0044535566
0.0042708118
0.0042199986
0.0040784772
0.0040328449
0.01366047
0.016463657
0.019736997
0.023565479
0.027989256
0.033021015
0.038734257
0.04514252
0.052220288
0.059879335
0.067931361
0.076032755
0.083604858
0.0897247
0.09299068
0.091389916
0.082252872
0.06261034
0.03697329
0.01679938
0.0086887301
0.0065394669
0.0057690091
0.0053023717
0.0049433283
0.0046390459
0.0044518911
0.0042690683
0.0042177474
0.0040782554
0.0040328499
0.014608844
0.017501711
0.020868384
0.024798897
0.029293485
0.034409601
0.04019559
0.046658628
0.053766794
0.06142343
0.069429423
0.077427522
0.084822154
0.090670396
0.093549739
0.091432185
0.081656548
0.061349079
0.035650118
0.016117381
0.0085059575
0.0064995061
0.0057513544
0.0052921561
0.0049361634
0.0046345586
0.0044501992
0.0042673867
0.0042154927
0.004078073
0.0040328607
0.015537156
0.018520601
0.02198528
0.026006384
0.030579056
0.035778336
0.041634541
0.048149539
0.055285198
0.06293655
0.070893891
0.078786646
0.086002732
0.091579837
0.094075164
0.09144627
0.081043737
0.060098607
0.034381415
0.015495321
0.0083445818
0.0064629856
0.0057344408
0.0052823725
0.0049292925
0.0046302819
0.0044484626
0.0042657232
0.004213377
0.0040779226
0.0040328775
0.016445406
0.019519762
0.023086554
0.027186825
0.03184613
0.037125745
0.043049742
0.049614001
0.056774472
0.064417967
0.072324435
0.080110322
0.087147433
0.092454655
0.094569716
0.091435884
0.080417921
0.058863482
0.03316949
0.014930878
0.0082024927
0.0064294842
0.0057182221
0.0052730074
0.0049227182
0.0046262129
0.0044467851
0.0042640824
0.0042114875
0.0040777682
0.0040329002
0.017333986
0.02050019
0.024165761
0.028345854
0.033092332
0.038450288
0.044439928
0.051050829
0.058233652
0.065867014
0.073720794
0.081398826
0.088257182
0.09329655
0.095035937
0.091404773
0.079783138
0.057648395
0.032016089
0.01442445
0.008077754
0.0063986358
0.0057026677
0.0052640461
0.0049164422
0.0046223429
0.0044452013
0.0042625227
0.0042098154
0.0040776151
0.0040329286
0.018203424
0.021462558
0.02522112
0.029484382
0.034316494
0.039750674
0.045803957
0.052458869
0.059661824
0.067283073
0.07508276
0.082652504
0.089332976
0.094107503
0.095476236
0.091356647
0.079143795
0.056456426
0.030922675
0.013971703
0.0079685453
0.0063701397
0.0056877583
0.00525547
0.004910458
0.0046186581
0.004443694
0.0042610637
0.004208275
0.0040774714
0.0040329623
0.019054215
0.022408986
0.026250911
0.030602323
0.035517583
0.041025665
0.047139417
0.053836987
0.061058116
0.068665565
0.076410172
0.083871759
0.090375846
0.094889335
0.095893536
0.091295262
0.078504969
0.055290817
0.029890667
0.013566318
0.0078732593
0.006343748
0.0056734812
0.0052472529
0.0049047488
0.0046151387
0.004442269
0.0042596973
0.004206778
0.0040773536
0.0040330008
0.019887754
0.023335211
0.02725978
0.031698233
0.036694603
0.042274146
0.048443671
0.055184214
0.062421689
0.070013937
0.077702893
0.085057028
0.091387569
0.0956438
0.096290737
0.091224412
0.077871434
0.054155017
0.028921365
0.013204818
0.0077906246
0.0063192595
0.0056598243
0.0052393587
0.0048992898
0.0046117592
0.00444093
0.0042584251
0.0042053017
0.0040772599
0.0040330435
0.020705034
0.024241476
0.028248272
0.032771488
0.037846636
0.043495406
0.049719191
0.056499895
0.06375173
0.071327657
0.078960776
0.08620901
0.092369065
0.096373045
0.096670751
0.091147904
0.077247629
0.053052187
0.028015754
0.01288455
0.0077198637
0.0062965117
0.0056467719
0.00523174
0.0048940483
0.0046084929
0.0044396761
0.0042572441
0.0042038744
0.0040771655
0.0040330899
0.02150721
0.025127862
0.029216549
0.033821455
0.038972688
0.044688519
0.050967242
0.057783163
0.065047397
0.072606185
0.080183894
0.087328003
0.0933208
0.097079073
0.0970365
0.09106954
0.076637729
0.051985073
0.027174346
0.012603115
0.0076611953
0.0062753754
0.0056343012
0.005224339
0.0048889895
0.0046053144
0.0044384803
0.0042561541
0.0042025062
0.0040770836
0.0040331382
0.022295811
0.025994775
0.030164072
0.034847382
0.040071747
0.045851972
0.052182844
0.059030467
0.06630773
0.073849232
0.081372947
0.088414225
0.094244225
0.097763855
0.097390914
0.090993109
0.076045731
0.050956205
0.026397203
0.012358196
0.0076108214
0.0062557458
0.0056223835
0.0052170891
0.0048840797
0.004602201
0.0044373196
0.0042551185
0.0042011767
0.0040769957
0.0040331877
0.023070889
0.026843569
0.031090172
0.035848506
0.041142826
0.046984598
0.053364751
0.060241252
0.067532155
0.075057045
0.082527246
0.089468418
0.095140587
0.098429388
0.097736913
0.090922378
0.075475496
0.049967937
0.025684024
0.012147846
0.0075680165
0.0062375517
0.0056109883
0.0052099238
0.004879301
0.0045991252
0.0044361278
0.0042540893
0.0041998792
0.0040769061
0.0040332383
0.023832359
0.027674992
0.031994662
0.036824134
0.042184903
0.048085228
0.054512734
0.061421359
0.068719948
0.076228294
0.083645845
0.090490992
0.096011056
0.09907765
0.098077386
0.090861087
0.074930789
0.049022462
0.025034213
0.011970846
0.0075310652
0.0062204661
0.0056000893
0.0052027897
0.0048746391
0.0045960751
0.0044347987
0.00425301
0.0041986347
0.0040768258
0.0040332901
0.024581012
0.028489264
0.032877292
0.037773781
0.04319743
0.049153325
0.055625954
0.062565221
0.069868704
0.077361527
0.084728944
0.091482242
0.09685674
0.099710569
0.098415172
0.090812937
0.074415295
0.048121804
0.024454601
0.011817584
0.0074929665
0.0062043406
0.0055896694
0.0051956568
0.0048700908
0.004593042
0.0044332282
0.0042517935
0.0041974502
0.0040767595
0.0040333431
0.025320284
0.029289082
0.033739928
0.038698489
0.044180943
0.050189031
0.05670384
0.063670315
0.070981744
0.078453212
0.085776197
0.092442472
0.097678669
0.10032999
0.098753039
0.090781539
0.073932855
0.047274885
0.023934564
0.011671205
0.0074560408
0.0061891983
0.0055797288
0.0051885293
0.004865661
0.0045900265
0.0044313109
0.0042503646
0.0041963155
0.0040767051
0.0040333972
0.026049666
0.030074566
0.034582902
0.039598057
0.045133996
0.051190514
0.057743075
0.0647342
0.072053823
0.079509774
0.086787289
0.093371945
0.098477784
0.10093765
0.099093632
0.090770704
0.073487858
0.046487999
0.023465245
0.0115318
0.0074199578
0.006175007
0.0055702883
0.0051814502
0.0048613674
0.0045870461
0.0044290149
0.004248674
0.0041952062
0.0040766542
0.0040334526
0.026760595
0.03083899
0.03540103
0.04046857
0.046053356
0.052153206
0.058740781
0.065756046
0.073083947
0.080526721
0.087760096
0.094270775
0.099254918
0.10153518
0.099439434
0.090783912
0.073085022
0.045765661
0.023041715
0.011398576
0.007385069
0.0061617554
0.0055613855
0.0051744991
0.0048572213
0.0045841328
0.0044263804
0.004246739
0.0041941024
0.0040765971
0.0040335096
0.027439306
0.031569011
0.03618234
0.041300352
0.046932652
0.053073813
0.059696037
0.066734572
0.074071087
0.081502753
0.088699114
0.095135652
0.10001067
0.10212405
0.099792796
0.090824205
0.072729149
0.045111041
0.022659817
0.011270856
0.0073514882
0.0061494275
0.0055530674
0.0051677813
0.0048532303
0.0045813243
0.0044235203
0.0042446524
0.0041930047
0.004076532
0.0040335684
0.028098118
0.032270799
0.036929203
0.042093112
0.047770032
0.053951749
0.060607071
0.067668482
0.0750142
0.08243696
0.089600729
0.095974407
0.10074136
0.10270545
0.10015592
0.090894729
0.072424919
0.044526457
0.022315688
0.011147985
0.0073193652
0.0061380089
0.0055453776
0.0051614094
0.0048494014
0.0045786696
0.004420602
0.0042425605
0.0041919293
0.0040764698
0.0040336295
0.028750566
0.032955796
0.037650172
0.042852438
0.048568041
0.054786317
0.061472689
0.068556461
0.075912144
0.083328428
0.090464234
0.096782407
0.10145731
0.10327674
0.10053068
0.090998425
0.072176833
0.044013742
0.022005892
0.011029328
0.0072888297
0.0061274807
0.0055383438
0.0051554824
0.0048457331
0.0045762211
0.0044178655
0.0042406122
0.004190864
0.0040764206
0.0040336932
0.029396387
0.033625711
0.03834739
0.043580046
0.049327568
0.055577324
0.062291869
0.069397191
0.076763689
0.084176134
0.09128896
0.097559272
0.10215315
0.10384774
0.10091808
0.091137945
0.071989192
0.043574532
0.021727355
0.010914255
0.0072600243
0.0061178187
0.0055319687
0.0051500674
0.0048422183
0.0045740134
0.0044155807
0.0042388969
0.0041897573
0.0040763886
0.0040337599
0.030033256
0.034279461
0.039020608
0.044275985
0.050048549
0.056324288
0.063063558
0.070189322
0.077567527
0.084978945
0.092074118
0.098304653
0.10282895
0.10441412
0.1013218
0.091315733
0.071866045
0.043210517
0.021477239
0.01080213
0.0072331159
0.0061089921
0.0055262275
0.0051451886
0.0048388659
0.0045720494
0.0044139197
0.0042374157
0.0041886263
0.0040763762
0.0040338298
0.030658935
0.034915267
0.039668593
0.044939397
0.050730258
0.057026356
0.063786598
0.070931436
0.078322261
0.085735618
0.092818789
0.099018046
0.10348472
0.10497645
0.10174195
0.091531995
0.071811057
0.042923669
0.021252799
0.010692294
0.0072083138
0.0061009655
0.005521072
0.0051408261
0.0048357128
0.0045703013
0.0044128359
0.0042361024
0.0041874802
0.0040763819
0.0040339027
0.0312718
0.035531475
0.040289878
0.045569047
0.051371613
0.057682412
0.064459749
0.07162204
0.079026383
0.086444816
0.093521919
0.099698784
0.10412026
0.10553509
0.10217952
0.091792793
0.071827571
0.04271646
0.021051221
0.010584043
0.0071858896
0.006093702
0.0055164398
0.0051369209
0.0048327649
0.0045687288
0.0044121606
0.0042348872
0.0041862859
0.0040764043
0.0040339785
0.031870851
0.036126817
0.040883099
0.046163619
0.051971392
0.058291201
0.065081782
0.072259531
0.079678243
0.08710787
0.094186894
0.10035134
0.10474045
0.10609502
0.10263961
0.092100566
0.071921416
0.042592191
0.020869433
0.010476599
0.0071661961
0.0060871648
0.005512265
0.005133382
0.0048299822
0.0045672938
0.0044117759
0.0042337315
0.0041850841
0.0040764423
0.0040340567
0.032455641
0.03670046
0.041447113
0.046721859
0.052528378
0.058851387
0.065651485
0.072848422
0.080287211
0.087724341
0.094804426
0.10096336
0.10533339
0.10664573
0.10311311
0.092448715
0.072088502
0.042557474
0.020703884
0.010369055
0.0071496882
0.0060813178
0.005508488
0.0051300959
0.004827367
0.0045659557
0.0044115931
0.0042326115
0.004183955
0.0040764949
0.0040341368
0.033026521
0.037252134
0.041981073
0.047242659
0.053041378
0.059362901
0.066175758
0.073385666
0.08083099
0.088281837
0.095375067
0.10153995
0.10590445
0.10719254
0.10360542
0.092842146
0.072334222
0.042612079
0.020551075
0.010260401
0.0071372413
0.0060761343
0.0055050696
0.005126941
0.0048249932
0.0045646914
0.0044115437
0.0042315125
0.0041828889
0.0040765635
0.0040342184
0.033585216
0.037782374
0.04248452
0.047725186
0.053508765