/*--------------------------------*- C++ -*----------------------------------*\
| =========                 |                                                 |
| \\      /  F ield         | OpenFOAM: The Open Source CFD Toolbox           |
|  \\    /   O peration     | Version:  2406                                  |
|   \\  /    A nd           | Website:  www.openfoam.com                      |
|    \\/     M anipulation  |                                                 |
\*---------------------------------------------------------------------------*/
FoamFile
{
    version     2.0;
    format      ascii;
    arch        "LSB;label=32;scalar=64";
    class       surfaceScalarField;
    location    "0.028";
    object      phi;
}
// * * * * * * * * * * * * * * * * * * * * * * * * * * * * * * * * * * * * * //

dimensions      [1 0 -1 0 0 0 0];

oriented        oriented;

internalField   nonuniform List<scalar> 
71073
(
0.0086289084
-0.011659407
0.011922797
-0.0088967093
0.0083633134
-0.013759294
0.014020615
0.0080742691
-0.016218098
0.016503743
0.0077591774
-0.019105365
0.019418051
0.0074223703
-0.022493748
0.022829167
0.0070707586
-0.026459556
0.026810589
0.0067125983
-0.031087638
0.031445807
0.0063572314
-0.036478405
0.03683416
0.0060129374
-0.042766748
0.043111503
0.005682755
-0.05013174
0.050462261
0.0053681156
-0.058761577
0.05907635
0.0050710904
-0.068830653
0.069127587
0.0047902233
-0.080590541
0.08087118
0.0045201762
-0.094316747
0.094586436
0.0042520168
-0.11031112
0.11057864
0.0039698137
-0.12868714
0.12896814
0.0036356741
-0.1492035
0.14953577
0.0031770435
-0.17099002
0.17144653
0.0026716979
-0.193502
0.1940062
0.0022795702
-0.21960316
0.21999552
0.0019689819
-0.25063467
0.25094615
0.0016892456
-0.2863652
0.28664563
0.0014275197
-0.32699016
0.32725301
0.001183753
-0.37424941
0.37449468
0.00096152202
-0.42616018
0.42638618
0.0007682201
-0.48838765
0.4885851
0.00058044565
-0.55679788
0.55697731
0.00041731278
-0.6384204
0.63858272
0.0002370471
-0.7293367
0.72953055
8.4636496e-05
-0.83662986
0.83676419
-0.91684562
0.91689131
0.0097622265
-0.011410379
-0.010009961
0.0094808758
-0.013477731
0.0091731173
-0.015910412
0.0088390462
-0.018771304
0.0084805029
-0.022134871
0.008102677
-0.026081101
0.0077137437
-0.030698016
0.0073240224
-0.036087951
0.0069431876
-0.042385238
0.0065727826
-0.04976091
0.0062148301
-0.058403477
0.0058735186
-0.068489464
0.0055484899
-0.080265796
0.0052344258
-0.094003116
0.0049206469
-0.10999811
0.0045857554
-0.12835366
0.0041878605
-0.14880776
0.0036491796
-0.17045376
0.0030648807
-0.19291902
0.0026193113
-0.21915733
0.0022636906
-0.25027802
0.0019417495
-0.28604249
0.0016416368
-0.32668875
0.0013594599
-0.37396528
0.001106092
-0.42589962
0.00088237567
-0.48815821
0.00066737614
-0.5565936
0.00047873447
-0.6382331
0.0002724605
-0.72911748
9.6216292e-05
-0.83647526
-0.91679397
0.010956906
-0.011172985
-0.011191238
0.010681634
-0.013200317
0.010371068
-0.015598251
0.01002838
-0.018427225
0.0096559823
-0.021761123
0.009258464
-0.025682324
0.0088437479
-0.030282204
0.008422857
-0.035666269
0.0080050959
-0.041966828
0.0075937398
-0.04934911
0.0071901126
-0.057999709
0.0068008156
-0.068100352
0.0064263779
-0.079891715
0.0060618447
-0.093639112
0.0056947838
-0.10963196
0.0052976785
-0.12795821
0.0048217291
-0.14833431
0.0041878207
-0.16982259
0.0035166601
-0.19224936
0.003013421
-0.21865378
0.0026064614
-0.24986989
0.0022356239
-0.28567079
0.0018914886
-0.32634314
0.0015634219
-0.37363457
0.0012746828
-0.42559979
0.001014968
-0.48789116
0.0007686616
-0.55636082
0.00054991958
-0.63801677
0.00031339659
-0.72886882
0.00010897038
-0.83629576
-0.91673636
0.012222229
-0.010954684
-0.012438736
0.011964404
-0.01294084
0.011665336
-0.01529762
0.011326912
-0.018087261
0.010951636
-0.021384367
0.010543888
-0.025273261
0.010111158
-0.029848467
0.0096640924
-0.035218437
0.0092122494
-0.041514432
0.008760503
-0.048897058
0.0083107626
-0.057549954
0.0078705354
-0.067660394
0.0074415719
-0.079463195
0.0070195222
-0.093217704
0.0065901959
-0.10920372
0.0061194659
-0.12748942
0.0055477672
-0.1477655
0.0048001213
-0.16907805
0.0040335908
-0.19148455
0.0034668433
-0.21808666
0.0030006794
-0.24940238
0.0025732535
-0.28524242
0.0021789848
-0.32594723
0.0017973207
-0.37324925
0.00146904
-0.42525438
0.0011668436
-0.48758009
0.00088529218
-0.55609601
0.00063149195
-0.63776712
0.00036028305
-0.72858628
0.00012287047
-0.83608622
-0.91667321
0.013553923
-0.010764594
-0.013743678
0.01332315
-0.012709476
0.013048138
-0.015021818
0.012728031
-0.017766193
0.012363881
-0.02101919
0.011959022
-0.024867436
0.011519817
-0.029408485
0.01105571
-0.034753744
0.010576257
-0.041034596
0.010087616
-0.048408271
0.0095931411
-0.057055592
0.009100514
-0.067168125
0.0086125898
-0.078975812
0.0081257009
-0.092731588
0.0076238076
-0.10870312
0.0070658098
-0.12693369
0.0063768522
-0.14707989
0.0054934348
-0.16819814
0.004624127
-0.19061719
0.0039876686
-0.21744977
0.0034540756
-0.24886726
0.0029617187
-0.28474904
0.0025106465
-0.32549437
0.0020658982
-0.37279949
0.0016935118
-0.42485856
0.0013412759
-0.4872161
0.0010203122
-0.5557953
0.00072562504
-0.63747904
0.0004139652
-0.72826253
0.00013787677
-0.83584052
-0.91660556
0.014939745
-0.010611255
-0.015093198
0.01474623
-0.012515883
0.014507592
-0.014782914
0.014220516
-0.017478675
0.013883668
-0.020681781
0.013498111
-0.024481289
0.013067968
-0.02897782
0.012600556
-0.034285929
0.01210449
-0.040538289
0.011586645
-0.047890397
0.011051778
-0.056520937
0.010507577
-0.066624368
0.0099576197
-0.078426499
0.0093987184
-0.092173609
0.0088125597
-0.10811849
0.0081508828
-0.12627467
0.007318451
-0.14625131
0.0062744163
-0.16715805
0.0052988238
-0.18964382
0.0045849904
-0.21673542
0.0039748115
-0.24825534
0.0034082241
-0.2841814
0.0028928234
-0.32497712
0.0023734805
-0.37227345
0.0019523279
-0.42440341
0.0015413438
-0.4867903
0.001176295
-0.55545405
0.00083302327
-0.63714546
0.00047542816
-0.72788979
0.00015393376
-0.83555118
-0.91653509
0.016363771
-0.010503168
-0.016471778
0.0162181
-0.012370056
0.016028563
-0.014593135
0.015789967
-0.017239743
0.015498133
-0.020389528
0.015150839
-0.024133538
0.014748818
-0.028575372
0.014296167
-0.033832945
0.013799306
-0.040041249
0.013264715
-0.047355838
0.012697867
-0.055954366
0.012106085
-0.066033106
0.011493124
-0.07781429
0.010855595
-0.09153717
0.010171642
-0.10743636
0.009386178
-0.12549232
0.0083780552
-0.14524762
0.0071472971
-0.16593172
0.0060697862
-0.18856882
0.0052686235
-0.21593362
0.0045717921
-0.24755652
0.0039210379
-0.28352958
0.0033329522
-0.32438727
0.0027258149
-0.37165769
0.0022509619
-0.42387917
0.0017711141
-0.48628894
0.001356076
-0.55506542
0.0009553854
-0.63675793
0.00054620453
-0.72746766
0.00017111604
-0.83520894
-0.91646362
0.017806754
-0.010448416
-0.017861143
0.017720493
-0.012283369
0.01759463
-0.014466767
0.017421199
-0.017065792
0.017192919
-0.020160701
0.016904032
-0.023844102
0.016551294
-0.028222138
0.016134654
-0.033415927
0.015657005
-0.039563405
0.015122833
-0.046821707
0.014536958
-0.0553688
0.013905455
-0.065402181
0.013231263
-0.077140951
0.01250938
-0.090816563
0.01171091
-0.10664004
0.010776575
-0.12456162
0.0095545726
-0.14403069
0.0081146012
-0.16449688
0.006949315
-0.18740637
0.0060489863
-0.21503251
0.0052543045
-0.24675958
0.0045091876
-0.28278348
0.0038388181
-0.32371543
0.003130071
-0.37093844
0.0025956093
-0.42326872
0.0020347409
-0.48569866
0.0015628575
-0.55462165
0.0010972704
-0.63630891
0.00062680833
-0.72699384
0.00018972167
-0.83480383
-0.91639207
0.019283536
-0.010452698
-0.019278681
0.01926294
-0.012262131
0.019208385
-0.01441151
0.019110452
-0.016967116
0.018959295
-0.020008789
0.018745661
-0.023629745
0.018461906
-0.027937751
0.018102934
-0.033056479
0.017666656
-0.039126869
0.017153553
-0.046308611
0.016565681
-0.054781228
0.015906228
-0.06474333
0.015175546
-0.076411208
0.014364727
-0.090007217
0.013435751
-0.10571361
0.012312678
-0.12344277
0.010825228
-0.14254904
0.0091816877
-0.16285917
0.0079472501
-0.18617506
0.0069367265
-0.21402098
0.0060317485
-0.24585202
0.0051824508
-0.28193338
0.0044183511
-0.32295047
0.0035975648
-0.37010559
0.0029920187
-0.42255969
0.0023369206
-0.48500666
0.0018003553
-0.55411223
0.001261592
-0.63578948
0.00071806441
-0.72645799
0.00021040606
-0.83432711
-0.91631957
0.02081619
-0.010513895
-0.020754279
0.020860688
-0.012305837
0.020878654
-0.014428613
0.020859717
-0.016947274
0.020792502
-0.019940667
0.020664937
-0.023501324
0.02046507
-0.027737136
0.020182286
-0.032773121
0.019808335
-0.038752576
0.01933768
-0.04583789
0.018766995
-0.054210786
0.018094037
-0.064070953
0.017313591
-0.075631764
0.016408691
-0.089104002
0.015325037
-0.10463293
0.013959521
-0.12208217
0.012164207
-0.14076036
0.010365328
-0.16106685
0.0090684262
-0.18488153
0.0079412328
-0.21289245
0.006913362
-0.24482121
0.0059508565
-0.28097039
0.0050789575
-0.3220787
0.004141235
-0.36915556
0.0034449607
-0.42175472
0.0026827615
-0.48420043
0.0020729788
-0.55352595
0.001449519
-0.63518641
0.00082242381
-0.72584944
0.00023281879
-0.83376802
-0.91624527
0.022413963
-0.010625408
-0.022301666
0.022517721
-0.012408719
0.022605221
-0.01451516
0.022664909
-0.017005973
0.022683627
-0.019958407
0.022646907
-0.023463682
0.022539097
-0.027628512
0.022344493
-0.032577866
0.022048448
-0.038456093
0.021638058
-0.045427322
0.02110204
-0.0536749
0.020429355
-0.063398779
0.019604568
-0.074808013
0.018595262
-0.088096606
0.017316058
-0.1033572
0.015628543
-0.12040032
0.013541005
-0.13868038
0.011690707
-0.15922384
0.010317378
-0.18351167
0.0090680531
-0.21164129
0.0079079943
-0.24365777
0.0068241516
-0.27988654
0.0058284865
-0.32108463
0.0047702524
-0.36808767
0.0039627321
-0.42085748
0.0030786912
-0.4832663
0.0023859667
-0.55284619
0.0016622625
-0.63448029
0.00094234729
-0.72515697
0.00026307584
-0.83311734
-0.91586558
0.024099256
-0.010786439
-0.023937355
0.024256935
-0.012565393
0.024403239
-0.014660417
0.024529858
-0.017131566
0.02462404
-0.020051605
0.024669577
-0.023508295
0.024648472
-0.027606577
0.024541202
-0.032469894
0.02432715
-0.038241503
0.023985138
-0.045084991
0.023493395
-0.053183129
0.022827731
-0.06273351
0.021955265
-0.073936603
0.020815837
-0.086959338
0.019267268
-0.10181266
0.017173286
-0.11831287
0.014947578
-0.1364633
0.013172104
-0.15745634
0.011697886
-0.18204078
0.010314709
-0.21025542
0.0090245431
-0.24236375
0.0078109046
-0.27867363
0.0066740032
-0.31995123
0.0054914034
-0.36690122
0.0045565809
-0.41986614
0.00353669
-0.48218965
0.002744841
-0.55204469
0.0019039186
-0.63364715
0.001079756
-0.72436809
0.00029441267
-0.83235733
-0.91578726
0.025791645
-0.010989831
-0.025587666
0.025997919
-0.012771137
0.026196936
-0.014859
0.026378486
-0.017312668
0.026531745
-0.020204328
0.026642468
-0.023618419
0.026692601
-0.027656069
0.026660133
-0.032436775
0.026518984
-0.038099749
0.026239086
-0.044804612
0.02578593
-0.052729746
0.025116734
-0.062064558
0.024169091
-0.072990053
0.022832217
-0.085624946
0.020927846
-0.099912983
0.018536505
-0.11592914
0.016455456
-0.13439208
0.014777897
-0.1557874
0.013176082
-0.18044163
0.011677403
-0.20875251
0.010238514
-0.24092063
0.0089119511
-0.27734886
0.0076196076
-0.31866449
0.0063095188
-0.3655948
0.0052306803
-0.41875888
0.0040689854
-0.48096021
0.0031583387
-0.55108742
0.0021825173
-0.6326606
0.0012355996
-0.72346341
0.00032732989
-0.83146957
-0.91570594
0.027238675
-0.011206146
-0.027022152
0.027463334
-0.012995571
0.027691523
-0.015086939
0.027914425
-0.017535278
0.028117834
-0.020407371
0.028285149
-0.023785249
0.028396555
-0.027766844
0.028426487
-0.032465956
0.028341737
-0.038014194
0.02810086
-0.044562984
0.02765306
-0.052281437
0.026929563
-0.061341142
0.025827056
-0.071888773
0.024198423
-0.083999358
0.022084028
-0.097804297
0.019917376
-0.11377155
0.018023622
-0.13250948
0.016361171
-0.15413388
0.014773204
-0.17885496
0.013178063
-0.20715095
0.01162459
-0.23936261
0.010122403
-0.27584976
0.008665696
-0.31721529
0.0072298974
-0.36417073
0.0059860609
-0.41750144
0.00467605
-0.4795709
0.0036306566
-0.54995466
0.0025033382
-0.63149733
0.0014133579
-0.72242258
0.00036354304
-0.83043501
-0.91561912
0.028209461
-0.011402374
-0.028013004
0.02840898
-0.013194794
0.028607472
-0.015285051
0.028802798
-0.017730111
0.028990277
-0.020594114
0.029154759
-0.023948569
0.0292723
-0.027882876
0.029309802
-0.032501837
0.029225665
-0.03792851
0.028962921
-0.044298932
0.02844991
-0.05176758
0.027600194
-0.060491473
0.026333701
-0.070623947
0.024665864
-0.082335785
0.022904991
-0.096051201
0.021337989
-0.11221573
0.019789145
-0.13097292
0.018140143
-0.15249341
0.016436714
-0.17715054
0.014761007
-0.20546585
0.013090676
-0.23768788
0.011444342
-0.27420727
0.0098128635
-0.31559248
0.0082555203
-0.36263417
0.0068303539
-0.41607653
0.0053605641
-0.47802501
0.0041615009
-0.54864454
0.0028692519
-0.63014566
0.0016160915
-0.72122218
0.00040359056
-0.8292314
-0.91552995
0.027707267
-0.011611892
-0.027498053
0.027918976
-0.013406721
0.02812194
-0.015488114
0.028300121
-0.017908186
0.028437073
-0.020730719
0.028523321
-0.024034229
0.028550093
-0.027908716
0.028504167
-0.032454527
0.028369758
-0.037792534
0.028089949
-0.044017929
0.027607766
-0.051284997
0.026905737
-0.059790434
0.026025358
-0.069746899
0.025065549
-0.081382691
0.024060767
-0.095057245
0.022875199
-0.11104382
0.021410874
-0.12952118
0.0197884
-0.15087772
0.018127008
-0.17548465
0.016405905
-0.20373168
0.014667278
-0.23594531
0.012880923
-0.27242468
0.011093004
-0.31381367
0.0093876586
-0.36095905
0.0077664272
-0.4144786
0.0061300448
-0.47634197
0.0047537387
-0.54713277
0.0032823837
-0.6285946
0.0018470412
-0.71983455
0.00044654336
-0.82782848
-0.91544327
0.02569255
-0.011887139
-0.025417564
0.025996781
-0.013711253
0.026329392
-0.015821081
0.026684089
-0.018263264
0.027043713
-0.021090706
0.027378818
-0.024369741
0.02764075
-0.028171187
0.027762796
-0.032577337
0.027700387
-0.037731163
0.027484089
-0.043803171
0.027149338
-0.050953019
0.026747054
-0.059392972
0.026339729
-0.069347158
0.025876222
-0.080929712
0.025173793
-0.094367775
0.024162709
-0.11004672
0.022930009
-0.12829907
0.021462914
-0.14941324
0.019824787
-0.17383702
0.018078867
-0.20196841
0.01624462
-0.23410622
0.014392322
-0.27057726
0.012486589
-0.31191903
0.010603906
-0.35911008
0.0087696925
-0.41269206
0.0069851111
-0.47456236
0.0054094292
-0.54539509
0.0037483476
-0.62683245
0.002112649
-0.71820638
0.00048692585
-0.82618022
-0.91536386
0.023029365
-0.012120925
-0.022796289
0.023290543
-0.01397339
0.023583238
-0.016115017
0.023910002
-0.018591698
0.024276921
-0.021459783
0.024690766
-0.024786278
0.025165985
-0.028649658
0.025726927
-0.033142219
0.026310268
-0.038319438
0.026838562
-0.044337871
0.027219906
-0.051343124
0.027227595
-0.059412244
0.026839964
-0.06897394
0.026369658
-0.080476751
0.025805469
-0.093819846
0.0250897
-0.10933998
0.024119383
-0.12733133
0.022879944
-0.14816808
0.021420062
-0.17236011
0.019727494
-0.20025544
0.017885007
-0.23226012
0.01594274
-0.26863922
0.013941768
-0.30992796
0.011926527
-0.35712663
0.0098740858
-0.41069911
0.0079276082
-0.47268149
0.006125332
-0.54351939
0.0042683618
-0.62487651
0.0024197099
-0.71627276
0.0005111676
-0.82422603
-0.91529999
0.022545637
-0.012332636
-0.022337017
0.022776224
-0.01420758
0.023029033
-0.016372032
0.023304902
-0.01887247
0.023602939
-0.021763529
0.023919463
-0.025109445
0.02424792
-0.028985854
0.024575161
-0.033478513
0.024920638
-0.038675496
0.025264896
-0.044694423
0.025615501
-0.051707634
0.026169081
-0.059981316
0.0266439
-0.069469132
0.026588105
-0.080443272
0.026240738
-0.093482026
0.025703826
-0.10879685
0.024994673
-0.12660871
0.024078974
-0.14723232
0.022822386
-0.17107694
0.021240502
-0.19865362
0.019444678
-0.23046389
0.017492152
-0.26668813
0.015407255
-0.30785041
0.013305391
-0.35505231
0.011113861
-0.40856475
0.0089274041
-0.47060429
0.0068889875
-0.54156887
0.004840358
-0.62277798
0.0027733682
-0.71405437
0.00052573711
-0.82193322
-0.91422393
0.021768787
-0.012550365
-0.021555427
0.022008336
-0.014452086
0.022276138
-0.016645425
0.02257359
-0.019176207
0.02290076
-0.022097735
0.023255406
-0.025471927
0.023631836
-0.029370971
0.024023803
-0.0338801
0.024441656
-0.039104126
0.024903852
-0.045169148
0.025396317
-0.052215769
0.025782099
-0.060387708
0.026182835
-0.069888653
0.026607338
-0.080867851
0.026616691
-0.093483977
0.026146147
-0.1083011
0.025517931
-0.12592833
0.024787166
-0.1464622
0.023868524
-0.17012739
0.022497154
-0.19726909
0.020789147
-0.22875811
0.018941914
-0.26484007
0.016899082
-0.30581741
0.01469647
-0.35287708
0.012379903
-0.40629595
0.0099963731
-0.46833897
0.0077205537
-0.53944575
0.0054682453
-0.62051064
0.0031896402
-0.71160203
0.00084911207
-0.81958356
-0.91300355
0.021106024
-0.012740633
-0.020917658
0.021317846
-0.014665941
0.021555128
-0.016884814
0.021819679
-0.019442884
0.022113125
-0.02239322
0.022437029
-0.025797599
0.022792815
-0.029727947
0.023180416
-0.034267778
0.023591955
-0.039513674
0.024006415
-0.045577711
0.024393446
-0.052590076
0.024737582
-0.060708222
0.025000571
-0.070117571
0.02522206
-0.081056363
0.025761965
-0.093989597
0.026188148
-0.10870125
0.025822137
-0.12554882
0.025258122
-0.14587096
0.02447509
-0.169325
0.023371785
-0.19616424
0.021891154
-0.22727758
0.020266569
-0.2632177
0.018270187
-0.3038424
0.015989912
-0.35062902
0.013666207
-0.40401429
0.011090708
-0.46586717
0.0086129796
-0.537089
0.0061277647
-0.61799442
0.0036640381
-0.70892387
0.001334334
-0.81718243
-0.9128601
0.02024052
-0.012921999
-0.020055732
0.020449277
-0.014870667
0.020684227
-0.017115001
0.020947403
-0.019700424
0.021240439
-0.022679563
0.02156424
-0.026113423
0.021918705
-0.030072859
0.022302834
-0.034640404
0.022715741
-0.039912635
0.023158035
-0.046003032
0.023634248
-0.053045355
0.024147986
-0.061196111
0.024695456
-0.070633868
0.025222359
-0.081549789
0.025345129
-0.094078691
0.025482114
-0.10880921
0.025824768
-0.12586672
0.025376689
-0.14540037
0.024592803
-0.16852868
0.023753028
-0.19531404
0.022642439
-0.22615855
0.021250883
-0.26184107
0.019516099
-0.3021432
0.017198247
-0.34835161
0.014910183
-0.40177898
0.012180322
-0.46324428
0.0094891866
-0.53449836
0.0068250386
-0.61531991
0.004141971
-0.70612442
0.0015225161
-0.81436724
-0.91246671
0.019314015
-0.013080074
-0.019151292
0.019498132
-0.015049471
0.019705951
-0.017316757
0.019939926
-0.019927486
0.020202614
-0.022934373
0.020496565
-0.026398413
0.020824056
-0.030390184
0.021186525
-0.034991384
0.021583287
-0.040296489
0.022009229
-0.046414602
0.022451575
-0.053471888
0.022888467
-0.061615924
0.023290866
-0.071018308
0.023657911
-0.08189876
0.024123098
-0.094526713
0.024388781
-0.10905933
0.024643912
-0.126106
0.025007513
-0.14574989
0.024566295
-0.16807223
0.023876873
-0.1946028
0.023041421
-0.22531504
0.021927948
-0.26075157
0.020365921
-0.30062141
0.01820915
-0.34625181
0.015954828
-0.39961738
0.013165926
-0.4606134
0.010351724
-0.53181387
0.0074725892
-0.6124827
0.0045533222
-0.70324425
0.0016245768
-0.81134195
-0.91215365
0.018377227
-0.013232801
-0.018222886
0.018552624
-0.015223102
0.018751579
-0.017513799
0.018976681
-0.020150543
0.019230448
-0.023186002
0.0195152
-0.026680999
0.019832958
-0.030705852
0.020185372
-0.035341945
0.020573881
-0.040683609
0.021000314
-0.046840404
0.0214677
-0.053939759
0.021979571
-0.062129983
0.02254183
-0.071584937
0.023133526
-0.082497048
0.02367727
-0.095078956
0.024252972
-0.10964413
0.02452494
-0.12638534
0.024513882
-0.14573667
0.024547834
-0.1680879
0.023890846
-0.19392224
0.022983608
-0.22438485
0.021867659
-0.25962612
0.020714031
-0.29948064
0.018899628
-0.34448513
0.016661028
-0.39748852
0.014044074
-0.45815712
0.011099217
-0.5289651
0.008072937
-0.60950147
0.0047828943
-0.70008101
0.0013179517
-0.80796422
-0.91193916
0.016839507
-0.013358852
-0.016710608
0.016985801
-0.015366172
0.017151391
-0.017675756
0.017338223
-0.020333309
0.017548321
-0.023391584
0.017783751
-0.026911472
0.018046551
-0.030963291
0.018338559
-0.035628267
0.018661013
-0.041000188
0.019013743
-0.047187279
0.019393285
-0.054313749
0.019788481
-0.062520077
0.020180821
-0.071972878
0.020549239
-0.082862229
0.020893837
-0.095421066
0.021145991
-0.10989402
0.021428653
-0.12666509
0.02174783
-0.14605069
0.02210591
-0.16843697
0.022490988
-0.19430033
0.021942176
-0.22383531
0.021057284
-0.25874959
0.020278317
-0.29872442
0.019073318
-0.34333608
0.017004257
-0.39551062
0.014614168
-0.45584678
0.011702864
-0.52606579
0.0086691331
-0.60651071
0.0050780672
-0.69657044
0.00036801367
-0.80330648
-0.90926928
0.015667
-0.013475959
-0.015547397
0.015802844
-0.015499003
0.01595675
-0.017826013
0.016130635
-0.020502753
0.016326378
-0.023581898
0.016545626
-0.027124058
0.0167895
-0.031198965
0.017058354
-0.035887007
0.017351907
-0.041281255
0.017669959
-0.047489948
0.018013755
-0.0546387
0.018388431
-0.062871905
0.018797466
-0.072354546
0.019241819
-0.083274472
0.019699003
-0.095842071
0.020182911
-0.11033913
0.020574287
-0.12701857
0.020867871
-0.14631343
0.021031388
-0.1685853
0.021180797
-0.19445903
0.021389929
-0.22408946
0.02043032
-0.25789289
0.019436459
-0.29791387
0.018647511
-0.34275727
0.016853046
-0.39387579
0.014687888
-0.4537112
0.011977097
-0.52332511
0.0090650895
-0.60361217
0.0057544759
-0.69332748
0.0024790108
-0.79995234
-0.90875351
0.014261897
-0.013566339
-0.014175103
0.014361026
-0.015602147
0.014474256
-0.017943721
0.014603588
-0.020637042
0.014751372
-0.023735127
0.014920437
-0.027299047
0.015114307
-0.031399207
0.015337304
-0.03611676
0.015594235
-0.041545188
0.015888961
-0.04779173
0.01622327
-0.054979851
0.016593936
-0.063248878
0.016989276
-0.072755377
0.017396225
-0.083685825
0.017810069
-0.096259326
0.018177301
-0.11070896
0.018544591
-0.12738774
0.018850666
-0.14662084
0.01910415
-0.16884122
0.018918231
-0.19427112
0.018503089
-0.22366468
0.018695422
-0.25806581
0.018202382
-0.29741108
0.017357547
-0.341927
0.016041634
-0.39260429
0.014278368
-0.45194774
0.011825635
-0.52087123
0.0091252336
-0.60087545
0.0060550498
-0.69028422
0.0025710882
-0.79641264
-0.90807976
0.013370494
-0.013640491
-0.013299553
0.013451146
-0.015686526
0.013542487
-0.018039397
0.013645474
-0.020745085
0.013760928
-0.023856499
0.013889476
-0.027434519
0.014031314
-0.031549129
0.014185792
-0.036280684
0.014350696
-0.041721136
0.014521911
-0.047975822
0.014692556
-0.055165409
0.014858589
-0.063432063
0.015025568
-0.072941984
0.015204012
-0.083886502
0.015409547
-0.096489505
0.015682364
-0.11100818
0.015985743
-0.12771845
0.016314882
-0.14697688
0.016589335
-0.16914121
0.016940394
-0.1946516
0.017311589
-0.22406728
0.01703325
-0.25777315
0.01657737
-0.29678741
0.015632388
-0.34070848
0.014342869
-0.39104652
0.012999672
-0.45044348
0.011190262
-0.5189328
0.0088529152
-0.59853036
0.0063112617
-0.68769027
0.0027071112
-0.792566
-0.90689462
0.011654119
-0.01367607
-0.011622024
0.011690418
-0.015727015
0.011731454
-0.018085481
0.011777838
-0.020797557
0.011830316
-0.023916316
0.011889768
-0.027502827
0.011957317
-0.031627371
0.012034671
-0.03637091
0.012124665
-0.041826567
0.012232055
-0.048101622
0.012363941
-0.055318945
0.012526761
-0.063619952
0.012722357
-0.073166833
0.012945432
-0.084144197
0.013179733
-0.096765
0.013393112
-0.11127039
0.013574863
-0.12795596
0.013694708
-0.14715649
0.013728463
-0.16923015
0.013525236
-0.19448303
0.012883425
-0.22343546
0.012360977
-0.25724525
0.012353679
-0.29684131
0.012263285
-0.34066388
0.011745707
-0.39043595
0.010676462
-0.44927212
0.0091442525
-0.51737935
0.0072846905
-0.59654516
0.0057542259
-0.6858307
0.0033192428
-0.78997542
-0.90550415
0.010592023
-0.01368947
-0.010581073
0.010604151
-0.015742019
0.010617467
-0.018102179
0.010631953
-0.020816028
0.010647545
-0.023936614
0.010664117
-0.027524969
0.010681437
-0.031651297
0.010699018
-0.036396341
0.010715981
-0.041852867
0.010730601
-0.048127327
0.010740499
-0.055341902
0.010742173
-0.063636861
0.010732034
-0.07317397
0.010708874
-0.084140057
0.010674653
-0.09675129
0.010640618
-0.11125879
0.010615321
-0.12795785
0.010614872
-0.14719346
0.010676416
-0.16934577
0.01086323
-0.19474316
0.011101235
-0.22375883
0.010950205
-0.25721809
0.010398184
-0.29640485
0.010330835
-0.34067305
0.010451323
-0.39058219
0.0095898391
-0.44855568
0.0080260378
-0.51617413
0.0062605455
-0.59478972
0.0048157581
-0.68417558
0.0032445763
-0.7885496
-0.90453941
0.0071819335
-0.0072199031
0.0071384452
0.007088648
0.0070319965
0.0069679002
0.0068956784
0.006814516
0.0067234518
0.0066214513
0.006507611
0.006381418
0.0062430581
0.0060931744
0.0059322107
0.0057590209
0.0055680431
0.0053424256
0.0050468591
0.0046416294
0.0041874748
0.0038717643
0.0036377058
0.0027921048
0.0020025369
0.0022185799
0.0030226379
0.0037256167
0.0033496395
0.0026101297
3.7889784e-05
0.0018744502
-0.0018848933
0.0012286121
-0.001218056
0.003140116
-0.0041826459
0.0029171004
0.0051486882
-0.008422747
0.0064143112
0.007245171
-0.014087488
0.011991167
0.0087719558
-0.019663723
0.018137133
0.0097121161
-0.024937335
0.023997408
0.010302812
-0.03034441
0.029753984
0.01072497
-0.036314009
0.035892151
0.011066451
-0.043129948
0.042788779
0.011359206
-0.050999625
0.050707169
0.011612701
-0.060117428
0.059864195
0.01182826
-0.070697513
0.070482172
0.012003324
-0.082980583
0.082805681
0.012133793
-0.097239688
0.097109269
0.01221267
-0.11378205
0.11370307
0.012230855
-0.13290534
0.13288682
0.0121668
-0.15494636
0.15500979
0.011977023
-0.17981204
0.18000106
0.011598456
-0.20726743
0.20764553
0.010941541
-0.23575091
0.23640791
0.010130318
-0.26417808
0.2649899
0.0093809294
-0.29726576
0.29801568
0.0086532954
-0.33688822
0.33761614
0.0078760276
-0.38331655
0.38409412
0.0070278366
-0.43469003
0.43553475
0.0061202249
-0.49585411
0.49675164
0.0051305295
-0.56396417
0.56495165
0.0040433907
-0.64483427
0.64592698
0.0028084172
-0.73663383
0.73787004
0.0014421491
-0.84204573
0.84342018
-0.91721131
0.91859045
0.0025314864
-0.002836649
-0.0015796202
0.0042039057
-0.0058549577
0.0063560757
-0.010574788
0.0080835787
-0.015814837
0.0091505022
-0.020730457
0.0097912368
-0.025577839
0.010233459
-0.030786366
0.010587419
-0.036667675
0.010893413
-0.043435638
0.011163156
-0.05126908
0.011399094
-0.060353112
0.011599801
-0.070898008
0.011761821
-0.083142445
0.011880783
-0.097358608
0.011949532
-0.11385092
0.011958732
-0.1329149
0.011884864
-0.15487316
0.011687197
-0.17961515
0.011302533
-0.20688321
0.010642427
-0.23509071
0.0098451406
-0.26338016
0.0091174474
-0.29653753
0.0084082878
-0.33617879
0.0076501831
-0.38255821
0.0068232006
-0.43386657
0.0059393805
-0.49498007
0.0049766712
-0.56300292
0.0039205721
-0.64377212
0.0027209784
-0.73543303
0.001396133
-0.84071268
-0.91587591
0.0032992948
-0.0041053197
-0.0020305127
0.0052196095
-0.0077751646
0.0071208285
-0.012475877
0.0084048223
-0.017098676
0.0091849113
-0.021510358
0.0096942447
-0.026086946
0.010078396
-0.031170257
0.010401895
-0.036990887
0.010687428
-0.043720879
0.010940961
-0.051522336
0.01116298
-0.060574887
0.011351162
-0.071085981
0.011501815
-0.083292943
0.011610602
-0.097467363
0.011670373
-0.11391084
0.011671612
-0.13291655
0.011588933
-0.1547912
0.011385349
-0.17941238
0.010996443
-0.20649475
0.010335005
-0.23442915
0.009553308
-0.26259782
0.0088474366
-0.29583112
0.0081567722
-0.33548789
0.0074182402
-0.38181951
0.0066129847
-0.43306489
0.0057535148
-0.49413004
0.0048184402
-0.56206858
0.0037941468
-0.6427413
0.0026308266
-0.73426852
0.0013488689
-0.8394224
-0.91458644
0.0042415803
-0.0057104206
-0.0026363673
0.006162018
-0.0096954923
0.0076562056
-0.013969938
0.008579176
-0.018021495
0.0091539401
-0.022084937
0.0095649345
-0.026497718
0.0099018031
-0.031506871
0.010198626
-0.037287434
0.010465483
-0.043987455
0.010703923
-0.051760511
0.010912729
-0.060783457
0.011088885
-0.071261934
0.01122859
-0.083432499
0.011327578
-0.097566331
0.011378709
-0.11396215
0.01137224
-0.13291053
0.011281164
-0.15470088
0.011072772
-0.17920483
0.010680137
-0.20610256
0.01001821
-0.23376707
0.0092535217
-0.26183246
0.0085696575
-0.29514672
0.0078977453
-0.33481577
0.0071793728
-0.38110104
0.006396583
-0.43228571
0.0055622814
-0.49330481
0.0046556926
-0.56116201
0.0036641715
-0.64174282
0.0025381809
-0.73314137
0.0013002679
-0.83817615
-0.91334461
0.0052540337
-0.0075070578
-0.0034572831
0.0068767758
-0.011318129
0.0079450086
-0.015038047
0.0086008389
-0.018677179
0.0090457648
-0.022529684
0.0093962917
-0.026848031
0.0097015295
-0.031811864
0.0099778044
-0.037563443
0.010228566
-0.044237947
0.0104532
-0.051984892
0.010649478
-0.060979507
0.010814042
-0.071426298
0.010943137
-0.083561448
0.011032614
-0.097655802
0.011075347
-0.11400508
0.011061363
-0.13289704
0.010962644
-0.15460297
0.010750219
-0.17899327
0.010353684
-0.20570646
0.00969234
-0.23310555
0.0089461128
-0.26108554
0.0082844541
-0.29448452
0.0076316022
-0.33416275
0.0069339583
-0.38040335
0.006174336
-0.43152973
0.0053659725
-0.49250516
0.0044886562
-0.56028406
0.0035307953
-0.64077761
0.0024431408
-0.7320526
0.0012503755
-0.83697518
-0.91215164
0.0061022795
-0.0091531506
-0.0044560744
0.0073009216
-0.012516668
0.008042481
-0.01577949
0.008525712
-0.019160271
0.0088898077
-0.022893609
0.0092003735
-0.027158393
0.0094819571
-0.032093214
0.0097410295
-0.037822262
0.0099774019
-0.044474063
0.010189198
-0.052196447
0.010373521
-0.061163611
0.010526886
-0.071579467
0.010645694
-0.083680117
0.010725938
-0.097736053
0.010760527
-0.11403991
0.010739303
-0.13287636
0.010633732
-0.15449826
0.010417895
-0.17877833
0.010017382
-0.20530637
0.0093578143
-0.23244579
0.0086314308
-0.26035845
0.0079920862
-0.29384463
0.0073586003
-0.33352912
0.0066822272
-0.37972699
0.0059464484
-0.43079764
0.0051647734
-0.49173181
0.0043174965
-0.55943558
0.0033941535
-0.63984657
0.0023458081
-0.7310032
0.0011992283
-0.83582068
-0.91100841
0.0066640574
-0.010410587
-0.0054065178
0.0074825494
-0.013335066
0.0080070356
-0.016303869
0.0083852502
-0.019538355
0.0086989205
-0.023207119
0.0089819534
-0.027441233
0.0092450714
-0.03235611
0.0094893285
-0.038066278
0.0097126477
-0.04469714
0.0099123663
-0.052395936
0.010085213
-0.061336246
0.010227736
-0.071721799
0.010336572
-0.083788818
0.010407863
-0.097807368