/*--------------------------------*- C++ -*----------------------------------*\
| =========                 |                                                 |
| \\      /  F ield         | OpenFOAM: The Open Source CFD Toolbox           |
|  \\    /   O peration     | Version:  2406                                  |
|   \\  /    A nd           | Website:  www.openfoam.com                      |
|    \\/     M anipulation  |                                                 |
\*---------------------------------------------------------------------------*/
FoamFile
{
    version     2.0;
    format      ascii;
    arch        "LSB;label=32;scalar=64";
    class       volVectorField;
    location    "0.004";
    object      UMean;
}
// * * * * * * * * * * * * * * * * * * * * * * * * * * * * * * * * * * * * * //

dimensions      [0 1 -1 0 0 0 0];

internalField   nonuniform List<vector> 
23203
(
(53.082895 17.559378 -2.8891041e-21)
(53.394951 17.110111 0)
(53.692534 16.679081 0)
(53.975287 16.265658 0)
(54.243069 15.869328 2.9776558e-21)
(54.496329 15.489544 -6.5710711e-21)
(54.735689 15.12577 -3.5117086e-21)
(54.961847 14.777411 0)
(55.175523 14.443814 0)
(55.377902 14.124035 3.5386838e-21)
(55.569647 13.8172 -1.0408529e-20)
(55.751218 13.52242 -6.8094296e-21)
(55.922858 13.238824 3.3462445e-21)
(56.084684 12.965537 -9.8812924e-21)
(56.236693 12.701667 0)
(56.37862 12.446404 0)
(56.510134 12.198858 -9.5305084e-21)
(56.631013 11.958219 6.3033923e-21)
(56.740971 11.723451 -6.2716315e-21)
(56.839538 11.49368 6.2579384e-21)
(56.92611 11.267874 -1.5660592e-20)
(56.999768 11.045126 -2.2026721e-20)
(57.059664 10.824213 6.3474504e-21)
(57.105012 10.604026 1.6087271e-20)
(57.134698 10.383 1.3122793e-20)
(57.147132 10.159818 3.3671588e-21)
(57.140588 9.9324942 1.0457657e-20)
(57.112869 9.6992493 0)
(57.061578 9.4573893 0)
(56.98484 9.2051744 0)
(56.883572 8.9426589 1.7786359e-20)
(56.762717 8.6741082 1.9208622e-20)
(56.627285 8.4031912 2.0685481e-20)
(56.479339 8.1313515 5.5470763e-21)
(56.319591 7.8587278 -5.9271604e-21)
(56.148307 7.5850899 2.5259631e-20)
(55.96581 7.3102731 -3.3552487e-20)
(55.773218 7.0348155 -1.7759208e-20)
(55.572608 6.7599883 2.7467435e-25)
(55.365966 6.4868925 -6.6833962e-20)
(55.154184 6.2156519 0)
(54.938752 5.9470248 6.4409029e-20)
(54.722804 5.6831065 -7.1602719e-20)
(54.511615 5.4273924 4.6828054e-21)
(54.312639 5.1855075 8.2453079e-20)
(54.136491 4.9647548 7.4629026e-20)
(53.995671 4.7751817 5.0166494e-21)
(53.891784 4.617157 6.979455e-20)
(53.808993 4.4769083 1.5742839e-19)
(53.734528 4.3451989 9.6906835e-21)
(53.663934 4.2191091 -4.767131e-21)
(53.596078 4.0977067 7.9723144e-20)
(53.530695 3.9805957 -9.2240837e-21)
(53.467692 3.8675217 7.7088818e-20)
(53.407022 3.7582675 7.5779635e-20)
(53.348648 3.6526371 1.8617952e-25)
(53.292538 3.5504442 1.3776146e-19)
(53.238659 3.4515062 -4.2294619e-21)
(53.18698 3.3556461 1.2879819e-19)
(53.137475 3.2626918 8.1613685e-21)
(53.090109 3.1724766 -4.0073331e-21)
(53.044849 3.0848371 -1.2588885e-19)
(53.001671 2.999621 0)
(52.960535 2.9166712 -1.2506688e-19)
(52.921392 2.8358502 -1.1540767e-19)
(52.884201 2.7570159 1.0762365e-24)
(52.848903 2.6800374 0)
(52.815439 2.6047854 -1.091132e-19)
(52.783741 2.5311402 -3.454042e-21)
(52.753737 2.4589828 8.3187448e-25)
(52.725363 2.388205 0)
(52.698553 2.3187006 0)
(52.673246 2.250371 -2.0491235e-19)
(52.649387 2.1831202 -1.3058175e-24)
(52.626915 2.1168583 -3.0818065e-21)
(52.605773 2.0515004 6.0466435e-21)
(52.585907 1.9869622 1.8384925e-19)
(52.567256 1.9231727 1.861672e-19)
(52.549773 1.8600679 -1.7980132e-19)
(52.533437 1.7975714 0)
(52.518196 1.7355863 -1.7574597e-19)
(52.503976 1.6740255 0)
(52.490602 1.6128598 1.66271e-19)
(52.478124 1.5520183 2.5808503e-21)
(52.466472 1.491511 0)
(52.455532 1.4312111 -1.5919258e-19)
(52.445308 1.3710943 0)
(52.435752 1.3110772 1.5302369e-19)
(52.426896 1.2511166 -1.5101782e-19)
(52.418696 1.191123 2.3012558e-21)
(52.411119 1.1310678 -1.1288649e-21)
(52.404125 1.0708868 0)
(52.39761 1.0104859 0)
(52.39158 0.94985944 2.7152534e-19)
(52.386042 0.88888382 -8.1731148e-27)
(52.380937 0.82752633 -2.6117132e-19)
(52.376236 0.76570293 0)
(52.371909 0.70337114 8.8602093e-25)
(52.36791 0.64045973 0)
(52.3643 0.57689345 -2.4257989e-19)
(52.360964 0.51267551 -8.1304288e-25)
(52.358154 0.44751331 0)
(52.355493 0.38186491 -2.2870081e-19)
(52.353561 0.3144548 2.2409587e-19)
(52.351302 0.24758142 0)
(52.350331 0.1768706 0)
(52.347145 0.10944624 2.1152791e-19)
(52.344355 0.034850242 -1.9739718e-19)
(52.739507 17.714668 0)
(53.068696 17.275565 4.4381915e-21)
(53.382446 16.852629 8.8897529e-25)
(53.680786 16.445417 -4.2008692e-21)
(53.963833 16.053611 -4.0914953e-21)
(54.231991 15.676922 7.9795164e-21)
(54.485842 15.314994 -3.8973858e-21)
(54.726042 14.967378 3.8098163e-21)
(54.95328 14.63354 7.4597631e-21)
(55.168364 14.312786 -3.6552976e-21)
(55.371902 14.004351 1.0761517e-20)
(55.564334 13.707423 -3.5256771e-21)
(55.745931 13.42118 3.4706072e-21)
(55.916837 13.144788 -6.8415075e-21)
(56.077066 12.877403 3.3780764e-21)
(56.226426 12.618167 -1.0025413e-20)
(56.364632 12.366264 1.3248453e-20)
(56.491458 12.120929 0)
(56.606618 11.881095 6.5580355e-21)
(56.709638 11.645915 3.2762642e-21)
(56.799915 11.414345 1.3136471e-20)
(56.876582 11.18535 -6.6085426e-21)
(56.938769 10.957798 3.3361176e-21)
(56.985594 10.730533 -1.015954e-20)
(57.015883 10.501876 -3.4583408e-21)
(57.02801 10.270365 1.4221597e-20)
(57.020124 10.033983 0)
(56.989952 9.7906813 0)
(56.935209 9.5377803 1.2238469e-20)
(56.854853 9.2740749 2.1790769e-20)
(56.751522 9.0011524 -4.6816315e-21)
(56.63096 8.7242777 -1.5086149e-20)
(56.497154 8.4462866 -2.1542549e-20)
(56.351211 8.1679793 0)
(56.193434 7.8891929 0)
(56.023975 7.6095708 -2.5961948e-20)
(55.843378 7.3290859 2.0616973e-20)
(55.653135 7.0485499 3.6282335e-20)
(55.455408 6.7693785 0)
(55.251859 6.4924359 8.0119407e-21)
(55.043282 6.2177457 -8.3815959e-21)
(54.831628 5.9464147 8.7477157e-21)
(54.620523 5.6808069 6.3726708e-20)
(54.415774 5.4249101 -8.0215845e-20)
(54.225703 5.1846881 4.8617243e-21)
(54.061383 4.9680044 -1.5352655e-19)
(53.933987 4.7844227 7.9546134e-20)
(53.840255 4.63032 -1.5770626e-19)
(53.763032 4.490975 -8.2603137e-20)
(53.691892 4.3589638 -7.6528413e-20)
(53.623847 4.2322639 7.9998386e-20)
(53.558237 4.1101976 -9.2564653e-21)
(53.494926 3.9924297 4.5508105e-21)
(53.433855 3.8787178 0)
(53.374991 3.7688454 0)
(53.318309 3.6626157 -1.3828447e-19)
(53.263783 3.5598417 -1.3586843e-19)
(53.211385 3.4603405 4.1712306e-21)
(53.161091 3.3639353 -1.3520354e-19)
(53.112882 3.2704542 1.2876358e-19)
(53.066726 3.179731 3.9514515e-21)
(53.022597 3.0916027 -3.8790626e-21)
(52.980475 3.0059174 0)
(52.940323 2.9225191 -1.2337817e-19)
(52.9021 2.8412696 1.1745773e-19)
(52.865767 2.7620267 -1.1168558e-19)
(52.831269 2.6846599 0)
(52.798552 2.6090395 -9.8909326e-25)
(52.767549 2.5350455 0)
(52.738193 2.4625586 -1.0693803e-19)
(52.710424 2.3914704 0)
(52.68418 2.3216741 1.0296287e-19)
(52.6594 2.2530709 1.0102344e-19)
(52.636034 2.185564 3.9647175e-19)
(52.614023 2.1190632 3.0389203e-21)
(52.593312 2.0534829 1.8782653e-19)
(52.573849 1.9887384 -3.7432898e-19)
(52.555578 1.9247584 2.8703851e-21)
(52.538453 1.8614732 1.7451353e-19)
(52.52245 1.7988043 -1.7395422e-19)
(52.507521 1.7366696 1.7334536e-19)
(52.493589 1.6749792 0)
(52.480493 1.6136997 8.21657e-25)
(52.468277 1.5527722 0)
(52.456875 1.4921701 0)
(52.446167 1.4317762 0)
(52.436161 1.3715756 1.5429207e-19)
(52.426812 1.3114623 1.1814658e-21)
(52.418146 1.2514285 -1.1569487e-21)
(52.410126 1.1913818 1.4671369e-19)
(52.402721 1.1312685 -2.8677316e-19)
(52.395884 1.0710363 1.0943992e-21)
(52.38952 1.0105981 2.7472709e-19)
(52.383631 0.94993024 -1.0526905e-21)
(52.378223 0.88892521 0)
(52.37324 0.82754451 2.6023143e-19)
(52.368652 0.76569992 -1.9828832e-21)
(52.364431 0.70335074 -4.9676135e-19)
(52.36053 0.64042885 0)
(52.357009 0.57685304 -8.3945442e-25)
(52.353754 0.51262753 2.3567054e-19)
(52.351019 0.44746764 -4.5059491e-22)
(52.348413 0.38180775 2.2628764e-19)
(52.346547 0.31441144 -4.4343874e-19)
(52.344304 0.24753127 0)
(52.343419 0.17683046 0)
(52.340208 0.10940457 -5.0337239e-23)
(52.337418 0.034817277 4.7572159e-23)
(52.348397 17.841367 -4.4839912e-21)
(52.698327 17.414305 -7.347199e-25)
(53.031827 17.00143 -4.2473034e-21)
(53.349088 16.60246 4.1398156e-21)
(53.650329 16.217221 -8.0836892e-21)
(53.935944 15.845564 0)
(54.206476 15.487277 0)
(54.46254 15.142057 7.5609221e-21)
(54.704789 14.809513 -7.4094816e-21)
(54.933915 14.489119 -3.6368313e-21)
(55.150513 14.180235 -3.5732722e-21)
(55.355035 13.882152 7.0337578e-21)
(55.547787 13.594121 -6.9327642e-21)
(55.728945 13.315369 1.026708e-20)
(55.898552 13.045107 3.3856559e-21)
(56.05648 12.782491 1.0060048e-20)
(56.20249 12.526739 1.6688025e-24)
(56.336354 12.277118 3.3132748e-21)
(56.457786 12.032559 -3.3047689e-21)
(56.566316 11.792232 -3.3080295e-21)
(56.661343 11.555084 -1.3286987e-20)
(56.742042 11.32002 1.3391126e-20)
(56.80752 11.085904 -1.3554667e-20)
(56.856805 10.851532 1.3790424e-20)
(56.888665 10.615155 0)
(56.901441 10.375186 1.8190358e-20)
(56.893186 10.129534 4.7205408e-25)
(56.861633 9.8760498 1.588103e-20)
(56.804884 9.6122582 -3.7894004e-20)
(56.723114 9.3382798 -3.1514307e-20)
(56.620437 9.0574369 4.8004671e-25)
(56.502169 8.7746514 -5.1742445e-21)
(56.370996 8.4913178 1.6571446e-20)
(56.227579 8.2077601 2.9398577e-20)
(56.072141 7.9236975 0)
(55.904917 7.6388018 2.6435215e-20)
(55.726744 7.353345 1.4355198e-24)
(55.539339 7.0684076 7.3572011e-21)
(55.344794 6.7853789 5.4083376e-20)
(55.144436 6.5047402 0)
(54.939216 6.2266654 0)
(54.731585 5.9527619 8.8017421e-21)
(54.525603 5.6857373 -9.1425349e-21)
(54.327684 5.430221 1.4182131e-19)
(54.146671 5.1924333 -6.7952721e-20)
(53.993871 4.9808219 9.8518433e-21)
(53.87821 4.8032742 -9.8515546e-21)
(53.792055 4.6518228 -2.1752522e-24)
(53.718855 4.5124321 0)
(53.650463 4.3796272 -4.7269761e-21)
(53.58475 4.2519863 -6.9745524e-20)
(53.521269 4.1289688 -4.5727501e-21)
(53.459936 4.010268 4.4956845e-21)
(53.400712 3.8956477 7.5129165e-20)
(53.343576 3.7848921 1.8334035e-25)
(53.288512 3.6778046 1.3657145e-19)
(53.235499 3.5741985 -4.1930013e-21)
(53.184519 3.4738912 -4.1190488e-21)
(53.135551 3.3767066 4.0455331e-21)
(53.088582 3.2824737 -1.2713629e-19)
(53.043584 3.1910268 0)
(53.000538 3.1022035 -3.8279142e-21)
(52.959426 3.0158523 -1.1384054e-25)
(52.920219 2.9318177 3.6890098e-21)
(52.882878 2.8499611 -1.1232538e-19)
(52.847369 2.7701402 -3.5563746e-21)
(52.813641 2.6922242 3.4899057e-21)
(52.781642 2.6160828 1.0958296e-19)
(52.75131 2.5415957 -6.722815e-21)
(52.722582 2.4686426 -1.0225333e-19)
(52.695399 2.3971146 0)
(52.669704 2.3269037 -1.0162213e-19)
(52.645438 2.2579105 0)
(52.622552 2.1900372 -3.0556552e-21)
(52.600991 2.1231926 2.9991557e-21)
(52.580703 2.0572904 -1.8829083e-19)
(52.561637 1.9922449 3.6933233e-19)
(52.543739 1.927984 -1.8401377e-19)
(52.526965 1.8644346 5.5555886e-21)
(52.51129 1.8015181 1.7166769e-19)
(52.496666 1.7391586 -1.7106582e-19)
(52.48302 1.6772589 -2.621736e-21)
(52.4702 1.6157825 -1.6447678e-19)
(52.458244 1.5546717 -1.5575025e-19)
(52.447088 1.4938968 -4.9464868e-21)
(52.436611 1.433346 2.4265364e-21)
(52.426819 1.3730022 -1.5223719e-19)
(52.417678 1.3127627 0)
(52.409206 1.2526077 1.1427604e-21)
(52.40137 1.192439 -1.4481154e-19)
(52.394138 1.1322179 -1.1470994e-24)
(52.387463 1.0718894 0)
(52.381253 1.0113605 -2.7114931e-19)
(52.375507 0.95060998 2.6587497e-19)
(52.370233 0.88953061 2.608529e-19)
(52.365375 0.82808154 -2.5584305e-19)
(52.360904 0.76617429 -2.495445e-19)
(52.356792 0.70376833 -8.857892e-25)
(52.352994 0.64079382 -1.4140291e-21)
(52.349567 0.57717128 2.3666692e-19)
(52.346397 0.51289833 4.5337722e-22)
(52.343739 0.44770265 0)
(52.341194 0.38199412 0)
(52.339398 0.31457237 2.1877147e-19)
(52.337177 0.24764585 2.145001e-19)
(52.336382 0.17691285 0)
(52.333149 0.10944725 -4.1254309e-19)
(52.330358 0.034818473 0)
(51.967609 17.942423 4.399079e-21)
(52.336398 17.528847 -8.013752e-25)
(52.687985 17.127555 0)
(53.022661 16.73841 -4.0837318e-21)
(53.340718 16.361342 3.9887064e-21)
(53.64255 15.9963 3.9062358e-21)
(53.928654 15.643181 3.8247417e-21)
(54.199591 15.301804 -1.5001811e-20)
(54.455962 14.971894 0)
(54.698388 14.653058 -3.6190568e-21)
(54.927424 14.344784 3.5614686e-21)
(55.143514 14.046474 -1.0532072e-20)
(55.346972 13.757469 3.4647466e-21)
(55.537991 13.477067 0)
(55.716634 13.204545 -1.0178805e-20)
(55.882816 12.939088 -3.3676503e-21)
(56.03633 12.67996 -3.3463796e-21)
(56.176956 12.426438 -1.3343985e-20)
(56.304395 12.177473 1.333944e-20)
(56.418178 11.932242 4.9510041e-25)
(56.5177 11.689688 -1.6818241e-20)
(56.602155 11.44868 0)
(56.670624 11.208053 1.3779884e-20)
(56.722056 10.96654 -1.4053265e-20)
(56.755138 10.72234 0)
(56.768163 10.473761 -1.8641933e-20)
(56.75911 10.218639 3.8880191e-21)
(56.725807 9.9548263 -2.0473561e-20)
(56.667023 9.6803901 2.6114257e-20)
(56.584409 9.3970917 3.2579637e-20)
(56.482982 9.1091818 0)
(56.367111 8.8204527 1.5962621e-20)
(56.238573 8.5314872 5.6655394e-21)
(56.097753 8.2424639 -6.0132337e-21)
(55.944767 7.9530202 6.3688429e-21)
(55.779964 7.6629385 6.7304885e-21)
(55.604479 7.3727875 -7.0933788e-21)
(55.420196 7.0838054 0)
(55.229053 6.7971996 2.9978872e-24)
(55.032112 6.5131712 8.1678387e-21)
(54.830637 6.232268 -8.5148012e-21)
(54.627543 5.9564649 0)
(54.427355 5.6888515 9.1801796e-21)
(54.237105 5.4346196 -1.609622e-19)
(54.066036 5.2001601 -9.68939e-21)
(53.925426 4.9943865 9.790771e-21)
(53.821144 4.8223366 -6.8311385e-20)
(53.741891 4.6726003 -9.6419286e-21)
(53.672554 4.5328861 -7.5949078e-20)
(53.606973 4.3992628 0)
(53.543695 4.270701 0)
(53.482446 4.1467583 0)
(53.423193 4.0271517 -6.6609245e-20)
(53.365913 3.9116514 1.5830072e-24)
(53.310599 3.8000423 -4.289128e-21)
(53.257243 3.6921278 0)
(53.205831 3.5877217 -1.3248877e-19)
(53.15635 3.4866408 -4.0668701e-21)
(53.108786 3.3887099 1.3180703e-19)
(53.063131 3.2937581 -3.9223298e-21)
(53.019362 3.2016202 -1.193805e-19)
(52.977466 3.1121338 -1.2099482e-19)
(52.937431 3.025148 0)
(52.899228 2.9405073 2.3680362e-19)
(52.862827 2.8580729 1.0729207e-19)
(52.828195 2.7777019 3.5100919e-21)
(52.795287 2.6992635 -1.1021825e-19)
(52.764054 2.6226266 -1.081801e-19)
(52.734438 2.5476705 0)
(52.706379 2.4742741 1.0091117e-19)
(52.679821 2.4023279 3.1940252e-21)
(52.65471 2.3317231 0)
(52.63099 2.2623595 9.5318844e-20)
(52.608616 2.1941384 -1.8703305e-19)
(52.587534 2.1269677 4.8353299e-26)
(52.567695 2.0607604 1.8576331e-19)
(52.549049 1.9954298 -3.6721443e-19)
(52.531547 1.9309032 0)
(52.515145 1.8671039 1.7542078e-19)
(52.499817 1.803953 0)
(52.485517 1.7413841 1.6615346e-19)
(52.472175 1.6792842 5.1738298e-21)
(52.459645 1.6176261 -2.5361721e-21)
(52.447962 1.5563486 -7.9517433e-25)
(52.437066 1.4954144 -1.5613396e-19)
(52.426831 1.4347176 -1.5083858e-19)
(52.417266 1.3742386 -2.3453091e-21)
(52.408342 1.3138702 0)
(52.400072 1.2535999 0)
(52.392426 1.1933278 -1.417534e-19)
(52.385376 1.1330102 2.7818024e-19)
(52.378868 1.0725949 0)
(52.372818 1.0119863 0)
(52.367222 0.95116202 -2.6343559e-19)
(52.362085 0.8900174 -5.1376696e-19)
(52.357357 0.82850848 9.8599564e-22)
(52.353008 0.7665477 4.9436875e-19)
(52.349009 0.70409307 4.837657e-19)
(52.345317 0.64107458 -2.3808377e-19)
(52.341985 0.57741379 0)
(52.338904 0.51310102 -4.4728806e-22)
(52.336325 0.44787849 -2.2418022e-19)
(52.333844 0.38212833 0)
(52.332117 0.31469093 0)
(52.329922 0.24772503 -2.1136875e-19)
(52.329217 0.17697074 -3.0345931e-22)
(52.325962 0.10946608 2.0345628e-19)
(52.323171 0.034813721 0)
(51.596367 18.019515 -4.3155447e-21)
(51.982175 17.620671 9.6810183e-26)
(52.350188 17.23225 4.1179934e-21)
(52.700768 16.854238 -5.2374198e-26)
(53.034262 16.48666 1.1825536e-20)
(53.351064 16.129544 -1.1588705e-20)
(53.651633 15.782879 -7.5809146e-21)
(53.936478 15.446582 1.1163973e-20)
(54.206138 15.120478 0)
(54.461162 14.804286 0)
(54.702051 14.497609 1.0652311e-20)
(54.929217 14.199959 -3.5059439e-21)
(55.142965 13.910768 -3.464975e-21)
(55.343487 13.629413 -1.3722548e-20)
(55.530855 13.35524 3.4027237e-21)
(55.70501 13.087469 1.014531e-20)
(55.865766 12.825427 3.3673537e-21)
(56.012909 12.568383 -6.7248743e-21)
(56.146119 12.315319 -3.365898e-21)
(56.264918 12.065421 -1.3527248e-20)
(56.368694 11.817625 1.7042705e-20)
(56.456639 11.570767 3.4499121e-21)
(56.527801 11.323657 -3.5069223e-21)
(56.581052 11.074942 0)
(56.614991 10.822781 3.6913496e-21)
(56.627849 10.565377 -3.8280948e-21)
(56.61759 10.300525 0)
(56.582323 10.026223 1.6924184e-20)
(56.521879 9.7415648 -4.5038314e-21)
(56.439489 9.4500265 -9.6221e-21)
(56.340245 9.155889 -5.1370089e-21)
(56.227244 8.8616959 0)
(56.101591 8.567489 -2.9043248e-20)
(55.963498 8.2732895 -1.2300205e-20)
(55.813075 7.978695 1.299771e-20)
(55.650909 7.6837121 -2.0556924e-20)
(55.478423 7.3891919 -2.8828169e-20)
(55.297572 7.0964542 0)
(55.110036 6.806429 3.0918812e-24)
(54.916742 6.5192121 8.2455288e-21)
(54.719407 6.2358268 -6.864746e-20)
(54.521376 5.9585412 -8.9069058e-21)
(54.327716 5.6909643 -7.3705142e-20)
(54.146013 5.4387025 7.5802977e-20)
(53.985829 5.2083719 -7.7289723e-20)
(53.857962 5.0089865 1.5556534e-19)
(53.764392 4.8417603 -7.7266831e-20)
(53.691186 4.6931063 7.6228104e-20)
(53.625403 4.5529484 7.503997e-20)
(53.562584 4.4185298 -6.4594311e-20)
(53.501765 4.2890958 -9.0745416e-21)
(53.442788 4.1642762 -7.1379191e-20)
(53.385657 4.043807 7.0163892e-20)
(53.330363 3.9274645 -7.7577893e-20)
(53.276909 3.8150352 4.2348376e-21)
(53.225296 3.7063232 4.1608232e-21)
(53.175518 3.6011428 1.3079587e-19)
(53.127568 3.4993112 0)
(53.081437 3.4006539 -1.2616489e-19)
(53.037124 3.3050005 3.8716085e-21)
(52.994612 3.2121865 1.2160149e-19)
(52.953891 3.1220501 1.1939805e-19)
(52.914954 3.0344403 -3.6600109e-21)
(52.877779 2.9492027 -2.3008883e-19)
(52.842338 2.866198 1.1294362e-19)
(52.808604 2.785283 0)
(52.776534 2.7063272 1.0876063e-19)
(52.746085 2.6291987 1.0339908e-19)
(52.717201 2.5537767 3.273449e-21)
(52.689825 2.4799393 9.9574158e-20)
(52.663907 2.4075765 3.151612e-21)
(52.639394 2.3365787 0)
(52.616234 2.2668454 7.4879043e-25)
(52.594384 2.1982766 2.9764732e-21)
(52.573793 2.1307796 -1.8980385e-19)
(52.554413 2.0642665 -3.6635087e-19)
(52.536199 1.9986501 1.8264892e-19)
(52.519102 1.9338569 -2.7551727e-21)
(52.50308 1.8698067 -3.4613777e-19)
(52.48811 1.8064206 1.6711504e-19)
(52.474142 1.7436428 5.2038371e-21)
(52.461108 1.6813399 2.8453258e-26)
(52.448878 1.6194965 2.6661428e-26)
(52.437475 1.558051 1.5423198e-19)
(52.426844 1.4969564 1.5638363e-19)
(52.416857 1.4361134 -2.3628257e-21)
(52.407525 1.3754956 1.4802812e-19)
(52.398822 1.3150052 -1.1357382e-21)
(52.39076 1.2546152 1.4470491e-19)
(52.383309 1.1942372 2.7748256e-19)
(52.376445 1.1338206 2.1439163e-21)
(52.370109 1.0733163 -2.102783e-21)
(52.364222 1.0126262 -8.1089347e-27)
(52.358779 0.95172674 -2.5888997e-19)
(52.353785 0.89051654 2.5489021e-19)
(52.349189 0.82894601 -2.4899654e-19)
(52.344965 0.76693145 -2.4386172e-19)
(52.341081 0.70442669 8.9873047e-25)
(52.337498 0.64136308 2.3483434e-19)
(52.334264 0.57766356 0)
(52.331274 0.51330988 2.2590048e-19)
(52.328775 0.44805992 2.2200297e-19)
(52.326361 0.38226693 2.0968418e-27)
(52.324702 0.31481418 -2.132895e-19)
(52.322534 0.24780627 0)
(52.321923 0.17703269 -2.0422897e-19)
(52.318645 0.10948171 4.8950077e-23)
(52.315855 0.03481108 -4.5615576e-23)
(51.233562 18.073979 -8.4685329e-21)
(51.63471 17.690915 -4.1417455e-21)
(52.017643 17.31644 -4.0528188e-21)
(52.382763 16.950653 -7.9440242e-21)
(52.730441 16.593667 0)
(53.061065 16.245584 -3.8225476e-21)
(53.375058 15.90647 1.1265916e-20)
(53.672878 15.576323 0)
(53.955001 15.255057 0)
(54.221905 14.942484 3.5864788e-21)
(54.474031 14.638312 -3.5384731e-21)
(54.711751 14.342149 6.9991828e-21)
(54.935344 14.05352 6.9299672e-21)
(55.144989 13.771879 -1.4746151e-24)
(55.340756 13.496643 0)
(55.522594 13.227064 -6.7974523e-21)
(55.690326 12.962549 0)
(55.843739 12.702346 1.0172502e-20)
(55.982483 12.445481 4.4492664e-25)
(56.106067 12.191135 -5.2643705e-25)
(56.213858 11.938244 1.7292968e-20)
(56.305033 11.685604 -1.4032486e-20)
(56.378594 11.432006 -1.4301985e-20)
(56.433337 11.17599 0)
(56.467763 10.915682 0)
(56.480056 10.649186 0)
(56.468259 10.374329 -1.2403912e-20)
(56.431064 10.089537 -2.1886715e-20)
(56.36973 9.7955046 -4.662051e-21)
(56.288686 9.4969188 -1.4916346e-20)
(56.192212 9.1972019 0)
(56.082281 8.8978248 0)
(55.959626 8.5985498 2.3804632e-20)
(55.824358 8.2993053 0)
(55.676662 7.9997513 -3.3138958e-20)
(55.517418 7.7001903 6.9712013e-21)
(55.348267 7.4016884 7.3181955e-21)
(55.171139 7.1055362 2.2974687e-20)
(54.987406 6.8123259 -6.3934081e-20)
(54.798066 6.5222703 6.657252e-20)
(54.605351 6.2368788 6.050896e-20)
(54.413001 5.9586846 8.9553088e-21)
(54.2267 5.6919131 8.3162583e-20)
(54.054461 5.4423913 7.5798787e-20)
(53.906092 5.2171014 -9.6244298e-21)
(53.791231 5.0244503 -7.7135223e-20)
(53.707438 4.861233 1.5284662e-19)
(53.639551 4.7131659 8.4744516e-20)
(53.577133 4.5724905 -9.2660028e-21)
(53.517072 4.4373052 1.5494099e-19)
(53.458751 4.3070453 4.0003289e-25)
(53.402097 4.1813939 5.2862699e-20)
(53.347137 4.0601023 7.7940135e-20)
(53.293877 3.9429537 0)
(53.242328 3.8297365 0)
(53.192503 3.7202557 0)
(53.144401 3.6143274 0)
(53.098022 3.5117686 0)
(53.053363 3.4124062 0)
(53.010429 3.3160706 1.1844898e-19)
(52.969208 3.2225976 3.7513271e-21)
(52.929695 3.131827 1.1784009e-19)
(52.891889 3.0436073 0)
(52.855771 2.9577853 1.1352438e-19)
(52.821319 2.8742213 1.2863676e-24)
(52.788509 2.7927723 3.4179159e-21)
(52.757304 2.7133078 -3.3537101e-21)
(52.727662 2.6356955 -1.0861687e-19)
(52.699533 2.5598144 6.4594032e-21)
(52.672863 2.485542 -6.337132e-21)
(52.647605 2.412768 6.2187173e-21)
(52.623709 2.3413819 -9.7622594e-20)
(52.601127 2.2712829 8.0839062e-25)
(52.579817 2.20237 -2.9363315e-21)
(52.559732 2.1345499 1.8148164e-19)
(52.540826 2.0677338 1.8358775e-19)
(52.523058 2.0018342 0)
(52.506378 1.9367765 1.7403462e-19)
(52.490748 1.8724773 1.6805779e-19)
(52.476147 1.8088618 2.6176352e-21)
(52.462521 1.7458711 0)
(52.449807 1.6833673 -2.5175715e-21)
(52.437885 1.6213399 -1.5554039e-19)
(52.426771 1.5597287 0)
(52.41641 1.4984749 -1.5422296e-19)
(52.406679 1.437487 4.6593215e-21)
(52.397588 1.3767302 -2.9660677e-19)
(52.389113 1.3161148 2.2403042e-21)
(52.381263 1.255609 -1.405829e-19)
(52.374014 1.1951266 -1.3791368e-19)
(52.36734 1.1346136 -2.7066406e-19)
(52.361182 1.0740202 0)
(52.355463 1.0132498 0)
(52.350177 0.95227656 2.5435593e-19)
(52.345328 0.89100173 2.5141038e-19)
(52.340869 0.82937003 2.4655712e-19)
(52.336772 0.76730261 2.3867411e-19)
(52.333006 0.70474893 -2.3491426e-19)
(52.329535 0.64164127 9.0486513e-22)
(52.326402 0.57790368 -4.4373541e-22)
(52.323505 0.51351027 -4.4563255e-19)
(52.321087 0.44823406 -4.2683443e-22)
(52.318742 0.38239846 -2.1433379e-19)
(52.317152 0.31493268 4.1950621e-19)
(52.315016 0.24788182 2.0592823e-19)
(52.314496 0.1770938 4.0258009e-19)
(52.311197 0.10949114 1.9781087e-19)
(52.30841 0.03480948 1.8434777e-19)
(50.880556 18.107066 4.1533795e-21)
(51.295307 17.740632 4.0697434e-21)
(51.691596 17.380984 3.9915131e-21)
(52.069831 17.028325 -7.8373455e-21)
(52.430383 16.682849 1.1544777e-20)
(52.773623 16.344729 3.7841763e-21)
(53.099935 16.014097 3.7229859e-21)
(53.409723 15.691022 0)
(53.703401 15.375493 0)
(53.981379 15.067406 1.0717485e-20)
(54.244037 14.766554 -1.0594958e-20)
(54.491695 14.472637 0)
(54.724599 14.185262 3.4688318e-21)
(54.942902 13.903959 1.0334862e-20)
(55.146657 13.628211 0)
(55.335812 13.357298 -3.4190222e-21)
(55.510185 13.090727 -4.0080043e-25)
(55.669555 12.827703 1.0269695e-20)
(55.81353 12.567305 1.0323229e-20)
(55.941602 12.308709 -3.4699771e-21)
(56.053107 12.050836 2.0892175e-24)
(56.147191 11.792446 -2.0037305e-24)
(56.222798 11.532312 1.4601104e-20)
(56.278642 11.268847 0)
(56.313131 11.000155 -3.8888016e-21)
(56.324442 10.724262 2.030134e-20)
(56.310881 10.439191 4.2734293e-21)
(56.272127 10.144281 4.1978037e-25)
(56.21102 9.8421461 -4.8246845e-21)
(56.132327 9.5375795 2.5667844e-20)
(56.039061 9.2327714 4.3986538e-25)
(55.932414 8.9285185 -5.7697048e-21)
(55.812901 8.6244191 -2.4377737e-20)
(55.680582 8.3203341 2.5693167e-20)
(55.535825 8.0161077 2.7028196e-20)
(55.379822 7.7123502 5.6743116e-20)
(55.214348 7.410266 0)
(55.041196 7.1109892 -3.1018252e-20)
(54.861469 6.8148276 0)
(54.676449 6.522339 -1.3432365e-19)
(54.488863 6.2354353 -6.9641778e-20)
(54.302871 5.9569855 -8.9995951e-21)
(54.124797 5.6918337 9.2606963e-21)
(53.962942 5.4458694 -7.5711159e-20)
(53.827246 5.2265736 8.6135909e-20)
(53.725271 5.0406591 -1.9104588e-20)
(53.650159 4.8805485 -6.6107941e-20)
(53.586989 4.732702 -7.4415891e-20)
(53.5278 4.5914747 0)
(53.470502 4.4555604 -6.3002218e-20)
(53.414719 4.324525 -7.9644319e-20)
(53.360432 4.1980903 0)
(53.307691 4.0760204 -7.6943254e-20)
(53.256509 3.9581051 1.6801856e-20)
(53.20691 3.8441353 -8.2536483e-21)
(53.158913 3.7339178 0)
(53.112526 3.6272702 -1.2742194e-19)
(53.067755 3.5240102 -7.8212362e-21)
(53.024605 3.4239662 7.6799398e-21)
(52.983084 3.3269695 -1.2062792e-19)
(52.943185 3.2328567 1.2213105e-19)
(52.904911 3.1414686 1.714282e-24)
(52.868265 3.0526541 -7.1258153e-21)
(52.833232 2.966261 1.155158e-19)
(52.799795 2.88215 -1.0994891e-19)
(52.767934 2.8001774 0)
(52.737616 2.7202135 1.0586632e-19)
(52.708804 2.6421255 1.0065125e-19)
(52.681451 2.5657924 3.1860338e-21)
(52.655506 2.4910913 -1.0003618e-19)
(52.630926 2.4179116 9.5084416e-20)
(52.607665 2.346142 1.0231582e-19)
(52.585676 2.2756814 -9.7427646e-20)
(52.564923 2.2064281 -2.8964393e-21)
(52.545358 2.138288 2.8398357e-21)
(52.52694 2.0711717 -2.786727e-21)
(52.509629 2.0049911 1.7772677e-19)
(52.493379 1.9396708 -1.7166611e-19)
(52.478152 1.8751242 2.6311491e-21)
(52.46393 1.8112836 -1.7033584e-19)
(52.450656 1.7480766 1.6201545e-19)
(52.43827 1.6853766 2.4830625e-21)
(52.426666 1.6231653 3.1169997e-19)
(52.415848 1.5613891 0)
(52.405766 1.4999773 2.9942599e-19)
(52.396298 1.4388436 1.4706983e-19)
(52.387454 1.37795 1.417971e-19)
(52.379212 1.3172111 -1.8871063e-26)
(52.371581 1.2565894 4.3336721e-21)
(52.364539 1.1960031 -2.1249884e-21)
(52.35806 1.1353932 5.3383882e-19)
(52.352084 1.0747121 -2.6183147e-19)
(52.346537 1.0138617 -2.5578511e-19)
(52.341412 0.95281629 7.4597368e-27)
(52.336713 0.89147585 -1.9285575e-21)
(52.332394 0.82978416 -2.4126357e-19)
(52.328427 0.76766486 9.334549e-25)
(52.324783 0.70506262 -2.3263145e-19)
(52.321425 0.64191188 -2.2755906e-19)
(52.318395 0.57813672 -8.7519995e-22)
(52.315594 0.51370416 2.1974538e-19)
(52.313258 0.44840272 -4.2093441e-22)
(52.310985 0.3825243 2.1169569e-19)
(52.309464 0.3150468 7.7097939e-25)
(52.307362 0.24795232 -2.0291698e-19)
(52.306924 0.17715739 -1.9852166e-19)
(52.303614 0.10949209 -3.8998468e-19)
(52.300833 0.034809149 -3.6384787e-19)
(50.538636 18.119967 4.0778707e-21)
(50.965196 17.770825 0)
(51.373212 17.426702 0)
(51.763072 17.087899 1.9326485e-20)
(52.135128 16.754685 -1.1408443e-20)
(52.489718 16.427297 -1.4981805e-20)
(52.827181 16.105927 3.6921807e-21)
(53.147868 15.790707 -7.286648e-21)
(53.452128 15.48169 -3.6002128e-21)
(53.740304 15.178843 -7.118741e-21)
(54.012712 14.882035 3.5257066e-21)
(54.269616 14.591043 -6.993283e-21)
(54.511218 14.305548 -6.9462616e-21)
(54.737635 14.025152 -3.2944921e-25)
(54.948889 13.749399 1.033773e-20)
(55.144924 13.477588 0)
(55.325534 13.209342 -3.4454553e-21)
(55.490476 12.943799 -3.4587627e-21)
(55.639314 12.680102 -6.9680277e-21)
(55.771508 12.417414 0)
(55.886355 12.154632 -1.4295176e-20)
(55.982957 11.89048 1.0928931e-20)
(56.060184 11.623705 -4.0290397e-25)
(56.116668 11.352588 3.8521189e-21)
(56.150741 11.075222 4.0039387e-21)
(56.160674 10.789631 -1.6775041e-20)
(56.14534 10.494373 1.3279992e-20)
(56.10583 10.19028 0)
(56.046213 9.8814604 0)
(55.970593 9.5717561 -2.1185979e-20)
(55.8808 9.2622544 1.6818616e-20)
(55.777579 8.9534174 2.9596719e-20)
(55.661305 8.6447094 3.1183355e-20)
(55.532068 8.336014 -5.9029933e-20)
(55.390521 8.0274751 -2.0652862e-20)
(55.238106 7.7199538 -3.6052793e-20)
(55.076643 7.4146993 0)
(54.907687 7.1125706 0)
(54.732218 6.8137672 0)
(54.551964 6.5193342 6.7728962e-20)
(54.370076 6.2314748 1.3142825e-19)
(54.191224 5.9535473 9.0371236e-21)
(54.022295 5.6908717 -7.4188068e-20)
(53.871778 5.449375 0)
(53.749491 5.2369762 -7.6060071e-20)
(53.659868 5.0573915 7.5640909e-20)
(53.592317 4.8995086 -9.3329874e-21)
(53.533403 4.751634 -5.5126931e-20)
(53.477362 4.60985 6.3263368e-20)
(53.422847 4.4732519 0)
(53.369643 4.3414942 6.9890859e-20)
(53.31777 4.2143271 0)
(53.267292 4.091525 0)
(53.218234 3.9728847 0)
(53.170627 3.8581999 8.1459537e-21)
(53.1245 3.7472794 -8.0012825e-21)
(53.079869 3.6399433 2.5147435e-19)
(53.036744 3.5360098 1.2347837e-19)
(52.995137 3.4353093 0)
(52.955064 3.337674 -1.264176e-19)
(52.916521 3.242942 -1.0955847e-19)
(52.879517 3.1509548 -7.1682613e-21)
(52.844061 3.0615619 1.1951945e-19)
(52.810141 2.9746125 -1.0704334e-19)
(52.777746 2.8899673 -3.3893401e-21)
(52.746861 2.8074826 1.0643833e-19)
(52.717454 2.7270298 -2.0887488e-19)
(52.689495 2.6484752 3.2028154e-21)
(52.662939 2.5716982 9.7421195e-20)
(52.63774 2.4965754 9.8670415e-20)
(52.613858 2.4229963 -1.9361689e-19)
(52.591249 2.3508485 0)
(52.569871 2.2800313 -9.3180328e-20)
(52.549689 2.2104417 0)
(52.53066 2.141985 0)
(52.512745 2.0745721 -1.7583177e-19)
(52.495904 2.0081133 -1.7259052e-19)
(52.480095 1.9425328 2.6453389e-21)
(52.465285 1.8777409 -2.5948234e-21)
(52.451452 1.813679 -1.6289433e-19)
(52.43854 1.750255 -1.5977558e-19)
(52.426492 1.6873616 0)
(52.415215 1.6249677 -3.0739828e-19)
(52.404702 1.5630267 0)
(52.394905 1.5014589 -1.4986032e-19)
(52.385707 1.4401797 4.5318723e-21)
(52.377118 1.3791512 -2.2203198e-21)
(52.369116 1.3182892 -2.1782313e-21)
(52.36171 1.2575539 2.1372988e-21)
(52.354879 1.1968621 -1.340517e-19)
(52.348602 1.1361581 1.1736704e-24)
(52.342812 1.0753886 2.5818675e-19)
(52.337442 1.0144595 2.5321531e-19)
(52.332482 0.95334345 0)
(52.327936 0.8919372 9.5237122e-22)
(52.32376 0.83018673 2.3789863e-19)
(52.319927 0.76801624 9.1511881e-22)