/*--------------------------------*- C++ -*----------------------------------*\
| =========                 |                                                 |
| \\      /  F ield         | OpenFOAM: The Open Source CFD Toolbox           |
|  \\    /   O peration     | Version:  2406                                  |
|   \\  /    A nd           | Website:  www.openfoam.com                      |
|    \\/     M anipulation  |                                                 |
\*---------------------------------------------------------------------------*/
FoamFile
{
    version     2.0;
    format      ascii;
    arch        "LSB;label=32;scalar=64";
    class       volScalarField;
    location    "0.05";
    object      rho;
}
// * * * * * * * * * * * * * * * * * * * * * * * * * * * * * * * * * * * * * //

dimensions      [1 -3 0 0 0 0 0];

internalField   nonuniform List<scalar> 
2065
(
1.2032707
1.2033142
1.20259
1.1940768
1.1949577
1.1959357
1.196989
1.1980818
1.1992464
1.2003247
1.20117
1.2015271
1.2017465
1.201968
1.2022059
1.2024052
1.202576
1.2027371
1.2029076
1.2030871
1.2032617
1.2033062
1.2025769
1.1885496
1.1889133
1.1894382
1.1899534
1.1904206
1.1908528
1.1912758
1.1917161
1.1922002
1.1927531
1.1933974
1.1941448
1.1949972
1.1959471
1.1969767
1.1980481
1.1991973
1.2002661
1.2011347
1.2015028
1.2017237
1.2019426
1.2021825
1.2023852
1.202559
1.2027236
1.2028963
1.2030769
1.203252
1.2032981
1.202573
1.1886709
1.1890027
1.1895115
1.1900313
1.1905115
1.1909576
1.1913915
1.1918379
1.192321
1.1928647
1.1934913
1.1942149
1.1950404
1.1959629
1.1969682
1.1980202
1.1991444
1.2002009
1.2010987
1.2014802
1.2017012
1.2019167
1.2021583
1.2023644
1.2025412
1.2027094
1.2028844
1.203066
1.2032418
1.2032898
1.2025781
1.188804
1.1891062
1.1895923
1.1901101
1.1905987
1.1910563
1.1915002
1.1919527
1.1924361
1.1929728
1.1935848
1.1942873
1.1950877
1.1959836
1.196964
1.1979963
1.1990919
1.2001342
1.201055
1.201459
1.2016791
1.2018905
1.2021334
1.2023428
1.2025227
1.2026945
1.2028716
1.2030544
1.2032311
1.2032812
1.2025881
1.1889462
1.1892241
1.1896824
1.1901918
1.1906845
1.1911505
1.191603
1.1920613
1.192546
1.1930779
1.193678
1.1943621
1.1951393
1.1960096
1.1969649
1.1979766
1.1990497
1.2000732
1.2010004
1.2014386
1.2016575
1.201864
1.2021079
1.2023204
1.2025035
1.2026788
1.2028581
1.2030421
1.2032201
1.203272
1.2026045
1.1890927
1.1893521
1.1897794
1.190276
1.190769
1.1912411
1.1917007
1.1921646
1.1926514
1.1931804
1.1937711
1.1944394
1.1951954
1.1960412
1.1969712
1.1979615
1.199014
1.200021
1.2009423
1.201418
1.2016368
1.2018374
1.2020818
1.2022973
1.2024837
1.2026623
1.2028436
1.2030291
1.2032086
1.2032624
1.2026306
1.189242
1.1894821
1.1898785
1.1903594
1.1908504
1.1913273
1.1917936
1.1922633
1.1927534
1.1932812
1.1938648
1.1945196
1.1952564
1.1960788
1.1969837
1.1979516
1.1989828
1.1999787
1.200887
1.2013962
1.201617
1.201811
1.2020553
1.2022735
1.2024633
1.202645
1.2028288
1.2030156
1.2031967
1.2032526
1.202669
1.1893911
1.1896168
1.1899828
1.1904432
1.1909291
1.1914094
1.1918824
1.1923586
1.1928531
1.1933815
1.19396
1.1946036
1.195323
1.1961232
1.1970029
1.1979473
1.1989552
1.1999294
1.2008321
1.2013758
1.2015986
1.2017851
1.2020287
1.2022492
1.2024424
1.2026271
1.2028136
1.203002
1.2031842
1.2032439
1.2027108
1.1895299
1.1897458
1.1900844
1.1905235
1.191003
1.1914868
1.1919673
1.1924515
1.192952
1.1934827
1.1940583
1.1946926
1.1953963
1.1961752
1.1970298
1.1979492
1.1989295
1.1998778
1.2007763
1.2013546
1.2015814
1.20176
1.202002
1.2022245
1.2024211
1.2026085
1.2027978
1.2029883
1.203171
1.2032354
1.2028268
1.1896518
1.1898569
1.1901693
1.1905943
1.1910709
1.1915602
1.1920502
1.1925443
1.1930526
1.1935875
1.1941619
1.1947886
1.1954777
1.1962361
1.1970653
1.1979579
1.1989052
1.1998294
1.2007239
1.2013329
1.2015657
1.2017362
1.2019758
1.2021996
1.2023995
1.2025892
1.2027809
1.2029747
1.2031568
1.2032262
1.2028562
1.1897568
1.1899722
1.1902684
1.19066
1.1911329
1.1916314
1.192134
1.1926406
1.193159
1.1936997
1.1942741
1.194894
1.1955694
1.1963074
1.1971107
1.1979743
1.1988827
1.1997839
1.2006743
1.2013123
1.2015513
1.2017142
1.2019502
1.2021748
1.2023775
1.2025694
1.2027635
1.2029608
1.2031419
1.2032166
1.2028916
1.1898412
1.1900548
1.1903627
1.1907603
1.1912255
1.1917232
1.1922333
1.1927507
1.1932787
1.193825
1.1943995
1.1950125
1.195674
1.1963911
1.1971676
1.1979999
1.1988659
1.1997456
1.2006359
1.2012943
1.2015391
1.2016946
1.2019256
1.2021504
1.2023553
1.2025489
1.2027456
1.2029466
1.2031264
1.2032075
1.203018
1.1899391
1.1901535
1.1904703
1.1908793
1.1913419
1.1918406
1.1923582
1.1928849
1.1934206
1.1939709
1.194544
1.195149
1.195795
1.19649
1.1972382
1.1980376
1.1988667
1.1997249
1.2006108
1.2012779
1.2015288
1.2016779
1.2019025
1.2021266
1.202333
1.2025278
1.2027266
1.2029312
1.2031104
1.2031995
1.2030058
1.1901188
1.1903418
1.1906545
1.1910416
1.1914938
1.1919986
1.192524
1.193057
1.1935966
1.1941469
1.1947148
1.1953085
1.1959364
1.1966067
1.1973248
1.1980904
1.1988883
1.199718
1.2005702
1.2012537
1.2015246
1.2016649
1.2018813
1.2021039
1.2023109
1.2025063
1.2027061
1.2029144
1.2030938
1.2031931
1.2030154
1.1904349
1.1906607
1.1909456
1.1913091
1.191764
1.1922564
1.192769
1.1932928
1.1938244
1.1943654
1.1949206
1.195497
1.1961024
1.1967445
1.1974294
1.1981591
1.1989241
1.1997188
1.2005285
1.2012243
1.2015255
1.2016561
1.2018625
1.2020826
1.2022893
1.2024846
1.2026849
1.2028958
1.2030763
1.2031863
1.2030708
1.1908917
1.191111
1.1914091
1.1917733
1.1921859
1.1926371
1.1931158
1.1936116
1.194119
1.1946372
1.1951691
1.1957199
1.1962964
1.1969056
1.1975537
1.1982442
1.1989721
1.1997301
1.2005031
1.2011959
1.2015291
1.2016519
1.2018466
1.2020632
1.2022684
1.2024628
1.2026632
1.2028756
1.2030579
1.2031772
1.2031096
1.1915367
1.1917376
1.1920135
1.1923487
1.1927171
1.1931222
1.1935569
1.194012
1.194482
1.1949654
1.1954634
1.1959799
1.1965204
1.1970912
1.1976986
1.1983465
1.1990334
1.1997526
1.2004899
1.2011626
1.2015335
1.2016536
1.2018342
1.2020456
1.2022489
1.2024417
1.2026414
1.2028541
1.2030384
1.2031639
1.2031183
1.1922906
1.1924825
1.1927333
1.1930152
1.1933345
1.19369
1.1940745
1.1944809
1.1949048
1.1953446
1.1958006
1.1962754
1.1967736
1.1973011
1.1978637
1.1984659
1.1991084
1.1997856
1.2004814
1.2011404
1.2015424
1.2016607
1.2018257
1.2020309
1.2022307
1.202421
1.2026197
1.2028312
1.2030184
1.2031458
1.2031694
1.1930992
1.1932667
1.1934754
1.193716
1.1939917
1.1943001
1.1946358
1.1949932
1.195369
1.1957617
1.1961713
1.1965999
1.1970517
1.1975322
1.198047
1.1986011
1.1991967
1.1998289
1.2004788
1.2011231
1.2015602
1.2016758
1.2018226
1.2020177
1.2022146
1.2024018
1.2025983
1.2028071
1.2029972
1.2031222
1.2031014
1.1939009
1.1940378
1.1942112
1.1944146
1.19465
1.1949156
1.1952069
1.1955194
1.1958501
1.1961973
1.1965608
1.1969426
1.1973469
1.1977789
1.1982447
1.1987498
1.1992972
1.199884
1.200495
1.2011221
1.2015808
1.2016958
1.201823
1.2020106
1.2022009
1.2023843
1.2025773
1.202782
1.2029745
1.2030981
1.2029464
1.1946583
1.1947655
1.194908
1.1950779
1.1952767
1.1955042
1.1957569
1.1960306
1.1963221
1.1966291
1.1969508
1.1972891
1.1976481
1.1980333
1.1984511
1.1989079
1.1994076
1.19995
1.200525
1.2011251
1.2015966
1.2017247
1.201833
1.2020025
1.2021895
1.2023684
1.2025566
1.2027562
1.2029486
1.2030692
1.2027469
1.1953604
1.1954412
1.1955539
1.1956915
1.1958554
1.1960469
1.1962645
1.1965045
1.1967628
1.197036
1.1973225
1.1976235
1.1979425
1.1982853
1.1986589
1.1990701
1.1995245
1.2000237
1.2005615
1.2011295
1.2016192
1.2017493
1.2018386
1.2020051
1.2021827
1.2023563
1.2025378
1.2027302
1.2029185
1.2030406
1.2027237
1.1960215
1.1960786
1.196163
1.1962684
1.1963961
1.1965492
1.1967288
1.1969332
1.1971591
1.1974023
1.1976596
1.1979303
1.1982168
1.1985242
1.1988595
1.1992304
1.1996435
1.2001021
1.200604
1.2011405
1.2016261
1.201779
1.2018645
1.2020151
1.2021776
1.2023452
1.2025201
1.2027044
1.2028832
1.2030108
1.202816
1.1965908
1.1966341
1.1966981
1.1967792
1.1968781
1.1969979
1.1971419
1.1973116
1.1975056
1.1977205
1.1979522
1.1981984
1.1984597
1.1987396
1.1990445
1.1993822
1.1997598
1.2001818
1.2006508
1.2011553
1.2016273
1.2018222
1.2018896
1.2020175
1.2021777
1.2023395
1.2025047
1.2026799
1.2028433
1.202975
1.2026447
1.1969648
1.1970166
1.1970909
1.1971812
1.1972742
1.1973712
1.1974883
1.1976298
1.197796
1.1979849
1.1981938
1.1984202
1.198663
1.1989238
1.1992071
1.1995199
1.1998695
1.2002615
1.200698
1.2011722
1.2016392
1.2018613
1.2019106
1.2020336
1.2021891
1.2023375
1.2024921
1.2026582
1.2028
1.2029227
1.2027025
1.1972895
1.1973072
1.1973393
1.1973859
1.1974595
1.1975633
1.197689
1.1978362
1.1979974
1.1981723
1.1983686
1.1985848
1.1988188
1.1990702
1.1993418
1.1996388
1.1999682
1.2003365
1.200747
1.2011968
1.201653
1.2019049
1.2019478
1.202058
1.2021946
1.2023346
1.2024828
1.2026403
1.2027565
1.2028478
1.2027395
1.1975266
1.1975509
1.1975832
1.1976229
1.197673
1.1977393
1.1978263
1.1979388
1.1980862
1.1982673
1.198469
1.1986879
1.1989241
1.1991765
1.1994459
1.1997363
1.2000539
1.2004054
1.2007954
1.2012239
1.2016717
1.2019539
1.2019899
1.2020738
1.2022033
1.2023436
1.2024816
1.2026286
1.2027194
1.2027681
1.2023286
1.1975642
1.1975946
1.1976323
1.1976796
1.1977384
1.1978116
1.1979035
1.1980183
1.1981601
1.1983298
1.1985257
1.1987486
1.1989933
1.1992528
1.1995259
1.1998156
1.2001273
1.2004674
1.2008412
1.2012508
1.2016861
1.2019949
1.2020253
1.2020965
1.2022277
1.2023548
1.2024815
1.2026216
1.2026909
1.2026963
1.2018576
1.1975619
1.1975932
1.1976316
1.1976801
1.1977414
1.1978191
1.1979171
1.1980395
1.19819
1.1983697
1.1985723
1.1987971
1.199047
1.1993132
1.1995914
1.1998828
1.2001914
1.2005231
1.2008837
1.2012766
1.2016974
1.2020313
1.2020682
1.2021313
1.2022469
1.2023615
1.2024897
1.2026186
1.2026737
1.2026345
1.2016726
1.197617
1.1976514
1.1976912
1.1977399
1.1978015
1.1978799
1.1979791
1.1981023
1.1982507
1.1984196
1.1986166
1.1988501
1.1991049
1.1993737
1.1996542
1.1999458
1.200251
1.2005751
1.2009237
1.2013015
1.2017077
1.2020591
1.2021137
1.2021602
1.2022629
1.2023838
1.2025088
1.2026208
1.2026682
1.2025939
1.2015939
1.1977683
1.1977988
1.1978346
1.1978785
1.1979349
1.198008
1.1981001
1.1982084
1.1983366
1.1985035
1.1987133
1.1989456
1.1991907
1.1994518
1.1997265
1.2000126
1.200311
1.2006255
1.2009616
1.2013243
1.2017142
1.202079
1.2021609
1.202192
1.2022942
1.2024134
1.2025228
1.2026258
1.2026708
1.2025782
1.2015864
1.1980434
1.1980661
1.198094
1.1981283
1.1981723
1.1982288
1.1983009
1.1983982
1.1985288
1.1986873
1.1988686
1.1990715
1.1992975
1.1995441
1.1998068
1.2000825
1.2003707
1.200674
1.200997
1.2013448
1.2017196
1.2020902
1.2022065
1.2022339
1.2023301
1.2024323
1.202541
1.2026439
1.2026792
1.202583
1.2016608
1.1983992
1.1984172
1.1984411
1.1984702
1.1985054
1.1985491
1.198607
1.1986848
1.1987833
1.1989031
1.199048
1.1992206
1.1994205
1.1996448
1.1998893
1.2001503
1.200426
1.2007173
1.2010276
1.2013619
1.2017238
1.2020958
1.2022565
1.2022786
1.20236
1.2024615
1.2025693
1.2026627
1.2026868
1.2025975
1.2017501
1.1987599
1.1987735
1.1987924
1.1988154
1.1988436
1.1988823
1.1989378
1.1990041
1.1990773
1.1991661
1.1992756
1.1994108
1.1995735
1.1997637
1.1999794
1.2002177
1.2004759
1.2007532
1.2010513
1.2013739
1.2017257
1.2021025
1.2023052
1.2023262
1.2023971
1.2024956
1.2025894
1.2026857
1.2026999
1.2026119
1.2017756
1.1990387
1.199052
1.1990697
1.1990913
1.1991168
1.1991447
1.1991742
1.1992173
1.1992827
1.1993656
1.1994612
1.1995713
1.199706
1.1998687
1.2000591
1.2002756
1.200516
1.2007795
1.2010666
1.2013799
1.2017239
1.2021004
1.2023456
1.2023722
1.2024371
1.2025285
1.2026069
1.2027134
1.2027119
1.202616
1.2017546
1.19922
1.1992388
1.1992607
1.1992852
1.1993113
1.1993388
1.1993676
1.1993979
1.1994343
1.1994855
1.1995625
1.1996675
1.1997918
1.199937
1.20011
1.2003114
1.2005397
1.2007935
1.2010729
1.2013797
1.2017178
1.2020893
1.2023745
1.2024156
1.2024749
1.2025555
1.202631
1.2027381
1.202719
1.2026215
1.2017522
1.199228
1.1992516
1.1992778
1.1993067
1.1993385
1.199374
1.199414
1.1994598
1.1995117
1.1995701
1.1996379
1.1997214
1.1998304
1.1999685
1.2001332
1.200326
1.2005474
1.2007963
1.2010717
1.2013746
1.2017083
1.2020743
1.2023921
1.2024558
1.2025109
1.2025892
1.2026593
1.202748
1.2027312
1.2026334
1.2017931
1.1992003
1.1992241
1.1992505
1.1992802
1.1993138
1.1993516
1.1993946
1.1994442
1.1995019
1.1995695
1.1996493
1.1997436
1.1998544
1.1999877
1.2001483
1.2003363
1.2005523
1.2007966
1.2010686
1.2013679
1.2016963
1.2020559
1.2023968
1.2024901
1.2025393
1.2026127
1.2026752
1.2027588
1.2027452
1.2026378
1.2018321
1.1992712
1.1992897
1.1993105
1.1993341
1.1993614
1.1993933
1.1994308
1.1994754
1.1995287
1.1995928
1.1996699
1.1997625
1.1998754
1.2000114
1.2001707
1.2003557
1.2005674
1.2008062
1.201072
1.2013646
1.2016851
1.2020367
1.2023921
1.2025198
1.2025653
1.2026291
1.2026872
1.2027584
1.2027435
1.2026353
1.2018432
1.1994394
1.1994529
1.1994685
1.1994863
1.1995068
1.199531
1.1995599
1.1995948
1.1996377
1.1996905
1.1997562
1.199839
1.1999416
1.2000659
1.200215
1.2003912
1.2005951
1.2008259
1.201083
1.2013662
1.2016766
1.2020188
1.2023816
1.2025435
1.2025831
1.2026346
1.2026862
1.2027483
1.20273
1.2026084
1.2018282
1.1996531
1.1996645
1.1996777
1.1996924
1.199709
1.1997281
1.1997504
1.199777
1.1998094
1.19985
1.199903
1.1999704
1.200054
1.200159
1.2002889
1.200447
1.2006346
1.2008517
1.2010968
1.2013691
1.2016693
1.2020021
1.2023691
1.2025601
1.2025958
1.2026359
1.2026793
1.2027323
1.2027168
1.2025663
1.2018304
1.1998342
1.1998469
1.1998611
1.1998766
1.1998936
1.1999125
1.1999337
1.199958
1.1999865
1.2000204
1.200061
1.2001136
1.2001823
1.2002685
1.2003784
1.2005159
1.2006836
1.2008828
1.2011129
1.2013728
1.2016621
1.2019842
1.2023417
1.2025689
1.2026037
1.2026354
1.2026732
1.2027205
1.2027143
1.2025492
1.2019046
1.1999479
1.1999622
1.1999778
1.1999947
1.2000136
1.2000344
1.2000575
1.2000835
1.2001131
1.2001477
1.2001885
1.2002367
1.2002967
1.200374
1.2004714
1.2005932
1.2007434
1.2009247
1.2011383
1.2013841
1.2016611
1.2019708
1.2023152
1.2025756
1.2026214
1.2026424
1.2026751
1.2027212
1.2027357
1.2026011
1.202094
1.2000453
1.2000589
1.2000741
1.2000909
1.2001094
1.2001301
1.2001533
1.2001795
1.2002094
1.200244
1.2002848
1.2003336
1.2003932
1.2004667
1.2005578
1.2006708
1.2008096
1.2009777
1.2011775
1.2014095
1.2016733
1.2019692
1.2022996
1.2025907
1.2026553
1.2026698
1.2027008
1.2027551
1.2028118
1.2027388
1.2026962
1.2001743
1.2001861
1.2001994
1.2002141
1.2002305
1.2002489
1.2002697
1.2002934
1.2003206
1.2003525
1.2003904
1.2004362
1.2004922
1.2005614
1.2006473
1.2007537
1.2008847
1.2010436
1.201233
1.2014539
1.2017065
1.201991
1.2023114
1.2026251
1.2027177
1.2027295
1.2027686
1.2028525
1.2029551
1.20296
1.203073
1.2003366
1.200347
1.2003586
1.2003715
1.2003858
1.2004018
1.2004199
1.2004404
1.2004642
1.200492
1.2005253
1.2005657
1.2006157
1.200678
1.2007562
1.2008543
1.2009764
1.2011261
1.2013062
1.2015184
1.2017631
1.2020406
1.2023552
1.2026892
1.2028183
1.2028436
1.2028994
1.2030041
1.2030855
1.2030426
1.2028788
1.2005084
1.200518
1.2005289
1.2005409
1.2005541
1.2005688
1.2005854
1.2006043
1.2006259
1.2006511
1.2006812
1.2007177
1.2007627
1.2008191
1.2008904
1.2009804
1.2010937
1.2012343
1.2014057
1.2016099
1.2018478
1.2021198
1.2024303
1.2027787
1.2029484
1.2029873
1.2030445
1.2031152
1.2031048
1.203024
1.202647
1.2007084
1.2007174
1.2007275
1.2007386
1.2007509
1.2007646
1.20078
1.2007975
1.2008176
1.2008409
1.2008685
1.2009018
1.2009427
1.2009939
1.2010585
1.2011404
1.201244
1.2013736
1.2015332
1.2017256
1.2019524
1.2022138
1.2025134
1.2028554
1.2030665
1.2031113
1.2031445
1.2031488
1.2030721
1.2029803
1.2026113
1.2009276
1.2009359
1.2009452
1.2009555
1.2009668
1.2009795
1.2009938
1.20101
1.2010285
1.2010499
1.2010753
1.2011057
1.201143
1.2011892
1.2012473
1.2013205
1.201413
1.2015289
1.2016723
1.2018464
1.2020527
1.2022921
1.2025684
1.2028906
1.203129
1.2031654
1.2031584
1.2030976
1.2029634
1.2028346
1.2025437
1.2012034
1.2012105
1.2012183
1.2012268
1.2012363
1.2012468
1.2012587
1.2012721
1.2012875
1.2013053
1.2013261
1.2013511
1.2013814
1.2014192
1.2014666
1.2015266
1.2016024
1.2016976
1.201816
1.201961
1.2021354
1.202341
1.2025828
1.202872
1.203122
1.2031449
1.2030941
1.2029962
1.2028377
1.2026239
1.2024464
1.2014248
1.201431
1.2014381
1.2014458
1.2014544
1.2014641
1.2014749
1.2014872
1.2015011
1.2015172
1.201536
1.2015584
1.201586
1.2016196
1.2016607
1.2017121
1.2017763
1.2018564
1.2019556
1.2020776
1.2022253
1.2024004
1.202607
1.2028579
1.2031007
1.2031163
1.2030247
1.2028864
1.2026595
1.2022375
1.2017889
1.2015954
1.2016037
1.2016125
1.2016218
1.2016318
1.2016425
1.2016542
1.2016668
1.2016806
1.2016958
1.2017129
1.2017322
1.2017548
1.2017819
1.2018155
1.2018577
1.2019114
1.2019798
1.2020661
1.2021738
1.2023056
1.2024621
1.2026452
1.2028667
1.2031098
1.2031364
1.2030061
1.2027957
1.2024847
1.2020632
1.2016398
1.2016232
1.2016294
1.2016363
1.2016438
1.2016522
1.2016617
1.2016723
1.2016846
1.2016989
1.2017159
1.2017363
1.2017607
1.2017892
1.2018215
1.2018585
1.2019019
1.2019544
1.202019
1.202099
1.2021971
1.2023171
1.2024627
1.2026383
1.2028551
1.2031134
1.203176
1.2030148
1.2027476
1.2024041
1.2020125
1.201588
1.2015636
1.2015695
1.2015759
1.2015829
1.2015909
1.2016
1.2016104
1.2016222
1.2016358
1.2016514
1.2016695
1.2016904
1.2017147
1.2017442
1.2017803
1.2018243
1.2018779
1.2019433
1.202023
1.2021197
1.2022364
1.2023769
1.2025475
1.202759
1.2030213
1.2031268
1.2029628
1.2026663
1.202304
1.201943
1.2014849
1.2014587
1.2014634
1.2014687
1.2014748
1.2014818
1.2014897
1.2014988
1.2015091
1.201521
1.2015348
1.2015509
1.2015698
1.2015927
1.2016213
1.2016564
1.2016977
1.2017471
1.2018087
1.2018853
1.2019792
1.2020935
1.2022317
1.2023982
1.2025997
1.2028441
1.2029717
1.2028143
1.2025429
1.2022264
1.201908
1.2014139
1.2014274
1.2014304
1.2014339
1.2014379
1.2014425
1.2014477
1.2014537
1.2014607
1.2014688
1.2014784
1.2014899
1.2015036
1.20152
1.2015392
1.2015629
1.2015949
1.2016374
1.2016918
1.2017606
1.2018471
1.2019547
1.2020866
1.2022448
1.2024318
1.2026552
1.2028187
1.2026919
1.2024405
1.2021301
1.2017531
1.2012988
1.2013053
1.2013143
1.2013226
1.2013305
1.2013386
1.2013473
1.2013569
1.2013676
1.2013798
1.2013936
1.2014094
1.2014276
1.2014489
1.2014744
1.2015057
1.201543
1.2015838
1.2016306
1.2016897
1.2017652
1.2018605
1.2019784
1.2021216
1.2022913
1.2024931
1.2026758
1.2025882
1.2023885
1.2021783
1.2018654
1.2013903
1.2014001
1.2014027
1.2014056
1.201409
1.2014131
1.2014182
1.2014245
1.2014323
1.2014417
1.2014528
1.2014658
1.2014807
1.2014977
1.2015163
1.2015361
1.2015592
1.2015899
1.2016305
1.2016807
1.2017428
1.2018216
1.2019214
1.2020458
1.2021993
1.2023878
1.2026146
1.2026304
1.2024631
1.2022709
1.2018321
1.2013094
1.1885143
1.1885211
1.1885367
1.1885615
1.1885975
1.1886459
1.1887073
1.1887812
1.188867
1.1889635
1.1890691
1.1891785
1.1892987
1.1894348
1.1895965
1.1898158
1.1901275
1.1905502
1.1911028
1.1917712
1.192515
1.1932826
1.1940442
1.1947711
1.1954398
1.1960238
1.1965132
1.1969076
1.197189
1.1973485
1.197408
1.1974486
1.1975502
1.197751
1.1980651
1.1984005
1.1987283
1.1989546
1.1990722
1.1990617
1.1885127
1.1885272
1.1885536
1.1885925
1.188645
1.1887117
1.1887917
1.1888835
1.1889851
1.1890923
1.189199
1.189307
1.189423
1.1895582
1.1897453
1.1900253
1.1904249
1.1909678
1.1916499
1.1924118
1.1932029
1.1939835
1.1947302
1.1954257
1.1960315
1.1965193
1.1969298
1.1972279
1.1973902
1.1974374
1.1974643
1.197556
1.1977498
1.1980599
1.1984027
1.1987402
1.19898
1.1991107
1.1991008
1.1990936
1.1992044
1.1993961
1.1996093
1.1997748
1.1998791
1.1999815
1.200121
1.2002902
1.200465
1.2006691
1.2008925
1.2011733
1.2013952
1.2015575
1.2015895
1.2015305
1.2014309
1.2014097
1.201264
1.2013848
1.1885124
1.1885429
1.1885875
1.188647
1.1887218
1.1888107
1.1889117
1.1890224
1.1891368
1.1892451
1.1893476
1.1894512
1.1895641
1.18972
1.1899671
1.1903412
1.1908684
1.1915534
1.1923288
1.193139
1.1939283
1.1946904
1.1953999
1.196028
1.1965265
1.1969296
1.1972551
1.1974286
1.1974679
1.1974841
1.1975667
1.1977506
1.1980537
1.1984017
1.198747
1.1989994
1.1991439
1.199137
1.1991228
1.1992224
1.1994086
1.1996228
1.1997928
1.1998991
1.1999997
1.2001362
1.2003036
1.2004776
1.2006804
1.2009025
1.2011818
1.2014037
1.2015676
1.2015987
1.2015392
1.2014382
1.2014144
1.2012745
1.2013885
1.1885131
1.1885718
1.1886449
1.1887337
1.188837
1.1889511
1.1890753
1.1892024
1.1893174
1.1894194
1.189517
1.1896143
1.1897438
1.1899604
1.1903081
1.1908128
1.1914868
1.192265
1.1930834
1.1938759
1.1946456
1.1953559
1.1960078
1.196539
1.1969102
1.1972639
1.1974605
1.1974983
1.1975106
1.1975834
1.1977555
1.198048
1.198398
1.1987484
1.199012
1.1991713
1.1991702
1.199151
1.1992396
1.1994194
1.1996337
1.1998081
1.199917
1.2000163
1.20015
1.2003155
1.2004887
1.2006905
1.2009115
1.2011895
1.2014115
1.2015772
1.2016075
1.2015477
1.2014454
1.2014189
1.2012849
1.2013923
1.1884068
1.1885087
1.1886163
1.1887327
1.1888598
1.1889944
1.1891332
1.1892717
1.1894002
1.1895164
1.1896176
1.1897088
1.1898214
1.1900158
1.1903408
1.1908164
1.1914704
1.1922364
1.1930456
1.1938448
1.1946111
1.1953173
1.1959764
1.1965329
1.1968965
1.1972542
1.1974818
1.1975272
1.1975411
1.197606
1.1977663
1.1980457
1.1983938
1.1987458
1.199018
1.1991928
1.1992004
1.1991783
1.1992568
1.199429
1.1996426
1.1998211
1.1999331
1.2000315
1.2001626
1.2003264
1.2004989
1.2006998
1.2009199
1.2011968
1.2014187
1.2015865
1.2016159
1.2015563
1.2014526
1.2014235
1.2012952
1.2013965
)
;

boundaryField
{
    Side1
    {
        type            empty;
    }
    Inlet
    {
        type            calculated;
        value           nonuniform List<scalar> 
59
(
1.2017686
1.2017671
1.2017657
1.2017642
1.2017626
1.201761
1.2017595
1.201758
1.2210659
1.2014438
1.1963514
1.2017522
1.2014376
1.2017444
1.2017412
1.2017369
1.201733
1.2017289
1.2014123
1.2154859
1.2013972
1.1962692
1.2210916
1.2013796
1.2016828
1.20168
1.201358
1.2013532
1.2016624
1.2016682
1.2016637
1.2016594
1.2016669
1.2016723
1.2016686
1.2016621
1.2016618
1.2016627
1.2016644
1.2016656
1.2016674
1.2016692
1.2016759
1.2016934
1.2014102
1.2017385
1.2017408
1.2017247
1.2017301
1.201742
1.2017498
1.2017449
1.2017638
1.2017539
1.2017401
1.2017406
1.2017376
1.201741
1.2017331
)
;
    }
    Side2
    {
        type            empty;
    }
    Outlet
    {
        type            calculated;
        value           nonuniform List<scalar> 
35
(
1.2013687
1.2013672
1.2013656
1.2013639
1.2013621
1.2013604
1.2013588
1.2013575
1.2013566
1.2013566
1.201358
1.2013612
1.2013673
1.2013771
1.2013923
1.2014151
1.2014484
1.2014959
1.2015622
1.2016516
1.2017686
1.2019163
1.2020987
1.2023213
1.2025976
1.202941
1.2031176
1.2031484
1.2030878
1.2029642
1.2026007
1.2013776
1.2013752
1.2013729
1.2013706
)
;
    }
    Botwall
    {
        type            calculated;
        value           nonuniform List<scalar> 0();
    }
    Cyli
    {
        type            calculated;
        value           nonuniform List<scalar> 0();
    }
    procBoundary3to0
    {
        type            processor;
        value           nonuniform List<scalar> 7(1.1885122 1.1885087 1.1885087 1.1884945 1.1884945 1.1884651 1.1884651);
    }
    procBoundary3to1
    {
        type            processor;
        value           nonuniform List<scalar> 
62
(
1.188519
1.1885262
1.1885419
1.1885669
1.188602
1.1886483
1.1887065
1.1887772
1.1888605
1.1889552
1.1890598
1.1891774
1.1893177
1.1894779
1.1896719
1.1899259
1.1902638
1.1907076
1.1912638
1.1919158
1.1926363
1.1933768
1.1941117
1.1948118
1.1954548
1.1960122
1.1964885
1.196867
1.1971416
1.197304
1.1973795
1.1974357
1.197548
1.1977531
1.1980687
1.1983949
1.1987112
1.1989226
1.199028
1.1990195
1.1990627
1.1990627
1.1991853
1.1993815
1.199593
1.1997539
1.1998566
1.1999613
1.200104
1.200275
1.2004509
1.2006564
1.200881
1.2011636
1.2013858
1.2015468
1.2015799
1.2015216
1.2014235
1.2014051
1.2012539
1.201381
)
;
    }
    procBoundary3to2
    {
        type            processor;
        value           nonuniform List<scalar> 
35
(
1.2032782
1.2033202
1.2026072
1.1940103
1.1949213
1.1959279
1.1970042
1.1981247
1.1992949
1.200378
1.2012112
1.2015521
1.2017695
1.2019929
1.2022286
1.2024243
1.202592
1.2027493
1.2029172
1.2030957
1.2030957
1.1884386
1.1884386
1.1888326
1.1893648
1.1898697
1.1903217
1.1907388
1.1911506
1.1915853
1.1920724
1.1926379
1.193303
1.193303
1.1883055
)
;
    }
}


// ************************************************************************* //
