/*--------------------------------*- C++ -*----------------------------------*\
| =========                 |                                                 |
| \\      /  F ield         | OpenFOAM: The Open Source CFD Toolbox           |
|  \\    /   O peration     | Version:  2406                                  |
|   \\  /    A nd           | Website:  www.openfoam.com                      |
|    \\/     M anipulation  |                                                 |
\*---------------------------------------------------------------------------*/
FoamFile
{
    version     2.0;
    format      ascii;
    arch        "LSB;label=32;scalar=64";
    class       volScalarField;
    location    "0.015";
    object      alphat;
}
// * * * * * * * * * * * * * * * * * * * * * * * * * * * * * * * * * * * * * //

dimensions      [1 -1 -1 0 0 0 0];

internalField   nonuniform List<scalar> 
92813
(
0.039836969
0.043011542
0.046307545
0.049646875
0.052996635
0.056335767
0.05964638
0.062914149
0.066127146
0.069275126
0.072348896
0.075339693
0.078238555
0.081035876
0.083720843
0.086282633
0.088712664
0.090994184
0.093112058
0.095051762
0.096798415
0.098337228
0.099653084
0.10073038
0.10155298
0.1021043
0.10236745
0.10232525
0.10196045
0.10125589
0.10019477
0.098761048
0.096939804
0.094717841
0.092084332
0.089031582
0.085556349
0.081660356
0.077351536
0.072645686
0.067575049
0.062180586
0.056514742
0.050651293
0.044681886
0.038713027
0.032920893
0.027509767
0.022738705
0.018870322
0.016063039
0.014206742
0.013009209
0.012191215
0.011571788
0.01105863
0.010610019
0.010206682
0.0098383698
0.009499811
0.0091879998
0.0088997891
0.008633155
0.0083855963
0.0081558786
0.0079430042
0.0077444107
0.007560153
0.0073893603
0.0072296785
0.0070810366
0.0069430243
0.0068131478
0.0066916916
0.0065781541
0.0064709614
0.0063706483
0.0062769436
0.0061901386
0.0061097678
0.0060352612
0.005965805
0.0059010171
0.0058407733
0.0057837777
0.0057298631
0.0056793114
0.0056315136
0.0055866431
0.0055447308
0.0055057115
0.005469752
0.005435678
0.005403825
0.0053739648
0.0053452842
0.0053182945
0.0052927344
0.0052681307
0.0052449777
0.0052231674
0.0052022335
0.0051824976
0.0051640239
0.0051465682
0.0051302061
0.0051149479
0.0051005881
0.0050871562
0.005074616
0.0050628085
0.0050518039
0.0050416389
0.0050321662
0.0050233491
0.005015205
0.0050076609
0.0050007721
0.0049945631
0.004988936
0.004983975
0.0049796623
0.0049760539
0.004973038
0.0049709261
0.0049689139
0.0049686379
0.044722713
0.047932441
0.051138395
0.054344145
0.057543338
0.060724094
0.063873365
0.066979248
0.070031003
0.073018722
0.075933026
0.078764696
0.081504232
0.0841415
0.086665644
0.08906544
0.091329221
0.093442486
0.095390466
0.097158146
0.09873027
0.1000917
0.10122739
0.10212166
0.10275831
0.10312077
0.10319218
0.1029555
0.10239365
0.10148978
0.10022752
0.098591383
0.096567205
0.094142733
0.091308332
0.088057807
0.084389638
0.080308205
0.075823849
0.070953488
0.065734507
0.060213722
0.05444647
0.048512829
0.042513084
0.036574833
0.030877007
0.025647082
0.021161269
0.017671169
0.015245354
0.013684564
0.012671739
0.011954029
0.011387889
0.010904977
0.01047598
0.010087277
0.0097308003
0.0094023819
0.0090997342
0.0088197064
0.008560413
0.0083193623
0.0080954593
0.0078878273
0.0076937655
0.0075137314
0.0073468003
0.0071904774
0.007045238
0.0069102993
0.006783143
0.0066642763
0.006553121
0.006448004
0.0063497792
0.0062579644
0.0061727596
0.0060939161
0.0060208264
0.0059526508
0.0058890576
0.0058298994
0.0057739505
0.0057209868
0.0056712796
0.0056242498
0.0055800792
0.0055388154
0.0055003334
0.0054648051
0.0054310933
0.0053995735
0.0053700234
0.0053416013
0.0053148439
0.0052895453
0.0052651775
0.0052422139
0.0052206198
0.0051998887
0.0051803098
0.0051620027
0.0051447054
0.0051284724
0.0051133457
0.005099116
0.0050857906
0.0050733521
0.005061646
0.0050507241
0.0050406314
0.0050312318
0.0050224759
0.0050143901
0.0050069009
0.0050000551
0.0049938893
0.0049883013
0.0049833695
0.0049790837
0.0049754927
0.0049724911
0.0049703861
0.0049683803
0.0049681075
0.049761271
0.052882797
0.055974441
0.059045771
0.062097589
0.065122616
0.068111252
0.071053898
0.073941158
0.076763771
0.079512535
0.082178144
0.084750934
0.087220607
0.089576131
0.091805662
0.093896501
0.095834649
0.097605475
0.09919388
0.10058456
0.10176236
0.1027118
0.10341704
0.10386193
0.10402994
0.10390431
0.10346817
0.10270469
0.10159739
0.10013038
0.098288836
0.096059428
0.093430983
0.090395221
0.086947649
0.083088785
0.078825715
0.074170652
0.06914501
0.063791346
0.058160217
0.052313096
0.046338188
0.040346107
0.03448117
0.028936847
0.023960606
0.019831237
0.016748491
0.01467592
0.01334774
0.012460093
0.011804405
0.01127022
0.010806183
0.010390435
0.010012139
0.0096642413
0.0093431469
0.0090470415
0.0087727451
0.0085184422
0.0082817222
0.0080616449
0.0078574142
0.0076662698
0.0074889085
0.0073243489
0.0071700707
0.0070266924
0.0068934566
0.0067677781
0.0066502968
0.0065403893
0.006436333
0.0063391761
0.0062482733
0.0061637064
0.0060856044
0.0060132349
0.0059457094
0.0058827389
0.0058241685
0.0057688407
0.0057163975
0.0056671716
0.0056205653
0.0055767473
0.0055357881
0.0054974797
0.0054621177
0.0054285476
0.005397161
0.0053677487
0.0053394357
0.0053127739
0.0052876091
0.0052633661
0.0052404816
0.005218999
0.0051983864
0.0051788764
0.0051606515
0.0051434414
0.005127269
0.0051122099
0.005098055
0.0050847854
0.0050724022
0.0050607558
0.0050498785
0.0050398232
0.0050304661
0.005021745
0.0050136931
0.0050062371
0.0049994151
0.0049932745
0.0049877109
0.0049827952
0.0049785246
0.0049749423
0.0049719475
0.0049698462
0.0049678401
0.0049675699
0.054932927
0.057909643
0.060855834
0.063776458
0.066671887
0.069535736
0.072359621
0.075135045
0.077853412
0.08050593
0.083083577
0.085577024
0.087976476
0.090271481
0.092450809
0.094502356
0.096413117
0.098169135
0.099755785
0.10115795
0.10236024
0.1033473
0.10410344
0.10461281
0.10485923
0.10482628
0.10449735
0.10385576
0.10288504
0.10156911
0.09989271
0.097841747
0.095403887
0.092569188
0.089330909
0.085686473
0.081638735
0.077197799
0.072377303
0.067205672
0.061730707
0.056005224
0.050099398
0.044110239
0.038159533
0.032407278
0.027063901
0.022390221
0.018647508
0.015958706
0.014191727
0.013049618
0.012259603
0.011653422
0.011146177
0.010699046
0.010295694
0.0099273811
0.0095878383
0.0092739579
0.0089844357
0.008716007
0.0084668851
0.0082347168
0.0080187229
0.0078182026
0.0076302781
0.0074559294
0.0072940952
0.0071421882
0.0070011169
0.006870019
0.0067462223
0.006630545
0.0065223046
0.0064196828
0.0063239823
0.0062344064
0.0061508442
0.0060737872
0.0060024402
0.005935831
0.0058737471
0.0058159845
0.005761479
0.0057097464
0.0056611479
0.0056151185
0.0055718017
0.0055313072
0.0054933586
0.005458275
0.0054249434
0.0053937841
0.0053645829
0.0053364506
0.0053099554
0.005284981
0.0052609289
0.005238183
0.0052168575
0.0051964195
0.005177026
0.0051589224
0.0051418425
0.0051257679
0.0051108077
0.0050967597
0.0050835747
0.0050712704
0.005059707
0.0050488954
0.0050388946
0.0050295957
0.0050209235
0.0050129176
0.005005507
0.0049987188
0.0049926121
0.0049870816
0.004982189
0.0049779393
0.0049743706
0.0049713858
0.0049692895
0.0049672867
0.0049670199
0.060200437
0.063005981
0.065785373
0.068539665
0.071267544
0.073962055
0.076614768
0.079217365
0.081761455
0.084238373
0.086639111
0.08895425
0.091173837
0.093287253
0.095283102
0.097149145
0.098872273
0.10043855
0.10183338
0.10304168
0.10404801
0.10483687
0.1053925
0.10569894
0.10574006
0.10549953
0.10496088
0.10410776
0.10292404
0.10139421
0.099503674
0.097239236
0.094589682
0.091546475
0.088104606
0.084263623
0.080028991
0.075414026
0.070434903
0.065126959
0.059543155
0.053739826
0.047796552
0.041819494
0.035942569
0.03034171
0.025244124
0.020915736
0.017579906
0.015268051
0.013769666
0.012782715
0.012072958
0.011508324
0.011024819
0.010593526
0.010202318
0.0098440213
0.0095129601
0.0092064257
0.0089236345
0.0086612074
0.008417352
0.0081897878
0.0079779126
0.0077811348
0.007596468
0.0074251579
0.007266041
0.0071164907
0.0069776912
0.0068486747
0.0067266947
0.0066127495
0.0065060951
0.0064048179
0.006310459
0.006222119
0.0061394503
0.0060633264
0.0059929103
0.0059271239
0.0058658556
0.0058088261
0.0057550772
0.0057039783
0.0056559328
0.005610427
0.0055675399
0.0055274293
0.0054897628
0.005454898
0.0054217559
0.0053907819
0.0053617506
0.0053337677
0.0053074172
0.0052826017
0.0052587224
0.0052360979
0.005214902
0.0051946272
0.0051753357
0.0051573315
0.0051403691
0.0051243799
0.0051095024
0.0050955496
0.0050824394
0.0050702029
0.0050587129
0.0050479592
0.0050380045
0.0050287562
0.0050201274
0.0050121613
0.0050047912
0.0049980328
0.0049919549
0.0049864547
0.0049815822
0.0049773501
0.0049737932
0.0049708164
0.0049687242
0.0049667235
0.0049664603
0.065519201
0.068135961
0.070737312
0.073315019
0.075866346
0.078383705
0.080858365
0.083281826
0.08564558
0.087940852
0.090158504
0.09228895
0.09432206
0.096247046
0.098052378
0.099725725
0.10125394
0.10262312
0.10381874
0.10482578
0.1056288
0.10621225
0.10656029
0.10665696
0.10648614
0.1060316
0.10527714
0.10420669
0.10280463
0.10105603
0.098947102
0.096465674
0.093601803
0.090348532
0.086702791
0.082666476
0.078247959
0.073463924
0.068334216
0.062900976
0.057222117
0.05135907
0.045401286
0.039464611
0.033696443
0.028289528
0.023486036
0.019544798
0.016628209
0.014668922
0.013401677
0.01254175
0.011897074
0.011367063
0.010904423
0.010487893
0.010108381
0.0097598535
0.0094371228
0.0091378054
0.0088616585
0.0086051773
0.0083665364
0.0081435241
0.0079357245
0.0077426705
0.007561265
0.0073930196
0.0072366424
0.0070894691
0.0069529975
0.0068261149
0.0067059998
0.0065938498
0.0064888394
0.0063889621
0.0062959925
0.0062089746
0.0061272725
0.0060521251
0.0059826909
0.005917768
0.0058573765
0.0058011214
0.0057481638
0.0056977324
0.0056502668
0.0056053207
0.0055628876
0.0055231873
0.0054858374
0.0054512135
0.005418282
0.0053875102
0.0053586614
0.0053308459
0.0053046615
0.0052800151
0.0052563287
0.0052338465
0.0052127872
0.0051926946
0.005173523
0.0051556247
0.0051387929
0.005122903
0.0051081145
0.0050942658
0.0050812402
0.0050690777
0.0050576671
0.0050469776
0.0050370736
0.0050278797
0.0050192985
0.005011375
0.005004049
0.0049973235
0.0049912763
0.0049858091
0.0049809588
0.0049767458
0.0049732022
0.0049702339
0.0049681462
0.0049661486
0.0049658895
0.070849279
0.073262476
0.07568045
0.078075399
0.080443644
0.082777339
0.085067616
0.087305778
0.089483096
0.091590589
0.093618914
0.095558287
0.097398388
0.099128271
0.10073629
0.10221005
0.10353639
0.10470147
0.10569083
0.10648953
0.1070822
0.10745327
0.10758689
0.10746712
0.10707792
0.10640324
0.10542712
0.10413392
0.10250853
0.10053677
0.098205738
0.095504433
0.092424352
0.088960314
0.085111411
0.080882156
0.076284168
0.071337391
0.066066652
0.060521252
0.054763572
0.04886158
0.042915247
0.037051212
0.031431981
0.02626778
0.021810727
0.018293816
0.01579509
0.014153674
0.013079309
0.012321539
0.011729581
0.0112288
0.010784863
0.010382392
0.010014305
0.0096754159
0.0093609774
0.0090688588
0.0087993547
0.0085488491
0.0083154564
0.0080970194
0.0078933281
0.0077040311
0.0075259358
0.0073608198
0.0072072319
0.007062478
0.0069283848
0.006803669
0.0066854447
0.0065751221
0.0064717754
0.0063733128
0.0062817194
0.0061960344
0.0061153154
0.0060411354
0.0059726726
0.0059085977
0.0058490895
0.0057936022
0.0057414208
0.0056916437
0.005644742
0.0056003493
0.0055583513
0.0055190367
0.0054819865
0.0054475903
0.0054148599
0.0053842765
0.0053555988
0.0053279473
0.00530193
0.0052774442
0.0052539515
0.0052316162
0.0052106847
0.0051907762
0.0051717296
0.0051539296
0.0051372268
0.005121439
0.0051067348
0.0050929873
0.0050800473
0.0050679566
0.0050566231
0.0050459972
0.0050361419
0.0050270004
0.0050184661
0.0050105833
0.0050033006
0.0049966077
0.0049905894
0.0049851549
0.0049803266
0.0049761315
0.0049726011
0.0049696408
0.0049675571
0.0049655626
0.0049653078
0.076145209
0.07835396
0.080583915
0.082791263
0.084971282
0.087115942
0.089216324
0.09126356
0.093248701
0.095162545
0.096995536
0.098737688
0.1003785
0.10190689
0.10331111
0.10457871
0.10569657
0.10665087
0.10742725
0.10801088
0.10838647
0.10853848
0.10845113
0.10810856
0.10749485
0.10659418
0.10539095
0.10386996
0.10201677
0.099817984
0.097261784
0.094338464
0.091041153
0.087366663
0.0833165
0.078898123
0.074126828
0.069025163
0.063625103
0.057983642
0.052166268
0.046249632
0.040345036
0.034591507
0.029168325
0.024302385
0.020245062
0.017178053
0.015078437
0.013712172
0.012794155
0.012117531
0.01156848
0.011092756
0.010665835
0.010276907
0.0099200034
0.0095905908
0.0092843786
0.0089994123
0.0087364839
0.0084919311
0.0082637791
0.0080498965
0.007850337
0.0076648025
0.007490029
0.0073280808
0.007177316
0.0070350105
0.0069033348
0.0067808126
0.0066645037
0.0065560455
0.0064543873
0.0063573659
0.0062671545
0.0061828239
0.0061031326
0.00602994
0.0059624562
0.0058992333
0.0058406322
0.0057859251
0.0057345161
0.0056854003
0.0056390713
0.0055952426
0.0055536812
0.0055147509
0.0054780038
0.0054438415
0.0054113205
0.0053809229
0.0053524182
0.0053249403
0.0052990994
0.0052747766
0.0052514863
0.0052293119
0.0052085092
0.0051887917
0.0051698841
0.005152183
0.0051356119
0.0051199364
0.005105318
0.0050916732
0.0050788245
0.0050668083
0.0050555531
0.0050449938
0.0050351887
0.0050261004
0.005017615
0.0050097733
0.0050025352
0.0049958766
0.0049898872
0.0049844865
0.0049796812
0.0049755042
0.0049719879
0.0049690355
0.0049669559
0.0049649651
0.0049647148
0.08136572
0.083376046
0.085414198
0.087430149
0.089417879
0.09136912
0.093274908
0.095126241
0.096913988
0.098628753
0.10026079
0.10179995
0.10323557
0.10455645
0.10575076
0.10680603
0.10770916
0.1084464
0.10900347
0.10936567
0.10951785
0.10944453
0.10913005
0.10855869
0.10771475
0.10658271
0.10514737
0.10339412
0.10130924
0.098880305
0.096096674
0.092950138
0.089435661
0.08555229
0.081304226
0.076702242
0.071765881
0.066519398
0.061004675
0.055286526
0.049431979
0.043529605
0.037702701
0.032104626
0.026932593
0.022425917
0.018816488
0.016206402
0.014470171
0.013332754
0.012538423
0.011925898
0.011412182
0.010958382
0.010547176
0.01017143
0.0098255051
0.0095054146
0.0092073907
0.0089295645
0.0086731263
0.0084345076
0.0082115988
0.0080022496
0.0078069058
0.0076251668
0.0074537293
0.007294997
0.0071471051
0.0070072935
0.006878079
0.0067577799
0.0066434152
0.0065368593
0.0064369121
0.0063413569
0.0062525318
0.0061695558
0.0060909292
0.0060187451
0.0059522368
0.0058898619
0.0058321764
0.0057782532
0.0057275995
0.0056791434
0.0056333913
0.0055901251
0.005548993
0.0055104359
0.0054739831
0.0054400534
0.0054077447
0.0053775223
0.0053491882
0.0053218904
0.0052962285
0.0052720684
0.0052489839
0.0052269806
0.0052063061
0.0051867798
0.0051680229
0.0051504193
0.0051339769
0.0051184214
0.0051038889
0.005090344
0.0050775901
0.0050656493
0.0050544714
0.0050439796
0.005034225
0.0050251886
0.0050167528
0.0050089516
0.0050017578
0.0049951343
0.004989173
0.0049838063
0.0049790245
0.0049748652
0.004971363
0.0049684184
0.0049663429
0.004964356
0.0049641104
0.086473885
0.088289075
0.090134399
0.091956678
0.093749143
0.095503485
0.097210758
0.098861885
0.10044761
0.1019584
0.10338437
0.10471522
0.10594019
0.10704798
0.10802672
0.10886394
0.10954654
0.11006088
0.11039275
0.11052764
0.11045053
0.11014607
0.10959878
0.10879316
0.1077138
0.10634556
0.10467375
0.10268445
0.10036478
0.097703424
0.09469111
0.091321315
0.087591075
0.083501941
0.079061113
0.074283039
0.069191722
0.063814804
0.058203817
0.052430462
0.046566163
0.04071289
0.035006688
0.029617453
0.024759794
0.020674987
0.017548068
0.015378864
0.013957451
0.013003556
0.01230534
0.011743566
0.011259475
0.010825315
0.010428804
0.010065947
0.0097308005
0.0094198762
0.0091300206
0.0088593457
0.0086092671
0.0083765474
0.008158866
0.0079539962
0.0077630024
0.0075851017
0.0074169914
0.0072615079
0.0071165336
0.0069792601
0.0068525411
0.0067344886
0.0066220936
0.0065174724
0.0064192545
0.0063251898
0.0062377634
0.006156131
0.0060786055
0.0060074623
0.0059419283
0.0058804025
0.0058236352
0.0057705022
0.0057205855
0.0056727912
0.0056276294
0.0055849249
0.0055442205
0.0055060322
0.0054698683
0.005436174
0.0054040865
0.005374031
0.0053458693
0.005318764
0.0052932835
0.0052692897
0.0052464158
0.005224596
0.0052040541
0.0051847179
0.0051661261
0.005148623
0.0051323058
0.0051168795
0.0051024359
0.0050889886
0.0050763338
0.0050644711
0.0050533702
0.005042948
0.0050332447
0.0050242599
0.0050158753
0.0050081143
0.0050009653
0.0049943784
0.0049884449
0.0049831125
0.0049783552
0.0049742134
0.0049707258
0.0049677891
0.0049657177
0.004963735
0.0049634942
0.091430835
0.093053558
0.094705971
0.096333104
0.097928115
0.09948284
0.1009884
0.10243569
0.10381539
0.1051179
0.10633324
0.10745102
0.10846042
0.10935007
0.11010809
0.11072201
0.1111788
0.11146488
0.1115662
0.11146841
0.11115668
0.11061584
0.10983065
0.10878591
0.10746658
0.105858
0.10394613
0.10171782
0.099161219
0.096266261
0.093025242
0.08943356
0.085490589
0.081200705
0.076574479
0.071630475
0.066397073
0.060907327
0.055222657
0.049420424
0.043579688
0.037817226
0.032283196
0.02716561
0.02269205
0.019086059
0.016453634
0.014686243
0.013524675
0.012713496
0.012089299
0.011568169
0.011109479
0.010693339
0.010310703
0.0099604382
0.0096358729
0.0093339709
0.0090522887
0.0087888073
0.0085449239
0.0083180645
0.0081055867
0.0079051209
0.0077186656
0.0075446658
0.0073798656
0.0072276598
0.0070856488
0.0069509642
0.006826774
0.0067109925
0.0066005957
0.0064979375
0.0064014666
0.0063089164
0.0062229087
0.0061425979
0.0060662029
0.0059961374
0.0059315761
0.005870902
0.0058150444
0.0057627049
0.0057135039
0.0056663721
0.0056218157
0.0055796666
0.0055393873
0.0055015631
0.0054656797
0.005432221
0.0054003634
0.005370466
0.0053424776
0.0053155789
0.0052902786
0.0052664551
0.0052437947
0.0052221696
0.005201767
0.0051826162
0.0051642026
0.0051468051
0.0051306065
0.0051153165
0.0051009668
0.0050876134
0.0050750599
0.0050632782
0.0050522534
0.0050419021
0.0050322511
0.0050233167
0.0050149844
0.0050072635
0.0050001587
0.0049936097
0.0049877039
0.0049824054
0.0049776734
0.004973549
0.0049700762
0.0049671474
0.0049650802
0.0049631021
0.0049628661
0.096195426
0.097628153
0.099087572
0.1005188
0.10191498
0.10326813
0.1045695
0.10581001
0.10698037
0.10807094
0.10907171
0.10997227
0.11076175
0.11142879
0.11196149
0.11234745
0.1125737
0.11262677
0.11249275
0.11215752
0.11160648
0.11082467
0.10979717
0.10850917
0.10694611
0.10509393
0.10293932
0.10047009
0.097675574
0.094547149
0.0910789
0.087268411
0.083117709
0.078634367
0.073832809
0.068736321
0.063376771
0.057795632
0.052065241
0.046266491
0.040489733
0.034868077
0.029567704
0.02479404
0.020776012
0.017689409
0.015534338
0.014111983
0.013155589
0.012452876
0.011885887
0.011397986
0.010961604
0.010562315
0.010192902
0.0098548785
0.0095406976
0.0092476957
0.0089742017
0.0087179757
0.0084801098
0.0082590692
0.008051765
0.0078556221
0.007673904
0.0075038698
0.0073423674
0.0071934646
0.0070544532
0.0069224074
0.0068007753
0.0066872866
0.0065789162
0.00647824
0.0063835315
0.0062925186
0.0062079543
0.0061289389
0.0060536964
0.0059847453
0.0059211569
0.0058613415
0.0058063762
0.0057548318
0.0057063275
0.0056598596
0.005615926
0.0055743242
0.0055344698
0.0054970084
0.0054613987
0.0054281749
0.0053965588
0.0053668136
0.0053390001
0.0053123259
0.0052872036
0.0052635554
0.0052411121
0.005219693
0.0051994401
0.005180468
0.005162245
0.0051449621
0.0051288752
0.0051137269
0.0050994787
0.0050862157
0.0050737649
0.0050620677
0.0050511188
0.0050408398
0.0050312422
0.0050223573
0.0050140784
0.0050063979
0.0049993368
0.0049928271
0.0049869492
0.0049816843
0.0049769786
0.0049728714
0.0049694135
0.0049664931
0.0049644304
0.004962457
0.0049622258
0.10072346
0.10196861
0.10323548
0.10447065
0.10566729
0.10681761
0.107913
0.1089445
0.10990286
0.1107785
0.11156144
0.11224127
0.11280713
0.11324771
0.11355115
0.1137051
0.11369672
0.11351267
0.1131392
0.11256245
0.11176812
0.11074152
0.10946814
0.10793362
0.106124
0.10402595
0.10162707
0.098916274
0.09588426
0.092524093
0.088831904
0.08480776
0.080456692
0.075789897
0.070826227
0.065594591
0.060128775
0.054483079
0.04874112
0.042984816
0.037321191
0.031900625
0.026906552
0.022556207
0.019057383
0.016502338
0.014778118
0.013635409
0.012834985
0.012213687
0.011691832
0.011231847
0.010815484
0.010432077
0.010075464
0.0097492651
0.0094452563
0.0091610585
0.0088957502
0.0086468453
0.0084148556
0.0081995882
0.0079974329
0.0078055734
0.0076287234
0.0074626996
0.0073045268
0.0071589608
0.007022971
0.0068936137
0.0067745675
0.0066633911
0.0065570778
0.0064583933
0.0063654626
0.0062760097
0.0061929134
0.0061151714
0.0060410975
0.0059732896
0.0059106751
0.0058517282
0.0057976323
0.0057468808
0.0056990589
0.0056532566
0.0056099609
0.0055688966
0.0055294676
0.005492369
0.0054570273
0.0054240353
0.0053926727
0.0053630776
0.0053354391
0.0053090093
0.0052840619
0.0052605941
0.0052383709
0.0052171686
0.0051970781
0.0051782769
0.0051602544
0.0051430978
0.0051271158
0.0051121109
0.0050979736
0.0050847984
0.0050724495
0.0050608405
0.0050499676
0.0050397618
0.005030219
0.0050213824
0.0050131576
0.0050055181
0.0049984999
0.0049920307
0.0049861811
0.0049809489
0.0049762705
0.0049721806
0.0049687377
0.004965826
0.0049637679
0.0049617997
0.0049615731
0.10496856
0.10602867
0.10710381
0.10814325
0.10914018
0.11008699
0.11097524
0.11179613
0.11254053
0.11319893
0.11376144
0.11421772
0.11455698
0.11476794
0.11483886
0.11475748
0.11451108
0.11408652
0.11347025
0.11264871
0.11160794
0.11033363
0.10881171
0.10702845
0.10497057
0.10262563
0.099982284
0.097030773
0.093763392
0.090175141
0.086264502
0.082034369
0.077493174
0.072656205
0.067547328
0.062201549
0.056656721
0.050980331
0.045265356
0.039599413
0.03410918
0.028962181
0.024357746
0.020510316
0.01757232
0.015524241
0.014162523
0.013235159
0.012549818
0.011989825
0.011504817
0.01106894
0.010670847
0.010302375
0.0099585271
0.0096436751
0.0093495235
0.009074066
0.0088169001
0.0085753781
0.0083492179
0.0081396513
0.007942635
0.0077551266
0.0075831063
0.0074210868
0.007266373
0.0071241901
0.0069912216
0.0068646
0.0067481626
0.0066393116
0.0065350888
0.0064383959
0.0063472564
0.0062593876
0.0061777763
0.006101297
0.006028405
0.005961755
0.0059001145
0.0058420474
0.0057887983
0.0057388324
0.0056916858
0.0056465525
0.0056039049
0.005563369
0.0055243669
0.0054876329
0.0054525572
0.0054197915
0.0053886956
0.005359254
0.0053317892
0.0053056247
0.0052808509
0.005257568
0.0052355686
0.0052145932
0.0051946799
0.005176042
0.0051582268
0.0051412107
0.0051253289
0.0051104656
0.0050964501
0.005083362
0.0050711123
0.0050595948
0.005048799
0.0050386672
0.0050291806
0.0050203912
0.0050122212
0.0050046237
0.0049976473
0.0049912198
0.0049853993
0.0049801989
0.0049755488
0.0049714762
0.0049680481
0.0049651456
0.0049630927
0.0049611298
0.0049609078
0.10888244
0.10975994
0.11064449
0.11148891
0.1122864
0.11302952
0.11371004
0.11431934
0.11484845
0.115288
0.1156282
0.11585884
0.11596922
0.11594818
0.11578408
0.11546481
0.11497783
0.11431019
0.11344863
0.11237993
0.11109055
0.10956661
0.10779464
0.1057616
0.10345508
0.10086368
0.097977318
0.094787778
0.091289216
0.087478882
0.083357952
0.078932557
0.074215004
0.069225254
0.063992891
0.058559127
0.052968627
0.047303006
0.04166274
0.036146484
0.030902398
0.026114339
0.021989199
0.018710883
0.016337846
0.014736292
0.013659793
0.012891759
0.012289913
0.011777262
0.011323059
0.010908498
0.010527322
0.010172996
0.0098423985
0.0095382597
0.009253415
0.0089867014
0.0087376078
0.0085035505
0.0082832864
0.0080792692
0.0078874022
0.0077044945
0.0075370267
0.0073789328
0.0072279589
0.0070892025
0.0069592281
0.0068353932
0.0067215782
0.0066150537
0.00651296
0.0064182529
0.0063289144
0.0062426568
0.0061625351
0.0060873238
0.0060156278
0.0059501323
0.0058894628
0.0058322862
0.0057798677
0.0057306743
0.0056842035
0.0056397461
0.0055977481
0.0055577333
0.0055191596
0.0054827927
0.005447986
0.0054154388
0.0053846227
0.005355344
0.0053280501
0.0053021701
0.0052775723
0.0052544779
0.0052327062
0.0052119671
0.0051922463
0.0051737664
0.005156161
0.005139301
0.0051235177
0.0051087905
0.0050949074
0.0050819083
0.0050697538
0.00505833
0.0050476134
0.0050375559
0.0050281271
0.0050193839
0.0050112687
0.0050037147
0.004996779
0.004990394
0.0049846037
0.0049794339
0.004974813
0.0049707581
0.0049673446
0.004964452
0.0049624046
0.0049604474
0.0049602299
0.11241429
0.11311171
0.11380713
0.11445757
0.11505628
0.115596
0.11606873
0.11646606
0.1167792
0.11699897
0.11711574
0.11711941
0.11699945
0.11674482
0.11634405
0.1157852
0.11505594
0.1141436
0.11303523
0.11171805
0.11017899
0.10840472
0.10638248
0.10410007
0.10154611
0.098710418
0.095584442
0.092161754
0.088438692
0.084415111
0.080095299
0.075489093
0.070613239
0.065493132
0.060165037
0.054675216
0.049079893
0.043476861
0.037970342
0.032676767
0.027765703
0.023432902
0.01987174
0.017195934
0.015345903
0.014106505
0.013242299
0.012588988
0.012048376
0.011573761
0.011144793
0.010749559
0.010384326
0.010044144
0.009727476
0.00943303
0.0091567968
0.0088989582
0.0086578659
0.0084314089
0.0082171563
0.0080183987
0.0078317088
0.007653885
0.0074904824
0.0073361763
0.0071893722
0.0070540335
0.0069270021
0.0068060254
0.0066948289
0.0065906117
0.0064906942
0.006397968
0.0063104307
0.0062258164
0.0061471755
0.0060732509
0.0060027681
0.0059384075
0.0058787016
0.0058224241
0.0057708303
0.0057223895
0.0056766008
0.0056328322
0.0055914756
0.0055519774
0.0055138336
0.0054778372
0.0054433079
0.0054109707
0.0053804465
0.005351346
0.0053242206
0.0052986399
0.0052742257
0.0052513234
0.0052297834
0.0052092889
0.0051897759
0.0051714519
0.0051540548
0.0051373662
0.0051216845
0.0051070852
0.0050933431
0.0050804378
0.0050683743
0.0050570445
0.0050464101
0.0050364272
0.005027058
0.0050183605
0.0050102992
0.0050027907
0.0049958947
0.0049895528
0.0049837941
0.0049786537
0.0049740626
0.004970026
0.0049666268
0.0049637446
0.0049617032
0.004959752
0.0049595391
0.11551092
0.11603089
0.11653888
0.11699669
0.11739766
0.11773472
0.11800014
0.11818572
0.11828292
0.11828272
0.1181757
0.11795192
0.11760101
0.1171121
0.11647392
0.11567475
0.11470255
0.11354494
0.11218937
0.11062357
0.10883505
0.10681117
0.10453998
0.10201029
0.099211957
0.096136266
0.092776425
0.089128137
0.085190281
0.080965749
0.076462427
0.071694401
0.066683506
0.061461522
0.056072839
0.050566135
0.045018017
0.039541432
0.034240566
0.029258752
0.024781766
0.021003011
0.018065146
0.015974523
0.014565432
0.013597988
0.012886785
0.012314452
0.01182052
0.011377259
0.010968823
0.010591511
0.010241256
0.0099165093
0.0096137088
0.0093277371
0.0090598487
0.0088109843
0.0085777546
0.0083590298
0.0081508515
0.0079569565
0.0077754758
0.0076034012
0.0074435452
0.0072929155
0.0071507232
0.0070186756
0.0068945296
0.0067765373
0.0066679298
0.0065659694
0.0064682911
0.0063775491
0.0062917957
0.0062088647
0.0061316882
0.0060590718
0.0059898225
0.0059265674
0.0058678149
0.0058124436
0.0057616778
0.0057139634
0.0056688658
0.0056258082
0.0055850737
0.0055460905
0.0055083788
0.0054727562
0.0054385191
0.0054063836
0.0053761607
0.0053472589
0.0053203034
0.0052950284
0.0052708119
0.0052481062
0.0052268015
0.0052065584
0.0051872677
0.0051691019
0.0051519075
0.0051354041
0.0051198312
0.0051053507
0.0050917549
0.0050789511
0.005066975
0.0050557378
0.0050451888
0.0050352805
0.0050259727
0.005017321
0.0050093121
0.0050018513
0.0049949943
0.0049886959
0.0049829701
0.0049778579
0.0049732973
0.0049692797
0.0049658944
0.0049630233
0.0049609884
0.0049590436
0.0049588353
0.11811623
0.11846157
0.11878419
0.11905112
0.11925583
0.11939151
0.11945067
0.11942542
0.11930742
0.11908789
0.11875758
0.11830675
0.11772521
0.11700231
0.11612701
0.11508788
0.11387317
0.11247092
0.11086906
0.10905591
0.10701968
0.10474853
0.10223154
0.09945871
0.096421339
0.093112459
0.089527368
0.085664267
0.081525025
0.07711608
0.072449506
0.067544284
0.062428071
0.057140051
0.051733303
0.046263122
0.040827942
0.035550879
0.030546093
0.025982199
0.022048545
0.018905487
0.016599745
0.015022539
0.013952156
0.01317714
0.012575405
0.012062593
0.011600401
0.011181032
0.01079482
0.010435864
0.010101307
0.009789428
0.0094971811
0.0092223524
0.0089647105
0.0087232126
0.0084973256
0.0082862017
0.0080843823
0.0078949868
0.0077187017
0.0075529267
0.007396367
0.0072494834
0.0071120618
0.0069830722
0.0068617766
0.00674698
0.0066408936
0.0065410982
0.0064457525
0.0063570046
0.0062729904
0.0061917958
0.0061160696
0.0060447691
0.0059767768
0.0059145959
0.0058567877
0.0058023306
0.0057523984
0.0057053816
0.0056609823
0.0056186694
0.0055785278
0.0055400594
0.0055027855
0.005467539
0.0054336138
0.0054016749
0.0053717582
0.0053430792
0.0053163025
0.0052913292
0.0052673302
0.0052448289
0.0052237617
0.0052037745
0.0051847196
0.005166719
0.0051497187
0.0051334115
0.0051179587
0.0051035892
0.0050901399
0.005077447
0.005065557
0.0050544093
0.0050439486
0.0050341149
0.0050248706
0.0050162654
0.0050083066
0.0050008958
0.0049940779
0.0049878229
0.0049821312
0.0049770464
0.0049725166
0.0049685189
0.0049651473
0.0049622878
0.0049602598
0.0049583218
0.0049581184
0.120172
0.1203456
0.12048514
0.12056332
0.12057373
0.12050985
0.12036452
0.1201301
0.11979849
0.11936113
0.11880896
0.11813246
0.11732165
0.11636613
0.11525514
0.11397758
0.11252211
0.11087725
0.1090315
0.10697388
0.10469348
0.10217941
0.099421949
0.096412544
0.093144214
0.089612052
0.085813825
0.081750683
0.077428015
0.072856442
0.068052955
0.063042253
0.057858801
0.052550477
0.047178077
0.041811187
0.036571652
0.031585311
0.02698607
0.022957695
0.019666838
0.017193522
0.015463572
0.014291203
0.013460259
0.012822953
0.012291212
0.011815042
0.011385677
0.010990999
0.010624451
0.010282214
0.0099622314
0.0096628715
0.0093819493
0.0091175883
0.0088692021
0.0086361148
0.0084171927
0.0082107331
0.0080171331
0.0078337827
0.007661605
0.0075020986
0.0073491658
0.0072063112
0.0070732739
0.0069471916
0.0068287563
0.0067174137
0.0066137177
0.006515972
0.0064230972
0.0063363348
0.0062539857
0.0061746045
0.0061003232
0.006030315
0.0059636105
0.0059024765