/*--------------------------------*- C++ -*----------------------------------*\
| =========                 |                                                 |
| \\      /  F ield         | OpenFOAM: The Open Source CFD Toolbox           |
|  \\    /   O peration     | Version:  2406                                  |
|   \\  /    A nd           | Website:  www.openfoam.com                      |
|    \\/     M anipulation  |                                                 |
\*---------------------------------------------------------------------------*/
FoamFile
{
    version     2.0;
    format      ascii;
    arch        "LSB;label=32;scalar=64";
    class       volScalarField;
    location    "0.015";
    object      Ma;
}
// * * * * * * * * * * * * * * * * * * * * * * * * * * * * * * * * * * * * * //

dimensions      [0 0 0 0 0 0 0];

internalField   nonuniform List<scalar> 
92813
(
0.14440294
0.14509195
0.1458309
0.14655462
0.14719599
0.14778016
0.14832713
0.14885042
0.14936251
0.14987407
0.15039426
0.15093044
0.15148835
0.15207227
0.15267837
0.15330725
0.15395501
0.15460967
0.15525812
0.15589558
0.15651879
0.15712273
0.15771337
0.15829435
0.15886614
0.15942792
0.15997815
0.16051478
0.1610353
0.16153683
0.16201606
0.16246926
0.16289229
0.16328052
0.16362884
0.16393146
0.16418186
0.16437698
0.16450472
0.16454603
0.16450656
0.16438063
0.16414803
0.16379878
0.16332475
0.16272128
0.16199116
0.16115225
0.16024763
0.15935175
0.15855442
0.15791601
0.15743651
0.15707507
0.15678644
0.1565392
0.15631545
0.15610578
0.15590546
0.15571243
0.15552678
0.15534819
0.15517561
0.15500786
0.15484536
0.15468817
0.15453506
0.15438686
0.15424328
0.1541028
0.1539665
0.1538344
0.15370502
0.15357943
0.1534577
0.15333836
0.15322256
0.1531101
0.1529997
0.15289282
0.15278936
0.15268823
0.15259049
0.15249607
0.1524047
0.15231549
0.15222892
0.152145
0.15206287
0.15198301
0.15190483
0.15182911
0.15175521
0.15168323
0.15161404
0.15154679
0.15148178
0.1514196
0.15135957
0.15130148
0.15124571
0.15119218
0.15114036
0.15109053
0.15104265
0.15099651
0.15095237
0.15091018
0.15086981
0.15083146
0.15079514
0.15076066
0.15072806
0.15069747
0.15066869
0.15064176
0.15061664
0.15059319
0.15057158
0.15055195
0.15053384
0.15051793
0.15050339
0.15049177
0.15048136
0.15047568
0.15047112
0.14187142
0.14275361
0.14363759
0.14447118
0.14524653
0.14597534
0.14666962
0.14733833
0.14798965
0.14863138
0.14927085
0.14991461
0.15056785
0.15123357
0.15191085
0.15259771
0.15328978
0.1539799
0.15466097
0.15532943
0.15598321
0.15662071
0.15724372
0.15785377
0.15845109
0.15903496
0.159604
0.1601563
0.16068948
0.16120076
0.16168689
0.16214422
0.1625686
0.16295539
0.16329945
0.16359501
0.16383575
0.1640168
0.16412514
0.16414748
0.16408877
0.16393357
0.16366885
0.16328531
0.16277527
0.16213636
0.16137607
0.16052027
0.15962319
0.15876792
0.15803921
0.15747655
0.15706027
0.15674351
0.15648469
0.15625827
0.15605047
0.15585413
0.15566561
0.15548343
0.15530806
0.15513927
0.15497595
0.15481686
0.15466269
0.15451342
0.15436775
0.15422671
0.15408993
0.15395581
0.15382568
0.15369946
0.1535756
0.15345536
0.15333873
0.15322419
0.15311305
0.15300505
0.15289879
0.15279593
0.15269633
0.15259885
0.15250468
0.15241365
0.15232549
0.15223934
0.15215567
0.15207452
0.15199503
0.15191772
0.15184195
0.1517685
0.15169681
0.15162691
0.1515597
0.15149437
0.15143117
0.15137071
0.15131238
0.15125589
0.15120163
0.15114957
0.15109918
0.15105067
0.15100407
0.15095914
0.15091614
0.15087503
0.15083568
0.15079827
0.15076287
0.15072924
0.15069744
0.1506676
0.15063954
0.15061326
0.15058876
0.15056587
0.15054475
0.15052558
0.15050787
0.15049231
0.15047806
0.15046669
0.15045647
0.15045091
0.1504464
0.13902192
0.14002785
0.14108215
0.14207819
0.14301243
0.14389685
0.14474205
0.14555571
0.14634474
0.1471158
0.14787522
0.14862869
0.14938087
0.1501346
0.15089015
0.15164603
0.1523989
0.15314391
0.15387617
0.15459269
0.1552917
0.15597228
0.15663501
0.1572808
0.15790988
0.15852177
0.15911529
0.15968875
0.16023994
0.1607662
0.1612644
0.16173094
0.16216173
0.16255213
0.16289695
0.16319039
0.16342608
0.16359804
0.16369259
0.16370268
0.16362853
0.16344918
0.16315837
0.16274663
0.16220746
0.16154136
0.16076116
0.1599015
0.15902709
0.15822503
0.15756778
0.15707305
0.15670811
0.15642612
0.15619094
0.15598212
0.15578878
0.15560513
0.15542815
0.15525667
0.15509144
0.15493238
0.15477827
0.1546278
0.15448189
0.1543405
0.15420221
0.15406825
0.15393822
0.15381042
0.15368637
0.153566
0.15344762
0.15333268
0.15322112
0.15311135
0.15300483
0.15290128
0.15279914
0.15270023
0.15260445
0.15251056
0.15241988
0.15233214
0.15224713
0.15216395
0.1520831
0.15200468
0.15192778
0.15185296
0.15177956
0.15170834
0.15163886
0.15157099
0.15150572
0.15144233
0.15138091
0.15132214
0.1512655
0.15121058
0.15115778
0.15110717
0.15105817
0.15101094
0.15096557
0.15092182
0.15087993
0.15083987
0.15080151
0.15076503
0.15073051
0.15069772
0.15066668
0.15063756
0.15061017
0.15058451
0.15056058
0.15053822
0.15051757
0.15049883
0.1504815
0.15046626
0.1504523
0.15044117
0.15043112
0.15042568
0.15042122
0.13638406
0.13750053
0.13869037
0.13982806
0.14090381
0.14192703
0.14290685
0.14384989
0.14476209
0.14564926
0.14651691
0.14737001
0.14821262
0.14904742
0.14987529
0.15069563
0.15150632
0.15230416
0.15308576
0.15384871
0.15459143
0.15531303
0.15601368
0.15669386
0.15735371
0.15799279
0.15861006
0.15920397
0.15977247
0.16031298
0.16082248
0.16129742
0.16173373
0.16212675
0.16247124
0.16276131
0.16299041
0.16315183
0.16323248
0.16322928
0.16313605
0.16293148
0.16261364
0.16217286
0.16160469
0.16091333
0.1601183
0.15926415
0.15842511
0.15768695
0.15710439
0.15667449
0.15635635
0.15610593
0.15589268
0.15570079
0.15552172
0.15535075
0.15518539
0.15502472
0.15486976
0.15472055
0.15457578
0.15443403
0.15429653
0.15416315
0.15403235
0.15390559
0.15378243
0.15366106
0.15354323
0.15342882
0.15331604
0.15320651
0.15310015
0.15299525
0.15289345
0.15279446
0.15269654
0.15260171
0.15250984
0.15241964
0.15233255
0.15224821
0.15216643
0.15208631
0.15200838
0.15193277
0.15185854
0.15178629
0.15171534
0.15164642
0.15157921
0.15151345
0.15145019
0.15138879
0.15132921
0.15127219
0.1512173
0.15116402
0.15111273
0.15106362
0.15101606
0.15097016
0.15092606
0.15088354
0.15084279
0.15080382
0.15076649
0.15073096
0.15069737
0.15066544
0.1506352
0.15060682
0.15058013
0.15055511
0.15053179
0.15050998
0.15048981
0.15047152
0.15045459
0.1504397
0.15042602
0.15041514
0.15040528
0.15039997
0.15039556
0.13393667
0.13515198
0.13645089
0.13770733
0.13890611
0.14005216
0.14115217
0.14221131
0.1432345
0.14422667
0.14519259
0.14613661
0.14706232
0.14797229
0.14886777
0.14974883
0.15061435
0.15146237
0.15229069
0.15309753
0.15388158
0.15464207
0.15537886
0.15609209
0.15678168
0.15744715
0.15808752
0.15870131
0.15928654
0.15984074
0.16036092
0.16084357
0.16128461
0.16167936
0.16202251
0.16230802
0.16252912
0.16267839
0.16274482
0.16272626
0.16261029
0.1623795
0.16203334
0.16156262
0.16096588
0.16025216
0.1594491
0.15861196
0.15782186
0.1571567
0.15664972
0.15628054
0.15600479
0.15578302
0.15559025
0.15541474
0.15524985
0.15509161
0.15493801
0.15478833
0.1546438
0.15450463
0.15436937
0.15423649
0.15410757
0.15398237
0.1538592
0.15373979
0.15362364
0.15350882
0.15339735
0.15328902
0.15318196
0.15307795
0.15297689
0.15287697
0.15277999
0.15268565
0.15259206
0.15250138
0.1524135
0.15232707
0.15224364
0.15216276
0.15208425
0.15200727
0.15193231
0.15185957
0.15178805
0.15171842
0.15164996
0.1515834
0.15151851
0.1514549
0.15139368
0.15133432
0.15127662
0.15122138
0.15116825
0.15111665
0.1510669
0.1510193
0.15097321
0.15092866
0.15088585
0.15084457
0.15080499
0.15076713
0.15073085
0.1506963
0.15066363
0.15063259
0.15060315
0.15057553
0.15054955
0.15052518
0.15050247
0.15048121
0.15046154
0.1504437
0.15042718
0.15041263
0.15039926
0.15038862
0.15037895
0.15037376
0.15036942
0.13165293
0.13296929
0.13436292
0.13571967
0.13702327
0.13827505
0.13947934
0.14063996
0.14176084
0.14284608
0.14389973
0.14492556
0.14592677
0.14690578
0.14786407
0.14880213
0.14971958
0.15061536
0.15148811
0.15233661
0.15315985
0.15395716
0.15472824
0.15547294
0.156191
0.15688183
0.15754445
0.15817739
0.1587787
0.15934596
0.15987619
0.16036588
0.16081092
0.16120658
0.16154745
0.16182737
0.16203938
0.16217514
0.16222608
0.16219003
0.16204931
0.16179132
0.1614156
0.16091471
0.16029093
0.15955946
0.15875747
0.15795075
0.15722279
0.15663689
0.15620368
0.1558902
0.15565254
0.1554569
0.15528342
0.15512391
0.15497315
0.15482774
0.15468606
0.15454754
0.1544136
0.15428464
0.15415906
0.15403517
0.15391501
0.15379813
0.15368271
0.15357078
0.15346175
0.1533536
0.1532486
0.15314648
0.15304524
0.15294687
0.1528512
0.15275635
0.15266428
0.15257467
0.15248549
0.15239906
0.15231524
0.15223264
0.15215295
0.15207559
0.15200041
0.15192661
0.1518547
0.15178487
0.15171613
0.15164917
0.15158326
0.15151909
0.15145659
0.15139517
0.15133603
0.15127876
0.15122298
0.15116954
0.15111822
0.15106833
0.15102015
0.15097408
0.1509295
0.15088634
0.15084483
0.15080484
0.15076645
0.15072972
0.1506945
0.15066094
0.15062923
0.15059909
0.15057048
0.15054362
0.15051837
0.15049467
0.15047257
0.15045189
0.15043272
0.15041535
0.15039925
0.15038505
0.15037198
0.1503616
0.15035212
0.15034706
0.15034277
0.1295385
0.13095833
0.13243557
0.13387602
0.13526652
0.13660647
0.13789852
0.13914539
0.1403501
0.14151597
0.14264638
0.14374452
0.14481317
0.14585457
0.14687023
0.14786095
0.14882681
0.14976736
0.15068184
0.15156944
0.15242941
0.15326117
0.15406432
0.15483853
0.15558336
0.15629811
0.15698171
0.15763269
0.15824909
0.15882846
0.1593678
0.15986357
0.1603116
0.16070709
0.16104451
0.16131761
0.16151928
0.16163979
0.16167369
0.16161851
0.1614511
0.16116465
0.16075848
0.16022797
0.15958006
0.15883761
0.15804843
0.15728707
0.15663303
0.15612928
0.15576576
0.1555024
0.15529883
0.15512718
0.15497203
0.15482824
0.15469163
0.15455914
0.15442955
0.15430237
0.15417917
0.15406059
0.15394484
0.15383007
0.15371884
0.15361044
0.15350288
0.15339855
0.15329678
0.15319542
0.15309701
0.15300121
0.1529059
0.15281326
0.15272309
0.15263342
0.15254634
0.15246154
0.15237686
0.15229478
0.1522151
0.1521364
0.1520605
0.15198673
0.15191493
0.15184439
0.15177558
0.15170872
0.15164281
0.15157857
0.15151526
0.15145353
0.15139346
0.15133428
0.15127726
0.15122214
0.15116831
0.15111671
0.15106723
0.15101909
0.15097252
0.150928
0.15088496
0.15084322
0.15080303
0.15076434
0.15072717
0.15069158
0.15065745
0.15062491
0.15059416
0.15056495
0.15053718
0.1505111
0.1504866
0.15046357
0.15044211
0.15042201
0.15040335
0.15038645
0.15037078
0.15035693
0.15034418
0.15033405
0.15032477
0.15031984
0.15031562
0.12762162
0.12913051
0.13067646
0.13218369
0.13364329
0.13505405
0.13641746
0.1377354
0.13901011
0.14024417
0.14144027
0.14260102
0.14372878
0.1448255
0.14589264
0.1469311
0.14794125
0.14892301
0.14987599
0.1507997
0.15169358
0.15255711
0.15338982
0.15419126
0.15496083
0.15569769
0.15640068
0.15706825
0.15769839
0.15828858
0.1588358
0.1593364
0.15978615
0.16018011
0.16051263
0.16077734
0.16096705
0.16107042
0.16108623
0.16100965
0.1608133
0.16049723
0.16006026
0.15950166
0.15883426
0.15809019
0.15732817
0.15662762
0.15605651
0.15563428
0.15533475
0.15511596
0.15494298
0.15479353
0.15465596
0.15452772
0.1544053
0.15428585
0.15416852
0.15405286
0.15394056
0.15383252
0.15372674
0.1536212
0.15351908
0.15341928
0.15331972
0.15322312
0.15312872
0.15303426
0.15294257
0.15285318
0.15276391
0.15267712
0.15259254
0.15250814
0.15242614
0.15234623
0.15226615
0.1521885
0.15211303
0.15203832
0.15196627
0.15189614
0.15182777
0.15176055
0.15169492
0.15163109
0.15156806
0.15150659
0.15144593
0.15138668
0.15132911
0.15127221
0.15121734
0.15116442
0.15111258
0.15106285
0.15101525
0.1509689
0.15092398
0.15088102
0.15083955
0.15079926
0.15076043
0.15072305
0.15068714
0.15065271
0.15061969
0.15058818
0.15055842
0.15053015
0.15050324
0.15047796
0.15045421
0.15043188
0.15041106
0.15039156
0.15037342
0.150357
0.15034176
0.15032828
0.15031585
0.15030599
0.1502969
0.15029211
0.15028795
0.12590991
0.12748853
0.12908668
0.13064411
0.13215594
0.13362104
0.13504024
0.13641474
0.1377461
0.13903621
0.1402871
0.1415008
0.14267921
0.14382395
0.14493631
0.14601717
0.14706699
0.14808591
0.14907377
0.15003025
0.1509549
0.15184726
0.15270679
0.15353291
0.15432489
0.15508176
0.15580223
0.15648464
0.15712688
0.15772635
0.15827991
0.15878383
0.15923373
0.15962454
0.15995043
0.16020483
0.16038037
0.16046576
0.16046246
0.16036018
0.16013325
0.15978689
0.15931957
0.1587358
0.1580559
0.15732261
0.15660431
0.155979
0.15549589
0.15515132
0.15490921
0.15472978
0.15458439
0.15445574
0.15433518
0.15422239
0.15411421
0.15400789
0.15390299
0.15379908
0.1536978
0.15360044
0.15350477
0.15340858
0.15331572
0.15322465
0.15313323
0.15304447
0.15295754
0.15287012
0.15278525
0.15270239
0.15261927
0.15253842
0.15245954
0.1523805
0.15230368
0.15222871
0.15215333
0.1520802
0.15200902
0.15193837
0.15187025
0.15180381
0.15173891
0.15167509
0.15161269
0.15155194
0.15149186
0.15143322
0.15137525
0.15131854
0.15126352
0.15120894
0.15115627
0.1511056
0.15105579
0.15100797
0.15096227
0.15091775
0.15087451
0.15083314
0.15079326
0.15075447
0.150717
0.15068097
0.15064633
0.1506131
0.1505812
0.15055075
0.15052199
0.15049468
0.15046866
0.15044419
0.15042121
0.15039958
0.15037941
0.15036052
0.15034292
0.15032698
0.15031219
0.15029908
0.15028698
0.15027738
0.15026851
0.15026385
0.15025976
0.12440358
0.1260292
0.12766257
0.12925442
0.13080301
0.13230744
0.13376816
0.13518579
0.13656132
0.13789598
0.13919117
0.14044838
0.14166903
0.14285437
0.14400545
0.14512303
0.14620757
0.14725924
0.14827798
0.14926356
0.15021558
0.15113357
0.15201692
0.15286495
0.15367678
0.15445128
0.15518703
0.15588223
0.15653464
0.15714154
0.15769964
0.15820508
0.15865331
0.15903908
0.15935641
0.15959849
0.15975724
0.15982374
0.15979941
0.15966701
0.15940878
0.15903181
0.15853569
0.15793164
0.15724924
0.15654239
0.15588547
0.15534692
0.15495234
0.15467909
0.15448759
0.15434289
0.15422266
0.15411366
0.15400973
0.15391231
0.15381842
0.15372533
0.15363305
0.15354107
0.15345096
0.15336442
0.15327896
0.15319227
0.1531088
0.15302655
0.15294341
0.15286261
0.15278326
0.15270299
0.15262507
0.15254883
0.15247197
0.15239717
0.15232406
0.15225048
0.15217893
0.15210899
0.1520384
0.15196988
0.15190305
0.15183654
0.15177239
0.15170971
0.15164834
0.15158798
0.15152889
0.15147126
0.15141419
0.15135843
0.15130322
0.15124908
0.15119666
0.15114446
0.15109403
0.15104565
0.15099792
0.15095204
0.15090827
0.15086562
0.15082411
0.15078434
0.15074608
0.15070882
0.15067274
0.15063807
0.15060475
0.15057272
0.15054198
0.1505126
0.15048487
0.15045853
0.15043341
0.15040976
0.15038757
0.15036666
0.15034716
0.1503289
0.15031184
0.15029639
0.15028206
0.15026933
0.15025756
0.15024823
0.15023957
0.15023505
0.15023104
0.12309897
0.12474518
0.12639631
0.12800829
0.12958005
0.1311107
0.13260028
0.13404899
0.13545727
0.13682579
0.1381554
0.13944706
0.14070174
0.14192031
0.14310353
0.14425197
0.14536598
0.14644569
0.14749104
0.14850179
0.14947753
0.15041772
0.15132169
0.15218862
0.15301748
0.15380699
0.15455556
0.15526123
0.1559216
0.15653378
0.15709433
0.15759919
0.15804362
0.1584222
0.15872878
0.15895643
0.15909573
0.15914108
0.15909306
0.1589282
0.15863823
0.15823068
0.15770889
0.15709217
0.15642092
0.15575905
0.15518035
0.15473541
0.15442549
0.15421571
0.15406839
0.15395447
0.15385745
0.15376721
0.15367968
0.1535976
0.15351801
0.15343825
0.15335875
0.15327893
0.15320011
0.15312449
0.15304937
0.15297231
0.15289832
0.15282498
0.15275028
0.15267756
0.15260586
0.15253287
0.15246201
0.15239249
0.152322
0.15225334
0.15218609
0.15211809
0.15205188
0.15198704
0.15192134
0.15185751
0.1517951
0.15173281
0.1516727
0.15161383
0.15155602
0.15149921
0.15144349
0.15138903
0.15133504
0.15128221
0.1512298
0.15117829
0.15112852
0.15107875
0.15103061
0.15098457
0.15093894
0.15089504
0.15085324
0.15081249
0.15077275
0.15073461
0.150698
0.1506623
0.15062764
0.15059435
0.15056236
0.15053157
0.150502
0.15047372
0.15044703
0.15042169
0.15039749
0.15037468
0.15035328
0.15033312
0.15031429
0.15029666
0.15028016
0.15026521
0.15025135
0.150239
0.15022758
0.15021852
0.15021009
0.1502057
0.15020177
0.12196954
0.12362159
0.12527754
0.12689777
0.12848124
0.13002681
0.13153422
0.1330033
0.13443403
0.13582662
0.13718145
0.138499
0.1397798
0.14102438
0.14223318
0.14340653
0.14454463
0.14564748
0.14671495
0.14774671
0.14874229
0.14970106
0.15062223
0.15150484
0.1523477
0.15314936
0.15390804
0.1546216
0.15528744
0.15590249
0.15646309
0.15696497
0.15740318
0.15777205
0.1580653
0.15827605
0.15839299
0.1584153
0.15834088
0.15814145
0.15781953
0.15738288
0.15684097
0.15622283
0.15558034
0.15498349
0.15449649
0.15414632
0.15391373
0.15375915
0.15365027
0.1535639
0.15348857
0.15341636
0.15334518
0.15327842
0.15321307
0.15314673
0.15308017
0.15301272
0.15294536
0.15288072
0.15281603
0.15274881
0.15268432
0.15261991
0.15255387
0.15248933
0.15242536
0.15235978
0.15229609
0.15223337
0.15216936
0.15210694
0.15204563
0.15198331
0.15192252
0.15186285
0.15180213
0.15174307
0.15168516
0.15162717
0.15157116
0.15151613
0.15146196
0.15140877
0.15135647
0.15130523
0.15125438
0.15120454
0.151155
0.15110615
0.15105909
0.1510118
0.15096598
0.15092233
0.15087886
0.15083698
0.15079717
0.15075836
0.15072043
0.15068394
0.15064898
0.1506149
0.15058169
0.15054979
0.15051917
0.15048964
0.15046125
0.15043409
0.15040846
0.15038414
0.15036088
0.15033894
0.15031835
0.15029893
0.1502808
0.15026382
0.15024789
0.15023344
0.15022006
0.1502081
0.15019703
0.15018825
0.15018004
0.1501758
0.15017194
0.12100076
0.12264734
0.12429751
0.1259157
0.12750079
0.12905136
0.13056685
0.13204673
0.13349064
0.13489838
0.1362699
0.1376053
0.13890471
0.1401683
0.14139623
0.14258857
0.1437453
0.14486628
0.14595121
0.14699966
0.14801103
0.14898457
0.14991935
0.15081423
0.15166785
0.15247857
0.15324441
0.153963
0.15463156
0.15524676
0.15580473
0.15630094
0.15673018
0.1570865
0.15736336
0.15755399
0.15764713
0.15764483
0.15753897
0.15730384
0.15695117
0.15648922
0.15593612
0.15533221
0.15473952
0.15422668
0.15383903
0.15357928
0.15341463
0.15330749
0.15323209
0.15317066
0.15311583
0.15306112
0.15300649
0.15295503
0.1529037
0.15285086
0.15279741
0.15274257
0.15268682
0.15263318
0.15257898
0.15252185
0.15246683
0.15241136
0.15235423
0.15229795
0.15224175
0.15218375
0.15212732
0.15207145
0.15201407
0.15195796
0.15190266
0.15184613
0.15179085
0.15173641
0.15168078
0.15162656
0.15157321
0.1515196
0.15146774
0.1514166
0.15136612
0.15131665
0.15126782
0.15121985
0.15117221
0.15112541
0.15107878
0.15103265
0.15098833
0.15094359
0.15090015
0.15085891
0.15081765
0.15077782
0.15074004
0.1507032
0.15066714
0.15063231
0.15059903
0.1505666
0.15053487
0.15050439
0.15047515
0.15044692
0.15041973
0.15039371
0.15036916
0.15034587
0.15032358
0.15030251
0.15028274
0.1502641
0.15024666
0.15023034
0.150215
0.15020106
0.15018817
0.15017661
0.1501659
0.1501574
0.15014942
0.15014533
0.15014155
0.12018079
0.12181229
0.12344767
0.12505486
0.1266327
0.12817951
0.12969439
0.13117654
0.13262527
0.13404002
0.1354204
0.13676614
0.13807704
0.13935296
0.14059374
0.14179921
0.14296913
0.14410315
0.14520081
0.14626151
0.14728449
0.14826884
0.14921346
0.15011703
0.15097798
0.15179445
0.15256425
0.15328478
0.15395301
0.15456537
0.15511773
0.15560528
0.15602252
0.15636322
0.15662054
0.15678732
0.15685519
0.15682613
0.15668358
0.15641383
0.15603308
0.15555277
0.15500183
0.15443245
0.15391211
0.15349776
0.15321001
0.15303205
0.15292561
0.15285935
0.15281288
0.15277433
0.15273893
0.15270164
0.15266422
0.15262775
0.15258985
0.15255066
0.15251053
0.15246864
0.15242468
0.15238191
0.15233823
0.15229155
0.15224589
0.15219932
0.15215141
0.15210343
0.15205504
0.1520048
0.15195572
0.15190674
0.15185611
0.15180642
0.15175717
0.15170655
0.15165686
0.15160772
0.15155728
0.15150795
0.15145922
0.15141008
0.15136244
0.15131524
0.1512685
0.15122283
0.15117752
0.15113285
0.15108849
0.15104479
0.15100115
0.15095776
0.15091624
0.15087411
0.15083309
0.1507943
0.15075529
0.15071757
0.15068183
0.150647
0.15061284
0.15057972
0.15054813
0.15051738
0.15048717
0.15045812
0.15043028
0.15040338
0.15037742
0.15035255
0.15032911
0.15030687
0.15028556
0.15026539
0.15024645
0.1502286
0.15021188
0.15019623
0.15018149
0.15016807
0.15015567
0.15014453
0.15013418
0.15012597
0.15011823
0.15011428
0.15011059
0.11949792
0.12110619
0.12271911
0.12430765
0.12587055
0.12740591
0.12891254
0.13038935
0.13183536
0.13324973
0.13463175
0.13598086
0.13729656
0.13857841
0.139826
0.14103889
0.14221661
0.14335861
0.14446422
0.14553264
0.14656294
0.14755402
0.14850457
0.14941306
0.15027771
0.15109643
0.15186676
0.15258588
0.15325047
0.1538567
0.15440014
0.15487572
0.15527764
0.15559942
0.15583399
0.15597314
0.15601287
0.15595407
0.1557732
0.15547144
0.15506737
0.15457992
0.15404978
0.15353891
0.15311136
0.1528023
0.15260851
0.15250142
0.1524444
0.15241383
0.15239202
0.15237447
0.15235718
0.15233838
0.15231924
0.15229672
0.15227127
0.15224607
0.15221965
0.15219129
0.1521592
0.15212686
0.15209373
0.15205805
0.15202159
0.15198385
0.15194548
0.15190581
0.15186525
0.15182296
0.1517813
0.15173924
0.15169552
0.15165233
0.15160916
0.15156458
0.15152055
0.15147677
0.15143162
0.15138724
0.15134318
0.15129861
0.15125524
0.15121201
0.15116908
0.15112731
0.15108556
0.15104423
0.15100323
0.15096267
0.15092207
0.15088149
0.15084278
0.15080334
0.1507648
0.15072847
0.15069178
0.1506562
0.15062254
0.15058974
0.15055753
0.15052615
0.15049626
0.15046724
0.15043857
0.15041097
0.15038456
0.15035902
0.15033431
0.15031062
0.15028829
0.15026713
0.15024683
0.15022757
0.15020947
0.15019243
0.15017644
0.15016147
0.15014734
0.15013445
0.15012255
0.15011183
0.15010186
0.15009394
0.15008644
0.15008264
0.15007904
0.11894004
0.12051842
0.12210257
0.12366607
0.12520752
0.12672481
0.12821648
0.12968119
0.13111772
0.13252498
0.13390202
0.13524802
0.13656223
0.13784396
0.13909255
0.14030732
0.14148757
0.14263252
0.14374129
0.14481289
0.14584615
0.14683976
0.1477922
0.14870171
0.14956626
0.15038349
0.15115071
0.15186479
0.15252213
0.15311862
0.15364954
0.1541095
0.15449243
0.1547916
0.15499989
0.15510746
0.15511719
0.1550261
0.1548068
0.15447751
0.15405921
0.15358152
0.15309613
0.15266843
0.1523474
0.15214163
0.15203217
0.15198462
0.1519695
0.15196935
0.15196932
0.15197036
0.15197028
0.15197228
0.15197149
0.15196127
0.15194817
0.15193734
0.15192497
0.15191081
0.15189064
0.15186791
0.15184537
0.15182158
0.15179407
0.15176502
0.1517365
0.15170513
0.15167233
0.15163827
0.15160411
0.15156895
0.15153231
0.15149569
0.15145863
0.15142023
0.15138193
0.15134355
0.15130381
0.15126442
0.15122509
0.15118518
0.15114614
0.15110692
0.15106786
0.15103007
0.15099191
0.15095396
0.1509164
0.15087905
0.15084154
0.15080382
0.15076796
0.15073126
0.15069527
0.15066142
0.1506271
0.15059372
0.15056215
0.15053141
0.1505012
0.15047159
0.15044342
0.15041614
0.15038907
0.15036294
0.15033797
0.15031382
0.15029039
0.15026789
0.1502467
0.15022663
0.15020735
0.15018903
0.15017179
0.15015557
0.15014032
0.15012605
0.15011254
0.1501002
0.15008881
0.15007852
0.15006892
0.1500613
0.15005405
0.15005041
0.1500469
0.11849503
0.12003834
0.12158879
0.12312207
0.12463665
0.12613019
0.12760103
0.12904762
0.13046857
0.1318626
0.13322857
0.13456545
0.13587229
0.13714817
0.13839221
0.13960351
0.14078115
0.14192412
0.14303131
0.14410151
0.14513332
0.14612519
0.14707537
0.14798184
0.14884231
0.14965413
0.15041433
0.15111948
0.15176567
0.1523485
0.15286294
0.15330332
0.15366327
0.15393566
0.15411344
0.15418802
0.15416696
0.15403811
0.1537844
0.15343602
0.15301865
0.15257397
0.15216047
0.15183618
0.15162554
0.1515144
0.15147946
0.15148098
0.15149645
0.15152033
0.15154333
0.15156378
0.15158226
0.15160261
0.15161762
0.15162136
0.15162317
0.15162559
0.15162691
0.15162689
0.15161879
0.15160526
0.15159324
0.15158224
0.15156342
0.15154307
0.1515245
0.1515014
0.15147621
0.15145081
0.15142419
0.15139584
0.1513665
0.15133654
0.15130557
0.1512735
0.15124101
0.15120805
0.15117383
0.15113948
0.15110494
0.15106978
0.15103512
0.15099996
0.15096483
0.15093111
0.15089658
0.15086204
0.150828
0.1507939
0.15075954
0.15072474
0.15069175
0.15065786
0.15062449
0.15059311
0.15056122
0.1505301
0.15050065
0.150472
0.15044382
0.15041603
0.15038958
0.15036407
0.15033865
0.15031402
0.15029049
0.15026776
0.15024564
0.15022437
0.15020432
0.15018536
0.15016713
0.15014977
0.1501334
0.15011801
0.15010352
0.15008996
0.15007709
0.15006529
0.15005443
0.15004457
0.15003537
0.15002805
0.15002105
0.15001756
0.15001415
0.11815124
0.11965596
0.12116895
0.12266786
0.12415098
0.12561586
0.12706067
0.12848375
0.12988358
0.13125878
0.13260807
0.13393025
0.13522421
0.13648885
0.13772307
0.13892578
0.14009583
0.14123198
0.14233291
0.14339715
0.14442307
0.14540887
0.14635253
0.14725176
0.14810397
0.14890625
0.14965527
0.15034731
0.15097815
0.15154305
0.15203674
0.15245331
0.1527862
0.15302778
0.15317032
0.15321169
0.15315849
0.15298929
0.15271015
0.15235606
0.15196196
0.15157874
0.15126272
0.1510528
0.15094698
0.15092144
0.15094239
0.15097914
0.15102259
0.15106892
0.15111482
0.15115593
0.15119358
0.15122882
0.15125791
0.15127886
0.15129664
0.15131214
0.15132613
0.15133749
0.15134282
0.15134036
0.15133821
0.15133943
0.15132957
0.15131851
0.1513094
0.15129454
0.15127689
0.15126077
0.15124162
0.15121987
0.15119817
0.15117493
0.15114995
0.15112442
0.15109781
0.15107025
0.1510417
0.15101243
0.15098271
0.15095241
0.15092216
0.15089113
0.15085999
0.15083039
0.15079953
0.15076844
0.15073802
0.15070721
0.15067605
0.15064425
0.15061412
0.15058314
0.15055245
0.15052355
0.15049415
0.15046533
0.15043804
0.15041149
0.15038537
0.15035945
0.15033474
0.15031103
0.1502873
0.15026419
0.15024212
0.15022083
0.15020005
0.15018002
0.15016115
0.15014331
0.15012615
0.15010977
0.15009428
0.15007974
0.15006603
0.15005318
0.15004097
0.15002973
0.15001939
0.15000999
0.15000117
0.14999416
0.14998743
0.1499841
0.14998078
0.11789892
0.1193625
0.12083502
0.12229601
0.12374369
0.12517551
0.12658958
0.12798422
0.12935786
0.13070907
0.13203648
0.13333879
0.13461474
0.13586306
0.13708248
0.13827171
0.13942936
0.14055399
0.14164404
0.14269779
0.14371336
0.14468869
0.14562146
0.1465091
0.14734873
0.14813708
0.14887052
0.14954498
0.15015591
0.1506983
0.15116662
0.1515549
0.15185661
0.15206367
0.15216702
0.15217502
0.15208865
0.1518842
0.151593
0.15125389
0.15091214
0.15061946
0.15041936
0.15032334
0.1503113
0.1503505
0.15040982
0.15047694
0.15054913
0.15061974
0.15068592
0.15074625
0.15080147
0.15085217
0.15089662
0.15093389
0.15096664
0.15099606
0.1510225
0.15104435
0.15106289
0.15107274
0.1510815
0.15109124
0.15109266
0.15109226
0.15109097
0.15108438
0.15107485
0.15106843
0.15105631
0.151041
0.15102746
0.15101085
0.15099171
0.15097301
0.15095238
0.15093013
0.1509074
0.15088329
0.1508584
0.15083306
0.15080727
0.15078043
0.15075336
0.1507279
0.15070078
0.15067317
0.15064643
0.15061898
0.15059104
0.15056234
0.15053509
0.15050706
0.15047914
0.15045271
0.15042586
0.1503994
0.15037429
0.15034986
0.15032585
0.15030185
0.1502789
0.15025699
0.15023499
0.15021344
0.15019283
0.15017302
0.15015361
0.15013485
0.15011716
0.15010046
0.15008439
0.15006901
0.15005443
0.15004074
0.15002782
0.15001571
0.15000416
0.1499935
0.14998369
0.14997475
0.14996634
0.14995964
0.14995318
0.14995001
0.14994679
0.11772862
0.11914976
0.12057938
0.12199933
0.12340785
0.1248025
0.12618143
0.12754303
0.12888579
0.13020825
0.13150901
0.13278667
0.13403984
0.13526711
0.13646703
0.13763811
0.13877876
0.1398873
0.14096194
0.14200071
0.14300146
0.14396184
0.14487925
0.14575081
0.1465733
0.14734312
0.1480563
0.1487084
0.14929456
0.14980948
0.15024751
0.15060276
0.15086909
0.15103789
0.15110217
0.15107867
0.15095725
0.15073151
0.15044921
0.15015431
0.14989698
0.14971744
0.14964142
0.1496473
0.14970238
0.1497884
0.14988157
0.14998106
0.15007841
0.15017033
0.15025582
0.15033451
0.15040691
0.15047336
0.15053316
0.15058608
0.15063361
0.15067667
0.15071563
0.15074991
0.15077938
0.15080177
0.15082211
0.1508396
0.15085314
0.15086255
0.1508693
0.1508709
0.15087131
0.15087361
0.15086787
0.15085956
0.15085457
0.15084423
0.15083083
0.15081942
0.15080475
0.15078762
0.15077096
0.1507521
0.15073197
0.15071174
0.15069043
0.15066787
0.15064496
0.1506236
0.1506003
0.15057622
0.15055324
0.1505292
0.15050451
0.15047901
0.15045463
0.15042963
0.15040454
0.15038059
0.15035635
0.1503323
0.1503094
0.15028712
0.15026523
0.15024321
0.15022205
0.15020194
0.15018172
0.15016176
0.15014263
0.15012431
0.15010631
0.15008885
0.15007234
0.1500568
0.15004184
0.15002749
0.15001383
0.15000101
0.14998891
0.14997753
0.14996666
0.14995659
0.14994732
0.14993885
0.14993085
0.14992447
0.14991828
0.14991528
0.14991216
0.11763151
0.11900981
0.12039522
0.12177085
0.12313628
0.12448956
0.12582908
0.12715335
0.1284609
0.12975028
0.13102004
0.13226868
0.13349469
0.13469651
0.13587253
0.13702105
0.13814028
0.13922831
0.14028309
0.14130241
0.14228384
0.14322473
0.14412218
0.14497299
0.14577358
0.14652002
0.14720797
0.14783265
0.14838887
0.14887112
0.14927373
0.14959126
0.14981882
0.1499465
0.14997572
0.14992336
0.14977225
0.14954882
0.14930525
0.14908962
0.14894446
0.14889153
0.14892299
0.14900334
0.14911207
0.14923509
0.14936338
0.14948917
0.14960869
0.14972063
0.14982476
0.1499212
0.15001041
0.15009266
0.1501678
0.1502359
0.15029789
0.15035452
0.15040609
0.15045235
0.15049329
0.15052809
0.15055915
0.15058692
0.15061019
0.15062895
0.15064474
0.1506558
0.15066565
0.15067483
0.15067621
0.15067668
0.15067929
0.15067476
0.15066761
0.15066375
0.1506548
0.15064272
0.15063249
0.15061889
0.1506034
0.15058845
0.15057164
0.15055345
0.15053479
0.15051744
0.15049812
0.15047762
0.15045841
0.15043785
0.15041643
0.15039425
0.15037274
0.15035084
0.15032863
0.15030718
0.15028561
0.15026402
0.15024335
0.15022323
0.15020349
0.1501835
0.15016417
0.15014586
0.15012746
0.15010914
0.1500915
0.15007468
0.15005812
0.15004199
0.15002669
0.15001233
0.14999849
0.14998519
0.14997247
0.14996054
0.14994926
0.14993863
0.14992846
0.14991899
0.14991026
0.14990227
0.14989469
0.14988863
0.14988272
0.14987989
0.14987688
0.11759791
0.1189315
0.12027178