/*--------------------------------*- C++ -*----------------------------------*\
| =========                 |                                                 |
| \\      /  F ield         | OpenFOAM: The Open Source CFD Toolbox           |
|  \\    /   O peration     | Version:  2406                                  |
|   \\  /    A nd           | Website:  www.openfoam.com                      |
|    \\/     M anipulation  |                                                 |
\*---------------------------------------------------------------------------*/
FoamFile
{
    version     2.0;
    format      ascii;
    arch        "LSB;label=32;scalar=64";
    class       volScalarField;
    location    "0.079";
    object      Ma;
}
// * * * * * * * * * * * * * * * * * * * * * * * * * * * * * * * * * * * * * //

dimensions      [0 0 0 0 0 0 0];

internalField   nonuniform List<scalar> 
8260
(
0.14453105
0.14567649
0.14686402
0.14812451
0.14938821
0.15063286
0.15186654
0.15308282
0.15437563
0.15583385
0.15730308
0.15881013
0.16029922
0.16162827
0.1622917
0.16174358
0.15911867
0.15571196
0.15385296
0.15270712
0.15180929
0.15102364
0.15034936
0.14984397
0.14938213
0.14894575
0.14855266
0.14824972
0.14799615
0.14784533
0.14773265
0.14083177
0.14233246
0.14393437
0.14555518
0.1471638
0.14874611
0.15030069
0.15183289
0.15339392
0.15502569
0.15665788
0.15828597
0.15985093
0.16120221
0.1618214
0.16115121
0.15841977
0.15516351
0.15351333
0.15245985
0.15161295
0.15086794
0.15022664
0.14974861
0.14930403
0.14888152
0.14849935
0.14820538
0.14795835
0.14781202
0.14770368
0.13656935
0.13841613
0.14045597
0.14249404
0.14449723
0.14645809
0.14837245
0.15024265
0.15209886
0.153962
0.15579097
0.15756912
0.15923485
0.16062626
0.16122506
0.16045366
0.15763421
0.1546045
0.15315762
0.15218927
0.15139519
0.15069452
0.15008841
0.14964027
0.14921563
0.14880911
0.14843921
0.14815514
0.14791546
0.14777418
0.14766852
0.13248674
0.13462189
0.13699013
0.13937607
0.14173111
0.1440417
0.14629782
0.1484931
0.15064032
0.15274914
0.15478479
0.15672297
0.1584969
0.15992647
0.16049779
0.15960335
0.15671509
0.15398086
0.15274681
0.15187462
0.15114199
0.15049269
0.14992813
0.14951501
0.1491134
0.1487253
0.14836986
0.1480974
0.14786638
0.14773096
0.14762901
0.12870539
0.13104833
0.1336428
0.13629195
0.13893689
0.14155167
0.14411661
0.14661467
0.14904124
0.15139284
0.15363649
0.15573827
0.15762262
0.15908385
0.15960997
0.15856426
0.15565088
0.15330579
0.15228476
0.15151734
0.15085438
0.15026342
0.14974606
0.14937243
0.14899716
0.14863005
0.14829115
0.14803179
0.14781065
0.14768182
0.14758379
0.12532579
0.12779513
0.13052184
0.13334276
0.13619798
0.139051
0.14187192
0.14463259
0.14731205
0.14989143
0.15233446
0.1545953
0.15658561
0.15806549
0.15851755
0.15729723
0.1544394
0.15257403
0.15176212
0.15111026
0.15052641
0.15000168
0.14953843
0.14920969
0.14886435
0.14852113
0.14820137
0.14795694
0.14774725
0.14762583
0.14753249
0.12245365
0.12497892
0.12775037
0.13064693
0.1336185
0.13662451
0.13962761
0.1425899
0.14547616
0.14825184
0.1508714
0.15327436
0.15535474
0.15682789
0.15716306
0.15575151
0.15311081
0.15178012
0.15117376
0.15064747
0.15015363
0.14970395
0.14930263
0.14902464
0.14871321
0.14839699
0.14809929
0.14787168
0.14767527
0.14756207
0.14747418
0.12024772
0.12272579
0.12544484
0.12831709
0.13130337
0.13436432
0.13745914
0.14054317
0.14356989
0.1464902
0.14924503
0.15175572
0.15389223
0.15531464
0.1554751
0.15387159
0.15170491
0.15091412
0.15051143
0.15012209
0.14973067
0.14936494
0.14903444
0.14881404
0.14854108
0.14825517
0.14798295
0.14777429
0.14759348
0.14748937
0.14740798
0.11873987
0.1210882
0.12367155
0.12642897
0.12933319
0.13234912
0.13543667
0.13854879
0.14163185
0.14462463
0.14745249
0.15001411
0.1521457
0.15345167
0.15336484
0.15166223
0.15028532
0.14996958
0.14976803
0.14952769
0.14925255
0.14897953
0.14872943
0.14857385
0.14834513
0.14809324
0.14785031
0.14766301
0.14750046
0.14740641
0.14733277
0.11790376
0.12006542
0.12245287
0.12502239
0.12775656
0.13063036
0.1336091
0.13664778
0.13968979
0.14266466
0.14548158
0.14801097
0.15004008
0.15112238
0.15070003
0.14930593
0.14887728
0.14893338
0.14893778
0.14885856
0.14871395
0.14854311
0.148383
0.14829859
0.14812123
0.1479083
0.14769883
0.14753582
0.1473944
0.14731166
0.14724718
0.11764
0.11957753
0.12172648
0.12405225
0.126548
0.12919707
0.13197443
0.13484064
0.13773881
0.14059089
0.14328905
0.14566724
0.1474416
0.14811157
0.14752332
0.14712499
0.14744191
0.14780616
0.14802434
0.14810879
0.14811034
0.14805274
0.14799213
0.14798297
0.14786437
0.14769757
0.14752604
0.14739083
0.14727323
0.1472035
0.14714949
0.11791748
0.11955348
0.12139537
0.12341507
0.12560656
0.12796011
0.13045648
0.13305892
0.13570747
0.1383133
0.14074437
0.14277818
0.14408622
0.14438405
0.14449407
0.1451644
0.145973
0.1465931
0.14701558
0.14728609
0.14743816
0.14750502
0.14755566
0.14762516
0.14756871
0.14745809
0.14732943
0.14722609
0.14713478
0.14708023
0.14703773
0.11825577
0.11958742
0.1211141
0.12280626
0.12465781
0.12666711
0.12881833
0.13107001
0.13335094
0.1355596
0.13756508
0.13914647
0.14006394
0.14080726
0.14207361
0.14337783
0.14442978
0.14529908
0.14592752
0.14638611
0.14669285
0.14690129
0.14707307
0.14722282
0.1472343
0.14718648
0.14710644
0.14703964
0.14697715
0.14694027
0.14690973
0.1182462
0.11931761
0.12054339
0.12192408
0.12346085
0.12513107
0.12690359
0.12874155
0.13058022
0.13233141
0.13390235
0.13528836
0.13671084
0.13842739
0.14013217
0.14158794
0.14288463
0.14394879
0.14477015
0.1454191
0.14587942
0.14623576
0.14654647
0.1467799
0.14686004
0.14687853
0.14685389
0.14682929
0.1467988
0.14678216
0.14676341
0.1179313
0.11862403
0.11950043
0.12056862
0.12184475
0.12324027
0.12468261
0.12620234
0.12779547
0.12943018
0.13109986
0.13286741
0.13480673
0.13666139
0.13835492
0.13993563
0.14135959
0.14258864
0.14357301
0.14439754
0.145004
0.14551175
0.14597298
0.14629699
0.14644429
0.14653226
0.14656782
0.14659267
0.14659845
0.14660461
0.14659696
0.11905621
0.11957825
0.12014792
0.1207714
0.12151094
0.12244575
0.12356816
0.12486662
0.12629468
0.12783898
0.1295447
0.1314468
0.13335168
0.13512454
0.13683841
0.13844465
0.13994254
0.14126772
0.14238048
0.14334888
0.14409685
0.14473834
0.14534279
0.1457651
0.14598669
0.14614379
0.1462466
0.14632697
0.1463745
0.14640647
0.14640908
0.12043705
0.12096613
0.12156637
0.122232
0.12292359
0.12366016
0.12445479
0.12521601
0.12609601
0.12728455
0.12877317
0.13030641
0.1319455
0.13372489
0.13554695
0.13720572
0.13867452
0.14002797
0.14124098
0.14231792
0.14318161
0.14394201
0.14465663
0.1451723
0.1454814
0.14571666
0.14588967
0.14603039
0.14612505
0.14618639
0.1461992
0.12185079
0.1221847
0.12257416
0.12303123
0.12357314
0.12422428
0.12502612
0.12600548
0.12697624
0.12787597
0.12869343
0.12983612
0.13118575
0.13268739
0.13434365
0.13613392
0.13760847
0.13890267
0.14018303
0.14133739
0.14229297
0.14315367
0.14393739
0.14451977
0.14492804
0.14525195
0.14549972
0.14570389
0.14584906
0.14594244
0.14596654
0.12365493
0.12396429
0.12431868
0.12471765
0.12516095
0.12564501
0.1261593
0.12670331
0.12733953
0.12815932
0.12916445
0.1300557
0.13100118
0.13222827
0.13355205
0.13500192
0.13654975
0.13788558
0.13920461
0.14043379
0.14145257
0.14239791
0.14321995
0.14383574
0.14433482
0.14475837
0.14508174
0.14534952
0.14554459
0.14567194
0.14571021
0.12515465
0.12535682
0.12559041
0.1258613
0.12617962
0.12655807
0.12701414
0.12756135
0.12818521
0.12884388
0.12953165
0.13042289
0.13139809
0.13220894
0.1332226
0.13428746
0.13555153
0.13687972
0.13828368
0.13957276
0.14066855
0.14167928
0.14252686
0.14316057
0.14372022
0.14424053
0.14464124
0.14496657
0.1452092
0.14537216
0.14542886
0.12686703
0.12705086
0.12726157
0.12750087
0.12777163
0.12807605
0.12841319
0.12878248
0.1291983
0.12969553
0.13029392
0.1309085
0.13157987
0.13249694
0.13323829
0.13407207
0.13509259
0.13626539
0.13750336
0.1387242
0.13991721
0.14096832
0.1418247
0.14251486
0.14310694
0.14369238
0.14417233
0.14455533
0.1448424
0.14504014
0.14512006
0.12826504
0.12838275
0.12851856
0.1286757
0.12885963
0.12907709
0.1293361
0.1296456
0.13000952
0.13042081
0.130877
0.13142835
0.13205647
0.13263955
0.13346578
0.13425596
0.13501687
0.13602
0.13705672
0.13802692
0.13917989
0.14022946
0.14106456
0.14184171
0.14250009
0.14312165
0.14366888
0.14411316
0.1444454
0.14467481
0.144782
0.12983589
0.12994386
0.13006766
0.13020882
0.13036947
0.13055138
0.13075553
0.13098207
0.13123357
0.13151996
0.13185229
0.13221748
0.1326328
0.13316307
0.13367702
0.1343867
0.13520654
0.13599326
0.13680907
0.13764958
0.13857325
0.1394895
0.1403069
0.14110622
0.14189321
0.1425555
0.14314734
0.14363975
0.14402196
0.14427848
0.14441339
0.13108692
0.13115144
0.1312258
0.13131195
0.1314133
0.131535
0.13168057
0.13185304
0.13205773
0.13229948
0.13258373
0.13292611
0.13332303
0.13374569
0.13426827
0.13476916
0.13529076
0.13597694
0.13663471
0.13744312
0.13825001
0.13900666
0.13977515
0.14049407
0.14131423
0.14202559
0.14264372
0.14315419
0.14357481
0.14385733
0.14401385
0.13248238
0.13254773
0.13262183
0.13270492
0.13279684
0.13289659
0.13300639
0.13313108
0.1332742
0.13343871
0.13362703
0.13384059
0.13408854
0.13437872
0.13467776
0.13508446
0.13555648
0.1359691
0.13652759
0.13723703
0.13801021
0.13874876
0.13946503
0.14015305
0.14085804
0.14155374
0.1421725
0.14267593
0.14310907
0.14341499
0.14358593
0.13341897
0.13345136
0.13348929
0.1335344
0.13358988
0.13365894
0.13374123
0.13383695
0.13394739
0.13407437
0.13421881
0.1343805
0.1345759
0.13481106
0.13511485
0.13542374
0.13575567
0.13619553
0.13666555
0.13716715
0.13771606
0.13842162
0.13912521
0.13986268
0.14051348
0.14110959
0.14169843
0.142203
0.14262934
0.14295224
0.14313501
0.13457487
0.13461218
0.13465434
0.13470113
0.13475134
0.13480402
0.13486203
0.13492832
0.13500574
0.13509692
0.13520387
0.13532507
0.13544512
0.13557619
0.13574567
0.13598851
0.13628196
0.13656968
0.13696501
0.13727418
0.13762599
0.13811549
0.13872436
0.13943581
0.14009304
0.14064998
0.14120091
0.141716
0.14213983
0.14247442
0.14266854
0.13532397
0.13533663
0.13535235
0.13537177
0.13539602
0.13542659
0.135465
0.13551269
0.13557114
0.13564234
0.13572991
0.13584277
0.13599216
0.13617228
0.1363502
0.13651569
0.13670505
0.13692773
0.13712188
0.1374307
0.13772251
0.13807193
0.13858749
0.13911473
0.13963745
0.14021277
0.14072747
0.14122924
0.14166046
0.14199517
0.14219664
0.13604668
0.13606176
0.1360786
0.1360978
0.13612008
0.13614621
0.13617702
0.13621347
0.13625658
0.13630753
0.13636743
0.13643481
0.13650418
0.13657628
0.13666246
0.13677779
0.13692949
0.13711804
0.13735376
0.1376163
0.13795747
0.13826843
0.13859749
0.13898083
0.13940214
0.13986656
0.14034467
0.14080091
0.14121492
0.14154008
0.1417398
0.1364612
0.13647233
0.13648541
0.13650086
0.13651914
0.1365408
0.13656645
0.13659679
0.13663264
0.13667496
0.13672505
0.13678507
0.13685852
0.1369454
0.13705262
0.13717631
0.13731034
0.13746175
0.13763691
0.1378397
0.13807171
0.13834563
0.1386421
0.13892453
0.13927723
0.13967176
0.14009028
0.14050055
0.14087775
0.14118498
0.1413744
0.13682583
0.13683455
0.13684514
0.13685787
0.13687304
0.13689104
0.13691231
0.13693739
0.1369669
0.13700157
0.13704222
0.13709015
0.13714822
0.13722041
0.13729956
0.13739098
0.13749796
0.13762332
0.13777059
0.13794351
0.13814611
0.13837259
0.13860915
0.13888856
0.13921837
0.13957652
0.13996342
0.14035029
0.14071077
0.14100822
0.14119214
0.078820201
0.095399415
0.10645533
0.11471709
0.12168224
0.12793595
0.13364779
0.13848082
0.14319481
0.14757561
0.15158337
0.15522328
0.15851288
0.16143577
0.16395967
0.16588793
0.16681248
0.16632688
0.16355363
0.15964061
0.15706378
0.15531255
0.15387334
0.15270372
0.151769
0.15096149
0.1502859
0.14974307
0.149316
0.14904098
0.1488536
0.1009962
0.10945941
0.11593378
0.12159183
0.12702737
0.13232007
0.13721926
0.14171339
0.14596497
0.14987835
0.15345958
0.15672992
0.15970269
0.1623501
0.1646271
0.16627854
0.16689719
0.16608348
0.1629697
0.15913824
0.15676598
0.1551005
0.15370774
0.15257433
0.15166525
0.15087524
0.15021324
0.14968177
0.14926247
0.14899302
0.14880891
0.10759425
0.11375064
0.11960759
0.12524546
0.13062289
0.13562479
0.1401756
0.14432279
0.14817077
0.15170437
0.15494924
0.15792815
0.16064751
0.1630707
0.16514193
0.16654509
0.16690947
0.16579078
0.16240702
0.15872771
0.15651872
0.15491019
0.15355408
0.15245133
0.15156494
0.15079134
0.15014205
0.14962129
0.14920926
0.14894509
0.14876142
0.1136749
0.11950934
0.12498214
0.13006271
0.13478795
0.13915402
0.14315208
0.1468277
0.15024238
0.15339647
0.15631519
0.15901655
0.16149676
0.16370861
0.16557874
0.16673092
0.16686592
0.16543653
0.16184582
0.15832668
0.15626223
0.15471071
0.15339384
0.15232401
0.15146158
0.15070509
0.15006916
0.14955962
0.1491553
0.14889669
0.14871799
0.12020108
0.12537925
0.13013396
0.13454257
0.1386496
0.14244437
0.14593154
0.14915336
0.15215401
0.15494789
0.15755972
0.16000144
0.16225782
0.16427025
0.16593981
0.16685829
0.16678714
0.1650402
0.16127689
0.15794984
0.1560174
0.15451645
0.15323667
0.15219834
0.15135885
0.15061909
0.14999624
0.14949773
0.14910104
0.14884799
0.14867641
0.12714565
0.1313625
0.13529152
0.13896965
0.14240493
0.14559189
0.14854868
0.15130835
0.15390478
0.15635576
0.15867997
0.16088024
0.1629285
0.16475439
0.16622789
0.16693328
0.16667063
0.16459306
0.16071213
0.15759393
0.15577584
0.15432204
0.15307882
0.15207192
0.15125523
0.15053223
0.14992254
0.14943516
0.14904625
0.14879888
0.1486341
0.1340204
0.13728368
0.14035227
0.14324802
0.1459771
0.1485468
0.15097315
0.15327959
0.15548992
0.15761853
0.15967529
0.16165243
0.16350875
0.16516292
0.16645069
0.16697176
0.16649951
0.1640956
0.16016137
0.15725801
0.15553964
0.15412978
0.15292223
0.15194612
0.15115166
0.15044525
0.14984858
0.14937224
0.1489911
0.14874946
0.14858865
0.14092326
0.14312281
0.14524384
0.14731214
0.14932762
0.15128548
0.15319317
0.15506365
0.15690959
0.15873771
0.16054748
0.1623198
0.16400073
0.16549877
0.16661212
0.16696715
0.16627453
0.16355486
0.15963335
0.15693935
0.1553068
0.15393871
0.15276619
0.15182046
0.15104784
0.15035792
0.14977421
0.14930889
0.14893557
0.1486997
0.14854253
0.14747024
0.14860835
0.14980564
0.15107787
0.15240938
0.15378074
0.15519557
0.15665582
0.15816289
0.15971412
0.16129798
0.16288392
0.16440576
0.16575662
0.1666976
0.16691245
0.16599547
0.16299023
0.15913306
0.15663516
0.15507738
0.15374925
0.15261115
0.15169531
0.15094406
0.1502705
0.14969964
0.14924525
0.14887976
0.14864966
0.14849583
0.15341998
0.15359156
0.15396222
0.15449769
0.15518662
0.1560111
0.15696962
0.15805171
0.15924859
0.16054815
0.16192786
0.16334609
0.16472487
0.16593167
0.16672186
0.16681992
0.16566909
0.16241796
0.15866143
0.15634291
0.15485074
0.15356129
0.15245705
0.15157065
0.15084034
0.15018303
0.14962489
0.14918135
0.14882368
0.14859936
0.14844891
0.15871522
0.15803854
0.15765475
0.15751792
0.15762088
0.15795688
0.15850527
0.159247
0.16016549
0.16124026
0.16243808
0.16370689
0.16495643
0.16602172
0.16669083
0.16668805
0.16530081
0.16184561
0.1582176
0.15606033
0.15462683
0.15337497
0.15230408
0.15144663
0.15073682
0.15009563
0.14955008
0.14911728
0.14876741
0.14854883
0.14840173
0.16323528
0.16184686
0.16080877
0.16009224
0.15969415
0.15960485
0.15979048
0.16023685
0.16091213
0.16179056
0.16282878
0.16396535
0.16509474
0.16604191
0.16662851
0.16651677
0.16489977
0.1612814
0.15779989
0.15578572
0.15440545
0.15319037
0.15215229
0.15132332
0.15063359
0.15000841
0.14947528
0.1490531
0.14871098
0.14849811
0.14835433
0.16684289
0.16490972
0.16336636
0.16219546
0.16139058
0.16093786
0.16082141
0.16101341
0.16148372
0.16219588
0.16309682
0.16411625
0.1651487
0.16601959
0.16652943
0.16630338
0.16447176
0.16073159
0.15740608
0.15551774
0.15418661
0.15300762
0.15200182
0.15120084
0.15053079
0.14992148
0.14940059
0.14898889
0.14865446
0.14844724
0.14830673
0.16946889
0.16717686
0.16529473
0.16379953
0.16268739
0.16195265
0.16158628
0.16156521
0.16186229
0.16243613
0.16322771
0.16416588
0.16514659
0.16595271
0.16637951
0.16604063
0.16402057
0.1601989
0.15703385
0.15525547
0.15397032
0.15282688
0.1518528
0.15107931
0.15042855
0.14983495
0.1493261
0.14892473
0.1485979
0.14839624
0.14825893
0.17121046
0.16867041
0.16656296
0.1648525
0.16352988
0.16259119
0.16203436
0.16185446
0.16203
0.16251515
0.16325424
0.16415156
0.16508243
0.16582964
0.16618497
0.16573844
0.16354985
0.15968597
0.15668135
0.15499844
0.15375672
0.15264833
0.15170535
0.15095885
0.15032697
0.14974892
0.14925191
0.14886067
0.14854135
0.14834515
0.14821097
0.17227323
0.16956658
0.16728422
0.16541419
0.16394893
0.16287947
0.16220045
0.16194263
0.16206852
0.16250363
0.1631988
0.1640578
0.1649434
0.16564992
0.1659484
0.16540414
0.16306972
0.15919482
0.15634675
0.15474644
0.15354593
0.15247216
0.15155962
0.15083956
0.15022618
0.1496635
0.14917808
0.1487968
0.14848485
0.14829399
0.14816283
0.17274295
0.17001042
0.16764205
0.16567343
0.16411764
0.16297202
0.16223251
0.16192501
0.16200082
0.16238504
0.16303067
0.16386061
0.16472757
0.1654142
0.16567136
0.16504042
0.16258831
0.15872632
0.15602718
0.15449936
0.15333808
0.15229849
0.15141565
0.15072151
0.15012627
0.14957877
0.14910471
0.14873318
0.14842847
0.14824282
0.14811455
0.17198163
0.16955641
0.16737032
0.16548725
0.16395665
0.16280933
0.16206491
0.16172492
0.16175262
0.16210834
0.16273734
0.16356193
0.16443416
0.16512348
0.16535693
0.16465583
0.16211134
0.15828015
0.15572088
0.15425714
0.15313323
0.15212737
0.15127351
0.15060479
0.15002737
0.14949484
0.14903189
0.14866988
0.14837227
0.14819166
0.14806613
0.17008358
0.16803202
0.16617915
0.16456383
0.16322526
0.16220447
0.16154116
0.16124527
0.16129734
0.16167229
0.16231822
0.16316262
0.16406272
0.16477857
0.16500801
0.16425597
0.16164381
0.15785609
0.1554264
0.15401968
0.15293152
0.15195897
0.15113334
0.15048957
0.14992966
0.14941186
0.14895976
0.14860703
0.14831633
0.14814056
0.14801761
0.16750333
0.16582187
0.16432381
0.16303385
0.16197163
0.1611713
0.16067844
0.16049899
0.16063474
0.16107704
0.16177394
0.16266326
0.16361311
0.16437999
0.16462728
0.16384584
0.1611892
0.15745319
0.15514247
0.15378744
0.1527336
0.15179386
0.15099563
0.15037627
0.14983348
0.14933008
0.14888851
0.14854474
0.14826073
0.14808957
0.147969
0.16417004
0.16295918
0.16189454
0.16099502
0.16027214
0.15976407
0.15950705
0.15949889
0.15977071
0.16032407
0.16110584
0.16206538
0.16308585
0.16392824
0.16421719
0.16343201
0.16075069
0.15707227
0.15486965
0.15356214
0.15254107
0.15163323
0.15086127
0.15026549
0.14973928
0.14924977
0.14881828
0.14848307
0.14820551
0.14803866
0.14792033
0.16007426
0.15942877
0.1588991
0.1584751
0.15816814
0.15801258
0.15802946
0.15824983
0.15871031
0.15941369
0.16031301
0.16136857
0.16248003
0.16342238
0.16377967
0.16302047
0.16033348
0.15671891
0.15461155
0.1533465
0.15235589
0.15147833
0.15073096
0.15015759
0.14964723
0.14917095
0.14874904
0.14842196
0.14815054
0.14798775
0.14787158
0.15514823
0.1551207
0.15523265
0.15539954
0.15560265
0.15586378
0.15622356
0.15672934
0.15743453
0.15833141
0.15938358
0.16056395
0.16178833
0.16285634
0.16331289
0.16261656
0.15994737
0.15640187
0.15437053
0.15314034
0.15217723
0.15132803
0.15060358
0.15005163
0.14955654
0.14909303
0.14868034
0.1483611
0.14809563
0.14793676
0.14782243
0.14952992
0.14985352
0.15053041
0.15134906
0.15218861
0.15301506
0.15386194
0.15475227
0.15579829
0.15697485
0.15824061
0.15959185
0.16096321
0.162193
0.16279506
0.16221705
0.15960453
0.15611431
0.15413572
0.15293411
0.15199758
0.15117666
0.15047489
0.14994469
0.14946531
0.14901483
0.14861153
0.14830028
0.14804072
0.14788582
0.14777235
0.072630046
0.09096982
0.10291287
0.11184405
0.11919709
0.12566896
0.13157302
0.13678925
0.14170282
0.1462848
0.15049756
0.15433161
0.15779783
0.1608807
0.16354861
0.16564009
0.16674204
0.16644166
0.16386153
0.15995624
0.15727415
0.15547557
0.15400564
0.15281038
0.1518556
0.15103314
0.15034615
0.14979373
0.14936013
0.14908014
0.14888683
0.071608046
0.090728574
0.10282102
0.11169414
0.11896638
0.12533842
0.13113078
0.13634855
0.14123077
0.1458098
0.15005339
0.15393953
0.15746659
0.16061303
0.16333701
0.16549613
0.16665562
0.16645643
0.16399564
0.16011108
0.15738063
0.15556533
0.15408365
0.15287688
0.15191213
0.15108183
0.15038874
0.1498306
0.14939318
0.14910992
0.14891455
0.071318517
0.090805604
0.10294694
0.1116801
0.11877741
0.12499501
0.13065777
0.13581587
0.14066176
0.14524069
0.14951924
0.15346441
0.15706176
0.16028284
0.16307668
0.16531734
0.1665572
0.16645554
0.16414525
0.16027958
0.15748789
0.1556523
0.15415948
0.15294222
0.15196847
0.15113114
0.1504326
0.14986904
0.14942805
0.14914154
0.14894748
0.070939649
0.090686308
0.10290168
0.11159341
0.1185519
0.12463678
0.13018128
0.13527501
0.1400844
0.14465682
0.14896236
0.15296084
0.15662607
0.15992229
0.16279032
0.16511608
0.16644569
0.16644835
0.16429699
0.16046407
0.15760778
0.15574805
0.15424245
0.15301355
0.15202986
0.15118475
0.1504802
0.14991069
0.14946574
0.14917558
0.14898419
0.070446554
0.090327274
0.10273148
0.1114069
0.1183092
0.12429403
0.12973221
0.13476008
0.1395257
0.14407944
0.14839897
0.15244047
0.15616739
0.15953618
0.16247992
0.16489096
0.16631668
0.16643028
0.16444131
0.16065907
0.15773837
0.15585252
0.15433302
0.15309141
0.15209672
0.15124307
0.15053179
0.14995572
0.14950634
0.14921213
0.1490233
0.06993968
0.089841903
0.10249483
0.1112374
0.11809687
0.1239893
0.12932421
0.13427831
0.13898957
0.14351222
0.14783254
0.15190593
0.15568717
0.15912471
0.16214413
0.16463803
0.16616783
0.16639918
0.16457588
0.16085779
0.15787531
0.15596232
0.15442879
0.15317418
0.152168
0.15130531
0.15058687
0.15000384
0.1495497
0.14925117
0.14905448
0.069629252
0.089397721
0.10227162
0.11109033
0.11791293
0.12371575
0.12894843
0.133821
0.13846895
0.14295063
0.14726061
0.15135568
0.15518394
0.15868599
0.16178006
0.16435218
0.16600056
0.16635458
0.16470344
0.16105985
0.15801648
0.15607535
0.15452805
0.15326062
0.15224282
0.15137081
0.15064507
0.15005483
0.14959577
0.14929275
0.14908779
0.069619278
0.088982132
0.10201916
0.11092999
0.11773198
0.12345457
0.12858938
0.13337658
0.13795539
0.14238906
0.14667995
0.15078782
0.15465616
0.15821829
0.16138513
0.16403063
0.16580145
0.16629366
0.16481355
0.16126936
0.15816164
0.15619104
0.15463025
0.15335026
0.15232085
0.15143964
0.15070644
0.1501088
0.14964463
0.14933697
0.14912777
0.069740642
0.088580901
0.10172886
0.11073563
0.11753134
0.12318551
0.12822966
0.13293165
0.13743906
0.14182072
0.14608632
0.15019983
0.15410199
0.15771983
0.16095721
0.16367517
0.16556408
0.16621132
0.16490268
0.16148027
0.15831077
0.1563093
0.1547354
0.15344332
0.15240238
0.15151181
0.15077109
0.1501659
0.14969649
0.14938398
0.1491807
0.070110375
0.088300574
0.10143458
0.11050351
0.11729289
0.12288712
0.12784886
0.13246963
0.13690714
0.14123648
0.14547397
0.14958834
0.15351937
0.15718902
0.1604949
0.16328801
0.16529446
0.1661062
0.16497824
0.16169002
0.1584638
0.15642994
0.15484342
0.15353974
0.15248741
0.15158751
0.1508392
0.15022631
0.14975151
0.14943391
0.14923419
0.07079917
0.088149243
0.10114668
0.11022015
0.11699043
0.12253075
0.12742055
0.1319688
0.13634286
0.14062409
0.1448346
0.14894812
0.15290503
0.15662361
0.15999643
0.16286781
0.16498663
0.16595369
0.16503168
0.16189832
0.15862031
0.15655239
0.15495394
0.15363944
0.15257596
0.15166682
0.15091087
0.15029017
0.14980983
0.1494869
0.14928407
0.071804641
0.08812675
0.10078396
0.10981471
0.11657047
0.1220734
0.12690966
0.1314016
0.13572542
0.13996849
0.14415791
0.14827268
0.15225501
0.15602119
0.15946017
0.16241271
0.16464389
0.16577292
0.16505276
0.1620955
0.15877948
0.15667591
0.15506645
0.15374212
0.15266794
0.1517497
0.15098616
0.15035759
0.14987158
0.14954313
0.14933429
0.073036858
0.088176729
0.10033675
0.10925021
0.11598435
0.12146823
0.12627597
0.13073587
0.13503022
0.13925159
0.14343149
0.147554
0.15156444
0.15537882
0.15888422
0.16192063
0.16426591
0.1655579
0.16504304
0.16227171
0.15894031
0.15679942
0.15518019
0.15384735
0.15276308
0.15183611
0.15106506
0.15042865
0.14993685
0.14960276
0.1493882
0.074313254
0.08821995
0.099759618
0.10847773
0.11517619
0.12066315
0.12547566
0.12993675
0.13423075
0.13845369
0.1426415
0.14678315
0.15082786
0.1546933
0.15826665
0.1613897
0.16385037
0.16529748
0.16499895
0.16243392
0.15910246
0.15692192
0.15529436
0.15395478
0.15286124
0.15192586
0.15114758
0.1505034
0.15000575
0.14966595
0.14944694
0.075470037
0.088152014
0.098956574
0.10742533
0.11408981
0.11960924
0.12446725
0.12897077
0.13330121
0.13755599
0.14177467
0.14595117
0.15003973
0.15396136
0.15760558
0.16081819
0.16339552
0.16498954
0.16490829
0.16257694
0.15926427
0.15704216
0.1554081
0.15406341
0.15296179
0.1520189
0.15123355
0.15058192
0.15007838
0.14973281
0.14951044
0.07619707
0.087764778
0.097830835
0.10602214
0.1126657
0.11826094
0.12321562
0.12781074
0.1322208
0.13654288
0.14081992
0.14505061
0.14919535
0.1531803
0.15689936
0.16020458
0.1629006
0.16463359
0.16476424
0.16269049
0.15942567
0.15715898
0.15552021
0.15417363
0.15306483
0.15211475
0.15132308
0.15066416
0.1501548
0.14980345
0.14957813
0.076212145
0.086752504
0.096202203
0.10419292
0.11087306
0.1165995
0.12170709
0.12644571
0.13098042
0.13540687
0.13977104
0.14407711
0.14829197
0.15234852
0.15614672
0.15954673
0.16236087
0.16423082
0.16457234
0.16276663
0.15958071
0.15727052
0.15563007
0.15428256
0.15316894
0.15221355
0.15141566
0.15075018
0.15023509
0.14987798
0.14964938
0.075709133
0.085316766
0.094211529
0.10202773
0.10877219
0.11466644
0.11996831
0.124892
0.12958955
0.13415322
0.13863074
0.14303187
0.14733028
0.15146619
0.15534701
0.15884113
0.16176484
0.1637844
0.1643553
0.16281515
0.15973556
0.15737542
0.15573539
0.15439287
0.15327459
0.15231414
0.15151162
0.15083981
0.15031923
0.14995648
0.14972429
0.074390329
0.083317451
0.091827756
0.09955743
0.10641542
0.1125164
0.11804806
0.12318856
0.12807696
0.13280202
0.1374127
0.14192375
0.14631573
0.15053657
0.15450136
0.15808611
0.16110875
0.16325828
0.16405991
0.16282007
0.15987354
0.15747075
0.15583678
0.15449866
0.15338012
0.15241721
0.15160987
0.15093302
0.1504073
0.15003901
0.1498032
0.07252446
0.080912513
0.089148828
0.096865326
0.10388704
0.11023012
0.11601729
0.12139474
0.12648965
0.13138854
0.13614207
0.14077016
0.14525985
0.14956698
0.15361435
0.15728564
0.1604056
0.1626991
0.16373623
0.16279068
0.15998151
0.15755646
0.15593103
0.15460398
0.15348392
0.15252056
0.15171112
0.15102953
0.15049906
0.15012562
0.14988641
0.070312508
0.078277701
0.086315102
0.094066122
0.10128598
0.10789783
0.11395816
0.11958224
0.12488724
0.1299598
0.13485414
0.13959635
0.14418023
0.14856912
0.15269399
0.15644664
0.15966246
0.16209272
0.16334472
0.16269648
0.16008547
0.15762883
0.15601419
0.15470419
0.15358939
0.15262521
0.15181364
0.15112911
0.15059473
0.15021631
0.14997375
0.068065863
0.075655682
0.083509843
0.091290628
0.098709457
0.10560086
0.1119465
0.11782168
0.12333232
0.12856818
0.1335905
0.13843345
0.14309912
0.14755866
0.15175103
0.15557673
0.15888301
0.16144182
0.16289193
0.16251916
0.1601719
0.15768879
0.15610014
0.15479655
0.15368463
0.15272938
0.151918
0.15123145
0.15069362
0.15031103
0.15006533
0.066143017
0.07335942
0.08098906
0.088735712
0.096295426
0.10343638
0.11005669
0.11617654
0.12188142
0.1272628
0.13239182
0.13731369
0.14204077
0.14655325
0.15079809
0.15468465
0.1580721
0.16075114
0.16239272
0.16230231
0.16019684
0.15773801
0.15614917
0.15488612
0.15378667
0.15283047
0.15202305
0.15133591
0.15079625
0.15040965
0.15016092
0.064902073
0.071736151
0.07906979
0.086669865
0.094249545
0.10154272
0.10837738
0.11470632
0.1205798
0.12608167
0.13129084
0.13626455
0.14102708
0.14556938
0.14984748
0.15377927
0.15723525
0.16002378
0.16184501
0.16205658
0.16017893
0.15775299
0.15621279
0.15495902
0.15387231
0.15293462
0.15212685
0.1514422
0.15090125
0.15051206
0.15026071
0.064542379
0.071004635
0.077990059
0.085332356
0.092787344
0.10008478
0.10701414
0.11347395
0.1194651
0.12504997
0.1303071
0.1353026
0.14007287
0.14461974
0.14890912
0.15286794
0.15637707
0.15925844
0.16123161
0.16175806
0.16011712
0.15776037
0.15626887
0.15502424
0.15395357
0.15302473
0.15223236
0.15154957
0.15100938
0.15061787
0.15036431
0.065132809
0.071196916
0.077815791
0.084811335
0.091994884
0.099145699
0.10603746
0.11252373
0.11855888
0.12417564
0.12944279
0.13442908
0.13918024
0.143708
0.14798767
0.15195518
0.15550095
0.15845669
0.16055652
0.16131553
0.16003889
0.15776593
0.1562659
0.15506439
0.15404331
0.15312485
0.15233063
0.1516569
0.15111899
0.15072702
0.15047165
0.066903059
0.072387636
0.078461018
0.085030299
0.091875971
0.098741668
0.10545082
0.11184389
0.1178375
0.12343043
0.12867162
0.13362377
0.13833586
0.14282672
0.14708051
0.1510417
0.15460969
0.15762723
0.1598498
0.16085039
0.15994708
0.15775612
0.15623171
0.15509509
0.15408895
0.15320352
0.15243312
0.15176471
0.15122997
0.15083852
0.15058229
0.069639934
0.074597193
0.080072975
0.086008241
0.092300445
0.098783427
0.10518693
0.11137682
0.11724597
0.1227614
0.1279459
0.13284737
0.13751052
0.1419574
0.14617771
0.15012374
0.15370415
0.15677388
0.1591089
0.16033287
0.15978295
0.15772451
0.15619845
0.15510036
0.15413708
0.15327785
0.15252226
0.15186993
0.15134252
0.15095289
0.15069581
0.072776002
0.077211584
0.082131921
0.087496484
0.093213339
0.099144053
0.10515185
0.11104834
0.11671923
0.12210844
0.12721119
0.13205345
0.13666778
0.14107349
0.14526228
0.14919235
0.1527813
0.15589602
0.15833213
0.15975305
0.15948754
0.15766639
0.15612343
0.15509562
0.15418069
0.15336388
0.15261247
0.15197342
0.15145246
0.1510676
0.15081169
0.075898495
0.079830466
0.084204996
0.089002515
0.09416229
0.099586512
0.10514329
0.11070639
0.11614611
0.12138877
0.1264037
0.13119236
0.13577018
0.14014789
0.14431621
0.14823721
0.1518365
0.15499262
0.15752043
0.15912185
0.15920218
0.157533
0.15605209
0.15509245
0.15418849
0.15339388
0.15269781
0.1520758
0.15156594
0.15118504
0.1509292
0.078616732
0.082094868
0.085975635
0.090254733
0.094896662
0.099836158
0.10498678
0.11021936
0.1154325
0.12053626
0.12547572
0.13022826
0.13479021
0.13916063
0.14332663
0.14725149
0.15086708
0.15406357
0.15667296
0.15842784
0.15882101
0.15739874
0.15600516
0.15506853
0.15417854
0.15344131
0.15275754