/*--------------------------------*- C++ -*----------------------------------*\
| =========                 |                                                 |
| \\      /  F ield         | OpenFOAM: The Open Source CFD Toolbox           |
|  \\    /   O peration     | Version:  2406                                  |
|   \\  /    A nd           | Website:  www.openfoam.com                      |
|    \\/     M anipulation  |                                                 |
\*---------------------------------------------------------------------------*/
FoamFile
{
    version     2.0;
    format      ascii;
    arch        "LSB;label=32;scalar=64";
    class       volScalarField;
    location    "0.079";
    object      T;
}
// * * * * * * * * * * * * * * * * * * * * * * * * * * * * * * * * * * * * * //

dimensions      [0 0 0 1 0 0 0];

internalField   nonuniform List<scalar> 
8260
(
292.77457
292.77588
292.77816
292.78577
292.79733
292.81099
292.82509
292.83804
292.84816
292.85411
292.85478
292.84924
292.83717
292.81906
292.79763
292.78012
292.80205
292.87538
292.92317
292.94568
292.96153
292.97554
292.98872
292.99987
293.00871
293.01641
293.02303
293.02824
293.03257
293.03521
293.03717
292.84031
292.83522
292.83298
292.83496
292.83987
292.84669
292.85435
292.86152
292.86673
292.86858
292.86598
292.85786
292.84384
292.82421
292.80246
292.78662
292.81348
292.88671
292.92961
292.94991
292.9648
292.97808
292.99073
293.00146
293.00997
293.01742
293.02387
293.02894
293.03317
293.03574
293.03764
292.91089
292.90117
292.89372
292.88961
292.88783
292.88779
292.88878
292.88973
292.8894
292.88667
292.88019
292.86896
292.85249
292.83094
292.80854
292.79436
292.82721
292.89873
292.93628
292.95452
292.96843
292.98091
292.99299
293.00328
293.01141
293.01858
293.02483
293.02975
293.03386
293.03635
293.0382
292.98287
292.96918
292.95692
292.94715
292.9392
292.93271
292.92723
292.92199
292.91596
292.90813
292.89731
292.88249
292.86315
292.83938
292.81614
292.80409
292.84379
292.91184
292.94371
292.95984
292.97265
292.98421
292.99563
293.00539
293.01307
293.01992
293.02593
293.03067
293.03465
293.03704
293.03883
293.05428
293.03735
293.02109
293.00642
292.99297
292.98055
292.96894
292.95762
292.94583
292.93267
292.91717
292.89839
292.8758
292.84962
292.82553
292.81697
292.86379
292.92589
292.95193
292.96588
292.97747
292.98798
292.99864
293.0078
293.01496
293.02144
293.02719
293.03173
293.03555
293.03783
293.03955
293.12405
293.10481
293.08546
293.06676
293.04857
293.03086
293.01356
292.99643
292.97892
292.96035
292.93992
292.91686
292.89069
292.86194
292.83727
292.83424
292.88751
292.94073
292.96104
292.97272
292.98296
292.99228
293.00209
293.01055
293.01712
293.02318
293.02863
293.03293
293.03658
293.03873
293.04037
293.19106
293.17035
293.14886
293.12709
293.10505
293.08284
293.06052
293.03802
293.01504
292.99112
292.96567
292.93811
292.90809
292.8768
292.85233
292.85747
292.91465
292.95623
292.97111
292.98047
292.9892
292.99718
293.00601
293.01367
293.01958
293.02515
293.03026
293.03429
293.03774
293.03975
293.0413
293.25393
293.23252
293.20973
293.18588
293.16102
293.13528
293.10879
293.08161
293.05365
293.02467
292.99431
292.96221
292.92826
292.89484
292.87228
292.88863
292.9442
292.97238
292.98224
292.98925
292.99627
293.00276
293.01048
293.01721
293.02237
293.02741
293.03211
293.03585
293.03906
293.04092
293.04236
293.31129
293.28989
293.2666
293.2416
293.21493
293.18669
293.15702
293.12606
293.09386
293.06039
293.02552
292.98912
292.95148
292.91709
292.89979
292.92919
292.97404
292.98916
292.99458
292.99916
293.00427
293.00911
293.01557
293.02123
293.02554
293.02998
293.03422
293.03763
293.04056
293.04224
293.04356
293.36205
293.34108
293.31798
293.29266
293.26508
293.23533
293.20355
293.16988
293.13444
293.09735
293.05871
293.0187
292.97837
292.94529
292.93987
292.97709
293.0023
293.00684
293.00828
293.01029
293.01326
293.01634
293.02139
293.02581
293.02914
293.03291
293.03663
293.03967
293.04226
293.04376
293.04493
293.40522
293.38473
293.36203
293.33693
293.30934
293.27918
293.24648
293.21133
293.17389
293.13435
293.09306
293.05078
293.01039
292.98497
292.99743
293.02421
293.02876
293.02561
293.02327
293.02278
293.02333
293.02452
293.028
293.03105
293.03325
293.03626
293.03938
293.04199
293.0442
293.04549
293.04648
293.43898
293.41963
293.39786
293.37358
293.34659
293.3168
293.28416
293.24873
293.21064
293.17019
293.12817
293.08704
293.05408
293.04637
293.06209
293.06427
293.05418
293.04567
293.03977
293.0365
293.03452
293.0337
293.03547
293.03701
293.03798
293.04006
293.04251
293.04463
293.04642
293.04746
293.04826
293.46122
293.44284
293.42226
293.39949
293.37419
293.34607
293.31501
293.28107
293.24458
293.20639
293.16845
293.13636
293.12104
293.12236
293.11506
293.09697
293.08031
293.06695
293.0576
293.05149
293.04694
293.04387
293.04381
293.04375
293.04335
293.04437
293.04607
293.04763
293.04894
293.04971
293.05029
293.47252
293.45706
293.43962
293.41992
293.39757
293.37225
293.34409
293.3138
293.28263
293.25256
293.22676
293.20856
293.19615
293.17756
293.15199
293.12779
293.10651
293.08951
293.07671
293.06764
293.06049
293.05516
293.05297
293.05118
293.04938
293.04927
293.0501
293.05102
293.05181
293.05226
293.05262
293.48767
293.47338
293.45669
293.43773
293.41744
293.39694
293.37604
293.35428
293.33211
293.31048
293.28956
293.26759
293.24038
293.21044
293.18226
293.15648
293.13308
293.11264
293.09671
293.08475
293.07524
293.06758
293.06291
293.05922
293.05609
293.05478
293.05467
293.05482
293.05505
293.05512
293.05529
293.4926
293.48549
293.47799
293.46954
293.4583
293.44266
293.42285
293.39924
293.37423
293.34949
293.32346
293.29425
293.26373
293.23509
293.20807
293.18321
293.15842
293.13551
293.11703
293.10251
293.0907
293.08113
293.07376
293.0679
293.06345
293.061
293.05982
293.0591
293.05867
293.05833
293.05831
293.47043
293.46224
293.45308
293.44323
293.4329
293.42255
293.41308
293.4051
293.39319
293.37115
293.34225
293.31381
293.28592
293.25716
293.22937
293.20567
293.18159
293.15717
293.13671
293.12015
293.10661
293.0955
293.0856
293.0774
293.07156
293.06789
293.06559
293.06389
293.0627
293.0619
293.0617
293.45735
293.45212
293.44606
293.43873
293.42986
293.41911
293.40564
293.38936
293.37324
293.36055
293.3486
293.32798
293.30242
293.27565
293.24934
293.22335
293.20014
293.17667
293.15506
293.13725
293.12238
293.1101
293.0981
293.08785
293.08047
293.07546
293.07195
293.06919
293.06716
293.06584
293.06547
293.42819
293.42336
293.4179
293.41174
293.40488
293.39737
293.3893
293.38048
293.37001
293.35628
293.3405
293.32856
293.315
293.2917
293.266
293.24025
293.21605
293.19359
293.17198
293.1532
293.13753
293.12419
293.11065
293.09895
293.09013
293.08358
293.07883
293.07496
293.07209
293.07022
293.06964
293.40943
293.40628
293.40263
293.39833
293.3932
293.38705
293.37963
293.37078
293.36071
293.34993
293.33796
293.32205
293.30589
293.29558
293.27738
293.2536
293.23121
293.20993
293.18805
293.16822
293.15154
293.13705
293.12243
293.11016
293.10031
293.0921
293.0861
293.08122
293.07754
293.07506
293.07421
293.38184
293.37892
293.3756
293.3718
293.36746
293.36256
293.35708
293.35097
293.34399
293.3357
293.32607
293.31628
293.30486
293.28882
293.27802
293.26475
293.24401
293.22278
293.20299
293.18276
293.16442
293.14864
293.13358
293.12074
293.1106
293.1011
293.09377
293.08794
293.08351
293.08042
293.07923
293.36302
293.36119
293.35907
293.35656
293.35358
293.35
293.34571
293.34056
293.33445
293.32741
293.31931
293.30951
293.29872
293.28833
293.27353
293.26168
293.25112
293.23366
293.21505
293.19589
293.17697
293.15978
293.1452
293.13137
293.12076
293.11059
293.10204
293.09516
293.09
293.08634
293.08472
293.33731
293.33558
293.3336
293.33131
293.32869
293.32569
293.32231
293.31851
293.31425
293.30944
293.30401
293.2981
293.29118
293.28256
293.27402
293.26074
293.24638
293.23717
293.22243
293.20545
293.18838
293.17157
293.15744
293.14329
293.131
293.12027
293.11079
293.10297
293.09696
293.09281
293.09071
293.3196
293.31863
293.31749
293.31613
293.31447
293.31245
293.30999
293.30701
293.30343
293.29914
293.29398
293.28776
293.28064
293.27282
293.26345
293.25562
293.24745
293.23288
293.22128
293.21044
293.19646
293.18101
293.1672
293.15458
293.14133
293.12968
293.11951
293.11111
293.10434
293.09973
293.09723
293.29529
293.29423
293.29301
293.29163
293.29006
293.2883
293.28632
293.28406
293.28148
293.27854
293.2752
293.27145
293.2672
293.26236
293.25729
293.24977
293.2409
293.23469
293.22478
293.21163
293.1995
293.18679
293.17336
293.16192
293.1503
293.1382
293.12772
293.11922
293.11206
293.10703
293.10425
293.28147
293.28096
293.28034
293.27958
293.27861
293.27742
293.27598
293.27427
293.27228
293.27
293.26738
293.26436
293.26067
293.25615
293.25046
293.24492
293.23915
293.23122
293.22428
293.2141
293.2019
293.18998
293.17747
293.16667
293.15661
293.14591
293.13574
293.12721
293.12001
293.11468
293.1117
293.26135
293.26074
293.26004
293.25926
293.25839
293.25744
293.25637
293.25515
293.25375
293.25213
293.25031
293.24831
293.24632
293.24414
293.24122
293.23687
293.23146
293.22582
293.2174
293.2117
293.20527
293.1944
293.18391
293.17352
293.16295
293.15377
293.1441
293.13537
293.12818
293.12265
293.11949
293.24956
293.24936
293.24911
293.24877
293.24835
293.2478
293.2471
293.24624
293.24515
293.2438
293.2421
293.2399
293.23701
293.2335
293.22995
293.22652
293.22273
293.21866
293.21547
293.21067
293.20641
293.19964
293.19001
293.18004
293.17014
293.16113
293.15228
293.14365
293.13636
293.13081
293.1275
293.23509
293.23483
293.23453
293.23418
293.23378
293.23331
293.23276
293.23212
293.23137
293.23049
293.22945
293.22829
293.22711
293.22596
293.22466
293.2229
293.2205
293.21727
293.213
293.20796
293.2014
293.19825
293.19404
293.18436
293.17549
293.16718
293.15912
293.15124
293.14426
293.13887
293.13551
293.22946
293.22928
293.22908
293.22883
293.22854
293.22819
293.22778
293.22729
293.22671
293.22601
293.22517
293.22415
293.22287
293.22134
293.2194
293.2172
293.21475
293.21201
293.20892
293.2054
293.20133
293.19516
293.18868
293.18441
293.17856
293.1713
293.16411
293.15711
293.15076
293.14559
293.14233
293.22171
293.22155
293.22136
293.22113
293.22087
293.22056
293.22019
293.21976
293.21926
293.21866
293.21797
293.21717
293.21621
293.21498
293.21352
293.21172
293.20969
293.20743
293.2048
293.20167
293.19802
293.19418
293.19038
293.186
293.18066
293.17452
293.16786
293.16132
293.15526
293.15025
293.14714
293.88395
293.7606
293.63481
293.5187
293.41729
293.3285
293.24815
293.17582
293.10913
293.04912
292.99553
292.94776
292.9045
292.86435
292.82551
292.78534
292.74502
292.71554
292.73114
292.79942
292.86031
292.89825
292.92524
292.94687
292.96505
292.98022
292.99224
293.00181
293.00923
293.01419
293.01759
293.71065
293.59691
293.50239
293.41858
293.33967
293.26433
293.19359
293.12846
293.06843
293.0147
292.96692
292.92417
292.88504
292.84824
292.81187
292.77405
292.73575
292.71304
292.73752
292.81006
292.86727
292.9025
292.9284
292.94941
292.96712
292.98189
292.99361
293.00295
293.01023
293.01508
293.01838
293.64438
293.5465
293.45699
293.37215
293.29171
293.21713
293.14941
293.08836
293.03373
292.9854
292.94255
292.90404
292.8684
292.83439
292.8
292.76431
292.72809
292.71197
292.74483
292.81983
292.87309
292.90616
292.93125
292.95175
292.96903
292.98343
292.9949
293.00403
293.01117
293.01592
293.01922
293.57276
293.47798
293.39112
293.31015
293.23511
293.16664
293.10509
293.0502
293.0016
292.95873
292.92065
292.8861
292.85366
292.82214
292.78945
292.75571
292.72225
292.71187
292.7531
292.82937
292.87871
292.90989
292.9342
292.95416
292.971
292.98501
292.99621
293.00513
293.01212
293.01677
293.02
293.49256
293.403
293.32226
293.24758
293.179
293.11719
293.06228
293.01387
292.97135
292.93391
292.90046
292.8697
292.84026
292.81105
292.77999
292.74813
292.71823
292.71283
292.76277
292.83856
292.88393
292.9135
292.9371
292.95654
292.97294
292.98658
292.99752
293.00623
293.01308
293.01762
293.02073
293.40114
293.32178
293.24951
293.18271
293.12206
293.06812
293.02069
292.97924
292.94296
292.91091
292.88194
292.85477
292.82815
292.80108
292.77164
292.74165
292.71556
292.71486
292.77362
292.84724
292.88887
292.91707
292.94
292.95893
292.97488
292.98816
292.99884
293.00734
293.01405
293.01848
293.02145
293.30511
293.23632
293.17356
293.11629
293.06513
293.0201
292.98081
292.9466
292.9166
292.88981
292.86512
292.84133
292.81734
292.79226
292.76443
292.73625
292.71353
292.71815
292.78525
292.8553
292.89355
292.92057
292.94287
292.96129
292.97681
292.98974
293.00015
293.00845
293.01502
293.01935
293.02223
293.20016
293.14486
293.09463
293.04928
293.00903
292.97373
292.94298
292.91613
292.89233
292.87063
292.85
292.82938
292.80783
292.7845
292.75827
292.73197
292.71204
292.72321
292.7972
292.86274
292.89803
292.92403
292.94572
292.96364
292.97873
292.99131
293.00148
293.00957
293.01599
293.02022
293.02303
293.09029
293.05127
293.0158
292.98358
292.95484
292.92961
292.90753
292.88799
292.87022
292.85339
292.83659
292.81891
292.79959
292.77774
292.75316
292.72873
292.71137
292.73019
292.80892
292.86957
292.90235
292.92743
292.94854
292.96598
292.98064
292.99288
293.0028
293.01069
293.01697
293.02109
293.02384
292.98183
292.95971
292.93945
292.92047
292.90335
292.88829
292.87478
292.86233
292.85033
292.8381
292.82487
292.80991
292.79261
292.7721
292.74918
292.72637
292.71171
292.73883
292.82008
292.87589
292.90655
292.93079
292.95133
292.96829
292.98254
292.99444
293.00412
293.01181
293.01795
293.02197
293.02465
292.87782
292.87259
292.86681
292.86097
292.85544
292.85029
292.84499
292.8393
292.83275
292.8248
292.81487
292.80238
292.78683
292.76772
292.74644
292.72489
292.71313
292.74832
292.83051
292.88178
292.91065
292.93411
292.95409
292.97058
292.98442
292.996
293.00543
293.01293
293.01893
293.02284
293.02546
292.78026
292.79094
292.79957
292.80661
292.81213
292.81604
292.81838
292.81899
292.81749
292.81349
292.80656
292.79627
292.78235
292.76484
292.74474
292.72426
292.71553
292.75848
292.84029
292.88733
292.91467
292.93738
292.95682
292.97286
292.98628
292.99754
293.00674
293.01405
293.01992
293.02373
293.02628
292.69275
292.71778
292.73955
292.75817
292.77364
292.786
292.79528
292.80148
292.80455
292.80411
292.7999
292.79166
292.77951
292.76327
292.74365
292.72449
292.71882
292.76909
292.84938
292.89261
292.91862
292.9406
292.95951
292.9751
292.98812
292.99908
293.00805
293.01517
293.0209
293.02461
293.0271
292.61935
292.65569
292.68825
292.71662
292.74064
292.76032
292.77569
292.78687
292.79396
292.79674
292.79509
292.78891
292.77805
292.76253
292.7435
292.72539
292.72297
292.7799
292.85779
292.89767
292.92249
292.94377
292.96216
292.97732
292.98995
293.0006
293.00935
293.01629
293.02189
293.02549
293.02793
292.5641
292.6081
292.64801
292.68341
292.714
292.73958
292.76009
292.77575
292.78644
292.79204
292.79261
292.78777
292.77756
292.76275
292.74427
292.72687
292.72804
292.79065
292.86557
292.90255
292.9263
292.94689
292.96477
292.97951
292.99175
293.00211
293.01064
293.0174
293.02287
293.02638
293.02875
292.52335
292.57461
292.61983
292.65989
292.69501
292.725
292.74955
292.76886
292.78254
292.79003
292.79155
292.78757
292.77818
292.76398
292.74593
292.72923
292.73405
292.80107
292.87274
292.90729
292.93005
292.94996
292.96735
292.98167
292.99354
293.00361
293.01193
293.01851
293.02385
293.02726
293.02958
292.48441
292.5446
292.59723
292.64296
292.68242
292.71603
292.74385
292.76523
292.78012
292.78907
292.79184
292.78871
292.77995
292.76623
292.74848
292.73258
292.74089
292.81105
292.87951
292.91194
292.93375
292.95299
292.96989
292.98381
292.99532
293.0051
293.01321
293.01962
293.02484
293.02815
293.03042
292.45835
292.51935
292.57592
292.62655
292.6706
292.70795
292.73865
292.76242
292.77938
292.78986
292.79374
292.79128
292.78293
292.7695
292.75193
292.73667
292.74838
292.82057
292.88592
292.91649
292.93741
292.95599
292.9724
292.98593
292.99707
293.00658
293.01448
293.02073
293.02582
293.02904
293.03125
292.46293
292.5179
292.57104
292.62073
292.66554
292.70449
292.737
292.76253
292.78098
292.79264
292.79735
292.79533
292.78714
292.77381
292.75626
292.74143
292.7562
292.82962
292.89201
292.92096
292.94104
292.95894
292.97488
292.98803
292.99881
293.00804
293.01574
293.02183
293.0268
293.02992
293.03209
292.48045
292.53076
292.5797
292.62621
292.66914
292.70743
292.74008
292.76613
292.78524
292.79752
292.8027
292.80087
292.79262
292.77915
292.76147
292.74681
292.76415
292.8382
292.89781
292.92536
292.94462
292.96186
292.97731
292.99009
293.00053
293.00949
293.01699
293.02292
293.02777
293.03081
293.03293
292.51022
292.55463
292.59855
292.64084
292.68049
292.71655
292.7478
292.77325
292.79225
292.80454
292.8098
292.80789
292.79937
292.78551
292.76752
292.7528
292.77209
292.84638
292.90336
292.92966
292.94814
292.96471
292.97969
292.99212
293.00222
293.01091
293.01822
293.024
293.02874
293.03169
293.03377
292.55204
292.5886
292.626
292.66295
292.69832
292.73085
292.75954
292.78359
292.80181
292.81354
292.8185
292.81629
292.80731
292.79285
292.77436
292.75937
292.77993
292.85415
292.90862
292.9338
292.95156
292.96747
292.98199
292.99409
293.00386
293.0123
293.01944
293.02507
293.0297
293.03257
293.03461
292.60575
292.63177
292.66018
292.69016
292.72007
292.7485
292.77431
292.79626
292.8132
292.82408
292.82847
292.82581
292.81625
292.80102
292.78188
292.76637
292.78752
292.86132
292.91345
292.93772
292.95483
292.97012
292.98421
292.996
293.00547
293.01367
293.02064
293.02613
293.03066
293.03346
293.03546
292.67644
292.69058
292.70655
292.72627
292.74852
292.77141
292.79315
292.81215
292.82698
292.83664
292.84012
292.83675
292.82646
292.81018
292.79009
292.77343
292.79419
292.86749
292.91783
292.94145
292.95802
292.97272
292.9864
292.99791
293.00709
293.01505
293.02186
293.02722
293.03165
293.03437
293.03635
293.88257
293.78077
293.6581
293.54046
293.43676
293.34648
293.26576
293.19136
293.12419
293.06338
293.00856
292.95929
292.91456
292.87304
292.83318
292.79224
292.75127
292.71907
292.72919
292.79427
292.85694
292.89598
292.92345
292.94538
292.96384
292.97924
292.99142
293.00113
293.00865
293.01368
293.01714
293.86091
293.7597
293.64126
293.53025
293.43176
293.34508
293.26742
293.19589
293.13054
293.07075
293.01619
292.96661
292.92123
292.8789
292.8382
292.79658
292.75505
292.72169
292.7281
292.7912
292.85506
292.89462
292.92226
292.94431
292.9629
292.97843
292.99072
293.00051
293.00809
293.01317
293.0166
293.84048
293.74459
293.63066
293.52453
293.4304
293.347
293.27178
293.2023
293.13817
293.07904
293.02459
292.97461
292.92852
292.88531
292.84369
292.80131
292.75904
292.72429
292.72688
292.7875
292.85278
292.89302
292.92089
292.9431
292.96185
292.97752
292.98992
292.99981
293.00746
293.0126
293.01596
293.82141
293.73351
293.62396
293.52114
293.43002
293.34905
293.27584
293.20802
293.14513
293.08683
293.03271
292.98256
292.93593
292.89198
292.8495
292.80643
292.76342
292.72719
292.7261
292.78359
292.85017
292.89117
292.91932
292.94173
292.96066
292.9765
292.98903
292.99905
293.00678
293.01199
293.01533
293.80103
293.72277
293.61756
293.518
293.42927
293.35044
293.27913
293.21302
293.15155
293.09427
293.04069
292.99059
292.94359
292.89899
292.85572
292.81205
292.76827
292.73046
292.72577
292.77965
292.84739
292.88918
292.91762
292.94024
292.95937
292.97542
292.98809
292.99823
293.00604
293.01133
293.0147
293.77921
293.71099
293.6108
293.51411
293.42786
293.35122
293.28187
293.2176
293.15766
293.10154
293.04867
292.99877
292.95154
292.9064
292.86243
292.81821
292.7737
292.73415
292.72589
292.77575
292.84449
292.88711
292.91586
292.93869
292.95804
292.97426
292.98708
292.99735
293.00526
293.01062
293.01421
293.75561
293.69715
293.60321
293.5099
293.4262
293.35175
293.28437
293.22197
293.16364
293.10875
293.0567
293.00715
292.95982
292.91425
292.86964
292.82494
292.77962
292.73836
292.72643
292.77194
292.8415
292.885
292.91404
292.93707
292.95663
292.97304
292.98601
292.99643
293.00443
293.00987
293.01349
293.7318
293.68254
293.59558
293.50596
293.42474
293.35235
293.28686
293.22629
293.16957
293.11596
293.06481
293.01572
292.96842
292.92252
292.87737
292.83219
292.78608
292.74325
292.72742
292.76822
292.8384
292.88282
292.91216
292.93539
292.95515
292.97176
292.98489
292.99545
293.00355
293.00908
293.01274
293.70956
293.66729
293.5876
293.50221
293.42361
293.35326
293.2896
293.23079
293.17563
293.12331
293.0731
293.02455
292.97738
292.93125
292.88563
292.83992
292.79315
292.74901
292.72888
292.76469
292.83519
292.88058
292.91022
292.93364
292.95361
292.97042
292.98371
292.99441
293.00261
293.00823
293.01172
293.68916
293.65196
293.57946
293.49872
293.42303
293.35478
293.29289
293.23573
293.18206
293.13096
293.08169
293.03372
292.98675
292.94047
292.89445
292.84817
292.80078
292.75551
292.73092
292.76142
292.83187
292.87827
292.90822
292.93183
292.95199
292.96901
292.98246
292.99331
293.00162
293.00733
293.01082
293.67143
293.63769
293.57164
293.4959
293.42339
293.35731
293.29712
293.24147
293.18912
293.13913
293.09072
293.04332
292.99658
292.95021
292.90383
292.85699
292.80898
292.76256
292.73405
292.75854
292.82846
292.87591
292.90618
292.92996
292.95031
292.96752
292.98115
292.99215
293.00057
293.00637
293.00997
293.65678
293.62548
293.56603
293.49499
293.42549
293.36141
293.30272
293.24835
293.19711
293.14805
293.10037
293.05347
293.00694
292.96051
292.91381
292.86643
292.81775
292.77012
292.7381
292.75627
292.82496
292.87351
292.90409
292.92803
292.94856
292.96598
292.97977
292.99092
292.99945
293.00536
293.00909
293.64625
293.6167
293.56271
293.49631
293.42983
293.36762
293.3102
293.25679
293.20636
293.15798
293.11083
293.0643
293.01793
292.97142
292.92441
292.8765
292.82716
292.77846
292.74312
292.75474
292.82138
292.87108
292.90198
292.92605
292.94675
292.96436
292.97833
292.98963
292.99828
293.00428
293.00812
293.64262
293.6125
293.56131
293.49987
293.43674
293.37638
293.31998
293.26718
293.21717
293.16915
293.1223
293.07595
293.02964
292.983
292.93568
292.88724
292.83726
292.78753
292.74905
292.75407
292.81775
292.86863
292.89985
292.92404
292.94489
292.96268
292.97681
292.98827
292.99703
293.00314
293.00703
293.64253
293.61291
293.56562
293.50776
293.44713
293.38819
293.33242
293.27982
293.22984
293.18177
293.1349
293.08854
293.04214
292.99531
292.94764
292.89869
292.84809
292.79747
292.75597
292.75446
292.81414
292.86619
292.89773
292.92201
292.94298
292.96093
292.97523
292.98685
292.99572
293.00193
293.00588
293.64844
293.61913
293.57436
293.51953
293.46107
293.40316
293.34764
293.29484
293.24448
293.196
293.14877
293.10215
293.05551
293.00838
292.96034
292.91089
292.85971
292.80834
292.76423
292.75582
292.81062
292.86377
292.89564
292.91996
292.94103
292.95913
292.97359
292.98535
292.99435
293.00066
293.00466
293.65817
293.62889
293.58636
293.53425
293.47776
293.42077
293.36531
293.31207
293.26103
293.21183
293.16395
293.11681
293.06977
293.02226
292.97381
292.9239
292.87232
292.82031
292.7734
292.75806
292.80734
292.8614
292.89359
292.91794
292.93906
292.95727
292.97189
292.98379
292.9929
292.99931
293.00337
293.6687
293.64028
293.60007
293.55072
293.49628
293.44025
293.38485
293.33108
293.27921
293.22911
293.18038
293.1325
293.0849
293.03694
292.98806
292.93779
292.88599
292.83354
292.78398
292.76099
292.80425
292.85912
292.89163
292.91591
292.93708
292.95538
292.97012
292.98216
292.99138
292.99789
293.00199
293.67972
293.65307
293.61538
293.56864
293.51613
293.46105
293.4057
293.35139
293.29864
293.24755
293.19786
293.14914
293.10083
293.05237
293.00308
292.95249
292.90044
292.84746
292.79515
292.76526
292.80182
292.85696
292.88973
292.914
292.93511
292.95344
292.9683
292.98047
292.98979
292.9964
293.00053
293.68944
293.66513
293.63058
293.58685
293.53649
293.48248
293.42727
293.37247
293.31888
293.26679
293.21613
293.16652
293.11749
293.06847
293.01878
292.96787
292.91545
292.86154
292.8074
292.77122
292.80006
292.85495
292.88799
292.9121
292.9332
292.95149
292.96643
292.97872
292.98814
292.99484
292.99899
293.698
293.67632
293.64521
293.60482
293.55689
293.50412
293.44917
293.39395
293.33955
293.28651
293.2349
293.18444
293.1347
293.08511
293.03504
292.98383
292.931
292.87633
292.82085
292.77884
292.79869
292.85315
292.88646
292.91037
292.93127
292.94953
292.96454
292.97691
292.98642
292.99321
292.9974
293.70565
293.68647
293.6588
293.62201
293.57691
293.52575
293.47123
293.41563
293.36045
293.30647
293.25394
293.20269
293.15228
293.10218
293.05174
293.00026
292.94706
292.89173
292.835
292.78829
292.79832
292.85153
292.88492
292.90877
292.92958
292.94758
292.9626
292.97505
292.98465
292.9915
292.99575
293.71285
293.69565
293.67105
293.63786
293.59601
293.54697
293.49326
293.43747
293.38153
293.3266
293.27315
293.22111
293.17008
293.11952
293.06875
293.01704
292.96355
292.90766
292.84975
292.79879
292.80015
292.8501
292.88424
292.90734
292.92775
292.94571
292.96067
292.97315
292.9828
292.98973
292.99404
293.72023
293.70427
293.682
293.65197
293.61345
293.56706
293.51477
293.45921
293.40272
293.34689
293.29249
293.23965
293.18802
293.13704
293.08598
293.03406
292.98038
292.92409
292.8654
292.81129
292.80301
292.84949
292.88306
292.90621
292.92632
292.94379
292.95876
292.97122
292.98092
292.98789
292.99228
293.72866
293.71342
293.69255
293.66475
293.62903
293.58538
293.53508
293.48039
293.42379
293.36727
293.31199
293.25832
293.20607
293.15467
293.10336
293.05127
292.99748
292.94104
292.88189
292.82477
292.80629
292.84869
292.88245
292.90534
292.92494
292.9422
292.95684
292.96927
292.97899
292.98599
292.99046
293.73602
293.72181
293.70261
293.67691
293.64362
293.60246
293.55423
293.50079
293.44454
293.38765
293.33164
293.27719
293.22427
293.17241
293.12083
293.06862
293.01478
292.95835
292.89904
292.83963
292.81026
292.84826
292.88313
292.90506
292.92344
292.94038
292.95508
292.96733
292.97703
292.98404
292.98857
293.74175
293.72833
293.7104
293.68664
293.65584
293.6174
293.57163
293.51998
293.46461
293.40782
293.35136
293.29622
293.24264
293.19028
293.13841
293.08607
293.03221
292.97582
292.91623
292.8552
292.81697
292.84813
292.88331
292.90484
292.92302
292.93915
292.95324
292.96539
292.97505
292.98205
292.98661
293.74351
293.73123
293.71481
293.693
293.66459
293.6288
293.58579
293.53656
293.48291
293.42697
293.37063
293.31516
293.26107
293.20824
293.15605
293.10357
293.04972
292.99339
292.93374
292.87181
292.82585
292.84868
292.88426
292.90545
292.92203
292.93787
292.9517
292.96351
292.97304
292.98001
292.98458
293.73862
293.72763
293.71286
293.69318
293.66752
293.63506
293.59546
293.54942
293.4984
293.44425
293.38883
293.33359
293.27932
293.22616
293.17369
293.12108
293.06724
293.01102
292.95143
292.88896
292.83696
292.85066
292.88576
292.90541
292.9215
292.93652
292.95008
292.96165
292.97108
292.97797
292.98251
293.72637
293.7168
293.70391
293.68668
293.66407
293.63523
293.5997
293.55768
293.51021
293.45881
293.40521
293.35092
293.29698
293.24379
293.19118
293.1385
293.08472
293.02867
292.96926
292.90652
292.84999
292.85452
292.88666
292.9063
292.92175
292.93626
292.94862
292.95983
292.96904
292.97589
292.98041
293.70714
293.69903
293.6881
293.67346
293.65413
293.62926
293.59825
293.56094
293.5178
293.47002
293.41911
293.36656
293.31357
293.26079
293.20832
293.1557
293.10208
293.04629
292.9872
292.92449
292.86486
292.85783
292.88811
292.908
292.9223
292.93521
292.9476
292.95826
292.96719
292.97388
292.97831
293.68166
293.67496
293.66596
293.65393
293.63801
293.6173
293.59101
293.55881
293.52072
293.47741
293.43006
293.38005
293.32868
293.27682
293.22483
293.1725
293.11917
293.06376
293.00511
292.94261
292.88059
292.8623
292.89088
292.90975
292.92283
292.93471
292.94613
292.95654
292.96523
292.9718
292.97622
293.65163
293.64618
293.63889
293.6292
293.61639
293.59964
293.5782
293.55138
293.51886
293.48078
293.43785
293.3912
293.34212
293.29169
293.24054
293.18875
293.13586
293.08095
293.02287
292.96074
292.89665
292.8689
292.89401
292.91112
292.92352
292.93479
292.94552
292.95522
292.96349
292.96988
292.97419
293.61889
293.61437
293.60853
293.60099
293.59112
293.57816
293.56129
293.53974
293.51287
293.48035
293.44244
293.3999
293.35381
293.30535
293.25541
293.20437
293.15207
293.09776
293.04038
292.97884
292.91409
292.87671
292.89669
292.91306
292.92471
292.93491
292.9451
292.95419
292.9619
292.96796
292.97217
293.58901
293.58492
293.57977
293.57322
293.56496
293.55452
293.54119
293.52411
293.50241
293.47545
293.44298
293.40525
293.36301
293.3173
293.26913
293.21921
293.16769
293.1141
293.05751
292.99676
292.93206
292.88562
292.89977
292.91607
292.92637
292.93538
292.94406
292.95268
292.96022
292.96614
292.97027
293.56501
293.56107
293.55642
293.55084
293.54389
293.53503
293.52368
293.50924
293.49107
293.46844
293.44074
293.4077
293.36961
293.32719
293.28139
293.23305
293.18259
293.12986
293.07412
293.01431
292.95015
292.89679
292.90318
292.91887
292.9279
292.93563
292.94411
292.95225
292.95914
292.96457
292.96841
293.5504
293.54597
293.541
293.53536
293.52881
293.52098
293.51131
293.49906
293.48342
293.46368
293.43928
293.40986
293.37531
293.33602
293.2927
293.2461
293.19681
293.14497
293.09011
293.03131
292.9679
292.90933
292.90674
292.92139
292.92879
292.93669
292.94467
292.95181
292.95796
292.96297
292.96678
293.54941
293.54437
293.53878
293.5325
293.52534
293.51705
293.50724
293.49543
293.481
293.46315
293.44111
293.41419
293.38219
293.34528
293.30395
293.25887
293.21063
293.15958
293.10551
293.04764
292.98505
292.92317
292.9107
292.92398
292.93108
292.93787
292.94481
292.9511
292.95682
292.96176
292.96522
293.55626
293.55115
293.54538
293.53882
293.53128
293.52255
293.51234
293.50026
293.48577
293.46818
293.44676
293.42099
293.39047
293.3551
293.31521
293.27138
293.22413
293.17379
293.12036
293.06327
293.00136
292.93635
292.91512
292.9266
292.93374
292.93942
292.94494
292.95122
292.95669
292.96079
292.96399
293.56008
293.55564
293.55053
293.54459
293.53761
293.52935
293.51948
293.50759
293.49323
293.4759
293.45506
293.43012
293.40049
293.36599
293.3269
293.28379
293.23723
293.18753
293.13468
293.07823
293.01691
292.95072
292.92033
292.92934
292.93602
292.94074
292.94631
292.95157
292.95597
292.95971