/*--------------------------------*- C++ -*----------------------------------*\
| =========                 |                                                 |
| \\      /  F ield         | OpenFOAM: The Open Source CFD Toolbox           |
|  \\    /   O peration     | Version:  2406                                  |
|   \\  /    A nd           | Website:  www.openfoam.com                      |
|    \\/     M anipulation  |                                                 |
\*---------------------------------------------------------------------------*/
FoamFile
{
    version     2.0;
    format      ascii;
    arch        "LSB;label=32;scalar=64";
    class       volVectorField;
    location    "0.002";
    object      U;
}
// * * * * * * * * * * * * * * * * * * * * * * * * * * * * * * * * * * * * * //

dimensions      [0 1 -1 0 0 0 0];

internalField   nonuniform List<vector> 
23203
(
(53.295408 16.964135 -1.3531929e-21)
(53.551645 16.488892 0)
(53.800879 16.03368 0)
(54.040797 15.597259 0)
(54.269468 15.178758 1.381588e-21)
(54.485884 14.777774 -3.9345116e-21)
(54.690201 14.394012 -2.5984599e-21)
(54.882554 14.027283 0)
(55.062263 13.677912 0)
(55.232592 13.344671 2.9773834e-21)
(55.395 13.026751 -8.6740761e-21)
(55.550378 12.723384 -5.6212686e-21)
(55.69935 12.433807 2.7346942e-21)
(55.842371 12.157276 -7.9897042e-21)
(55.979766 11.893061 0)
(56.111754 11.640451 0)
(56.238459 11.398752 -7.4311674e-21)
(56.359927 11.167286 4.8470247e-21)
(56.476128 10.945387 -4.7494813e-21)
(56.586969 10.732401 4.6608896e-21)
(56.692293 10.527683 -1.1453641e-20)
(56.791884 10.330593 -1.5790014e-20)
(56.885474 10.140494 4.4506943e-21)
(56.972737 9.9567453 1.0999144e-20)
(57.053297 9.7787034 8.7178163e-21)
(57.126726 9.6057092 2.1642425e-21)
(57.192529 9.4371131 6.46632e-21)
(57.250297 9.2722277 0)
(57.299585 9.1099094 0)
(57.338679 8.9506807 0)
(57.366608 8.792493 8.7367381e-21)
(57.383764 8.6349863 8.8492435e-21)
(57.389878 8.4762238 9.0166585e-21)
(57.382776 8.3163001 2.3070672e-21)
(57.361021 8.1535368 -2.3742529e-21)
(57.323121 7.9864833 9.842744e-21)
(57.267187 7.8135005 -1.2853884e-20)
(57.190892 7.6325768 -6.7788424e-21)
(57.091306 7.4412838 1.4675303e-25)
(56.964677 7.2366342 -2.6592747e-20)
(56.806172 7.0149169 0)
(56.609515 6.7714824 2.895988e-20)
(56.366681 6.5005754 -3.5519988e-20)
(56.067987 6.1956012 2.6246538e-21)
(55.705598 5.8498483 5.4179143e-20)
(55.296411 5.4684408 5.8279752e-20)
(54.926477 5.1171393 4.4757125e-21)
(54.693844 4.8732957 6.6132975e-20)
(54.567843 4.7043432 1.5191291e-19)
(54.481512 4.5616644 9.3996126e-21)
(54.407451 4.4291448 -4.6346714e-21)
(54.33841 4.3022877 7.7628933e-20)
(54.272677 4.1798135 -8.9938274e-21)
(54.209773 4.0611782 7.5257065e-20)
(54.149547 3.9460644 7.4062353e-20)
(54.09191 3.8342222 1.9585943e-25)
(54.036778 3.7254695 1.3490614e-19)
(53.984083 3.619584 -4.145419e-21)
(53.93384 3.5163559 1.2633899e-19)
(53.886035 3.4155915 8.0115284e-21)
(53.840596 3.317145 -3.9365109e-21)
(53.797482 3.220843 -1.2377592e-19)
(53.756626 3.1265671 0)
(53.717986 3.0341928 -1.2318758e-19)
(53.681483 2.9436558 -1.1366526e-19)
(53.647049 2.854879 -1.7805953e-25)
(53.614622 2.7678196 0)
(53.584097 2.6824641 -1.0765482e-19)
(53.555411 2.5987792 -3.4098241e-21)
(53.528518 2.5167707 -3.5355173e-25)
(53.503307 2.4364917 0)
(53.479708 2.3579486 0)
(53.457694 2.2811745 -2.027089e-19)
(53.437164 2.2062639 9.8521593e-25)
(53.418038 2.1332772 -3.0515013e-21)
(53.400211 2.0622736 5.9898365e-21)
(53.383586 1.9933455 1.8223347e-19)
(53.368101 1.9265619 1.8460778e-19)
(53.353636 1.8620355 -1.7833186e-19)
(53.340118 1.799792 0)
(53.327411 1.7402749 -1.7445093e-19)
(53.315618 1.6824985 0)
(53.303231 1.6297204 1.6535357e-19)
(53.293446 1.575205 2.5755044e-21)
(53.28331 1.5267978 0)
(53.273286 1.4793684 -1.5870097e-19)
(53.263838 1.4349383 0)
(53.254735 1.3923465 1.5277854e-19)
(53.246137 1.3515402 -1.5106089e-19)
(53.238148 1.3119763 2.2975986e-21)
(53.230715 1.2730252 -1.127011e-21)
(53.223615 1.2340531 0)
(53.21689 1.1941299 0)
(53.210492 1.1525491 2.7112655e-19)
(53.204475 1.1083335 1.7688621e-25)
(53.198577 1.061084 -2.6066873e-19)
(53.192734 1.0094298 0)
(53.186953 0.95307141 -3.4125258e-24)
(53.181038 0.89087236 0)
(53.175029 0.82266574 -2.4179918e-19)
(53.169233 0.74767717 3.039521e-24)
(53.164006 0.66660877 0)
(53.159191 0.57897196 -2.2786689e-19)
(53.154603 0.48518194 2.2351166e-19)
(53.148877 0.38930611 0)
(53.141356 0.27497799 0)
(53.138263 0.19542692 1.9140735e-19)
(53.156175 0.034375492 -1.4885017e-19)
(52.926155 17.103247 0)
(53.204986 16.639581 3.9416172e-21)
(53.472833 16.194165 6.7820941e-25)
(53.72934 15.765689 -3.6875937e-21)
(53.973702 15.353396 -3.5687458e-21)
(54.205472 14.957086 6.9128238e-21)
(54.424842 14.576684 -3.3522222e-21)
(54.632154 14.212071 3.2522912e-21)
(54.827733 13.863293 6.3170138e-21)
(55.013187 13.5299 -3.0691378e-21)
(55.189755 13.211282 8.954967e-21)
(55.358342 12.906734 -2.9059174e-21)
(55.51962 12.615541 2.8315854e-21)
(55.67409 12.337003 -5.5220196e-21)
(55.822121 12.070435 2.6953641e-21)
(55.963972 11.815163 -7.9022791e-21)
(56.099808 11.570526 1.0308703e-20)
(56.229712 11.335875 0)
(56.353689 11.110568 4.9544284e-21)
(56.471677 10.893971 2.4338317e-21)
(56.58355 10.685454 9.5801062e-21)
(56.68912 10.484391 -4.7228055e-21)
(56.788141 10.290154 2.3310976e-21)
(56.880311 10.102109 -6.9199434e-21)
(56.965273 9.9196155 -2.2877877e-21)
(57.042614 9.7420186 9.0974656e-21)
(57.111867 9.5686572 0)
(57.172575 9.3988484 0)
(57.224231 9.2315745 6.8160382e-21)
(57.265384 9.0667227 1.1428456e-20)
(57.295029 8.90263 -2.3055315e-21)
(57.31322 8.7397218 -7.0111916e-21)
(57.319796 8.5749632 -9.533614e-21)
(57.312666 8.4087802 0)
(57.290288 8.2394221 0)
(57.251098 8.0653663 -1.0433468e-20)
(57.193114 7.8849189 8.1818994e-21)
(57.113884 7.6959751 1.4394775e-20)
(57.010313 7.4959891 0)
(56.878433 7.281819 3.3274696e-21)
(56.713124 7.049553 -3.6613971e-21)
(56.507775 6.7942937 4.1102879e-21)
(56.254038 6.5100267 3.3062399e-20)
(55.942295 6.1899994 -4.7354468e-20)
(55.567962 5.8280147 3.3599329e-21)
(55.161245 5.4377743 -1.2488668e-19)
(54.821906 5.1004281 7.2472595e-20)
(54.626164 4.877098 -1.5060609e-19)
(54.519359 4.7163783 -7.9977868e-20)
(54.440624 4.5752756 -7.4401055e-20)
(54.370243 4.4424311 7.7921228e-20)
(54.303775 4.31482 -9.028743e-21)
(54.240238 4.1915357 4.4443088e-21)
(54.179325 4.0721126 0)
(54.120941 3.9562437 0)
(54.065023 3.8436784 -1.3546942e-19)
(54.011495 3.7342368 -1.3322121e-19)
(53.960294 3.6276961 4.0932297e-21)
(53.911441 3.5238437 -1.3277348e-19)
(53.864933 3.422481 1.2653451e-19)
(53.820704 3.3234688 3.8855755e-21)
(53.77872 3.2266294 -3.817406e-21)
(53.738919 3.1318493 0)
(53.701269 3.0390027 -1.2156036e-19)
(53.665698 2.948025 1.1577496e-19)
(53.632139 2.8588414 -1.1014817e-19)
(53.600536 2.7714051 0)
(53.570787 2.6857061 2.2237017e-25)
(53.542829 2.6017083 0)
(53.516623 2.5194148 -1.0569098e-19)
(53.492058 2.4388788 0)
(53.469059 2.3601072 1.0185894e-19)
(53.447608 2.2831284 9.9987176e-20)
(53.427604 2.2080355 3.9257644e-19)
(53.408961 2.1348933 3.010329e-21)
(53.391578 2.063753 1.8613502e-19)
(53.375358 1.9947123 -3.7115579e-19)
(53.360238 1.927837 2.8444867e-21)
(53.346102 1.8632359 1.7314373e-19)
(53.33288 1.8009432 -1.7265109e-19)
(53.32043 1.7413716 1.7211599e-19)
(53.308925 1.6835856 0)
(53.296687 1.6308167 -1.5158205e-24)
(53.286994 1.5763061 0)
(53.277149 1.5279035 0)
(53.267263 1.4805185 0)
(53.257947 1.4361111 1.5366253e-19)
(53.248969 1.393555 1.1778731e-21)
(53.240482 1.3527809 -1.1557627e-21)
(53.232614 1.3132421 1.4626851e-19)
(53.225318 1.2742907 -2.8587994e-19)
(53.218353 1.2353147 1.0911352e-21)
(53.211762 1.1953863 2.7400308e-19)
(53.205504 1.1537967 -1.049821e-21)
(53.199658 1.1095645 0)
(53.193946 1.0622878 2.5942314e-19)
(53.188309 1.0106148 -1.9794903e-21)
(53.182768 0.95425293 -4.9589107e-19)
(53.177112 0.8920138 0)
(53.171386 0.82376917 3.2182081e-24)
(53.165901 0.74874555 2.3471708e-19)
(53.161006 0.66764019 -4.4880254e-22)
(53.15654 0.57992746 2.253821e-19)
(53.152344 0.48607019 -4.4218479e-19)
(53.146848 0.39016738 0)
(53.13996 0.27543524 0)
(53.136426 0.19770135 -4.9519597e-23)
(53.154851 0.033564833 3.3222662e-23)
(52.516491 17.214992 -3.9948197e-21)
(52.818869 16.764296 -7.0906385e-25)
(53.10809 16.32998 -3.741666e-21)
(53.384498 15.910963 3.6243346e-21)
(53.64785 15.506637 -7.0310868e-21)
(53.897986 15.116832 0)
(54.135125 14.741527 0)
(54.359657 14.380684 6.4333151e-21)
(54.572094 14.034373 -6.2530416e-21)
(54.773543 13.70245 -3.0426027e-21)
(54.965119 13.384485 -2.9620988e-21)
(55.147739 13.079905 5.7740975e-21)
(55.322116 12.788098 -5.6324492e-21)
(55.488801 12.50844 8.2496841e-21)
(55.648211 12.240305 2.6884368e-21)
(55.800649 11.983071 7.8893206e-21)
(55.946324 11.73612 1.1627535e-24)
(56.085357 11.498839 2.5273021e-21)
(56.217791 11.270616 -2.4811421e-21)
(56.3436 11.050844 -2.4407883e-21)
(56.462686 10.838914 -9.6185466e-21)
(56.574892 10.634216 9.4923289e-21)
(56.679996 10.436134 -9.3862933e-21)
(56.77772 10.244045 9.2993168e-21)
(56.867725 10.057314 0)
(56.949616 9.8752898 1.1487849e-20)
(57.022942 9.6973033 3.5416201e-25)
(57.087222 9.5226585 9.1783521e-21)
(57.141894 9.350402 -2.0729774e-20)
(57.185731 9.1801826 -1.6241171e-20)
(57.217738 9.0104032 3.2030458e-25)
(57.237606 8.8418607 -2.3786516e-21)
(57.245272 8.6711028 7.2871128e-21)
(57.238749 8.4985815 1.2460828e-20)
(57.21639 8.3225334 0)
(57.176557 8.1413387 1.0687195e-20)
(57.11718 7.9532429 4.0552367e-25)
(57.035684 7.7560389 2.9613278e-21)
(56.928816 7.5470519 2.2185101e-20)
(56.7924 7.3229732 0)
(56.621063 7.0796813 0)
(56.407911 6.8120411 4.274241e-21)
(56.144412 6.5138735 -4.9260925e-21)
(55.821501 6.1785411 8.7332513e-20)
(55.439421 5.8017448 -4.9043127e-20)
(55.042748 5.4101002 8.2882126e-21)
(54.737578 5.0955221 -9.1224814e-21)
(54.570903 4.8913913 -1.2562768e-24)
(54.475819 4.735656 0)
(54.401774 4.5948335 -4.6005155e-21)
(54.33423 4.4612091 -6.7994008e-20)
(54.27007 4.3326243 -4.4637425e-21)
(54.208601 4.2083599 4.3936589e-21)
(54.149585 4.0879862 7.3503378e-20)
(54.092961 3.9711979 1.9550438e-25)
(54.038687 3.8577429 1.3387442e-19)
(53.986698 3.7474459 -4.1136707e-21)
(53.936927 3.6400862 -4.044279e-21)
(53.889402 3.5354487 3.9749223e-21)
(53.844134 3.433329 -1.2500104e-19)
(53.801062 3.3335971 0)
(53.760157 3.2360699 -3.7707692e-21)
(53.721367 3.1406399 -1.1340679e-25)
(53.684665 3.047179 3.6380051e-21)
(53.649985 2.9556212 -1.1076443e-19)
(53.617262 2.8658947 -3.5088259e-21)
(53.58645 2.7779471 3.4456232e-21)
(53.557444 2.6917724 1.0826222e-19)
(53.530184 2.6073319 -6.6433856e-21)
(53.504638 2.5246248 -1.0109444e-19)
(53.480696 2.443704 0)
(53.458279 2.3645787 -1.0056542e-19)
(53.437377 2.2872711 0)
(53.417895 2.2118731 -3.0287486e-21)
(53.39974 2.1384552 2.9717705e-21)
(53.382817 2.0670602 -1.8666495e-19)
(53.367031 1.9977915 3.6638426e-19)
(53.352321 1.9307122 -1.8258711e-19)
(53.338574 1.8659274 5.5131571e-21)
(53.325726 1.803478 1.7041931e-19)
(53.313635 1.7437501 -1.6988417e-19)
(53.302547 1.6858415 -2.6047468e-21)
(53.290586 1.6329647 -1.6358416e-19)
(53.28112 1.5784608 -1.5550171e-19)
(53.271746 1.5299332 -4.9221975e-21)
(53.262173 1.4825182 2.4149753e-21)
(53.253174 1.4380556 -1.5165171e-19)
(53.244497 1.3954717 0)
(53.236292 1.3546732 1.1404863e-21)
(53.228681 1.3151164 -1.4434766e-19)
(53.221622 1.2761414 3.7726809e-24)
(53.214872 1.237149 0)
(53.208472 1.197209 -2.7039902e-19)
(53.202386 1.1556064 2.6519327e-19)
(53.196713 1.111353 2.6006588e-19)
(53.191161 1.0640411 -2.5501691e-19)
(53.185673 1.0123401 -2.4906446e-19)
(53.180279 0.95595417 3.247389e-24)
(53.174756 0.89364528 -1.4085832e-21)
(53.169161 0.8253287 2.357278e-19)
(53.163807 0.75022731 4.5156676e-22)
(53.159043 0.66904155 0)
(53.1547 0.58121176 0)
(53.150649 0.48724512 2.1817681e-19)
(53.145194 0.39126161 2.1404295e-19)
(53.138742 0.2760924 0)
(53.134506 0.20011202 -3.9993362e-19)
(53.153127 0.0327085 0)
(52.117156 17.30164 3.9088069e-21)
(52.440973 16.865194 -7.6429845e-25)
(52.750139 16.443195 0)
(53.045275 16.034913 -3.5644369e-21)
(53.326535 15.639905 3.4585689e-21)
(53.594014 15.25803 3.3630507e-21)
(53.847985 14.889297 3.2683518e-21)
(54.088851 14.533741 -1.271796e-20)
(54.317152 14.191454 0)
(54.533809 13.862407 -3.0155172e-21)
(54.739803 13.546333 2.939825e-21)
(54.936001 13.242817 -8.6070587e-21)
(55.123119 12.951366 2.8016074e-21)
(55.301729 12.671451 0)
(55.472278 12.40252 -8.0400422e-21)
(55.635105 12.144014 -2.6260582e-21)
(55.79045 11.895366 -2.5743029e-21)
(55.938469 11.656005 -1.0113454e-20)
(56.079235 11.425357 9.9453599e-21)
(56.21275 11.202844 3.6224708e-25)
(56.338946 10.987884 -1.2074891e-20)
(56.457689 10.779885 0)
(56.568781 10.578249 9.4472076e-21)
(56.671963 10.382365 -9.3709476e-21)
(56.766915 10.191607 0)
(56.853257 10.005325 -1.1604825e-20)
(56.930545 9.822847 2.3188635e-21)
(56.998284 9.6434632 -1.1618483e-20)
(57.055875 9.4662618 1.4014192e-20)
(57.102256 9.2908107 1.6491877e-20)
(57.136467 9.1154529 0)
(57.157906 8.9411759 7.263676e-21)
(57.166539 8.7643709 2.4768212e-21)
(57.160456 8.5854215 -2.5451083e-21)
(57.137933 8.4025707 2.6307229e-21)
(57.097258 8.2140868 2.7388847e-21)
(57.036261 8.0181495 -2.8744883e-21)
(56.952239 7.8124445 0)
(56.841769 7.5941628 8.8837006e-25)
(56.700459 7.3598273 3.5598009e-21)
(56.522666 7.1051161 -3.9404246e-21)
(56.301226 6.8246988 0)
(56.027498 6.5123602 5.1466297e-21)
(55.693483 6.1618362 -1.035687e-19)
(55.306131 5.7723282 -7.3015332e-21)
(54.925314 5.3861304 8.4934399e-21)
(54.656474 5.0968974 -6.4097367e-20)
(54.515544 4.9075129 -9.2962513e-21)
(54.430594 4.754792 -7.379594e-20)
(54.361007 4.6138988 0)
(54.296354 4.4794593 0)
(54.234598 4.3499031 0)
(54.175297 4.2246596 -6.5143552e-20)
(54.118275 4.1033349 7.7973154e-25)
(54.063503 3.985626 -4.2031571e-21)
(54.010961 3.8712811 0)
(53.960595 3.7601299 -1.300556e-19)
(53.912335 3.6519553 -3.9952263e-21)
(53.866216 3.5465393 1.2957372e-19)
(53.822261 3.44367 -3.8583766e-21)
(53.780417 3.3432276 -1.1751396e-19)
(53.740659 3.2450229 -1.1916526e-19)
(53.702943 3.1489545 0)
(53.667248 3.054892 2.3351513e-19)
(53.633517 2.9627666 1.0584364e-19)
(53.601686 2.8725105 3.46454e-21)
(53.571714 2.7840642 -1.0886205e-19)
(53.5435 2.6974267 -1.0688615e-19)
(53.516981 2.6125575 0)
(53.492137 2.5294501 9.9802157e-20)
(53.468857 2.448158 3.1603699e-21)
(53.447057 2.3686926 0)
(53.426736 2.2910704 9.4396218e-20)
(53.407803 2.215381 -1.8530185e-19)
(53.390162 2.1417018 2.8228582e-26)
(53.373718 2.0700668 1.8424193e-19)
(53.358383 2.0005847 -3.6444551e-19)
(53.344095 1.9333161 0)
(53.330744 1.8683626 1.7411768e-19)
(53.31827 1.8057723 0)
(53.306535 1.7458985 1.6503994e-19)
(53.295849 1.6878888 5.1411512e-21)
(53.284173 1.6348581 -2.5224064e-21)
(53.274904 1.580467 1.5220042e-24)
(53.265976 1.5318069 -1.5543131e-19)
(53.256698 1.4843678 -1.5012828e-19)
(53.247987 1.4398598 -2.3382442e-21)
(53.239586 1.3972573 0)
(53.231634 1.3564421 0)
(53.224256 1.316872 -1.413239e-19)
(53.21742 1.277876 2.7728779e-19)
(53.210878 1.2388672 0)
(53.204664 1.1989166 0)
(53.198749 1.1573026 -2.6268988e-19)
(53.193251 1.1130317 -5.1221249e-19)
(53.187868 1.0656886 9.828132e-22)
(53.182545 1.0139695 4.9343863e-19)
(53.177316 0.95756232 4.8287143e-19)
(53.171949 0.89519051 -2.3719578e-19)
(53.166514 0.82681264 0)
(53.161326 0.75164173 -4.4547755e-22)
(53.156731 0.67038284 -2.2328728e-19)
(53.152558 0.58244058 0)
(53.148696 0.4883759 0)
(53.143342 0.39230062 -2.109817e-19)
(53.137392 0.27672904 -3.035185e-22)
(53.132443 0.20250199 2.0339301e-19)
(53.151138 0.031762188 0)
(51.727423 17.364211 -3.8230655e-21)
(52.070805 16.943315 2.5861749e-25)
(52.398403 16.534923 3.6054487e-21)
(52.710984 16.138625 1.2684201e-25)
(53.008966 15.754155 1.0216713e-20)
(53.29265 15.381441 -9.9396985e-21)
(53.562393 15.020531 -6.4523823e-21)
(53.818636 14.671518 9.4256689e-21)
(54.061935 14.334518 0)
(54.293077 14.009565 0)
(54.512913 13.696522 8.7510731e-21)
(54.722238 13.395111 -2.850849e-21)
(54.921741 13.10496 -2.7870186e-21)
(55.111995 12.825638 -1.0910067e-20)
(55.293463 12.55668 2.6719519e-21)
(55.466503 12.297592 7.8620821e-21)
(55.631381 12.047867 2.5732063e-21)
(55.788276 11.806983 -5.0604151e-21)
(55.937288 11.574408 -2.4902408e-21)
(56.078442 11.349599 -9.8233694e-21)
(56.211693 11.132 1.212478e-20)
(56.336927 10.921046 2.3991876e-21)
(56.453968 10.716158 -2.3775068e-21)
(56.562572 10.516738 0)
(56.662434 10.32217 2.3505812e-21)
(56.753185 10.131812 -2.3450162e-21)
(56.834387 9.9449871 0)
(56.905532 9.7609788 9.4162133e-21)
(56.966 9.5789047 -2.369428e-21)
(57.014845 9.3983096 -4.7857025e-21)
(57.051141 9.2174332 -2.4229646e-21)
(57.07406 9.0373841 0)
(57.083553 8.8544776 -1.2635015e-20)
(57.077749 8.6690088 -5.2022244e-21)
(57.05487 8.4792314 5.3869309e-21)
(57.013117 8.2832944 -8.4280499e-21)
(56.950218 8.0793053 -1.1821393e-20)
(56.863331 7.8648377 0)
(56.74885 7.6369433 9.3235888e-25)
(56.602156 7.3919754 3.6885497e-21)
(56.417342 7.1254219 -3.2770463e-20)
(56.187004 6.8318007 -4.6426854e-21)
(55.902566 6.5049701 -4.3072962e-20)
(55.557969 6.1393159 5.1032077e-20)
(55.169275 5.7398049 -6.075146e-20)
(54.811683 5.3658841 1.3861944e-19)
(54.580829 5.1025317 -7.3268104e-20)
(54.46189 4.9244045 7.3749663e-20)
(54.385124 4.7736308 7.3015274e-20)
(54.319458 4.6324934 -6.2987493e-20)
(54.2576 4.4972581 -8.8610819e-21)
(54.198265 4.3667813 -6.9781684e-20)
(54.141176 4.2406076 6.8668293e-20)
(54.086193 4.1183754 -7.5999934e-20)
(54.033315 3.9997834 4.1524865e-21)
(53.982547 3.8845815 4.0834347e-21)
(53.933845 3.7726043 1.2846658e-19)
(53.887134 3.6636408 0)
(53.842452 3.5574703 -1.2409194e-19)
(53.799842 3.4538723 3.8103539e-21)
(53.759255 3.3527386 1.1978682e-19)
(53.720671 3.2538739 1.1766708e-19)
(53.684056 3.1571832 -3.6115779e-21)
(53.649393 3.0625341 -2.2700717e-19)
(53.616633 2.9698541 1.1146276e-19)
(53.585713 2.8790801 0)
(53.556601 2.7901449 1.0746663e-19)
(53.529197 2.7030531 1.022145e-19)
(53.503435 2.6177633 3.2370201e-21)
(53.479307 2.5342621 9.8511001e-20)
(53.456701 2.4526036 3.1193845e-21)
(53.435532 2.3728026 0)
(53.415802 2.2948692 -3.7292753e-25)
(53.39743 2.2188911 2.9497053e-21)
(53.380312 2.1449529 -1.8816867e-19)
(53.364359 2.0730801 -3.6365046e-19)
(53.349485 2.003386 1.8122181e-19)
(53.335629 1.9359295 -2.7359062e-21)
(53.322687 1.8708085 -3.4364145e-19)
(53.3106 1.8080787 1.6596595e-19)
(53.299236 1.7480572 5.1699506e-21)
(53.288958 1.6899558 -4.5859832e-26)
(53.277602 1.6367064 -6.2236553e-26)
(53.268541 1.5825137 1.5385411e-19)
(53.260071 1.5337058 1.5575651e-19)
(53.251113 1.4862412 -2.3496136e-21)
(53.242711 1.4416859 1.4764101e-19)
(53.234605 1.3990639 -1.1316522e-21)
(53.226926 1.3582305 1.4433964e-19)
(53.219799 1.3186447 2.766773e-19)
(53.213201 1.2796256 2.1371899e-21)
(53.206879 1.2405983 -2.0964681e-21)
(53.20086 1.2006368 1.4721372e-25)
(53.19512 1.1590113 -2.5814618e-19)
(53.1898 1.1147243 2.541491e-19)
(53.184587 1.0673516 -2.4824107e-19)
(53.179428 1.0156198 -2.4340816e-19)
(53.174356 0.95918639 -3.2904852e-24)
(53.169136 0.89675252 2.3401644e-19)
(53.163851 0.8283154 0)
(53.158814 0.75307472 2.2504381e-19)
(53.154372 0.67174204 2.2115292e-19)
(53.150353 0.58368403 -7.569333e-26)
(53.146662 0.48952206 -2.1278209e-19)
(53.141414 0.39333365 0)
(53.135978 0.27738943 -2.0439555e-19)
(53.130294 0.20478264 4.8958978e-23)
(53.148865 0.03068146 -2.8182338e-23)
(51.346628 17.403835 -7.476644e-21)
(51.707752 16.999655 -3.6351546e-21)
(52.052306 16.606052 -3.53506e-21)
(52.381116 16.222881 -6.8834248e-21)
(52.694748 15.850053 0)
(52.993644 15.487589 -3.2647432e-21)
(53.278233 15.135594 9.5470517e-21)
(53.548991 14.794208 0)
(53.806475 14.463582 0)
(54.051376 14.143801 2.9599208e-21)
(54.284441 13.834826 -2.8917488e-21)
(54.50639 13.536493 5.6599064e-21)
(54.717872 13.248539 5.5415616e-21)
(54.919445 12.970635 -1.0761656e-24)
(55.11157 12.702398 0)
(55.294614 12.443409 -5.2313064e-21)
(55.468858 12.193224 0)
(55.634497 11.951373 7.594335e-21)
(55.79165 11.717369 3.1535498e-25)
(55.94036 11.490708 -3.4234996e-25)
(56.0806 11.270869 1.2178104e-20)
(56.212275 11.05731 -9.6497873e-21)
(56.335221 10.849476 -9.575849e-21)
(56.449212 10.646785 0)
(56.553951 10.448633 0)
(56.649077 10.254385 0)
(56.734156 10.063367 -7.1228564e-21)
(56.808669 9.8748577 -1.192565e-20)
(56.871988 9.6879972 -2.4041717e-21)
(56.923242 9.502325 -7.2950103e-21)
(56.961528 9.3159669 0)
(56.98585 9.1301344 0)
(56.996115 8.941072 1.031649e-20)
(56.990455 8.7489942 0)
(56.967052 8.5521601 -1.3795467e-20)
(56.924011 8.3485977 2.8830408e-21)
(56.858947 8.1363348 3.0407653e-21)
(56.768866 7.912827 9.7195778e-21)
(56.649971 7.674981 -2.7959745e-20)
(56.497405 7.4189784 3.0614429e-20)
(56.305004 7.1401256 2.9848867e-20)
(56.065181 6.8328356 4.8496217e-21)
(55.769688 6.4911436 5.0756258e-20)
(55.415664 6.1105879 5.3435928e-20)
(55.030841 5.7050886 -7.8733989e-21)
(54.703622 5.3502982 -7.0309332e-20)
(54.509859 5.1115736 1.4612623e-19)
(54.408992 4.9416573 8.2204994e-20)
(54.338976 4.7920624 -9.0268937e-21)
(54.276912 4.6505629 1.5122122e-19)
(54.217814 4.5145614 4.3781606e-25)
(54.160931 4.3832156 5.1717506e-20)
(54.106101 4.2561589 7.6329292e-20)
(54.053206 4.1330614 0)
(54.002269 4.0136223 0)
(53.95332 3.8975948 0)
(53.906326 3.7848182 0)
(53.861206 3.6750897 0)
(53.818001 3.5681872 0)
(53.776773 3.46388 1.1663005e-19)
(53.73748 3.3620731 3.6958501e-21)
(53.700104 3.2625648 1.1616954e-19)
(53.664623 3.1652668 0)
(53.631021 3.0700457 1.1204692e-19)
(53.599262 2.9768235 3.9588257e-26)
(53.569281 2.8855434 3.37615e-21)
(53.541054 2.7961288 -3.3147395e-21)
(53.514484 2.7085911 -1.0739352e-19)
(53.489503 2.6228892 6.3896481e-21)
(53.466111 2.5390009 -6.2726525e-21)
(53.444199 2.4569815 6.1570056e-21)
(53.423677 2.3768502 -9.669375e-20)
(53.404555 2.2986106 -3.1780931e-25)
(53.386758 2.2223476 -2.9107213e-21)
(53.370177 2.1481542 1.7996624e-19)
(53.354726 2.0760474 1.8221801e-19)
(53.340326 2.0061444 0)
(53.326912 1.9385032 1.7276717e-19)
(53.314387 1.873218 1.6688143e-19)
(53.302691 1.8103521 2.5980195e-21)
(53.291704 1.7501845 0)
(53.281825 1.6920081 -2.5024534e-21)
(53.270817 1.6384745 -1.5469264e-19)
(53.261968 1.5845488 0)
(53.253942 1.5355907 -1.5365721e-19)
(53.245311 1.488103 4.6404939e-21)
(53.237217 1.4435008 -2.9584641e-19)
(53.229404 1.4008599 2.23286e-21)
(53.221997 1.3600081 -1.4019627e-19)
(53.215119 1.3204052 -1.3753892e-19)
(53.208759 1.2813618 -2.6984838e-19)
(53.202658 1.242314 0)
(53.196835 1.2023415 0)
(53.191272 1.1607044 2.536507e-19)
(53.186131 1.1164038 2.5069586e-19)
(53.181092 1.0690044 2.4583286e-19)
(53.176101 1.0172665 2.3822823e-19)
(53.17119 0.96080204 -2.3450852e-19)
(53.166119 0.89831032 9.0164329e-22)
(53.160991 0.82981737 -4.4225603e-22)
(53.156114 0.75450839 -4.4399e-19)
(53.151833 0.67310264 -4.2528971e-22)
(53.147976 0.58492712 -2.1355862e-19)
(53.144464 0.49066968 4.1875804e-19)
(53.139351 0.3943464 2.0570259e-19)
(53.134469 0.27806646 4.0321989e-19)
(53.127997 0.20702468 1.9785335e-19)
(53.146488 0.029462617 1.1564095e-19)
(50.976359 17.421751 3.6526345e-21)
(51.353348 17.035268 3.5575722e-21)
(51.713285 16.657467 3.4668533e-21)
(52.056995 16.288424 -6.7612832e-21)
(52.385114 15.928214 9.8886527e-21)
(52.69816 15.57696 3.2167981e-21)
(52.996616 15.234836 3.1394765e-21)
(53.280974 14.902032 0)
(53.55178 14.578737 0)
(53.809656 14.265086 8.7956593e-21)
(54.055264 13.961114 -8.6074192e-21)
(54.289255 13.666752 0)
(54.512228 13.381838 2.7558529e-21)
(54.724713 13.106133 8.1103382e-21)
(54.927157 12.839339 0)
(55.119927 12.581111 -2.6110992e-21)
(55.303305 12.331068 -2.723226e-25)
(55.477497 12.088798 7.5995817e-21)
(55.642631 11.853861 7.5005508e-21)
(55.798764 11.625793 -2.4708468e-21)
(55.945882 11.404109 1.2855392e-24)
(56.0839 11.188297 -1.1979643e-24)
(56.21267 10.977825 9.641347e-21)
(56.331971 10.772131 0)
(56.441518 10.570624 -2.3951816e-21)
(56.540953 10.372678 1.197988e-20)
(56.62984 10.177624 2.4025559e-21)
(56.707656 9.9847403 3.1325891e-25)
(56.773767 9.7931829 -2.440007e-21)
(56.827349 9.6024897 1.2357956e-20)
(56.86751 9.4106731 2.9109539e-25)
(56.893127 9.2190531 -2.5619177e-21)
(56.904051 9.023775 -1.0536785e-20)
(56.898379 8.8249964 1.0886261e-20)
(56.874262 8.620966 1.1314802e-20)
(56.829702 8.4095933 2.3701627e-20)
(56.762189 8.1888184 0)
(56.66857 7.9559722 -1.3380489e-20)
(56.54484 7.7078102 0)
(56.385902 7.440339 -6.3612529e-20)
(56.185347 7.1486945 -3.5566202e-20)
(55.935492 6.8272418 -5.0736124e-21)
(55.628839 6.4703216 5.9129996e-21)
(55.267457 6.0756312 -5.590218e-20)
(54.893134 5.6699142 7.3114169e-20)
(54.602456 5.3402337 -1.7737523e-20)
(54.442826 5.1231949 -6.3595902e-20)
(54.356462 4.958968 -7.233824e-20)
(54.292094 4.8100061 0)
(54.233394 4.6680667 -6.1541579e-20)
(54.177036 4.5313333 -7.7889729e-20)
(54.122635 4.3991708 0)
(54.070109 4.2712798 -7.540325e-20)
(54.019349 4.1473618 1.6480616e-20)
(53.970397 4.0271149 -8.1027487e-21)
(53.92331 3.9102966 0)
(53.878066 3.7967498 -1.2528515e-19)
(53.834579 3.6862829 -7.6954291e-21)
(53.792888 3.5786734 7.5611417e-21)
(53.753077 3.473679 -1.1885526e-19)
(53.715112 3.3712191 1.2040119e-19)
(53.678977 3.2710857 3.9370346e-25)
(53.644661 3.1731973 -7.0387076e-21)
(53.61215 3.0774201 1.1404834e-19)
(53.581418 2.9836697 -1.0859342e-19)
(53.552401 2.8918962 0)
(53.525082 2.8020131 1.0468182e-19)
(53.49937 2.7140387 9.955802e-20)
(53.47519 2.6279343 3.1526607e-21)
(53.452551 2.5436667 -9.9031873e-20)
(53.431352 2.4612926 9.416851e-20)
(53.411493 2.3808371 1.0137254e-19)
(53.392992 2.3022966 -9.6567107e-20)
(53.375784 2.2257532 -2.8719108e-21)
(53.359753 2.1513088 2.8183914e-21)
(53.344816 2.0789724 -2.765797e-21)
(53.330899 2.0088642 1.7641322e-19)
(53.317937 1.9410416 -1.7044533e-19)
(53.305839 1.875596 2.6132203e-21)
(53.294544 1.8125976 -1.692338e-19)
(53.283942 1.7522878 1.6101911e-19)
(53.274451 1.6940579 2.4686297e-21)
(53.263834 1.6401804 3.1003708e-19)
(53.255207 1.586562 0)
(53.247606 1.5374632 2.9847328e-19)
(53.239314 1.4899568 1.4642461e-19)
(53.231534 1.4453092 1.4141732e-19)
(53.22402 1.40265 1.6840589e-25)
(53.216888 1.3617797 4.3212026e-21)
(53.210264 1.3221578 -2.1197278e-21)
(53.204147 1.2830891 5.3230969e-19)
(53.198273 1.2440189 -2.610782e-19)
(53.19265 1.2040351 -2.5507868e-19)
(53.187267 1.1623861 -1.5412739e-25)
(53.182307 1.1180748 -1.9276648e-21)
(53.177446 1.0706523 -2.4057552e-19)
(53.172625 1.0189135 -3.2631393e-24)
(53.167873 0.96241223 -2.3220373e-19)
(53.162954 0.89986796 -2.2679562e-19)
(53.157984 0.83132178 -8.7223599e-22)
(53.153265 0.75594588 2.1895885e-19)
(53.149145 0.67446739 -4.1938625e-22)
(53.145453 0.58617216 2.1104548e-19)
(53.142119 0.49181959 -2.2611084e-24)
(53.137166 0.39533699 -2.0268065e-19)
(53.132873 0.2787621 -1.9883695e-19)
(53.125568 0.20920368 -3.9016222e-19)
(53.144418 0.028103505 -2.4477106e-19)
(50.618031 17.419224 3.5704339e-21)
(51.008975 17.051226 0)
(51.382645 16.690066 0)
(51.739828 16.336 1.659149e-20)
(52.081173 15.98925 -9.7223142e-21)
(52.40723 15.650043 -1.2668186e-20)
(52.718501 15.318624 3.0962613e-21)
(53.015484 14.995238 -6.0575109e-21)
(53.298703 14.680116 -2.9651775e-21)
(53.568722 14.37344 -5.8059885e-21)
(53.826133 14.075309 2.8455744e-21)
(54.071519 13.785735 -5.5818884e-21)
(54.305428 13.50464 -5.4788959e-21)
(54.528351 13.231869 -1.9136309e-25)
(54.740713 12.967204 7.941921e-21)
(54.942867 12.710372 0)
(55.135091 12.461056 -2.5687785e-21)
(55.31759 12.2189 -2.5346073e-21)
(55.490498 11.983515 -5.0095561e-21)
(55.653876 11.754479 0)
(55.807718 11.531343 -9.8289528e-21)
(55.951947 11.313629 7.3198503e-21)
(56.086421 11.100827 -2.9845837e-25)
(56.210927 10.892397 2.4202686e-21)
(56.325182 10.687765 2.4187358e-21)
(56.428829 10.486315 -9.6902218e-21)
(56.521432 10.287383 7.3002384e-21)
(56.602459 10.090252 0)
(56.671273 9.894087 0)
(56.727075 9.6984231 -1.0054873e-20)
(56.768977 9.5011606 7.6690557e-21)
(56.795756 9.3037474 1.3068425e-20)
(56.80719 9.1021849 1.3459984e-20)
(56.801321 8.8966079 -2.5080046e-20)
(56.776271 8.6852282 -8.7065576e-21)
(56.729925 8.4658429 -1.5233338e-20)
(56.659644 8.2362951 0)
(56.562098 7.9937843 0)
(56.433071 7.7349071 0)
(56.26722 7.4554925 3.3093614e-20)
(56.057921 7.1505238 6.9631699e-20)
(55.797527 6.8143945 5.3147046e-21)
(55.479976 6.4419678 -4.9631173e-20)
(55.114529 6.0349512 0)
(54.758633 5.6365638 -6.669684e-20)
(54.508682 5.3359468 7.1250405e-20)
(54.37874 5.1365559 -9.020407e-21)
(54.303867 4.9760885 -5.3677903e-20)
(54.244348 4.8273805 6.1757686e-20)
(54.188865 4.6849588 0)
(54.135244 4.5475344 6.840177e-20)
(54.083358 4.4146096 0)
(54.03318 4.2859345 0)
(53.984601 4.161243 0)
(53.937678 4.0402303 8.0016051e-21)
(53.892495 3.9226588 -7.865514e-21)
(53.849045 3.8083736 2.4738592e-19)
(53.807233 3.6971965 1.2155126e-19)
(53.767093 3.5889071 0)
(53.728736 3.4832496 -1.2465318e-19)
(53.692133 3.3801584 -1.0803511e-19)
(53.657273 3.27942 -7.0734663e-21)
(53.624154 3.180959 1.1809294e-19)
(53.592764 3.0846431 -1.0572967e-19)
(53.563087 2.9903794 -3.3487987e-21)
(53.53506 2.8981262 1.0521417e-19)
(53.508673 2.8077862 -2.0658842e-19)
(53.483843 2.7193852 3.1688866e-21)
(53.460484 2.6328885 9.6430823e-20)
(53.438618 2.5482501 9.7708485e-20)
(53.41815 2.4655277 -1.9180903e-19)
(53.398971 2.3847549 0)
(53.381106 2.3059197 -9.2380948e-20)
(53.364501 2.2291011 0)
(53.349033 2.1544103 0)
(53.334621 2.0818494 -1.7461521e-19)
(53.321199 2.0115397 -1.7134578e-19)
(53.308699 1.9435396 2.62704e-21)
(53.297037 1.877938 -2.5776939e-21)
(53.28615 1.8148114 -1.6186924e-19)
(53.275942 1.7543658 -1.5882372e-19)
(53.266823 1.696107 0)
(53.256653 1.6418397 -3.0579452e-19)
(53.24825 1.5885382 0)
(53.241051 1.5393185 -1.4948874e-19)
(53.233108 1.4917989 4.5128379e-21)
(53.225645 1.4471081 -2.2138758e-21)
(53.218432 1.4044313 -2.1718529e-21)
(53.211578 1.3635424 2.1308892e-21)
(53.20521 1.3238999 -1.3378198e-19)
(53.199339 1.2848049 -3.4293207e-24)
(53.193696 1.2457104 2.5747207e-19)
(53.188277 1.2057151 2.5254104e-19)
(53.183076 1.1640534 0)
(53.178298 1.1197349 9.4535309e-22)
(53.173619 1.0722937 2.3725363e-19)
(53.168971 1.0205579 9.0902145e-22)
(53.16438 0.96401438 2.281058e-19)
(53.159614 0.90142395 4.4908687e-19)