/*--------------------------------*- C++ -*----------------------------------*\
| =========                 |                                                 |
| \\      /  F ield         | OpenFOAM: The Open Source CFD Toolbox           |
|  \\    /   O peration     | Version:  2406                                  |
|   \\  /    A nd           | Website:  www.openfoam.com                      |
|    \\/     M anipulation  |                                                 |
\*---------------------------------------------------------------------------*/
FoamFile
{
    version     2.0;
    format      ascii;
    arch        "LSB;label=32;scalar=64";
    class       volScalarField;
    location    "0.003";
    object      alphat;
}
// * * * * * * * * * * * * * * * * * * * * * * * * * * * * * * * * * * * * * //

dimensions      [1 -1 -1 0 0 0 0];

internalField   nonuniform List<scalar> 
23203
(
0.04369239
0.047394538
0.051237891
0.055155889
0.059127392
0.063138347
0.067176408
0.071231296
0.07529455
0.079359052
0.083418338
0.08746696
0.091499763
0.095511555
0.099496985
0.10344959
0.10736214
0.11122701
0.11503553
0.048834255
0.052418725
0.056099092
0.059857746
0.063681567
0.067555096
0.071463983
0.075396154
0.079342166
0.083294057
0.087244773
0.091187995
0.095117767
0.099028259
0.102913
0.10676516
0.11057744
0.11434199
0.11805094
0.054264509
0.057716056
0.061244162
0.064845355
0.068513574
0.072236018
0.075999342
0.079792005
0.08360413
0.087427052
0.091253044
0.095075032
0.098886299
0.10268014
0.1064496
0.1101874
0.1138859
0.11753696
0.12113187
0.059929296
0.063239766
0.066619121
0.070066516
0.073578972
0.077146442
0.080757457
0.084401522
0.088069129
0.091751557
0.095440747
0.099129143
0.10280946
0.1064744
0.11011645
0.11372778
0.11730021
0.12082512
0.12429336
0.06578732
0.06895372
0.072185111
0.075480848
0.078838747
0.082250622
0.085706708
0.089197655
0.092714612
0.096249126
0.099793109
0.10333875
0.10687838
0.11040424
0.11390836
0.11738243
0.12081776
0.12420523
0.12753522
0.071799394
0.074821218
0.077905156
0.081050647
0.084255186
0.087511716
0.090811797
0.09414709
0.097509423
0.10089074
0.10428309
0.10767859
0.11106935
0.11444732
0.11780416
0.12113119
0.1244193
0.12765891
0.13084002
0.077934534
0.080812313
0.083749617
0.086745746
0.089797651
0.092899034
0.096042438
0.099220323
0.10242511
0.10564915
0.10888469
0.11212392
0.11535883
0.1185812
0.12178245
0.12495361
0.12808522
0.13116737
0.13418974
0.084166163
0.086900694
0.089692332
0.09253937
0.09543873
0.098384771
0.10137073
0.10438966
0.10743445
0.1104978
0.1135722
0.11664989
0.11972289
0.12278284
0.12582104
0.12882829
0.1317949
0.13471069
0.13756516
0.090468847
0.093060713
0.095706951
0.098404783
0.10115133
0.10394151
0.10676907
0.10962747
0.11250998
0.11540957
0.11831893
0.12123041
0.12413603
0.12702742
0.12989576
0.13273173
0.13552547
0.13826664
0.14094464
0.096815817
0.099265198
0.10176586
0.10431423
0.10690755
0.10954114
0.11220916
0.11490539
0.11762336
0.12035627
0.12309697
0.12583791
0.12857114
0.13128828
0.13398046
0.13663828
0.13925181
0.14181062
0.14430408
0.10317823
0.10548511
0.10783994
0.11023851
0.11267803
0.11515416
0.11766137
0.12019369
0.12274486
0.12530824
0.1278768
0.13044309
0.13299919
0.13553673
0.13804683
0.14052007
0.14294649
0.14531563
0.1476169
0.10952519
0.11168957
0.11389822
0.11614648
0.1184315
0.12074916
0.12309417
0.12546076
0.12784283
0.13023385
0.13262689
0.13501455
0.13738898
0.13974182
0.14206423
0.14434677
0.14657951
0.14875205
0.15085386
0.11582348
0.1178453
0.11990731
0.12200465
0.12413431
0.12629236
0.12847369
0.13067267
0.13288328
0.1350991
0.13731326
0.13951842
0.14170677
0.14387001
0.14599932
0.14808532
0.15011814
0.15208745
0.15398287
0.12203689
0.12391612
0.12583099
0.12777669
0.12975005
0.13174728
0.13376335
0.13579274
0.13782949
0.13986723
0.14189916
0.14391799
0.14591597
0.14788484
0.14981585
0.1516997
0.1535266
0.15528638
0.1569688
0.12812605
0.12986277
0.13162997
0.13342323
0.13523927
0.13707432
0.13892346
0.14078117
0.14264156
0.14449832
0.14634466
0.14817336
0.14997675
0.15174662
0.15347431
0.15515062
0.1567659
0.15831011
0.15977324
0.13404874
0.13564311
0.13726186
0.13890165
0.1405591
0.14223045
0.14391078
0.14559461
0.14727605
0.14894883
0.15060622
0.15224105
0.15384571
0.15541209
0.15693163
0.15839526
0.15979347
0.16111642
0.16235434
0.139759
0.14121107
0.14268024
0.14416517
0.14566253
0.14716845
0.14867796
0.15018556
0.15168539
0.15317118
0.15463627
0.15607356
0.15747549
0.15883409
0.16014088
0.16138696
0.16256298
0.16365934
0.16466653
0.14520436
0.14651378
0.14783247
0.1491614
0.15049724
0.15183601
0.15317268
0.15450173
0.15581731
0.1571132
0.15838277
0.15961899
0.16081442
0.16196117
0.16305093
0.16407494
0.16502407
0.16588894
0.16666037
0.15032539
0.1514923
0.15265989
0.15383192
0.15500507
0.15617519
0.15733718
0.15848554
0.15961444
0.1607177
0.16178876
0.1628207
0.16380615
0.16473738
0.16560622
0.16640411
0.16712212
0.16775116
0.16828237
0.15505658
0.15608151
0.15709755
0.15811212
0.15912179
0.16012212
0.16110796
0.16207382
0.16301393
0.1639222
0.16479217
0.16561699
0.16638945
0.16710196
0.16774654
0.16831481
0.16879812
0.16918763
0.16947486
0.15932573
0.16021211
0.16107634
0.1619324
0.16277767
0.16360726
0.16441577
0.16519771
0.16594739
0.16665878
0.16732554
0.16794098
0.16849803
0.16898927
0.1694069
0.16974279
0.16998853
0.17013561
0.17017596
0.16305634
0.16380165
0.16451821
0.16521707
0.16589717
0.16655518
0.16718556
0.16778265
0.16834076
0.16885398
0.1693161
0.16972057
0.17006052
0.1703287
0.17051753
0.17061913
0.17062536
0.17052807
0.17031962
0.16616781
0.16677108
0.16733803
0.1678829
0.16839914
0.16888497
0.16933665
0.16974843
0.17011447
0.17042892
0.17068571
0.17087847
0.17100051
0.17104479
0.17100395
0.17087038
0.17063624
0.17029375
0.16983574
0.16856966
0.16903379
0.16944957
0.16983857
0.17019434
0.17050986
0.1707828
0.17100932
0.17118351
0.17129945
0.17135116
0.17133246
0.17123685
0.17105749
0.17078728
0.17041886
0.16994475
0.16935754
0.16865058
0.17016517
0.17049229
0.17076024
0.17099276
0.17118695
0.17133571
0.17143229
0.17147437
0.1714578
0.17137649
0.17122451
0.17099578
0.17068401
0.17028258
0.16978464
0.16918311
0.16847085
0.1676409
0.16668716
0.17085259
0.17104502
0.17116779
0.17124773
0.17128038
0.17126262
0.17118696
0.17104767
0.17084272
0.17056669
0.1702137
0.16977778
0.1692528
0.16863237
0.16790989
0.1670786
0.16613171
0.16506272
0.16386616
0.17052491
0.17058591
0.17056641
0.17049713
0.17037299
0.17018982
0.16994445
0.16963029
0.16924031
0.16877337
0.16822357
0.16758488
0.16685131
0.16601669
0.16507468
0.16401881
0.1628427
0.16154034
0.16010696
0.16907099
0.16900491
0.16884706
0.16863251
0.16835636
0.16801448
0.16760264
0.1671141
0.16654665
0.16589623
0.16515644
0.16432168
0.16338631
0.16234443
0.16118998
0.15991684
0.15851907
0.15699124
0.15532933
0.16637821
0.16619067
0.16589947
0.16554469
0.16512165
0.16462629
0.1640546
0.1634039
0.16266789
0.16184038
0.1609178
0.159895
0.15876635
0.1575261
0.15616845
0.15468763
0.15307816
0.15133521
0.14945568
0.1623346
0.16203339
0.16161592
0.16112824
0.1605666
0.15992759
0.15920707
0.15839866
0.15749925
0.15650629
0.15541285
0.15421348
0.15290299
0.151476
0.14992708
0.14825086
0.14644239
0.14449756
0.14241427
0.1568346
0.1564288
0.15589471
0.15528317
0.15459225
0.15381868
0.15295805
0.15200559
0.1509594
0.14981229
0.14855944
0.14719606
0.14571712
0.14411743
0.14239185
0.14053543
0.13854376
0.13641352
0.13414376
0.14978014
0.14927975
0.14864111
0.14791878
0.1471123
0.14621824
0.1452306
0.1441494
0.14296964
0.14168257
0.14028528
0.13877355
0.13714254
0.13538729
0.133503
0.13148516
0.12932989
0.12703466
0.12459978
0.141081
0.1404997
0.13977193
0.13895524
0.13804949
0.13705073
0.13595528
0.13476219
0.13346367
0.13205566
0.130534
0.12889436
0.12713223
0.12524314
0.12322277
0.12106714
0.11877293
0.11633831
0.1137647
0.13067181
0.13002674
0.12922959
0.12833875
0.12735282
0.1262691
0.12508924
0.12380621
0.12241247
0.12090608
0.11928347
0.11754048
0.11567297
0.11367698
0.11154883
0.10928522
0.10688347
0.10434213
0.10166281
0.11852728
0.11783997
0.11699722
0.11605541
0.11501454
0.11387755
0.11263831
0.11128874
0.10982789
0.10825258
0.10655902
0.10474353
0.10280266
0.1007333
0.098532828
0.096199157
0.093730754
0.091126339
0.088384676
0.1046877
0.1039826
0.10311945
0.10215582
0.10109628
0.099935377
0.098665682
0.097286525
0.095794934
0.094187306
0.092460289
0.090610942
0.088636815
0.086536111
0.084307924
0.081952531
0.079471564
0.076866956
0.074131996
0.089287907
0.088590778
0.087744439
0.086803039
0.085760607
0.084611653
0.08335604
0.081990669
0.08051198
0.078916841
0.077202698
0.075367654
0.07341062
0.071331542
0.069131791
0.066815035
0.064389508
0.061874265
0.072639819
0.071998414
0.071217726
0.070336502
0.069351496
0.068263353
0.06706902
0.065765378
0.064349868
0.062820475
0.061175883
0.059415698
0.057540629
0.055552641
0.053455121
0.051253278
0.048955269
0.046575059
0.055345033
0.054794218
0.054114288
0.05333526
0.052457286
0.051478098
0.050395719
0.049209424
0.047918495
0.046522496
0.045021911
0.043418465
0.041715277
0.039916985
0.038029813
0.036061714
0.034022274
0.031923284
0.038270528
0.037841564
0.037307095
0.036681302
0.035963658
0.035154807
0.034252747
0.033260458
0.032179792
0.031012671
0.029762464
0.028433985
0.027033361
0.025568121
0.024047635
0.02248451
0.020889798
0.019276569
0.022976481
0.022685726
0.022307872
0.021855973
0.021337512
0.020757725
0.020116264
0.019411271
0.018649004
0.017835018
0.016976634
0.016082516
0.015162086
0.014224733
0.013279728
0.012338522
0.011406347
0.01049698
0.011982996
0.011865369
0.01168858
0.011454401
0.011179375
0.010856029
0.010501792
0.010122373
0.0097240812
0.009316835
0.0089097645
0.0085102233
0.0081249796
0.0077599694
0.0074204817
0.0071070865
0.0068122866
0.0065378299
0.006590619
0.0065950618
0.0065798167
0.0065410029
0.0064911973
0.0064168734
0.0063206855
0.0062220093
0.0061222111
0.0060274839
0.0059432276
0.0058714153
0.0058125203
0.0057634494
0.0057293592
0.0056962781
0.0056759859
0.0056612594
0.0053365355
0.0053443671
0.005359888
0.005375558
0.005388389
0.0053984371
0.0053910071
0.0053906463
0.0054016927
0.005422848
0.0054528048
0.0054902839
0.0055336889
0.0055666536
0.0056017547
0.0056302357
0.005660526
0.0056838515
0.0054265734
0.0054308617
0.005441255
0.0054529915
0.005466228
0.0054826531
0.0055012497
0.0055236618
0.0055490267
0.005576272
0.0056052199
0.0056360289
0.0056680315
0.00569901
0.0057282737
0.00576231
0.0057902222
0.0058153013
0.0055269564
0.005538709
0.0055549579
0.0055722036
0.0055901324
0.0056089492
0.0056287465
0.0056493117
0.0056705439
0.0056922067
0.0057138321
0.0057347913
0.0057544642
0.0057727976
0.0057911524
0.0058107194
0.0058268661
0.0058481243
0.0055036595
0.0055174059
0.0055335758
0.005549943
0.0055667448
0.0055840959
0.0056018456
0.0056197692
0.0056376485
0.0056552804
0.005672451
0.0056889155
0.0057044769
0.0057192504
0.0057338707
0.0057488692
0.0057637772
0.0057774176
0.0054073037
0.0054234256
0.0054410744
0.0054582801
0.0054752383
0.0054920499
0.0055086883
0.0055251387
0.0055414015
0.0055574381
0.0055731537
0.0055884234
0.005603152
0.0056173483
0.0056311609
0.0056447525
0.0056578493
0.005669522
0.0052834868
0.005299649
0.0053169324
0.0053335992
0.0053499619
0.0053662021
0.0053823215
0.0053982927
0.0054140927
0.0054296839
0.0054450094
0.0054600043
0.0054746119
0.0054887874
0.0055024647
0.0055154904
0.0055276028
0.0055384696
0.0051606843
0.0051766385
0.0051935111
0.005209682
0.0052254955
0.0052411679
0.0052567385
0.0052722211
0.0052876354
0.0053029844
0.0053182455
0.0053333761
0.0053483222
0.0053630259
0.0053774293
0.0053914745
0.0054050761
0.0054179832
0.0050446726
0.0050599989
0.0050762147
0.0050917801
0.0051070499
0.0051222545
0.0051374426
0.0051526307
0.0051678372
0.0051830642
0.0051982896
0.0052134715
0.0052285548
0.0052434768
0.0052581733
0.0052725909
0.0052867082
0.005300521
0.004938447
0.0049532125
0.0049688308
0.0049838291
0.0049985691
0.0050132937
0.0050280628
0.0050429024
0.0050578383
0.005072878
0.0050880025
0.0051031697
0.0051183205
0.0051333843
0.005148285
0.0051629466
0.0051772939
0.0051912331
0.0048407695
0.0048549426
0.0048699737
0.0048844388
0.0048986981
0.0049130006
0.004927411
0.0049419561
0.0049566599
0.0049715264
0.004986533
0.0050016335
0.0050167639
0.0050318482
0.0050468028
0.0050615415
0.0050759742
0.0050899932
0.0047515064
0.0047651508
0.0047796467
0.0047936112
0.0048074054
0.0048212868
0.0048353262
0.0048495529
0.0048639909
0.0048786441
0.0048934887
0.004908478
0.0049235479
0.0049386233
0.0049536241
0.00496847
0.0049830828
0.0049973782
0.0046696891
0.0046828224
0.0046968137
0.0047103107
0.0047236732
0.0047371661
0.0047508642
0.0047647966
0.0047789854
0.0047934309
0.0048081064
0.0048229616
0.0048379299
0.0048529335
0.0048678893
0.0048827133
0.0048973222
0.0049116242
0.0045949144
0.0046075794
0.004621104
0.0046341605
0.0046471086
0.0046602221
0.00467358
0.0046872119
0.0047011378
0.0047153563
0.0047298384
0.0047445326
0.0047593714
0.004774277
0.0047891672
0.0048039598
0.0048185735
0.0048329189
0.0045265453
0.0045387699
0.0045518591
0.0045645039
0.0045770644
0.0045898225
0.0046028612
0.0046162089
0.0046298832
0.0046438796
0.0046581665
0.0046726902
0.0046873816
0.0047021626
0.0047169511
0.0047316654
0.0047462254
0.0047605428
0.004464166
0.0044759843
0.004488669
0.0045009263
0.0045131179
0.0045255344
0.0045382621
0.0045513284
0.0045647485
0.0045785151
0.0045925944
0.0046069309
0.0046214548
0.0046360875
0.0046507474
0.0046653536
0.0046798269
0.0046940793
0.0044073051
0.0044187458
0.0044310542
0.004442949
0.0044547942
0.0044668888
0.0044793217
0.0044921189
0.0045052924
0.0045188322
0.0045327017
0.0045468435
0.0045611866
0.0045756517
0.0045901573
0.0046046224
0.0046189673
0.0046331028
0.0043555741
0.0043666654
0.0043786228
0.0043901765
0.0044016935
0.0044134808
0.00442563
0.0044381649
0.0044510947
0.0044644065
0.0044780615
0.0044920007
0.0045061519
0.0045204361
0.0045347716
0.0045490779
0.0045632754
0.004577274
0.0043085815
0.0043193485
0.0043309779
0.004342211
0.0043534183
0.0043649146
0.0043767928
0.004389075
0.004401767
0.0044148531
0.0044282923
0.004442024
0.0044559755
0.0044700676
0.0044842194
0.004498351
0.0045123835
0.0045262264
0.0042659662
0.004276431
0.0042877523
0.0042986821
0.0043095951
0.0043208131
0.0043324304
0.0043444666
0.0043569244
0.0043697853
0.0043830064
0.0043965257
0.0044102701
0.0044241607
0.0044381174
0.0044520616
0.0044659153
0.0044795886
0.0042273782
0.0042375602
0.0042485905
0.0042592322
0.0042698648
0.0042808164
0.004292182
0.0043039785
0.0043162054
0.0043288416
0.0043418422
0.0043551442
0.0043686742
0.0043823537
0.0043961038
0.0044098473
0.0044235073
0.004436995
0.0041924832
0.0042023991
0.0042131519
0.0042235179
0.0042338813
0.0042445757
0.0042556964
0.0042672573
0.0042792549
0.0042916655
0.0043044425
0.0043175219
0.0043308301
0.0043442893
0.0043578217
0.0043713517
0.0043848038
0.0043980905
0.0041609654
0.0041706291
0.0041811155
0.0041912159
0.0042013193
0.0042117641
0.004222645
0.0042339731
0.0042457418
0.004257925
0.0042704744
0.0042833253
0.0042964039
0.0043096333
0.004322937
0.0043362411
0.0043494717
0.0043625429
0.0041325277
0.0041419506
0.0041521791
0.0041620216
0.0041718723
0.0041820732
0.004192718
0.0042038148
0.004215354
0.0042273072
0.0042396246
0.004252241
0.0042650826
0.0042780734
0.0042911384
0.0043042051
0.0043172018
0.0043300445
0.0041069004
0.0041160918
0.0041260688
0.0041356598
0.0041452638
0.0041552253
0.0041656365
0.0041765026
0.004187811
0.0041995312
0.0042116123
0.0042239883
0.004236586
0.0042493301
0.004262147
0.0042749662
0.004287718
0.0043003208
0.0040838433
0.0040928108
0.0041025414
0.004111886
0.0041212483
0.0041309741
0.0041411539
0.0041517895
0.004162866
0.0041743507
0.0041861917
0.0041983227
0.0042106707
0.0042231616
0.0042357232
0.0042482868
0.004260785
0.0042731393
0.0040631532
0.0040719032
0.0040813916
0.0040904946
0.00409962
0.0041091137
0.004119064
0.0041294699
0.0041403137
0.0041515611
0.0041631592
0.0041750416
0.0041871359
0.0041993689
0.0042116696
0.0042239714
0.0042362094
0.0042483091
0.0040446657
0.0040532036
0.0040624539
0.0040713201
0.0040802135
0.0040894792
0.0040992027
0.0041093802
0.0041199916
0.0041310013
0.0041423554
0.0041539876
0.0041658262
0.0041777987
0.0041898356
0.0042018717
0.0042138451
0.0042256864
0.0040282563
0.0040365869
0.0040456033
0.0040542382
0.0040629053
0.0040719477
0.0040814481
0.0040913997
0.0041017806
0.0041125535
0.0041236642
0.0041350465
0.0041466292
0.0041583408
0.0041701127
0.0041818809
0.0041935863
0.0042051672
0.0040138358
0.004021964
0.0040307511
0.0040391609
0.0040476083
0.0040564333
0.0040657154
0.0040754452
0.0040855987
0.0040961377
0.0041070075
0.0041181421
0.0041294708
0.0041409231
0.0041524306
0.0041639297
0.0041753642
0.0041866827
0.0040013427
0.0040092733
0.0040178364
0.0040260283
0.0040342638
0.0040428783
0.0040519481
0.0040614613
0.0040713922
0.0040817016
0.0040923343
0.0041032247
0.0041143029
0.0041254986
0.0041367436
0.0041479731
0.0041591324
0.0041701842
0.0039907311
0.0039984688
0.004006814
0.0040147962
0.0040228282
0.0040312401
0.0040401044
0.0040494073
0.0040591212
0.004069206
0.0040796064
0.004090257
0.0041010885
0.0041120312
0.0041230159
0.0041339755
0.0041448524
0.0041556231
0.0039819577
0.0039895073
0.0039976408
0.0040054218
0.004013259
0.0040214762
0.0040301423
0.0040392411
0.0040487437
0.0040586091
0.0040687818
0.0040791967
0.0040897851
0.0041004776
0.0041112042
0.0041218937
0.0041324765
0.0041429259
0.0039749698
0.0039823352
0.0039902629
0.0039978506
0.0040055013
0.0040135311
0.0040220051
0.0040309053
0.0040402013
0.0040498512
0.0040597994
0.0040699811
0.0040803282
0.0040907717
0.0041012412
0.0041116612
0.0041219415
0.0039696968
0.0039768805
0.0039846069
0.0039920078
0.0039994784
0.004007326
0.0040156122
0.0040243169
0.0040334086
0.0040428446
0.0040525689
0.0040625173
0.0040726222
0.0040828151
0.0040930261
0.0041031798
0.0041131875
0.0039660479
0.0039730502
0.0039805774
0.0039877954
0.0039950894
0.0040027572
0.0040108564
0.0040193657
0.0040282521
0.0040374722
0.0040469701
0.0040566817
0.0040665401
0.0040764776
0.0040864245
0.0040963058
0.0041060331
0.0039639159
0.0039707344
0.0039780618
0.0039850977
0.0039922152
0.0039997018
0.0040076116
0.0040159216
0.0040245979
0.0040335967
0.004042862
0.0040523302
0.0040619353
0.0040716101
0.0040812857
0.0040908875
0.0041003276
0.003963187
0.0039698169
0.0039769411
0.0039837929
0.003990731
0.0039980319
0.0040057463
0.0040138501
0.0040223087
0.0040310779
0.004040102
0.0040493183
0.0040586616
0.0040680658
0.0040774628
0.0040867785
0.0040959266
0.0039637523
0.0039701873
0.0039771038
0.0039837676
0.0039905217
0.0039976308
0.0040051423
0.0040130315
0.0040212634
0.0040297939
0.0040385678
0.0040475236
0.0040565972
0.004065724
0.0040748369
0.0040838629
0.004092717
0.0039655186
0.003971753
0.0039784576
0.0039849302
0.0039914961
0.0039984077
0.0040057094
0.0040133765
0.0040213739
0.0040296578
0.0040381744
0.0040468633
0.0040556623
0.0040645082
0.0040733353
0.0040820718
0.0040906343
0.0039684143
0.0039744445
0.0039809355
0.0039872161
0.0039935918
0.0040003027
0.0040073907
0.0040148311
0.0040225893
0.0040306226
0.0040388783
0.0040472981
0.0040558216
0.0040643875
0.0040729315
0.004081383
0.0040896602
0.0039723871
0.003978213
0.0039844923
0.0039905832
0.0039967704
0.0040032811
0.004010155
0.0040173682
0.0040248868
0.0040326694
0.0040406651
0.0040488178
0.0040570692
0.0040653599
0.0040736271
0.0040818013
0.0040898022
0.0039773955
0.0039830205
0.0039890928
0.0039949991
0.0040010022
0.0040073162
0.004013979
0.0040209676
0.0040282496
0.0040357848
0.0040435245
0.0040514151
0.0040594004
0.004067423
0.0040754215
0.0040833274
0.0040910613
0.0039833955
0.0039888249
0.0039946963
0.004000424
0.0040062483
0.0040123702
0.004018826
0.0040255941
0.0040326433
0.0040399356
0.0040474245
0.0040550585
0.0040627842
0.0040705456
0.0040782827
0.0040859277
0.0040934022
0.0039903299
0.0039955697
0.0040012453
0.0040067989
0.0040124485
0.0040183819
0.0040246339
0.0040311844
0.0040380042
0.004045057
0.0040522989
0.0040596809
0.0040671515
0.0040746566
0.004082137
0.0040895257
0.004096745
0.0039981258
0.0040031807
0.0040086637
0.0040140456
0.0040195222
0.0040252686
0.0040313182
0.0040376525
0.0040442444
0.0040510596
0.0040580565
0.0040651884
0.004072406
0.0040796565
0.0040868817
0.0040940152
0.0041009799
0.0040067015
0.0040115753
0.0040168676
0.0040220784
0.0040273828
0.0040329427
0.0040387904
0.0040449093
0.004051274
0.0040578523
0.0040646049
0.0040714873
0.0040784519
0.0040854472
0.004092416
0.0040992923
0.0041060003
0.0040159801
0.0040206762
0.0040257799
0.0040308211
0.0040359546
0.0040413297
0.0040469773
0.0040528827
0.0040590221
0.0040653654
0.004071875
0.0040785085
0.0040852196
0.0040919582
0.004098668
0.0041052841
0.0041117322
0.0040258988
0.0040304208
0.0040353398
0.0040402151
0.0040451815
0.0040503762
0.0040558285
0.0040615251
0.0040674439
0.0040735563
0.0040798263
0.004086213
0.0040926716
0.0040991531
0.0041056024
0.0041119565
0.0041181436
0.0040364076
0.0040407595
0.0040454996
0.0040502148
0.0040550207
0.0040600418
0.0040653062
0.0040708016
0.0040765072
0.0040823955
0.0040884319
0.0040945768
0.0041007865
0.0041070131
0.0041132036
0.0041192978
0.0041252276
0.0040474621
0.0040516479
0.0040562152
0.0040607768
0.0040654291
0.0040702846
0.0040753693
0.0040806721
0.0040861731
0.0040918456
0.0040976562
0.0041035664
0.0041095334
0.0041155109
0.0041214481
0.0041272889
0.0041329708
0.0040590178
0.0040630418
0.0040674411
0.0040718538
0.0040763577
0.0040810534
0.004085965
0.0040910821
0.0040963855
0.0041018494
0.0041074414
0.0041131241
0.0041188556
0.004124591
0.0041302819
0.0041358778
0.0041413241
0.0040710323
0.0040748991
0.0040791329
0.0040833976
0.0040877543
0.0040922918
0.0040970322
0.0041019657
0.004107074
0.0041123322
0.0041177093
0.0041231687
0.0041286695
0.0041341676
0.0041396171
0.0041449736
0.0041501954
0.0040834698
0.0040871827
0.0040912498
0.0040953629
0.0040995682
0.0041039435
0.0041085085
0.0041132546
0.0041181642
0.0041232142
0.0041283747
0.0041336107
0.004138882
0.0041441446
0.0041493538
0.0041544719
0.0041594763
0.0040963034
0.0040998614
0.0041037572
0.0041077107
0.0041117559
0.0041159602
0.0041203415
0.0041248923
0.0041295966
0.004134433
0.0041393738
0.0041443856
0.0041494291
0.0041544597
0.0041594311
0.0041643089
0.0041690987
0.0041095162
0.0041129141
0.0041166324
0.0041204175
0.0041242934
0.0041283184
0.0041325091
0.0041368591
0.004141355
0.0041459775
0.0041507014
0.0041554952
0.0041603208
0.0041651321
0.0041698771
0.0041745131
0.0041790717
0.0041231044
0.0041263391
0.0041298773
0.0041334907
0.0041371944
0.0041410389
0.0041450399
0.0041491929
0.0041534868
0.0041579051
0.0041624251
0.0041670177
0.0041716459
0.004176262
0.0041808052
0.0041852073
0.0041370653
0.004140143
0.0041435077
0.0041469551
0.0041504932
0.0041541656
0.004157987
0.0041619553
0.0041660617
0.0041702922
0.004174627
0.0041790387
0.0041834913
0.0041879368
0.0041923133
0.0041965527
0.0041513318
0.0041542688
0.004157474
0.0041607678
0.0041641532
0.0041676672
0.004171324
0.004175123
0.0041790577
0.0041831165
0.0041872812
0.0041915256
0.0041958132
0.0042000948
0.0042043075
0.0042083821
0.0041657024
0.0041685179
0.0041715794
0.0041747334
0.0041779801
0.0041813502
0.004184857
0.0041885013
0.0041922783
0.0041961778
0.0042001825
0.0042042668
0.0042083934
0.0042125121
0.0042165597
0.0042204667
0.0041799133
0.0041826236
0.0041855563
0.0041885841
0.0041917057
0.0041949463
0.0041983175
0.0042018211
0.0042054535
0.0042092056
0.0042130612
0.0042169946
0.0042209689
0.0042249332
0.0042288228
0.0042325679
0.0041938534
0.0041964719
0.0041992897
0.0042022046
0.0042052142
0.0042083385
0.0042115874
0.0042149627
0.0042184618
0.0042220767
0.0042257919
0.0042295819
0.0042334088
0.0042372206
0.0042409514
0.0042445313
0.0042077092
0.0042102449
0.0042129554
0.0042157631
0.0042186652
0.0042216763
0.0042248044
0.0042280516
0.0042314162
0.0042348906
0.0042384598
0.004242098
0.0042457665
0.0042494121
0.0042529682
0.0042563652
0.0042217866
0.0042242402
0.0042268417
0.0042295363
0.0042323224
0.0042352109
0.0042382082
0.0042413174
0.0042445376
0.0042478626
0.0042512776
0.0042547569
0.0042582615
0.0042617374
0.0042651178
0.0042683335
0.0042362028
0.0042385725
0.0042410651
0.0042436447
0.0042463126
0.0042490771
0.0042519447
0.0042549197
0.0042580028
0.0042611891
0.0042644648
0.0042678043
0.0042711682
0.0042745018
0.0042777378
0.0042808067
0.0042509904
0.0042532865
0.0042556854
0.0042581664
0.0042607334
0.0042633934
0.0042661531
0.0042690183
0.0042719912
0.0042750678
0.0042782345
0.0042814651
0.0042847191
0.0042879407
0.004291062
0.004294013
0.0042665223
0.004268761
0.0042710829
0.0042734814
0.0042759632
0.0042785337
0.0042811996
0.0042839671
0.0042868388
0.0042898105
0.0042928679
0.0042959836
0.0042991157
0.0043022083
0.0043051947
0.0043080071
0.0042835487
0.0042857255
0.004287966
0.0042902754
0.0042926639
0.0042951359
0.0042976978
0.0043003562
0.0043031137
0.0043059656
0.0043088967
0.0043118783
0.0043148678
0.0043178107
0.0043206437
0.0043233036
0.0043028746
0.0043049725
0.0043071229
0.0043093377
0.0043116298
0.0043140039
0.0043164661
0.0043190233
0.0043216787
0.0043244265
0.0043272494
0.0043301168
0.004332985
0.0043358009
0.0043385075
0.0043410488
0.0043256353
0.0043276554
0.004329722
0.004331852
0.0043340617
0.0043363545
0.0043387354
0.0043412101
0.0043437799
0.0043464366
0.00434916
0.0043519159
0.0043546574
0.0043573321
0.0043598918
0.0043623004
0.0043531176
0.0043550319
0.0043569939
0.0043590216
0.0043611325
0.004363328
0.0043656099
0.0043679806
0.004370438
0.0043729706
0.0043755534
0.0043781469
0.0043806994
0.0043831554
0.0043854781
0.00438768
0.0043861268
0.0043878965
0.0043897304
0.0043916367
0.0043936315
0.0043957127
0.0043978784
0.004400127
0.004402452
0.0044048373
0.0044072528
0.0044096526
0.0044119755
0.0044141556
0.0044161522
0.0044180445
0.0044262651
0.00442788
0.0044295615
0.0044313091
0.0044331376
0.0044350431
0.0044370205
0.0044390643
0.0044411648
0.0044433029
0.0044454456
0.004447542
0.0044495216
0.004451296
0.0044527672
0.0044736425
0.0044750446
0.0044765092
0.0044780323
0.0044796271
0.0044812865
0.0044830027
0.0044847676
0.0044865689
0.0044883847
0.0044901791
0.0044918993
0.0044934737
0.0044948132
0.004495821
0.004527579
0.0045287067
0.004529903
0.0045311542
0.0045324702
0.0045338418
0.0045352587
0.0045367103
0.0045381814
0.0045396482
0.0045410727
0.0045424006
0.0045435597
0.0045444613
0.0045450082
0.004587002
0.0045878173
0.0045887005
0.0045896328
0.0045906228
0.0045916603
0.0045927336
0.0045938307
0.0045949343
0.0045960184
0.0045970444
0.0045979584
0.00459869
0.0045991531
0.0045992539
0.0046486965
0.0046492271
0.0046498225
0.0046504602
0.0046511465
0.0046518704
0.0046526194
0.0046533799
0.0046541341
0.0046548562
0.0046555095
0.0046560438
0.0046563946
0.0046564841
0.0046562272
0.0047083863
0.0047086873
0.0047090439
0.0047094347
0.0047098639
0.0047103205
0.0047107921
0.0047112655
0.0047117239
0.0047121437
0.0047124928
0.0047127284
0.0047127958
0.0047126299
0.0047121594
0.0047611843
0.004761324
0.0047615051
0.0047617115
0.0047619457
0.0047621982
0.0047624584
0.0047627147
0.0047629529
0.0047631543
0.0047632934
0.004763337
0.0047632436
0.004762964
0.004762444
0.004802923
0.0048029679
0.0048030391
0.0048031276
0.0048032353
0.0048033547
0.0048034775
0.0048035953
0.0048036976
0.004803771
0.0048037978
0.0048037557
0.0048036171
0.0048033492
0.0048029159
0.0048316434
0.0048316506
0.0048316708
0.0048317015
0.0048317442
0.0048317938
0.0048318449
0.0048318921
0.0048319286
0.0048319461
0.0048319343
0.0048318806
0.0048317695
0.0048315829
0.0048313002
0.0048483644
0.0048483621
0.0048483632
0.0048483699
0.0048483835
0.0048484011
0.0048484195
0.0048484357
0.0048484458
0.0048484455
0.0048484297
0.0048483924
0.004848327
0.0048482256
0.0048480795
0.0048562106
0.0048562062
0.0048561998
0.0048561959
0.0048561957
0.004856198
0.0048562015
0.0048562047
0.0048562056
0.0048562018
0.0048561914
0.0048561717
0.0048561399
0.0048560945
0.0048560336
0.0048588364
0.0048588315
0.004858826
0.0048588221
0.0048588204
0.0048588201
0.0048588208
0.0048588213
0.0048588208
0.0048588185
0.0048588139
0.0048588064
0.0048587943
0.0048587747
0.0048591489
0.0048591448
0.0048591407
0.0048591368
0.0048591336
0.004859131
0.0048591287
0.0048591266
0.0048591245
0.0048591228
0.0048591216
0.00485912
0.0048591176
0.0048591126
0.0036318559
0.0047254131
0.0060734978
0.0076624159
0.0094693679
0.011468613
0.01363665
0.015954833
0.018409683
0.02099201
0.023695811
0.026517269
0.029454012
0.032504621
0.03566834
0.038944933
0.042334678
0.045838267
0.049448305
0.0041280082
0.0053923174
0.0068988535
0.0086275239
0.010552567
0.012650044
0.014900675
0.017290384
0.019809436
0.022451298
0.025211637
0.02808757
0.031077191
0.034179296
0.037393278
0.040719175
0.044157895
0.047709768
0.0048047034
0.0062487469
0.0079127531
0.0097724001
0.011803747
0.013987963
0.016311396
0.018764599
0.021341132
0.024036572
0.026847816
0.029772643
0.032809469
0.035957263
0.039215581
0.042584717
0.046065657
0.04965118
0.0056209237
0.0072300201
0.0090321177
0.011005085
0.013129916
0.015393149
0.017785619
0.020301096
0.022935226
0.025684839
0.02854753
0.031521438
0.03460517
0.037797829
0.041099132
0.044509603
0.048029406
0.0065444061
0.0082935552
0.010211411
0.012281194
0.014489185
0.016826152
0.01928586
0.021863907
0.024556987
0.027362486
0.030278266
0.033302587
0.036434123
0.039672049
0.043016188
0.046466886
0.050017753
0.00754025
0.0094051395
0.011420703
0.013575653
0.015860372
0.018268292
0.020794733
0.023436102
0.026189461
0.029052319
0.032022547
0.035098376
0.038278464
0.04156202
0.04494898
0.048439055
0.0085753091
0.010537839
0.01263963
0.014873356
0.017231859
0.019709891
0.022303384
0.025008947
0.027823637
0.030744864
0.033770379
0.036898306
0.040127235
0.043456379
0.04688558
0.050409279
0.0096235263
0.01167319
0.013855662
0.016165752
0.018597417
0.021145858
0.023807091
0.02657763
0.029454357
0.032434495
0.035515621
0.038695717
0.041973297
0.045347651
0.048818573
0.010667739
0.012800212
0.015061852
0.017448256
0.019953683
0.022573324
0.025303045
0.028139145