/*--------------------------------*- C++ -*----------------------------------*\
| =========                 |                                                 |
| \\      /  F ield         | OpenFOAM: The Open Source CFD Toolbox           |
|  \\    /   O peration     | Version:  2406                                  |
|   \\  /    A nd           | Website:  www.openfoam.com                      |
|    \\/     M anipulation  |                                                 |
\*---------------------------------------------------------------------------*/
FoamFile
{
    version     2.0;
    format      ascii;
    arch        "LSB;label=32;scalar=64";
    class       volScalarField;
    location    "0.003";
    object      pMean;
}
// * * * * * * * * * * * * * * * * * * * * * * * * * * * * * * * * * * * * * //

dimensions      [1 -1 -2 0 0 0 0];

internalField   nonuniform List<scalar> 
23203
(
101222.63
101135.64
101091.49
101042.22
100991.65
100945.22
100904.08
100868.19
100837.26
100810.89
100788.69
100770.36
100755.61
100744.05
100735.21
100728.73
100724.41
100722.04
100721.39
101380.28
101319.98
101263.12
101201.36
101143.1
101090.82
101044.15
101002.85
100966.69
100935.35
100908.49
100885.77
100866.83
100851.16
100838.23
100827.62
100819.06
100812.51
100807.81
101457.06
101407.02
101346.2
101280.13
101219.24
101164.96
101116.34
101072.93
101034.61
101001.1
100971.99
100946.88
100925.4
100907.11
100891.54
100878.37
100867.43
100858.62
100851.78
101520.77
101473.81
101413.02
101347.39
101286.35
101231.28
101181.45
101136.49
101096.23
101060.48
101028.92
101001.24
100977.11
100956.19
100938.14
100922.67
100909.59
100898.73
100889.92
101579.54
101532.34
101472.56
101408.84
101348.82
101293.88
101243.6
101197.75
101156.21
101118.83
101085.41
101055.7
101029.44
101006.36
100986.19
100968.69
100953.64
100940.88
100930.23
101631.2
101583.11
101524.12
101462.65
101404.24
101350.07
101299.97
101253.82
101211.59
101173.19
101138.48
101107.28
101079.39
101054.59
101032.67
101013.42
100996.65
100982.2
100969.92
101675.61
101626.79
101569.14
101509.9
101453.22
101400.16
101350.67
101304.7
101262.27
101223.33
101187.79
101155.54
101126.43
101100.29
101076.96
101056.25
101038.02
101022.11
101008.39
101712.89
101664.09
101608.37
101551.35
101496.49
101444.78
101396.23
101350.82
101308.59
101269.52
101233.57
101200.68
101170.73
101143.6
101119.17
101097.3
101077.86
101060.72
101045.75
101743.45
101695.43
101641.93
101587.28
101534.41
101484.29
101436.97
101392.44
101350.74
101311.9
101275.9
101242.71
101212.26
101184.48
101159.25
101136.49
101116.09
101097.93
101081.93
101767.99
101721.19
101670.14
101618.05
101567.37
101519.07
101473.21
101429.82
101388.94
101350.62
101314.88
101281.7
101251.06
101222.9
101197.16
101173.77
101152.64
101133.68
101116.82
101787.25
101741.96
101693.53
101644.14
101595.82
101549.5
101505.3
101463.25
101423.43
101385.88
101350.65
101317.76
101287.18
101258.91
101232.9
101209.11
101187.47
101167.92
101150.39
101802
101758.44
101712.73
101666.11
101620.23
101576.01
101533.61
101493.07
101454.48
101417.9
101383.39
101350.99
101320.72
101292.56
101266.5
101242.52
101220.57
101200.62
101182.6
101812.97
101771.36
101728.38
101684.53
101641.12
101599.05
101558.52
101519.59
101482.36
101446.9
101413.29
101381.57
101351.77
101323.92
101298.01
101274.03
101251.97
101231.78
101213.44
101821.09
101781.66
101741.29
101700.04
101659
101619.06
101580.41
101543.15
101507.35
101473.12
101440.53
101409.64
101380.49
101353.1
101327.51
101303.71
101281.68
101261.43
101242.91
101827.23
101790.21
101752.14
101713.18
101674.34
101636.43
101599.64
101564.04
101529.73
101496.8
101465.33
101435.37
101406.99
101380.22
101355.08
101331.6
101309.77
101289.58
101271.04
101831.64
101797.18
101761.16
101724.24
101687.43
101651.46
101616.47
101582.54
101549.73
101518.15
101487.87
101458.94
101431.43
101405.39
101380.83
101357.8
101336.29
101316.31
101297.86
101834.26
101802.46
101768.36
101733.34
101698.46
101664.36
101631.14
101598.85
101567.57
101537.38
101508.34
101480.51
101453.97
101428.74
101404.87
101382.39
101361.32
101341.66
101323.42
101835.22
101806.05
101773.77
101740.57
101707.57
101675.3
101643.83
101613.2
101583.45
101554.67
101526.92
101500.25
101474.74
101450.41
101427.32
101405.49
101384.95
101365.7
101347.78
101834.82
101807.96
101777.37
101745.95
101714.83
101684.42
101654.71
101625.74
101597.55
101570.21
101543.78
101518.33
101493.9
101470.54
101448.3
101427.2
101407.27
101388.54
101371.01
101832.67
101808.72
101779.44
101749.64
101720.41
101691.88
101663.97
101636.67
101610.06
101584.19
101559.12
101534.91
101511.61
101489.28
101467.94
101447.64
101428.4
101410.24
101393.19
101827.69
101808.19
101781.12
101752.51
101724.79
101698
101671.84
101646.23
101621.19
101596.8
101573.11
101550.17
101528.05
101506.77
101486.39
101466.94
101448.44
101430.93
101414.42
101822.08
101803.9
101780.72
101755.06
101728.64
101703.19
101678.61
101654.62
101631.16
101608.25
101585.94
101564.3
101543.36
101523.18
101503.79
101485.23
101467.52
101450.7
101434.79
101816.99
101799.92
101777.84
101755.5
101732.11
101708
101684.64
101662.11
101640.17
101618.73
101597.82
101577.47
101557.74
101538.66
101520.29
101502.65
101485.77
101469.67
101454.39
101811.61
101796.37
101775.42
101754.03
101733.51
101712.36
101690.38
101669.03
101648.46
101628.45
101608.92
101589.87
101571.35
101553.39
101536.04
101519.34
101503.3
101487.96
101473.34
101806.15
101792.44
101773.27
101753.19
101733.65
101715.04
101695.83
101675.8
101656.35
101637.65
101619.46
101601.7
101584.37
101567.53
101551.21
101535.44
101520.26
101505.68
101491.74
101800.98
101788.52
101771.03
101752.78
101734.53
101716.89
101699.99
101682.47
101664.24
101646.62
101629.66
101613.15
101597
101581.25
101565.94
101551.1
101536.77
101522.96
101509.71
101796.34
101784.96
101769.04
101752.53
101736.01
101719.55
101703.65
101688.26
101672.19
101655.66
101639.77
101624.41
101609.4
101594.72
101580.4
101566.47
101552.97
101539.92
101527.34
101792.47
101782.07
101767.65
101752.78
101737.9
101723
101708.11
101693.78
101679.71
101664.93
101650
101635.7
101621.76
101608.1
101594.72
101581.67
101568.98
101556.66
101544.75
101789.69
101780.19
101767.21
101753.89
101740.51
101727.07
101713.54
101700.06
101687.19
101674.21
101660.63
101647.25
101634.26
101621.53
101609.05
101596.83
101584.91
101573.29
101562.01
101788.29
101779.73
101768.12
101756.23
101744.22
101732.11
101719.92
101707.62
101695.39
101683.51
101671.43
101659.02
101646.96
101635.13
101623.49
101612.05
101600.85
101589.9
101579.21
101788.55
101781.12
101770.81
101760.13
101749.28
101738.3
101727.2
101715.94
101704.59
101693.51
101682.51
101671.31
101660.07
101649.02
101638.14
101627.43
101616.89
101606.55
101596.42
101790.56
101784.41
101775.37
101765.72
101755.84
101745.82
101735.64
101725.35
101714.96
101704.44
101694.17
101683.94
101673.52
101663.24
101653.07
101643.01
101633.09
101623.3
101613.67
101794.29
101789.7
101781.85
101773.07
101763.97
101754.73
101745.29
101735.75
101726.06
101716.31
101706.66
101697.04
101687.47
101677.87
101668.32
101658.85
101649.47
101640.17
101630.98
101799.86
101797.16
101790.58
101782.38
101773.75
101764.99
101756.2
101747.3
101737.98
101728.8
101719.82
101710.83
101701.86
101692.86
101683.88
101674.93
101666.03
101657.16
101648.35
101807.11
101806.38
101800.97
101793.13
101784.73
101776.38
101767.98
101759.15
101750.65
101742.33
101733.81
101725.33
101716.75
101708.25
101699.75
101691.24
101682.74
101674.22
101665.72
101815.79
101816.88
101812.44
101804.83
101796.69
101788.62
101780.25
101772.16
101764.36
101756.27
101748.18
101740.11
101732.1
101723.98
101715.83
101707.68
101699.49
101691.24
101683
101825.69
101828.19
101824.53
101817.2
101809.17
101801
101793.34
101786.08
101778.32
101770.69
101763.03
101755.25
101747.56
101739.76
101731.92
101724.04
101716.12
101708.13
101836.26
101839.85
101836.91
101829.59
101821.45
101814.17
101807.3
101799.82
101792.53
101785.26
101777.9
101770.66
101763.13
101755.51
101747.87
101740.2
101732.49
101724.74
101847.78
101851.6
101848.62
101841.67
101834.79
101828.07
101820.8
101813.86
101806.95
101799.78
101792.75
101785.53
101778.19
101770.79
101763.36
101755.87
101748.33
101740.73
101859.22
101863.02
101860.93
101855.05
101847.96
101840.69
101834.05
101827.39
101820.47
101813.84
101807.03
101799.9
101792.68
101785.41
101778.1
101770.73
101763.3
101755.81
101873.4
101876.47
101873.15
101865.79
101858.54
101852.37
101846.15
101839.77
101833.59
101827.04
101820.11
101813.06
101805.95
101798.77
101791.53
101784.21
101776.8
101769.33
101882.67
101885.01
101882.24
101876.8
101870.71
101863.99
101857.53
101851.38
101844.85
101838.08
101831.23
101824.33
101817.33
101810.22
101802.98
101795.57
101788.03
101780.48
101891.03
101892.98
101890.74
101884.47
101877.3
101871.26
101865.59
101859.44
101853.05
101846.51
101839.83
101833.03
101826.1
101819.05
101811.89
101804.53
101796.93
101789.2
101897.05
101895.41
101892
101887.52
101882.46
101876.97
101870.95
101864.58
101858.07
101851.5
101844.86
101838.12
101831.27
101824.27
101817.11
101809.87
101802.65
101795.29
101899.59
101896.75
101892.79
101888.56
101884.04
101878.31
101872.01
101865.77
101859.51
101853.14
101846.7
101840.2
101833.56
101826.77
101819.84
101812.81
101805.65
101798.33
101898.94
101895.22
101890.25
101884.55
101879.22
101874.52
101869.83
101864.87
101859.45
101853.35
101846.74
101840.04
101833.31
101826.53
101819.66
101812.69
101805.56
101798.27
101895.4
101891.25
101886.46
101881.31
101876.01
101870.54
101864.84
101858.97
101853.12
101847.5
101841.95
101836.12
101830.03
101823.75
101817.3
101810.68
101803.91
101797.06
101889.21
101884.92
101880.26
101875.44
101870.5
101865.45
101860.26
101854.94
101849.5
101843.96
101838.28
101832.4
101826.34
101820.11
101813.72
101807.2
101800.59
101793.84
101881.77
101877.64
101873.18
101868.58
101863.87
101859.05
101854.09
101849.02
101843.82
101838.5
101833.05
101827.47
101821.75
101815.88
101809.88
101803.75
101797.49
101791.1
101874.13
101870.22
101866
101861.66
101857.21
101852.65
101847.97
101843.16
101838.23
101833.16
101827.97
101822.65
101817.19
101811.6
101805.88
101800.04
101794.08
101788
101866.42
101862.73
101858.73
101854.61
101850.4
101846.07
101841.63
101837.06
101832.37
101827.57
101822.64
101817.58
101812.41
101807.11
101801.68
101796.14
101790.48
101784.7
101858.79
101855.3
101851.5
101847.61
101843.62
101839.52
101835.31
101830.98
101826.53
101821.97
101817.28
101812.48
101807.56
101802.52
101797.36
101792.09
101786.7
101781.2
101851.21
101847.89
101844.29
101840.6
101836.82
101832.93
101828.93
101824.82
101820.6
101816.27
101811.83
101807.27
101802.59
101797.81
101792.91
101787.89
101782.77
101777.53
101843.7
101840.54
101837.13
101833.63
101830.04
101826.35
101822.56
101818.66
101814.66
101810.54
101806.32
101801.99
101797.55
101793
101788.34
101783.57
101778.69
101773.71
101836.25
101833.25
101830.01
101826.68
101823.28
101819.78
101816.18
101812.48
101808.67
101804.77
101800.76
101796.64
101792.42
101788.1
101783.67
101779.13
101774.49
101769.75
101828.87
101826.02
101822.94
101819.78
101816.55
101813.22
101809.81
101806.29
101802.68
101798.97
101795.15
101791.24
101787.23
101783.12
101778.91
101774.59
101770.18
101765.66
101821.56
101818.85
101815.92
101812.91
101809.84
101806.68
101803.44
101800.1
101796.66
101793.13
101789.51
101785.8
101781.98
101778.07
101774.07
101769.96
101765.76
101761.46
101814.31
101811.73
101808.94
101806.09
101803.17
101800.17
101797.08
101793.9
101790.64
101787.29
101783.84
101780.31
101776.68
101772.96
101769.15
101765.24
101761.25
101757.15
101807.13
101804.67
101802.02
101799.3
101796.52
101793.67
101790.73
101787.71
101784.61
101781.42
101778.14
101774.78
101771.33
101767.8
101764.17
101760.45
101756.65
101752.75
101800.01
101797.67
101795.14
101792.55
101789.91
101787.19
101784.4
101781.53
101778.57
101775.54
101772.43
101769.23
101765.95
101762.58
101759.13
101755.59
101751.97
101748.26
101792.94
101790.71
101788.3
101785.84
101783.32
101780.74
101778.08
101775.35
101772.54
101769.65
101766.69
101763.65
101760.52
101757.32
101754.03
101750.67
101747.22
101743.68
101785.93
101783.8
101781.5
101779.16
101776.77
101774.31
101771.78
101769.18
101766.5
101763.76
101760.94
101758.04
101755.07
101752.02
101748.89
101745.68
101742.4
101739.03
101778.96
101776.94
101774.75
101772.52
101770.24
101767.9
101765.49
101763.01
101760.47
101757.85
101755.17
101752.41
101749.58
101746.68
101743.7
101740.65
101737.52
101734.32
101772.05
101770.12
101768.03
101765.9
101763.73
101761.51
101759.21
101756.86
101754.43
101751.95
101749.39
101746.76
101744.07
101741.31
101738.47
101735.57
101732.59
101729.53
101765.18
101763.34
101761.35
101759.32
101757.26
101755.14
101752.95
101750.71
101748.4
101746.03
101743.6
101741.1
101738.54
101735.9
101733.2
101730.44
101727.6
101724.69
101758.35
101756.6
101754.7
101752.77
101750.8
101748.78
101746.71
101744.57
101742.37
101740.12
101737.8
101735.42
101732.98
101730.47
101727.9
101725.27
101722.56
101719.79
101751.57
101749.9
101748.09
101746.25
101744.38
101742.45
101740.47
101738.44
101736.35
101734.2
101731.99
101729.73
101727.4
101725.02
101722.57
101720.06
101717.48
101714.85
101744.82
101743.23
101741.5
101739.75
101737.97
101736.14
101734.25
101732.31
101730.32
101728.28
101726.18
101724.02
101721.81
101719.54
101717.21
101714.82
101712.36
101709.85
101738.11
101736.59
101734.95
101733.28
101731.58
101729.84
101728.04
101726.2
101724.31
101722.36
101720.36
101718.31
101716.2
101714.04
101711.82
101709.54
101707.21
101704.81
101731.44
101729.99
101728.42
101726.84
101725.22
101723.56
101721.85
101720.1
101718.29
101716.44
101714.54
101712.58
101710.58
101708.52
101706.4
101704.24
101702.01
101699.73
101724.8
101723.42
101721.93
101720.42
101718.88
101717.3
101715.67
101714
101712.28
101710.52
101708.71
101706.85
101704.94
101702.98
101700.97
101698.91
101696.79
101694.62
101718.19
101716.88
101715.46
101714.02
101712.56
101711.05
101709.51
101707.92
101706.28
101704.61
101702.88
101701.11
101699.3
101697.43
101695.52
101693.55
101691.54
101689.47
101711.62
101710.37
101709.02
101707.65
101706.26
101704.83
101703.36
101701.84
101700.29
101698.69
101697.05
101695.37
101693.64
101691.87
101690.04
101688.17
101686.26
101684.29
101705.09
101703.9
101702.61
101701.31
101699.98
101698.62
101697.22
101695.78
101694.31
101692.79
101691.23
101689.63
101687.98
101686.29
101684.56
101682.78
101680.96
101679.08
101698.58
101697.45
101696.23
101694.99
101693.73
101692.44
101691.1
101689.74
101688.33
101686.89
101685.4
101683.88
101682.32
101680.71
101679.06
101677.37
101675.63
101673.85
101692.12
101691.04
101689.87
101688.7
101687.5
101686.27
101685
101683.7
101682.37
101680.99
101679.58
101678.14
101676.65
101675.12
101673.55
101671.94
101670.29
101685.68
101684.66
101683.55
101682.43
101681.29
101680.12
101678.92
101677.69
101676.42
101675.11
101673.77
101672.39
101670.98
101669.53
101668.04
101666.51
101664.94
101679.28
101678.31
101677.26
101676.19
101675.11
101674
101672.86
101671.69
101670.48
101669.24
101667.97
101666.66
101665.32
101663.94
101662.52
101661.07
101659.57
101672.92
101672
101670.99
101669.99
101668.96
101667.9
101666.82
101665.71
101664.56
101663.38
101662.17
101660.93
101659.65
101658.34
101657
101655.62
101654.2
101666.59
101665.72
101664.77
101663.81
101662.83
101661.83
101660.8
101659.74
101658.66
101657.54
101656.39
101655.21
101654
101652.76
101651.48
101650.16
101648.82
101660.31
101659.48
101658.57
101657.66
101656.74
101655.79
101654.81
101653.81
101652.77
101651.71
101650.62
101649.5
101648.35
101647.17
101645.96
101644.71
101643.43
101654.06
101653.27
101652.42
101651.55
101650.68
101649.77
101648.85
101647.89
101646.92
101645.91
101644.87
101643.81
101642.72
101641.6
101640.45
101639.27
101638.05
101647.86
101647.11
101646.3
101645.48
101644.65
101643.79
101642.91
101642.01
101641.08
101640.13
101639.14
101638.14
101637.1
101636.04
101634.95
101633.82
101632.67
101641.7
101640.99
101640.22
101639.44
101638.65
101637.84
101637.01
101636.15
101635.27
101634.37
101633.44
101632.48
101631.5
101630.49
101629.46
101628.39
101627.3
101635.58
101634.91
101634.18
101633.44
101632.7
101631.93
101631.14
101630.33
101629.49
101628.64
101627.76
101626.85
101625.92
101624.96
101623.98
101622.97
101621.93
101629.52
101628.88
101628.19
101627.49
101626.78
101626.06
101625.31
101624.54
101623.75
101622.94
101622.1
101621.24
101620.36
101619.46
101618.52
101617.57
101616.59
101623.5
101622.9
101622.24
101621.58
101620.91
101620.23
101619.52
101618.79
101618.04
101617.27
101616.48
101615.67
101614.83
101613.97
101613.09
101612.18
101611.25
101617.54
101616.97
101616.35
101615.72
101615.09
101614.44
101613.77
101613.08
101612.37
101611.64
101610.89
101610.12
101609.33
101608.52
101607.68
101606.82
101605.94
101611.63
101611.09
101610.5
101609.91
101609.31
101608.7
101608.06
101607.41
101606.74
101606.05
101605.34
101604.61
101603.86
101603.1
101602.3
101601.49
101600.66
101605.79
101605.28
101604.72
101604.16
101603.59
101603.01
101602.41
101601.79
101601.16
101600.5
101599.83
101599.14
101598.44
101597.71
101596.96
101596.19
101595.4
101600
101599.52
101598.99
101598.46
101597.93
101597.37
101596.81
101596.22
101595.62
101595.01
101594.37
101593.72
101593.05
101592.36
101591.65
101590.92
101590.17
101594.28
101593.82
101593.32
101592.82
101592.32
101591.8
101591.26
101590.71
101590.14
101589.56
101588.96
101588.34
101587.7
101587.05
101586.38
101585.69
101584.99
101588.63
101588.2
101587.72
101587.25
101586.77
101586.28
101585.77
101585.25
101584.71
101584.16
101583.59
101583.01
101582.41
101581.79
101581.16
101580.51
101579.84
101583.05
101582.64
101582.19
101581.75
101581.29
101580.83
101580.35
101579.85
101579.35
101578.82
101578.29
101577.74
101577.17
101576.59
101575.99
101575.37
101574.74
101577.54
101577.15
101576.73
101576.31
101575.88
101575.44
101574.99
101574.52
101574.04
101573.55
101573.04
101572.52
101571.98
101571.43
101570.87
101570.28
101569.69
101572.11
101571.75
101571.35
101570.95
101570.55
101570.13
101569.7
101569.26
101568.81
101568.34
101567.86
101567.37
101566.86
101566.34
101565.81
101565.25
101564.69
101566.77
101566.42
101566.05
101565.67
101565.29
101564.89
101564.49
101564.07
101563.64
101563.2
101562.75
101562.28
101561.8
101561.31
101560.8
101560.28
101559.74
101561.51
101561.18
101560.82
101560.47
101560.11
101559.73
101559.35
101558.96
101558.55
101558.13
101557.7
101557.26
101556.8
101556.33
101555.85
101555.35
101554.85
101556.33
101556.02
101555.68
101555.34
101555
101554.65
101554.28
101553.91
101553.53
101553.14
101552.73
101552.32
101551.89
101551.45
101551
101550.54
101551.26
101550.97
101550.65
101550.33
101550.01
101549.68
101549.33
101548.98
101548.62
101548.24
101547.86
101547.46
101547.05
101546.62
101546.19
101545.74
101546.26
101545.98
101545.67
101545.37
101545.06
101544.74
101544.41
101544.07
101543.73
101543.37
101543
101542.62
101542.24
101541.85
101541.45
101541.04
101541.36
101541.1
101540.82
101540.53
101540.24
101539.95
101539.65
101539.34
101539.01
101538.68
101538.34
101537.99
101537.63
101537.26
101536.87
101536.47
101536.61
101536.36
101536.09
101535.82
101535.54
101535.26
101534.96
101534.66
101534.35
101534.03
101533.7
101533.36
101533.02
101532.66
101532.3
101531.92
101531.91
101531.67
101531.41
101531.16
101530.89
101530.62
101530.35
101530.06
101529.77
101529.47
101529.17
101528.85
101528.53
101528.2
101527.85
101527.5
101527.35
101527.13
101526.89
101526.64
101526.4
101526.14
101525.88
101525.61
101525.34
101525.05
101524.76
101524.46
101524.15
101523.82
101523.49
101523.15
101522.9
101522.68
101522.45
101522.22
101521.98
101521.74
101521.49
101521.23
101520.97
101520.69
101520.41
101520.13
101519.83
101519.53
101519.22
101518.9
101518.55
101518.34
101518.13
101517.91
101517.68
101517.45
101517.22
101516.97
101516.72
101516.46
101516.2
101515.93
101515.64
101515.36
101515.06
101514.75
101514.32
101514.13
101513.92
101513.71
101513.5
101513.28
101513.05
101512.82
101512.58
101512.33
101512.08
101511.82
101511.55
101511.27
101510.99
101510.69
101510.2
101510.01
101509.81
101509.61
101509.41
101509.2
101508.98
101508.76
101508.53
101508.3
101508.06
101507.81
101507.55
101507.29
101507.02
101506.74
101506.21
101506.03
101505.84
101505.65
101505.46
101505.26
101505.06
101504.85
101504.63
101504.41
101504.18
101503.94
101503.7
101503.45
101503.19
101502.93
101502.34
101502.17
101501.99
101501.81
101501.62
101501.43
101501.23
101501.03
101500.82
101500.6
101500.38
101500.15
101499.91
101499.67
101499.42
101499.16
101498.53
101498.36
101498.19
101498.02
101497.84
101497.66
101497.47
101497.28
101497.08
101496.88
101496.67
101496.45
101496.23
101496
101495.77
101495.53
101494.94
101494.79
101494.62
101494.46
101494.29
101494.11
101493.93
101493.74
101493.55
101493.35
101493.15
101492.94
101492.72
101492.5
101492.27
101492.03
101491.4
101491.25
101491.09
101490.93
101490.77
101490.6
101490.42
101490.25
101490.06
101489.87
101489.68
101489.48
101489.27
101489.06
101488.84
101488.62
101488.02
101487.87
101487.72
101487.57
101487.41
101487.25
101487.08
101486.9
101486.73
101486.54
101486.36
101486.16
101485.96
101485.76
101485.55
101484.76
101484.62
101484.47
101484.32
101484.17
101484.01
101483.85
101483.68
101483.51
101483.34
101483.15
101482.97
101482.77
101482.58
101482.37
101481.62
101481.48
101481.34
101481.2
101481.05
101480.9
101480.74
101480.58
101480.41
101480.24
101480.06
101479.88
101479.69
101479.5
101479.3
101478.61
101478.48
101478.34
101478.2
101478.06
101477.91
101477.76
101477.6
101477.44
101477.27
101477.1
101476.93
101476.75
101476.56
101476.37
101475.72
101475.59
101475.46
101475.33
101475.19
101475.04
101474.9
101474.75
101474.59
101474.43
101474.26
101474.09
101473.92
101473.74
101473.55
101472.97
101472.85
101472.72
101472.59
101472.46
101472.32
101472.17
101472.03
101471.88
101471.72
101471.56
101471.39
101471.22
101471.05
101470.87
101470.36
101470.24
101470.11
101469.99
101469.85
101469.72
101469.58
101469.44
101469.29
101469.14
101468.98
101468.82
101468.66
101468.49
101468.31
101467.88
101467.76
101467.64
101467.52
101467.39
101467.26
101467.12
101466.98
101466.84
101466.69
101466.54
101466.38
101466.22
101466.05
101465.88
101465.54
101465.43
101465.31
101465.19
101465.07
101464.94
101464.81
101464.67
101464.53
101464.39
101464.24
101464.09
101463.93
101463.77
101463.6
101463.34
101463.23
101463.11
101462.99
101462.87
101462.75
101462.62
101462.48
101462.35
101462.21
101462.06
101461.91
101461.75
101461.59
101461.43
101461.3
101461.19
101461.07
101460.96
101460.84
101460.71
101460.58
101460.45
101460.32
101460.18
101460.03
101459.88
101459.73
101459.57
101459.41
101459.37
101459.26
101459.15
101459.04
101458.92
101458.8
101458.67
101458.54
101458.41
101458.27
101458.13
101457.98
101457.83
101457.67
101457.23
101457.12
101457.01
101456.89
101456.77
101456.65
101456.53
101456.4
101456.26
101456.13
101455.99
101455.84
101455.69
101455.54
99546.375
99551.498
99563.651
99577.19
99590.581
99604.265
99618.78
99634.62
99652.17
99671.638
99693.089
99716.499
99741.79
99768.848
99797.536
99827.71
99859.229
99891.948
99925.658
99566.565
99576.115
99586.956
99597.502
99608.311
99620.421
99634.469
99650.728
99669.228
99689.895
99712.617
99737.262
99763.69
99791.755
99821.306
99852.2
99884.302
99917.441
99564.122
99567.41
99574.376
99583.893
99595.441
99609.121
99625.057
99643.25
99663.63
99686.103
99710.555
99736.855
99764.855
99794.398
99825.328
99857.499
99890.761
99924.897
99554.046
99555.298
99561.686
99571.817
99584.255
99598.93
99616.004
99635.483
99657.269
99681.227
99707.197
99735.004
99764.469
99795.41
99827.658
99861.058
99895.423
99539.48
99540.245
99546.649
99557.428
99570.939
99587.01
99605.716
99626.967
99650.583
99676.367
99704.117
99733.628
99764.701
99797.144
99830.784
99865.452
99900.919
99520.049
99521.139
99528.347
99540.481
99555.715
99573.731
99594.494
99617.834
99643.516
99671.304
99700.967
99732.282
99765.035
99799.029
99834.089
99870.019
99495.996
99498.255
99507.094
99521.286
99538.805
99559.203
99582.367
99608.067
99636.028
99665.982
99697.679
99730.881
99765.368
99800.946
99837.433
99874.6
99467.601
99471.883
99483.173
99500.104
99520.45
99543.66
99569.564
99597.89
99628.329
99660.596
99694.43
99729.586
99765.848
99803.026
99840.927
99435.16
99442.362
99456.929
99477.266
99500.958
99527.387
99556.344
99587.529
99620.617
99655.317
99691.366
99728.525
99766.583
99805.36
99844.647
99399.105
99410.16
99428.811
99453.176
99480.688
99510.695
99542.973
99577.211
99613.081
99650.302
99688.621
99727.805
99767.66
99808.013
99360.041
99375.869
99399.354
99428.296
99460.035
99493.921
99529.735
99567.17
99605.916
99645.714
99686.327
99727.532
99769.156
99811.049
99318.74
99340.199
99369.165
99403.137
99439.425
99477.42
99516.922
99557.645
99599.313
99641.714
99684.618
99727.806
99771.149
99814.546
99276.13
99303.957
99338.908
99378.234
99419.296
99461.554
99504.831
99548.868
99593.463
99638.473
99683.633
99728.72
99773.709
99233.257
99268.012
99309.255
99354.118
99400.091
99446.703
99493.757
99541.052
99588.542
99636.181
99683.516
99730.348
99776.914
99191.29
99233.289
99280.833
99331.286
99382.257
99433.275
99483.995
99534.396
99584.74
99634.998
99684.365
99732.824
99780.989
99151.432
99200.712
99254.236
99310.272
99366.255
99421.645
99475.819
99529.225
99582.346
99634.717
99686.029
99736.379
99113.947
99170.568
99230.616
99291.988
99352.447
99411.566
99469.276
99525.869
99581.482
99635.858
99688.959
99740.914
99079.919
99143.773
99210.178
99276.605
99341.17
99403.918
99464.927
99524.316
99582.158
99638.438
99693.205
99746.539
99050.305
99121.058
99193.282
99264.377
99332.914
99399.013
99462.902
99524.728
99584.602
99642.603
99698.824
99753.35
99026.129
99103.186
99180.512
99255.749
99327.811
99396.903
99463.331
99527.296
99588.954
99648.444
99705.896
99007.82
99090.542
99172.277
99251.071
99326.156
99397.818
99466.41
99532.181
99595.333
99656.052
99714.501
98995.817
99083.501
99168.922
99250.639
99328.203
99401.964
99472.306
99539.519
99603.848
99665.514
99724.714
98990.514
99082.4
99170.739
99254.702
99334.161
99409.513
99481.161
99549.427
99614.593
99676.91
99736.601
98992.243
99087.525
99177.972
99263.466
99344.201
99420.605
99493.083
99561.988
99627.63
99690.286
99750.2
99001.286
99099.127
99190.829
99277.095
99358.451
99435.338
99508.149
99577.259
99643.008
99705.696
99765.591
99017.835
99117.431
99209.484
99295.724
99377.057
99453.904
99526.601
99595.527
99661.052
99723.515
99783.243
99041.899
99142.559
99234.084
99319.599
99400.491
99477.061
99549.464
99618.039
99683.122
99745.105
99804.29
99073.968
99174.693
99265.109
99349.463
99429.32
99504.845
99576.077
99643.569
99707.714
99768.615
99826.413
99112.647
99211.898
99300.286
99382.702
99460.688
99534.414
99603.596
99668.594
99730.165
99789.019
99845.333
99151.652
99249.775
99335.537
99415.122
99490.711
99562.336
99629.31
99692.339
99751.856
99807.74
99861.411
99195.814
99291.694
99373.502
99448.924
99519.926
99587.463
99652.832
99715.693
99775.743
99833.345
99888.048
99940.182
99260.859
99351.688
99427.744
99498.894
99567.17
99632.179
99694.425
99754.064
99811.18
99865.905
99918.166
99968.143
99337.25
99422.567
99492.712
99557.992
99621.042
99681.593
99739.636
99795.357
99848.901
99900.369
99949.826
99997.398
99415.791
99496.075
99560.18
99619.64
99677.407
99733.229
99786.964
99838.747
99888.705
99936.925
99983.479
100028.45
99498.652
99573.721
99631.47
99684.907
99737.217
99788.077
99837.268
99884.889
99931.041
99975.795
100019.21
100061.35
100102.28
99587.038
99656.384
99707.264
99754.258
99800.755
99846.32
99890.658
99933.829
99975.908
100016.94
100056.97
100096.03
100134.18
99681.135
99744.22
99787.687
99827.771
99868.053
99907.962
99947.119
99985.545
100023.28
100060.34
100096.74
100132.51
100167.67
99780.892
99837.219
99872.758
99905.476
99939.141
99973.03
100006.68
100040.05
100073.17
100106
100138.54
100170.78
100202.73
100234.4
99886.143
99935.284
99962.432
99987.361
100014.03
100041.54
100069.35
100097.38
100125.59
100153.92
100182.35
100210.84
100239.38
100267.95
99996.629
100038.24
100056.6
100073.37
100092.68
100113.5
100135.15
100157.53
100180.56
100204.14
100228.2
100252.71
100277.62
100302.9
100112.03
100145.85
100155.11
100163.4
100175.06
100188.87
100204.09
100220.54
100238.11
100256.66
100276.11
100296.4
100317.45
100339.23
100361.68
100231.98
100257.84
100257.78
100257.33
100261.1
100267.65
100276.16
100286.43
100298.27
100311.54
100326.11
100341.92
100358.9
100376.96
100396.05
100356.08
100373.88
100364.4
100355.03
100350.71
100349.8
100351.39
100355.23
100361.12
100368.85
100378.27
100389.32
100401.97
100416.08
100431.57
100448.37
100483.78
100493.45
100474.7
100456.33
100443.79
100435.27
100429.76
100426.98
100426.69
100428.64
100432.62
100438.61
100446.63
100456.5
100468.08
100481.48
100614.32
100615.54
100588.07
100560.78
100539.99
100523.8
100511.09
100501.53
100494.89
100490.89
100489.16
100489.69
100492.72
100497.99
100505.57
100515.58
100527.58
100747.05
100738.95
100703.22
100667.25
100638.37
100614.65
100594.85
100578.51
100565.44
100555.45
100547.87
100542.58
100540.35
100541.14
100544.54
100550.63
100559.45
100887.14
100866.53
100820.85
100776.27
100739.48
100708.64
100682.15
100659.31
100639.92
100623.89
100610.65
100600.01
100592.65
100588.63
100587.77
100590.06
100595.23
100602.86
101041.23
101006.37
100954.6
100902
100856.45
100817.52
100783.68
100754.02
100728.04
100705.57
100686.38
100670.55
100658.5
100650.25
100645.57
100644.05
100645.22
100648.9
101189.84
101155.36
101116.32
101065.66
101013.89
100965.96
100922.56
100883.54
100848.84
100818.32
100791.64
100768.89
100750.68
100737.19
100727.82
100721.72
100718.19
100716.86
100717.82
99594.386
99606.516
99613.859
99623.178
99633.744
99646.061
99660.275
99675.985
99693.278
99712.245
99732.91
99755.253
99779.226
99804.759
99831.765
99860.146
99889.8
99920.621
99952.445
99595.201
99609.346
99619.383
99629.285
99640.405
99653.325
99667.85
99683.948
99701.579
99720.782
99741.572
99763.935
99787.834
99813.209
99839.987
99868.079
99897.392
99927.828