/*--------------------------------*- C++ -*----------------------------------*\
| =========                 |                                                 |
| \\      /  F ield         | OpenFOAM: The Open Source CFD Toolbox           |
|  \\    /   O peration     | Version:  2406                                  |
|   \\  /    A nd           | Website:  www.openfoam.com                      |
|    \\/     M anipulation  |                                                 |
\*---------------------------------------------------------------------------*/
FoamFile
{
    version     2.0;
    format      ascii;
    arch        "LSB;label=32;scalar=64";
    class       volScalarField;
    location    "0.02";
    object      k;
}
// * * * * * * * * * * * * * * * * * * * * * * * * * * * * * * * * * * * * * //

dimensions      [0 2 -2 0 0 0 0];

internalField   nonuniform List<scalar> 
2065
(
18.833428
14.524107
10.943194
456.4296
400.65966
346.47949
295.88644
250.14671
209.85253
175.0417
145.39268
120.38678
99.435536
81.95155
67.39843
55.301927
45.247025
36.871065
29.862032
23.947793
18.905866
14.586655
10.995822
406.41447
471.71501
530.11971
578.28865
612.64888
630.66982
633.93756
621.20362
593.76886
554.39674
506.55783
453.81621
399.46843
346.26875
296.26179
250.82544
210.63275
175.80241
146.07264
120.964
99.909012
82.333071
67.701868
55.541397
45.43517
37.018649
29.978339
24.040848
18.983096
14.653202
11.046587
402.62928
463.2866
518.06459
563.73258
597.09307
615.35522
619.6299
608.86858
583.88317
547.08159
501.61506
450.85951
398.02934
345.88564
296.5432
251.46102
211.40251
176.5713
146.76963
121.56093
100.40148
82.731874
68.02014
55.793275
45.633557
37.174652
30.101608
24.139776
19.0654
14.723965
11.101742
398.68788
454.7863
505.95613
549.1118
581.38529
599.77956
604.9583
596.08113
573.50071
539.27269
496.23062
447.54293
396.3232
345.32329
296.71529
252.04255
212.15447
177.34387
147.48115
122.17639
100.91303
83.147866
68.353387
56.057802
45.84247
37.339377
30.232146
24.244888
19.153068
14.799163
11.163061
394.67849
446.34892
493.9442
534.58572
565.60169
584.02168
589.99403
582.89325
562.65199
530.98204
490.40093
443.85298
394.33209
344.56401
296.76112
252.55847
212.88052
178.11495
148.2042
122.80883
101.44338
83.580757
68.70165
56.33516
46.062164
37.513112
30.370259
24.356498
19.246389
14.879008
11.220722
390.7221
438.09056
482.14894
520.24932
549.87229
568.17588
574.81588
569.365
551.37585
522.22889
484.128
439.77952
392.03996
343.5913
296.68332
252.99693
213.5718
178.87872
148.93525
123.45628
101.99101
84.030039
69.064858
56.625462
46.292847
37.696123
30.516247
24.474932
19.345662
14.963743
11.283735
386.886
430.08303
470.65867
506.19019
534.30727
552.34006
559.50872
555.56409
539.71947
513.04016
477.41899
435.31613
389.43288
342.38801
296.45287
253.3444
214.21864
179.62866
149.67023
124.11639
102.55439
84.494952
69.442818
56.92874
46.534683
37.888652
30.670404
24.600516
19.451198
15.053622
11.353447
383.22929
422.40401
459.56635
492.50023
519.00933
536.61341
544.1625
541.56513
527.7377
503.44888
470.28821
430.4623
386.49984
340.93734
296.04059
253.58605
214.81065
180.35761
150.40454
124.78643
103.13208
84.975365
69.835197
57.24494
46.787778
38.090912
30.833015
24.733582
19.563321
15.148896
11.431869
379.78912
415.11452
448.93044
479.25733
504.07228
521.09354
528.87067
527.44875
515.49299
493.49684
462.75715
425.22216
383.23327
339.2256
295.44351
253.70686
215.33691
181.05782
151.13301
125.46324
103.72231
85.470929
70.241448
57.573906
47.052174
38.303076
31.004348
24.874459
19.682367
15.249796
11.501485
376.61059
408.24181
438.80269
466.53276
489.58365
505.87515
513.72681
513.29984
503.05427
483.23308
454.85371
419.60569
379.62951
337.24129
294.6474
253.69367
215.78645
181.72089
151.84998
126.14323
104.32289
85.979783
70.660798
57.915371
47.327839
38.525277
31.184652
25.023469
19.808676
15.356622
11.578409
373.72365
401.83112
429.23739
454.39031
475.61467
491.03519
498.85193
499.20171
490.49428
472.71279
446.61317
413.62778
375.68803
334.97534
293.64089
253.5601
216.14887
182.33795
152.54924
126.82235
104.93133
86.500048
71.092209
58.268949
47.614662
38.757596
31.374151
25.180927
19.942588
15.469662
11.665915
371.08553
395.86055
420.2347
442.85438
462.21466
476.649
484.33164
485.24009
477.88753
461.99471
438.07458
407.30805
371.41306
332.42112
292.40951
253.25202
216.41011
182.89952
153.22409
127.49615
105.54484
87.030169
71.535451
58.634133
47.912451
39.000059
31.573035
25.347126
20.084434
15.589149
11.736628
368.65287
390.29808
411.78072
431.93562
449.42517
462.78506
470.20358
471.49532
465.30644
451.13826
429.27974
400.67129
366.81356
329.57509
290.94237
252.76787
216.55649
183.39578
153.8674
128.15981
106.16034
87.568298
71.990044
59.010214
48.220915
39.252626
31.781455
25.522338
20.234526
15.715425
11.81502
366.28462
385.02886
403.79575
421.59346
437.24531
449.45526
456.49517
458.02308
452.81307
440.19987
420.27263
393.74502
361.90108
326.43667
289.23135
252.10093
216.57182
183.81697
154.47171
128.80811
106.77441
88.112239
72.453906
59.396271
48.539657
39.515188
31.999512
25.706798
20.393134
15.848776
11.903214
363.85186
379.93008
396.17539
411.75062
425.62737
436.64029
443.21229
444.85538
440.45458
429.22881
411.09509
386.55786
356.69044
323.0082
287.2706
251.24348
216.47746
184.15502
155.02934
129.43549
107.38334
88.659589
72.925147
59.791132
48.868172
39.787557
32.227248
25.900691
20.560458
15.989398
12.00267
361.27931
374.93207
388.85452
402.34735
414.51899
424.32745
430.35521
432.01017
428.26497
418.26597
401.78582
379.13984
351.19702
319.29246
285.05513
250.18376
216.22943
184.39782
155.5321
130.0361
107.98316
89.207803
73.402304
60.194655
49.205848
40.069468
32.464629
26.104136
20.736617
16.137352
12.114972
358.43799
369.88419
381.68418
393.25212
403.81685
412.45133
417.89041
419.47936
416.25936
407.33986
392.37612
371.51601
345.43733
315.29615
282.58175
248.91127
215.81295
184.53235
155.97143
130.60382
108.56966
89.754147
73.88364
60.60615
49.551849
40.36056
32.711536
26.317167
20.921667
16.29252
12.244834
355.29002
364.75808
374.62879
384.42127
393.47619
400.97557
405.79575
407.25509
404.44718
396.4722
382.89244
363.71045
339.42846
311.02677
279.84912
247.41917
215.22958
184.54312
156.33885
131.13239
109.13842
90.295678
74.367207
61.023475
49.905075
40.660369
32.967744
26.539702
21.115591
16.454249
12.324222
351.65353
359.42596
367.5982
375.78828
383.44606
389.8622
394.04748
395.32554
392.83173
385.67838
373.35668
355.7452
333.18662
306.49215
276.85733
245.70235
214.47402
184.45594
156.6287
131.6155
109.68485
90.829296
74.851006
61.445299
50.265444
40.968324
33.23291
26.771516
21.318226
16.62229
12.41031
347.4927
353.82351
360.52289
367.29116
373.67718
379.07599
382.6251
383.68116
381.41629
374.97207
363.78847
347.64046
326.7275
301.70166
273.60829
243.75615
213.53512
184.22706
156.82995
132.04624
110.20416
91.351763
75.33295
61.870311
50.632604
41.28365
33.506552
27.012203
21.529181
16.796021
12.503739
342.62605
347.79784
353.27762
358.83187
364.09733
368.56781
371.50067
372.30839
370.20136
364.36468
354.20607
339.41656
320.06909
296.66453
270.10266
241.57574
212.40247
183.84307
156.93013
132.41726
110.69135
91.859705
75.81082
62.297002
51.00471
41.605284
33.78801
27.261145
21.747756
16.97429
12.60257
336.91305
341.19777
345.7129
350.27548
354.59564
358.25565
360.62271
361.17918
359.17965
353.864
344.62607
331.09258
313.22711
291.39195
266.34535
239.15866
211.0698
183.30724
156.9195
132.72161
111.1413
92.349626
76.282296
62.723852
51.38051
41.933205
34.076463
27.517498
21.972895
17.155443
12.703161
330.27066
333.93065
337.73295
341.53091
345.09296
348.07778
349.95125
350.27231
348.34767
343.48015
335.06697
322.68975
306.22081
285.8981
262.34339
236.50492
209.53289
182.61581
156.82038
132.95536
111.54894
92.817892
76.744976
63.149303
51.758959
42.266859
34.370787
27.780152
22.203139
17.337408
12.799742
322.72407
325.97576
329.28749
332.53522
335.5289
337.98659
339.45791
339.57727
337.71116
333.23116
325.554
314.23533
299.07489
280.20089
258.10637
233.61672
207.78783
181.75726
156.58579
133.10736
111.90833
93.26064
77.196353
63.571706
52.138871
42.604435
34.670689
28.047728
22.436629
17.517587
12.884169
314.36329
317.36766
320.36163
323.23696
325.83132
327.90787
329.08483
329.05613
327.25575
323.12294
316.10704
305.75581
291.81565
274.32132
253.64807
230.49987
205.83302
180.72447
156.21509
133.16549
112.21315
93.673804
77.633793
63.98933
52.519008
42.944798
34.97525
28.318493
22.671146
17.692854
12.946529
305.34796
308.20983
311.0171
313.65975
315.99307
317.8104
318.7972
318.67802
316.96454
313.15621
306.74251
297.27762
284.47261
268.28594
248.98649
227.16285
203.66974
179.51458
155.71051
133.1349
112.45912
94.053366
78.054546
64.40036
52.898057
43.286746
35.282287
28.591417
22.904259
17.860013
12.975306
295.88984
298.66154
301.35713
303.86788
306.05239
307.72161
308.60547
308.45856
306.85744
303.35835
297.49509
288.83978
277.0843
262.12768
244.14574
223.61994
201.30341
178.12736
155.06925
133.0179
112.64226
94.395189
78.455696
64.802889
53.274659
43.629047
35.590288
28.864874
23.133569
18.01685
12.99311
286.16143
288.87427
291.50161
293.93997
296.05089
297.65611
298.51036
298.39592
296.93861
293.74436
288.39129
280.47717
269.68851
255.88148
239.15481
219.8912
198.74384
176.56384
154.28251
132.77761
112.75221
94.694121
78.834027
65.19489
53.647425
43.97047
35.897821
29.136168
23.356933
18.161993
13.001492
276.27493
278.94779
281.53684
283.94182
286.03038
287.63219
288.51354
288.48142
287.19889
284.31317
279.44272
272.2138
262.31756
249.58199
234.04386
215.99842
196.00367
174.82818
153.34934
132.4261
112.77786
94.944614
79.18609
65.574174
54.014915
44.309847
36.203647
29.403759
23.572596
18.294598
12.993565
266.26155
268.90751
271.48083
273.88363
275.98785
277.63266
278.59583
278.68948
277.61483
275.04984
270.64727
264.06136
254.99411
243.25737
228.84031
211.96351
193.09694
172.92667
152.27085
131.96307
112.73651
95.145182
79.508739
65.938415
54.375609
44.64606
36.506735
29.666704
23.780321
18.414304
12.967663
256.09237
258.72112
261.29609
263.72154
265.87398
267.59936
268.6906
268.95404
268.12556
265.90331
261.96923
256.00215
247.71725
236.91881
223.56125
207.80407
190.0372
170.86657
151.04877
131.38559
112.61362
95.291135
79.798381
66.285039
54.727834
44.977985
36.806146
29.92414
23.979835
18.520822
12.923939
245.72823
248.34199
250.92616
253.388
255.60988
257.44457
258.70089
259.17401
258.63145
256.78289
253.33203
247.9788
240.45125
230.5505
218.2052
203.52374
186.82796
168.64973
149.68137
130.68573
112.38789
95.373568
80.050144
66.610994
55.069692
45.304425
37.101012
30.175364
24.169983
18.616842
12.847382
235.2464
237.83076
240.41147
242.90119
245.18989
247.13852
248.57154
249.2764
249.04731
247.60029
244.65352
239.92202
233.14332
224.11677
212.75121
199.11369
183.46682
166.27425
148.16517
129.85902
112.0643
95.377875
80.257604
66.912659
55.39897
45.624027
37.390503
30.419874
24.350443
18.700647
12.73784
224.87976
227.40508
229.95009
232.43603
234.76202
236.79886
238.38623
239.31174
239.38855
238.34385
235.90319
231.7925
225.75528
217.5871
207.17899
194.56268
179.94795
163.7361
146.49606
128.90201
111.64315
95.330572
80.42138
67.187106
55.713213
45.935184
37.673667
30.657192
24.521294
18.774692
12.684849
214.90996
217.34132
219.81029
222.2488
224.56605
226.64421
228.3352
229.44649
229.78336
229.10727
227.146
223.62991
218.30715
210.96924
201.49048
189.87046
176.27193
161.03631
144.67318
127.81151
111.11698
95.203017
80.534642
67.430419
56.009561
46.235938
37.949263
30.886619
24.682288
18.836728
12.621298
205.46885
207.78783
210.15751
212.51961
214.79321
216.87197
218.62066
219.86634
220.41147
220.04746
218.50926
215.53715
210.88008
204.32568
195.7327
185.07136
172.45958
158.18495
142.70055
126.58637
110.47867
94.982528
80.586913
67.637346
56.284641
46.523938
38.215659
31.107066
24.83281
18.886389
12.561605
196.39548
198.60894
200.88463
203.17119
205.39662
207.46518
209.25383
210.60773
211.3301
211.23896
210.07879
207.59819
203.5517
197.72443
189.96228
180.20968
168.54484
155.20578
140.59128
125.2315
109.72875
94.675992
80.575075
67.80331
56.534944
46.796568
38.470846
31.316917
24.97167
18.922337
12.467381
187.45349
189.57407
191.76836
193.99035
196.17616
198.23988
200.06985
201.52565
202.42326
202.58634
201.78228
199.76559
196.29622
191.15638
184.18215
175.29601
164.54199
152.11231
138.35485
123.75189
108.86971
94.286203
80.514799
67.92934
56.758164
47.051337
38.712596
31.513957
25.096193
18.941064
12.339084
178.70268
180.72569
182.83192
184.98118
187.11755
189.16472
191.02228
192.56245
193.62042
194.01649
193.54692
191.97086
189.05159
184.57081
178.35519
170.30699
160.4387
148.90133
135.99335
122.14964
107.90106
93.806493
80.378376
68.008836
56.951161
47.285807
38.938735
31.695817
25.203103
18.937676
12.173403
170.28107
172.19422
174.19658
176.25429
178.31902
180.32382
182.17944
183.77091
184.95216
185.54409
185.36974
184.19522
181.79122
177.93825
172.45172
165.21567
156.21288
145.55367
133.49093
120.41389
106.81478
93.229672
80.165469
68.029469
57.108488
47.497148
39.147334
31.860652
25.289848
18.910982
11.959377
162.29373
164.09203
165.98259
167.93717
169.91422
171.8554
173.68199
175.29135
176.55407
177.29972
177.36816
176.54066
174.59506
171.31373
166.50727
160.04233
151.87337
142.07185
130.84614
118.53983
105.60474
92.550517
79.87636
68.003427
57.229359
47.683183
39.336806
32.007384
25.354993
18.852169
11.707861
154.60028
156.28951
158.07282
159.92648
161.81491
163.68741
165.47474
167.08566
168.40385
169.27795
169.54838
169.02369
167.48778
164.72882
160.55364
154.81449
147.44151
138.47104
128.06827
116.53089
104.27
91.766479
79.508115
67.923871
57.3121
47.841923
39.505569
32.135312
25.399022
18.767497
11.423018
147.26119
148.84422
150.52187
152.27425
154.07104
155.86836
157.60561
159.202
160.55348
161.52645
161.96402
161.69952
160.5247
158.23454
154.63548
149.57062
142.94902
134.77542
125.1745
114.39843
102.81601
90.876791
79.051974
67.767871
57.342385
47.967586
39.650655
32.24277
25.420988
18.657763
11.108731
140.13294
141.61479
143.19096
144.84502
146.55134
148.27221
149.95485
151.52813
152.89941
153.95145
154.53172
154.49656
153.64692
151.78592
148.72189
144.29104
138.38468
130.97895
122.1597
112.1369
101.23776
89.876648
78.504246
67.542833
57.324527
48.056562
39.768306
32.326591
25.417497
18.521794
10.768341
133.42227
134.80307
136.27646
137.82902
139.43921
141.07475
142.68989
144.22229
145.58995
146.68842
147.38064
147.52819
146.95426
145.4686
142.88408
139.03315
133.79302
127.11458
119.04854
109.76304
99.5435
88.76881
77.865883
67.249749
57.262703
48.109935
39.857001
32.385931
25.395163
18.356986
10.396897
126.85288
128.13998
129.51767
130.97515
132.49448
134.04823
135.59695
137.08628
138.44394
139.57692
140.36474
140.6716
140.344
139.19894
137.0554
133.74459
129.13324
123.15078
115.81632
107.25914
97.721592
87.544319
77.12814
66.875692
57.128803
48.107732
39.909117
32.415456
25.34201
18.160243
9.9934984
120.74948
121.94415
123.22632
124.58736
126.01239
127.47814
128.95067
130.38267
131.71064
132.85207
133.70141
134.12781
133.99847
133.13961
131.37822
128.54749
124.50746
119.1703
112.52713
104.66987
95.800112
86.21976
76.299232
66.42489
56.937249
48.073397
39.921978
32.410469
25.256913
17.932733
9.5611211
114.67567
115.78545
116.97978
118.25192
119.58969
120.9736
122.37468
123.75205
125.05025
126.19646
127.09817
127.63311
127.68254
127.08623
125.67899
123.29776
119.79854
115.07962
109.10728
101.93867
93.73627
84.763307
75.357119
65.883605
56.678126
47.986085
39.905209
32.385745
25.153193
17.691546
9.1087784
109.14502
110.17348
111.28284
112.46782
113.71847
115.01835
116.3427
117.65616
118.91025
120.0408
120.96551
121.57681
121.75934
121.37318
120.26024
118.26318
115.23722
111.07105
105.71103
99.184831
91.618231
83.235084
74.338434
65.270798
56.357461
47.846195
39.854808
32.331795
25.028515
17.437803
8.6582697
103.43483
104.38842
105.41949
106.52423
107.6947
108.91736
110.17129
111.42624
112.64022
113.75711
114.70421
115.38786
115.69659
115.50989
114.67795
113.05059
110.484
106.85956
102.10634
96.224642
89.304406
81.530526
73.170071
64.538165
55.94588
47.640133
39.748856
32.236424
24.869268
17.155275
8.1991836
98.521974
99.402162
100.35565
101.37968
102.4679
103.60902
104.78529
105.97066
107.12862
108.20993
109.15027
109.86774
110.25674
110.21265
109.5948
108.26102
106.07153
102.90453
98.676789
93.366467
87.032427
79.823439
71.970741
63.760285
55.485617
47.388742
39.60336
32.106847
24.679995
16.851512
7.7393345
93.084814
93.901034
94.787253
95.741693
96.759502
97.831549
98.943049
100.07191
101.18677
102.24491
103.18996
103.94996
104.43093
104.5345
104.13664
103.10218
101.29596
98.594307
94.904204
90.183599
84.461517
77.850959
70.546761
62.802505
54.888995
47.038981
39.389444
31.930161
24.458398
16.52751
7.3279113
88.767326
89.523129
90.345024
91.231888
92.179922
93.181572
94.224293
95.289066
96.348639
97.365548
98.290004
99.057869
99.586082
99.78049
99.531814
98.711976
97.191869
94.84992
91.587109
87.346976
82.135907
76.037696
69.212392
61.881597
54.294345
46.672323
39.152575
31.735504
24.25065
16.404159
7.9173906
83.411758
84.109777
84.870499
85.693617
86.576519
87.513374
88.494045
89.50277
90.516584
91.503507
92.420572
93.211855
93.806026
94.11357
94.041653
93.470709
92.278756
90.345682
87.567847
83.8759
79.252554
73.747981
67.486753
60.655829
53.473895
46.145463
38.805131
31.461916
23.954318
15.964019
7.0670691
79.815912
80.466761
81.176942
81.94657
82.773695
83.653493
84.57729
85.531361
86.4955
87.441369
88.330665
89.113258
89.725529
90.084198
90.105508
89.678317
88.687028
87.016068
84.561356
81.24535
77.035646
71.96081
66.116801
59.661232
52.789574
45.690899
38.493435
31.208722
23.680065
15.54871
6.1847986
74.332535
74.929476
75.582235
76.29148
77.056189
77.872934
78.735041
79.631534
80.545884
81.454526
82.325214
83.115271
83.769914
84.218586
84.381131
84.164167
83.459463
82.156677
80.151325
77.358161
73.726772
69.256578
64.007803
58.099704
51.691437
44.946366
37.983081
30.82009
23.31928
15.137843
5.6358394
71.603411
72.170038
72.790321
73.465129
74.193802
74.973497
75.7984
76.658751
77.539679
78.419809
79.269721
80.050264
80.710925
81.18706
81.401543
81.269587
80.687883
79.550457
77.754412
75.211759
71.864697
67.700407
62.761795
57.146485
50.993835
44.452433
37.631586
30.549137
23.075114
14.882722
5.3641975
64.907232
65.425469
65.995657
66.616627
67.288015
68.008112
68.772796
69.574753
70.402541
71.23948
72.062353
72.839943
73.531465
74.085085
74.436938
74.511623
74.218751
73.460643
72.139574
70.164633
67.464019
63.998353
59.772069
54.838299
49.290339
43.238155
36.768467
29.898882
22.522359
14.345175
4.8542399
44.503481
53.467271
64.382395
77.509946
92.476491
107.93986
124.38735
140.92953
156.90105
171.9332
185.93005
199.06552
212.1779
225.99457
240.4378
254.63782
268.63096
281.47894
292.65132
301.41682
307.6985
311.07002
311.17237
309.78042
305.85994
299.8258
292.57114
284.43655
275.76646
266.83554
257.76952
248.62067
239.35756
229.93979
220.39074
210.91318
201.7966
193.25511
185.20834
177.33016
73.114562
86.55166
101.79542
117.49479
133.03787
148.35969
163.1782
177.42913
191.21223
204.89042
218.34707
231.69718
245.09524
258.35942
270.80293
282.5442
293.17673
302.37445
309.64342
314.98824
317.95223
318.11722
316.83071
313.19213
307.46304
300.39671
292.33207
283.61429
274.54016
265.26944
255.88331
246.37275
236.70076
226.87575
217.07456
207.5822
198.63862
190.21684
182.02128
173.85506
165.90824
158.33425
151.17196
144.23412
137.60981
131.15263
125.09083
119.11633
113.58354
108.03102
102.98682
97.727668
93.242313
88.183197
84.208293
79.191883
75.855984
70.686252
68.109423
61.72907
143.37585
156.57265
169.47064
182.10749
194.51494
206.71915
218.75763
230.488
241.95806
252.92083
263.65963
274.00405
283.91582
293.13658
301.54801
309.00351
315.38503
320.3384
323.87368
325.58836
325.31003
323.56709
319.76534
314.16967
307.19364
299.16846
290.41967
281.24501
271.8251
262.2619
252.56486
242.70076
232.6647
222.60763
212.80624
203.52019
194.77135
186.2974
177.88225
169.67779
161.83771
154.4213
147.2526
140.41078
133.75025
127.49331
121.34053
115.63786
109.93045
104.74246
99.349949
94.739305
89.568867
85.494166
80.378174
76.966735
71.705521
69.084296
62.614273
233.73086
243.64844
252.65589
260.91998
268.58203
275.83517
282.67767
289.31384
295.66402
301.79424
307.66343
313.28685
318.51037
323.17189
327.15572
330.4028
332.70857
334.03926
334.02276
332.82949
330.14431
325.94202
320.21175
313.19188
305.13865
296.33999
287.07731
277.53914
267.83947
258.00113
247.99405
237.80083
227.54642
217.49554
207.92157
198.8904
190.17454
181.54506
173.11851
165.04578
157.4044
150.03033
142.99461
136.15233
129.72014
123.40693
117.55074
111.70319
106.38472
100.8712
96.146231
90.874532
86.70843
81.501656
78.021005
72.675961
70.014304
63.460448
326.49464
329.51376
331.78987
333.56927
335.02865
336.3101
337.46292
338.62337
339.7486
340.90349
342.12762
343.35093
344.51688
345.46183
346.06011
346.22007
345.87222
344.91108
343.08457
340.43196
336.72674
331.86032
325.7733
318.56604
310.4059
301.51984
292.16154
282.51731
272.70539
262.75686
252.64354
242.33597
231.93309
221.68425
211.87098
202.59813
193.6737
184.8613
176.24522
167.97087
160.13187
152.57638
145.36904
138.36541
131.77691
125.32021
119.32619
113.35262
107.91644
102.29376
97.465066
92.101801
87.852459
82.563451
79.019754
73.598374
70.900111
64.267943
)
;

boundaryField
{
    Side1
    {
        type            empty;
    }
    Inlet
    {
        type            inletOutlet;
        inletValue      uniform 0.39740317;
        value           nonuniform List<scalar> 
59
(
10.943194
10.995822
0.39740317
0.39740317
11.163061
0.39740317
0.39740317
0.39740317
11.431869
0.39740317
0.39740317
11.665915
0.39740317
0.39740317
0.39740317
0.39740317
0.39740317
12.244834
0.39740317
0.39740317
0.39740317
0.39740317
0.39740317
0.39740317
0.39740317
0.39740317
0.39740317
0.39740317
0.39740317
0.39740317
0.39740317
0.39740317
0.39740317
0.39740317
0.39740317
0.39740317
0.39740317
0.39740317
0.39740317
0.39740317
0.39740317
0.39740317
0.39740317
0.39740317
0.39740317
0.39740317
0.39740317
0.39740317
0.39740317
0.39740317
0.39740317
0.39740317
0.39740317
0.39740317
0.39740317
0.39740317
0.39740317
0.39740317
0.39740317
)
;
    }
    Side2
    {
        type            empty;
    }
    Outlet
    {
        type            zeroGradient;
    }
    Botwall
    {
        type            kqRWallFunction;
        value           nonuniform List<scalar> 0();
    }
    Cyli
    {
        type            kqRWallFunction;
        value           nonuniform List<scalar> 0();
    }
    procBoundary3to0
    {
        type            processor;
        value           nonuniform List<scalar> 7(37.676452 61.851593 61.851593 129.90539 129.90539 222.84353 222.84353);
    }
    procBoundary3to1
    {
        type            processor;
        value           nonuniform List<scalar> 
62
(
42.622889
49.798329
58.684722
69.62911
82.631422
97.189031
113.19428
129.61625
145.72808
161.94489
177.33111
191.4947
204.91668
218.31753
232.38515
246.93116
261.4681
275.01599
286.70365
295.70141
301.75266
304.4444
304.05072
301.98764
297.35743
290.94512
283.46916
275.28634
266.71944
258.00367
249.22247
240.39449
231.46402
222.38584
213.19507
204.11561
195.43847
187.35257
179.72881
172.21438
169.45443
169.45443
161.803
154.52772
147.64892
140.969
134.58716
128.3557
122.50942
116.73164
111.38536
106.00312
101.11641
96.002973
91.654023
86.716716
82.850085
77.942137
74.687935
69.617504
67.089236
60.805463
)
;
    }
    procBoundary3to2
    {
        type            processor;
        value           nonuniform List<scalar> 
35
(
18.765083
14.464873
10.890241
458.71762
401.62155
346.54635
295.42935
249.4329
209.06717
174.29256
144.73206
119.83103
98.982635
81.588631
67.110996
55.075833
45.069829
36.732298
29.752793
23.860299
23.860299
410.02579
410.02579
480.00957
542.04648
592.70183
627.98811
645.67641
647.83665
633.0573
603.14445
561.21662
511.06807
511.06807
322.42853
)
;
    }
}


// ************************************************************************* //
