/*--------------------------------*- C++ -*----------------------------------*\
| =========                 |                                                 |
| \\      /  F ield         | OpenFOAM: The Open Source CFD Toolbox           |
|  \\    /   O peration     | Version:  2406                                  |
|   \\  /    A nd           | Website:  www.openfoam.com                      |
|    \\/     M anipulation  |                                                 |
\*---------------------------------------------------------------------------*/
FoamFile
{
    version     2.0;
    format      ascii;
    arch        "LSB;label=32;scalar=64";
    class       volScalarField;
    location    "0.02";
    object      omega;
}
// * * * * * * * * * * * * * * * * * * * * * * * * * * * * * * * * * * * * * //

dimensions      [0 0 -1 0 0 0 0];

internalField   nonuniform List<scalar> 
2065
(
14.193955
10.133206
7.2245374
4956.9335
3587.3021
2567.9527
1822.1811
1284.6034
901.80827
631.73641
442.38494
310.09233
217.78232
153.33822
108.27562
76.696325
54.509471
38.873948
27.812812
19.94236
14.294202
10.200378
7.2691761
56818.812
49374.87
42444.041
35934.127
29897.752
24422.528
19588.549
15431.219
11940.402
9079.3134
6788.6976
4998.6083
3630.3936
2605.838
1852.5532
1307.488
918.28973
643.2131
450.17779
315.28738
221.19929
155.5666
109.72072
77.630623
55.112789
39.263597
28.064955
20.106284
14.401974
10.272443
7.3137473
52986.382
46400.491
40182.289
34283.732
28755.276
23680.756
19143.184
15192.326
11836.727
9056.7426
6809.5124
5037.7192
3672.9771
2644.2948
1883.9182
1331.408
935.66953
655.39367
458.48719
320.84468
224.8623
157.95891
111.27337
78.63486
55.761376
39.682505
28.336043
20.28255
14.517854
10.349766
7.3626604
49400.317
43577.155
38007.036
32670.154
27616.407
22924.535
18677.091
14933.407
11716.952
9023.0519
6823.6325
5073.6492
3714.6534
2683.1032
1916.1785
1356.3388
953.95892
668.3026
467.3387
326.78586
228.78834
160.52673
112.94148
79.714301
56.458682
40.132921
28.627542
20.472118
14.642472
10.432732
7.4168941
46032.681
40888.333
35908.363
31089.749
26480.69
22154.249
18190.371
14654.062
11580.353
8977.3634
6830.018
5105.7475
3754.9859
2722.009
1949.2132
1382.2411
973.16188
681.96145
476.75728
333.13289
232.99494
163.28224
114.73349
80.874585
57.20842
40.617269
28.941035
20.67603
14.776503
10.521746
7.4696956
42861.687
38322.601
33880.299
29540.593
25348.355
21370.688
17683.412
14354.102
11426.343
8918.9262
6828.2705
5133.3911
3793.5074
2760.7232
1982.8759
1409.0603
993.27377
696.38793
486.76676
339.90786
237.49902
166.2382
116.65835
82.121752
58.014581
41.138165
29.278234
20.895411
14.920678
10.617266
7.528068
39871.256
35872.598
31919.806
28022.261
24220.465
20575.194
17157.025
14033.655
11254.575
8847.3319
6819.2021
5156.0344
3829.7257
2798.9261
2016.9929
1436.7232
1014.2798
711.59508
497.38942
347.13283
242.3184
169.40798
118.72558
83.462256
58.881451
41.698425
29.640986
21.13148
15.075789
10.71978
7.5924133
37046.017
33531.869
30025.131
26535.456
23098.927
19769.764
16612.551
13693.223
11064.835
8761.5965
6799.1136
5172.8101
3863.1062
2836.2682
2051.3644
1465.1372
1036.1538
727.5903
508.64536
354.82957
247.47177
172.8064
120.94526
84.902991
59.813632
42.301084
30.031289
21.385552
15.242693
10.829807
7.6643499
34378.762
31299.128
28197.17
25082.712
21986.884
18957.266
16051.997
13333.8
10857.25
8661.3192
6768.5224
5182.989
3893.0953
2872.372
2085.7655
1494.1915
1058.8571
744.37428
520.55189
363.01916
252.97803
176.44883
123.32795
86.451302
60.816054
42.949408
30.451296
21.659052
15.422321
10.947884
7.7316646
31865.059
29173.769
26438.439
23667.979
20888.64
18141.523
15478.148
12956.981
10632.394
8546.4056
6727.0473
5185.5383
3919.1392
2906.8434
2119.9466
1523.7551
1082.3377
761.94003
533.1228
371.72158
258.85604
180.34977
125.88471
88.114995
61.893998
43.646911
30.903335
21.95352
15.615678
11.074641
7.8070442
29505.264
27159.596
24754.352
22297.242
19809.964
17327.439
14894.672
12565.088
10391.392
8417.1904
6674.7472
5181.7847
3940.9021
2939.2953
2153.6365
1553.6764
1106.5302
780.27184
546.36766
380.95528
265.12457
184.52442
128.62705
89.902359
63.053112
44.397369
31.389914
22.270616
15.823847
11.210735
7.8919526
27305.019
25263.716
23152.614
20978.164
18757.913
16520.985
14306.132
12161.17
10135.943
8274.3625
6611.5719
5170.4744
3957.9207
2969.3357
2186.5545
1583.7836
1131.3512
799.3443
560.291
390.73673
271.80208
188.98887
131.56792
91.82217
64.299425
45.204836
31.913735
22.612134
16.047999
11.35683
7.9671074
25269.226
23492.794
21640.89
19718.696
17740.054
15728.806
13717.763
11748.881
9868.2495
8118.8769
6537.3669
5150.0174
3969.6156
2996.5627
2218.4054
1613.8907
1156.7035
819.12175
574.89156
401.07986
278.90636
193.75935
134.72067
93.883613
65.639362
46.07366
32.477708
22.980005
16.289389
11.513739
8.0518286
23403.025
21853.581
20226.855
18526.823
16764.115
14957.816
13135.18
11332.329
9590.9583
7952.1311
6452.72
5121.4587
3975.6257
3020.5988
2248.8893
1643.797
1182.4765
839.55789
590.16167
411.99553
286.45414
198.85196
138.09769
96.096282
67.079746
47.008494
33.084959
23.376307
16.54936
11.682299
8.14613
21703.86
20347
18914.03
17407.787
15836.17
14214.08
12563.738
10915.717
9306.982
7775.8358
6358.4037
5084.7778
3975.3573
3041.0915
2277.713
1673.2883
1208.5451
860.59652
606.08663
423.49092
294.4608
204.28272
141.71206
98.470146
68.627814
48.014314
33.738843
23.803272
16.829338
11.863368
8.2513343
20168.515
18973.115
17704.874
16365.699
14961.259
13502.904
12008.396
10503.169
9019.3754
7591.9941
6255.6101
5040.8539
3970.9075
3058.0621
2304.6331
1702.1535
1234.7709
882.16711
622.64371
435.56894
302.93998
210.06735
145.57773
101.01661
70.29122
49.096429
34.442952
24.263287
17.130833
12.057803
8.3689933
18786.286
17726.22
16597.45
15401.369
14142.041
12827.974
11473.131
10098.332
8731.0573
7402.634
6145.4581
4989.76
3960.0248
3071.1255
2329.3904
1730.1785
1261.0068
904.18814
639.8017
448.22775
311.90313
216.22096
149.70864
103.74708
72.07793
50.260486
35.201121
24.758904
17.45546
12.266432
8.5032332
17540.735
16595.397
15585.435
14512.119
13378.521
12191.068
10960.653
9704.1141
8444.5975
7209.6715
6029.0895
4931.9312
3943.1052
3080.0736
2351.7416
1757.1457
1287.0973
926.56943
657.52099
461.46019
321.35907
222.75777
154.11867
106.67217
73.996207
51.512477
36.017436
25.292832
17.804946
12.489835
8.6046609
16417.037
15570.42
14662.552
13694.886
12670.088
11593.262
10473.018
9322.9258
8162.2601
7014.9088
5907.7204
4868.0987
3920.8057
3084.842
2371.472
1782.8391
1312.8746
949.2102
675.75509
475.25342
331.31359
229.69081
158.82164
109.8036
76.055576
52.858745
36.896239
25.86794
18.181107
12.729099
8.7194331
15395.505
14636.184
13818.05
12942.834
12013.164
11033.458
10010.786
8956.2178
7885.7569
6819.88
5782.4648
4798.8755
3893.1362
3084.8625
2388.3228
1807.0455
1338.1721
971.99822
694.44485
489.58776
341.76891
237.0316
163.83111
113.15336
78.265768
54.305897
37.842123
26.48725
18.585822
12.985211
8.8451926
14459.462
13779.105
13041.644
12248.893
11403.564
10509.807
9573.8014
8604.8654
7616.4129
6625.9337
5654.4552
4725.1452
3860.9804
3082.0552
2402.4656
1829.6197
1362.8278
994.8157
713.52256
504.43648
352.72319
244.78986
169.16003
116.73349
80.635748
55.860768
38.859927
27.153934
19.021012
13.259049
8.9818128
13591.725
12984.032
12320.693
11603.283
10834.446
10018.177
9160.1457
8268.5202
7354.7915
6433.9939
5524.5795
4647.4909
3824.3056
3074.7873
2413.6164
1850.3798
1386.6739
1017.538
732.91428
519.7664
364.17021
252.97309
174.82064
120.55609
83.175323
57.531328
39.954754
27.871315
19.488619
13.551398
9.1285197
12779.13
12238.989
11644.745
10997.418
10299.324
9554.2092
8767.385
7946.2664
7100.9809
6244.6474
5393.509
4566.3839
3783.2567
3063.1454
2421.5969
1869.1431
1409.5391
1040.0294
752.53747
535.53917
376.09916
261.58627
180.82418
124.63315
85.894727
59.325538
41.131862
28.642858
19.9906
13.86299
9.2836495
12012.624
11535.07
11005.39
10423.831
9792.0889
9113.4111
8392.6703
7636.6969
6854.643
6058.1903
5261.7846
4482.3492
3738.2815
3047.7271
2426.4232
1885.7692
1431.2616
1062.1585
772.30059
551.70486
388.49336
270.63133
187.18064
128.97639
88.804332
61.250847
42.397394
29.472176
20.528932
14.194457
9.4444899
11287.412
10867.335
10397.573
9877.5631
9308.2033
8692.0383
8033.3169
7338.2441
6615.1709
5874.68
5129.7937
4395.8228
3689.6713
3028.4811
2427.7539
1900.0649
1451.6768
1083.7897
792.10876
568.20875
401.33072
280.10691
193.89846
133.59707
91.914606
63.315497
43.75743
30.362977
21.105637
14.546337
9.607554
10599.236
10231.246
9816.6853
9354.0252
8843.2976
8286.1923
7686.1799
7048.7054
6381.3147
5693.6579
4997.6013
4307.1191
3637.8026
3005.8277
2426.4183
1912.1008
1470.6749
1104.7935
811.86187
584.99173
414.58523
290.00831
200.98431
138.50579
95.236009
65.528
45.217612
31.319665
21.722848
14.919263
9.7696539
9947.8234
9626.1408
9261.4521
8851.5254
8395.4541
7893.9552
7349.5558
6766.7917
6152.3201
5514.8897
4865.3671
4216.6103
3583.0811
2980.0393
2422.2704
1921.8677
1488.1669
1125.0509
831.45788
601.98859
428.22569
300.32702
208.4427
143.71238
98.778914
67.897099
46.784332
32.346605
22.382927
15.314329
9.9403331
9334.0598
9053.0646
8732.7571
8370.4831
7964.5872
7514.8434
7022.7553
6491.8329
5927.7204
5338.2016
4733.1819
4124.5226
3525.678
2951.0105
2414.6849
1929.1608
1504.0294
1144.4458
850.80034
619.12868
442.21169
311.04953
216.27556
149.22554
102.55349
70.431741
48.464357
33.447857
23.088581
15.733054
10.120176
8758.5738
8512.8945
8231.5894
7911.7557
7551.2354
7148.9997
6705.5724
6223.4069
5707.0672
5163.2788
4600.9364
4030.9273
3465.774
2919.0222
2404.2958
1934.0376
1518.1826
1162.8682
869.78695
636.33923
456.50061
322.15777
224.48189
155.05263
106.56957
73.141061
50.26489
34.628446
23.842924
16.177288
10.306046
8221.3832
8006.0541
7758.6489
7476.1831
7156.1552
6796.9648
6398.3026
5961.5825
5490.2773
4990.0077
4468.5857
3935.8887
3403.5215
2884.2476
2391.1433
1936.47
1530.5557
1180.2111
888.31023
653.53584
471.04342
333.63085
233.0578
161.19936
110.8364
76.034285
52.193533
35.894038
24.650083
16.649236
10.497281
7720.9506
7531.6307
7313.5608
7063.7888
6779.6265
6459.07
6101.1584
5706.4235
5277.2677
4818.1974
4335.9087
3839.21
3338.7483
2846.4862
2374.9274
1936.0981
1540.904
1196.3026
906.23879
670.62368
485.78034
345.43941
241.9951
167.66922
115.36242
79.120586
54.258172
37.250604
25.51439
17.151313
10.693595
7253.3662
7086.4841
6893.9247
6672.8226
6420.4283
6134.4831
5813.5592
5457.44
5067.5816
4647.4119
4202.5039
3740.5758
3271.2855
2805.7794
2356.0028
1933.7897
1549.3808
1211.0579
923.4471
687.50009
500.64062
357.5438
251.27962
174.46284
120.15487
82.408908
56.466913
38.704482
26.439931
17.687487
10.884157
6813.1331
6665.8244
6495.6631
6299.8913
6075.7878
5820.9602
5533.6505
5213.0922
4859.9079
4476.5349
4067.4445
3639.2429
3200.5459
2761.6174
2333.7385
1928.3231
1555.5838
1224.2633
939.7728
704.04149
515.54395
369.89822
260.89099
181.57735
125.21948
85.907756
58.828009
40.262401
27.431529
18.260209
11.07156
6396.3296
6266.2468
6115.8876
5942.6263
5743.8298
5517.0631
5260.3524
4972.506
4653.5073
4304.891
3930.081
3534.5883
3125.9531
2713.4786
2307.6896
1919.5161
1559.2686
1235.7159
955.0442
720.10986
530.3915
382.44895
270.80707
189.00725
130.56024
89.624954
61.349666
41.931334
28.494488
18.874928
11.328573
6002.2781
5887.2437
5754.2445
5600.8337
5424.5132
5222.8802
4993.8463
4735.9199
4448.5628
4132.5716
3790.417
3426.5055
3047.2874
2661.0519
2277.4891
1906.9693
1559.6092
1244.969
969.00888
735.54535
545.08057
395.13243
280.99571
196.74263
136.17902
93.567391
64.039828
43.718299
29.634153
19.533403
11.602481
5633.5776
5531.4527
5413.3894
5277.169
5120.4624
4940.959
4736.5436
4505.5389
4247.014
3961.1548
3649.6124
3315.8124
2965.1092
2604.7554
2243.5629
1891.3148
1557.9452
1252.3118
981.62597
750.24264
559.51954
407.88455
291.41986
204.76914
142.0752
97.740784
66.905971
45.630182
30.855894
20.239443
11.915095
5292.3918
5201.2752
5095.9786
4974.5206
4834.7565
4674.5069
4491.6977
4284.5623
4051.903
3793.4309
3510.1194
3204.5026
2880.9368
2545.6482
2206.5214
1872.6226
1553.4452
1257.5799
992.81545
764.11312
573.62418
420.64366
302.04266
213.06984
148.24592
102.14957
69.954959
47.67353
32.164814
20.995387
12.225308
4975.1182
4893.5994
4799.4547
4690.9041
4565.9858
4422.6671
4258.9549
4073.0607
3863.6216
3629.9981
3372.6089
3093.2446
2795.3553
2484.1697
2166.6213
1850.9666
1546.1272
1260.7819
1002.5622
777.10001
587.31952
433.34366
312.82428
221.62736
154.68678
106.79695
73.192946
49.854325
33.564946
21.80222
12.540014
4677.0273
4604.0762
4519.8864
4422.8457
4311.1662
4182.9659
4036.3541
3869.5645
3681.1419
3470.194
3236.7
2981.8247
2708.196
2420.1255
2123.6065
1826.0496
1535.7543
1261.132
1010.4169
788.96255
600.46674
445.90025
323.71142
230.41338
161.38895
111.68427
76.625288
52.17806
35.059498
22.658787
12.850979
4395.7024
4330.3749
4255.0406
4168.2446
4068.3646
3953.6696
3822.3855
3672.8008
3503.4224
3313.1852
3101.7297
2869.7035
2619.0422
2353.2107
2077.2889
1797.8613
1522.6035
1259.638
1016.5334
799.59174
612.9275
458.20849
334.63892
239.39205
168.33745
116.80999
80.256317
54.65005
36.651693
23.564261
13.149383
4132.117
4073.447
4005.8478
3928.0192
3838.496
3735.698
3617.9783
3483.7067
3331.3974
3159.8822
2968.5531
2757.6418
2528.4934
2283.8235
2027.8862
1766.4302
1506.4149
1255.4561
1020.6572
808.83
624.56134
470.15469
345.52873
248.52123
175.5148
122.1702
84.089179
57.275576
38.345943
24.520518
13.441706
3885.1735
3832.3763
3771.5971
3701.6781
3621.2998
3529.0261
3423.3398
3302.7071
3165.6805
3011.0441
2838.0167
2646.5055
2437.3705
2212.6835
1975.9195
1731.9957
1487.0991
1248.2215
1022.4502
816.50808
635.24955
481.63964
356.30608
257.75473
182.89896
127.75826
88.125323
60.059175
40.146495
25.529632
13.727469
3654.5294
3606.9142
3552.1526
3489.2126
3416.9081
3333.9382
3238.913
3130.403
3007.0207
2867.5414
2711.0711
2537.2699
2346.6002
2140.5759
1921.977
1694.954
1464.9431
1238.3395
1021.9388
822.45693
644.8404
492.5555
366.89871
267.04349
190.46014
133.56182
92.363068
63.003548
42.056168
26.592056
14.004215
3437.2323
3394.2734
3344.9125
3288.23
3223.1606
3148.5285
3063.0649
2965.4457
2854.3561
2728.5892
2587.1839
2429.6197
2256.0445
2067.5054
1866.1794
1655.5237
1440.2702
1226.2146
1019.7649
826.87757
653.30657
502.8124
377.22351
276.33062
198.16661
139.56622
96.798135
66.109582
44.076379
27.706798
14.26907
3234.6665
3195.8009
3151.1887
3100.0107
3041.3113
2974.0298
2897.013
2809.0423
2708.8847
2595.3724
2467.5169
2324.674
2166.747
1994.4053
1809.308
1614.2804
1413.3666
1211.7004
1015.1305
829.60462
660.60735
512.35468
387.2117
285.55778
205.98276
145.75507
101.4245
69.375742
46.207447
28.870529
14.509529
3042.7612
3007.6034
2967.2864
2921.0821
2868.1343
2807.4884
2738.0988
2658.8495
2568.5923
2466.2114
2350.7173
2221.3833
2077.924
1920.6979
1750.9189
1570.8431
1383.8692
1194.4824
1007.9874
830.02845
666.35347
520.96368
396.73806
294.65243
213.86488
152.10195
106.23021
72.799421
48.448809
30.08184
14.72343
2865.5263
2833.5863
2797.0004
2755.1202
2707.1784
2652.3166
2589.5893
2517.9782
2436.4218
2343.8661
2239.3427
2122.0794
1991.656
1848.1882
1692.5214
1526.4251
1352.7242
1175.3092
998.97229
829.0419
670.77227
528.62726
405.73667
303.55273
221.76955
158.58792
111.21045
76.380237
50.802858
31.342473
14.906668
2695.4245
2666.4439
2633.2844
2595.3705
2552.0164
2502.4523
2445.826
2381.2127
2307.6366
2224.1109
2129.701
2023.6146
1905.3355
1774.7866
1632.5087
1479.8511
1319.1229
1153.6525
987.69438
826.13671
673.71808
535.23781
414.09773
312.16824
229.63879
165.17982
116.35156
80.119414
53.278822
32.669145
15.065758
2541.5253
2515.0701
2484.8377
2450.3142
2410.8852
2365.8592
2314.468
2255.8724
2189.1787
2113.4695
2027.8542
1931.5445
1823.9646
1704.8952
1574.6371
1434.189
1285.4085
1131.1006
974.97757
821.44066
675.16149
540.80941
421.82198
320.47652
237.4414
171.8495
121.63573
84.006783
55.867097
34.049922
15.203919
2390.3774
2366.2811
2338.7845
2307.4278
2271.6631
2230.8729
2184.3683
2131.3927
2071.133
2002.7433
1925.3847
1838.2871
1740.8392
1632.7133
1514.0134
1385.437
1248.4349
1105.3254
959.30628
814.32016
674.74207
544.96307
428.62601
328.29679
245.07341
178.54469
127.0362
88.023967
58.548924
35.460412
15.299666
2257.367
2235.2172
2209.9814
2181.2477
2148.5255
2111.2611
2068.8354
2020.5649
1965.7101
1903.4924
1833.1263
1753.8699
1665.0984
1566.4115
1457.7648
1339.6169
1213.089
1080.0877
943.35859
806.41492
673.30067
548.15244
434.6902
335.65965
252.50246
185.21982
132.51717
92.150488
61.316191
36.904277
15.368222
2121.4931
2101.2512
2078.2283
2052.0596
2022.3098
1988.4868
1950.0388
1906.3541
1856.7653
1800.5628
1737.0182
1665.4263
1585.1647
1495.7826
1397.1163
1289.4217
1173.5214
1050.9376
923.97512
795.69277
669.7318
549.81255
439.71885
342.41056
259.65683
191.8502
138.07661
96.392564
64.177833
38.397919
15.600291
2010.9371
1992.0998
1970.7165
1946.4592
1918.9374
1887.7099
1852.2812
1812.1003
1766.5634
1715.0231
1656.8064
1591.248
1517.7392
1435.8027
1345.1927
1246.0157
1138.8667
1024.9653
906.23952
785.33895
665.51953
550.37566
443.84673
348.5066
266.39135
198.25903
143.56101
100.65245
67.140425
40.373725
17.896062
1885.9524
1868.6179
1848.9892
1826.7787
1801.6445
1773.1999
1741.0098
1704.5889
1663.402
1616.8695
1564.381
1505.3196
1439.1016
1365.2363
1283.4113
1193.5996
1096.1775
992.05509
882.78569
770.61225
658.40471
549.46828
446.88246
353.9908
272.94085
204.76613
149.26868
105.12963
70.167192
41.665337
16.715589
1798.758
1782.3751
1763.8623
1742.9617
1719.3645
1692.722
1662.6415
1628.6839
1590.3635
1547.1515
1498.4859
1443.7911
1382.5114
1314.1597
1238.391
1155.0968
1064.5144
967.35426
864.90555
759.09411
652.46116
548.00535
449.13894
358.55491
278.57058
210.47957
154.3838
109.23077
73.00995
42.979776
15.648887
1678.6933
1663.5275
1646.4471
1627.2305
1605.6136
1581.2989
1553.9512
1523.1953
1488.6131
1449.7459
1406.0991
1357.1563
1302.4031
1241.3651
1173.6661
1099.108
1017.7684
930.10707
837.08232
740.23079
641.68279
544.0789
450.11293
362.8775
284.74175
217.18496
160.60205
114.28339
76.521761
44.729747
15.329285
1619.417
1604.7713
1588.3055
1569.8136
1549.0523
1525.7483
1499.5945
1470.2467
1437.3221
1400.3986
1359.0195
1312.7039
1260.9664
1203.3509
1139.4804
1069.1304
992.31777
909.39951
821.18393
729.01208
634.79276
540.93467
450.14419
365.32518
288.3956
221.17063
164.33836
117.4054
78.763465
45.92043
15.2833
1482.3861
1469.0515
1454.1537
1437.4853
1418.8323
1397.9616
1374.6294
1348.5771
1319.4946
1287.0382
1250.8324
1210.4746
1165.5475
1115.6394
1060.3796
999.4904
932.85828
860.6175
783.25699
701.70669
617.39224
532.22419
448.49306
368.51098
294.86424
229.16032
172.28212
124.13341
83.580972
48.376761
15.131095
50738.171
53643.463
57794.424
61358.477
64074.189
65838.406
65690.659
64462.508
62079.823
58789.257
55095.236
51060.538
46725.216
42420.314
38438.726
34843.983
31713.772
28965.209
26560.208
24427.992
22516.476
20797.225
19232.025
17800.797
16485.556
15275.921
14162.243
13137.121
12193.677
11328.238
10536.096
9812.8187
9152.8431
8548.7328
7991.2405
7471.6011
6984.6987
6530.5201
6111.691
5727.8881
92842.729
89626.284
85772.716
82430.979
78518.739
73692.769
68635.792
63447.547
58250.801
53036.161
48067.566
43474.463
39344.192
35690.766
32454.807
29642.208
27178.605
25018.89
23104.315
21387.707
19837.744
18420.337
17118.015
15912.072
14793.091
13754.3
12790.629
11897.098
11071.862
10312.166
9615.122
8976.6857
8390.8092
7849.3397
7344.0454
6869.8754
6426.5525
6016.715
5640.6424
5292.0569
4965.0375
4657.7605
4371.5905
4104.4884
3855.8099
3622.0106
3404.8486
3199.5009
3010.591
2829.5597
2666.3775
2506.4174
2366.2802
2223.2786
2107.8323
1977.4415
1887.3133
1763.0984
1702.652
1561.1793
96635.595
89393.979
82481.426
75775.396
69385.551
63384.574
57816.363
52701.872
48013.326
43724.373
39813.385
36272.246
33099.547
30264.594
27758.938
25543.378
23589.016
21852.038
20294.23
18887.673
17600.471
16414.985
15312.847
14283.286
13320.506
12420.841
11580.504
10798.899
10074.879
9406.9232
8792.3974
8226.6288
7702.625
7212.8026
6752.293
6320.6294
5920.4581
5552.623
5211.5607
4891.6128
4590.6994
4310.0675
4047.9478
3803.7525
3574.0875
3360.5858
3158.6324
2972.6653
2794.4075
2633.5738
2475.8495
2337.5065
2196.2999
2082.0595
1952.9893
1863.5563
1740.3106
1680.1446
1539.7292
79297.006
72558.131
66545.516
61133.872
56211.062
51690.635
47509.491
43635.436
40054.114
36740.548
33690.749
30912.939
28396.97
26139.656
24121.949
22327.961
20728.448
19293.621
17999.639
16818.245
15731.018
14719.642
13771.745
12880.785
12043.241
11255.811
10518.494
9831.2661
9193.6647
8604.2364
8059.5656
7553.798
7080.0478
6633.7023
6214.1593
5824.0588
5464.7618
5131.4076
4818.6234
4524.1446
4249.1093
3991.9977
3752.2932
3526.7507
3316.8978
3118.3149
2935.2736
2759.7638
2601.2608
2445.7538
2309.1977
2169.7835
2056.7579
1929.0353
1840.3151
1718.09
1658.1926
1518.8811
69202.823
64010.514
59260.456
54883.386
50827.892
47052.572
43525.645
40225.147
37136.601
34250.882
31567.183
29089.624
26820.075
24760.02
22900.983
21234.665
19743.028
18403.487
17196.575
16098.388
15090.356
14154.415
13277.266
12450.687
11670.553
10933.224
10238.738
9587.7086
8980.3834
8416.205
7892.8303
7405.4571
6947.8938
6515.8197
6108.5328
5728.6463
5377.9834
5052.3593
4746.7029
4458.6197
4189.1481
3936.9953
3701.7264
3480.2415
3273.9807
3078.7055
2898.5404
2725.7238
2569.5094
2416.1789
2281.383
2143.7392
2031.921
1905.5553
1817.5517
1696.384
1636.7316
1498.5844
)
;

boundaryField
{
    Side1
    {
        type            empty;
    }
    Inlet
    {
        type            inletOutlet;
        inletValue      uniform 1;
        value           nonuniform List<scalar> 
59
(
7.2245374
7.2691761
1
1
7.4168941
1
1
1
7.6643499
1
1
7.8919526
1
1
1
1
1
8.5032332
1
1
1
1
1
1
1
1
1
1
1
1
1
1
1
1
1
1
1
1
1
1
1
1
1
1
1
1
1
1
1
1
1
1
1
1
1
1
1
1
1
)
;
    }
    Side2
    {
        type            empty;
    }
    Outlet
    {
        type            zeroGradient;
    }
    Botwall
    {
        type            omegaWallFunction;
        blending        binomial;
        n               2;
        value           nonuniform List<scalar> 0();
    }
    Cyli
    {
        type            omegaWallFunction;
        blending        binomial;
        n               2;
        value           nonuniform List<scalar> 0();
    }
    procBoundary3to0
    {
        type            processor;
        value           nonuniform List<scalar> 7(49668.259 95207.32 95207.32 103858.07 103858.07 86874.71 86874.71);
    }
    procBoundary3to1
    {
        type            processor;
        value           nonuniform List<scalar> 
62
(
25972.145
28060.153
30983.41
34604.99
38654.768
42785.762
46516.322
50140.514
52830.18
53434.949
52689.327
50552.322
47533.046
44159.175
40539.064
36950.879
33651.204
30674.972
28033.481
25679.366
23567.133
21674.527
19962.892
18408.288
16991.822
15700.562
14521.175
13443.3
12457.717
11558.685
10739.522
9994.3487
9316.2512
8696.6361
8125.3673
7593.2593
7095.1449
6631.2519
6204.2315
5813.2995
5371.984
5371.984
5038.1789
4724.7439
4433.1707
4161.1734
3908.0803
3670.188
3449.399
3240.6694
3048.8342
2865.0336
2699.5148
2537.3396
2395.4319
2250.6576
2134.0393
2002.3803
1911.5831
1786.4724
1725.7539
1583.2982
)
;
    }
    procBoundary3to2
    {
        type            processor;
        value           nonuniform List<scalar> 
35
(
14.100572
10.070508
7.1810785
4913.0028
3543.8723
2530.7003
1792.7959
1262.7159
886.17827
620.92094
435.07517
305.23553
214.59531
151.2633
106.93149
75.827859
53.948838
38.511883
27.578493
19.789928
19.789928
60922.828
60922.828
52515.252
44800.701
37623.256
31042.805
25148.201
20012.138
15649.761
12028.105
9089.77
6761.6592
6761.6592
74942.684
)
;
    }
}


// ************************************************************************* //
