/*--------------------------------*- C++ -*----------------------------------*\
| =========                 |                                                 |
| \\      /  F ield         | OpenFOAM: The Open Source CFD Toolbox           |
|  \\    /   O peration     | Version:  2406                                  |
|   \\  /    A nd           | Website:  www.openfoam.com                      |
|    \\/     M anipulation  |                                                 |
\*---------------------------------------------------------------------------*/
FoamFile
{
    version     2.0;
    format      ascii;
    arch        "LSB;label=32;scalar=64";
    class       volScalarField;
    location    "0.08";
    object      Ma;
}
// * * * * * * * * * * * * * * * * * * * * * * * * * * * * * * * * * * * * * //

dimensions      [0 0 0 0 0 0 0];

internalField   nonuniform List<scalar> 
2065
(
0.1589314
0.16019943
0.16149895
0.16286997
0.16422988
0.16554684
0.16683529
0.16809018
0.16940467
0.17088577
0.17238457
0.17393847
0.17549555
0.1769708
0.17786347
0.17770144
0.17540262
0.17121006
0.16840318
0.16675282
0.1653556
0.16409076
0.16293946
0.16194478
0.16088327
0.16003727
0.15907797
0.15848117
0.15781283
0.15665318
0.15157203
0.15477121
0.15643756
0.15820034
0.15997098
0.1617137
0.16341059
0.16506011
0.16666788
0.1682874
0.16997223
0.17165914
0.17335474
0.17500539
0.17652147
0.17739239
0.17712991
0.17466141
0.17053727
0.16798376
0.16646226
0.16512827
0.16391005
0.16279496
0.161829
0.16078911
0.15996056
0.15901205
0.15842608
0.15776332
0.15656683
0.15154751
0.14999942
0.15204569
0.15429343
0.15652823
0.15871139
0.1608325
0.1628863
0.16487426
0.16682854
0.16877883
0.17069134
0.17256094
0.17433329
0.17591027
0.17678624
0.17643651
0.17381496
0.16984068
0.16755995
0.16615422
0.16488423
0.16371434
0.16263644
0.16170048
0.16068419
0.15987313
0.158936
0.15836115
0.15770604
0.156488
0.15151834
0.14543127
0.14779207
0.1504014
0.15302227
0.15559825
0.15811149
0.16054959
0.16290442
0.16518953
0.16742111
0.16957148
0.17162756
0.17353207
0.17517107
0.17604846
0.17558669
0.17281199
0.16905493
0.16707024
0.16579203
0.16459641
0.16348301
0.16245007
0.16154918
0.1605619
0.15977111
0.15884879
0.15828683
0.15763961
0.1564361
0.15148438
0.14119749
0.14378407
0.1466417
0.14955408
0.15245336
0.15530757
0.15809314
0.16079025
0.16339382
0.16590453
0.16829591
0.17054459
0.17258652
0.17428553
0.1751511
0.17454452
0.17162627
0.168194
0.16652703
0.16538275
0.16427162
0.16322181
0.16223975
0.16137759
0.1604243
0.15965452
0.15875005
0.15820124
0.15756303
0.15639355
0.151445
0.13740951
0.14013532
0.1431377
0.14623933
0.14937219
0.15249292
0.15556655
0.1585611
0.16145387
0.16422809
0.16685279
0.16929177
0.17146971
0.1732216
0.1740515
0.17326194
0.1702254
0.1672644
0.16591614
0.16491629
0.16390101
0.1629228
0.16199926
0.16118048
0.16026801
0.15952043
0.15863881
0.15810333
0.15747454
0.15635038
0.15140787
0.13419563
0.13698179
0.14003126
0.14321406
0.14647442
0.14976544
0.15304415
0.15626795
0.15939876
0.16240237
0.16523715
0.16785116
0.17015257
0.171939
0.17269331
0.17168038
0.16860738
0.16627559
0.16523216
0.16438722
0.16348127
0.16258372
0.16172652
0.16095582
0.16009162
0.15936667
0.15851376
0.15799107
0.15737238
0.15630356
0.15136493
0.13174538
0.13446849
0.13745344
0.14060505
0.14387917
0.14723077
0.15061346
0.1539775
0.15727282
0.1604495
0.16345117
0.16620712
0.16860283
0.17038584
0.17100238
0.16972947
0.16682371
0.16522165
0.16446577
0.16378685
0.16300537
0.16219868
0.16141621
0.16069913
0.15989153
0.15919038
0.15837322
0.15786306
0.15725506
0.15625577
0.15131484
0.13007026
0.13264439
0.13547558
0.1384971
0.14167858
0.14498025
0.14835714
0.15175759
0.15512456
0.15839566
0.16149853
0.16434085
0.16677827
0.16848977
0.16887721
0.16730703
0.16497078
0.16408621
0.16360802
0.1631069
0.16246707
0.16176323
0.16106406
0.16040726
0.15966434
0.15898901
0.1582143
0.15771701
0.15712184
0.15620421
0.15124815
0.12914973
0.13151585
0.13412959
0.13694257
0.1399344
0.14307842
0.14633687
0.14966151
0.15299326
0.15626082
0.15937581
0.16222135
0.16461421
0.16614491
0.16618067
0.16449118
0.16314883
0.16286445
0.162651
0.16233936
0.16185891
0.16127089
0.16066406
0.1600763
0.15940525
0.15876
0.15803344
0.1575505
0.15697284
0.15613715
0.15117549
0.12887796
0.13099673
0.13334686
0.13589314
0.13862224
0.14151918
0.14455875
0.14770056
0.15088705
0.15404035
0.15705537
0.15978518
0.16199254
0.16317724
0.16277629
0.16159775
0.16139418
0.1615466
0.16159342
0.16147954
0.16117557
0.16071564
0.16021079
0.15970356
0.15910931
0.15850106
0.15782646
0.15736032
0.15680748
0.15603906
0.15109989
0.12922775
0.13101808
0.1330272
0.13523098
0.13762868
0.14020848
0.14295027
0.14581786
0.14875386
0.15167249
0.1544474
0.15688923
0.1586706
0.15932261
0.15894503
0.1590736
0.15963209
0.16014353
0.16044897
0.16052812
0.1604159
0.16009201
0.1596982
0.15928631
0.15877041
0.1582096
0.1575898
0.15714374
0.15662237
0.15591775
0.1510185
0.12974918
0.13121232
0.13288015
0.1347307
0.13676143
0.13897145
0.14134485
0.1438447
0.1464086
0.14893648
0.1512769
0.15323101
0.15448592
0.15493946
0.15570307
0.15688512
0.15788729
0.15864934
0.15919935
0.15950979
0.15958519
0.15939513
0.15912212
0.15882216
0.15838363
0.15788244
0.15732093
0.15689892
0.15641197
0.15577458
0.15091247
0.13003301
0.13121603
0.13257306
0.13408264
0.1357486
0.13755919
0.13950238
0.14154706
0.14363175
0.14565141
0.14745947
0.14893808
0.15016361
0.15158555
0.15333986
0.1548465
0.15606567
0.15707923
0.15786188
0.15840421
0.15870623
0.15862316
0.15848256
0.15830493
0.1579481
0.15751496
0.15701759
0.1566256
0.15617178
0.15560359
0.15078882
0.12972147
0.13048776
0.13145471
0.13265665
0.1340456
0.13551485
0.13706421
0.13872439
0.14047947
0.14221684
0.14392972
0.1456819
0.14754149
0.14955315
0.15133423
0.15295394
0.15433296
0.15548356
0.15644196
0.15722713
0.15774572
0.15780486
0.15778499
0.15772546
0.15746804
0.15710381
0.1566766
0.15632505
0.15590135
0.15540497
0.15063902
0.13071234
0.1312495
0.1318452
0.13253061
0.13339074
0.13443969
0.13566477
0.13705231
0.13852275
0.14016082
0.14194988
0.14388803
0.14593779
0.14777422
0.14957252
0.15124761
0.15267909
0.15394066
0.15501702
0.15597331
0.1567214
0.156937
0.15703353
0.15708789
0.15694006
0.15665043
0.15629384
0.1559965
0.15560223
0.15517464
0.15048842
0.13242997
0.13296061
0.13354359
0.13416668
0.13483958
0.13557095
0.13632106
0.13710403
0.13813857
0.13943851
0.14101591
0.14263726
0.14436715
0.14625416
0.14809405
0.14977575
0.15121783
0.15252998
0.15369442
0.15474164
0.15562454
0.15600725
0.15624734
0.15639959
0.15635709
0.15616137
0.1558698
0.15563739
0.15527465
0.15490316
0.15024298
0.13367138
0.13403037
0.13445289
0.13495468
0.13555045
0.13627688
0.13718677
0.13824098
0.13916895
0.14006995
0.14090395
0.14210178
0.14349205
0.14501724
0.1467312
0.14845173
0.14986295
0.15121377
0.15250361
0.15362832
0.15451544
0.15500679
0.15543306
0.15567185
0.1557218
0.15563146
0.1554102
0.15524339
0.15491522
0.15460646
0.15005743
0.13592215
0.13623054
0.13657517
0.13695454
0.13738114
0.13784887
0.13833275
0.13885608
0.13950777
0.140349
0.14136236
0.14227584
0.14326523
0.14445063
0.14575414
0.14721928
0.14873582
0.15002344
0.15133696
0.15259633
0.15348554
0.15398703
0.15455018
0.15492232
0.15505268
0.15504981
0.15491669
0.15481396
0.15452971
0.15428881
0.14982773
0.13731403
0.13751802
0.13775965
0.13804668
0.13838559
0.13878664
0.13926794
0.13984429
0.14048622
0.14114944
0.14183365
0.14273127
0.14367305
0.14441628
0.14537858
0.14646632
0.14778447
0.14909955
0.15020585
0.1515169
0.15250225
0.15301267
0.15362139
0.15414265
0.15436017
0.15442689
0.15437172
0.15434569
0.15412102
0.15395272
0.14963682
0.13942335
0.13960211
0.13980249
0.140023
0.14026864
0.14054705
0.14085876
0.14119035
0.14156617
0.14203344
0.14261467
0.14320166
0.14385931
0.14479351
0.14548977
0.14627534
0.14730877
0.1483833
0.14936109
0.15037889
0.15142464
0.1521291
0.15270813
0.153312
0.15364088
0.15378017
0.15378177
0.15383585
0.15367066
0.15362166
0.14946981
0.14072225
0.14083119
0.14096178
0.1411167
0.1412986
0.14151141
0.14176251
0.14206236
0.14241783
0.14282085
0.14326482
0.14381464
0.14443098
0.14496195
0.14574171
0.14641887
0.14713993
0.14800851
0.14891016
0.1496764
0.15040005
0.15125958
0.15188112
0.15247151
0.15290213
0.15310392
0.1531766
0.15328501
0.15318038
0.15326402
0.14930947
0.14264877
0.14274241
0.14284346
0.14295355
0.14307725
0.14321909
0.14338307
0.14357207
0.14378111
0.14400987
0.14427373
0.14456108
0.14490946
0.14541019
0.14584514
0.14646127
0.14705052
0.14778174
0.14865686
0.14931136
0.1498653
0.15043642
0.15118256
0.15171489
0.15216367
0.15242958
0.15256309
0.15272118
0.15266546
0.15286814
0.14913185
0.14377154
0.14382395
0.14388632
0.14396
0.1440469
0.14414906
0.1442691
0.1444111
0.14458159
0.14478594
0.14502536
0.14532117
0.14564786
0.14595864
0.1463709
0.14669192
0.14704871
0.14760004
0.14820379
0.14896721
0.14956248
0.14997299
0.15057736
0.15107382
0.15148587
0.15178711
0.15193949
0.15215171
0.15212068
0.15241509
0.14894519
0.14541138
0.14544794
0.14548932
0.14553656
0.14559103
0.14565425
0.14572797
0.14581433
0.14591578
0.14603439
0.14616527
0.14628583
0.14642919
0.1466358
0.14685631
0.14721659
0.1475258
0.14766473
0.14803596
0.1486098
0.14918936
0.14967057
0.15007223
0.15050538
0.1508752
0.15116019
0.1513134
0.15156185
0.15154132
0.15190906
0.14878551
0.14631154
0.14633197
0.14635678
0.14638607
0.14642045
0.14646075
0.14650815
0.14656474
0.14663323
0.14671679
0.14682226
0.14695786
0.14712609
0.14732167
0.14754236
0.14770389
0.14791448
0.14814203
0.14826946
0.14858041
0.14896045
0.14931389
0.14963925
0.14997363
0.15031566
0.15053533
0.150698
0.15094817
0.15095176
0.15140863
0.14858585
0.14746785
0.14747829
0.14749017
0.1475038
0.14751989
0.14753928
0.14756289
0.14759139
0.14762613
0.14767007
0.1477251
0.14779092
0.14784777
0.14790534
0.14799359
0.14814175
0.14830077
0.14845277
0.14859925
0.14877753
0.14890839
0.14900934
0.1492649
0.1495334
0.14981031
0.14996373
0.15009668
0.15033286
0.15032165
0.15077149
0.14831495
0.14809719
0.1480996
0.1481032
0.14810858
0.14811656
0.14812822
0.14814395
0.14816064
0.14817627
0.14819751
0.14822837
0.14827352
0.14833961
0.14840567
0.14846431
0.14853499
0.14862389
0.14870264
0.14874828
0.14881418
0.14879759
0.14884274
0.14906537
0.14919527
0.14934482
0.1494263
0.14948352
0.14970242
0.14959082
0.15009398
0.14800585
0.14863942
0.1486409
0.14864269
0.14864464
0.14864665
0.14864872
0.14865106
0.14865349
0.14865606
0.14865955
0.14866351
0.14866891
0.14867771
0.14869048
0.14870951
0.14873763
0.1487808
0.14881396
0.14880117
0.14871499
0.14865263
0.14877267
0.14899484
0.14893983
0.14893706
0.14898899
0.14898122
0.14917286
0.14889142
0.1495067
0.1477667
0.14881655
0.14881809
0.14882005
0.14882199
0.14882371
0.1488249
0.14882562
0.14882492
0.14882288
0.14881911
0.14881416
0.14880844
0.14880384
0.14880323
0.1488102
0.14882615
0.14885209
0.14886356
0.14882271
0.14871398
0.14861411
0.14870366
0.14881905
0.14869773
0.14870256
0.14875658
0.14868835
0.14877743
0.1485419
0.14890993
0.14767126
0.1490978
0.14909863
0.14909938
0.14910083
0.14910351
0.14910819
0.14911541
0.14912542
0.14913809
0.14915288
0.14916902
0.1491855
0.14920125
0.14921529
0.14922721
0.14923903
0.14925778
0.14927018
0.14919682
0.14892105
0.14872952
0.14874992
0.14866143
0.14854643
0.14855326
0.14847197
0.14832913
0.1483611
0.14827732
0.1482424
0.14789774
0.086245149
0.10473606
0.11697583
0.12606596
0.13372888
0.1405942
0.14686232
0.15216855
0.15730597
0.16205008
0.16636187
0.17025275
0.17375075
0.17685421
0.17953005
0.18162762
0.18271112
0.18242529
0.17966221
0.17491043
0.17137646
0.1689588
0.16698707
0.16532173
0.16370664
0.16245083
0.16119158
0.1603383
0.15955927
0.15777005
0.15219139
0.11102572
0.12036914
0.12747894
0.13367951
0.13963091
0.14542066
0.15078788
0.15569352
0.16030666
0.16452785
0.16836692
0.17185245
0.17500786
0.17781746
0.18023361
0.18204727
0.18283038
0.1822171
0.17904849
0.17428128
0.17098802
0.16868955
0.16677818
0.16515167
0.16356762
0.16233809
0.16109644
0.16025915
0.15948209
0.15770814
0.15215945
0.11839608
0.12514039
0.13154243
0.1377047
0.14358437
0.14905258
0.15402107
0.15853053
0.16269049
0.1664882
0.16995499
0.17312139
0.17600352
0.17857483
0.18077658
0.18234746
0.18287545
0.18195949
0.17844053
0.17375209
0.17067409
0.1684547
0.1665871
0.16499283
0.16343545
0.16222812
0.16100209
0.16017908
0.15940632
0.15765235
0.15212248
0.12510682
0.13148065
0.13745746
0.14300648
0.14816545
0.15292636
0.15727451
0.16125373
0.16492942
0.16830508
0.17141164
0.17427469
0.17689952
0.17924716
0.18124465
0.18256851
0.18286357
0.18163984
0.17779891
0.1732373
0.17035061
0.1682073
0.16638718
0.16482767
0.16329936
0.16211604
0.16090695
0.16009896
0.1593294
0.15760204
0.15208443
0.13230499
0.13794797
0.14313361
0.14793982
0.15241195
0.15653527
0.16031053
0.16378104
0.16699478
0.16997042
0.1727385
0.17531831
0.17770303
0.17984053
0.18163678
0.18272272
0.1828062
0.18125716
0.17715438
0.17275224
0.17004528
0.16796912
0.16619266
0.16466619
0.16316566
0.16200475
0.16081174
0.16001798
0.15925241
0.15755195
0.15204738
0.13994522
0.14454223
0.14881927
0.15281623
0.15654146
0.15998674
0.16316865
0.16612235
0.1688856
0.17148086
0.17393212
0.176249
0.17841098
0.18035178
0.18194957
0.18281485
0.18271431
0.18083162
0.17649887
0.17229377
0.16974732
0.167732
0.16599811
0.1645045
0.16303192
0.16189332
0.16071652
0.15993688
0.15917493
0.15749768
0.15201257
0.14755156
0.15108344
0.15440432
0.15753138
0.16047048
0.16322722
0.16581624
0.16826377
0.17059709
0.17283508
0.17499204
0.17706631
0.17902305
0.18078127
0.18218769
0.182859
0.18258702
0.1803538
0.1758497
0.17186366
0.16945889
0.16749956
0.16580649
0.16434495
0.16289972
0.16178247
0.1606214
0.15985537
0.15909725
0.15743656
0.15197986
0.15516942
0.15753386
0.15980631
0.16201253
0.16415703
0.16623146
0.16824089
0.17020194
0.17212976
0.17403503
0.17592046
0.17777236
0.17954169
0.18113277
0.18236034
0.18287465
0.18240577
0.17982519
0.17521297
0.17145951
0.16917749
0.16727037
0.16561679
0.16418677
0.16276856
0.16167212
0.16052658
0.15977383
0.15901938
0.15738473
0.15194936
0.16242161
0.16360655
0.16484867
0.16616619
0.16754944
0.16896962
0.17042836
0.17193204
0.17348291
0.1750818
0.1767191
0.17836912
0.1799695
0.18140966
0.18247545
0.18285152
0.18217027
0.17925483
0.17459831
0.17107948
0.1689028
0.16704515
0.16542979
0.16403065
0.16263897
0.16156254
0.16043215
0.15969224
0.15894156
0.15733765
0.15192165
0.16901211
0.16912024
0.16943784
0.16993986
0.17060831
0.17141721
0.17236726
0.17344958
0.1746554
0.17597596
0.17738925
0.17885802
0.18030744
0.18160707
0.18252775
0.18278167
0.18187766
0.17865092
0.17401257
0.17072052
0.16863402
0.16682377
0.16524546
0.16387658
0.16251092
0.16145384
0.16033827
0.15961081
0.158864
0.15729073
0.15189657
0.17488343
0.17404076
0.17352259
0.173276
0.17329082
0.17355029
0.17404749
0.17474992
0.17564604
0.17671803
0.17793196
0.17923947
0.18055422
0.18172259
0.18252534
0.18266357
0.18153573
0.17803525
0.17345934
0.17037984
0.16837098
0.16660645
0.1650641
0.1637249
0.16238467
0.16134621
0.16024507
0.15952962
0.1587869
0.15724471
0.15187352
0.17988613
0.1782597
0.1770156
0.17612208
0.1755722
0.1753603
0.17545571
0.17582666
0.17645307
0.17730777
0.1783469
0.17951119
0.18070055
0.18175732
0.18247071
0.18250242
0.1811536
0.17742039
0.17293862
0.17005479
0.16811355
0.16639334
0.16488587
0.16357579
0.16226032
0.16123982
0.16015266
0.15944882
0.1587105
0.15720478
0.15185356
0.18388215
0.18165223
0.17984565
0.17844513
0.17744394
0.17682894
0.17658265
0.17667381
0.17707048
0.17774086
0.17862865
0.17966384
0.18075382
0.18173499
0.18236838
0.18230111
0.18074069
0.17681153
0.17244982
0.16974342
0.16786182
0.16618463
0.16471097
0.1634295
0.16213804
0.16113485
0.16006119
0.15936853
0.15863488
0.15716062
0.15183538
0.18680579
0.18416521
0.18197737
0.18021616
0.17887487
0.1779469
0.17742212
0.17727396
0.1774785
0.17799398
0.17875973
0.17970841
0.18074776
0.18166099
0.18222256
0.18205268
0.18030253
0.17621594
0.17199159
0.16944387
0.16761596
0.16598055
0.16453965
0.16328621
0.16201802
0.16103143
0.15997081
0.15928885
0.15856001
0.15711915
0.15181601
0.18875088
0.18582086
0.18337989
0.18138035
0.17980688
0.17865338
0.17791703
0.17759101
0.17765911
0.17807619
0.17878237
0.17968701
0.18067511
0.18152574
0.1820204
0.18176436
0.17984657
0.17563875
0.17156203
0.16915505
0.16737627
0.16578133
0.16437223
0.16314607
0.16190046
0.16092972
0.15988165
0.15920986
0.15848596
0.15707865
0.15179878
0.18990071
0.186811
0.18418578
0.18201116
0.18027901
0.17897976
0.17810713
0.17769205
0.17770213
0.17806374
0.17871928
0.17958059
0.18051993
0.18132955
0.18177002
0.18144173
0.17938118
0.17508322
0.17116021
0.16887629
0.16714304
0.16558719
0.16420888
0.16300921
0.16178546
0.16082982
0.15979377
0.15913162
0.15841282
0.15703582
0.15178192
0.19040057
0.18730112
0.18458915
0.18230823
0.18047571
0.1790911
0.17815006
0.17767979
0.17763269
0.17793557
0.1785355
0.1793631
0.18028159
0.18107363
0.18147689
0.18108879
0.17891079
0.17455232
0.17078304
0.16860675
0.16691649
0.16539828
0.16404966
0.16287576
0.16167308
0.16073185
0.15970724
0.15905421
0.15834067
0.15699478
0.1517647
0.18951324
0.18676883
0.18427444
0.18210046
0.18030283
0.17891871
0.17797214
0.17746885
0.17737033
0.17763734
0.17821797
0.17903759
0.17996004
0.18075884
0.18114538
0.1807125
0.1784397
0.17404744
0.1704279
0.16834617
0.16669667
0.16521462
0.1638946
0.16274576
0.1615634
0.16063594
0.15962216
0.15897777
0.15826971
0.15695379
0.15174631
0.18739451
0.18506478
0.18294579
0.18107711
0.17949977
0.17825911
0.1774025
0.17695565
0.17688543
0.17716876
0.17776665
0.1786056
0.17955506
0.18038552
0.18077791
0.18031592
0.17797295
0.17356953
0.17009287
0.16809406
0.16648366
0.16503637
0.16374387
0.16261941
0.16145668
0.16054236
0.15953883
0.15890254
0.15820016
0.1569092
0.1517237
0.18450207
0.18259632
0.18088172
0.17938441
0.17812273
0.17712994
0.17646281
0.17615334
0.17617503
0.17653083
0.17718265
0.17806807
0.17906671
0.17995366
0.180376
0.17990112
0.1775147
0.17311849
0.16977581
0.16785076
0.16627821
0.16486431
0.16359821
0.16249736
0.16135355
0.16045164
0.15945771
0.15882883
0.15813221
0.156861
0.1517052
0.18077996
0.1794066
0.17818275
0.17712851
0.17625405
0.17558775
0.17518887
0.17507262
0.17524522
0.17572424
0.17646708
0.17742649
0.17849571
0.17946332
0.17994049
0.17947311
0.17706946
0.17269507
0.16947729
0.16761842
0.16608242
0.16470026
0.16345908
0.16238074
0.16125487
0.16036437
0.1593791
0.15875672
0.15806565
0.15681656
0.15168359
0.17621075
0.17547577
0.17485594
0.17433751
0.17392733
0.17366433
0.17358693
0.17371677
0.17410038
0.17474689
0.17561783
0.17667976
0.17784089
0.17891314
0.17947049
0.17904744
0.17664649
0.1723053
0.16920214
0.16740058
0.16589892
0.16454607
0.16332767
0.16227019
0.16116085
0.16028055
0.15930263
0.15868578
0.15799977
0.15677941
0.15165941
0.17072556
0.17068416
0.17078532
0.17093367
0.17109585
0.17130765
0.17161905
0.17206567
0.17272103
0.17358321
0.17462201
0.17581842
0.17709488
0.1782971
0.1789627
0.17862334
0.17625819
0.17196128
0.16895409
0.1671971
0.16572635
0.16440001
0.16320201
0.1621638
0.16106944
0.16019868
0.15922665
0.15861492
0.15793358
0.15674316
0.15163034
0.16449439
0.16485158
0.16558331
0.16647255
0.16735778
0.16819398
0.1690463
0.16993006
0.17095934
0.172129
0.17340114
0.17478166
0.17620942
0.17757631
0.17839301
0.17819512
0.17591493
0.17166558
0.16871949
0.16699522
0.16555347
0.16425292
0.16307473
0.16205589
0.16097616
0.16011589
0.15914902
0.15854328
0.15786724
0.15670112
0.15159884
0.078849244
0.099589263
0.11293681
0.12280879
0.13093743
0.13807712
0.1445738
0.15030533
0.1556747
0.16064979
0.16519278
0.16929932
0.17299031
0.17626573
0.17909471
0.18135918
0.18262015
0.18251956
0.17999426
0.17529603
0.17164099
0.16916066
0.16715381
0.16546091
0.16382368
0.16254843
0.16127574
0.16040947
0.15962424
0.15783016
0.15222738
0.077614134
0.099088515
0.11266568
0.12257963
0.13065469
0.13770044
0.14408459
0.14982236
0.15516245
0.16013795
0.16471675
0.16888125
0.17263873
0.17598226
0.1788726
0.18120559
0.18252244
0.18252183
0.18012771
0.17548452
0.17177533
0.16927111
0.16725181
0.16554605
0.16389885
0.16261292
0.16133378
0.1604606
0.15966989
0.15787759
0.15225606
0.076921728
0.098973361
0.11268708
0.12250988
0.13041554
0.13731166
0.1435666
0.14924555
0.15455095
0.1595295
0.16414804
0.16837725
0.17221054
0.17563318
0.17859828
0.18101264
0.18241468
0.18250451
0.18027486
0.1756921
0.17191247
0.16937731
0.16734578
0.16562799
0.16397226
0.16267642
0.16139187
0.1605126
0.15971639
0.15791812
0.15228366
0.076119225
0.098655172
0.11255763
0.12233892
0.13013652
0.13691226
0.14305246
0.1486678
0.15393705
0.1589103
0.1635586
0.16784507
0.17175053
0.17525192
0.17829523
0.18079258
0.18229235
0.18248219
0.18042171
0.17591659
0.17206605
0.16949455
0.16744865
0.16571749
0.1640523
0.16274569
0.16145508
0.16056909
0.15976682
0.15795374
0.15230796
0.07497653
0.097932976
0.11221144
0.12207335
0.12985102
0.1365418
0.1425797
0.14812892
0.15335223
0.15830493
0.1629669
0.16729776
0.17126731
0.17484354
0.17796537
0.1805434
0.1821514
0.18245126
0.1805635
0.17614977
0.17223322
0.16962323
0.16756164
0.16581611
0.16414046
0.16282212
0.16152456
0.16063093
0.073980629
0.097089544
0.11181277
0.12183381
0.12961305
0.13622892
0.14216723
0.14764019
0.15280369
0.15771958
0.16237831
0.036169552
0.037998385
0.039774959
0.041212592
0.042271758
0.018887313
0.033337671
0.16165575
0.15853259
0.0088420084
0.024097603
0.043581644
0.057121575
0.010099578
0.027828542
0.05055152
0.075493782
0.095412248
0.006551573
0.028069791
0.055139945
0.084674588
0.10220523
0.11107701
0.027462975
0.056966791
0.090736836
0.1061955
0.11367233
0.11914035
0.062853155
0.095216804
0.10926643
0.11665671
0.12227928
0.12699542
0.096391639
0.11331206
0.12323254
0.12877157
0.13264666
0.13586172
0.11897574
0.1355509
0.13983996
0.14139454
0.14293088
0.14465293
0.13833059
0.15145939
0.15284238
0.15266394
0.15283538
0.15341837
0.15509697
0.16757975
0.1661372
0.16381398
0.16244972
0.16186073
0.17070656
0.17982957
0.17674452
0.17336777
0.17103593
0.16951847
0.18486101
0.1911379
0.18632871
0.18182437
0.17859634
0.17630283
0.19815904
0.1997191
0.19372895
0.18871236
0.18490845
0.18202423
0.21086333
0.20715204
0.19953494
0.19412848
0.18990971
0.18657659
0.21785242
0.21339347
0.2045258
0.19832776
0.19364904
0.18992169
0.2222628
0.21693943
0.20832978
0.20177114
0.19651093
0.19226391
0.2227226
0.21842305
0.21050256
0.20369847
0.19812054
0.19360819
0.22287496
0.21819317
0.21043163
0.20389784
0.19853364
0.194078
0.22335662
0.21742607
0.20873196
0.20227186
0.19715172
0.19286436
0.22255153
0.21618529
0.20740573
0.20048535
0.19501965
0.190567
0.22012873
0.21290177
0.20417547
0.19736782
0.19193663
0.18746802
0.21634257
0.20864532
0.19989223
0.19317986
0.18783784
0.18342178
0.21111745
0.20283052
0.19430158
0.18785621
0.18272684
0.17844962
0.19585984
0.18756607
0.18142291
0.17656469
0.17250584
0.17977875
0.17395356
0.16944203
0.16585371
0.15462405
0.15007977
0.14537606
0.14091004
0.13683381
0.13326086
0.13036739
0.12827778
0.12699194
0.12648577
0.12665669
0.12737407
0.12667901
0.12821464
0.12754208
0.1287655
0.12814356
0.12888708
0.12973729
0.13017035
0.1315467
0.13193293
0.1332004
0.13338806
0.13549986
0.1356785
0.13707964
0.13717252
0.13919502
0.13929015
0.14061695
0.14065469
0.14253336
0.14258173
0.14373331
0.14374422
0.14538222
0.1453915
0.14630283
0.14630371
0.14746672
0.1474651
0.14810375
0.14809977
0.14864055
0.14864042
0.14881341
0.14881554
0.14909579
0.14909857
)
;

boundaryField
{
    Side1
    {
        type            empty;
    }
    Inlet
    {
        type            calculated;
        value           nonuniform List<scalar> 
92
(
0.15068845
0.1503348
0.15066123
0.15064417
0.15028355
0.1506055
0.15058385
0.1505586
0.15052504
0.15014865
0.15045007
0.15007017
0.15035681
0.15029407
0.15022041
0.14980523
0.15002048
0.14959297
0.14981393
0.14971836
0.14930002
0.14921882
0.14945993
0.1490328
0.14928047
0.14884508
0.14871146
0.14888825
0.14876705
0.14838498
0.14977318
0.14977318
0.14977318
0.14977318
0.14977318
0.14977318
0.14977318
0.14977318
0.14977318
0.14977318
0.14977318
0.14977318
0.14977318
0.14977318
0.14977318
0.14977318
0.14977318
0.14977318
0.14977318
0.14977318
0.14977318
0.14977318
0.14977318
0.14977318
0.14977318
0.14977318
0.14977318
0.14977318
0.14977318
0.14977318
0.14883495
0.14977318
0.15099683
0.150981
0.15096257
0.15094357
0.15092507
0.15090763
0.15089121
0.15087587
0.15086197
0.15084941
0.1508379
0.15082798
0.150819
0.15080949
0.15079946
0.15079095
0.15078374
0.15077481
0.15076385
0.15041322
0.15074398
0.15073211
0.1507177
0.15070197
0.15101478
0.15102903
0.15104275
0.15105483
0.14977318
0.14977318
)
;
    }
    Side2
    {
        type            empty;
    }
    Outlet
    {
        type            calculated;
        value           nonuniform List<scalar> 0();
    }
    Botwall
    {
        type            calculated;
        value           nonuniform List<scalar> 0();
    }
    Cyli
    {
        type            calculated;
        value           uniform 0;
    }
    procBoundary2to0
    {
        type            processor;
        value           nonuniform List<scalar> 
55
(
0.015538503
0.017018626
0.018655109
0.020517788
0.022498552
0.004626007
0.013432151
0.008462093
0.0068269776
0.0068269776
0.17126862
0.16579323
0.16579323
0.15320269
0.15044236
0.010804589
0.010804589
0.012285266
0.012285266
0.20455017
0.20455017
0.18780862
0.18780862
0.1467792
0.1421047
0.13777615
0.13385004
0.13041778
0.12759429
0.12548602
0.12414461
0.12355807
0.12367652
0.12439059
0.12550572
0.12550572
0.12524851
0.12643029
0.12743721
0.129308
0.13115203
0.13302337
0.13531448
0.13698384
0.13909528
0.14057559
0.14248
0.14372104
0.1453686
0.14630185
0.14746779
0.14810674
0.14864004
0.14881182
0.14909297
)
;
    }
    procBoundary2to3
    {
        type            processor;
        value           nonuniform List<scalar> 
35
(
0.15982169
0.15798965
0.15232993
0.16673924
0.17076312
0.17440873
0.17760763
0.18026211
0.18198726
0.1824069
0.18069347
0.1763901
0.17240874
0.16975914
0.16768161
0.16592151
0.16423506
0.16290454
0.16159946
0.15982169
0.16069745
0.07315685
0.043404736
0.096229801
0.11139777
0.1216305
0.12942619
0.13597146
0.14181006
0.14719585
0.15228655
0.15715146
0.16673924
0.16179159
0.043404736
)
;
    }
}


// ************************************************************************* //
