/*--------------------------------*- C++ -*----------------------------------*\
| =========                 |                                                 |
| \\      /  F ield         | OpenFOAM: The Open Source CFD Toolbox           |
|  \\    /   O peration     | Version:  2406                                  |
|   \\  /    A nd           | Website:  www.openfoam.com                      |
|    \\/     M anipulation  |                                                 |
\*---------------------------------------------------------------------------*/
FoamFile
{
    version     2.0;
    format      ascii;
    arch        "LSB;label=32;scalar=64";
    class       volScalarField;
    location    "0.038";
    object      alphat;
}
// * * * * * * * * * * * * * * * * * * * * * * * * * * * * * * * * * * * * * //

dimensions      [1 -1 -1 0 0 0 0];

internalField   nonuniform List<scalar> 
8260
(
0.040045896
0.045412242
0.051720569
0.058844554
0.066621443
0.074877834
0.083394042
0.091873359
0.099914068
0.10694133
0.1121438
0.11439759
0.11217755
0.10357274
0.086519725
0.060121654
0.031724596
0.014973256
0.0097369452
0.0080216349
0.007048308
0.0063769382
0.0059432916
0.0056190415
0.0053865542
0.0052378944
0.0051341792
0.0050550898
0.0050023286
0.0049639792
0.004943983
0.047401883
0.052929066
0.058994464
0.065666694
0.072904048
0.080575639
0.088473527
0.096300816
0.10364783
0.1099315
0.11431144
0.11564143
0.1123772
0.10261898
0.084356592
0.057244705
0.028990752
0.014076058
0.0094456525
0.0079017773
0.0069801151
0.0063371431
0.0059210279
0.0056051232
0.0053789273
0.0052335828
0.0051316353
0.0050534159
0.0050012355
0.0049632382
0.0049434739
0.05583032
0.061148678
0.066909013
0.07314933
0.079846265
0.086895104
0.09410597
0.10119056
0.10773461
0.11314104
0.11655641
0.1168092
0.11233762
0.10126173
0.081661153
0.053758767
0.026306817
0.013157859
0.0092502627
0.007838134
0.0069433414
0.0063157174
0.0059091382
0.005597634
0.0053748854
0.0052312603
0.005130251
0.0050523988
0.005000422
0.0049625859
0.0049429154
0.065439995
0.070326129
0.075641533
0.081364457
0.087456396
0.093813346
0.10025151
0.10648654
0.11210047
0.11648514
0.11877282
0.11777076
0.11190348
0.099322894
0.078249779
0.049582911
0.023532855
0.012355261
0.009065167
0.0077375887
0.0068814575
0.0062785929
0.005887926
0.0055839942
0.0053674364
0.0052268692
0.0051275823
0.0050505784
0.0049991618
0.0049616962
0.0049422796
0.076226683
0.080514617
0.085260022
0.090349511
0.095731103
0.1012927
0.10684633
0.11210392
0.11664015
0.11983569
0.12080797
0.11834649
0.11086904
0.096576448
0.073902187
0.044632993
0.020739849
0.011579813
0.0088688521
0.0076466697
0.0068272808
0.0062470755
0.0058700242
0.0055725903
0.0053613347
0.0052232737
0.0051253863
0.0050490276
0.0049979806
0.0049607947
0.0049415552
0.087983716
0.091603134
0.095663878
0.10000175
0.10455279
0.10919466
0.11373011
0.1178614
0.12115129
0.12296689
0.12241125
0.11825952
0.10893469
0.09271179
0.068342248
0.038870662
0.01823697
0.010864325
0.008673504
0.0075354784
0.0067576052
0.0062052754
0.0058456486
0.0055568278
0.0053527491
0.0052181368
0.0051222273
0.0050468721
0.004996432
0.004959678
0.0049407289
0.10034246
0.10325193
0.10653957
0.11002272
0.11362611
0.11721716
0.1205876
0.12342696
0.12528294
0.12550702
0.12318842
0.11709291
0.10566951
0.087305042
0.061238105
0.032386801
0.015875023
0.010224898
0.0084729082
0.0074252826
0.0066900131
0.0061655473
0.0058222721
0.0055418591
0.0053447062
0.0052132691
0.0051192056
0.0050447753
0.0049948418
0.0049584789
0.0049397872
0.11269906
0.11486795
0.11731398
0.11985418
0.12240191
0.12481347
0.12686823
0.1282411
0.12846315
0.12686955
0.12253735
0.11423108
0.10046381
0.079790853
0.052244863
0.02554039
0.013721623
0.0097537954
0.0082705298
0.0073007022
0.0066111145
0.0061178007
0.005793342
0.0055232989
0.0053345259
0.005207
0.0051153001
0.0050421246
0.0049928881
0.0049570451
0.0049387148
0.12409876
0.1255003
0.1270473
0.12856944
0.1299658
0.1310789
0.13167343
0.1314077
0.12979532
0.12615633
0.11956006
0.10878241
0.092473009
0.069454223
0.041191949
0.020044371
0.011939264
0.0093237745
0.0080587926
0.0071748903
0.0065336305
0.0060711596
0.0057642742
0.0055050141
0.0053245067
0.0052006367
0.0051113024
0.0050393874
0.0049908006
0.0049554616
0.0049374949
0.13304296
0.13366903
0.13427178
0.13471584
0.13488331
0.13459853
0.13360755
0.13154952
0.12792099
0.12203187
0.11295382
0.09949118
0.080567634
0.055530964
0.028698229
0.015643487
0.010570751
0.0089670232
0.0078449431
0.007038286
0.006448531
0.006018155
0.0057298476
0.0054835891
0.0053124419
0.0051927605
0.0051063585
0.0050360596
0.0049883041
0.004953594
0.004936107
0.1372839
0.13715546
0.13680655
0.13613978
0.13502404
0.13326788
0.13059656
0.12662938
0.12085091
0.11257514
0.10090019
0.084670788
0.063415952
0.037658909
0.019828998
0.012492563
0.0098003553
0.0086298835
0.0076246096
0.0069020781
0.006366595
0.0059665817
0.0056948612
0.0054622238
0.0053001816
0.0051844653
0.0051011271
0.005032507
0.0049855727
0.0049515028
0.004934525
0.13353355
0.13261134
0.13131613
0.1295607
0.12718253
0.12396111
0.11959806
0.11369899
0.10575644
0.095131032
0.081021881
0.062231527
0.040026401
0.023042998
0.014201977
0.010428765
0.0092618568
0.0082755558
0.0074206325
0.006761163
0.0062769424
0.0059111502
0.005654912
0.005437542
0.0052854999
0.0051745662
0.0050948389
0.0050282778
0.0049823436
0.0049490623
0.0049324179
0.11706609
0.11549452
0.11337104
0.1105991
0.10701632
0.10239181
0.096408093
0.088688599
0.078808415
0.06633401
0.051209815
0.03647114
0.023508574
0.014946101
0.010952353
0.0096279792
0.0087586068
0.0079678309
0.0072012561
0.0066364135
0.006192747
0.0058530853
0.0056161039
0.0054122797
0.0052701598
0.0051643106
0.0050881624
0.0050237238
0.0049787745
0.0049463256
0.0049297724
0.08251381
0.080323601
0.077638933
0.07449579
0.070750175
0.066219787
0.060709173
0.05415059
0.046507018
0.037856163
0.028699326
0.020358599
0.014345742
0.011070171
0.0096075945
0.0089331125
0.0082865976
0.0075679505
0.0069919728
0.0064923412
0.0061086162
0.0057967218
0.0055715986
0.0053836614
0.0052518873
0.0051526164
0.0050804319
0.0050184339
0.0049746221
0.0049431687
0.00492685
0.046489404
0.045088751
0.043357552
0.04129565
0.038760884
0.035691711
0.032300286
0.028535557
0.02442028
0.020059697
0.015839608
0.012463889
0.010412885
0.0094511855
0.0090142433
0.0084570765
0.0078033852
0.007283317
0.006771442
0.0063671311
0.0060189968
0.0057366199
0.0055318693
0.005353812
0.0052345241
0.0051404787
0.0050722541
0.0050127552
0.0049700563
0.0049396396
0.0049236907
0.022997872
0.02249645
0.021755117
0.020815864
0.019651481
0.018263719
0.016725574
0.015071433
0.013356893
0.011692366
0.010248538
0.0092983935
0.0088075578
0.0088197941
0.008130334
0.0076398366
0.0073426737
0.0068648994
0.0065357021
0.0061958551
0.0059276839
0.0056801303
0.0054834271
0.0053214986
0.0052151358
0.0051270755
0.0050626881
0.005006207
0.0049648577
0.0049356124
0.0049204084
0.012201118
0.0120815
0.011834944
0.011491122
0.011066868
0.010585389
0.010072607
0.0095281297
0.008940027
0.0084855262
0.0082642642
0.008121945
0.00826823
0.0078500421
0.0075885819
0.0072998419
0.0068660321
0.0066344836
0.0063327513
0.0060554583
0.0058112367
0.0056108109
0.0054403145
0.0052889194
0.0051963735
0.0051128792
0.0050527505
0.0049991674
0.0049590428
0.0049311591
0.0049166535
0.0082547372
0.0082272521
0.008153597
0.0080504162
0.0079168946
0.0077778743
0.0076553455
0.0075436989
0.007479497
0.0074792636
0.0075829014
0.0074859568
0.007063253
0.0070980915
0.0069265709
0.0066582661
0.0065407331
0.0062651863
0.0060877025
0.0058570822
0.0056929892
0.0055413575
0.0053783624
0.0052552032
0.0051751086
0.0050969475
0.0050408596
0.0049907179
0.0049526565
0.0049261629
0.0049123556
0.0069704672
0.0069244755
0.0068961704
0.0068816675
0.0068804191
0.0068793887
0.006896945
0.0068645214
0.0068290559
0.0068130944
0.006698793
0.0065732147
0.0066027434
0.0063801572
0.0063720553
0.0063163433
0.0060788759
0.0059262595
0.0058333209
0.0057231753
0.0055537689
0.0054516318
0.0053239213
0.0052209222
0.0051521067
0.0050793207
0.0050283621
0.0049821006
0.0049454668
0.0049206882
0.004907659
0.0063894559
0.0063857361
0.0063790257
0.0063775073
0.0063930392
0.0064153724
0.0063866156
0.0063677989
0.0063145646
0.0061946101
0.0061409331
0.0060969704
0.0059861376
0.0059551422
0.0058939293
0.0058578973
0.0058340225
0.005770561
0.0056455313
0.0055005381
0.0054349942
0.0053816979
0.0052566348
0.0051806075
0.0051249316
0.0050625978
0.005013476
0.0049714568
0.0049375188
0.0049146618
0.0049027923
0.0059657325
0.0059598073
0.0059489374
0.0059236255
0.0058847365
0.0058306345
0.0058421886
0.0058354847
0.0058229357
0.0058111308
0.0057997278
0.0057792983
0.005713067
0.005751772
0.0056919919
0.0056658225
0.0055396893
0.0054847893
0.0054225982
0.0053628564
0.0053371492
0.0052807453
0.0052138847
0.0051432004
0.0050970458
0.0050434646
0.0049984809
0.0049605108
0.0049287968
0.0049082085
0.004897197
0.0055602942
0.0055614606
0.0055596572
0.0055550157
0.0055516939
0.0055627541
0.0055698248
0.0055652445
0.0055569742
0.0055384954
0.0055196906
0.0055178346
0.0055232092
0.0054465824
0.0054557951
0.0053841067
0.0053758013
0.0053145165
0.005305777
0.0052543276
0.0052141573
0.0051947774
0.0051590956
0.0051066034
0.0050651256
0.0050241255
0.0049804286
0.0049467423
0.0049199474
0.004901185
0.004891747
0.0053428936
0.0053444221
0.0053432005
0.0053396096
0.0053332069
0.005322392
0.0053096144
0.0052992796
0.0052948547
0.0052932303
0.0052915131
0.0052833789
0.005291208
0.0053062652
0.005282445
0.0052397096
0.0052436399
0.005215037
0.0051780905
0.0051565054
0.0051510537
0.0051054979
0.0050966576
0.0050677048
0.0050369261
0.0050003624
0.0049609339
0.0049340894
0.0049102681
0.004893914
0.004885402
0.0051378731
0.0051395752
0.0051395322
0.0051384906
0.0051373457
0.005136781
0.0051380365
0.0051470995
0.0051529685
0.0051579288
0.0051635438
0.005165288
0.0051554725
0.0051423951
0.0051265971
0.0051356632
0.0051071184
0.0050776218
0.0050847786
0.0050854611
0.0050796541
0.0050569941
0.0050312174
0.0050275642
0.0049959963
0.0049707885
0.004939513
0.0049197078
0.0049000375
0.0048866587
0.004879757
0.0050358491
0.0050378104
0.0050383429
0.0050378565
0.0050367012
0.0050345347
0.0050307936
0.0050253201
0.0050252896
0.0050262679
0.0050276089
0.0050291961
0.0050304581
0.005034998
0.0050424065
0.0050246458
0.0050360451
0.0050246369
0.0050280805
0.0050452205
0.0050347812
0.0050199785
0.0049870661
0.004970299
0.0049530974
0.0049421191
0.0049199615
0.0049062136
0.0048908263
0.0048795155
0.0048732666
0.0049513787
0.0049524358
0.0049527786
0.0049528007
0.0049529757
0.0049534225
0.0049541016
0.0049549961
0.0049568033
0.00495857
0.0049604956
0.0049622763
0.0049625101
0.0049574741
0.0049554401
0.0049568264
0.0049593418
0.0049711527
0.0049663176
0.0049547112
0.0049560741
0.0049495349
0.0049484755
0.0049298089
0.0049211832
0.0049130745
0.0049044234
0.0048918653
0.0048819271
0.0048731918
0.0048678818
0.004914722
0.0049156521
0.0049159361
0.0049157999
0.0049154461
0.0049148874
0.0049141547
0.0049137109
0.0049137442
0.0049137023
0.0049135689
0.0049134681
0.0049143744
0.0049157062
0.0049179913
0.0049192695
0.0049207239
0.0049211885
0.0049207759
0.0049149793
0.0049137494
0.0049101274
0.0049119285
0.0049091733
0.0049029914
0.0048977283
0.004894023
0.0048826606
0.0048747326
0.0048677553
0.0048637504
0.0048870047
0.0048873814
0.0048875193
0.0048875913
0.0048877377
0.0048879863
0.004888345
0.0048888792
0.0048895656
0.0048903885
0.0048915665
0.0048937051
0.0048972176
0.0049004666
0.0049019493
0.0049008323
0.0048980976
0.0048995879
0.0048985212
0.0048988455
0.0048977857
0.0048966663
0.0048955359
0.00489545
0.004892768
0.0048885529
0.0048819938
0.0048762525
0.0048695512
0.0048645232
0.0048619159
0.0048734619
0.0048736889
0.004873824
0.0048739626
0.0048741734
0.0048744647
0.0048748262
0.0048752979
0.0048759007
0.004876908
0.004878274
0.004879604
0.0048806173
0.0048808058
0.0048812043
0.0048824109
0.0048844429
0.0048857018
0.0048860933
0.004888063
0.0048896362
0.0048898382
0.0048865917
0.0048828581
0.0048832753
0.004878895
0.0048750569
0.0048707437
0.004866402
0.0048620988
0.0048581179
0.0048662183
0.0048663678
0.0048665025
0.0048666666
0.0048668774
0.004867131
0.0048673917
0.0048675315
0.0048676616
0.0048679869
0.0048687331
0.0048699617
0.0048707666
0.004870867
0.0048707022
0.0048707674
0.0048709723
0.0048710871
0.0048711981
0.0048717939
0.00487419
0.0048725358
0.0048751068
0.00487386
0.0048737119
0.0048723967
0.0048707085
0.0048681164
0.0048624519
0.004858466
0.0048584816
0.0048595469
0.0048596593
0.0048598223
0.0048600418
0.0048603364
0.0048607306
0.0048612508
0.0048619178
0.0048627326
0.0048636398
0.0048645411
0.0048658129
0.0048665292
0.0048669737
0.0048668393
0.0048666944
0.0048665367
0.0048663293
0.0048661892
0.0048661984
0.0048676418
0.0048667433
0.0048671072
0.004869435
0.0048686759
0.0048682846
0.0048673667
0.0048643349
0.0048624714
0.0048615918
0.004859935
0.00086900452
0.0018807292
0.0037687001
0.0065919315
0.010329747
0.015078286
0.020931795
0.027946294
0.036238422
0.045245515
0.055128287
0.065447286
0.075421545
0.083823998
0.088803856
0.087736898
0.077362369
0.05652253
0.032060581
0.015638132
0.0092702798
0.0073248412
0.0064805694
0.0059419982
0.0055709942
0.0053429866
0.0051956052
0.005099498
0.0050318928
0.0049866049
0.0049626644
0.0021338736
0.0042896853
0.0071303113
0.010532722
0.014690427
0.019728545
0.025720552
0.03299369
0.041055343
0.050001933
0.059690818
0.069614794
0.078939893
0.086374938
0.090010614
0.087195739
0.074786246
0.052460651
0.0282597
0.013902719
0.008774065
0.0071703635
0.0064108243
0.0059026558
0.0055490404
0.0053314361
0.0051895203
0.0050960718
0.0050299413
0.0049854403
0.0049620188
0.0039435604
0.0062758374
0.0091560113
0.012765309
0.017245767
0.022693036
0.029216166
0.036707661
0.044992556
0.054073774
0.0636838
0.073284131
0.082002477
0.088496898
0.090813555
0.086296637
0.071985957
0.048565395
0.025319205
0.012733431
0.0084237897
0.0071014597
0.0063777034
0.0058836445
0.0055382854
0.0053255077
0.0051862016
0.0050939229
0.005028568
0.0049844689
0.0049613367
0.0057213878
0.0082852088
0.01152636
0.015533043
0.02035214
0.026106053
0.032902103
0.040443524
0.048844305
0.057949376
0.067414186
0.076652897
0.084741158
0.090282833
0.09128432
0.085101152
0.069010133
0.044841372
0.022754495
0.01167838
0.0082193434
0.0070137749
0.0063264741
0.0058534441
0.0055211231
0.0053161646
0.005181159
0.0050909466
0.005026826
0.0049833704
0.0049606495
0.0074659207
0.010387268
0.013975065
0.018283771
0.023408328
0.029477008
0.03635845
0.044080751
0.052588879
0.061671578
0.070945849
0.079784317
0.087212243
0.091782664
0.091468924
0.08365363
0.065903761
0.041267927
0.020490664
0.010953565
0.0080169525
0.0069504234
0.0062920178
0.0058336472
0.0055100161
0.0053100267
0.0051777077
0.0050886998
0.0050254152
0.0049823786
0.0049599322
0.0093096056
0.012533138
0.016398758
0.02098376
0.026450876
0.032734645
0.039796529
0.047673464
0.056242142
0.065257593
0.074301845
0.082705542
0.08944562
0.093028777
0.091402203
0.081985461
0.062715148
0.037854988
0.018512267
0.010269325
0.0078789794
0.0068845647
0.0062505571
0.0058090163
0.0054959594
0.0053022635
0.0051734123
0.0050860328
0.0050238201
0.0049813192
0.004959191
0.011099413
0.014611062
0.018777205
0.023697551
0.029432363
0.035914708
0.043184679
0.051192096
0.05978943
0.0687056
0.07748917
0.085430431
0.091461271
0.094046904
0.091114412
0.080136548
0.059490563
0.034653252
0.016826868
0.0097892863
0.007751043
0.0068288869
0.0062178769
0.005790175
0.0054853908
0.0052963825
0.005170051
0.0050837912
0.0050224217
0.0049803214
0.0049584384
0.012832142
0.016661819
0.021142682
0.026409379
0.032357886
0.039062952
0.046511197
0.054620929
0.063220892
0.072012345
0.080511053
0.087969005
0.093276336
0.094861382
0.09063573
0.078143249
0.056268574
0.031703818
0.015433966
0.0093940307
0.0076534383
0.0067749886
0.0061833098
0.0057696278
0.0054736639
0.005289837
0.0051663292
0.005081359
0.0050209426
0.0049792913
0.0049576772
0.014561646
0.018691241
0.023493081
0.029027103
0.035220674
0.042144014
0.049753904
0.057946619
0.066528586
0.075174915
0.083370394
0.090330955
0.09490821
0.095498459
0.090004948
0.076046177
0.053106862
0.029040918
0.014292675
0.0091128551
0.0075638702
0.0067266076
0.0061539156
0.0057525476
0.0054640584
0.0052844574
0.005163187
0.0050791889
0.005019587
0.0049782988
0.0049569106
0.016237883
0.020671778
0.025797476
0.031565934
0.038015561
0.045147325
0.052902484
0.061160269
0.069706496
0.078191616
0.086071161
0.092527145
0.096375864
0.095985479
0.089262916
0.07390215
0.050046424
0.026682623
0.01338944
0.0088829477
0.0074890282
0.0066810695
0.0061249226
0.0057352617
0.0054541888
0.0052789089
0.0051599436
0.0050769551
0.0050182067
0.0049772936
0.0049561393
0.017897923
0.022627961
0.028033693
0.034048024
0.040742566
0.048064236
0.055947397
0.064253922
0.072749817
0.08106212
0.088618826
0.094570172
0.097700327
0.096351708
0.088444071
0.071752745
0.047125132
0.024635307
0.012638967
0.0087051966
0.0074208858
0.0066394827
0.0060994745
0.0057202685
0.0054457074
0.0052741344
0.0051570922
0.0050748991
0.0050169098
0.0049763138
0.0049553635
0.019514673
0.024542435
0.030196122
0.036467585
0.043388774
0.050882885
0.058879334
0.067220521
0.075654933
0.083787486
0.091020459
0.096474256
0.098903063
0.09662956
0.087583491
0.069637571
0.04438863
0.02289575
0.012060614
0.0085616607
0.0073614363
0.0066009521
0.0060754204
0.0057057755
0.0054373963
0.0052694359
0.0051542775
0.0050728509
0.0050156171
0.0049753325
0.0049545835
0.021107242
0.026406484
0.032302658
0.038815286
0.045932507
0.053592838
0.061689317
0.070054084
0.078419566
0.086370236
0.09328455
0.098254548
0.10000539
0.096843582
0.086715477
0.067598597
0.041868285
0.021445498
0.011610194
0.0084472461
0.0073074632
0.0065658075
0.0060541367
0.0056929727
0.0054300776
0.0052652901
0.0051517552
0.0050709391
0.0050143851
0.0049743703
0.0049537993
0.022670819
0.028214936
0.034349173
0.041082028
0.048369623
0.056188376
0.064369088
0.072748751
0.081042829
0.088815395
0.095421265
0.099928144
0.10103053
0.097022829
0.085871136
0.065665792
0.039588287
0.020264052
0.011288844
0.0083542769
0.0072597298
0.0065337382
0.006034632
0.0056809898
0.0054231382
0.0052613335
0.0051493407
0.0050690764
0.0050131716
0.004973413
0.0049530111
0.024211929
0.029973406
0.036328752
0.043263187
0.05072666
0.058636797
0.066914119
0.075302553
0.083524201
0.091128676
0.097439913
0.10150986
0.10200478
0.097204702
0.085096257
0.06386287
0.037564239
0.019330844
0.01105166
0.0082794519
0.0072169194
0.0065048384
0.0060174791
0.0056703786
0.0054169826
0.0052578014
0.0051471634
0.005067331
0.0050120067
0.0049724728
0.0049522179
0.025708488
0.031675973
0.038231388
0.045345317
0.052961313
0.060989113
0.069293442
0.077703186
0.085857837
0.093301908
0.099348898
0.10301641
0.10295199
0.097422006
0.084432691
0.062219128
0.035805352
0.018633697
0.010877604
0.0082167139
0.007179388
0.0064789871
0.0060021942
0.0056607148
0.0054113088
0.005254506
0.0051451261
0.0050656584
0.0050108689
0.0049715432
0.004951418
0.027114325
0.03328204
0.040023478
0.047301137
0.055051345
0.063178722
0.071532055
0.079911678
0.088011552
0.095337178
0.10114778
0.10446095
0.10389363
0.097705088
0.083918473
0.060798063
0.034356447
0.018045192
0.010697715
0.0081615641
0.0071466024
0.0064562032
0.005988977
0.0056522392
0.0054063138
0.0052515606
0.005143291
0.0050640944
0.0050097724
0.0049706292
0.0049506116
0.028396629
0.034731619
0.041635865
0.049062205
0.056942649
0.06516995
0.073589796
0.081983908
0.09002209
0.09720471
0.10283113
0.10585434
0.10484947
0.098081289
0.083586442
0.05965509
0.033193231
0.017553944
0.010545353
0.0081163056
0.0071186772
0.0064364193
0.0059775644
0.0056447406
0.0054018535
0.0052488708
0.005141606
0.0050626169
0.0050087062
0.0049697281
0.0049497989
0.029744607
0.036155538
0.043147995
0.05067147
0.058644658
0.066952798
0.075432259
0.083854097
0.091872861
0.098975334
0.10443371
0.10718016
0.10583456
0.098574355
0.083464471
0.058827961
0.032295563
0.017140588
0.010405199
0.0080792828
0.0070953994
0.0064196332
0.0059680026
0.0056383181
0.0053980239
0.0052464929
0.0051401001
0.0050612447
0.0050076783
0.0049688427
0.0049489804
0.031086748
0.037547682
0.044585368
0.052157836
0.0601838
0.068544696
0.077068539
0.085518562
0.0935354
0.10059129
0.10594029
0.10850836
0.10686652
0.099172232
0.083574061
0.058345035
0.031651072
0.016790206
0.010280164
0.0080511991
0.0070768542
0.006405838
0.0059601675
0.0056328817
0.0053947659
0.0052443872
0.0051387474
0.0050599676
0.0050066836
0.0049679718
0.0049481571
0.032400384
0.03887417
0.04592011
0.053504531
0.061548871
0.069938445
0.078493786
0.086972619
0.095004381
0.10204935
0.107343
0.1097977
0.10795518
0.099965411
0.083926123
0.05822844
0.031258916
0.016481853
0.010164148
0.0080317072
0.0070631654
0.006395113
0.0059541019
0.0056284925
0.0053921324
0.0052425861
0.0051375607
0.0050587939
0.0050057252
0.0049671157
0.0049473297
0.033672654
0.04011943
0.047133967
0.054694322
0.062723231
0.071125449
0.079730571
0.088265409
0.096348826
0.10340742
0.10867107
0.11106129
0.10910024
0.10091502
0.084561672
0.058506615
0.031139446
0.016188017
0.010053671
0.0080213017
0.0070546136
0.0063875355
0.0059497681
0.0056251147
0.0053900897
0.0052410666
0.0051365203
0.005057713
0.0050047972
0.0049662716
0.0049464976
0.03491533
0.041266068
0.048192834
0.055691284
0.063717477
0.072147807
0.080793355
0.089365376
0.097471778
0.10456878
0.10987
0.11227841
0.11029975
0.10202812
0.085468379
0.05920549
0.031276269
0.015868328
0.0099486509
0.0080205786
0.007051286
0.0063830329
0.0059470732
0.005622702
0.0053886107
0.005239816
0.0051356131
0.0050567185
0.0050038952
0.0049654377
0.0049456602
0.036122599
0.042274547
0.049013311
0.056361617
0.064298537
0.072692777
0.081344627
0.089967822
0.098161005
0.10535744
0.11076406
0.113268
0.11135481
0.10309336
0.086424872
0.060051062
0.031696368
0.015448351
0.0098438552
0.0080239405
0.0070520224
0.0063811418
0.0059456637
0.0056210515
0.0053875737
0.0052387723
0.0051348043
0.0050557954
0.0050030143
0.0049646143
0.0049448176
0.00089235344
0.0018205523
0.0035991931
0.0062716748
0.0098257555
0.014289721
0.019815187
0.026512976
0.034535444
0.043351347
0.053122231
0.063430884
0.073536594
0.08227806
0.087858256
0.087689654
0.078447164
0.058449237
0.033767965
0.016194917
0.0094089174
0.0073684181
0.0065034014
0.0059554714
0.0055788708
0.0053476836
0.005198215
0.0051011683
0.0050329645
0.0049873614
0.0049629307
0.0009472383
0.0018715592
0.0036205331
0.0062177041
0.0096743001
0.014064306
0.019504963
0.026094977
0.033976876
0.042701465
0.052320687
0.062505314
0.072587653
0.081406387
0.087201689
0.087421826
0.078778572
0.059341827
0.034676564
0.016569847
0.0094957164
0.0073940171
0.0065180059
0.0059644787
0.0055843348
0.0053507036
0.0051999421
0.0051022981
0.005033719
0.0049879275
0.0049632061
0.0010139186
0.0019265684
0.0036512752
0.0062003161
0.0095882596
0.013889144
0.019215188
0.025669583
0.033374718
0.04197218
0.051466825
0.061558992
0.071606511
0.080495501
0.086503105
0.087116954
0.079087298
0.060250673
0.035644537
0.016993353
0.0095911246
0.0074215453
0.0065330559
0.0059735247
0.0055897178
0.0053542673
0.005201907
0.0051035625
0.0050345414
0.004988507
0.0049635928
0.0010939691
0.0019875836
0.0036837918
0.0061824942
0.0095002349
0.013710621
0.018921898
0.025241678
0.032768553
0.041231292
0.050595169
0.06058678
0.070592511
0.07954405
0.085759946
0.086771339
0.079367896
0.061173013
0.036671526
0.017464988
0.0096984088
0.0074504315
0.0065494962
0.0059839836
0.0055962307
0.0053574656
0.0052038216
0.005104815
0.0050353969
0.0049891523
0.0049640443
0.0011881276
0.0020573164
0.0037171026
0.0061637415
0.009411151
0.013530353
0.018626038
0.024802177
0.032157886
0.040479982
0.049706395
0.059588342
0.069545555
0.078551394
0.08497059
0.086382364
0.079616977
0.062111169
0.037756029
0.017986601
0.0098190375
0.007482981
0.0065659597
0.005993777
0.0056020629
0.0053617053
0.0052061415
0.0051062952
0.0050363519
0.0049898308
0.0049644574
0.0013017233
0.0021383038
0.0037604464
0.0061527319
0.0093276139
0.013353291
0.018331077
0.024361987
0.031544456
0.039720132
0.04880222
0.058567104
0.068466924
0.077518332
0.084134915
0.085948782
0.079827931
0.063057118
0.038890586
0.018565653
0.0099576117
0.0075164801
0.0065848261
0.0060059688
0.0056097256
0.0053658956
0.0052085392
0.0051078235
0.0050373558
0.0049905526
0.004964788
0.0014375555
0.0022401886
0.0038079981
0.0061416631
0.0092427963
0.013174472
0.018034345
0.023922648
0.030928331
0.038955194
0.047885726
0.057526077
0.067358785
0.076445851
0.083251564
0.085465777
0.079987299
0.063987121
0.040067506
0.019201704
0.010115342
0.0075529215
0.0066035991
0.006017895
0.0056171935
0.0053703496
0.0052111049
0.0051094506
0.0050384239
0.0049913226
0.0049652045
0.001605775
0.0023602819
0.0038737481
0.0061446923
0.0091702015
0.013006878
0.017748075
0.023492547
0.030323176
0.038190639
0.046964252
0.05647096
0.066223554
0.075334621
0.082317236
0.084924509
0.080101203
0.064906081
0.041325938
0.019903601
0.010289132
0.007591897
0.0066232187
0.0060305611
0.0056252034
0.0053751197
0.0052138621
0.0051111881
0.0050395564
0.0049921341
0.0049658119
0.0018102285
0.002503666
0.0039566915
0.0061613791
0.0091094043
0.012850006
0.017471828
0.023072349
0.029735323
0.037430767
0.046039378
0.055403775
0.065063288
0.07418815
0.081335785
0.084328532
0.080162978
0.065807254
0.042649259
0.020677366
0.01048972
0.0076341742
0.0066434597
0.0060436561
0.0056335565
0.0053801467
0.0052168023
0.0051130311
0.00504076
0.0049929961
0.0049666013
0.0020613222
0.0026872835
0.0040670032
0.0061972264
0.0090641256
0.012707301
0.017209095
0.022664117
0.02914604
0.036676872
0.045115416
0.054329762
0.063896711
0.07301053
0.080308525
0.083676004
0.080168117
0.066689676
0.044025295
0.021529209
0.010712746
0.0076794903
0.0066647459
0.0060577003
0.0056426611
0.0053855938
0.0052199833
0.0051150103
0.0050420353
0.004993902
0.0049673438
0.0023626072
0.0029091002
0.0042017717
0.0062534997
0.0090370935
0.012581917
0.016963206
0.022271253
0.028573643
0.035932231
0.044196998
0.053253444
0.062712305
0.071804875
0.079237421
0.082966048
0.080111753
0.067538132
0.045450178
0.022467068
0.010968213
0.0077291778
0.0066862919
0.0060718845
0.005651887
0.0053912434
0.0052233488
0.005117092
0.0050433887
0.0049948685
0.0049680843
0.0027191593
0.0031831692
0.0043862192
0.0063387687
0.0090321274
0.012476974
0.016737679
0.021899312
0.028032664
0.03520583
0.04329008
0.05218012
0.061515206
0.070575096
0.078125187
0.082198647
0.079989264
0.06833564
0.046882533
0.023489343
0.011255468
0.0077830042
0.0067091073
0.0060872159
0.0056622397
0.0053975043
0.0052270318
0.0051193512
0.0050448247
0.0049958776
0.0049688661
0.0031316952
0.0035105176
0.0045989054
0.0064544285
0.0090526441
0.01239578
0.01653628
0.021553073
0.027520213
0.034512936
0.04240378
0.051116594
0.060315746
0.069325681
0.076975287
0.081374676
0.07979717
0.069074124
0.048307617
0.024601944
0.011581973
0.0078419743
0.0067319797
0.0061024459
0.0056723099
0.0054038149
0.0052308625
0.0051216836
0.0050463388
0.0049969565
0.0049696984
0.0035969778
0.0038943218
0.0048607356
0.0066055464
0.0091022916
0.012341898
0.016363059
0.021236873
0.02703704
0.033825462
0.041538658
0.050069064
0.059120104
0.068055871
0.075791779
0.08049604
0.079533216
0.069745303
0.04973766
0.025806658
0.011951442
0.0079078707
0.0067553921
0.0061184172
0.005683927
0.0054110246
0.0052351224
0.0051242598
0.0050479559
0.0049980775
0.004970591
0.0041080576
0.0043380159
0.0051877974
0.0068057279
0.0091904585
0.012322228
0.01622393
0.020956207
0.026589673
0.033177142
0.040705198
0.049045819
0.057937508
0.066793525
0.074582473
0.079566078
0.079196094
0.070339949
0.051159214
0.02710435
0.012369834
0.0079794714
0.0067806195
0.0061351007
0.0056950422
0.0054180617
0.0052394625
0.0051268511
0.0050496385
0.0049992744
0.0049715398
0.0046488446
0.0048294678
0.0055704198
0.0070567666
0.0093223118
0.012342979
0.016126235
0.020718296
0.026187446
0.032587768
0.039930592
0.048060061
0.056778555
0.065545357
0.073355544
0.078589609
0.078786028
0.070848039
0.052566946
0.028485717
0.012840801
0.0080605195
0.0068027721
0.0061502089
0.0057074652
0.0054262182
0.0052443403
0.0051297754
0.0050514643
0.005000513
0.0049725349
0.0052060231
0.0053598129
0.0060108876
0.0073749199
0.0095131244
0.01241734
0.016081052
0.020534904
0.025837779
0.032050232
0.039170465
0.04711057
0.055649586
0.06429627
0.072117046
0.077572738
0.078305909
0.071264008
0.053949238
0.029957741
0.01337633
0.0081552994
0.006831104
0.0061690585
0.0057203878
0.0054341765
0.0052492999
0.0051326614
0.0050533161
0.0050018238
0.0049735724
0.0057552209
0.0059141061
0.0065117967
0.0077663745
0.0097852551
0.012568686
0.016108188
0.020422644
0.025554677
0.031577257
0.038478927
0.046229823
0.054566426
0.063072533
0.070876911
0.076523027
0.077761035
0.071594524
0.05530846
0.031548494
0.013973435
0.0082587464
0.006853871
0.0061821991
0.0057324426
0.0054428891
0.0052547287
0.0051359378
0.005055379
0.0050031845
0.0049746496
0.0062715018
0.0064634397
0.007047549
0.0082293111
0.010145422
0.012812201
0.016225742
0.020399412
0.025355416
0.031188268
0.037883246
0.045411767
0.053539209
0.061885012
0.069636625
0.075447629
0.077154093
0.071841576
0.056627176
0.033168064
0.014642745
0.0084004159
0.0068787458
0.006201563
0.0057480928
0.0054522404
0.0052605921
0.0051392348
0.0050573846
0.0050045959
0.0049757632
0.0067683221
0.007020133
0.007630656
0.0087862938
0.010617074
0.013173035
0.016458755
0.020487539
0.025263029
0.030899181
0.03737395
0.044644578
0.052569763
0.060744517
0.068426084
0.074357809
0.076489192
0.07199263
0.057865175
0.034817635
0.015401775
0.0085323937
0.0069118217
0.0062158446
0.0057589156
0.005460723
0.0052663373
0.0051428084
0.0050596987
0.0050060841
0.0049769071
0.0073192528
0.0076514873
0.0083174282
0.0094751387
0.011242226
0.013693463
0.016846151
0.020719135
0.025306135
0.030733059
0.036979284
0.044010554
0.05171836
0.059677883
0.067269813
0.073267902
0.075774461
0.072050606
0.059018136
0.036544096
0.016216276
0.0086940251
0.0069307298
0.0062293737
0.0057762018