/*--------------------------------*- C++ -*----------------------------------*\
| =========                 |                                                 |
| \\      /  F ield         | OpenFOAM: The Open Source CFD Toolbox           |
|  \\    /   O peration     | Version:  2406                                  |
|   \\  /    A nd           | Website:  www.openfoam.com                      |
|    \\/     M anipulation  |                                                 |
\*---------------------------------------------------------------------------*/
FoamFile
{
    version     2.0;
    format      ascii;
    arch        "LSB;label=32;scalar=64";
    class       volVectorField;
    location    "0.038";
    object      U;
}
// * * * * * * * * * * * * * * * * * * * * * * * * * * * * * * * * * * * * * //

dimensions      [0 1 -1 0 0 0 0];

internalField   nonuniform List<vector> 
8260
(
(40.202846 29.046278 0)
(41.58359 27.753773 -2.470574e-20)
(42.900441 26.461508 2.1348433e-20)
(44.17514 25.166056 -3.6519151e-20)
(45.404883 23.828315 1.5486914e-20)
(46.571473 22.46636 -2.6140079e-20)
(47.665023 21.116525 -1.0983357e-20)
(48.675388 19.811418 -1.4849849e-23)
(49.636089 18.576041 5.0319751e-21)
(50.58756 17.411673 0)
(51.476842 16.333206 4.6160231e-20)
(52.324519 15.332467 0)
(53.122735 14.390323 0)
(53.838431 13.468709 -7.0968958e-20)
(54.3093 12.510162 1.8726068e-23)
(54.368684 11.42097 0)
(53.768097 9.9034267 0)
(52.880805 8.2492908 6.8094497e-19)
(52.422598 7.0907906 5.7053872e-21)
(52.153433 6.1744327 -6.9591056e-19)
(51.93272 5.3540726 -1.2688006e-18)
(51.739275 4.6241497 -1.1425641e-18)
(51.548843 3.9638659 -2.0688498e-18)
(51.390329 3.3614786 1.8490935e-18)
(51.270323 2.826068 1.6424623e-18)
(51.155912 2.3413417 0)
(51.054625 1.8804101 2.5817083e-18)
(50.965992 1.4530832 2.2782373e-18)
(50.892724 1.0379457 4.0213565e-18)
(50.848564 0.62419709 0)
(50.818081 0.21230744 6.2416625e-18)
(39.202897 28.270521 2.4200127e-20)
(40.643345 27.100854 -1.7487232e-23)
(42.012072 25.991786 -1.8821647e-20)
(43.343801 24.848155 4.9528712e-20)
(44.639618 23.646482 0)
(45.883734 22.403928 2.4664481e-20)
(47.062723 21.150637 4.2302034e-20)
(48.169395 19.917323 2.7103878e-20)
(49.218917 18.729712 -3.0974739e-20)
(50.231166 17.594807 1.3337598e-20)
(51.183931 16.52351 -5.2310224e-20)
(52.082821 15.516176 0)
(52.917543 14.557035 0)
(53.650638 13.613385 1.4605039e-19)
(54.121685 12.600781 -1.5283273e-19)
(54.148375 11.470338 1.9009227e-19)
(53.530185 9.8642303 2.669735e-24)
(52.693465 8.2165479 -2.1408933e-20)
(52.304543 7.08124 2.2249821e-20)
(52.068267 6.1705839 -6.6707096e-19)
(51.866212 5.3516566 -9.5415105e-21)
(51.686689 4.6227086 1.1062907e-18)
(51.506853 3.963264 1.9856553e-18)
(51.35713 3.3616059 -3.4659667e-21)
(51.24415 2.8268138 6.1986112e-21)
(51.134478 2.3423457 -2.7373137e-21)
(51.036828 1.8809004 -2.4821713e-18)
(50.951087 1.453482 -2.1946709e-18)
(50.879837 1.038001 -3.8814226e-18)
(50.837202 0.62382981 3.4270239e-18)
(50.807657 0.21198263 -6.0478683e-18)
(38.160711 27.219378 -2.0310881e-20)
(39.581272 26.276105 1.8231163e-20)
(40.994957 25.372028 0)
(42.390929 24.402847 -3.013448e-20)
(43.759546 23.357114 2.6912337e-20)
(45.085741 22.252271 0)
(46.355036 21.113919 -4.163777e-20)
(47.558 19.969906 -9.0867002e-21)
(48.699671 18.845987 3.9604246e-20)
(49.789294 17.752725 0)
(50.814193 16.700106 4.8997579e-20)
(51.77276 15.693864 0)
(52.652229 14.721602 0)
(53.409389 13.755698 -7.4643673e-20)
(53.888671 12.692118 -5.2548025e-21)
(53.893035 11.512188 -2.0989706e-19)
(53.26437 9.8075737 2.8203702e-19)
(52.498909 8.2020725 -1.3624036e-18)
(52.177322 7.0955588 0)
(51.972691 6.18885 6.3118827e-19)
(51.790658 5.3690845 0)
(51.626837 4.6380895 -8.0758313e-21)
(51.459063 3.9764353 1.4442765e-20)
(51.319035 3.3726044 -1.287307e-20)
(51.214008 2.8359042 -1.4584602e-18)
(51.109885 2.3496757 0)
(51.01648 1.8860817 0)
(50.934082 1.457295 1.9822437e-21)
(50.86515 1.0404977 -1.750859e-21)
(50.824277 0.62528292 -3.1660446e-18)
(50.795797 0.2125267 -4.293076e-23)
(37.289983 26.028583 6.7627623e-20)
(38.664458 25.306388 -4.6686515e-20)
(40.073632 24.605333 2.9323348e-20)
(41.492911 23.823327 2.7196487e-20)
(42.903857 22.949592 -7.4745756e-20)
(44.28851 21.998932 -2.2554239e-20)
(45.629776 20.993058 2.0234718e-20)
(46.914186 19.956001 -1.8022298e-20)
(48.138595 18.911673 1.6013175e-20)
(49.304852 17.873659 0)
(50.400696 16.852684 5.1132198e-20)
(51.419642 15.856704 0)
(52.345213 14.87662 -8.7494677e-20)
(53.125762 13.889143 0)
(53.610699 12.77647 -1.8369582e-19)
(53.587571 11.535721 6.9580292e-21)
(52.955568 9.7303543 4.420886e-23)
(52.281261 8.1916458 6.596392e-19)
(52.031434 7.1069989 -6.4456456e-19)
(51.862559 6.2024584 0)
(51.703596 5.3817306 -1.064736e-18)
(51.557721 4.6488597 -7.4612402e-21)
(51.403935 3.9855819 6.6517128e-21)
(51.275251 3.3803034 -1.5145604e-18)
(51.179438 2.8425511 0)
(51.081652 2.3551303 0)
(50.993138 1.8898174 0)
(50.91459 1.4600488 -1.8586349e-18)
(50.848373 1.0422055 0)
(50.809526 0.62608024 2.8976511e-18)
(50.782303 0.21273599 5.1128836e-18)
(36.604138 24.741042 -1.3957621e-20)
(37.91181 24.217843 0)
(39.279963 23.705987 -2.5451441e-20)
(40.68484 23.11021 2.4281151e-20)
(42.105184 22.415719 2.2806381e-20)
(43.520239 21.631078 4.2254991e-20)
(44.910025 20.772557 1.9379812e-20)
(46.257091 19.859135 -1.7641635e-20)
(47.550827 18.911179 -1.597505e-20)
(48.785405 17.943648 8.6836433e-20)
(49.946975 16.968192 -1.3160974e-20)
(51.02379 15.993097 0)
(51.994151 15.01207 1.7398773e-19)
(52.79541 14.004477 -4.585623e-24)
(53.279878 12.842979 2.1126365e-19)
(53.223167 11.523991 1.5018627e-20)
(52.599224 9.6337451 -3.2148111e-19)
(52.045469 8.1814722 6.2051957e-19)
(51.867833 7.1165483 6.3767771e-19)
(51.737944 6.2155661 2.328111e-24)
(51.604939 5.3956121 9.6273799e-19)
(51.479194 4.6615106 8.7402116e-19)
(51.341375 3.9968097 6.0733875e-21)
(51.225475 3.3899987 1.3747819e-18)
(51.140086 2.851076 1.2228663e-18)
(51.049509 2.3620935 0)
(50.966598 1.8947014 -3.7336706e-21)
(50.892418 1.4636688 1.6917622e-18)
(50.829309 1.0445289 -2.9812603e-18)
(50.792752 0.62730369 -2.6319046e-18)
(50.766959 0.21313569 5.6672611e-22)
(36.11806 23.380583 2.2982934e-20)
(37.340888 23.03498 -2.2121063e-20)
(38.640305 22.694424 -2.1910219e-20)
(39.99815 22.274356 4.2810287e-20)
(41.39461 21.756698 -4.1178118e-20)
(42.80848 21.142401 0)
(44.218278 20.44065 0)
(45.603527 19.664116 0)
(46.947487 18.828156 3.1506251e-20)
(48.236861 17.946583 3.5095112e-23)
(49.454601 17.03078 -5.3839252e-20)
(50.58304 16.088097 1.1384261e-19)
(51.593704 15.114215 -2.0730713e-19)
(52.41042 14.08792 -1.107988e-19)
(52.884533 12.875984 2.6661109e-20)
(52.790492 11.45644 -1.5937837e-20)
(52.195103 9.5186853 1.8763653e-20)
(51.789959 8.1697124 -6.1997036e-19)
(51.68376 7.1227044 -1.7270266e-20)
(51.596712 6.225531 -4.9781173e-19)
(51.493087 5.4078583 -8.7686234e-19)
(51.389694 4.6729418 -1.5871578e-18)
(51.270125 4.0071451 -1.419913e-18)
(51.168791 3.3990633 -8.1368937e-25)
(51.095247 2.8593451 8.667599e-21)
(51.012856 2.3688566 1.9539956e-18)
(50.936369 1.8994224 0)
(50.867144 1.4671776 1.5269464e-18)
(50.807623 1.0467519 2.6875604e-18)
(50.773648 0.62840064 0)
(50.749512 0.21345454 0)
(35.846757 21.970178 8.6797505e-21)
(36.971422 21.785882 -3.7022887e-20)
(38.180989 21.597226 3.7533302e-20)
(39.463721 21.335639 -1.8726661e-20)
(40.804259 20.983392 -1.8444966e-20)
(42.183781 20.53479 0)
(43.581396 19.991513 0)
(44.975231 19.359155 0)
(46.344318 18.646825 -3.0707296e-20)
(47.669112 17.864647 -5.7723092e-20)
(48.927982 17.021673 0)
(50.096734 16.1228 -1.039232e-19)
(51.138465 15.164501 1.271214e-19)
(51.961132 14.118849 -3.5662424e-23)
(52.409996 12.853053 1.6987452e-19)
(52.278021 11.306763 3.3107614e-20)
(51.752178 9.3929024 -3.6218004e-20)
(51.51349 8.1522919 5.905374e-19)
(51.477523 7.123998 0)
(51.436903 6.2310465 4.5165362e-19)
(51.366846 5.4184522 8.0547722e-19)
(51.288037 4.6837702 1.431816e-18)
(51.189252 4.0174816 -9.98061e-21)
(51.104468 3.408497 8.7772946e-21)
(51.044283 2.8682873 3.3399837e-23)
(50.971158 2.3762021 -1.7554084e-18)
(50.902007 1.9046216 0)
(50.838388 1.4710694 2.5513001e-23)
(50.782991 1.0492419 0)
(50.751902 0.62966274 0)
(50.729693 0.21383258 1.8797803e-18)
(35.801992 20.578972 -2.4000862e-23)
(36.81597 20.51718 -2.3295515e-20)
(37.918485 20.450428 8.0214344e-21)
(39.103262 20.322288 1.6348961e-20)
(40.360019 20.114941 1.6423614e-20)
(41.673909 19.817652 0)
(43.026494 19.425322 0)
(44.39648 18.936347 0)
(45.760906 18.352741 0)
(47.095789 17.678838 -2.8460963e-20)
(48.374545 16.918966 2.7323004e-20)
(49.565926 16.073573 0)
(50.622706 15.13817 -2.6335757e-20)
(51.436509 14.065732 2.7197434e-20)
(51.838957 12.743463 -4.7547562e-19)
(51.671333 11.051731 3.3424899e-20)
(51.283693 9.2616644 -3.4152134e-20)
(51.214154 8.1249971 -5.0734798e-19)
(51.246587 7.1183818 0)
(51.256042 6.229594 0)
(51.224762 5.4256118 0)
(51.172782 4.6925485 2.0125612e-20)
(51.097429 4.0265004 1.1285038e-18)
(51.031603 3.4172364 5.0775975e-25)
(50.98644 2.8769797 -1.785125e-18)
(50.923706 2.3834275 1.5641165e-18)
(50.862885 1.9097821 1.3914789e-18)
(50.805625 1.4749569 -2.4465326e-18)
(50.755005 1.0517161 0)
(50.727119 0.63088023 0)
(50.707202 0.21416364 -1.6801705e-18)
(35.969792 19.227375 -6.183575e-21)
(36.868383 19.254252 2.6179817e-20)
(37.853478 19.281013 -3.4451118e-20)
(38.924719 19.258503 -1.4292261e-20)
(40.076522 19.170398 1.4647318e-20)
(41.298342 19.002819 -2.9608846e-20)
(42.575489 18.745374 2.9588251e-20)
(43.889138 18.390115 0)
(45.216591 17.932007 0)
(46.531496 17.368317 0)
(47.802847 16.696554 0)
(48.991781 15.910469 1.0781141e-19)
(50.038269 15.001733 -1.3584678e-19)
(50.824918 13.876973 2.8111375e-20)
(51.149349 12.511226 2.4394512e-19)
(50.974507 10.682358 0)
(50.81018 9.1328572 0)
(50.889901 8.0835516 4.5905086e-19)
(50.988664 7.1026172 2.5648127e-20)
(51.051715 6.2186981 -2.2823666e-20)
(51.06494 5.4276485 0)
(51.042636 4.6985856 -5.5619382e-19)
(50.993314 4.0338417 8.8370414e-25)
(50.949267 3.4252988 -8.9764994e-19)
(50.920896 2.8853737 -3.3752554e-23)
(50.869683 2.3906378 -1.4106382e-18)
(50.81828 1.9150494 -1.2352479e-18)
(50.76825 1.4789538 1.089994e-18)
(50.723191 1.0542688 -1.8783289e-21)
(50.698856 0.63214418 8.2856115e-22)
(50.68169 0.21448709 7.3088349e-22)
(36.323205 17.935132 0)
(37.111369 18.014675 -4.4532009e-20)
(37.977659 18.106568 4.7848436e-20)
(38.926529 18.162448 0)
(39.95769 18.164733 -7.896213e-20)
(41.065825 18.099597 2.2354753e-23)
(42.241041 17.953272 5.512559e-20)
(43.468176 17.713068 2.7744189e-20)
(44.726343 17.367772 0)
(45.988514 16.907226 -2.3647602e-23)
(47.22006 16.320745 -6.6924246e-24)
(48.373607 15.593503 -1.6451723e-19)
(49.372985 14.707651 5.599809e-20)
(50.094754 13.517683 5.8428417e-20)
(50.318609 12.057886 6.1906867e-20)
(50.242315 10.238805 2.4795033e-19)
(50.342524 8.9975541 -5.7112454e-20)
(50.537812 8.022543 9.0377153e-23)
(50.703312 7.0712453 0)
(50.822961 6.1969632 -3.4545449e-19)
(50.884359 5.4218873 -5.5838386e-19)
(50.896063 4.7001838 0)
(50.875313 4.0381563 0)
(50.85614 3.4318186 7.8601989e-19)
(50.846452 2.8924763 7.1599288e-19)
(50.808047 2.3972434 1.244392e-18)
(50.767302 1.9200423 -8.5779679e-21)
(50.725494 1.4827489 3.7838871e-21)
(50.68695 1.0566887 1.7125929e-18)
(50.6666 0.63331213 0)
(50.652716 0.21472729 1.3301121e-18)
(36.821714 16.697362 -2.7992647e-20)
(37.492538 16.82118 3.4450837e-20)
(38.242864 16.946395 -4.2701172e-20)
(39.070919 17.045697 -4.5690491e-20)
(39.977303 17.104474 1.2087323e-20)
(40.961304 17.107099 5.0486735e-20)
(42.017625 17.039539 0)
(43.135042 16.886427 -2.6695644e-20)
(44.29523 16.631189 0)
(45.471574 16.255984 -4.1985636e-23)
(46.626334 15.741061 0)
(47.702109 15.060519 -5.6386003e-20)
(48.602912 14.174428 5.8166876e-20)
(49.198687 12.877271 5.9978738e-20)
(49.369853 11.340995 -2.4129195e-19)
(49.557843 9.8629536 -5.1118312e-19)
(49.858832 8.8995768 5.1350316e-20)
(50.166423 7.8873108 -4.1477951e-19)
(50.39478 7.0131085 -2.8666884e-19)
(50.568321 6.1877312 -3.634375e-20)
(50.681251 5.3866475 4.8059206e-19)
(50.730967 4.6953766 4.816665e-19)
(50.741774 4.0382869 2.5081201e-20)
(50.750421 3.436239 6.8662567e-19)
(50.761407 2.8975441 0)
(50.73771 2.4029148 -2.2078291e-18)
(50.709047 1.9246666 -7.6086944e-21)
(50.676518 1.4862167 6.7121877e-21)
(50.645585 1.0589237 4.0231139e-23)
(50.62981 0.63436922 1.3059107e-21)
(50.619703 0.21487572 -1.1806835e-18)
(37.480119 15.437105 0)
(38.036754 15.554509 0)
(38.655462 15.700514 0)
(39.34905 15.824137 0)
(40.120243 15.915725 0)
(40.969159 15.961249 -1.0988484e-19)
(41.892126 15.945877 1.0240765e-19)
(42.879617 15.852172 0)
(43.914212 15.659142 -1.0952574e-19)
(44.968422 15.341769 1.1224466e-19)
(45.999266 14.870549 5.7521034e-20)
(46.934528 14.202227 0)
(47.673362 13.253941 1.8140664e-19)
(48.127211 11.925909 -6.0235493e-20)
(48.495703 10.513003 1.6990473e-19)
(48.925809 9.6033092 5.1451348e-20)
(49.397212 8.6164212 -1.8494422e-19)
(49.760248 7.7824304 -3.6955325e-19)
(50.062162 6.9237385 6.1893771e-19)
(50.292638 6.1306184 5.1570484e-19)
(50.451211 5.3891139 0)
(50.545628 4.6669928 -2.5083131e-20)
(50.591042 4.0316341 2.2193822e-20)
(50.630052 3.4370531 -6.2723522e-19)
(50.663834 2.8993996 0)
(50.657626 2.4067144 1.9539829e-18)
(50.642677 1.9285104 0)
(50.620504 1.4889187 -5.9438526e-21)
(50.598346 1.0607241 -2.6792233e-18)
(50.587914 0.63513559 0)
(50.581905 0.21485848 0)
(38.138393 14.099124 0)
(38.587432 14.204 0)
(39.100993 14.32199 0)
(39.675751 14.436828 8.8352514e-20)
(40.317392 14.526056 -1.7869584e-19)
(41.029432 14.576036 2.1642106e-19)
(41.810134 14.572537 -1.3476894e-19)
(42.649582 14.49689 2.8264104e-20)
(43.528294 14.32404 1.4679817e-19)
(44.416833 14.022785 -7.3562593e-23)
(45.277425 13.54769 -6.1756716e-20)
(46.040925 12.844532 -2.4742098e-19)
(46.625387 11.86401 1.206655e-19)
(47.143031 10.800379 0)
(47.766793 9.9873001 0)
(48.39166 9.1654761 9.2633546e-20)
(48.894763 8.4157151 3.2913723e-19)
(49.340102 7.5963184 7.2946528e-19)
(49.703681 6.8171298 -3.2296348e-19)
(49.994393 6.0581686 -5.7088599e-20)
(50.204345 5.3204381 5.0488381e-20)
(50.336413 4.6647858 -3.7894728e-19)
(50.42238 4.0059838 1.9676696e-20)
(50.493433 3.439058 0)
(50.553021 2.8961008 0)
(50.566734 2.4033262 -8.641836e-19)
(50.567479 1.9312908 0)
(50.556851 1.4904582 0)
(50.544544 1.0619223 1.1870508e-18)
(50.54032 0.63546924 -1.047164e-18)
(50.538428 0.21465125 -9.2365479e-19)
(38.75057 12.345088 -2.2526188e-23)
(39.119337 12.404609 -1.775025e-19)
(39.534513 12.494574 9.0988237e-20)
(40.00578 12.574565 0)
(40.534437 12.641899 9.8900865e-24)
(41.116406 12.685354 1.3531749e-19)
(41.749128 12.678401 -4.6085577e-23)
(42.425141 12.6012 -3.2473161e-20)
(43.127023 12.429188 -3.2914922e-20)
(43.828115 12.141724 -6.5637316e-20)
(44.501339 11.699708 -6.416153e-20)
(45.137363 11.123555 0)
(45.789388 10.479817 0)
(46.515725 9.9187005 0)
(47.228002 9.36815 0)
(47.847934 8.7787439 -1.6481822e-19)
(48.418344 8.0670421 -1.4605239e-19)
(48.903882 7.3763408 -2.586601e-19)
(49.32714 6.6509362 0)
(49.674027 5.9583043 -2.0223522e-19)
(49.934716 5.2721719 0)
(50.111671 4.6025307 3.1542471e-19)
(50.234146 3.9886401 0)
(50.342305 3.4189394 0)
(50.427737 2.8964189 0)
(50.464446 2.3987265 0)
(50.482635 1.9322082 0)
(50.485222 1.4901862 -9.2877192e-21)
(50.483576 1.0621742 8.1943476e-21)
(50.486398 0.63507182 1.8522617e-18)
(50.488316 0.21419419 8.1448966e-19)
(39.252179 10.30379 2.6306284e-23)
(39.477577 10.369524 0)
(39.762444 10.456651 2.1438343e-21)
(40.117374 10.534724 1.2385578e-19)
(40.560388 10.556338 -2.600316e-19)
(41.045462 10.566833 -3.5892339e-20)
(41.562561 10.524431 -2.159144e-19)
(42.119653 10.434235 5.650426e-19)
(42.715322 10.291036 -2.7399901e-19)
(43.326365 10.144257 -6.5931172e-20)
(43.961398 9.9319647 -2.2608264e-23)
(44.628132 9.6994611 5.7503406e-20)
(45.355261 9.4473382 0)
(46.072075 9.1376744 0)
(46.739614 8.749717 0)
(47.378167 8.2456818 2.9226904e-19)
(47.95517 7.6960459 0)
(48.478238 7.0883076 -2.2902424e-19)
(48.937735 6.4514398 0)
(49.334911 5.8110029 0)
(49.649843 5.1642513 0)
(49.868026 4.5573155 -2.4380399e-19)
(50.031956 3.9403176 -3.0733627e-20)
(50.176992 3.3998944 -4.6091298e-19)
(50.290535 2.8770681 2.391348e-20)
(50.349871 2.3960231 0)
(50.387431 1.9272647 0)
(50.405307 1.485761 5.2486251e-19)
(50.414867 1.0610252 9.3299258e-19)
(50.425535 0.63366884 -3.1592242e-21)
(50.430682 0.21346486 -2.8147472e-21)
(40.177216 8.0315699 0)
(40.338073 8.1332827 -1.0716308e-20)
(40.507762 8.2719076 1.0915394e-20)
(40.694507 8.4162408 -1.0942864e-20)
(40.908537 8.6190237 -2.0944325e-20)
(41.204738 8.7528978 2.0264167e-20)
(41.565887 8.8874461 -3.8785695e-20)
(41.996914 8.9873501 -3.6362713e-20)
(42.523891 8.8744854 0)
(43.079545 8.7999914 -2.4206459e-19)
(43.705887 8.6548402 5.0021189e-19)
(44.373872 8.6065705 -5.1488511e-20)
(45.057889 8.4979733 -9.2743314e-20)
(45.715563 8.2938151 1.6468329e-19)
(46.347444 8.0143937 -2.9225563e-19)
(46.947022 7.6658529 8.4759734e-24)
(47.543114 7.2143893 -1.1454193e-19)
(48.082425 6.7450864 4.0497122e-19)
(48.560108 6.1849463 0)
(48.981396 5.6243855 0)
(49.344375 5.0447886 6.9701189e-20)
(49.61272 4.4547261 -7.0292971e-24)
(49.816147 3.8849562 -2.7134183e-20)
(50.000821 3.3620139 -2.3975146e-20)
(50.140233 2.8563324 -3.3771728e-19)
(50.223633 2.3790531 0)
(50.280869 1.9170552 0)
(50.315907 1.4854001 -4.5607156e-19)
(50.33798 1.0569625 -1.6346339e-18)
(50.35722 0.62988671 -7.2656052e-19)
(50.364789 0.2124087 0)
(40.944779 6.4602149 0)
(41.115729 6.5352504 1.1928534e-20)
(41.306792 6.6378116 -4.100402e-19)
(41.519998 6.7433748 4.3745026e-23)
(41.739513 6.8656081 3.8162646e-19)
(41.974588 6.989216 -2.0961963e-20)
(42.235116 7.0890253 3.8921266e-20)
(42.481349 7.2015934 3.5591512e-20)
(42.726053 7.5335933 0)
(43.114457 7.6700393 5.5684889e-20)
(43.643317 7.6348232 -4.8601054e-20)
(44.193277 7.5459618 1.7662905e-19)
(44.788223 7.4085929 -3.2264599e-19)
(45.433865 7.3668961 1.453129e-19)
(46.039903 7.226175 0)
(46.594538 6.9875128 1.1445537e-19)
(47.168966 6.6687797 2.3379771e-23)
(47.726426 6.3273104 -1.7883339e-19)
(48.209687 5.875514 2.36971e-19)
(48.6357 5.3787804 6.9714947e-20)
(49.026742 4.857494 -3.0765018e-19)
(49.339101 4.343923 -2.1713326e-19)
(49.58824 3.7948885 0)
(49.813813 3.3103819 3.3781522e-19)
(49.977811 2.8184596 2.606834e-19)
(50.083456 2.3568 3.2845183e-20)
(50.161867 1.9045263 0)
(50.216043 1.4721315 0)
(50.252738 1.0509382 -5.671403e-21)
(50.280807 0.62729953 4.9686767e-21)
(50.290085 0.21103901 0)
(41.568553 5.5594678 -8.8762966e-19)
(41.67321 5.6378473 8.4104813e-19)
(41.795493 5.7274807 7.8546467e-19)
(41.940486 5.8211632 -7.247167e-19)
(42.114064 5.9194391 -6.8236528e-19)
(42.324414 6.0236423 6.4592126e-19)
(42.586074 6.1316786 -6.0554214e-19)
(42.910967 6.2289458 5.1508426e-19)
(43.230397 6.3479992 -4.5873784e-19)
(43.538398 6.3826081 -5.1340892e-20)
(43.776951 6.6891459 4.0174507e-19)
(44.159406 6.7828876 3.5714849e-19)
(44.65068 6.59774 -4.1585456e-19)
(45.195702 6.4220764 0)
(45.790905 6.333311 2.2677957e-19)
(46.342387 6.2794951 -4.0466986e-19)
(46.874735 6.0379461 8.9444251e-20)
(47.410199 5.8289152 0)
(47.895147 5.4892948 -2.0912092e-19)
(48.318196 5.0912797 1.2792293e-23)
(48.710577 4.6416242 4.3427141e-19)
(49.055308 4.164153 2.3940547e-19)
(49.344164 3.6827285 4.2231985e-20)
(49.611913 3.2371416 -3.7249845e-19)
(49.8009 2.7703662 2.9564529e-19)
(49.929429 2.3210731 2.0278401e-19)
(50.02971 1.8771501 1.2773921e-20)
(50.105003 1.4591195 3.7175279e-19)
(50.15838 1.0413667 6.4578792e-19)
(50.195866 0.62149966 5.5213418e-19)
(50.206433 0.20938273 0)
(42.309964 4.6015282 -6.5190596e-21)
(42.408998 4.6693904 -2.401221e-20)
(42.522271 4.7475163 -7.2204778e-19)
(42.650331 4.8293506 1.3409365e-18)
(42.793 4.9157194 -1.232679e-18)
(42.949106 5.0058859 5.7946602e-19)
(43.115605 5.0966281 0)
(43.292906 5.1847764 0)
(43.503795 5.2606551 -2.5682731e-20)
(43.775545 5.3508351 4.5895575e-20)
(44.120288 5.3562749 2.86203e-19)
(44.432299 5.3422726 -6.178457e-19)
(44.684558 5.8178576 3.1291005e-19)
(45.101793 5.6965391 0)
(45.610289 5.485998 0)
(46.157496 5.5043751 0)
(46.664511 5.4032661 -1.5783701e-19)
(47.149852 5.2567733 2.0910935e-19)
(47.610629 5.0285472 0)
(48.041612 4.7395636 -1.0855832e-19)
(48.424505 4.3624307 9.5784286e-20)
(48.771633 3.9622623 -3.3786369e-19)
(49.090398 3.5301279 1.4898568e-19)
(49.392064 3.135067 -9.8578536e-20)
(49.60949 2.6952873 -2.0274112e-19)
(49.762511 2.2731357 -2.0433321e-19)
(49.885625 1.8464419 3.3789869e-19)
(49.983054 1.4332676 -2.9797138e-19)
(50.05382 1.0263372 0)
(50.101908 0.61441387 -4.9453658e-19)
(50.113993 0.20752423 0)
(42.892652 3.9172079 7.618625e-19)
(42.956393 3.9754193 2.9530567e-24)
(43.030152 4.0411498 1.0124346e-20)
(43.116279 4.1098908 0)
(43.217991 4.1834445 -1.7172464e-20)
(43.339581 4.2628455 4.9990612e-19)
(43.487265 4.3489118 -4.5204095e-19)
(43.665422 4.4424472 0)
(43.868073 4.5444343 2.2768533e-20)
(44.081543 4.6439456 3.4552799e-19)
(44.301037 4.7561189 3.6147942e-20)
(44.588177 4.8819786 -5.1418272e-19)
(44.942104 4.698862 5.7022946e-20)
(45.152282 5.0760682 1.9646466e-19)
(45.543512 4.9866368 0)
(45.989822 4.8333442 0)
(46.464193 4.7150635 -6.8703808e-20)
(46.933024 4.6514282 1.0073109e-23)
(47.365413 4.4971338 1.0849965e-19)
(47.79677 4.3259935 -2.0501235e-23)
(48.172597 4.0568012 -2.5333469e-19)
(48.513514 3.7056649 7.4471663e-20)
(48.84754 3.3515773 6.5688595e-20)
(49.163503 3.0010027 2.8958911e-19)
(49.405071 2.6026188 -5.7905367e-24)
(49.58649 2.2021834 -2.2523393e-20)
(49.732458 1.7936883 -6.3550319e-19)
(49.850963 1.4014075 -1.7514731e-20)
(49.938694 1.0051568 0)
(49.998203 0.60449927 0)
(50.013011 0.20519498 0)
(43.545806 3.177081 1.3601398e-18)
(43.604945 3.2262332 1.2529322e-18)
(43.67274 3.281703 -1.1688727e-18)
(43.750083 3.3398546 1.0709749e-18)
(43.837879 3.4024005 -9.6510727e-19)
(43.936911 3.4702591 8.7661746e-19)
(44.046425 3.5425433 -8.0362852e-19)
(44.165976 3.617368 0)
(44.301303 3.6926243 0)
(44.464733 3.7687754 5.5729357e-19)
(44.664494 3.8418884 -4.7966731e-19)
(44.8718 3.8951757 0)
(45.095954 4.0737668 -5.0302161e-20)
(45.415429 3.9608214 0)
(45.62336 4.2704133 0)
(45.94482 4.372656 -6.788699e-20)
(46.309051 4.1935997 2.9618058e-19)
(46.70382 4.0212455 -4.2652222e-19)
(47.143303 3.9251589 -9.5178987e-20)
(47.573398 3.865983 2.5327916e-19)
(47.940761 3.6729675 -2.6004554e-23)
(48.288322 3.4358666 -6.5673348e-20)
(48.64165 3.1406397 0)
(48.945882 2.8345304 0)
(49.197546 2.4718809 0)
(49.405149 2.1099315 0)
(49.571408 1.7322312 3.1511807e-19)
(49.709361 1.3533102 -1.5441325e-20)
(49.812952 0.97642558 -1.3617694e-20)
(49.883783 0.59149461 -6.005569e-21)
(49.903627 0.20186911 3.4432625e-19)
(44.068546 2.6445756 1.2134081e-18)
(44.106396 2.6862905 -1.114356e-18)
(44.150156 2.7327145 8.0938361e-21)
(44.201041 2.7814154 9.6136878e-19)
(44.260732 2.8342981 -8.7083019e-19)
(44.331321 2.8923401 7.8927129e-19)
(44.415611 2.9558195 -1.4226365e-18)
(44.516962 3.0249938 -1.9902825e-20)
(44.636706 3.1000143 5.5254359e-19)
(44.772646 3.1795859 0)
(44.92418 3.2615988 -4.8000183e-19)
(45.109149 3.3503741 2.5089363e-20)
(45.32739 3.3810272 3.7729736e-19)
(45.550543 3.4859283 -3.1420232e-19)
(45.817191 3.4875474 2.4191091e-19)
(46.04693 3.3520233 9.0789992e-25)
(46.289558 3.7324544 2.12045e-19)
(46.597878 3.5624771 -2.3111996e-19)
(46.965461 3.3945993 3.3002666e-19)
(47.356969 3.3590206 -7.4074972e-20)
(47.719699 3.24493 6.5643788e-20)
(48.087922 3.1123553 1.6552737e-23)
(48.466949 2.9109329 1.0211246e-19)
(48.751723 2.6367674 0)
(48.992811 2.3149746 -1.5878693e-19)
(49.217657 1.9889234 1.400175e-19)
(49.401942 1.6435038 3.0865195e-20)
(49.558526 1.2970961 -2.7221904e-20)
(49.676179 0.93882393 1.2003519e-20)
(49.758247 0.57309422 3.2294481e-19)
(49.785784 0.19774852 -2.9416538e-19)
(44.644646 2.0649793 2.1802457e-18)
(44.680106 2.0993378 -1.9827943e-18)
(44.720802 2.1373276 -1.4379628e-20)
(44.767306 2.1771437 -6.6110554e-21)
(44.820197 2.2204096 -6.0273566e-21)
(44.880007 2.2679488 1.4086018e-18)
(44.947177 2.3197081 -4.9025359e-23)
(45.021788 2.3752983 -1.1197711e-18)
(45.104608 2.433939 2.959113e-24)
(45.198489 2.4948878 0)
(45.306513 2.5578135 -2.4924942e-20)
(45.424831 2.6189965 -4.4216987e-20)
(45.558092 2.696363 -1.9581569e-20)
(45.731976 2.7494446 2.7714633e-19)
(45.920228 2.8074891 -2.4501268e-19)
(46.140401 2.991294 2.7054983e-20)
(46.39073 2.8080726 0)
(46.591877 3.1478802 -4.1354148e-20)
(46.892827 2.9946165 -7.182874e-20)
(47.206791 2.8909455 -6.4435812e-20)
(47.549018 2.7741036 0)
(47.905369 2.7621923 -1.0207048e-19)
(48.275839 2.6127772 0)
(48.558109 2.4123419 0)
(48.787089 2.1320316 1.3995957e-19)
(49.021754 1.8424164 -2.4684298e-19)
(49.221641 1.5379252 1.0884199e-19)
(49.398214 1.222378 0)
(49.529615 0.8898439 -1.7988944e-19)
(49.621844 0.548982 -2.893171e-19)
(49.659464 0.19084044 0)
(45.08648 1.6799318 -1.9427546e-18)
(45.10663 1.708206 3.4430416e-21)
(45.129967 1.73912 1.2765747e-20)
(45.157161 1.7715987 1.5001843e-18)
(45.189214 1.8071804 -1.3610879e-18)
(45.227656 1.8467457 -2.0893076e-24)
(45.275116 1.8897636 0)
(45.332221 1.9370564 1.5524155e-24)
(45.400322 1.9888802 8.8939695e-19)
(45.481218 2.0453695 -7.7951897e-19)
(45.576504 2.1067164 2.1988296e-20)
(45.690596 2.1731319 1.9502677e-20)
(45.82403 2.2346553 0)
(45.958123 2.3074201 0)
(46.119264 2.36363 4.8609909e-19)
(46.293143 2.3427089 2.3815558e-20)
(46.46937 2.4772057 -3.360457e-19)
(46.719457 2.2629187 3.7170669e-19)
(46.908155 2.5646414 -2.2365134e-19)
(47.149385 2.5043828 -5.6185313e-20)
(47.454989 2.3705111 0)
(47.771388 2.4193856 -8.9982745e-20)
(48.045031 2.2629105 7.9266678e-20)
(48.327052 2.1115602 -8.379215e-24)
(48.580043 1.9155139 -6.1699063e-20)
(48.825274 1.6672577 1.0879424e-19)
(49.037153 1.4066366 -9.5936802e-20)
(49.229006 1.1261976 -1.6922521e-19)
(49.375564 0.83082661 1.864078e-20)
(49.47617 0.5160851 -2.4682389e-20)
(49.52503 0.18167962 7.2568704e-21)
(45.578608 1.240845 -1.7194037e-18)
(45.599066 1.2632587 -6.0799852e-21)
(45.622555 1.2876885 1.4398477e-18)
(45.649381 1.3134574 0)
(45.679758 1.3417452 -1.2073158e-18)
(45.713588 1.3730688 -8.5104263e-21)
(45.750053 1.4082773 2.1920612e-23)
(45.791047 1.4466238 1.7659138e-18)
(45.838552 1.4879442 -2.1313762e-23)
(45.894245 1.5320667 -7.0971122e-19)
(45.959806 1.5780052 0)
(46.034587 1.6252673 0)
(46.119523 1.6791672 0)
(46.227078 1.7275886 0)
(46.344152 1.7928421 -2.3814992e-20)
(46.485664 1.8850704 3.3651703e-19)
(46.647549 1.9048448 -2.5932866e-19)
(46.80648 2.0683313 -2.9493811e-19)
(46.990638 2.0265532 2.0076695e-19)
(47.152826 2.1688474 -2.684962e-25)
(47.409222 2.0721384 0)
(47.672353 2.0057559 1.5865595e-19)
(47.900916 1.9303641 -1.3977924e-19)
(48.134862 1.7753432 6.159791e-20)
(48.390391 1.6487994 0)
(48.645106 1.4601863 -1.4387356e-19)
(48.866261 1.2529893 4.2291862e-20)
(49.058306 1.012394 1.8645757e-19)
(49.216372 0.75416048 9.8664016e-20)
(49.324092 0.47531615 0)
(49.382738 0.16770167 -2.0471685e-19)
(45.918692 0.97014668 0)
(45.928038 0.98721133 2.6972429e-21)
(45.938966 1.0056197 0)
(45.951914 1.0250661 0)
(45.967563 1.0465144 -4.1650411e-21)
(45.986927 1.0704803 -1.9280125e-18)
(46.011443 1.0969103 1.7336717e-18)
(46.041538 1.1262348 6.0633104e-21)
(46.077618 1.158631 1.0823639e-20)
(46.120416 1.1943128 -1.2233454e-18)
(46.171899 1.2334404 2.1901717e-18)
(46.235837 1.2755865 -9.7088383e-19)
(46.313923 1.3183741 0)
(46.403592 1.3645331 0)
(46.508982 1.3988512 0)
(46.614186 1.4224043 0)
(46.73463 1.4702992 -1.6372796e-20)
(46.889208 1.4119897 2.6003993e-19)
(47.025163 1.4955961 -2.5509523e-20)
(47.221916 1.358568 -1.5740172e-19)
(47.408328 1.5582275 1.5862637e-19)
(47.621355 1.4759651 -2.7943238e-19)
(47.832182 1.488445 2.466956e-19)
(48.038941 1.4307339 -1.0876812e-19)
(48.262731 1.3462431 1.4384351e-19)
(48.498103 1.2254759 8.4552642e-20)
(48.715118 1.076345 0)
(48.896408 0.88290601 3.2876464e-20)
(49.055825 0.66659376 -2.1954958e-24)
(49.167657 0.42463539 -1.2788489e-19)
(49.232468 0.15094258 1.8046057e-19)
(46.291498 0.66452315 -2.7017699e-18)
(46.30357 0.67770435 2.4382024e-18)
(46.317211 0.69187702 0)
(46.332488 0.70700538 0)
(46.349416 0.72384863 7.3504911e-21)
(46.367934 0.74276365 0)
(46.387883 0.7640629 0)
(46.410131 0.78755201 -1.3745651e-18)
(46.435505 0.81326755 1.2218224e-18)
(46.46453 0.84110881 -1.1942929e-24)
(46.496805 0.87084699 7.5442299e-21)
(46.530935 0.90203216 0)
(46.56671 0.93395675 0)
(46.605935 0.96506378 0)
(46.653309 1.0019901 0)
(46.729181 1.0383039 0)
(46.825987 1.0707144 -1.4435635e-20)
(46.941209 1.1484219 -1.2739308e-20)
(47.10111 1.1351073 -3.1464546e-19)
(47.247327 1.2295467 6.3437394e-19)
(47.39675 1.1976232 -3.1097494e-19)
(47.556733 1.1240214 -3.0434454e-20)
(47.766098 1.1321729 -1.0799664e-19)
(47.97604 1.1351297 9.5752973e-20)
(48.176915 1.0985346 -4.227349e-20)
(48.370084 1.0080899 -7.4549447e-20)
(48.569353 0.89490005 5.7890973e-24)
(48.742078 0.74454347 5.7977278e-20)
(48.893954 0.56608544 2.5567934e-20)
(49.007946 0.36618685 1.1274241e-19)
(49.07639 0.12998133 7.9559491e-20)
(46.537286 0.54884306 -2.3847379e-18)
(46.543483 0.55873164 2.1487541e-18)
(46.55086 0.56921461 -1.9420375e-21)
(46.559596 0.58037671 1.8229682e-18)
(46.569929 0.59276398 -1.6614163e-18)
(46.582137 0.60666634 -1.501593e-18)
(46.596514 0.62224906 1.1600046e-23)
(46.6133 0.63972235 2.41282e-18)
(46.632786 0.65931573 -1.0764693e-18)
(46.655426 0.68127773 -3.7425939e-21)
(46.682019 0.70589676 -7.6076888e-25)
(46.714001 0.73363882 5.8910984e-21)
(46.753514 0.76526042 0)
(46.803044 0.80208793 9.2306422e-21)
(46.863512 0.84257755 -5.2238972e-19)
(46.93137 0.88351878 4.5417496e-19)
(47.00434 0.92617231 0)
(47.080866 0.94824313 -3.706374e-19)
(47.179616 0.98181769 2.9726951e-19)
(47.292296 0.97166322 1.7479898e-20)
(47.384866 1.0490742 1.525461e-20)
(47.520654 1.0356659 2.6901141e-20)
(47.673888 0.94538323 0)
(47.858345 0.87608064 1.6773418e-19)
(48.058507 0.88208745 -1.8616335e-19)
(48.238799 0.80180799 -3.2868228e-20)
(48.418202 0.70920249 -5.7963751e-20)
(48.586404 0.59987732 0)
(48.731281 0.45692849 4.1357123e-24)
(48.847305 0.29597994 -7.9533689e-20)
(48.91867 0.10568605 6.4510401e-24)
(46.820542 0.34469174 -4.2177846e-18)
(46.825446 0.35171305 9.3719166e-22)