/*--------------------------------*- C++ -*----------------------------------*\
| =========                 |                                                 |
| \\      /  F ield         | OpenFOAM: The Open Source CFD Toolbox           |
|  \\    /   O peration     | Version:  2406                                  |
|   \\  /    A nd           | Website:  www.openfoam.com                      |
|    \\/     M anipulation  |                                                 |
\*---------------------------------------------------------------------------*/
FoamFile
{
    version     2.0;
    format      ascii;
    arch        "LSB;label=32;scalar=64";
    class       volScalarField;
    location    "0.02";
    object      p;
}
// * * * * * * * * * * * * * * * * * * * * * * * * * * * * * * * * * * * * * //

dimensions      [1 -1 -2 0 0 0 0];

internalField   nonuniform List<scalar> 
23203
(
100118.86
100130.11
100140.43
100150.12
100160.27
100171.06
100182.44
100194.4
100206.95
100220.1
100233.85
100248.17
100263.04
100278.45
100294.49
100311.32
100329.16
100348.07
100367.88
100387.79
100407.57
100427.4
100447.02
100143.91
100154.58
100164.39
100173.58
100183.2
100193.43
100204.24
100215.6
100227.54
100240.05
100253.13
100266.79
100281
100295.74
100311.11
100327.27
100344.44
100362.71
100381.93
100401.27
100420.49
100439.8
100458.92
100169.76
100179.86
100189.18
100197.88
100206.98
100216.67
100226.92
100237.7
100249.02
100260.9
100273.33
100286.32
100299.85
100313.93
100328.61
100344.07
100360.54
100378.12
100396.73
100415.47
100434.08
100452.83
100471.4
100196.35
100205.9
100214.73
100222.96
100231.56
100240.72
100250.42
100260.63
100271.35
100282.61
100294.4
100306.72
100319.58
100332.97
100346.95
100361.69
100377.42
100394.29
100412.26
100430.34
100448.34
100466.49
100484.48
100223.58
100232.59
100240.98
100248.75
100256.87
100265.52
100274.68
100284.33
100294.48
100305.12
100316.27
100327.94
100340.12
100352.82
100366.08
100380.08
100395.05
100411.18
100428.44
100445.96
100463.31
100480.72
100251.37
100259.87
100267.83
100275.18
100282.84
100291
100299.65
100308.76
100318.33
100328.38
100338.9
100349.91
100361.42
100373.42
100385.97
100399.22
100413.42
100428.8
100445.31
100462.2
100478.88
100495.54
100279.61
100287.65
100295.2
100302.15
100309.38
100317.08
100325.23
100333.82
100342.84
100352.31
100362.22
100372.59
100383.43
100394.74
100406.56
100419.06
100432.48
100447.09
100462.83
100479.03
100495
100510.95
100308.23
100315.83
100323.01
100329.59
100336.42
100343.68
100351.37
100359.45
100367.94
100376.84
100386.16
100395.9
100406.07
100416.69
100427.8
100439.54
100452.18
100466
100480.94
100496.42
100511.68
100526.89
100337.13
100344.34
100351.17
100357.42
100363.87
100370.73
100377.97
100385.58
100393.55
100401.91
100410.64
100419.77
100429.29
100439.23
100449.62
100460.61
100472.47
100485.48
100499.62
100514.35
100528.87
100543.34
100366.23
100373.07
100379.61
100385.55
100391.66
100398.14
100404.96
100412.12
100419.6
100427.43
100435.6
100444.12
100453.01
100462.28
100471.96
100482.2
100493.28
100505.48
100518.8
100532.78
100546.54
100560.26
100395.44
100401.97
100408.22
100413.89
100419.7
100425.83
100432.26
100438.99
100446.01
100453.34
100460.96
100468.9
100477.16
100485.77
100494.75
100504.25
100514.55
100525.95
100538.45
100551.66
100564.65
100577.62
100424.68
100430.93
100436.95
100442.38
100447.9
100453.71
100459.79
100466.12
100472.71
100479.55
100486.65
100494.02
100501.67
100509.63
100517.92
100526.7
100536.23
100546.82
100558.51
100570.94
100583.17
100595.37
100453.87
100459.88
100465.7
100470.92
100476.2
100481.73
100487.47
100493.43
100499.6
100505.99
100512.58
100519.41
100526.47
100533.8
100541.42
100549.48
100558.24
100568.04
100578.93
100590.59
100602.04
100613.48
100482.95
100488.76
100494.4
100499.44
100504.51
100509.78
100515.23
100520.85
100526.63
100532.58
100538.7
100544.99
100551.49
100558.2
100565.16
100572.52
100580.54
100589.55
100599.64
100610.53
100621.23
100631.91
100511.85
100517.48
100522.98
100527.87
100532.76
100537.8
100542.98
100548.29
100553.71
100559.25
100564.91
100570.71
100576.65
100582.76
100589.09
100595.76
100603.04
100611.27
100620.57
100630.72
100640.71
100650.65
100540.5
100545.99
100551.37
100556.15
100560.88
100565.73
100570.67
100575.68
100580.77
100585.93
100591.16
100596.47
100601.89
100607.42
100613.13
100619.13
100625.7
100633.16
100641.67
100651.03
100660.51
100669.71
100568.85
100574.23
100579.51
100584.2
100588.8
100593.48
100598.2
100602.96
100607.74
100612.54
100617.37
100622.22
100627.13
100632.11
100637.22
100642.58
100648.46
100655.19
100662.95
100671.56
100680.32
100688.79
100596.85
100602.14
100607.35
100611.96
100616.46
100620.99
100625.53
100630.05
100634.55
100639.02
100643.47
100647.89
100652.32
100656.77
100661.3
100666.04
100671.26
100677.29
100684.29
100692.15
100700.23
100707.99
100624.45
100629.67
100634.82
100639.38
100643.8
100648.21
100652.59
100656.9
100661.15
100665.31
100669.4
100673.42
100677.38
100681.33
100685.31
100689.46
100694.04
100699.39
100705.67
100712.78
100720.19
100727.26
100651.6
100656.77
100661.88
100666.41
100670.77
100675.08
100679.31
100683.44
100687.46
100691.34
100695.1
100698.73
100702.27
100705.73
100709.18
100712.76
100716.74
100721.43
100727.01
100733.4
100740.16
100746.56
100678.27
100683.4
100688.49
100693
100697.31
100701.54
100705.65
100709.63
100713.43
100717.06
100720.51
100723.79
100726.92
100729.92
100732.87
100735.91
100739.3
100743.36
100748.27
100753.98
100760.09
100765.84
100704.44
100709.53
100714.6
100719.1
100723.38
100727.55
100731.56
100735.4
100739.02
100742.42
100745.59
100748.53
100751.28
100753.85
100756.32
100758.84
100761.67
100765.14
100769.41
100774.47
100779.95
100785.08
100730.06
100735.12
100740.19
100744.69
100748.95
100753.06
100757
100760.71
100764.17
100767.36
100770.27
100772.91
100775.3
100777.47
100779.49
100781.52
100783.82
100786.71
100790.39
100794.82
100799.7
100804.23
100755.11
100760.16
100765.22
100769.72
100773.97
100778.05
100781.92
100785.53
100788.85
100791.85
100794.53
100796.89
100798.95
100800.74
100802.33
100803.9
100805.7
100808.05
100811.15
100815
100819.3
100823.26
100779.59
100784.61
100789.66
100794.18
100798.42
100802.47
100806.29
100809.81
100813.01
100815.85
100818.32
100820.42
100822.17
100823.61
100824.81
100825.94
100827.27
100829.11
100831.67
100834.95
100838.71
100842.15
100803.46
100808.46
100813.51
100818.04
100822.28
100826.32
100830.09
100833.53
100836.63
100839.33
100841.61
100843.48
100844.95
100846.06
100846.89
100847.61
100848.5
100849.86
100851.9
100854.66
100857.91
100860.82
100826.73
100831.7
100836.74
100841.27
100845.53
100849.55
100853.29
100856.67
100859.68
100862.26
100864.37
100866.03
100867.24
100868.05
100868.54
100868.88
100869.35
100870.26
100871.81
100874.04
100876.78
100879.44
100849.36
100854.31
100859.33
100863.87
100868.14
100872.18
100875.87
100879.17
100882.09
100884.59
100886.57
100888.04
100889.02
100889.56
100889.74
100889.73
100889.82
100890.31
100891.41
100893.15
100895.38
100897.72
100871.37
100876.27
100881.28
100885.83
100890.1
100894.13
100897.81
100901.07
100903.93
100906.34
100908.2
100909.51
100910.28
100910.57
100910.47
100910.14
100909.87
100909.98
100910.67
100911.95
100913.71
100915.66
100892.72
100897.59
100902.58
100907.13
100911.4
100915.41
100919.09
100922.36
100925.19
100927.5
100929.24
100930.41
100931.01
100931.07
100930.71
100930.08
100929.49
100929.24
100929.54
100930.4
100931.72
100933.28
100913.43
100918.24
100923.21
100927.77
100932.04
100936.05
100939.72
100942.97
100945.76
100948.02
100949.68
100950.73
100951.17
100951.04
100950.44
100949.55
100948.65
100948.07
100948.01
100948.48
100949.39
100950.59
100933.47
100938.23
100943.16
100947.72
100952
100956.01
100959.67
100962.93
100965.69
100967.9
100969.5
100970.46
100970.77
100970.47
100969.67
100968.53
100967.36
100966.47
100966.08
100966.18
100966.72
100967.59
100952.84
100957.55
100962.45
100967.01
100971.28
100975.28
100978.96
100982.22
100984.97
100987.16
100988.71
100989.59
100989.79
100989.36
100988.37
100987.02
100985.59
100984.42
100983.72
100983.47
100983.65
100984.15
100971.54
100976.18
100981.04
100985.58
100989.84
100993.82
100997.6
101000.93
101003.64
101005.79
101007.3
101008.12
101008.24
101007.69
101006.55
101005.01
101003.36
101001.93
101000.95
101000.4
101000.23
101000.37
100989.61
100994.19
100999.03
101003.6
101007.91
101011.94
101015.57
101018.76
101021.53
101023.71
101025.23
101026.04
101026.11
101025.47
101024.2
101022.5
101020.65
101018.99
101017.74
101016.91
101016.41
101016.21
101006.97
101011.48
101016.29
101020.84
101025.15
101029.18
101032.82
101036.06
101038.84
101041.03
101042.56
101043.36
101043.4
101042.69
101041.33
101039.49
101037.46
101035.59
101034.11
101033.02
101032.23
101031.72
101023.65
101028.1
101032.86
101037.4
101041.7
101045.74
101049.43
101052.72
101055.51
101057.73
101059.27
101060.08
101060.11
101059.37
101057.94
101055.98
101053.8
101051.74
101050.05
101048.72
101047.66
101046.85
101039.65
101044.03
101048.75
101053.3
101057.6
101061.65
101065.37
101068.69
101071.52
101073.77
101075.35
101076.19
101076.24
101075.49
101074.02
101071.98
101069.67
101067.44
101065.55
101064.01
101062.72
101061.66
101054.97
101059.28
101063.97
101068.51
101072.83
101076.9
101080.64
101084
101086.87
101089.17
101090.8
101091.7
101091.79
101091.06
101089.57
101087.48
101085.07
101082.69
101080.62
101078.89
101077.4
101076.09
101069.62
101073.86
101078.52
101083.06
101087.4
101091.48
101095.26
101098.65
101101.57
101103.93
101105.64
101106.6
101106.76
101106.08
101104.61
101102.49
101100
101097.49
101095.25
101093.35
101091.68
101090.2
101083.59
101087.77
101092.4
101096.95
101101.3
101105.41
101109.22
101112.66
101115.64
101118.07
101119.86
101120.91
101121.15
101120.55
101119.12
101117.01
101114.47
101111.85
101109.46
101107.4
101105.57
101103.92
101096.89
101101.02
101105.61
101110.17
101114.54
101118.68
101122.54
101126.03
101129.08
101131.59
101133.47
101134.63
101134.98
101134.48
101133.13
101131.05
101128.49
101125.78
101123.26
101121.04
101119.07
101117.27
101109.54
101113.6
101118.17
101122.74
101127.14
101131.32
101135.22
101138.77
101141.89
101144.5
101146.48
101147.76
101148.24
101147.87
101146.63
101144.62
101142.06
101139.29
101136.64
101134.29
101132.18
101130.24
101121.53
101125.53
101130.08
101134.67
101139.1
101143.32
101147.27
101150.89
101154.09
101156.8
101158.91
101160.32
101160.95
101160.72
101159.62
101157.71
101155.19
101152.38
101149.63
101147.16
101144.92
101142.85
101132.87
101136.82
101141.35
101145.96
101150.42
101154.69
101158.7
101162.39
101165.69
101168.5
101170.74
101172.31
101173.1
101173.05
101172.11
101170.33
101167.89
101165.07
101162.24
101159.64
101157.28
101155.1
101143.57
101147.47
101151.98
101156.62
101161.12
101165.43
101169.51
101173.28
101176.68
101179.61
101182
101183.72
101184.7
101184.85
101184.1
101182.49
101180.16
101177.36
101174.47
101171.75
101169.29
101166.99
101153.65
101157.49
101161.99
101166.65
101171.2
101175.57
101179.71
101183.57
101187.08
101190.14
101192.67
101194.58
101195.76
101196.11
101195.59
101194.18
101191.99
101189.27
101186.33
101183.51
101180.93
101178.54
101163.11
101166.9
101171.38
101176.07
101180.67
101185.1
101189.32
101193.27
101196.88
101200.08
101202.78
101204.87
101206.26
101206.85
101206.57
101205.39
101203.39
101200.77
101197.83
101194.91
101192.24
101189.75
101171.96
101175.69
101180.16
101184.89
101189.53
101194.02
101198.32
101202.37
101206.1
101209.44
101212.31
101214.6
101216.21
101217.06
101217.04
101216.12
101214.35
101211.88
101208.98
101205.98
101203.2
101200.63
101180.21
101183.88
101188.34
101193.1
101197.8
101202.35
101206.73
101210.88
101214.73
101218.22
101221.26
101223.76
101225.61
101226.72
101226.99
101226.36
101224.85
101222.58
101219.75
101216.71
101213.85
101211.18
101187.87
101191.48
101195.92
101200.71
101205.46
101210.08
101214.54
101218.8
101222.78
101226.42
101229.64
101232.35
101234.44
101235.83
101236.4
101236.08
101234.87
101232.84
101230.17
101227.14
101224.18
101221.42
101194.96
101198.49
101202.91
101207.73
101212.54
101217.22
101221.76
101226.12
101230.24
101234.03
101237.44
101240.36
101242.71
101244.38
101245.27
101245.29
101244.4
101242.67
101240.21
101237.25
101234.2
101231.34
101201.47
101204.92
101209.32
101214.17
101219.02
101223.77
101228.4
101232.87
101237.11
101241.06
101244.65
101247.79
101250.39
101252.36
101253.57
101253.95
101253.43
101252.03
101249.84
101247.03
101243.91
101240.95
101207.45
101210.81
101215.17
101220.03
101224.91
101229.7
101234.41
101239.01
101243.38
101247.48
101251.25
101254.62
101257.48
101259.74
101261.3
101262.05
101261.91
101260.88
101259.02
101256.42
101253.32
101250.27
101212.8
101216.04
101220.34
101225.18
101230.03
101234.84
101239.93
101244.86
101249.27
101253.43
101257.34
101260.88
101263.98
101266.53
101268.43
101269.56
101269.83
101269.2
101267.7
101265.4
101262.44
101259.31
101217.87
101221.03
101225.35
101230.29
101235.33
101240.29
101244.91
101249.42
101254.04
101258.48
101262.63
101266.43
101269.81
101272.67
101274.92
101276.44
101277.14
101276.94
101275.86
101273.95
101271.24
101268.07
101222.23
101225.25
101229.48
101234.4
101239.41
101244.35
101249.15
101253.89
101258.62
101263.17
101267.47
101271.46
101275.07
101278.21
101280.79
101282.7
101283.83
101284.09
101283.46
101281.97
101279.61
101276.52
101226.17
101229.04
101233.2
101238.1
101243.08
101248.02
101252.92
101257.79
101262.61
101267.26
101271.69
101275.86
101279.69
101283.1
101286
101288.29
101289.85
101290.59
101290.43
101289.4
101287.48
101284.68
101229.58
101232.29
101236.36
101241.2
101246.12
101250.97
101255.84
101261.12
101266.31
101270.96
101275.42
101279.69
101283.69
101287.34
101290.54
101293.19
101295.17
101296.39
101296.73
101296.2
101294.79
101292.43
101232.76
101235.52
101239.64
101244.42
101249.32
101254.23
101259.16
101264.07
101268.89
101273.66
101278.3
101282.75
101286.96
101290.85
101294.34
101297.34
101299.75
101301.44
101302.31
101302.3
101301.42
101299.59
101235.61
101238.4
101242.45
101247.13
101251.96
101256.85
101261.74
101266.27
101270.84
101275.74
101280.55
101285.16
101289.55
101293.67
101297.43
101300.76
101303.56
101305.71
101307.11
101307.65
101307.32
101306.09
101237.84
101240.61
101244.51
101248.98
101253.59
101258.23
101262.87
101267.57
101272.78
101277.99
101282.69
101287.24
101291.68
101295.92
101299.88
101303.48
101306.62
101309.2
101311.1
101312.21
101312.46
101311.83
101239.79
101242.48
101246.31
101250.71
101255.26
101259.89
101264.6
101269.38
101274.17
101278.92
101283.69
101288.39
101292.98
101297.39
101301.56
101305.42
101308.9
101311.88
101314.26
101315.93
101316.77
101316.75
101241.36
101243.95
101247.7
101251.99
101256.45
101261.02
101265.7
101270.41
101274.8
101279.26
101284.12
101288.95
101293.66
101298.21
101302.56
101306.65
101310.42
101313.76
101316.59
101318.78
101320.23
101320.83
101242.42
101244.86
101248.47
101252.58
101256.84
101261.18
101265.6
101270.06
101274.62
101279.72
101284.85
101289.53
101294.12
101298.66
101303.08
101307.31
101311.28
101314.92
101318.12
101320.78
101322.79
101324.02
101243.47
101245.79
101249.31
101253.31
101257.47
101261.74
101266.14
101270.67
101275.26
101279.63
101284.05
101288.81
101293.57
101298.24
101302.8
101307.2
101311.38
101315.29
101318.83
101321.93
101324.46
101326.29
101244.07
101246.24
101249.6
101253.41
101257.36
101261.42
101265.6
101269.89
101274.22
101278.56
101283.46
101288.52
101293.14
101297.7
101302.23
101306.67
101310.97
101315.06
101318.86
101322.3
101325.29
101327.67
101244.65
101246.7
101249.93
101253.59
101257.39
101261.32
101265.38
101269.59
101273.93
101278.34
101282.63
101287
101291.65
101296.31
101300.92
101305.45
101309.88
101314.13
101318.17
101321.91
101325.28
101328.14
101244.95
101246.83
101249.9
101253.36
101256.95
101260.67
101264.52
101268.52
101272.64
101276.8
101280.89
101285.56
101290.49
101295.03
101299.51
101303.99
101308.43
101312.76
101316.94
101320.89
101324.56
101327.82
101245.23
101246.98
101249.9
101253.18
101256.6
101260.14
101263.84
101267.69
101271.68
101275.82
101280.02
101284.12
101288.34
101292.85
101297.39
101301.91
101306.39
101310.81
101315.1
101319.23
101323.14
101326.71
101245.32
101246.92
101249.67
101252.74
101255.93
101259.25
101262.73
101266.35
101270.12
101274.02
101277.97
101281.86
101286.33
101291.08
101295.47
101299.83
101304.22
101308.6
101312.93
101317.15
101321.2
101325
101245.44
101246.9
101249.49
101252.37
101255.37
101258.5
101261.8
101265.25
101268.86
101272.63
101276.54
101280.52
101284.37
101288.35
101292.7
101297.11
101301.52
101305.93
101310.29
101314.59
101318.77
101322.76
101245.44
101246.75
101249.17
101251.83
101254.61
101257.51
101260.58
101263.79
101267.16
101270.67
101274.3
101278
101281.71
101285.99
101290.52
101294.74
101298.95
101303.21
101307.51
101311.79
101316.01
101320.1
101245.48
101246.66
101248.91
101251.37
101253.94
101256.64
101259.51
101262.53
101265.7
101269.03
101272.51
101276.12
101279.78
101283.3
101287.39
101291.88
101296.05
101300.21
101304.43
101308.67
101312.9
101317.05
101245.51
101246.56
101248.64
101250.89
101253.26
101255.76
101258.41
101261.23
101264.2
101267.32
101270.6
101274.04
101277.59
101281.18
101284.89
101288.8
101292.86
101296.97
101301.13
101305.33
101309.53
101313.69
101245.55
101246.46
101248.37
101250.43
101252.58
101254.87
101257.31
101259.91
101262.67
101265.58
101268.64
101271.86
101275.23
101278.65
101281.89
101285.69
101289.93
101293.91
101297.89
101301.96
101306.07
101310.18
101245.62
101246.41
101248.15
101250.01
101251.96
101254.05
101256.29
101258.69
101261.24
101263.95
101266.82
101269.84
101273.02
101276.34
101279.74
101283.06
101286.56
101290.41
101294.36
101298.36
101302.4
101306.45
101245.67
101246.29
101247.87
101249.55
101251.31
101253.2
101255.23
101257.42
101259.76
101262.24
101264.87
101267.65
101270.58
101273.64
101276.77
101279.93
101283.61
101287.55
101291.27
101295.02
101298.87
101302.78
101245.74
101246.19
101247.63
101249.15
101250.73
101252.43
101254.28
101256.28
101258.43
101260.72
101263.17
101265.76
101268.5
101271.4
101274.44
101277.53
101280.51
101284
101287.89
101291.56
101295.26
101299.03
101245.82
101246.12
101247.43
101248.81
101250.2
101251.72
101253.39
101255.2
101257.16
101259.26
101261.52
101263.92
101266.47
101269.18
101272.03
101275.03
101278.09
101281.18
101284.44
101287.97
101291.6
101295.27
101245.91
101246.03
101247.21
101248.44
101249.68
101251.03
101252.52
101254.15
101255.93
101257.85
101259.91
101262.12
101264.46
101266.96
101269.6
101272.37
101275.21
101278.03
101281.32
101284.92
101288.34
101291.79
101246.04
101245.82
101246.76
101247.88
101249.02
101250.25
101251.61
101253.11
101254.74
101256.51
101258.41
101260.45
101262.63
101264.95
101267.41
101270.02
101272.75
101275.53
101278.27
101281.47
101285.02
101288.36
101246.29
101245.74
101246.42
101247.41
101248.46
101249.59
101250.83
101252.19
101253.68
101255.3
101257.05
101258.94
101260.95
101263.11
101265.4
101267.83
101270.4
101273.08
101275.82
101278.68
101281.74
101284.93
101246.65
101245.74
101246.13
101246.97
101247.93
101248.96
101250.09
101251.34
101252.7
101254.19
101255.79
101257.53
101259.39
101261.38
101263.5
101265.75
101268.14
101270.67
101273.25
101275.73
101278.64
101281.91
101247.08
101246.04
101246.29
101247.01
101247.83
101248.71
101249.7
101250.79
101252.01
101253.34
101254.79
101256.37
101258.07
101259.9
101261.85
101263.94
101266.16
101268.52
101271
101273.56
101276.1
101278.79
101247.5
101246.2
101246.2
101246.81
101247.61
101248.41
101249.28
101250.26
101251.35
101252.55
101253.86
101255.29
101256.84
101258.51
101260.29
101262.2
101264.23
101266.39
101268.66
101271.01
101273.38
101276.15
101248.14
101246.72
101246.57
101247.08
101247.71
101248.38
101249.13
101249.98
101250.94
101252
101253.18
101254.46
101255.86
101257.38
101259.02
101260.77
101262.65
101264.65
101266.78
101269.02
101271.32
101273.58
101248.79
101247.28
101246.98
101247.37
101247.9
101248.46
101249.1
101249.83
101250.66
101251.6
101252.64
101253.79
101255.06
101256.43
101257.92
101259.53
101261.25
101263.1
101265.07
101267.16
101269.35
101271.62
101249.5
101247.92
101247.49
101247.78
101248.21
101248.67
101249.2
101249.82
101250.54
101251.35
101252.27
101253.28
101254.41
101255.64
101256.98
101258.44
101260.01
101261.69
101263.49
101265.41
101267.44
101269.54
101250.23
101248.62
101248.1
101248.29
101248.63
101248.99
101249.42
101249.94
101250.55
101251.25
101252.05
101252.94
101253.94
101255.05
101256.26
101257.58
101259.01
101260.55
101262.21
101263.99
101265.88
101267.89
101251
101249.39
101248.81
101248.91
101249.16
101249.43
101249.76
101250.17
101250.68
101251.27
101251.95
101252.73
101253.6
101254.57
101255.65
101256.83
101258.12
101259.51
101261.01
101262.61
101264.32
101266.14
101251.79
101250.19
101249.57
101249.6
101249.76
101249.95
101250.19
101250.51
101250.92
101251.41
101251.98
101252.65
101253.41
101254.27
101255.23
101256.28
101257.44
101258.71
101260.08
101261.55
101263.13
101264.83
101252.59
101251.02
101250.37
101250.33
101250.42
101250.52
101250.69
101250.92
101251.24
101251.64
101252.12
101252.69
101253.34
101254.09
101254.93
101255.87
101256.91
101258.06
101259.3
101260.64
101262.09
101263.65
101253.4
101251.86
101251.19
101251.09
101251.1
101251.14
101251.23
101251.39
101251.63
101251.94
101252.33
101252.81
101253.37
101254.01
101254.75
101255.58
101256.5
101257.52
101258.64
101259.86
101261.17
101262.6
101254.22
101252.71
101252.01
101251.86
101251.82
101251.79
101251.82
101251.91
101252.08
101252.31
101252.62
101253.01
101253.48
101254.04
101254.68
101255.41
101256.23
101257.14
101258.15
101259.25
101260.45
101261.75
101255.02
101253.55
101252.84
101252.64
101252.54
101252.46
101252.43
101252.47
101252.56
101252.73
101252.97
101253.28
101253.67
101254.14
101254.7
101255.33
101256.06
101256.87
101257.78
101258.78
101259.87
101261.06
101255.82
101254.37
101253.65
101253.41
101253.27
101253.15
101253.06
101253.04
101253.08
101253.19
101253.36
101253.61
101253.92
101254.31
101254.79
101255.34
101255.97
101256.7
101257.51
101258.4
101259.39
101260.47
101256.59
101255.18
101254.46
101254.18
101254
101253.83
101253.7
101253.63
101253.62
101253.67
101253.79
101253.97
101254.22
101254.54
101254.94
101255.42
101255.97
101256.61
101257.33
101258.14
101259.03
101260.02
101257.35
101255.97
101255.23
101254.93
101254.71
101254.51
101254.34
101254.23
101254.17
101254.17
101254.23
101254.36
101254.55
101254.81
101255.14
101255.54
101256.02
101256.58
101257.22
101257.94
101258.74
101259.63
101258.07
101256.73
101255.99
101255.66
101255.41
101255.17
101254.97
101254.82
101254.72
101254.68
101254.69
101254.77
101254.9
101255.11
101255.38
101255.72
101256.13
101256.62
101257.18
101257.83
101258.55
101259.36
101258.76
101257.45
101256.71
101256.35
101256.08
101255.82
101255.59
101255.4
101255.27
101255.19
101255.16
101255.19
101255.27
101255.42
101255.64
101255.92
101256.27
101256.7
101257.2
101257.77
101258.42
101259.15
101259.42
101258.13
101257.39
101257.02
101256.72
101256.43
101256.18
101255.97
101255.8
101255.68
101255.62
101255.61
101255.65
101255.75
101255.92
101256.15
101256.44
101256.81
101257.24
101257.75
101258.33
101258.99
101260.05
101258.78
101258.04
101257.65
101257.33
101257.02
101256.74
101256.51
101256.31
101256.17
101256.07
101256.02
101256.02
101256.09
101256.21
101256.39
101256.63
101256.94
101257.32
101257.77
101258.29
101258.88
101260.63
101259.38
101258.64
101258.24
101257.9
101257.58
101257.28
101257.02
101256.8
101256.63
101256.5
101256.42
101256.39
101256.42
101256.49
101256.63
101256.83
101257.09
101257.42
101257.81
101258.27
101258.81
101261.18
101259.94
101259.2
101258.79
101258.44
101258.1
101257.79
101257.51
101257.27
101257.07
101256.92
101256.81
101256.75
101256.73
101256.78
101256.87
101257.03
101257.25
101257.53
101257.87
101258.27
101258.76
101261.69
101260.46
101259.72
101259.3
101258.94
101258.59
101258.26
101257.96
101257.71
101257.49
101257.31
101257.17
101257.08
101257.04
101257.05
101257.11
101257.23
101257.4
101257.63
101257.93
101258.28
101258.72
101262.16
101260.94
101260.2
101259.77
101259.4
101259.04
101258.7
101258.39
101258.11
101257.87
101257.67
101257.52
101257.4
101257.33
101257.31
101257.33
101257.41
101257.55
101257.74
101257.99
101258.31
101258.69
101262.6
101261.38
101260.64
101260.2
101259.83
101259.46
101259.1
101258.78
101258.49
101258.23
101258.02
101257.83
101257.69
101257.6
101257.55
101257.54
101257.59
101257.69
101257.84
101258.05
101258.32
101258.66
101263
101261.79
101261.04
101260.6
101260.22
101259.84
101259.48
101259.14
101258.84
101258.57
101258.33
101258.13
101257.97
101257.85
101257.77
101257.74
101257.75
101257.82
101257.94
101258.11
101258.34
101258.63
101263.38
101262.16
101261.41
101260.97
101260.58
101260.2
101259.82
101259.48
101259.16
101258.88
101258.62
101258.41
101258.22
101258.08
101257.98
101257.92
101257.9
101257.93
101258.02
101258.15
101258.34
101258.59
101263.73
101262.51
101261.75
101261.3
101260.91
101260.52
101260.14
101259.79
101259.46
101259.16
101258.89
101258.66
101258.46
101258.29
101258.16
101258.08
101258.04
101258.04
101258.09
101258.19
101258.34
101258.55
101264.06
101262.83
101262.06
101261.62
101261.22
101260.83
101260.44
101260.08
101259.74
101259.43
101259.15
101258.9
101258.68
101258.49
101258.34
101258.23
101258.16
101258.14
101258.16
101258.22
101258.34
101258.52
101264.38
101263.13
101262.36
101261.91
101261.51
101261.11
101260.72
101260.35
101260
101259.68
101259.39
101259.12
101258.88
101258.68
101258.51
101258.37
101258.28
101258.22
101258.21
101258.24
101258.32
101258.47
101264.68
101263.41
101262.64
101262.19
101261.79
101261.39
101260.99
101260.61
101260.26
101259.93
101259.62
101259.34
101259.08
101258.86
101258.67
101258.51
101258.39
101258.31
101258.27
101258.27
101258.32
101258.43
101264.97
101263.69
101262.91
101262.46
101262.06
101261.65
101261.25
101260.87
101260.5
101260.16
101259.84
101259.55
101259.28
101259.04
101258.82
101258.65
101258.5
101258.39
101258.32
101258.29
101258.31
101258.38
101265.25
101263.96
101263.18
101262.73
101262.33
101261.92
101261.51
101261.12
101260.75
101260.4
101260.07
101259.76
101259.48
101259.22
101258.99
101258.79
101258.62
101258.49
101258.39
101258.34
101258.32
101258.36
101265.54
101264.23
101263.44
101262.99
101262.59
101262.18
101261.77
101261.37
101261
101260.64
101260.3
101259.98
101259.68
101259.4
101259.16
101258.94
101258.75
101258.59
101258.46
101258.37
101258.33
101258.34
101265.82
101264.51
101263.72
101263.27
101262.87
101262.45
101262.04
101261.64
101261.26
101260.89
101260.54
101260.21
101259.9
101259.61
101259.34
101259.11
101258.89
101258.71
101258.56
101258.45
101258.38
101258.35
101266.11
101264.79
101263.99
101263.55
101263.15
101262.73
101262.32
101261.91
101261.52
101261.15
101260.79
101260.44
101260.12
101259.82
101259.54
101259.28
101259.05
101258.84
101258.67
101258.52
101258.42
101258.38
101266.41
101265.09
101264.29
101263.84
101263.44
101263.03
101262.61
101262.2
101261.81
101261.42
101261.06
101260.71
101260.37
101260.06
101259.76
101259.49
101259.24
101259.01
101258.81
101258.64
101258.52
101258.44
101266.72
101265.39
101264.59
101264.15
101263.75
101263.34
101262.92
101262.5
101262.11
101261.72
101261.34
101260.98
101260.64
101260.31
101260
101259.71
101259.44
101259.19
101258.97
101258.78
101258.63
101258.52
101267.04
101265.71
101264.91
101264.47
101264.08
101263.66
101263.24
101262.83
101262.43
101262.03
101261.65
101261.29
101260.93
101260.59
101260.27
101259.96
101259.68
101259.41
101259.17
101258.96
101258.78
101258.65
101267.36
101266.04
101265.25
101264.81
101264.42
101264.01
101263.58
101263.17
101262.76
101262.37
101261.98
101261.61
101261.25
101260.9
101260.56
101260.24
101259.94
101259.66
101259.39
101259.16
101258.96
101258.81
101267.69
101266.39
101265.6
101265.17
101264.78
101264.37
101263.95
101263.53
101263.12
101262.73
101262.34
101261.96
101261.59
101261.23
101260.88
101260.55
101260.24
101259.94
101259.66
101259.4
101259.19
101259.01
101268.03
101266.75
101265.97
101265.54
101265.15
101264.74
101264.32
101263.91
101263.5
101263.1
101262.71
101262.32
101261.95
101261.58
101261.23
101260.89
101260.56
101260.25
101259.95
101259.68
101259.44
101259.24
101268.38
101267.11
101266.35
101265.92
101265.54
101265.13
101264.72
101264.3
101263.9
101263.5
101263.1
101262.71
101262.33
101261.96
101261.6
101261.25
101260.91
101260.59
101260.28
101259.99
101259.73
101259.52
101268.72
101267.48
101266.73
101266.31
101265.93
101265.53
101265.12
101264.71
101264.31
101263.9
101263.51
101263.12
101262.74
101262.36
101261.99
101261.64
101261.29
101260.95
101260.63
101260.33
101260.06
101259.83
101269.06
101267.85
101267.12
101266.71
101266.34
101265.94
101265.53
101265.12
101264.72
101264.32
101263.93
101263.54
101263.15
101262.78
101262.4
101262.04
101261.69
101261.34
101261.01
101260.7
101260.41
101260.16
101269.39
101268.23
101267.51
101267.1
101266.74
101266.35
101265.94
101265.54
101265.14
101264.75
101264.36
101263.97
101263.58
101263.2
101262.83
101262.46
101262.1
101261.75
101261.41
101261.09
101260.79
101260.53
101269.72
101268.59
101267.9
101267.5
101267.14
101266.75
101266.36
101265.96
101265.57
101265.17
101264.78
101264.4
101264.01
101263.63
101263.26
101262.89
101262.53
101262.17
101261.82
101261.49
101261.19
101260.91
101270.02
101268.94
101268.27
101267.88
101267.53
101267.15
101266.76
101266.37
101265.98
101265.6
101265.21
101264.83
101264.45
101264.07
101263.69
101263.32
101262.96
101262.6
101262.25
101261.91
101261.6
101261.32
101270.31
101269.27
101268.63
101268.25
101267.9
101267.53
101267.15
101266.77
101266.39
101266.01
101265.63
101265.25
101264.87
101264.5
101264.12
101263.75
101263.39
101263.03
101262.67
101262.33
101262.02
101261.73
101270.57
101269.58
101268.97
101268.6
101268.26
101267.9
101267.53
101267.15
101266.78
101266.4
101266.03
101265.66
101265.28
101264.91
101264.54
101264.18
101263.81
101263.45
101263.1
101262.76
101262.44
101262.14
101270.8
101269.87
101269.28
101268.92
101268.59
101268.24
101267.87
101267.51
101267.15
101266.78
101266.41
101266.05
101265.68