/*--------------------------------*- C++ -*----------------------------------*\
| =========                 |                                                 |
| \\      /  F ield         | OpenFOAM: The Open Source CFD Toolbox           |
|  \\    /   O peration     | Version:  2406                                  |
|   \\  /    A nd           | Website:  www.openfoam.com                      |
|    \\/     M anipulation  |                                                 |
\*---------------------------------------------------------------------------*/
FoamFile
{
    version     2.0;
    format      ascii;
    arch        "LSB;label=32;scalar=64";
    class       volScalarField;
    location    "0.02";
    object      pMean;
}
// * * * * * * * * * * * * * * * * * * * * * * * * * * * * * * * * * * * * * //

dimensions      [1 -1 -2 0 0 0 0];

internalField   nonuniform List<scalar> 
23203
(
100283.84
100290.66
100297.62
100304.43
100311.53
100319.04
100326.93
100335.19
100343.84
100352.84
100362.2
100371.95
100382.08
100392.56
100403.4
100414.53
100425.92
100437.52
100449.29
100461.2
100473.27
100485.47
100497.81
100303.58
100310.11
100316.82
100323.42
100330.27
100337.5
100345.07
100352.99
100361.28
100369.92
100378.92
100388.28
100397.99
100408.08
100418.51
100429.25
100440.23
100451.43
100462.81
100474.35
100486.03
100497.86
100509.83
100323.4
100329.63
100336.13
100342.5
100349.12
100356.07
100363.36
100370.98
100378.93
100387.21
100395.83
100404.81
100414.12
100423.81
100433.84
100444.18
100454.76
100465.55
100476.54
100487.69
100498.99
100510.46
100522.05
100343.22
100349.18
100355.48
100361.66
100368.06
100374.75
100381.77
100389.09
100396.71
100404.64
100412.91
100421.5
100430.43
100439.72
100449.35
100459.28
100469.46
100479.85
100490.45
100501.2
100512.12
100523.21
100534.44
100363.01
100368.71
100374.82
100380.83
100387.03
100393.49
100400.23
100407.26
100414.57
100422.19
100430.11
100438.33
100446.87
100455.77
100465
100474.53
100484.31
100494.31
100504.51
100514.88
100525.42
100536.13
100382.71
100388.17
100394.1
100399.96
100405.97
100412.22
100418.73
100425.48
100432.5
100439.79
100447.38
100455.24
100463.41
100471.92
100480.77
100489.91
100499.29
100508.89
100518.7
100528.68
100538.85
100549.18
100402.28
100407.51
100413.29
100419.02
100424.85
100430.91
100437.2
100443.69
100450.43
100457.43
100464.68
100472.2
100480.02
100488.15
100496.62
100505.37
100514.37
100523.58
100533
100542.6
100552.39
100562.33
100421.69
100426.7
100432.34
100437.94
100443.64
100449.52
100455.58
100461.84
100468.32
100475.04
100481.98
100489.17
100496.64
100504.42
100512.52
100520.9
100529.51
100538.34
100547.37
100556.6
100566
100575.57
100440.88
100445.68
100451.2
100456.71
100462.27
100467.98
100473.86
100479.9
100486.14
100492.59
100499.25
100506.12
100513.26
100520.69
100528.43
100536.44
100544.68
100553.14
100561.8
100570.65
100579.68
100588.88
100459.8
100464.42
100469.83
100475.25
100480.71
100486.28
100491.98
100497.84
100503.86
100510.05
100516.43
100523.02
100529.84
100536.93
100544.32
100551.98
100559.87
100567.96
100576.25
100584.73
100593.4
100602.22
100478.44
100482.89
100488.2
100493.56
100498.93
100504.38
100509.93
100515.61
100521.42
100527.38
100533.5
100539.81
100546.33
100553.11
100560.16
100567.49
100575.03
100582.76
100590.7
100598.82
100607.13
100615.6
100496.75
100501.03
100506.28
100511.59
100516.89
100522.24
100527.66
100533.17
100538.79
100544.54
100550.42
100556.47
100562.71
100569.18
100575.92
100582.92
100590.13
100597.52
100605.11
100612.89
100620.85
100628.96
100514.73
100518.84
100524.03
100529.33
100534.56
100539.81
100545.12
100550.5
100555.95
100561.5
100567.17
100572.97
100578.95
100585.14
100591.57
100598.26
100605.15
100612.22
100619.47
100626.91
100634.53
100642.31
100532.4
100536.27
100541.39
100546.69
100551.91
100557.09
100562.31
100567.57
100572.86
100578.23
100583.7
100589.28
100595.01
100600.93
100607.08
100613.46
100620.06
100626.82
100633.75
100640.87
100648.16
100655.61
100549.65
100553.37
100558.42
100563.7
100568.9
100574.06
100579.19
100584.33
100589.5
100594.71
100599.99
100605.37
100610.87
100616.55
100622.43
100628.52
100634.83
100641.3
100647.92
100654.73
100661.71
100668.84
100566.56
100570.11
100575.06
100580.33
100585.51
100590.64
100595.73
100600.78
100605.83
100610.91
100616.02
100621.21
100626.51
100631.95
100637.57
100643.41
100649.44
100655.63
100661.97
100668.47
100675.15
100681.98
100583.01
100586.43
100591.34
100596.59
100601.76
100606.85
100611.89
100616.9
100621.85
100626.8
100631.77
100636.79
100641.89
100647.12
100652.51
100658.09
100663.86
100669.79
100675.86
100682.08
100688.47
100695.01
100599.05
100602.35
100607.21
100612.45
100617.62
100622.68
100627.68
100632.62
100637.52
100642.37
100647.2
100652.07
100656.99
100662.03
100667.2
100672.55
100678.08
100683.76
100689.57
100695.53
100701.64
100707.91
100614.65
100617.81
100622.65
100627.92
100633.08
100638.12
100643.08
100647.98
100652.8
100657.58
100662.31
100667.03
100671.8
100676.66
100681.64
100686.77
100692.07
100697.51
100703.09
100708.8
100714.66
100720.65
100629.8
100632.83
100637.67
100642.95
100648.12
100653.17
100658.1
100662.94
100667.71
100672.41
100677.06
100681.68
100686.3
100690.99
100695.79
100700.73
100705.81
100711.04
100716.39
100721.86
100727.48
100733.23
100644.5
100647.42
100652.24
100657.56
100662.74
100667.77
100672.7
100677.52
100682.24
100686.87
100691.43
100695.96
100700.47
100705.01
100709.65
100714.4
100719.3
100724.32
100729.45
100734.71
100740.1
100745.61
100658.75
100661.56
100666.36
100671.72
100676.92
100681.96
100686.88
100691.69
100696.37
100700.94
100705.44
100709.87
100714.28
100718.71
100723.19
100727.78
100732.49
100737.33
100742.27
100747.32
100752.5
100757.8
100672.54
100675.24
100680.03
100685.42
100690.66
100695.7
100700.63
100705.43
100710.09
100714.63
100719.05
100723.42
100727.73
100732.05
100736.41
100740.85
100745.4
100750.06
100754.82
100759.68
100764.66
100769.75
100685.88
100688.47
100693.26
100698.68
100703.95
100709.02
100713.95
100718.75
100723.41
100727.91
100732.29
100736.57
100740.81
100745.03
100749.28
100753.6
100758
100762.5
100767.1
100771.79
100776.57
100781.47
100698.76
100701.27
100706.03
100711.48
100716.79
100721.88
100726.82
100731.62
100736.29
100740.78
100745.13
100749.35
100753.51
100757.64
100761.8
100765.99
100770.27
100774.63
100779.08
100783.61
100788.22
100792.93
100711.21
100713.62
100718.36
100723.84
100729.17
100734.3
100739.26
100744.07
100748.73
100753.23
100757.55
100761.74
100765.83
100769.88
100773.95
100778.05
100782.2
100786.44
100790.75
100795.14
100799.6
100804.15
100723.2
100725.54
100730.27
100735.76
100741.11
100746.26
100751.25
100756.08
100760.74
100765.23
100769.56
100773.72
100777.77
100781.75
100785.73
100789.74
100793.8
100797.92
100802.11
100806.37
100810.7
100815.09
100734.75
100737.04
100741.76
100747.25
100752.61
100757.77
100762.78
100767.64
100772.32
100776.81
100781.14
100785.3
100789.31
100793.25
100797.15
100801.07
100805.04
100809.06
100813.14
100817.28
100821.49
100825.74
100745.82
100748.08
100752.82
100758.31
100763.66
100768.83
100773.87
100778.74
100783.44
100787.96
100792.29
100796.44
100800.45
100804.35
100808.19
100812.05
100815.93
100819.86
100823.84
100827.87
100831.97
100836.11
100756.43
100758.67
100763.41
100768.89
100774.25
100779.43
100784.48
100789.38
100794.11
100798.65
100803
100807.16
100811.17
100815.05
100818.86
100822.65
100826.45
100830.3
100834.2
100838.14
100842.13
100846.17
100766.59
100768.8
100773.53
100779
100784.36
100789.55
100794.62
100799.55
100804.32
100808.89
100813.27
100817.46
100821.46
100825.34
100829.13
100832.88
100836.63
100840.4
100844.21
100848.07
100851.97
100855.91
100776.27
100778.45
100783.17
100788.63
100793.99
100799.2
100804.29
100809.26
100814.06
100818.67
100823.09
100827.3
100831.34
100835.22
100839.01
100842.73
100846.44
100850.16
100853.89
100857.67
100861.49
100865.34
100785.48
100787.61
100792.32
100797.8
100803.17
100808.39
100813.5
100818.49
100823.34
100828
100832.46
100836.72
100840.79
100844.69
100848.47
100852.2
100855.88
100859.55
100863.23
100866.94
100870.69
100874.46
100794.25
100796.35
100801.04
100806.51
100811.88
100817.11
100822.24
100827.26
100832.15
100836.86
100841.37
100845.69
100849.8
100853.74
100857.54
100861.26
100864.94
100868.59
100872.23
100875.88
100879.55
100883.27
100802.6
100804.65
100809.33
100814.77
100820.12
100825.36
100830.51
100835.57
100840.49
100845.25
100849.83
100854.2
100858.37
100862.36
100866.2
100869.93
100873.61
100877.25
100880.87
100884.48
100888.1
100891.74
100810.51
100812.5
100817.15
100822.57
100827.93
100833.17
100838.34
100843.42
100848.38
100853.19
100857.83
100862.27
100866.5
100870.55
100874.44
100878.22
100881.91
100885.55
100889.16
100892.74
100896.32
100899.91
100818.01
100819.96
100824.59
100829.98
100835.31
100840.54
100845.71
100850.81
100855.81
100860.67
100865.36
100869.88
100874.19
100878.31
100882.26
100886.09
100889.81
100893.47
100897.08
100900.66
100904.22
100907.77
100825.14
100827.02
100831.59
100836.95
100842.25
100847.46
100852.64
100857.76
100862.79
100867.7
100872.45
100877.04
100881.43
100885.63
100889.65
100893.54
100897.32
100901.02
100904.65
100908.23
100911.78
100915.32
100831.85
100833.67
100838.2
100843.52
100848.78
100853.97
100859.16
100864.29
100869.35
100874.29
100879.1
100883.75
100888.22
100892.51
100896.62
100900.58
100904.43
100908.18
100911.85
100915.46
100919.02
100922.54
100838.21
100839.97
100844.43
100849.68
100854.92
100860.1
100865.26
100870.39
100875.47
100880.45
100885.31
100890.03
100894.58
100898.95
100903.15
100907.2
100911.12
100914.95
100918.68
100922.33
100925.91
100929.45
100844.2
100845.89
100850.28
100855.5
100860.7
100865.83
100870.97
100876.11
100881.2
100886.2
100891.11
100895.88
100900.51
100904.97
100909.26
100913.4
100917.41
100921.31
100925.12
100928.83
100932.46
100936.02
100849.88
100851.49
100855.83
100860.97
100866.09
100871.19
100876.29
100881.42
100886.53
100891.56
100896.5
100901.32
100906.01
100910.56
100914.94
100919.17
100923.28
100927.27
100931.17
100934.97
100938.66
100942.27
100855.23
100856.74
100861.01
100866.08
100871.16
100876.21
100881.3
100886.41
100891.51
100896.55
100901.51
100906.38
100911.13
100915.75
100920.21
100924.54
100928.74
100932.83
100936.82
100940.72
100944.51
100948.19
100860.29
100861.73
100865.91
100870.92
100875.93
100880.92
100885.96
100891.01
100896.1
100901.18
100906.16
100911.07
100915.87
100920.55
100925.1
100929.51
100933.8
100937.99
100942.08
100946.08
100949.97
100953.75
100865.09
100866.41
100870.5
100875.45
100880.41
100885.33
100890.29
100895.34
100900.41
100905.47
100910.47
100915.4
100920.24
100924.98
100929.6
100934.09
100938.47
100942.75
100946.95
100951.04
100955.05
100958.95
100869.63
100870.85
100874.84
100879.71
100884.6
100889.47
100894.39
100899.38
100904.38
100909.42
100914.45
100919.41
100924.29
100929.07
100933.75
100938.32
100942.77
100947.14
100951.43
100955.64
100959.76
100963.77
100873.94
100875.04
100878.93
100883.71
100888.52
100893.33
100898.18
100903.1
100908.09
100913.12
100918.14
100923.11
100928.01
100932.84
100937.57
100942.2
100946.73
100951.17
100955.55
100959.85
100964.08
100968.22
100878.04
100879.03
100882.8
100887.49
100892.22
100896.97
100901.78
100906.65
100911.57
100916.52
100921.51
100926.51
100931.45
100936.31
100941.08
100945.77
100950.36
100954.87
100959.32
100963.72
100968.05
100972.3
100881.94
100882.8
100886.45
100891.05
100895.7
100900.37
100905.11
100909.92
100914.78
100919.7
100924.67
100929.66
100934.62
100939.5
100944.31
100949.05
100953.7
100958.27
100962.78
100967.26
100971.68
100976.03
100885.69
100886.41
100889.93
100894.43
100899
100903.59
100908.26
100913.02
100917.84
100922.7
100927.6
100932.53
100937.49
100942.42
100947.27
100952.05
100956.75
100961.38
100965.94
100970.48
100974.99
100979.44
100889.28
100889.86
100893.25
100897.64
100902.11
100906.61
100911.21
100915.9
100920.66
100925.47
100930.32
100935.24
100940.19
100945.11
100949.99
100954.79
100959.54
100964.22
100968.83
100973.42
100978
100982.53
100892.75
100893.18
100896.43
100900.71
100905.09
100909.5
100914.01
100918.63
100923.33
100928.1
100932.9
100937.74
100942.62
100947.55
100952.47
100957.32
100962.1
100966.82
100971.48
100976.11
100980.73
100985.34
100896.11
100896.38
100899.48
100903.66
100907.93
100912.24
100916.65
100921.18
100925.82
100930.53
100935.29
100940.08
100944.95
100949.82
100954.71
100959.61
100964.43
100969.19
100973.89
100978.55
100983.22
100987.88
100899.39
100899.49
100902.44
100906.51
100910.67
100914.87
100919.18
100923.62
100928.18
100932.83
100937.54
100942.29
100947.07
100951.93
100956.8
100961.67
100966.55
100971.36
100976.09
100980.79
100985.48
100990.18
100902.59
100902.52
100905.32
100909.26
100913.31
100917.4
100921.62
100925.97
100930.43
100935
100939.65
100944.37
100949.11
100953.91
100958.74
100963.57
100968.44
100973.31
100978.09
100982.82
100987.53
100992.26
100905.76
100905.5
100908.14
100911.95
100915.89
100919.87
100923.98
100928.23
100932.59
100937.07
100941.65
100946.3
100951.01
100955.73
100960.54
100965.39
100970.2
100975.05
100979.9
100984.66
100989.39
100994.14
100908.89
100908.45
100910.93
100914.61
100918.43
100922.29
100926.29
100930.42
100934.68
100939.06
100943.55
100948.14
100952.79
100957.5
100962.22
100967.03
100971.85
100976.65
100981.49
100986.31
100991.07
100995.83
100912.02
100911.39
100913.7
100917.26
100920.95
100924.69
100928.54
100932.56
100936.71
100940.99
100945.39
100949.88
100954.47
100959.13
100963.81
100968.55
100973.36
100978.16
100982.95
100987.78
100992.58
100997.35
100915.16
100914.34
100916.48
100919.89
100923.45
100927.05
100930.78
100934.68
100938.72
100942.89
100947.18
100951.58
100956.09
100960.68
100965.33
100970.01
100974.74
100979.53
100984.29
100989.09
100993.92
100998.72
100918.31
100917.31
100919.27
100922.53
100925.95
100929.42
100933.02
100936.79
100940.71
100944.76
100948.94
100953.24
100957.64
100962.15
100966.73
100971.36
100976.05
100980.8
100985.58
100990.33
100995.11
100999.93
100921.51
100920.32
100922.1
100925.21
100928.5
100931.83
100935.3
100938.92
100942.7
100946.62
100950.68
100954.87
100959.17
100963.58
100968.09
100972.67
100977.29
100981.96
100986.7
100991.47
100996.21
101000.99
100924.75
100923.38
100924.99
100927.94
100931.09
100934.28
100937.59
100941.06
100944.7
100948.5
100952.43
100956.49
100960.68
100964.99
100969.4
100973.89
100978.46
100983.08
100987.75
100992.48
100997.23
101001.97
100928.04
100926.5
100927.93
100930.73
100933.72
100936.76
100939.92
100943.26
100946.76
100950.42
100954.21
100958.14
100962.21
100966.39
100970.69
100975.1
100979.59
100984.14
100988.75
100993.41
100998.12
101002.87
100931.39
100929.69
100930.95
100933.6
100936.45
100939.33
100942.35
100945.53
100948.86
100952.36
100956.01
100959.81
100963.74
100967.8
100971.99
100976.28
100980.68
100985.15
100989.7
100994.29
100998.94
101003.66
100934.8
100932.96
100934.05
100936.54
100939.23
100941.96
100944.82
100947.84
100951.02
100954.37
100957.88
100961.53
100965.32
100969.25
100973.3
100977.48
100981.77
100986.15
100990.6
100995.13
100999.71
101004.37
100938.3
100936.31
100937.24
100939.58
100942.12
100944.69
100947.39
100950.26
100953.28
100956.46
100959.81
100963.3
100966.94
100970.72
100974.64
100978.69
100982.85
100987.13
100991.49
100995.93
101000.44
101005.02
100941.87
100939.76
100940.53
100942.72
100945.09
100947.51
100950.05
100952.75
100955.61
100958.62
100961.81
100965.15
100968.64
100972.27
100976.04
100979.95
100983.97
100988.13
100992.38
100996.71
101001.14
101005.65
100945.52
100943.32
100943.94
100945.96
100948.18
100950.43
100952.8
100955.34
100958.04
100960.9
100963.91
100967.08
100970.41
100973.88
100977.5
100981.25
100985.14
100989.15
100993.28
100997.51
101001.83
101006.25
100949.26
100946.97
100947.45
100949.32
100951.38
100953.46
100955.67
100958.05
100960.58
100963.26
100966.1
100969.1
100972.27
100975.58
100979.03
100982.63
100986.37
100990.24
100994.23
100998.33
101002.53
101006.85
100953.08
100950.72
100951.06
100952.77
100954.67
100956.6
100958.65
100960.85
100963.21
100965.73
100968.4
100971.23
100974.22
100977.36
100980.65
100984.09
100987.67
100991.38
100995.23
100999.19
101003.26
101007.47
100956.98
100954.55
100954.77
100956.33
100958.08
100959.84
100961.73
100963.77
100965.97
100968.32
100970.81
100973.46
100976.28
100979.25
100982.37
100985.64
100989.06
100992.61
100996.3
101000.11
101004.04
101008.12
100960.95
100958.48
100958.58
100960
100961.58
100963.19
100964.92
100966.8
100968.83
100971.01
100973.34
100975.82
100978.45
100981.25
100984.2
100987.29
100990.54
100993.93
100997.45
101001.11
101004.9
101008.83
100965
100962.49
100962.48
100963.75
100965.18
100966.64
100968.21
100969.93
100971.8
100973.81
100975.97
100978.28
100980.74
100983.36
100986.14
100989.07
100992.13
100995.35
100998.71
101002.21
101005.83
101009.63
100969.11
100966.58
100966.47
100967.6
100968.89
100970.19
100971.61
100973.17
100974.88
100976.73
100978.73
100980.87
100983.16
100985.59
100988.19
100990.94
100993.84
100996.89
101000.08
101003.41
101006.87
101010.5
100973.29
100970.75
100970.54
100971.53
100972.67
100973.84
100975.11
100976.52
100978.07
100979.75
100981.59
100983.56
100985.68
100987.95
100990.38
100992.96
100995.68
100998.55
101001.56
101004.72
101008.01
101011.49
100977.55
100974.99
100974.69
100975.55
100976.56
100977.58
100978.71
100979.96
100981.36
100982.9
100984.57
100986.39
100988.34
100990.44
100992.68
100995.08
100997.64
101000.34
101003.18
101006.16
101009.28
101012.59
100981.86
100979.3
100978.91
100979.64
100980.52
100981.41
100982.39
100983.51
100984.76
100986.14
100987.66
100989.32
100991.12
100993.05
100995.12
100997.35
100999.73
101002.26
101004.92
101007.73
101010.68
101013.82
100986.24
100983.67
100983.2
100983.81
100984.56
100985.32
100986.18
100987.16
100988.27
100989.5
100990.87
100992.37
100994.01
100995.78
100997.69
100999.74
101001.95
101004.31
101006.81
101009.44
101012.22
101015.19
100990.67
100988.11
100987.56
100988.05
100988.68
100989.32
100990.05
100990.89
100991.87
100992.96
100994.19
100995.54
100997.02
100998.65
101000.4
101002.29
101004.32
101006.5
101008.84
101011.3
101013.9
101016.7
100995.16
100992.6
100991.98
100992.37
100992.88
100993.4
100994.01
100994.73
100995.57
100996.53
100997.61
100998.82
101000.15
101001.62
101003.22
101004.96
101006.83
101008.84
101011.01
101013.3
101015.74
101018.36
100999.7
100997.15
100996.46
100996.75
100997.15
100997.56
100998.04
100998.65
100999.36
101000.19
101001.14
101002.21
101003.4
101004.73
101006.18
101007.76
101009.47
101011.32
101013.32
101015.45
101017.72
101020.18
101004.29
101001.74
101001
101001.19
101001.48
101001.78
101002.17
101002.65
101003.25
101003.96
101004.78
101005.71
101006.77
101007.95
101009.25
101010.69
101012.25
101013.95
101015.77
101017.74
101019.85
101022.15
101008.93
101006.39
101005.59
101005.68
101005.88
101006.08
101006.36
101006.74
101007.22
101007.81
101008.51
101009.32
101010.24
101011.29
101012.45
101013.74
101015.16
101016.71
101018.38
101020.19
101022.14
101024.27
101013.61
101011.08
101010.22
101010.23
101010.33
101010.45
101010.63
101010.9
101011.28
101011.76
101012.34
101013.03
101013.83
101014.74
101015.77
101016.93
101018.2
101019.61
101021.13
101022.78
101024.57
101026.55
101018.35
101015.82
101014.91
101014.83
101014.85
101014.88
101014.96
101015.14
101015.42
101015.79
101016.26
101016.84
101017.52
101018.31
101019.21
101020.23
101021.37
101022.64
101024.03
101025.52
101027.15
101028.98
101023.12
101020.6
101019.64
101019.49
101019.43
101019.37
101019.37
101019.46
101019.64
101019.91
101020.28
101020.74
101021.31
101021.98
101022.76
101023.65
101024.67
101025.79
101027.04
101028.41
101029.89
101031.56
101027.94
101025.42
101024.41
101024.19
101024.06
101023.92
101023.84
101023.84
101023.93
101024.11
101024.37
101024.74
101025.2
101025.76
101026.42
101027.2
101028.08
101029.08
101030.2
101031.43
101032.77
101034.29
101032.8
101030.28
101029.23
101028.94
101028.73
101028.52
101028.37
101028.29
101028.29
101028.38
101028.56
101028.82
101029.18
101029.63
101030.18
101030.84
101031.61
101032.49
101033.48
101034.58
101035.79
101037.17
101037.69
101035.17
101034.08
101033.73
101033.46
101033.18
101032.95
101032.8
101032.73
101032.73
101032.81
101032.99
101033.24
101033.6
101034.05
101034.6
101035.25
101036.01
101036.87
101037.85
101038.93
101040.19
101042.61
101040.1
101038.97
101038.56
101038.23
101037.88
101037.59
101037.37
101037.22
101037.14
101037.15
101037.23
101037.4
101037.66
101038.01
101038.45
101038.99
101039.64
101040.39
101041.24
101042.21
101043.33
101047.56
101045.06
101043.89
101043.42
101043.03
101042.63
101042.28
101041.99
101041.77
101041.62
101041.55
101041.55
101041.63
101041.8
101042.05
101042.4
101042.84
101043.38
101044.02
101044.75
101045.6
101046.6
101052.54
101050.04
101048.84
101048.33
101047.88
101047.43
101047.01
101046.66
101046.37
101046.16
101046.01
101045.93
101045.93
101046.02
101046.18
101046.43
101046.77
101047.21
101047.75
101048.37
101049.1
101049.99
101057.53
101055.03
101053.8
101053.24
101052.75
101052.25
101051.78
101051.37
101051.03
101050.74
101050.53
101050.38
101050.3
101050.3
101050.38
101050.55
101050.8
101051.14
101051.57
101052.1
101052.72
101053.48
101062.54
101060.05
101058.79
101058.19
101057.65
101057.1
101056.58
101056.12
101055.72
101055.38
101055.09
101054.88
101054.73
101054.66
101054.66
101054.74
101054.91
101055.15
101055.49
101055.92
101056.43
101057.09
101067.56
101065.07
101063.79
101063.15
101062.57
101061.98
101061.41
101060.9
101060.44
101060.05
101059.7
101059.43
101059.21
101059.07
101059
101059
101059.08
101059.24
101059.49
101059.82
101060.24
101060.79
101072.59
101070.1
101068.8
101068.13
101067.51
101066.87
101066.27
101065.71
101065.2
101064.75
101064.36
101064.02
101063.74
101063.53
101063.39
101063.32
101063.32
101063.4
101063.56
101063.8
101064.13
101064.58
101077.61
101075.14
101073.81
101073.1
101072.45
101071.78
101071.14
101070.54
101069.99
101069.49
101069.04
101068.65
101068.31
101068.04
101067.83
101067.69
101067.62
101067.62
101067.7
101067.86
101068.09
101068.46
101082.63
101080.16
101078.82
101078.08
101077.4
101076.7
101076.02
101075.38
101074.79
101074.24
101073.74
101073.3
101072.91
101072.58
101072.31
101072.1
101071.96
101071.89
101071.9
101071.97
101072.12
101072.4
101087.64
101085.18
101083.82
101083.06
101082.35
101081.61
101080.9
101080.23
101079.6
101079.01
101078.47
101077.98
101077.54
101077.15
101076.82
101076.56
101076.35
101076.22
101076.15
101076.15
101076.22
101076.42
101092.64
101090.19
101088.82
101088.03
101087.3
101086.53
101085.79
101085.08
101084.42
101083.79
101083.21
101082.68
101082.18
101081.75
101081.37
101081.05
101080.78
101080.58
101080.45
101080.37
101080.37
101080.49
101097.61
101095.18
101093.79
101092.99
101092.23
101091.44
101090.67
101089.93
101089.23
101088.57
101087.95
101087.38
101086.85
101086.36
101085.93
101085.55
101085.23
101084.98
101084.78
101084.64
101084.56
101084.61
101102.56
101100.14
101098.75
101097.92
101097.14
101096.33
101095.53
101094.77
101094.05
101093.35
101092.7
101092.09
101091.51
101090.99
101090.51
101090.08
101089.71
101089.4
101089.14
101088.93
101088.79
101088.77
101107.48
101105.08
101103.68
101102.83
101102.03
101101.2
101100.38
101099.6
101098.85
101098.13
101097.44
101096.79
101096.18
101095.61
101095.09
101094.62
101094.2
101093.83
101093.52
101093.26
101093.05
101092.96
101112.37
101109.98
101108.57
101107.71
101106.9
101106.05
101105.21
101104.4
101103.63
101102.88
101102.17
101101.48
101100.84
101100.24
101099.68
101099.16
101098.7
101098.28
101097.92
101097.6
101097.34
101097.18
101117.22
101114.84
101113.44
101112.56
101111.73
101110.87
101110.01
101109.19
101108.38
101107.61
101106.87
101106.17
101105.49
101104.85
101104.26
101103.7
101103.19
101102.73
101102.32
101101.95
101101.64
101101.42
101122.03
101119.67
101118.26
101117.37
101116.53
101115.65
101114.78
101113.94
101113.12
101112.33
101111.56
101110.82
101110.12
101109.46
101108.83
101108.23
101107.69
101107.18
101106.73
101106.31
101105.94
101105.67
101126.79
101124.45
101123.04
101122.14
101121.28
101120.4
101119.51
101118.66
101117.82
101117.01
101116.22
101115.46
101114.73
101114.04
101113.38
101112.75
101112.17
101111.62
101111.13
101110.67
101110.25
101109.93
101131.5
101129.18
101127.77
101126.86
101126
101125.1
101124.21
101123.33
101122.48
101121.65
101120.85
101120.07
101119.31
101118.6
101117.91
101117.25
101116.63
101116.06
101115.52
101115.02
101114.56
101114.19
101136.16
101133.86
101132.45
101131.54
101130.67
101129.76
101128.86
101127.97
101127.11
101126.26
101125.44
101124.64
101123.87
101123.12
101122.41
101121.72
101121.08
101120.47
101119.89
101119.35
101118.85
101118.44
101140.77
101138.49
101137.08
101136.16
101135.28
101134.37
101133.46
101132.56
101131.68
101130.83
101129.99
101129.17
101128.38
101127.62
101126.87
101126.17
101125.49
101124.85
101124.25
101123.67
101123.13
101122.68
101145.32
101143.05
101141.66
101140.74
101139.85
101138.93
101138.01
101137.11
101136.22
101135.35
101134.5
101133.66
101132.86
101132.07
101131.31
101130.58
101129.88
101129.21
101128.57
101127.97
101127.39
101126.9
101149.8
101147.56
101146.17
101145.25
101144.36
101143.43
101142.51
101141.6
101140.7
101139.82
101138.95
101138.11
101137.29
101136.48
101135.7
101134.95
101134.23
101133.53
101132.87
101132.23
101131.63
101131.1
101154.23
101152.02
101150.63
101149.7
101148.81
101147.88
101146.95
101146.03
101145.13
101144.24
101143.37
101142.51
101141.67
101140.85
101140.05
101139.28
101138.54
101137.82
101137.13
101136.47
101135.83
101135.27
101158.59
101156.4
101155.02
101154.09
101153.2
101152.27
101151.33
101150.41
101149.5
101148.6
101147.72
101146.85
101146
101145.17
101144.35
101143.57
101142.8
101142.06
101141.35
101140.66
101140
101139.41
101162.89
101160.72
101159.34
101158.41
101157.52
101156.58
101155.65
101154.72
101153.81
101152.91
101152.02
101151.14
101150.28
101149.44
101148.61
101147.81
101147.02
101146.26
101145.53
101144.82
101144.13
101143.51
101167.11
101164.97
101163.6
101162.67
101161.77
101160.84
101159.9
101158.98
101158.06
101157.15
101156.25
101155.37
101154.5
101153.64
101152.81
101151.99
101151.19
101150.42
101149.67
101148.93
101148.22
101147.57
101171.26
101169.15
101167.79
101166.86
101165.96
101165.03
101164.09
101163.16
101162.24
101161.33
101160.43
101159.54
101158.66
101157.8
101156.95
101156.12
101155.31
101154.52
101153.75
101152.99
101152.26
101151.59
101175.34
101173.26
101171.91
101170.98
101170.09
101169.15
101168.21
101167.28
101166.36
101165.44
101164.54
101163.64
101162.76
101161.89
101161.03
101160.19
101159.37
101158.57
101157.78
101157.01
101156.26
101155.57
101179.35
101177.29
101175.95
101175.03
101174.13
101173.2
101172.27
101171.33
101170.41
101169.49
101168.58
101167.69
101166.8
101165.92
101165.05
101164.2
101163.37
101162.55
101161.75
101160.97
101160.2
101159.49
101183.28
101181.25
101179.92
101179
101178.11
101177.18
101176.24
101175.32
101174.39
101173.47
101172.56
101171.66
101170.77
101169.88
101169.01
101168.15
101167.31
101166.48
101165.67
101164.87
101164.09
101163.36
101187.14
101185.13
101183.81
101182.9
101182.01
101181.08
101180.15
101179.22
101178.3
101177.38
101176.47
101175.56
101174.67
101173.78
101172.91
101172.04
101171.19
101170.35
101169.53
101168.72
101167.92
101167.17
101190.91
101188.94
101187.63
101186.72
101185.83
101184.91
101183.98
101183.06
101182.14
101181.22
101180.31
101179.4
101178.5
101177.61
101176.73
101175.86
101175
101174.15
101173.32
101172.5
101171.69
101170.93
101194.61
101192.66
101191.37
101190.46
101189.58
101188.67
101187.74
101186.81
101185.89
101184.98
101184.07
101183.16
101182.26
101181.37
101180.49
101179.61
101178.75
101177.9
101177.05
101176.22
101175.4
101174.63
101198.23
101196.31
101195.03
101194.12
101193.25
101192.34
101191.41
101190.5
101189.58
101188.67
101187.75
101186.85
101185.95
101185.05
101184.17
101183.29
101182.42
101181.56
101180.72
101179.88
101179.05
101178.27
101201.76
101199.87
101198.61
101197.71
101196.84
101195.93
101195.02
101194.1
101193.19
101192.28
101191.37
101190.46
101189.56
101188.67
101187.78
101186.9
101186.03
101185.16
101184.32
101183.47
101182.63
101181.84
101205.21
101203.36
101202.11
101201.22
101200.35
101199.45
101198.54
101197.63
101196.72
101195.81
101194.9
101194
101193.1
101192.21
101191.32
101190.43
101189.56
101188.7
101187.84
101186.99
101186.15
101185.34
101208.58
101206.76
101205.52
101204.64
101203.78
101202.88
101201.98
101201.07
101200.17
101199.26
101198.36
101197.46
101196.57
101195.67
101194.78
101193.9
101193.03
101192.16
101191.3
101190.44
101189.59
101188.78
101211.87
101210.08
101208.86
101207.98
101207.13
101206.24
101205.34
101204.44
101203.54
101202.64
101201.74
101200.85
101199.95
101199.06
101198.17
101197.29
101196.41
101195.55
101194.68
101193.82
101192.97
101192.16
101215.07
101213.31
101212.11
101211.24
101210.39
101209.51
101208.62
101207.72
101206.83
101205.94
101205.04
101204.15
101203.26
101202.37
101201.49
101200.6
101199.73
101198.86
101198
101197.13
101196.28
101195.46
101218.2
101216.47
101215.28
101214.42
101213.58
101212.7
101211.82
101210.93
101210.04
101209.15
101208.27
101207.38
101206.49
101205.6
101204.72
101203.85
101202.97
101202.1
101201.24
101200.37
101199.51
101198.69
101221.23
101219.54
101218.37
101217.51
101216.68
101215.81
101214.93
101214.05
101213.17
101212.29
101211.41
101210.52
101209.64
101208.76
101207.88
101207.01
101206.14
101205.27
101204.4
101203.54
101202.68
101201.86
101224.19
101222.53
101221.37
101220.53
101219.7
101218.84
101217.97
101217.1
101216.22
101215.35
101214.47
101213.6
101212.72
101211.84
101210.97
101210.1
101209.22
101208.36
101207.5
101206.63
101205.77
101204.95
101227.06
101225.43
101224.3
101223.46
101222.64
101221.79
101220.93
101220.06
101219.19
101218.33
101217.46
101216.59
101215.72
101214.84
101213.97
101213.11
101212.24
101211.38
101210.51
101209.66
101208.79
101207.97
101229.85
101228.25
101227.14
101226.3
101225.49
101224.65
101223.8
101222.95
101222.09
101221.23
101220.36
101219.5
101218.64