/*--------------------------------*- C++ -*----------------------------------*\
| =========                 |                                                 |
| \\      /  F ield         | OpenFOAM: The Open Source CFD Toolbox           |
|  \\    /   O peration     | Version:  2406                                  |
|   \\  /    A nd           | Website:  www.openfoam.com                      |
|    \\/     M anipulation  |                                                 |
\*---------------------------------------------------------------------------*/
FoamFile
{
    version     2.0;
    format      ascii;
    arch        "LSB;label=32;scalar=64";
    class       volScalarField;
    location    "0.08";
    object      rho;
}
// * * * * * * * * * * * * * * * * * * * * * * * * * * * * * * * * * * * * * //

dimensions      [1 -3 0 0 0 0 0];

internalField   nonuniform List<scalar> 
2065
(
1.1891056
1.1892493
1.1893791
1.1895129
1.1896588
1.1898351
1.1900591
1.1903376
1.1906568
1.1910112
1.1913883
1.1917621
1.1921101
1.1923869
1.1925861
1.1926908
1.1927051
1.1926862
1.1927125
1.1928717
1.1932195
1.1937822
1.1944441
1.1951362
1.1957732
1.1962851
1.1966183
1.1967882
1.1968197
1.1967892
1.1967074
1.1966381
1.196713
1.1969829
1.1974188
1.1977272
1.1979355
1.1980886
1.1982237
1.1984608
1.1988164
1.1991926
1.1995153
1.1998312
1.2001242
1.200414
1.2006456
1.2008667
1.2010233
1.2011869
1.2013132
1.2015341
1.2016716
1.2017794
1.2016893
1.2016871
1.2016114
1.2019218
1.1885822
1.1887373
1.1888824
1.1890375
1.1892195
1.189438
1.189703
1.1900273
1.1904014
1.190804
1.1912263
1.1916322
1.1920051
1.1922888
1.1924903
1.1925828
1.1926023
1.1925857
1.1926215
1.1928308
1.1932025
1.1937812
1.194488
1.195196
1.1958333
1.1963359
1.1966587
1.1968279
1.196857
1.1968416
1.1967797
1.1967279
1.196819
1.1970962
1.1975128
1.1978108
1.1980295
1.1982046
1.1983571
1.1985977
1.1989382
1.199298
1.1996143
1.1999267
1.200212
1.2004898
1.2007101
1.2009215
1.20107
1.2012256
1.2013468
1.2015589
1.201691
1.2017947
1.2016983
1.2016901
1.2016106
1.2019152
1.1879901
1.188123
1.1882615
1.1884137
1.1885914
1.1888049
1.1890627
1.1893769
1.1897467
1.190167
1.1906163
1.1910823
1.1915117
1.1919033
1.1921887
1.1923831
1.1924831
1.1925077
1.1924959
1.1925668
1.1928102
1.1932315
1.1938204
1.1945471
1.1952697
1.1959005
1.1963888
1.1966989
1.1968656
1.1968921
1.1969096
1.1968651
1.1968333
1.1969375
1.1972174
1.1976136
1.1978977
1.1981287
1.1983218
1.1984925
1.1987347
1.1990584
1.1994007
1.1997093
1.2000174
1.2002951
1.2005614
1.2007709
1.2009731
1.2011137
1.2012619
1.2013783
1.2015819
1.2017089
1.2018085
1.2017061
1.2016921
1.2016088
1.201908
1.1878297
1.187874
1.1879365
1.1880324
1.18816
1.1883277
1.1885427
1.1888137
1.1891492
1.1895451
1.1899905
1.1904649
1.1909485
1.1913976
1.1917822
1.1920835
1.1922762
1.1923895
1.1924222
1.1924319
1.1925424
1.1928185
1.1932736
1.1938955
1.1946139
1.1953433
1.1959654
1.1964367
1.1967357
1.1969005
1.1969296
1.1969889
1.1969627
1.1969529
1.1970672
1.197343
1.1977186
1.1979897
1.1982269
1.1984379
1.1986264
1.1988685
1.1991747
1.1994989
1.1997992
1.2001025
1.2003728
1.2006284
1.2008279
1.2010213
1.2011546
1.2012957
1.2014078
1.2016032
1.2017252
1.2018208
1.201713
1.2016932
1.2016059
1.2019
1.1878105
1.1878271
1.1878657
1.1879369
1.1880501
1.1882087
1.1884173
1.1886857
1.1890216
1.1894202
1.1898674
1.1903442
1.1908209
1.1912771
1.1916507
1.1919667
1.1921773
1.1922996
1.1923547
1.192401
1.1925502
1.1928588
1.1933413
1.1939862
1.1946995
1.1954176
1.1960312
1.1964816
1.1967717
1.1969354
1.1969727
1.1970784
1.1970718
1.1970853
1.1972062
1.1974733
1.1978251
1.1980834
1.198324
1.1985511
1.198756
1.1989973
1.199286
1.1995922
1.1998836
1.2001817
1.2004451
1.2006909
1.2008812
1.2010663
1.2011927
1.2013273
1.2014352
1.2016228
1.20174
1.2018317
1.2017189
1.2016936
1.2016023
1.2018909
1.1878129
1.1878115
1.1878252
1.187856
1.1879179
1.1880214
1.1881668
1.1883636
1.1886221
1.1889479
1.1893336
1.1897662
1.1902274
1.190693
1.1911398
1.1915202
1.1918439
1.1920732
1.1922203
1.1923118
1.1924033
1.1925924
1.1929325
1.1934357
1.1940878
1.1948023
1.1954961
1.1960989
1.1965254
1.1968068
1.1969618
1.1970328
1.1971758
1.19719
1.1972284
1.197353
1.1976075
1.1979321
1.1981764
1.1984188
1.1986593
1.1988789
1.1991195
1.1993915
1.1996802
1.1999623
1.200255
1.2005122
1.2007491
1.2009307
1.2011081
1.201228
1.2013566
1.2014608
1.2016408
1.2017533
1.2018412
1.2017241
1.2016932
1.201598
1.2018806
1.1878333
1.1878334
1.1878418
1.1878604
1.1878953
1.1879561
1.1880464
1.1881745
1.1883538
1.1885954
1.1889005
1.1892604
1.1896685
1.190106
1.1905562
1.1909959
1.1913856
1.191721
1.1919762
1.192159
1.1922941
1.1924356
1.1926673
1.1930374
1.1935558
1.1942061
1.1949111
1.195581
1.1961569
1.1965736
1.1968396
1.1969806
1.1971111
1.1972739
1.1973143
1.1973788
1.1975052
1.1977436
1.1980383
1.198267
1.1985096
1.1987606
1.1989935
1.1992339
1.1994905
1.1997625
1.2000353
1.2003226
1.2005741
1.2008029
1.2009767
1.2011469
1.2012606
1.2013836
1.2014845
1.2016572
1.2017654
1.2018491
1.2017284
1.2016923
1.201593
1.2018688
1.1878748
1.1878797
1.1878909
1.187912
1.1879478
1.1880033
1.1880846
1.1882016
1.1883681
1.1885895
1.1888618
1.1891906
1.1895708
1.1899823
1.1904168
1.1908514
1.1912513
1.191603
1.1918905
1.1921137
1.1922988
1.1924944
1.1927704
1.1931686
1.1936961
1.1943385
1.1950241
1.1956683
1.1962087
1.1966176
1.1968687
1.1970102
1.1971871
1.1973646
1.1974403
1.1975323
1.1976601
1.1978797
1.1981426
1.1983541
1.1985946
1.1988536
1.1990984
1.1993397
1.1995828
1.1998391
1.2001027
1.2003845
1.2006309
1.2008526
1.2010193
1.2011827
1.2012907
1.2014086
1.2015063
1.2016721
1.2017762
1.2018556
1.2017321
1.2016907
1.2015873
1.2018552
1.1879267
1.1879328
1.1879456
1.1879681
1.1880034
1.1880555
1.1881303
1.1882357
1.1883801
1.1885748
1.1888227
1.1891232
1.1894757
1.1898681
1.1902849
1.1907066
1.1911172
1.1914886
1.191812
1.1920834
1.1923219
1.1925741
1.1928948
1.1933193
1.1938505
1.1944797
1.1951395
1.1957528
1.1962637
1.1966487
1.1968927
1.1970488
1.1972476
1.1974467
1.1975631
1.197684
1.197814
1.1980133
1.1982445
1.1984366
1.1986727
1.1989377
1.1991932
1.1994365
1.1996681
1.1999099
1.2001644
1.2004409
1.2006828
1.2008983
1.2010585
1.2012157
1.2013183
1.2014315
1.2015265
1.2016856
1.2017858
1.2018606
1.2017351
1.2016887
1.2015808
1.2018395
1.1879828
1.1879822
1.1879874
1.1880002
1.1880223
1.1880558
1.188104
1.1881724
1.1882672
1.1883933
1.1885603
1.1887829
1.1890532
1.1893741
1.1897432
1.1901461
1.1905636
1.1909835
1.1913783
1.1917387
1.1920643
1.1923588
1.1926674
1.1930324
1.1934819
1.194013
1.1946244
1.1952541
1.1958332
1.196313
1.1966717
1.1969103
1.1970815
1.1972953
1.1975208
1.1976784
1.1978291
1.1979632
1.1981428
1.1983426
1.1985137
1.1987435
1.1990126
1.1992779
1.1995243
1.1997466
1.199975
1.2002208
1.200492
1.20073
1.2009401
1.2010945
1.2012459
1.2013435
1.2014525
1.2015449
1.2016977
1.2017944
1.2018641
1.2017375
1.2016862
1.2015733
1.2018211
1.1880396
1.1880341
1.188037
1.1880482
1.1880682
1.1880983
1.1881413
1.1882015
1.1882846
1.1883963
1.1885406
1.18873
1.1889745
1.189268
1.1896117
1.1899974
1.1904112
1.1908388
1.1912627
1.1916687
1.1920464
1.1924015
1.1927658
1.1931746
1.1936486
1.1941774
1.1947679
1.1953651
1.1959076
1.1963531
1.1966873
1.1969192
1.1971021
1.197332
1.1975846
1.1977812
1.1979628
1.1981042
1.1982664
1.1984355
1.198585
1.1988069
1.1990787
1.1993527
1.1996032
1.1998183
1.2000347
1.2002721
1.2005381
1.2007727
1.2009781
1.2011274
1.2012735
1.2013665
1.2014715
1.2015618
1.2017086
1.2018018
1.2018662
1.2017393
1.2016834
1.2015646
1.2017997
1.1880837
1.1880752
1.188076
1.188085
1.1881021
1.1881282
1.1881651
1.1882165
1.1882873
1.1883832
1.1885077
1.1886668
1.1888825
1.1891502
1.1894662
1.1898346
1.1902445
1.1906821
1.1911331
1.1915859
1.1920241
1.1924435
1.1928635
1.1933138
1.1938105
1.1943377
1.1949061
1.1954699
1.1959745
1.1963846
1.196694
1.1969174
1.1971108
1.1973573
1.1976358
1.1978687
1.1980816
1.198234
1.1983825
1.1985226
1.1986507
1.1988632
1.1991362
1.1994183
1.1996735
1.1998835
1.2000893
1.2003185
1.2005795
1.2008111
1.2010127
1.2011574
1.2012986
1.2013872
1.2014888
1.2015771
1.2017181
1.2018083
1.201867
1.2017405
1.2016801
1.2015546
1.2017747
1.188116
1.1881061
1.1881051
1.1881116
1.1881254
1.1881468
1.1881771
1.1882192
1.1882773
1.1883567
1.1884612
1.1885971
1.1887798
1.1890158
1.1893048
1.189658
1.1900643
1.1905134
1.1909943
1.1914904
1.1919905
1.1924742
1.1929541
1.1934469
1.1939605
1.1944888
1.1950354
1.1955664
1.1960329
1.1964069
1.1966893
1.1969068
1.1971094
1.1973712
1.1976745
1.1979406
1.198184
1.1983509
1.1984898
1.1986037
1.198711
1.1989131
1.1991859
1.1994751
1.1997356
1.1999424
1.2001389
1.2003603
1.2006164
1.2008455
1.2010438
1.2011845
1.2013213
1.2014059
1.2015043
1.2015909
1.2017265
1.2018137
1.2018667
1.2017413
1.2016765
1.2015432
1.2017457
1.1881365
1.188125
1.1881215
1.1881251
1.1881352
1.1881516
1.1881751
1.1882079
1.1882534
1.1883162
1.1883981
1.1885107
1.1886667
1.1888709
1.1891355
1.1894703
1.1898726
1.1903341
1.1908467
1.1913873
1.1919418
1.1924884
1.1930251
1.1935682
1.1940967
1.1946252
1.1951529
1.1956523
1.1960815
1.1964173
1.1966775
1.1968901
1.1970989
1.1973751
1.1977016
1.1979978
1.1982698
1.1984539
1.1985879
1.1986791
1.1987663
1.1989571
1.1992284
1.1995238
1.19979
1.1999954
1.200184
1.2003979
1.2006493
1.2008761
1.2010718
1.2012091
1.2013418
1.2014227
1.2015181
1.2016033
1.2017338
1.2018183
1.2018655
1.2017417
1.2016726
1.2015301
1.2017124
1.1881396
1.1881294
1.1881246
1.1881255
1.188132
1.1881435
1.1881603
1.1881839
1.1882171
1.1882635
1.1883243
1.1884111
1.188544
1.1887204
1.1889596
1.1892736
1.1896699
1.190141
1.1906806
1.1912708
1.1918772
1.1924843
1.1930763
1.1936658
1.1942145
1.1947441
1.1952566
1.1957251
1.1961184
1.1964221
1.1966631
1.1968676
1.1970818
1.1973705
1.1977181
1.1980414
1.1983397
1.1985427
1.1986768
1.1987491
1.1988172
1.198996
1.1992646
1.1995652
1.1998373
1.2000427
1.2002248
1.2004316
1.2006783
1.2009031
1.2010968
1.2012312
1.2013601
1.2014376
1.2015304
1.2016144
1.20174
1.201822
1.2018637
1.2017416
1.2016683
1.2015148
1.2016746
1.1881296
1.1881233
1.1881212
1.1881237
1.1881301
1.1881402
1.1881548
1.188176
1.1882065
1.188248
1.1883136
1.1884201
1.1885665
1.1887779
1.189072
1.189458
1.1899457
1.1905106
1.1911376
1.1917937
1.1924614
1.1931084
1.1937384
1.1943092
1.1948447
1.195347
1.1957896
1.1961506
1.1964264
1.1966446
1.1968414
1.1970603
1.1973593
1.1977254
1.1980728
1.1983949
1.1986178
1.1987568
1.1988141
1.1988642
1.1990305
1.1992951
1.1995999
1.199878
1.2000848
1.2002617
1.2004618
1.2007039
1.200927
1.201119
1.201251
1.2013766
1.2014509
1.2015413
1.2016242
1.2017453
1.201825
1.2018614
1.2017412
1.2016638
1.2014973
1.2016324
1.1881321
1.1881231
1.188117
1.1881149
1.1881159
1.1881192
1.1881251
1.188135
1.1881508
1.1881755
1.1882222
1.1882991
1.1884173
1.1885997
1.1888708
1.1892529
1.1897511
1.190335
1.1909961
1.1917023
1.1924231
1.1931198
1.1937877
1.1943823
1.1949271
1.1954234
1.1958474
1.1961816
1.1964274
1.1966236
1.1968142
1.1970367
1.1973435
1.1977248
1.1980935
1.198437
1.1986799
1.1988279
1.1988745
1.1989081
1.1990614
1.1993209
1.1996287
1.1999126
1.2001219
1.2002948
1.2004887
1.2007263
1.2009478
1.2011386
1.2012687
1.2013912
1.2014626
1.2015508
1.2016329
1.2017498
1.2018273
1.2018589
1.2017405
1.2016591
1.2014785
1.201587
1.1881385
1.1881275
1.188117
1.1881088
1.1881039
1.1881014
1.1880995
1.1881
1.1881033
1.1881129
1.1881397
1.1881898
1.188279
1.1884363
1.1886843
1.1890521
1.1895495
1.1901594
1.190854
1.191604
1.1923712
1.1931116
1.1938153
1.1944341
1.1949913
1.1954848
1.1958944
1.1962069
1.1964266
1.1966041
1.1967883
1.197013
1.1973248
1.1977179
1.1981049
1.1984674
1.19873
1.19889
1.1989304
1.1989493
1.1990893
1.1993427
1.1996521
1.1999417
1.2001544
1.2003246
1.2005127
1.2007459
1.2009659
1.2011559
1.2012843
1.2014042
1.2014728
1.201559
1.2016405
1.2017534
1.201829
1.2018563
1.2017396
1.2016542
1.2014598
1.2015421
1.1881416
1.1881274
1.1881116
1.1880991
1.1880912
1.1880829
1.1880748
1.188067
1.1880632
1.188072
1.1881
1.1881595
1.1882892
1.1885143
1.1888658
1.1893591
1.1899871
1.190714
1.1915017
1.1923093
1.1930878
1.1938243
1.1944662
1.195036
1.1955312
1.1959326
1.1962291
1.1964277
1.1965886
1.1967656
1.1969907
1.1973052
1.1977063
1.1981085
1.198488
1.1987691
1.1989436
1.1989819
1.1989882
1.1991149
1.1993611
1.1996709
1.199966
1.2001827
1.2003512
1.200534
1.2007629
1.2009815
1.2011709
1.2012982
1.2014156
1.2014818
1.2015661
1.201647
1.2017562
1.2018301
1.2018536
1.2017383
1.2016491
1.2014424
1.2015009
1.1993769
1.1996857
1.1999858
1.2002073
1.200375
1.200553
1.2007776
1.2009949
1.201184
1.2013104
1.2014257
1.2014895
1.2015721
1.2016527
1.2017584
1.2018306
1.2018509
1.2017369
1.2016438
1.2014273
1.2014664
1.1905799
1.1905489
1.1899347
1.1902588
1.1904952
1.1906454
1.1907345
1.1907685
1.1907624
1.1907345
1.189681
1.1900729
1.1904011
1.1906432
1.190808
1.1909043
1.1909429
1.1909414
1.1909183
1.1898002
1.1901976
1.1905342
1.1907861
1.1909647
1.1910699
1.1911149
1.1911196
1.1911022
1.1899195
1.1903126
1.190662
1.1909322
1.1911226
1.1912361
1.1912881
1.1912993
1.1912879
1.1900398
1.1904398
1.1908014
1.1910853
1.1912851
1.1914065
1.1914656
1.1914831
1.1914772
1.190204
1.1906004
1.190963
1.1912518
1.1914574
1.1915851
1.19165
1.1916728
1.1916717
1.1904098
1.1907909
1.1911486
1.1914371
1.1916444
1.191775
1.1918435
1.1918701
1.1918728
1.1906552
1.1910154
1.1913626
1.1916448
1.1918485
1.1919779
1.1920471
1.192076
1.1920815
1.1909419
1.1912772
1.1916067
1.1918753
1.1920696
1.1921935
1.1922608
1.1922902
1.1922973
1.1912656
1.1915709
1.1918755
1.1921243
1.1923043
1.1924192
1.1924821
1.1925104
1.1925183
1.1916128
1.1918832
1.1921577
1.1923826
1.1925452
1.192649
1.1927063
1.1927329
1.1927413
1.1919598
1.1921939
1.1924361
1.1926362
1.1927811
1.1928741
1.192926
1.1929514
1.1929607
1.1922834
1.1924811
1.1926911
1.1928682
1.1929984
1.1930834
1.1931326
1.1931585
1.19317
1.1925426
1.1927104
1.1928955
1.1930577
1.193181
1.1932647
1.1933161
1.193346
1.193362
1.1927254
1.192869
1.1930357
1.1931914
1.1933173
1.1934081
1.1934684
1.1935068
1.1935301
1.1928214
1.1929512
1.1931089
1.1932677
1.1934061
1.1935132
1.1935895
1.1936413
1.193675
1.192826
1.1929541
1.1931159
1.1932895
1.1934507
1.1935829
1.1936815
1.1937506
1.1937965
1.1927851
1.1929177
1.1930949
1.1932917
1.1934818
1.1936433
1.1937671
1.1938555
1.193915
1.1928002
1.192935
1.1931217
1.1933359
1.1935493
1.1937354
1.1938806
1.1939846
1.1940541
1.1929308
1.1930798
1.1932747
1.1934929
1.193712
1.1939063
1.1940596
1.1941702
1.1942443
1.1932826
1.1934242
1.1936034
1.193805
1.19401
1.1941943
1.1943419
1.1944502
1.194524
1.1938155
1.1939309
1.1940845
1.1942576
1.194434
1.1945937
1.1947228
1.1948182
1.1948833
1.1944529
1.1945403
1.1946602
1.1947952
1.1949332
1.195059
1.1951614
1.1952379
1.1952908
1.1951326
1.1951914
1.1952756
1.1953719
1.1954722
1.1955657
1.1956441
1.1957049
1.1957489
1.1957652
1.1957986
1.1958513
1.1959139
1.1959814
1.1960468
1.1961037
1.1961496
1.1961837
1.1962805
1.1962935
1.1963204
1.1963558
1.1963974
1.1964409
1.1964813
1.1965156
1.1965423
1.1966206
1.1966183
1.1966258
1.196641
1.1966643
1.1966944
1.1967281
1.1967615
1.1967916
1.1967857
1.1967659
1.1967522
1.1967464
1.1967515
1.1967697
1.1967995
1.1968364
1.1968751
1.1968058
1.1967764
1.1967528
1.1967394
1.1967406
1.1967593
1.1967943
1.1968417
1.1968926
1.1967633
1.1967276
1.1966939
1.1966686
1.1966586
1.1966682
1.1966956
1.1967324
1.1967729
1.19665
1.1965914
1.1965317
1.1964796
1.1964447
1.1964325
1.1964428
1.1964701
1.1965067
1.1965606
1.1964921
1.1964175
1.1963427
1.1962766
1.1962247
1.1961944
1.1961871
1.1961956
1.1966161
1.1965314
1.1964375
1.1963462
1.1962714
1.1962244
1.1962028
1.1961959
1.1962
1.1968949
1.196834
1.1967693
1.1967044
1.196647
1.1966021
1.196572
1.1965572
1.1965542
1.1973459
1.1972852
1.1972143
1.1971381
1.1970644
1.197001
1.1969532
1.196922
1.1969049
1.1976608
1.197598
1.1975249
1.1974453
1.1973661
1.197295
1.1972378
1.1971968
1.1971711
1.1978649
1.1977958
1.1977148
1.1976266
1.1975372
1.1974551
1.1973883
1.1973383
1.197303
1.1979911
1.1978953
1.1977823
1.1976592
1.1975393
1.1974339
1.1973483
1.1972845
1.1972408
1.1981079
1.197996
1.197862
1.1977133
1.1975634
1.1974261
1.1973105
1.19722
1.1971526
1.1983412
1.1982281
1.1980911
1.1979364
1.1977763
1.1976252
1.1974959
1.1973929
1.1973155
1.1987103
1.1986105
1.1984883
1.1983477
1.1981992
1.1980554
1.1979261
1.1978177
1.1977318
1.1991004
1.1990124
1.1989017
1.1987705
1.1986276
1.1984848
1.1983527
1.1982388
1.1981464
1.199427
1.199341
1.1992304
1.1990951
1.1989421
1.1987846
1.1986375
1.1985109
1.1984082
1.1997446
1.1996594
1.1995482
1.1994097
1.1992491
1.1990786
1.198914
1.1987686
1.1986486
1.2000443
1.1999661
1.1998634
1.1997345
1.1995825
1.1994166
1.1992502
1.1990964
1.1989645
1.2003451
1.2002778
1.2001893
1.2000772
1.1999434
1.199794
1.1996391
1.19949
1.1993558
1.200587
1.2005301
1.200455
1.2003595
1.2002443
1.2001134
1.199974
1.1998355
1.1997063
1.2008168
1.2007685
1.2007047
1.2006232
1.2005243
1.2004106
1.2002874
1.2001614
1.20004
1.200981
1.2009402
1.2008863
1.2008176
1.2007342
1.2006381
1.2005333
1.200425
1.2003185
1.2011519
1.2011186
1.2010746
1.2010185
1.2009504
1.2008717
1.2007856
1.2006958
1.2006067
1.201283
1.201255
1.201218
1.2011711
1.2011143
1.2010489
1.2009774
1.2009031
1.2008292
1.2015123
1.2014929
1.2014675
1.2014351
1.2013963
1.2013527
1.2013057
1.201257
1.2012076
1.2016541
1.2016381
1.2016167
1.2015893
1.201556
1.2015175
1.2014756
1.2014324
1.201389
1.2017655
1.2017527
1.2017355
1.2017135
1.2016867
1.2016556
1.2016214
1.2015854
1.2015493
1.201681
1.2016729
1.201662
1.2016479
1.2016303
1.2016094
1.2015858
1.2015606
1.2015351
1.2016839
1.2016803
1.2016751
1.2016678
1.2016579
1.2016453
1.2016301
1.2016133
1.2015957
1.2016119
1.2016124
1.2016114
1.2016084
1.2016032
1.2015957
1.2015862
1.2015754
1.2015638
1.2019289
1.201935
1.2019399
1.2019437
1.2019465
1.2019486
1.2019499
1.20195
1.2019493
1.1904951
1.1904333
1.1903774
1.1903424
1.1903574
1.190486
1.1906865
1.1906312
1.1905813
1.1905507
1.1905658
1.1906879
1.190877
1.1908284
1.1907845
1.190758
1.1907731
1.190888
1.1910676
1.1910255
1.1909871
1.1909642
1.1909787
1.1910857
1.1912597
1.1912234
1.19119
1.19117
1.1911833
1.191282
1.1914546
1.1914235
1.1913944
1.1913768
1.1913886
1.1914787
1.1916539
1.1916273
1.1916019
1.191586
1.191596
1.1916773
1.1918591
1.1918362
1.1918137
1.1917992
1.1918072
1.1918799
1.1920708
1.1920509
1.1920308
1.1920173
1.1920235
1.1920879
1.1922889
1.1922716
1.1922536
1.1922412
1.1922457
1.1923024
1.1925118
1.1924968
1.1924809
1.1924697
1.1924731
1.192523
1.1927366
1.1927241
1.1927107
1.1927012
1.1927043
1.1927481
1.1929581
1.1929487
1.1929382
1.192931
1.1929346
1.1929737
1.1931708
1.1931654
1.1931588
1.1931549
1.19316
1.1931948
1.1933677
1.1933674
1.1933656
1.1933656
1.1933728
1.1934047
1.1935426
1.1935488
1.1935528
1.1935576
1.1935676
1.1935967
1.1936962
1.1937099
1.1937203
1.19373
1.1937425
1.1937684
1.1938273
1.1938487
1.1938651
1.1938792
1.1938943
1.193921
1.1939559
1.1939848
1.194007
1.1940248
1.1940405
1.1940591
1.1941011
1.1941333
1.1941567
1.1941749
1.1941927
1.1942265
1.1942944
1.1943291
1.1943558
1.1943791
1.1944064
1.1944572
1.1945746
1.1946106
1.1946404
1.1946689
1.1947048
1.1947684
1.1949265
1.1949555
1.1949772
1.1949949
1.1950125
1.1950305
1.1953263
1.195351
1.1953726
1.195396
1.1954311
1.1954909
1.1957793
1.1958017
1.1958229
1.1958484
1.1958912
1.1959648
1.1962076
1.1962255
1.1962421
1.1962607
1.1962896
1.1963471
1.1965618
1.1965778
1.1965945
1.1966165
1.1966565
1.1967481
1.1968178
1.1968436
1.1968724
1.1969093
1.1969668
1.1970728
1.1969135
1.1969547
1.1970009
1.1970553
1.1971274
1.1972331
1.1969427
1.1969959
1.1970538
1.1971196
1.1972011
1.1973058
1.1968173
1.1968686
1.1969276
1.196998
1.1970919
1.1972404
1.1965497
1.1966017
1.1966638
1.1967406
1.1968459
1.1970215
1.1962139
1.1962419
1.1962831
1.1963443
1.1964431
1.1966421
1.1962121
1.1962317
1.1962613
1.1963063
1.1963859
1.1965699
1.1965571
1.1965656
1.1965834
1.1966161
1.1966813
1.196841
1.1968966
1.196896
1.1969061
1.1969328
1.1969922
1.1971335
1.1971551
1.1971463
1.1971457
1.1971598
1.1971994
1.1972857
1.197279
1.1972643
1.197261
1.1972706
1.1973028
1.1973712
1.1972102
1.197188
1.1971736
1.1971693
1.1971831
1.1972483
1.1971008
1.1970584
1.1970249
1.1970023
1.1969975
1.1970396
1.1972538
1.1971998
1.1971532
1.1971143
1.1970877
1.1970912
1.1976602
1.1975948
1.1975346
1.1974791
1.1974267
1.1973902
1.1980676
1.1979935
1.1979225
1.1978529
1.197785
1.1977337
1.1983213
1.1982405
1.1981641
1.1980901
1.1980168
1.19795
1.1985455
1.1984484
1.1983556
1.1982654
1.198177
1.1980967
1.1988472
1.1987324
1.1986191
1.1985046
1.1983891
1.1982887
1.199231
1.1991038
1.1989725
1.1988345
1.1986885
1.1985455
1.1995812
1.1994473
1.1993029
1.1991447
1.1989736
1.1988076
1.1999182
1.1997821
1.1996275
1.1994487
1.1992481
1.1990519
1.2002085
1.20008
1.1999261
1.1997349
1.199505
1.1992722
1.2005131
1.2004011
1.2002603
1.2000735
1.1998226
1.199537
1.2007512
1.2006566
1.2005363
1.2003692
1.200123
1.1998057
1.2011529
1.201083
1.2009889
1.2008506
1.200628
1.2003075
1.2013416
1.2012816
1.2012024
1.2010885
1.2009013
1.2006013
1.2015107
1.2014628
1.2014012
1.201312
1.2011608
1.2008967
1.2015074
1.2014727
1.201428
1.201363
1.2012547
1.201062
1.2015762
1.2015514
1.2015188
1.2014714
1.2013862
1.2012213
1.2015508
1.2015342
1.2015117
1.2014807
1.201425
1.201316
1.201947
1.2019422
1.2019348
1.2019209
1.2018958
1.2018395
)
;

boundaryField
{
    Side1
    {
        type            empty;
    }
    Inlet
    {
        type            calculated;
        value           nonuniform List<scalar> 0();
    }
    Side2
    {
        type            empty;
    }
    Outlet
    {
        type            calculated;
        value           nonuniform List<scalar> 
35
(
1.2012333
1.2012338
1.2012341
1.2012342
1.2012345
1.2012349
1.2012355
1.2012365
1.2012381
1.2012403
1.2012435
1.2012478
1.2012534
1.2012606
1.2012697
1.2012806
1.2012935
1.2013078
1.2013226
1.2013367
1.2012326
1.2012318
1.2012307
1.2012292
1.2012273
1.2012245
1.2012211
1.201217
1.2012126
1.2012075
1.2012004
1.2011913
1.2011758
1.2011493
1.2010921
)
;
    }
    Botwall
    {
        type            calculated;
        value           nonuniform List<scalar> 
59
(
1.190486
1.1906879
1.190888
1.1910857
1.191282
1.1914787
1.1916773
1.1918799
1.1920879
1.1923024
1.192523
1.1927481
1.1929737
1.1931948
1.1934047
1.1935967
1.1937684
1.193921
1.1940591
1.1942265
1.1944572
1.1947684
1.1950305
1.1954909
1.1959648
1.1963471
1.1967481
1.1970728
1.1972331
1.1973058
1.1972404
1.1970215
1.1966421
1.1965699
1.196841
1.1971335
1.1972857
1.1973712
1.1972483
1.1970396
1.1970912
1.1973902
1.1977337
1.19795
1.1980967
1.1982887
1.1985455
1.1988076
1.1990519
1.1992722
1.199537
1.1998057
1.2003075
1.2006013
1.2008967
1.201062
1.2012213
1.201316
1.2018395
)
;
    }
    Cyli
    {
        type            calculated;
        value           nonuniform List<scalar> 0();
    }
    procBoundary1to0
    {
        type            processor;
        value           nonuniform List<scalar> 
44
(
1.1889486
1.1895475
1.1884096
1.1884096
1.1878584
1.1878584
1.1877939
1.1878077
1.1878077
1.1878163
1.1878163
1.1878319
1.187871
1.1879235
1.1879235
1.1880037
1.1880622
1.1881074
1.1881404
1.1881645
1.1881381
1.1881676
1.1881381
1.1881402
1.1881461
1.188153
1.188153
1.1903917
1.1903598
1.1897834
1.1900909
1.190312
1.1904636
1.1905538
1.1905875
1.1905875
1.1895475
1.1895475
1.1903013
1.190234
1.1901728
1.1901341
1.1901494
1.1902854
)
;
    }
    procBoundary1to3
    {
        type            processor;
        value           nonuniform List<scalar> 
62
(
1.1881633
1.1881491
1.1881348
1.1881175
1.1880987
1.1880824
1.1880661
1.1880486
1.1880326
1.1880243
1.1880308
1.1880647
1.188168
1.1883677
1.1887018
1.189189
1.1898276
1.1905812
1.1914028
1.1922418
1.1930571
1.1938207
1.1944836
1.1950586
1.1955597
1.1959639
1.1962503
1.1964325
1.1965788
1.196748
1.1969712
1.1972862
1.1976917
1.1981061
1.1985002
1.1987985
1.1989889
1.199029
1.1990257
1.1991389
1.1991389
1.1993907
1.1996969
1.2000016
1.2002287
1.2003961
1.2005699
1.2007902
1.2010062
1.2011952
1.2013211
1.2014344
1.2014962
1.2015772
1.2016574
1.2017599
1.2018307
1.2018484
1.2017354
1.2016384
1.2014148
1.2014401
)
;
    }
}


// ************************************************************************* //
