/*--------------------------------*- C++ -*----------------------------------*\
| =========                 |                                                 |
| \\      /  F ield         | OpenFOAM: The Open Source CFD Toolbox           |
|  \\    /   O peration     | Version:  2406                                  |
|   \\  /    A nd           | Website:  www.openfoam.com                      |
|    \\/     M anipulation  |                                                 |
\*---------------------------------------------------------------------------*/
FoamFile
{
    version     2.0;
    format      ascii;
    arch        "LSB;label=32;scalar=64";
    class       volScalarField;
    location    "0.06";
    object      p;
}
// * * * * * * * * * * * * * * * * * * * * * * * * * * * * * * * * * * * * * //

dimensions      [1 -1 -2 0 0 0 0];

internalField   nonuniform List<scalar> 
2065
(
101942.23
101789.15
101676.57
101546.93
101419.89
101307.14
101219.93
101154.71
101105.04
101075.11
101063.56
101064.98
101077.08
101096.94
101122.27
101150.71
101182.76
101216.13
101249.14
101284.36
101322.41
101361.22
101398.61
101438.75
101476.09
101512.43
101534.24
101538.9
101551.75
101541.54
101467.35
102149.87
102014.54
101872.13
101718.92
101575.18
101447.71
101342.37
101258.26
101192.45
101147.21
101120.87
101110.38
101112.71
101124.77
101144.14
101168.09
101196.99
101227.99
101259.44
101293.45
101330.33
101367.96
101404.18
101442.76
101478.23
101513.33
101534.3
101540.16
101552.25
101541.48
101467.81
102275.61
102152.73
102005.5
101846.91
101697.83
101563.89
101448.56
101352.86
101275.83
101218.99
101181.23
101160.21
101153.62
101157.99
101170.94
101189.52
101214.16
101241.52
101270.15
101301.95
101336.89
101373.04
101408.4
101446.29
101481.06
101515.79
101535.56
101542.24
101553.17
101541.76
101468.69
102367.65
102254.15
102113.75
101959.14
101810.29
101673.67
101552.26
101448.07
101361.71
101294.52
101245.99
101215.24
101198.82
101195.04
101200.94
101213.59
101233.39
101256.64
101282.18
101311.59
101344.4
101378.97
101413.32
101450.31
101484.4
101518.58
101537.22
101544.81
101554.3
101542.23
101469.96
102438.63
102333.39
102204.64
102059.35
101915.29
101779.64
101655.46
101545.39
101451.23
101374.67
101316.01
101274.87
101248.66
101236.35
101234.21
101240.68
101255.05
101273.8
101296.03
101322.7
101353.14
101385.92
101419.07
101454.98
101488.25
101521.64
101539.1
101547.64
101555.56
101542.86
101471.57
102487.11
102391.41
102276.37
102143.89
102008.68
101877.84
101754.56
101641.78
101542.15
101457.88
101390.09
101339.02
101303.21
101281.7
101271.47
101271.19
101279.39
101293.31
101311.78
101335.27
101363.05
101393.82
101425.59
101460.29
101492.63
101525.11
101541.29
101550.53
101556.92
101543.64
101473.88
102516.1
102430.21
102329.49
102211.68
102088.18
101965.42
101846.47
101734.33
101632.03
101542.28
101466.95
101406.98
101361.97
101331.28
101312.77
101305.09
101306.75
101315.36
101329.56
101349.48
101374.31
101402.8
101433
101466.34
101497.64
101529.07
101543.87
101553.33
101558.36
101544.57
101477.37
102528.24
102452.42
102366.09
102263.61
102153.45
102041.07
101929.23
101820.71
101718.61
101625.92
101545.06
101477.66
101424.26
101384.77
101357.91
101342.52
101337.27
101340.09
101349.56
101365.54
101387.09
101413.02
101441.42
101473.24
101503.38
101533.56
101546.92
101555.98
101559.88
101545.63
101482.64
102530.68
102469.91
102393.81
102303.44
102205.81
102104.58
102001.55
101898.97
101799.69
101706.65
101622.57
101549.6
101489.06
101441.53
101406.56
101383.41
101371
101367.64
101371.98
101383.6
101401.54
101424.62
101450.98
101481.1
101509.94
101538.62
101550.48
101558.55
101561.53
101546.8
101490.22
102523.83
102479.73
102411.67
102330.61
102244.75
102155.13
102062.14
101967.35
101873.15
101782.25
101697.38
101621
101554.99
101500.6
101458.15
101427.46
101407.84
101398.05
101396.89
101403.82
101417.81
101437.75
101461.81
101490.04
101517.45
101544.32
101554.58
101561.18
101563.35
101548.1
101500.52
102494.44
102467.91
102417.03
102347.12
102271.18
102192.54
102110.11
102024.39
101937.1
101850.56
101767.29
101689.8
101620.34
101560.64
101511.75
101474.09
101447.5
101431.23
101424.34
101426.28
101436.04
101452.55
101474.06
101500.19
101526
101550.71
101559.21
101564.07
101565.43
101549.69
101513.6
102464.03
102440.15
102403.16
102350.83
102286.04
102216.96
102144.89
102068.98
101989.97
101909.63
101830.12
101753.83
101683.09
101619.98
101566.09
101522.43
101489.43
101466.87
101454.23
101451
101456.32
101469.16
101487.87
101511.71
101535.73
101557.82
101564.37
101567.37
101567.81
101551.84
101528.97
102428.43
102410.86
102379.31
102338.51
102288.9
102229.81
102166.99
102100.72
102030.69
101957.85
101883.9
101810.9
101741.08
101676.65
101619.53
101571.25
101532.78
101504.48
101486.28
101477.91
101478.68
101487.68
101503.41
101524.71
101546.73
101565.69
101570.12
101571.18
101570.58
101554.84
101545.57
102389.84
102377.58
102352.5
102317.02
102278.25
102232.75
102178.09
102120
102058.7
101994.04
101926.95
101859
101792.17
101728.55
101670.22
101619.02
101576.4
101543.27
101520.04
101506.77
101503.07
101508.17
101520.78
101539.34
101559.14
101574.29
101576.68
101575.57
101573.85
101558.42
101562.24
102348.06
102340.38
102321.48
102293.09
102259.56
102221.21
102176.04
102125.58
102072.73
102016.81
101957.69
101896.33
101834.33
101773.59
101716.14
101663.98
101618.88
101582.19
101554.82
101537.21
101529.33
101530.62
101540.11
101555.74
101573.01
101583.54
101584.37
101580.6
101577.74
101562.51
101578.36
102297.07
102292.96
102278.41
102254.87
102227.09
102198.99
102166.9
102125.04
102077.34
102027.79
101976.07
101921.88
101866.02
101809.92
101755.36
101704.3
101658.62
101620
101589.74
101568.69
101557.17
101554.97
101561.45
101574.02
101588.25
101593.45
101593.34
101586.3
101582.25
101567.34
101592.85
102238.67
102238.02
102227.69
102209.21
102186.32
102160.64
102135.24
102109.87
102075.58
102030.84
101983.11
101935.1
101886.03
101835.99
101786.19
101738.28
101694.09
101655.4
101623.81
101600.52
101586.22
101581.07
101584.82
101594.24
101604.6
101604.45
101603.42
101592.76
101587.33
101572.12
101604.31
102175
102177.48
102170.89
102157.08
102139.92
102120.39
102097.98
102072.98
102048.27
102019.59
101981.41
101938.38
101894.62
101850.97
101807.42
101764.66
101724.02
101687.25
101656.11
101632.05
101616.07
101608.71
101610.07
101616.37
101621.64
101617.64
101614.37
101600.18
101592.99
101576.79
101612.17
102102.46
102107.1
102103.33
102093.1
102080.14
102065.47
102048.65
102028.97
102006.75
101985.68
101965.8
101937.73
101899.23
101858.57
101820.1
101783.35
101747.92
101714.91
101686
101662.74
101646.34
101637.73
101637.13
101639.98
101639.14
101633.41
101626.08
101608.9
101599.43
101582.56
101604.74
102032.51
102038.71
102037.28
102030.28
102021.16
102010.8
101998.93
101985.16
101969.08
101950.27
101929.19
101909.76
101891.62
101864.68
101829.75
101796.52
101766.48
101738.5
101713.41
101692.47
101676.94
101668.15
101665.91
101664.4
101658.11
101650.15
101638.51
101619.27
101607.06
101590.79
101610.43
101966.51
101973.26
101973.35
101968.85
101962.82
101956
101948.15
101939.02
101928.39
101916.01
101901.63
101885.53
101868.92
101854.78
101835.99
101808.95
101782.6
101759.5
101739.31
101722.08
101708.56
101700.42
101696.32
101689.12
101678.15
101666.15
101651.49
101631.26
101616.33
101599.14
101629.99
101918.44
101924.67
101925.41
101922.64
101918.84
101914.57
101909.64
101903.84
101897.04
101889.16
101880.07
101869.58
101857.65
101845.66
101837.53
101825.93
101805.23
101784.32
101768.17
101755.03
101743.35
101733.96
101724.91
101711.7
101696.53
101681.07
101664.52
101644.18
101627.34
101604.12
101634.7
101889.71
101894.23
101895.07
101893.78
101891.9
101889.75
101887.17
101884.03
101880.27
101875.82
101870.59
101864.47
101857.23
101848.64
101839.6
101834.95
101834.62
101827.08
101810.83
101793.6
101777.79
101762.3
101746.5
101729.76
101712.33
101694.95
101677.14
101657.23
101639.72
101610.63
101630.92
101875.78
101877.66
101877.96
101877.57
101876.8
101875.76
101874.54
101873.24
101871.77
101869.98
101867.73
101864.82
101861.07
101856.29
101850.18
101842.41
101833.31
101828.08
101826.17
101817.16
101800.07
101781.16
101762.55
101744.32
101725.98
101707.54
101689.01
101669.84
101653.54
101624.74
101631.29
101878.46
101878.19
101878.04
101877.74
101877.31
101876.73
101875.99
101875.02
101873.79
101872.25
101870.32
101867.89
101864.83
101861.01
101856.2
101850.12
101842.48
101833.05
101821.55
101811.55
101803.39
101790.63
101773.35
101755.1
101736.67
101718
101699.33
101680.85
101666.6
101645.56
101663.4
101878.99
101878.4
101877.69
101876.91
101876.08
101875.16
101874.12
101872.9
101871.48
101869.82
101867.9
101865.62
101862.88
101859.54
101855.43
101850.36
101844.11
101836.53
101827.88
101818.11
101806.22
101793.39
101778.51
101761.21
101743.42
101725.07
101706.68
101689.09
101676.32
101657.63
101691.24
101883.24
101882.78
101882.2
101881.49
101880.66
101879.7
101878.57
101877.26
101875.74
101873.96
101871.88
101869.42
101866.51
101863.03
101858.85
101853.86
101847.86
101840.64
101831.94
101821.42
101808.46
101794.65
101781.1
101764.59
101746.4
101727.85
101709.83
101694.06
101685.03
101667.85
101677.52
101891.07
101890.54
101889.92
101889.18
101888.34
101887.39
101886.3
101885.05
101883.58
101881.85
101879.78
101877.26
101874.16
101870.31
101865.47
101859.45
101852.19
101843.89
101834.64
101824.37
101814.87
101803.94
101787
101767.73
101747.66
101727.51
101709.11
101694.21
101686.76
101675.12
101715
101901.73
101901.36
101900.91
101900.34
101899.67
101898.86
101897.9
101896.73
101895.31
101893.58
101891.45
101888.76
101885.32
101880.95
101875.63
101869.57
101863.28
101857.21
101850.56
101842.38
101831.09
101815.55
101796.85
101775.43
101753.13
101730.93
101709.76
101691.2
101679.21
101665.07
101700.27
101934.92
101933.65
101932.06
101930.2
101928.11
101925.85
101923.51
101921.08
101918.56
101915.91
101913.06
101909.92
101906.36
101902.23
101897.41
101891.76
101885.14
101877.29
101868.62
101859.2
101847.74
101832.76
101815.35
101794.22
101769.93
101745.93
101722.21
101699.73
101680.53
101657.77
101664.8
101940.2
101937.73
101934.93
101932.03
101929.09
101926.15
101923.23
101920.35
101917.52
101914.71
101911.86
101908.91
101905.73
101902.16
101898.01
101893.04
101886.96
101879.47
101870.31
101859.29
101845.58
101828.07
101805.5
101777.22
101756.93
101743.08
101723.44
101701.3
101680.44
101659.29
101651.58
100195.27
100153.42
100112.79
100083.92
100067.3
100067.44
100086.76
100122.96
100175.88
100243.87
100324.18
100413.12
100507.32
100603.21
100696
100786.41
100874.18
100956.33
101031.94
101103.33
101170.41
101232.87
101292.43
101349.14
101399.52
101450.44
101492.01
101516.88
101540.45
101563.46
101526.81
100117.32
100082.62
100050.98
100033.71
100031.17
100045.07
100076.11
100123.55
100185.33
100259.26
100343.04
100433.5
100527.68
100621.31
100711.87
100801.28
100887.53
100967.8
101041.87
101112.69
101179.01
101240.6
101299.15
101354.55
101403.57
101452.87
101493.1
101517.2
101540.62
101562.17
101521.34
99999.723
99971.512
99952.268
99951.424
99966.973
99998.489
100046.3
100108.17
100181.55
100264.28
100354.67
100449.35
100544.66
100637.68
100728.57
100817.56
100902.35
100980.09
101052.69
101122.28
101187.2
101247.47
101304.89
101359.35
101407.53
101455.94
101494.95
101517.73
101540.74
101560.44
101516.53
99861.697
99849.872
99850.74
99870.854
99906.54
99956.5
100020.02
100094.85
100178.91
100269.76
100366.47
100463.82
100559.88
100653.96
100745.22
100833.74
100916.27
100991.61
101063.39
101131.43
101194.99
101254.02
101310.39
101363.95
101411.3
101459.01
101496.97
101518.39
101540.9
101558.51
101512.25
99705.196
99719.589
99746.978
99791.676
99849.46
99918.881
99998.309
100085.96
100180.49
100278.74
100379.46
100478.43
100576.37
100671.1
100762.32
100849.65
100929.12
101003.19
101073.9
101140.42
101202.7
101260.58
101315.89
101368.55
101415
101461.95
101498.89
101519.03
101541.05
101556.45
101508.52
99552.451
99595.702
99649.651
99719.141
99798.942
99887.681
99982.465
100081.87
100186.3
100289.44
100393.2
100495.09
100594.1
100689.03
100779.97
100864.67
100941.5
101015.17
101084.28
101149.3
101210.3
101267.05
101321.3
101373.08
101418.65
101464.84
101500.75
101519.65
101541.18
101554.27
101505.29
99409.541
99481.622
99560.595
99655.453
99756.743
99864.347
99973.496
100081.72
100193.65
100302.49
100409.6
100513.18
100612.71
100707.94
100797.48
100878.53
100954.28
101027.04
101094.49
101158.03
101217.77
101273.42
101326.61
101377.51
101422.29
101467.7
101502.57
101520.26
101541.31
101552.05
101502.63
99276.56
99379.162
99488.868
99606.44
99726.575
99848.317
99968.812
100087.38
100205.19
100318.53
100427.9
100532.52
100632.77
100727.49
100813.41
100892.05
100967.68
101038.74
101104.55
101166.61
101225.09
101279.68
101331.82
101381.85
101425.92
101470.52
101504.36
101520.87
101541.5
101549.83
101500.52
99171.518
99300.903
99434.988
99571.799
99707.637
99841.571
99972.062
100098.5
100220.87
100337.29
100448.13
100553.84
100654.33
100746.18
100828.08
100906.21
100981
101050.29
101114.45
101175.03
101232.27
101285.82
101336.91
101386.09
101429.52
101473.31
101506.1
101521.5
101541.79
101547.7
101499.39
99097.849
99249.223
99402.043
99553.827
99701.899
99845.504
99983.566
100115.24
100240.69
100359.14
100471.17
100577.46
100675.5
100762.5
100843.27
100921.39
100994.19
101061.7
101124.18
101183.28
101239.29
101291.85
101341.88
101390.24
101433.09
101476.06
101507.82
101522.13
101542.25
101545.75
101499.01
99062.502
99228.706
99393.498
99554.646
99710.508
99860.541
100003.53
100138.22
100265.28
100385.07
100497.41
100601.36
100694.24
100778.93
100860.35
100936.55
101007.26
101072.97
101133.75
101191.36
101246.16
101297.75
101346.74
101394.28
101436.6
101478.77
101509.52
101522.79
101542.85
101544.03
101497.24
99067.632
99241.294
99410.962
99575.302
99733.935
99886.816
100032.07
100168.31
100296.13
100414.72
100523.78
100623.46
100712.37
100796.85
100877.61
100951.57
101020.25
101084.11
101143.16
101199.26
101252.86
101303.52
101351.46
101398.22
101440.05
101481.44
101511.22
101523.48
101543.56
101542.59
101493.17
99098.398
99278.724
99450.433
99615.038
99773.223
99925.698
100069.43
100203.65
100329.84
100444.26
100548.2
100643.65
100731.97
100816.85
100894.92
100966.58
101033.15
101095.1
101152.39
101206.97
101259.4
101309.16
101356.05
101402.05
101443.43
101484.08
101512.94
101524.18
101544.33
101541.45
101490.02
99133.702
99320.109
99494.866
99660.176
99819.732
99973.672
100113.37
100240.54
100361.69
100472.13
100572.25
100666.22
100755.39
100837.28
100912.38
100981.6
101045.97
101105.96
101161.44
101214.49
101265.76
101314.64
101360.49
101405.77
101446.75
101486.67
101514.68
101524.91
101545.09
101540.58
101486.83
99240.977
99407.584
99567.101
99720.709
99874.844
100026.27
100159.6
100280.6
100394.46
100501.95
100603.15
100694.68
100779.83
100857.99
100930.05
100996.65
101058.71
101116.68
101170.33
101221.81
101271.96
101319.97
101364.79
101409.38
101449.98
101489.22
101516.45
101525.68
101545.8
101539.94
101483.22
99460.625
99596.203
99725.21
99857.19
99982.865
100096.59
100215.8
100335.09
100442.69
100543.66
100638.2
100724.64
100804.9
100879.15
100947.93
101011.7
101071.36
101127.26
101179.03
101228.93
101277.98
101325.13
101368.95
101412.88
101453.14
101491.72
101518.26
101526.49
101546.46
101539.49
101479.84
99662.612
99779.381
99884.274
99989.572
100093.73
100195.52
100299.06
100401.49
100497.81
100589.29
100675.52
100755.72
100830.81
100900.8
100966.01
101026.77
101083.93
101137.7
101187.55
101235.85
101283.81
101330.1
101372.96
101416.27
101456.18
101494.16
101520.1
101527.35
101547.06
101539.18
101476.66
99897.477
99986.955
100062.7
100140.53
100221.87
100305.02
100389.67
100474.52
100557.27
100637.79
100715.1
100788.28
100857.66
100922.96
100984.3
101041.87
101096.41
101147.98
101195.87
101242.57
101289.47
101334.87
101376.81
101419.55
101459.09
101496.55
101521.94
101528.3
101547.6
101539
101473.73
100161.95
100220.02
100262.6
100309.83
100364.13
100423.66
100487.33
100553.91
100621.45
100689.73
100757.16
100822.44
100885.47
100945.63
101002.81
101056.97
101108.81
101158.11
101204
101249.1
101294.94
101339.43
101380.52
101422.72
101461.86
101498.88
101523.74
101529.35
101548.1
101538.94
101471.12
100453.98
100476.9
100482.84
100496.18
100519.97
100552.74
100593.27
100639.95
100690.57
100745.24
100801.74
100858.23
100914.26
100968.83
101021.54
101072.09
101121.09
101168.07
101211.93
101255.45
101300.23
101343.79
101384.07
101425.77
101464.48
101501.14
101525.49
101530.54
101548.58
101539
101469.02
100768.58
100753.3
100720.08
100697.39
100688.1
100691.61
100707.17
100732.65
100764.66
100804.32
100848.84
100895.64
100944.01
100992.53
101040.45
101087.19
101133.25
101177.85
101219.67
101261.65
101305.34
101347.94
101387.48
101428.71
101466.92
101503.32
101527.15
101531.86
101549.04
101539.19
101468.11
101104.3
101046.92
100972.37
100913.23
100869.26
100841.26
100830.14
100833.5
100844.94
100867.66
100898.85
100934.86
100974.75
101016.69
101059.49
101102.2
101145.24
101187.43
101227.25
101267.75
101310.3
101351.93
101390.78
101431.55
101469.23
101505.37
101528.67
101533.28
101549.5
101539.57
101468.61
101472.8
101371.51
101257.99
101161.59
101078.8
101013.43
100970.67
100948.66
100935.65
100937.78
100953.15
100976.6
101006.79
101041.39
101078.67
101117.11
101157.03
101196.8
101234.71
101273.81
101315.09
101355.79
101393.99
101434.29
101471.41
101507.24
101530.05
101534.78
101550.03
101540.11
101468.2
101835.54
101723.74
101601.67
101468.55
101341.65
101228.43
101144.29
101087.01
101042.6
101018.68
101014.25
101022.56
101041.35
101067.53
101098.63
101132.4
101168.96
101206.19
101242.22
101279.86
101319.74
101359.56
101397.14
101436.96
101473.62
101509.11
101531.44
101536.51
101550.76
101540.86
101466.79
100267.47
100239.75
100209.23
100180.7
100159.17
100150.28
100157.19
100179.46
100218.12
100272.61
100340.85
100419.74
100506.08
100596.73
100687.08
100775.94
100863.45
100946.5
101023.86
101096.85
101165.34
101229
101289.29
101346.26
101396.32
101446.78
101488.47
101514.88
101539.65
101564.27
101533.6
100281.29
100254.99
100229.09
100207.71
100190
100182.15
100186.45
100204.79
100239.02
100288.87
100352.58
100427.41
100510.24
100598.02
100686.57
100774.12
100860.51
100942.92
101020.15
101093.23
101161.98
101225.85
101286.48
101343.81
101394.42
101445.18
101487.77
101515.04
101540.05
101565.55
101540.75
100287.83
100266.85
100246.24
100228.31
100215.76
100210.39
100214.7
100231.31
100262.29
100307.96
100367.18
100437.7
100516.66
100601.17
100687.33
100773.28
100858.34
100939.89
101016.78
101089.67
101158.68
101222.74
101283.67
101341.31
101392.6
101443.57
101486.88
101514.98
101540.25
101566.54
101548.05
100297.86
100282.88
100268.15
100253.88
100243.95
100239.96
100244.28
100259.36
100287.23
100328.68
100383.2
100449.08
100523.87
100604.82
100688.34
100772.45
100856.14
100936.81
101013.36
101086.11
101155.17
101219.51
101280.74
101338.69
101390.5
101441.8
101485.72
101514.68
101540.29
101567.47
101556.42
100308.17
100298.12
100287.85
100277.87
100270.6
100268.13
100272.78
100286.76
100312.06
100349.76
100399.87
100461.23
100531.77
100609.05
100689.75
100771.81
100853.98
100933.73
101009.86
101082.58
101151.46
101216.12
101277.67
101335.94
101388.18
101439.88
101484.38
101514.27
100316.59
100310.42
100304.01
100297.99
100293.85
100293.52
100299.1
100312.67
100336.13
100370.78
100416.99
100284.22
100295.8
100304.54
100312.02
100317.97
100276.25
100277.05
102386.41
102336.39
100259.32
100244
100232.59
100219.92
100208.52
100180.64
100153.08
100137.67
100130.71
99958.456
100016.26
100000.06
99986.123
99990.144
100001.75
99631.27
99732.407
99751.696
99775.754
99810.361
99845.041
99221.747
99406.082
99469.956
99534.723
99600.312
99661.062
98822.793
99078.954
99184.587
99277.913
99378.238
99474.308
98482.83
98789.47
98918.926
99042.498
99175.512
99299.34
98176.17
98530.651
98683.626
98835.311
98995.148
99142.584
97919.273
98331.064
98492.96
98664.202
98846.279
99014.452
97677.778
98182.528
98355.912
98540.764
98738.598
98923.202
97473.64
98067.64
98282.522
98482.763
98686.594
98879.069
97377.611
97969.508
98236.662
98469.932
98685.459
98883.006
97490.138
97966.557
98182.83
98445.478
98691.065
98907.931
97716.776
98149.203
98275.039
98499.512
98727.006
98945.68
97897.181
98363.22
98561.251
98719.712
98898.953
99091.23
98112.493
98556.938
98758.727
98961.293
99154.582
99341.633
98400.833
98822.561
99011.407
99198.816
99383.288
99562.297
98741.655
99139.464
99323.277
99493.663
99662.266
99828.747
99140.717
99510.261
99684.261
99832.246
99980.075
100130
99587.753
99927.211
100086.41
100209.92
100333.78
100463.29
100078.83
100383.82
100523.44
100620.02
100716.93
100822.49
100609.25
100870.49
100987.51
101055.84
101124.18
101204.31
101380.89
101472.45
101513.22
101554.84
101612.95
101967.27
101980.39
101990.46
102014.52
102517.85
102620.69
102700.04
102764.48
102805.61
102820.25
102813.73
102784.4
102741.71
102692.25
102634.5
102581.02
102516.45
102526.83
102463.34
102474.52
102409.35
102422.42
102349.23
102364.21
102282.87
102299.86
102211.24
102229.78
102132.4
102150.69
102056.45
102073.28
101985.62
101999.44
101933.09
101943
101897.54
101903.88
101877.82
101880.35
101880.42
101880.14
101880.59
101879.86
101884.73
101884
101892.68
101891.84
101903.04
101902.36
101937.49
101936.24
101943.63
101942.19
)
;

boundaryField
{
    Side1
    {
        type            empty;
    }
    Inlet
    {
        type            totalPressure;
        rho             rho;
        psi             none;
        gamma           1;
        p0              uniform 102920.87;
        value           nonuniform List<scalar> 
92
(
102920.87
101286.41
101286.63
101286.87
101287.2
101287.67
101288.33
101289.22
101290.34
101291.7
101293.21
101294.79
101296.34
101297.85
101299.35
101300.92
101302.59
101304.47
102920.87
101308.34
101310.73
102920.87
102920.87
102920.87
101316.86
101319.85
102920.87
101325.73
102920.87
102920.87
101328.54
101328.54
101328.54
101328.54
101328.54
101328.54
101328.54
101328.54
101328.54
101328.54
101328.54
101328.54
101328.54
101328.54
101328.54
101328.54
101328.54
101328.54
101328.54
101328.54
101328.54
101328.54
101328.54
101328.54
101328.54
101328.54
101328.54
101328.54
101328.54
101328.54
101325.86
101328.54
102920.87
102920.87
102920.87
102920.87
102920.87
102920.87
102920.87
102920.87
102920.87
101284.46
102920.87
102920.87
102920.87
102920.87
102920.87
102920.87
102920.87
102920.87
102920.87
102920.87
102920.87
101285.71
101285.92
102920.87
102920.87
102920.87
102920.87
102920.87
101328.54
101328.54
)
;
    }
    Side2
    {
        type            empty;
    }
    Outlet
    {
        type            freestreamPressure;
        freestreamValue nonuniform List<scalar> 0();
        value           nonuniform List<scalar> 0();
    }
    Botwall
    {
        type            zeroGradient;
    }
    Cyli
    {
        type            zeroGradient;
    }
    procBoundary2to0
    {
        type            processor;
        value           nonuniform List<scalar> 
55
(
100304.47
100311.57
100318.29
100322.3
100323.94
100294.37
100301.89
100281.99
100279.69
100279.69
102457.44
102435.82
102435.82
102808.58
102711.62
100271.06
100271.06
100177.59
100177.59
101164.55
101164.55
101902.29
101902.29
102804.73
102826.79
102864.66
102893.44
102901.88
102892.56
102866.98
102816.42
102754.92
102691.59
102630.07
102571.51
102571.51
102532.61
102474.96
102416.56
102352.72
102282.94
102208.33
102127.82
102051.04
101980.58
101929.16
101894.43
101876.16
101880.69
101881.25
101885.46
101893.51
101903.7
101938.79
101944.9
)
;
    }
    procBoundary2to3
    {
        type            processor;
        value           nonuniform List<scalar> 
35
(
101540.28
101568.43
101565.5
100474.11
100540.51
100614.07
100691.8
100771.61
100852.06
100930.76
101006.35
101078.93
101147.76
101212.58
101274.43
101333.02
101385.74
101437.82
101482.94
101540.28
101513.82
100323.53
100322.54
100320.68
100317.79
100315.25
100314.27
100316.4
100323.41
100337.16
100359.46
100391.68
100474.11
100434.53
100322.54
)
;
    }
}


// ************************************************************************* //
