/*--------------------------------*- C++ -*----------------------------------*\
| =========                 |                                                 |
| \\      /  F ield         | OpenFOAM: The Open Source CFD Toolbox           |
|  \\    /   O peration     | Version:  2406                                  |
|   \\  /    A nd           | Website:  www.openfoam.com                      |
|    \\/     M anipulation  |                                                 |
\*---------------------------------------------------------------------------*/
FoamFile
{
    version     2.0;
    format      ascii;
    arch        "LSB;label=32;scalar=64";
    class       volScalarField;
    location    "0.099";
    object      omega;
}
// * * * * * * * * * * * * * * * * * * * * * * * * * * * * * * * * * * * * * //

dimensions      [0 0 -1 0 0 0 0];

internalField   nonuniform List<scalar> 
8260
(
19421.075
16555.692
13859.729
11451.549
9367.4776
7592.5169
6098.1951
4853.5602
3828.1999
2992.4214
2318.7215
1781.971
1359.2442
1029.9032
773.84813
571.00514
393.59251
262.64019
199.64196
166.34242
144.52287
130.15654
119.97702
113.35621
109.01957
105.64363
103.36074
101.67704
100.42767
99.605131
99.173883
16034.715
13811.856
11768.892
9913.933
8256.8748
6799.8873
5538.0538
4461.1902
3555.6725
2804.945
2190.8329
1695.4208
1301.0754
991.03144
747.4359
551.37077
377.15149
252.31863
195.52725
164.39275
143.45352
129.52128
119.55996
113.08725
108.86406
105.54901
103.30437
101.64214
100.40532
99.591165
99.165181
13131.802
11494.289
9953.7398
8523.0819
7212.297
6029.151
4978.2759
4060.4221
3272.4411
2607.2033
2054.3972
1602.2751
1238.0554
948.68009
718.54686
529.82402
360.52604
245.39549
193.31061
163.37691
142.9127
129.19436
119.34565
112.94261
108.78018
105.49748
103.27296
101.62141
100.38934
99.579213
99.155766
10637.686
9469.874
8333.0991
7247.9373
6227.3054
5282.4032
4422.4291
3653.8636
2979.8748
2399.81
1909.4864
1502.3296
1169.875
902.50428
686.7896
505.7387
342.52894
237.29169
190.08141
161.72917
141.9942
128.62082
118.96597
112.67976
108.62553
105.40167
103.21384
101.58332
100.36408
99.562587
99.144628
8521.5094
7711.2035
6889.5903
6083.709
5305.4545
4566.3488
3877.0072
3246.396
2681.0785
2184.5127
1756.9189
1395.8396
1096.4877
852.28536
651.75745
478.37267
322.66314
229.27568
187.05075
160.22167
141.18467
128.13196
118.64955
112.46232
108.498
105.32319
103.16526
101.55093
100.34083
99.545971
99.131943
6752.2785
6199.1994
5618.2354
5033.3803
4453.7952
3889.2352
3349.5289
2843.876
2380.0769
1963.7714
1598.0191
1283.382
1018.0292
797.87837
612.98104
447.04015
301.22138
221.16477
183.55197
158.35457
140.13369
127.48124
118.22031
112.16099
108.31882
105.21248
103.096
101.50522
100.31013
99.525206
99.117422
5288.9467
4917.4286
4515.4362
4100.9447
3680.0211
3259.7818
2848.0516
2452.8266
2081.6084
1740.691
1434.6052
1165.8603
934.82097
739.1818
569.81714
411.16498
279.0075
213.2522
179.95745
156.44959
139.083
126.85245
117.81547
111.87637
108.14891
105.10872
103.0303
101.4605
100.27895
99.503103
99.100857
4091.7688
3846.6695
3574.6739
3288.0545
2990.2913
2685.9396
2380.4941
2080.0713
1790.9391
1518.9475
1268.9798
1044.5142
847.37213
676.07863
521.26054
370.44422
257.35347
205.53037
175.97833
154.24203
137.81625
126.08886
117.31825
111.52017
107.93291
104.97723
102.94582
101.40329
100.24051
99.476532
99.081939
3123.9037
2965.5368
2785.8132
2592.6725
2387.7763
2173.6544
1953.7144
1732.1084
1513.4748
1302.568
1103.8157
920.84863
756.28767
608.25267
465.75185
326.07486
237.98709
198.02151
171.76863
151.89964
136.48187
125.3146
116.82884
111.16693
107.71522
104.84731
102.86025
101.34379
100.1997
99.447307
99.060323
2350.9622
2251.0482
2135.4052
2008.8882
1872.0512
1726.0404
1572.6597
1414.364
1254.1778
1095.514
941.87288
796.41467
661.90885
534.72238
401.49769
282.33646
222.00285
190.51196
167.15211
149.22424
134.91352
124.40202
116.25291
110.74687
107.44972
104.69102
102.75477
101.27077
100.15092
99.412641
99.035563
1741.4425
1679.9872
1607.9963
1527.8155
1439.4371
1343.1949
1239.8115
1130.4631
1016.8206
901.00972
785.42494
672.27293
563.62082
451.89
330.2889
247.16197
209.11279
182.84541
162.21842
146.31432
133.2399
123.4452
115.66936
110.32555
107.17346
104.53385
102.64411
101.19197
100.09811
99.373893
99.007163
1266.0891
1229.5596
1186.3684
1137.4856
1082.5918
1021.5096
954.25604
881.12504
802.78589
720.2992
634.96227
547.28419
457.04748
357.4917
269.26308
224.74751
197.15986
174.41638
157.11342
142.98677
131.24295
122.36072
114.9833
109.84198
106.84538
104.35039
102.51112
101.09673
100.03618
99.328598
98.974574
897.72346
877.14502
852.43693
823.89559
791.03141
753.36998
710.53095
662.28525
608.66373
549.92415
486.6041
417.76088
343.24476
276.38321
234.71648
207.74549
184.7847
166.73362
151.23288
139.48224
129.18849
121.09995
114.272
109.36485
106.50613
104.16333
102.36958
100.99256
99.968493
99.278274
98.932544
608.27338
596.74194
582.64403
566.18887
546.78349
523.63643
496.37601
464.79473
428.78372
387.90681
344.41333
300.57417
262.47894
232.62876
212.53814
190.85845
173.90536
157.43641
145.44536
135.43794
126.70356
119.83251
113.41297
108.803
106.12855
103.94193
102.20191
100.87142
99.88956
99.220857
98.882645
389.58881
382.82695
375.20104
366.76177
356.57746
344.02773
329.28024
312.91037
294.53973
274.6897
255.35269
235.79996
219.84841
207.88556
192.47654
176.1747
161.22666
149.7832
139.19867
131.21392
124.1254
118.25063
112.59506
108.26777
105.73601
103.6993
102.02364
100.74355
99.802376
99.158097
98.826641
266.49186
263.2232
259.27852
255.11285
250.52449
245.25862
239.04433
232.40629
223.75824
215.46035
207.34578
200.17306
193.84519
183.6498
173.65534
160.70624
151.03703
141.08686
133.36344
126.60374
121.13975
116.60667
111.5419
107.67677
105.31567
103.41281
101.80748
100.60174
99.70179
99.087711
98.765716
201.09335
199.86719
198.44019
196.74455
195.04084
192.99098
190.39274
187.9273
185.32983
183.19105
177.01248
170.36912
164.60656
159.52872
156.18895
149.62746
140.33595
134.17678
127.74124
122.566
118.05012
114.46809
110.54938
107.07676
104.86606
103.09457
101.5907
100.44823
99.592936
99.010901
98.701563
167.14648
166.25485
165.56181
164.86631
164.30004
164.44902
164.4014
162.92864
160.62269
156.27681
154.06941
153.25737
149.18332
142.6334
139.73275
138.09652
133.73996
127.53218
122.71325
118.23802
115.08623
112.37272
109.23618
106.35883
104.37055
102.74929
101.31798
100.27725
99.472392
98.9248
98.635701
148.32306
148.34801
148.18965
147.65795
146.62329
144.78348
142.44484
141.09008
140.39905
140.1047
139.65435
136.6056
134.67199
133.00755
129.03823
127.50678
125.81427
122.76442
118.65523
115.2202
112.17435
110.05981
108.07893
105.52441
103.82099
102.36094
101.04882
100.10061
99.341612
98.829994
98.55978
130.75323
130.57728
130.39875
130.16381
129.93769
130.05379
130.74794
130.81388
130.10782
128.39914
126.02859
125.75939
125.60404
124.88397
123.18188
119.45139
117.95722
116.81592
115.20917
112.07549
109.78415
108.2598
106.64555
104.53487
103.19656
101.95849
100.72442
99.889903
99.202198
98.727284
98.480465
121.57639
121.6713
121.64508
121.4787
121.1416
120.55421
119.3772
118.70751
118.32831
118.04095
118.43268
117.94736
116.69096
115.51969
116.08287
114.98186
112.28446
110.83717
110.6253
110.00548
107.49191
106.21477
105.5106
103.61518
102.47003
101.46932
100.41741
99.679318
99.050556
98.617331
98.393024
112.48122
112.48145
112.44492
112.35413
112.24629
112.17402
112.40574
112.70191
112.58537
112.20228
111.5039
110.79949
111.14642
110.92256
110.23365
108.88884
108.91879
107.49514
106.43757
106.22517
105.71096
104.71627
103.9473
102.80801
101.63621
100.98847
100.05657
99.415468
98.892383
98.505082
98.304568
107.81215
107.91288
107.93286
107.88653
107.77828
107.59986
107.28315
106.82993
106.68861
106.6413
106.58464
106.73858
106.33445
106.29132
106.26647
105.82701
104.88275
105.33217
104.36587
103.84276
103.98967
102.83441
102.73831
102.02902
100.84028
100.38278
99.739535
99.164685
98.734121
98.389942
98.213647
103.52085
103.56509
103.57101
103.55027
103.51788
103.48274
103.46682
103.60161
103.73276
103.79714
103.82154
103.7028
103.6579
103.46092
103.08303
103.27661
102.94305
102.38908
102.62612
102.37461
101.95327
101.75516
101.07324
101.04253
100.28435
99.793727
99.391841
98.894045
98.573415
98.28296
98.127804
101.46444
101.52066
101.54001
101.53069
101.50163
101.44835
101.36324
101.23691
101.17239
101.15709
101.14278
101.13191
101.12981
101.10397
101.28151
101.06749
101.33742
100.93651
100.73979
100.79861
100.58964
100.53696
100.10553
100.19036
99.756084
99.340015
99.071463
98.715159
98.414832
98.186864
98.054087
99.763877
99.782691
99.782638
99.773561
99.765241
99.764144
99.771411
99.791559
99.845151
99.903012
99.964731
100.01182
100.02057
99.968792
99.869434
99.920606
99.879832
100.10129
99.863927
99.83077
99.712742
99.76515
99.555842
99.392689
99.375117
99.007724
98.774502
98.543229
98.291335
98.111587
98.008681
98.975876
98.98603
98.981325
98.97023
98.963611
98.96453
98.970651
98.979896
98.993219
99.01224
99.033714
99.057298
99.083777
99.112767
99.142431
99.139384
99.185195
99.202462
99.318929
99.269374
99.257648
99.116327
99.076019
98.979235
98.969441
98.757204
98.606811
98.410089
98.216118
98.069509
97.983243
98.428224
98.437789
98.44435
98.451274
98.461178
98.474202
98.489777
98.507665
98.52822
98.552514
98.582446
98.619871
98.664227
98.715769
98.73603
98.742203
98.747132
98.767486
98.801033
98.812002
98.819739
98.798788
98.717634
98.691752
98.670569
98.610688
98.459143
98.32201
98.175452
98.051969
97.96987
98.240324
98.247213
98.252474
98.258148
98.265718
98.275372
98.286926
98.300414
98.31641
98.336381
98.362683
98.396048
98.430232
98.457853
98.474322
98.494113
98.539069
98.547648
98.55916
98.580578
98.573689
98.586518
98.546916
98.536824
98.518072
98.477171
98.386233
98.280263
98.161237
98.063968
98.025394
98.167524
98.172927
98.177745
98.1831
98.189739
98.197799
98.207277
98.218367
98.231717
98.248732
98.271974
98.303919
98.342334
98.372921
98.38957
98.399556
98.409525
98.427925
98.440231
98.455848
98.469832
98.47641
98.474651
98.468776
98.45627
98.427414
98.358529
98.273299
98.220049
98.176276
98.129906
98.280971
98.27983
98.278325
98.27654
98.27495
98.273862
98.273476
98.273985
98.275674
98.279087
98.286143
98.302712
98.334316
98.355837
98.364165
98.374076
98.386736
98.396422
98.405101
98.418351
98.427328
98.445629
98.441552
98.447077
98.444729
98.427273
98.391621
98.362337
98.344214
98.309322
98.304723
106225.71
89216.858
70043.99
53923.98
41225.229
31130.551
23226.135
17194.321
12636.146
9199.2284
6631.0627
4736.8407
3356.5396
2361.5377
1651.0815
1147.2016
789.01122
528.21279
343.61996
230.46561
175.19994
147.41067
130.91579
120.36808
113.05704
108.07212
104.78028
102.54047
101.02499
100.00857
99.482253
92629.907
69868.468
53753.785
42075.566
32768.166
25266.918
19314.227
14599.321
10901.032
8040.4181
5865.1493
4236.6268
3033.5979
2155.3315
1520.752
1065.3974
737.14603
494.71837
321.98861
218.53994
169.84862
144.82858
129.50386
119.56601
112.59828
107.81844
104.64478
102.46734
100.98533
99.987419
99.473389
74391.251
59206.521
47436.523
37542.679
29244.894
22494.904
17140.166
12947.631
9690.12
7182.3559
5273.7474
3837.8416
2769.5938
1983.3838
1410.3723
995.27791
692.44842
466.28046
305.16239
211.4583
167.31368
143.59965
128.81862
119.1636
112.36527
107.67992
104.56861
102.42317
100.95822
99.970481
99.463199
65687.564
52876.933
41994.29
32976.712
25678.439
19841.954
15208.298
11552.135
8691.6089
6478.7308
4786.2863
3505.8796
2547.3188
1836.9807
1315.4074
934.37949
653.33206
441.46508
290.22884
204.10732
163.86532
141.75265
127.74399
118.53274
111.99861
107.47202
104.45633
102.36087
100.9229
99.950736
99.452759
58508.661
46635.752
36962.944
29131.632
22799.906
17702.928
13627.373
10395.502
7858.7849
5889.0418
4375.4693
3224.2105
2357.2708
1710.7968
1232.8991
881.00921
618.76171
419.09939
276.64858
198.02079
161.43178
140.49976
127.0242
118.10971
111.75478
107.32876
104.3779
102.3152
100.89471
99.933293
99.441815
52093.597
41571.199
33035.423
26092.007
20464.879
15932.237
12304.034
9422.9895
7156.1702
5389.4674
4025.6634
2982.9778
2193.4694
1601.3115
1160.8071
833.92304
588.03962
398.57253
264.40578
192.56847
158.8839
139.05754
126.1569
117.58961
111.45083
107.15287
104.28201
102.26058
100.86227
99.914353
99.430199
47093.555
37552.092
29820.171
23561.413
18509.942
14445.237
11190.462
8602.4956
6561.0308
4964.2783
3726.3807
2775.4367
2051.7225
1505.9925
1097.6248
792.30284
560.62865
379.84275
253.46812
187.88688
156.80279
137.91331
125.47621
117.18351
111.21695
107.01475
104.206
102.21581
100.834
99.896726
99.418071
43042.762
34206.911
27132.154
21448.621
16875.5
13198.097
10253.411
7909.2551
6055.8744
4601.5883
3469.767
2596.5309
1928.8619
1422.9022
1042.1857
755.51047
536.06127
362.78764
243.7862
183.80675
154.81137
136.74726
124.75536
116.74374
110.9605
106.86369
104.12262
102.16721
100.80375
99.878358
99.40554
39568.611
31391.935
24889.717
19685.808
15506.545
12150.38
9463.6356
7322.7484
5626.6512
4291.9717
3249.6237
2442.271
1822.3802
1350.5041
993.63515
722.99711
514.22871
347.33326
235.30613
180.29312
153.09065
135.756
124.14413
116.37186
110.74699
106.73622
104.05152
102.1248
100.77607
99.860769
99.392834
36711.031
29059.922
23022.09
18210.95
14357.674
11269.194
8797.5936
6826.4622
5262.0249
4027.8081
3060.9328
2309.421
1730.2374
1287.5458
951.27221
694.39738
494.61281
333.38194
227.95515
177.25823
151.50462
134.80687
123.53979
115.99641
110.52964
106.60609
103.97831
102.08131
100.74766
99.842864
99.379994
34273.849
27092.691
21451.457
16971.529
13392.604
10528.205
8236.3084
6407.0119
4952.7669
3802.8703
2899.5793
2195.3176
1650.744
1232.9844
914.42066
669.33578
477.05057
320.86251
221.64619
174.65055
150.11024
133.97915
123.00939
115.66607
110.3411
106.49209
103.91328
102.04205
100.72097
99.825461
99.367041
32216.087
25434.888
20130.35
15930.461
12582.941
9906.1152
7764.4085
6053.5057
4691.3388
3612.0484
2762.1703
2097.7511
1582.4853
1186.0019
882.50077
647.52102
461.41026
309.71114
216.29252
172.41662
148.85505
133.21666
122.50635
115.34637
110.15784
106.38071
103.84888
102.00317
100.69425
99.807979
99.35399
30457.217
24031.276
19018.036
15057.384
11904.947
9385.5404
7369.3492
5757.0862
4471.591
3451.1496
2645.9024
2014.8819
1524.3112
1145.7796
854.98922
628.68677
447.53858
299.87876
211.8039
170.51802
147.7561
132.55072
122.06046
115.0604
109.99585
106.28147
103.79044
101.96745
100.66879
99.790857
99.340854
28951.202
22841.836
18082.432
14327.259
11340.101
8952.7368
7040.9613
5510.5469
4288.5462
3316.8187
2548.5236
1945.2968
1475.2252
1111.605
831.47988
612.52322
435.30488
291.32132
208.09498
168.92199
146.7919
131.95692
121.65074
114.79172
109.84337
106.18742
103.73406
101.93285
100.6437
99.773783
99.327636
27666.369
21839.851
17302.204
13722.774
10875.005
8597.4564
6771.7594
5308.5326
4138.4212
3206.6022
2468.3996
1887.763
1434.4169
1083.0508
811.72803
598.70869
424.56897
283.9874
205.087
167.60459
145.96678
131.44695
121.29031
114.55108
109.708
106.10325
103.6825
101.90081
100.61968
99.757021
99.314316
26608.404
21020.617
16669.411
13235.596
10501.768
8313.3518
6556.9467
5147.54
4018.5636
3118.2257
2403.9524
1841.1992
1401.2551
1059.7286
795.5151
587.20082
415.2437
277.84564
202.69049
166.54687
145.27129
131.00975
120.96984
114.33071
109.58384
106.02536
103.63377
101.87024
100.59629
99.740428
99.300857
25774.731
20380.082
16177.172
12858.296
10213.745
8094.5777
6391.6752
5023.3876
3925.9705
3049.5341
2353.6476
1804.7949
1375.2146
1041.3197
782.64755
578.00858
407.34604
272.84694
200.78795
165.7341
144.70562
130.64904
120.6949
114.13539
109.47436
105.95596
103.58925
101.84184
100.57387
99.724115
99.287277
24999.785
19825.274
15772.308
12559.827
9992.2529
7929.5883
6268.5963
4931.3964
3857.6702
2999.0526
2316.6018
1777.9106
1355.896
1027.5756
772.96177
571.0359
400.91282
268.86527
199.36821
165.154
144.2649
130.3593
120.46132
113.96147
109.37657
105.89318
103.54798
101.81506
100.55221
99.70802
99.273603
24196.157
19282.061
15402.477
12306.202
9816.6221
7806.4963
6181.2867
4868.7042
3812.0491
2965.6459
2292.1397
1760.0879
1343.0091
1018.3179
766.33923
566.21844
395.96888
265.82653
198.38253
164.79454
143.94867
130.14112
120.27153
113.81108
109.29199
105.83803
103.51066
101.79023
100.53152
99.692207
99.259847
23537.173
18841.6
15110.257
12114.591
9692.1552
7725.837
6128.6859
4833.6959
3788.0262
2948.6087
2279.7835
1751.0334
1336.3704
1013.4316
762.70842
563.49942
392.53643
263.66242
197.80597
164.64372
143.75725
129.99195
120.12436
113.68289
109.2193
105.78966
103.47688
101.76709
100.51169
99.676643
99.245975
22953.491
18481.863
14891.816
11985.873
9619.7336
7687.6549
6110.4217
4825.8362
3785.0855
2947.5893
2279.3104
1750.6065
1335.8788
1012.8734
762.04778
562.8383
390.6468
262.324
197.61736
164.69129
143.69633
129.91233
120.02201
113.57839
109.15933
105.74861
103.44699
101.74579
100.49282
99.661337
99.23192
22431.053
18187.579
14738.481
11916.453
9598.6273
7691.2356
6123.9614
4841.9389
3800.1439
2960.7869
2290.0455
1758.6488
1341.5223
1016.6563
764.38705
564.15096
390.35098
261.804
197.75482
164.95286
143.77245
129.90109
119.9648
113.49718
109.11135
105.71431
103.42064
101.72606
100.47475
99.646224
99.217667
21943.153
17942.205
14640.844
11901.848
9623.2224
7731.0636
6167.329
4883.6291
3837.1947
2990.9426
2313.1285
1775.5358
1353.3895
1024.8342
769.80202
567.62404
391.44335
262.01411
198.30579
165.39649
143.984
129.95071
119.95118
113.43842
109.07462
105.68637
103.39759
101.70774
100.45741
99.631272
99.203289
21439.99
17715.981
14579.894
11927.789
9686.9008
7806.2955
6240.0843
4946.9586
3888.9853
3031.3966
2343.4487
1797.4493
1368.727
1035.3469
776.74237
572.17488
393.83478
262.81902
199.02818
165.92221
144.27649
130.0526
119.96331
113.39777
109.04644
105.66334
103.37711
101.69055
100.44068
99.616508
99.188699
103543.73
87017.769
68925.006
53574.722
41407.457
31776.614
24020.268
17917.767
13209.542
9636.3921
6952.7483
4965.9791
3515
2468.2048
1721.1119
1192.1079
817.1563
545.1612
353.3865
234.96509
177.00466
148.30808
131.43543
120.67713
113.23622
108.18174
104.84061
102.5749
101.04587
100.02167
99.486198
98181.649
82639.104
66354.443
52336.79
40869.363
31515.129
23936.26
17935.274
13285.744
9728.4733
7039.1291
5037.6158
3570.0258
2508.1905
1748.893
1210.6317
829.18285
552.80813
358.43287
237.6128
178.14281
148.90255
131.79231
120.89471
113.36248
108.25017
104.87903
102.5974
101.06001
100.03106
99.489554
92980.422
78539.21
63583.715
50716.429
39984.093
31088.969
23790.45
17936.327
13355.717
9819.1611
7126.823
5111.6818
3627.6116
2550.3972
1778.3951
1230.388
842.01551
560.94318
363.81684
240.48219
179.35226
149.50357
132.14257
121.10362
113.48406
108.33457
104.92497
102.62304
101.07541
100.04067
99.494211
88000.027
74712.484
60909.525
49080.966
39062.253
30628.852
23618.357
17925.91
13417.768
9907.1773
7215.066
5187.7925
3687.6204
2594.8166
1809.6628
1251.4373
855.69404
569.62518
369.53983
243.59246
180.71201
150.2125
132.56891
121.36604
113.63523
108.4038
104.96568
102.64762
101.09113
100.05134
99.500692
83233.011
71143.815
58337.096
47439.614
38104.415
30131.717
23416.878
17896.701
13469.779
9991.2103
7303.1049
5265.5905
3749.9334
2641.4523
1842.7504
1273.8471
870.25646
578.94283
375.59267
246.90267
182.06342
150.83765
132.92521
121.57818
113.76103
108.50483
105.02039
102.67784
101.10901
100.06255
99.504335
78597.537
67768.931
55864.593
45796.423
37109.122
29593.892
23181.968
17842.279
13509.382
10069.97
7390.221
5344.7341
3814.4384
2690.311
1877.7135
1297.6843
885.77553
588.92956
381.86316
250.57279
183.72025
151.69032
133.43226
121.88924
113.93886
108.6009
105.0745
102.70853
101.12747
100.07444
99.507409
74062.367
64497.449
53457.172
44143.115
36073.746
29013.427
22911.849
17763.723
13534.67
10142.015
7475.4374
5424.6313
3880.8369
2741.2876
1914.558
1323.0066
902.37737
599.6508
388.43114
254.39109
185.3757
152.48916
133.90038
122.17788
114.10587
108.70327
105.13213
102.74121
101.14703
100.08704
99.512321
69683.454
61298.579
51108.107
42483.463
34998.399
28386.624
22601.38
17655.332
13538.274
10204.076
7556.7543
5504.1168
3948.5289
2794.131
1953.2285
1349.8448
920.10338
611.13439
395.67616
258.47081
187.15073
153.33565
134.3925
122.47997
114.28097
108.81232
105.19382
102.77594
101.16757
100.10025
99.52171
65405.938
58130.597
48786.717
40810.857
33881.949
27712.133
22248.867
17516.205
13527.232
10255.566
7633.4821
5582.812
4017.3692
2848.8231
1993.7572
1378.223
938.98915
623.45595
403.53605
262.82188
189.0501
154.21309
134.90272
122.80046
114.46642
108.92857
105.25918
102.81281
101.18932
100.11417
99.53174
61223.082
54999.812
46490.666
39128.031
32726.838
26989.955
21852.73
17344.126
13495.325
10294.596
7704.2424
5659.8321
4086.888
2905.1669
2036.0918
1408.1576
959.07716
636.72092
411.95252
267.46464
191.08119
155.14814
135.44243
123.13234
114.65857
109.05182
105.3292
102.8521
101.21208
100.12866
99.542176
57149.798
51873.004
44199.927
37431.27
31535.256
26221.394
21412.256
17136.228
13434.986
10318.643
7767.4972
5734.2021
4156.5243
2962.8965
2080.1453
1439.6529
980.39608
650.8958
421.00161
272.43285
193.2443
156.09234
135.98417
123.48163
114.8636
109.18388
105.40296
102.89359
101.23617
100.14397
99.551052
53248.542
48741.153
41907.864
35726.428
30313.856
25410.436
20928.418
16891.498
13347.693
10322.735
7821.396
5804.833
4225.6365
3021.6834
2125.7908
1472.6924
1002.972
665.95674
430.41806
277.69783
195.55327
157.11173
136.57167
123.8424
115.07302
109.32178
105.48178
102.93802
101.26122
100.15986
99.560968
49595.716
45674.003
39649.232
34032.075
29075.414
24564.635
20404.549
16610.526
13233.279
10313.077
7865.0183
5870.6335
4293.5056
3081.134
2172.8564
1507.2347
1026.8236
681.95181
440.19129
283.29859
197.98363
158.10545
137.12564
124.20741
115.29759
109.47083
105.56439
102.98438
101.28767
100.17668
99.572605
46137.946
42700.685
37436.109
32361.448
27834.05
23694.407
19846.399
16295.63
13091.895
10285.302
7897.143
5930.5002
4359.345
3140.7843
2221.1197
1543.2094
1051.9571
698.91518
450.57865
289.27083
200.57271
159.18963
137.75109
124.59758
115.52721
109.62214
105.65194
103.03448
101.31504
100.19389
99.584793
42888.725
39878.549
35305.74
30741.063
26608.636
22813.141
19262.087
15950.51
12923.347
10233.966
7916.171
5983.2819
4422.3126
3200.1056
2270.3026
1580.5137
1078.3577
716.85066
461.60924
295.60285
203.26984
160.22626
138.30479
124.95384
115.76679
109.78725
105.74391
103.08571
101.34368
100.21205
99.597508
39882.037
37258.428
33298.6
29201.8
25424.547
21938.281
18662.278
15580.604
12729.508
10161.747
7917.9873
6027.4564
4481.4326
3258.4978
2320.093
1619.0154
1106.0025
735.73877
473.43921
302.37341
206.17723
161.34274
138.92178
125.3711
116.0255
109.94956
105.8397
103.14183
101.3733
100.23046
99.610703
37129.802
34875.515
31458.265
27776.419
24305.814
21088.381
18059.334
15192.848
12513.587
10070.368
7909.6201
6062.6576
4535.8121
3315.283
2370.0985
1658.5489
1134.8823
755.60778
486.10743
309.41676
209.14146
162.42291
139.50282
125.70327
116.26587
110.12576
105.942
103.19755
101.40371
100.24976
99.624122
34637.716
32732.431
29793.416
26481.005
23272.093
20280.299
17465.498
14794.794
12279.475
9960.9669
7886.6132
6088.0218
4584.5486
3369.7269
2419.8531
1698.8989
1164.9736
776.61798
499.85943
317.34313
212.43642
163.57324
140.00439
126.11349
116.56269
110.29797
106.04516
103.25929
101.4355
100.26922
99.637487
32396.072
30803.873
28286.833
25312.351
22332.026
19525.944
16890.964
14393.284
12030.642
9833.7463
7845.658
6101.898
4626.5718
3421.0068
2468.8121
1739.7631
1196.0937
798.76294
514.57117
325.65411
215.72582
164.66464
140.67367
126.46412
116.78672
110.47516
106.15855
103.31868
101.46704
100.2892
99.650647
30363.048
29041.718
26899.516
24244.618
21476.887
18827.945
16341.572
13993.219
11769.757
9689.3986
7788.1734
6101.0419
4660.2966
3468.1561
2516.3336
1780.7475
1228.0242
821.83362
530.09146
334.17529
219.52647
165.91127
140.9952
126.77378
117.1024
110.66022
106.26731
103.38425
101.50074
100.30936
99.663477
28485.061
27388.706
25574.67
23229.267
20677.08
18174.623
15815.466
13595.77
11497.966
9528.5246
7715.1259
6091.4873
4685.5069
3510.2381
2561.7144
1821.4318
1260.5489
845.77486
546.44976
343.44618
223.31551
167.03057
141.64882
127.21523
117.32722
110.82598
106.38946
103.44626
101.53258
100.32929
99.675795
26719.437
25793.725
24253.978
22202.008
19879.581
17534.321
15298.237
13195.68
11213.528
9350.2816
7625.0011
6066.9205
4700.612
3546.1354
2604.1485
1861.3229
1293.411
870.47929
563.58954
353.35716
227.66268
168.23354
142.08038
127.39869
117.58574
111.02701
106.49963
103.51289
101.5676
100.34985
99.687278
25003.298
24212.336
22895.432
21110.126
19029.717
16866.559
14766.704
12781.96
10911.568
9151.8556
7514.6745
6022.9769
4700.6365
3574.0699
2642.6608
1899.8247
1326.3027
895.80876
581.42913
363.5715
232.74241
169.94578
142.33055
127.80137
117.88032
111.17507
106.62054
103.57698
101.599
100.36856
99.697647
23253.986
22570.195
21449.443
19913.252
18083.537
16129.29
14190.75
12337.4
10583.592
8929.2292
7382.5997
5962.3573
4692.4722
3594.1857
2676.5445
1936.3634
1358.8965
921.63069
599.98563
374.50416
237.59267
171.51667
143.09437
128.05008
118.02633
111.37475
106.72715
103.64196
101.63389
100.38829
99.706551
21446.758
20843.317
19889.896
18589.638
17016.106
15294.947
13546.718
11846.279
10221.06
8678.3304
7226.8117
5882.9252
4669.5036
3604.1304
2704.7863
1970.3253
1390.8251
947.80528
619.31684
386.66263
242.99811
173.08407
143.37937
128.17427
118.36655
111.51903
106.83073
103.70689
101.66361
100.40394
99.713734
19581.738
19053.831
18249.565
17164.327
15841.573
14365.263
12828.942
11302.017
9819.6048
8396.9839
7046.0273
5782.7405
4628.2809
3602.7086
2726.5298
2001.1405
1421.7442
974.12578
639.31309
399.74997
249.09239
174.38254
144.03118
128.62528
118.50897
111.64855
106.93353
103.76511
101.696
100.42036
99.718752
17718.262
17264.459
16598.521
15709.36
14619.44
13381.054
12060.64
10716.296
9385.2407
8088.7759
6842.6509
5663.9328
4573.7118
3594.2162
2742.1802
2028.5051
1451.3411
1000.3813
659.81564
413.54122
255.68326
176.33145
144.83628
128.78435
118.71474
111.81464
107.00925
103.82546
101.72155
100.4314
99.721344
15948.977
15566.496
15023.601
14305.777
13420.827
12397.749
11280.329
10113.605
8933.025
7763.157
6622.6797
5530.0019
4506.2616
3573.9549
2751.2289
2052.2069
1479.3724
1026.3971
680.7372
428.09213
263.01481
179.06419
145.12093
129.06308
118.96906
111.85573
107.09318
103.86958
101.7494
100.44128
99.720969
14360.878
14041.818
13601.098
13023.294
12307.149
11466.404
10527.654
9523.0586
8483.3931
7433.975
6395.3244
5386.7939
4429.3328
3545.0922
2754.042
2072.3427
1505.7527
1052.0343
701.94632
443.20067
270.50125
181.85568
145.6681
129.42367
119.02068
111.9448
107.14353
103.91021
101.76859
100.44534
99.71738
13013.238
12746.028
12385.012
11914.858
11329.187
10632.741
9840.2187
8974.0008
8058.6398
7117.557
6172.0615
5242.0204
4347.9153
3511.281
2752.8013
2089.4734
1530.5833
1077.2392
723.37866
458.87285
278.66679
184.82216
146.89726
129.52449
119.17321
111.99365
107.18595
103.94235
101.78597
100.44427
99.709939
11933.335
11703.413
11399.269
11008.162
10520.932
9934.8329
9255.8796
8498.75
7684.0096
6833.2648
5967.119
5105.5561
4268.4265
3476.2103
2749.2189
2104.5281
1554.1691
1102.0419
744.98559
475.06915
287.66633
187.93243
148.02944
129.822
119.29959
111.96069
107.19663
103.94362
101.7915
100.44015
99.698489
11121.793
10920.715
10656.79
10319.813
9900.2872
9392.4964
8797.1081
8122.3993
7383.7878
6601.4951
5796.6197
4989.2355
4198.8297
3444.7172
2745.925
2118.8193
1577.0116
1126.5563
766.75473
491.77837
297.41453
191.52786
149.13887
130.28916
119.25711
111.96622
107.19352
103.93956
101.78983
100.43021
99.682419
10513.225
10339.67
10109.887
9815.0713
9445.7549
8994.9347
8460.3677
7846.3371
7164.4129
6432.3565
5671.363
4902.8395
4146.7178
3421.7187
2745.9579
2133.7226
1599.7613
1151.0416
788.77976
509.04239
308.00341
195.42574
150.43535
130.41783
119.20196
111.95696
107.16999
103.91908
101.78087
100.41345
99.661832
10003.099
9862.0927
9670.5713
9419.1398
9097.4608
8697.3853
8214.5121
7650.2211
7013.2888
6319.7352
5590.7259
4849.0564
4116.1155
3410.903
2750.0571
2150.5904
1623.0471
1175.7002
811.12981
526.90951
319.55381
199.89086
151.5891
130.40012
119.15545
111.82363
107.09918
103.88161
101.76785
100.39119
99.636215
9493.7757
9386.7333
9236.3286
9032.7028
8764.2727
8420.3098
7993.3992
7481.9618
6891.861
6236.8041
5537.2621
4817.3799
4101.1053
3409.5361
2761.1603
2169.8157
1646.8491
1200.3848
833.67017
545.25702
331.95723
204.5497
152.27238
130.32538
118.9821
111.69068
107.06337
103.83321
101.73168
100.35471
99.605719
8936.2797
8859.3126
8745.7367
8585.8527
8368.647
8082.8852
7718.7749
7270.4324
6738.7477
6133.5525
5473.2199
4781.6405
4084.5907
3406.8365
2770.8968
2188.2165
1670.0727
1224.7264
856.14589
563.75101
344.69472
209.16802
152.55054
130.1268
118.67861
111.61669
106.93772
103.74654
101.69836
100.32926
99.570095
8322.8301
8268.7253
8184.9295
8061.7778
7888.7627
7654.9252
7350.0749
6966.6525
6502.1216
5961.0597
5356.6848
4710.6685
4048.1773
3393.9201
2770.9978
2201.3511
1690.2384
1247.4989
877.88065
581.97284
357.32999
213.39449
152.67668
129.85594
118.46921
111.50469
106.83118
103.71619
101.64891
100.27685
99.529238
7679.2145
7636.4563
7570.2961
7472.2828
7333.1837
7142.8521
6891.1362
6569.4488
6172.8925
5702.4867
5166.8392
4582.183
3970.7484
3357.2659
2760.7481
2203.7075
1704.7195
1267.5429
898.61618
600.06631
370.31195
218.05726
152.89219
129.75016
118.38009
111.43644
106.78526
103.65157
101.57798
100.24755
99.483644
7063.2422
7021.4796
6961.0579
6875.2142
6756.4828
6596.3416
6385.7669
6116.3379
5781.8868
5380.4752
4916.2482
4400.0052
3848.97
3284.7023
2729.0651
2198.2667
1713.3229
1284.2989
918.29776
618.55362
384.75006
224.65687
153.56082
129.82889
118.39013
111.42581
106.74641
103.60446
101.54297
100.19516
99.43263
6533.2296
6487.7554
6426.4404
6344.2326
6235.309
6092.8873
5909.5358
5677.8602
5391.6155
5047.2498
4645.4501
4192.7555
3701.9034
3189.917
2676.0935
2179.4244
1713.9138
1297.2459
936.75734
637.58932
401.07444
233.90273
155.55949
130.50628
118.61069
111.47917
106.74232