/*--------------------------------*- C++ -*----------------------------------*\
| =========                 |                                                 |
| \\      /  F ield         | OpenFOAM: The Open Source CFD Toolbox           |
|  \\    /   O peration     | Version:  2406                                  |
|   \\  /    A nd           | Website:  www.openfoam.com                      |
|    \\/     M anipulation  |                                                 |
\*---------------------------------------------------------------------------*/
FoamFile
{
    version     2.0;
    format      ascii;
    arch        "LSB;label=32;scalar=64";
    class       volScalarField;
    location    "0.099";
    object      p;
}
// * * * * * * * * * * * * * * * * * * * * * * * * * * * * * * * * * * * * * //

dimensions      [1 -1 -2 0 0 0 0];

internalField   nonuniform List<scalar> 
8260
(
101073.37
100994.98
100949.81
100894.92
100844.86
100808.77
100788.81
100784.76
100795.7
100819.54
100856.42
100904.21
100959.75
101020.37
101081.18
101145.56
101185.12
101216
101241.56
101262.91
101281.69
101298.04
101312.39
101324.85
101335.57
101344.73
101352.44
101358.59
101363.68
101366.89
101369.45
101229.73
101160.83
101093.71
101021.94
100959.34
100911.46
100879.53
100864.17
100863.79
100877.22
100904.52
100944.01
100992.12
101046.96
101100
101158.43
101193.33
101224.1
101247.97
101267.95
101285.69
101301.23
101314.93
101326.89
101337.21
101346.06
101353.54
101359.51
101364.46
101367.58
101370.08
101335.32
101272.3
101198.7
101120.34
101051.4
100996.21
100955.93
100932.11
100923.54
100927.54
100947.02
100979.58
101021.83
101072.64
101120.21
101173.98
101203.89
101233.88
101255.48
101273.82
101290.34
101304.93
101317.88
101329.25
101339.1
101347.59
101354.79
101360.56
101365.36
101368.37
101370.81
101422.13
101362.97
101289.82
101209.78
101137.2
101076.67
101029.64
100997.76
100981.03
100977.78
100990.04
101015.98
101052.78
101099.71
101142.54
101191.07
101216.86
101244.92
101264.02
101280.51
101295.65
101309.16
101321.25
101331.95
101341.27
101349.34
101356.23
101361.75
101366.38
101369.28
101371.64
101497.14
101442.01
101372.32
101293.92
101220.5
101156.99
101105.13
101066.69
101042.63
101032.65
101037.83
101057.05
101088.19
101130.46
101168.14
101209.73
101232.55
101257.3
101273.72
101288.13
101301.69
101313.98
101325.08
101335.03
101343.74
101351.34
101357.86
101363.12
101367.55
101370.3
101372.58
101559.14
101507.87
101443.54
101369.84
101298.69
101235.01
101180.79
101137.99
101108.2
101092.13
101090.67
101103.3
101128.75
101165.54
101197.37
101230.23
101251.15
101271.16
101284.72
101296.79
101308.54
101319.47
101329.45
101338.53
101346.55
101353.6
101359.71
101364.67
101368.87
101371.47
101373.65
101607.92
101560.61
101502.37
101435.82
101369.82
101308.73
101254.72
101209.93
101176.35
101155.38
101148.12
101154.66
101174.69
101205.16
101230.17
101253.34
101272.35
101286.73
101297.14
101306.64
101316.32
101325.7
101334.42
101342.52
101349.75
101356.19
101361.82
101366.44
101370.37
101372.8
101374.86
101644.87
101602.19
101551.31
101493.06
101433.91
101377.55
101326.06
101281.58
101246.25
101221.92
101210
101211.25
101226.37
101249.25
101266.21
101280.61
101295.65
101304.18
101311.14
101317.8
101325.15
101332.77
101340.06
101347.04
101353.39
101359.13
101364.21
101368.45
101372.07
101374.32
101376.25
101674.47
101635.48
101591.97
101542.7
101491.69
101441.76
101394.73
101352.59
101317.49
101291.44
101276.18
101273.18
101283.88
101297.25
101305.54
101312.98
101320.64
101323.61
101326.79
101330.37
101335.16
101340.77
101346.46
101352.17
101357.54
101362.47
101366.94
101370.73
101374.01
101376.06
101377.82
101698.63
101665.86
101628.21
101587.41
101545.28
101502.88
101461.64
101423.38
101390.12
101363.87
101346.62
101340.38
101346.26
101349.72
101348.99
101348.82
101347.32
101345.1
101344.12
101344.44
101346.48
101349.85
101353.73
101357.98
101362.25
101366.29
101370.05
101373.34
101376.22
101378.04
101379.61
101717.96
101698.2
101670.15
101637.23
101601.47
101565.1
101529.31
101495.37
101464.88
101439.7
101421.92
101413.33
101413.17
101406.66
101395.76
101385.48
101376.12
101368.56
101363.1
101360.03
101359.16
101360.12
101362
101364.56
101367.6
101370.63
101373.61
101376.32
101378.73
101380.3
101381.66
101745.86
101732.43
101713.18
101687.17
101658.33
101628.7
101599.07
101570.23
101543.45
101520.56
101503.67
101492.63
101482.1
101464.25
101442.12
101422.44
101406.46
101393.55
101383.87
101377.13
101373.19
101371.64
101371.33
101372.05
101373.65
101375.56
101377.67
101379.72
101381.59
101382.88
101383.99
101788.5
101787.31
101775.62
101753.3
101728.26
101703.17
101678.35
101653.84
101630.14
101608.37
101588.93
101569.49
101544.98
101515.14
101485.3
101459.1
101437.42
101420
101406.24
101395.78
101388.56
101384.26
101381.73
101380.54
101380.47
101381.13
101382.27
101383.58
101384.83
101385.79
101386.64
101864.59
101851.3
101833.42
101811.45
101789.42
101769.74
101751.26
101731.47
101709.19
101684.5
101657.1
101626.37
101592.6
101557.66
101524.2
101494.25
101468.59
101447.14
101429.79
101415.83
101405.19
101397.99
101393.15
101389.96
101388.16
101387.4
101387.46
101387.95
101388.51
101389.06
101389.64
101895.22
101895.53
101892.65
101886.6
101872.58
101849.09
101822.55
101795.22
101765.49
101733.28
101699.37
101663.98
101627.96
101592.22
101558.37
101527.08
101498.84
101474.24
101453.76
101436.87
101423.08
101412.77
101405.47
101400.31
101396.71
101394.44
101393.26
101392.84
101392.67
101392.71
101393.01
101896.94
101888.26
101876.02
101861.05
101848.17
101838.19
101827.68
101815.55
101795.88
101766.6
101731.8
101694.68
101657.61
101621.43
101587.64
101556.22
101527.12
101500.5
101477.5
101458.22
101441.88
101428.67
101418.7
101411.46
101406.12
101402.27
101399.72
101398.28
101397.33
101396.77
101396.79
101888.61
101880.95
101871.43
101860.37
101848.54
101835.45
101819.02
101798.83
101779.96
101764.81
101745.08
101717.55
101684.07
101648.17
101613.78
101581.61
101552.27
101525.12
101500.38
101479.14
101460.98
101445.49
101432.91
101423.4
101416.31
101410.89
101406.88
101404.27
101402.52
101401.29
101400.99
101860.25
101854.24
101847.01
101838.73
101829.25
101818.28
101805.59
101791.07
101774.9
101756.32
101737.8
101721.49
101699.58
101670.32
101638.41
101605.38
101574.55
101547.1
101521.8
101499.12
101479.59
101462.64
101447.98
101436.15
101427.18
101420.21
101414.77
101410.87
101408.22
101406.32
101405.68
101834.25
101829.39
101823.52
101816.82
101809.17
101800.36
101790.24
101778.67
101765.57
101750.94
101734.01
101713.64
101692.57
101676.11
101656
101627.43
101596.2
101566.99
101541.13
101517.72
101497.18
101479.28
101463.37
101449.64
101438.67
101430.13
101423.35
101418.09
101414.47
101411.91
101410.88
101804.25
101800.44
101795.84
101790.61
101784.63
101777.76
101769.85
101760.77
101750.35
101738.41
101724.94
101710.12
101694.99
101676.61
101656.96
101639.61
101614.44
101586.07
101558.92
101534.62
101513.5
101494.91
101478.3
101463.45
101450.73
101440.52
101432.52
101425.98
101421.31
101418.11
101416.65
101777.38
101774.39
101770.77
101766.66
101761.97
101756.57
101750.35
101743.2
101734.96
101725.51
101714.64
101702.29
101688.46
101673.57
101656.27
101638.59
101623.3
101601.26
101575.59
101550.53
101528.76
101509.56
101492.3
101476.96
101463.19
101451.37
101442.16
101434.53
101428.79
101424.94
101423.03
101748.57
101746.25
101743.46
101740.29
101736.68
101732.51
101727.72
101722.19
101715.83
101708.52
101700.19
101690.73
101679.89
101667.45
101653.87
101638.33
101621.8
101607.69
101587.85
101565.04
101543.79
101523.63
101505.54
101489.72
101475.61
101462.68
101452.19
101443.69
101436.94
101432.41
101430.07
101722.68
101720.89
101718.72
101716.28
101713.48
101710.25
101706.52
101702.21
101697.22
101691.46
101684.8
101677.09
101668.31
101658.27
101646.74
101634.27
101620.9
101606.9
101592.65
101574.87
101556.4
101536.62
101518.18
101501.74
101487.52
101474.22
101462.59
101453.31
101445.72
101440.51
101437.76
101696.44
101695.09
101693.47
101691.64
101689.55
101687.13
101684.34
101681.1
101677.36
101673.04
101668.07
101662.34
101655.73
101648.14
101639.53
101629.39
101618.42
101606.04
101592.23
101579.31
101563.22
101546.49
101529.6
101513.11
101498.71
101485.56
101473.22
101463.19
101455.01
101449.16
101446.06
101673.59
101672.57
101671.35
101669.97
101668.39
101666.57
101664.45
101662
101659.16
101655.85
101651.98
101647.48
101642.27
101636.25
101629.3
101621.61
101612.68
101602.97
101594.22
101582.99
101568.06
101552.85
101538.16
101523.32
101508.94
101496.09
101483.73
101473.17
101464.63
101458.29
101454.89
101651.51
101650.78
101649.91
101648.92
101647.77
101646.44
101644.89
101643.09
101640.99
101638.56
101635.74
101632.48
101628.74
101624.42
101619.4
101613.45
101606.7
101598.97
101589.92
101581.71
101573.17
101559.94
101545.26
101531.58
101518.06
101505.5
101493.77
101483.11
101474.39
101467.79
101464.15
101633.38
101632.83
101632.17
101631.43
101630.6
101629.63
101628.52
101627.24
101625.74
101624
101621.97
101619.56
101616.71
101613.35
101609.44
101604.97
101599.79
101593.9
101587.21
101578.77
101570.75
101563.93
101551.87
101538.6
101526.23
101514.2
101503.22
101492.95
101484.18
101477.51
101473.68
101617.05
101616.66
101616.21
101615.69
101615.09
101614.39
101613.58
101612.64
101611.54
101610.25
101608.74
101606.98
101604.92
101602.56
101599.8
101596.54
101592.67
101588.09
101582.82
101576.96
101569.44
101561.96
101555.24
101544.36
101533.32
101522.43
101512.16
101502.48
101493.85
101487.17
101483.21
101605.13
101604.83
101604.49
101604.1
101603.65
101603.13
101602.53
101601.82
101600.99
101600.03
101598.89
101597.55
101595.95
101594.04
101591.77
101589.05
101585.83
101582.16
101577.93
101572.82
101567.48
101561.03
101553.7
101547.17
101538.55
101529.43
101520.09
101510.99
101502.83
101496.32
101492.39
101594.32
101594.04
101593.73
101593.37
101592.96
101592.48
101591.92
101591.28
101590.52
101589.65
101588.63
101587.44
101586.07
101584.5
101582.7
101580.68
101578.4
101575.71
101572.53
101568.95
101564.37
101558.69
101553.33
101548.11
101541.67
101534.19
101526.14
101518.03
101510.59
101504.49
101500.76
101582.16
101582.03
101581.88
101581.72
101581.52
101581.3
101581.04
101580.73
101580.37
101579.94
101579.42
101578.8
101578.05
101577.12
101575.97
101574.56
101572.84
101570.74
101568.21
101565.21
101561.82
101558.18
101554.16
101549
101542.79
101536.13
101529.06
101521.99
101515.25
101509.56
101506.04
100471.09
100457.46
100448.55
100439.88
100430.3
100424.29
100428.3
100443.87
100467.76
100503.98
100551.5
100608.58
100673.59
100744.04
100817.39
100896.98
100966.04
101038.93
101084.05
101130.67
101172.07
101207.06
101237.12
101262.47
101283.84
101301.49
101315.92
101327.24
101336.04
101341.77
101345.8
100482.88
100467.73
100447.84
100431.45
100419.48
100415.72
100424.17
100445.26
100476.46
100518.26
100569.53
100628.87
100694.79
100764.53
100836.35
100912.79
100980.58
101047
101087.28
101136.5
101177
101211.17
101240.48
101265.21
101286.08
101303.32
101317.44
101328.52
101337.15
101342.78
101346.77
100445.49
100420.79
100397.49
100384
100380.34
100386.53
100404.46
100434.49
100473
100520.86
100576.9
100639.67
100707.69
100778.11
100850.24
100924.56
100993.66
101054.56
101093.07
101142.92
101182.14
101215.39
101243.9
101267.99
101288.34
101305.17
101318.98
101329.81
101338.27
101343.79
101347.74
100384.97
100363.86
100347.54
100341.71
100345.89
100360.35
100386.22
100423.01
100468.04
100521.46
100581.86
100647.79
100717.84
100789.2
100862.73
100935.15
101005.2
101061.99
101100.22
101149.32
101187.23
101219.59
101247.33
101270.78
101290.62
101307.04
101320.52
101331.11
101339.4
101344.81
101348.69
100306.28
100292.97
100286.22
100291
100306.29
100331.68
100367.25
100411.97
100464.05
100523.05
100587.6
100656.43
100728.27
100800.49
100875.56
100946.86
101016
101068.95
101107.71
101155.64
101192.3
101223.77
101250.75
101273.57
101292.9
101308.91
101322.08
101332.42
101340.54
101345.84
101349.62
100212.24
100211.34
100218.63
100237.6
100266.27
100303.65
100349.35
100402.39
100461.45
100525.81
100594.27
100665.76
100739.14
100812.08
100888.56
100959.35
101025.44
101075.09
101115.33
101161.84
101197.33
101227.93
101254.15
101276.36
101295.18
101310.8
101323.65
101333.75
101341.69
101346.87
101350.57
100104.63
100122.33
100148.06
100183.69
100226.98
100276.85
100332.89
100394.32
100460.11
100529.51
100601.58
100675.49
100750.16
100823.64
100901.03
100971.39
101034.81
101081.06
101123.04
101167.94
101202.32
101232.05
101257.54
101279.14
101297.46
101312.68
101325.22
101335.08
101342.85
101347.91
101351.53
99994.846
100034.17
100079.66
100132.38
100190.34
100252.51
100318.63
100388.12
100460.18
100534.2
100609.52
100685.56
100761.24
100835.27
100912.87
100982.75
101044.89
101087.39
101130.78
101173.93
101207.26
101236.14
101260.91
101281.92
101299.74
101314.57
101326.8
101336.42
101344.01
101348.96
101352.51
99892.276
99952.648
100016.62
100085.79
100157.89
100231.67
100307.22
100384.14
100461.85
100539.97
100618.11
100695.95
100772.46
100847.87
100924.86
100993.35
101054.53
101094.46
101138.46
101179.83
101212.17
101240.2
101264.26
101284.68
101302.02
101316.46
101328.38
101337.76
101345.18
101350.01
101353.49
99800.787
99881.331
99961.548
100046.15
100131.34
100215.31
100299.18
100382.64
100465.24
100546.85
100627.37
100706.69
100784
100861.03
100936.71
101003.76
101063.3
101102.12
101146.01
101185.64
101217.02
101244.22
101267.59
101287.42
101304.29
101318.34
101329.96
101339.1
101346.36
101351.06
101354.48
99724.096
99821.492
99918.469
100016.23
100112.02
100204.19
100295.09
100383.9
100470.46
100554.89
100637.32
100717.92
100796.41
100874.4
100947.65
101014.02
101071.45
101110.11
101153.41
101191.37
101221.83
101248.21
101270.89
101290.15
101306.54
101320.23
101331.54
101340.45
101347.54
101352.13
101355.47
99669.812
99780.741
99889.574
99996.172
100099.36
100199.13
100295.68
100388.3
100477.7
100564.21
100648.16
100729.98
100809.71
100885.75
100957.49
101024.36
101079.32
101118.25
101160.66
101197.03
101226.58
101252.15
101274.16
101292.86
101308.79
101322.1
101333.12
101341.8
101348.72
101353.19
101356.46
99642.142
99761.084
99876.276
99988.131
100096.21
100200.24
100300.55
100396.47
100487.63
100575.48
100660.47
100743.09
100820.99
100895.02
100967.92
101033.89
101087.16
101126.45
101167.75
101202.61
101231.27
101256.04
101277.39
101295.55
101311.02
101323.97
101334.69
101343.15
101349.91
101354.26
101357.46
99641.673
99763.742
99880.048
99993.023
100102.73
100208.55
100310.94
100408.96
100501.46
100589.57
100674.1
100754.14
100830.79
100905.21
100977.83
101042.69
101095.23
101134.66
101174.69
101208.12
101235.9
101259.89
101280.59
101298.21
101313.23
101325.82
101336.26
101344.5
101351.09
101355.33
101358.46
99657.283
99782.672
99898.923
100010.85
100119.74
100225.35
100327.89
100424.88
100516.65
100602.76
100683.71
100763.2
100842.08
100915.58
100987.3
101052.04
101103.57
101142.88
101181.48
101213.56
101240.46
101263.69
101283.75
101300.84
101315.42
101327.66
101337.82
101345.84
101352.28
101356.4
101359.47
99677.115
99804.256
99922.524
100035.11
100143
100246.49
100346.28
100438.43
100525.57
100611.24
100695.48
100775.81
100853.87
100925.86
100996.7
101061.72
101112.04
101151.06
101188.09
101218.91
101244.95
101267.43
101286.87
101303.44
101317.59
101329.49
101339.37
101347.18
101353.46
101357.47
101360.48
99750.224
99857.398
99960.563
100063.83
100165.99
100264.56
100357.37
100449.36
100541.37
100627.01
100709.84
100789.24
100865.82
100936.09
101006.04
101071.25
101120.54
101159.14
101194.54
101224.17
101249.37
101271.11
101289.94
101306.01
101319.74
101331.3
101340.91
101348.51
101354.64
101358.55
101361.49
99887.594
99971.594
100050.04
100131.98
100217.71
100304.34
100389.14
100475.94
100563.34
100645.41
100725.33
100802.93
100877.89
100946.33
101015.3
101080.65
101128.99
101167.07
101200.84
101229.34
101253.72
101274.73
101292.96
101308.54
101321.85
101333.09
101342.44
101349.83
101355.82
101359.62
101362.5
100022.16
100091.33
100151.69
100215.37
100284.41
100356.81
100430.22
100507.99
100588.71
100665.52
100741.71
100816.99
100890.1
100956.67
101024.44
101090
101137.35
101174.84
101207.02
101234.43
101257.99
101278.3
101295.93
101311.03
101323.94
101334.85
101343.94
101351.15
101356.99
101360.69
101363.51
100173.56
100223.41
100263.16
100307.5
100358.99
100415.69
100476.12
100543.74
100616.65
100687.4
100759
100831.36
100902.34
100967.11
101033.5
101099.33
101145.57
101182.42
101213.08
101239.41
101262.16
101281.78
101298.84
101313.47
101325.99
101336.59
101345.43
101352.45
101358.15
101361.76
101364.52
100344.38
100371.19
100387.4
100409.75
100441.27
100480.35
100527.41
100583.57
100646.85
100711.01
100777.2
100845.96
100914.51
100977.62
101042.46
101108.42
101153.57
101189.68
101218.96
101244.23
101266.2
101285.16
101301.66
101315.84
101327.99
101338.29
101346.9
101353.73
101359.3
101362.83
101365.54
100534.76
100534.53
100525.16
100523.15
100531.83
100553.48
100586.97
100628.66
100680.21
100737.24
100797.21
100861.48
100927.07
100988.47
101051.39
101116.85
101161.1
101196.31
101224.54
101248.86
101270.08
101288.41
101304.39
101318.15
101329.94
101339.96
101348.35
101355.01
101360.45
101363.9
101366.56
100751.94
100724.47
100690.61
100661.87
100646.66
100647.09
100660.47
100685.88
100723.15
100770.21
100822.24
100880.46
100941.84
101000.78
101060.81
101124.48
101167.81
101202.06
101229.83
101253.33
101273.85
101291.58
101307.06
101320.41
101331.87
101341.61
101349.78
101356.28
101361.6
101364.97
101367.59
100978.85
100939.1
100896.31
100846.44
100802.89
100773.98
100761.22
100764.78
100783.61
100814.59
100855.45
100905.29
100960.61
101016.11
101072.1
101132.72
101174.3
101207.79
101235.33
101258
101277.74
101294.84
101309.79
101322.72
101333.82
101343.28
101351.23
101357.55
101362.75
101366.04
101368.64
100509.78
100504.24
100494.72
100485.28
100477.14
100472.3
100474.2
100485.17
100504.08
100534.96
100576.94
100628.68
100688.6
100754.39
100822.78
100896.67
100960.79
101028.34
101078.37
101124.76
101167.65
101203.47
101234.2
101260.1
101281.91
101299.91
101314.62
101326.15
101335.1
101340.94
101344.97
100518.06
100516.5
100508.12
100498.48
100490.32
100486.34
100488.46
100495.97
100512.95
100541.51
100581
100630.41
100688.31
100752.65
100820.26
100893.34
100959.47
101024.56
101077.01
101122.27
101165.31
101201.35
101232.36
101258.54
101280.59
101298.79
101313.68
101325.34
101334.39
101340.31
101344.32
100513.93
100512.3
100506.73
100501.55
100497.1
100495.36
100498.56
100506.59
100523.36
100550.47
100587.93
100635.12
100690.87
100753.4
100819.84
100891.42
100958.61
101022.83
101075.35
101120.13
101163.34
101199.52
101230.72
101257.1
101279.34
101297.71
101312.74
101324.52
101333.66
101339.64
101343.39
100509.88
100509.01
100506.85
100505.21
100504.18
100505.04
100509.75
100519.13
100535.99
100561.87
100597.37
100642.25
100695.63
100755.99
100820.77
100890.14
100957.22
101021.13
101073.27
101117.65
101161.15
101197.53
101228.95
101255.55
101277.99
101296.54
101311.72
101323.64
101332.87
101338.93
101342.41
100507.82
100509.08
100509.71
100510.44
100511.75
100514.79
100521.09
100531.72
100548.76
100573.7
100607.49
100650.21
100701.24
100759.33
100822.24
100889.08
100955.58
101019.02
101070.92
101114.93
101158.71
101195.32
101227
101253.84
101276.51
101295.27
101310.62
101322.68
101332.02
101338.16
101341.6
100506.13
100509.29
100512.12
100515.01
100518.52
100523.65
100531.63
100543.5
100560.91
100585.27
100617.66
100658.43
100707.24
100763.07
100824.04
100888.23
100953.92
101016.97
101068.45
101112.13
101156.16
101192.98
101224.91
101252.01
101274.92
101293.89
101309.43
101321.65
101331.1
101337.33
101340.89
100503.9
100508.55
100513.32
100518.47
100524.31
100531.62
100541.39
100554.6
100572.58
100596.64
100627.92
100666.95
100713.65
100767.27
100826.22
100887.85
100952.78
101015.15
101066.26
101109.25
101153.57
101190.57
101222.75
101250.1
101273.25
101292.44
101308.17
101320.56
101330.13
101336.45
101340.05
100501.54
100507.26
100514.17
100521.56
100529.69
100539.15
100550.75
100565.34
100584.03
100608.01
100638.4
100675.88
100720.59
100772.01
100828.89
100888.35
100952.11
101013.22
101064.6
101106.42
101150.96
101188.11
101220.52
101248.11
101271.5
101290.92
101306.85
101319.4
101329.1
101335.52
101338.92
100499.77
100507.61
100515.97
100525.17
100535.32
100546.78
100560.14
100576.08
100595.53
100619.55
100649.21
100685.29
100728.11
100777.38
100832.14
100889.76
100951.45
101011.05
101063.12
101103.77
101148.35
101185.62
101218.23
101246.06
101269.67
101289.32
101305.45
101318.17
101328
101334.53
101337.85
100499.62
100509.01
100518.99
100529.87
100541.82
100555.07
100569.99
100587.17
100607.34
100631.44
100660.48
100695.26
100736.28
100783.42
100836.03
100891.84
100951.13
101009.17
101061.49
101101.29
101145.76
101183.09
101215.88
101243.92
101267.77
101287.64
101303.97
101316.87
101326.83
101333.47
101336.73
100501.72
100512.42
100523.91
100536.34
100549.87
100564.61
100580.84
100599.02
100619.78
100643.91
100672.34
100705.89
100745.15
100790.19
100840.59
100894.49
100951.71
101007.97
101059.72
101099.05
101143.2
101180.53
101213.48
101241.72
101265.78
101285.88
101302.41
101315.5
101325.6
101332.35
101335.68
100507.76
100519.19
100531.83
100545.52
100560.23
100576.07
100593.25
100612.13
100633.21
100657.23
100684.98
100717.29
100754.81
100797.75
100845.89
100897.75
100952.97
101007.49
101058.18
101097.16
101140.7
101177.98
101211.04
101239.45
101263.72
101284.03
101300.77
101314.05
101324.29
101331.16
101334.6
100519.04
100530.47
100544.11
100558.54
100573.86
100590.25
100607.87
100627.02
100648.03
100671.68
100698.61
100729.6
100765.34
100806.16
100851.99
100901.7
100954.8
101007.12
101056.75
101095.83
101138.31
101175.47
101208.57
101237.12
101261.58
101282.1
101299.05
101312.52
101322.91
101329.9
101333.43
100536.34
100548.95
100562.4
100576.51
100591.63
100607.86
100625.27
100644.1
100664.69
100687.59
100713.44
100742.98
100776.86
100815.51
100858.96
100906.4
100957.21
101007.29
101055.43
101094.81
101136.04
101173.01
101206.11
101234.76
101259.38
101280.1
101297.25
101310.9
101321.44
101328.56
101332.18
100560.12
100572.46
100585.61
100599.25
100613.73
100629.22
100645.83
100663.78
100683.41
100705.19
100729.68
100757.57
100789.47
100825.86
100866.85
100911.9
100960.3
101008.14
101054.58
101094.1
101133.95
101170.65
101203.67
101232.36
101257.12
101278.02
101295.36
101309.21
101319.9
101327.14
101330.85
100590.01
100601.37
100613.96
100626.77
100640.14
100654.37
100669.65
100686.22
100704.41
100724.65
100747.48
100773.48
100803.26
100837.29
100875.73
100918.24
100963.98
101009.46
101054.34
101093.8
101132.06
101168.42
101201.27
101229.94
101254.82
101275.87
101293.4
101307.43
101318.27
101325.64
101329.42
100626.06
100636.3
100647.63
100658.95
100670.66
100683.14
100696.61
100711.35
100727.68
100746.04
100766.89
100790.79
100818.29
100849.85
100885.66
100925.46
100968.14
101011.1
101054.96
101094.03
101130.44
101166.38
101198.94
101227.54
101252.49
101273.66
101291.36
101305.57
101316.56
101324.06
101327.91
100665.63
100674.72
100684.66
100694.38
100704.28
100714.78
100726.19
100738.81
100753.01
100769.21
100787.87
100809.5
100834.6
100863.59
100896.68
100933.64
100973.09
101013.95
101057.22
101094.74
101129.12
101164.58
101196.73
101225.16
101250.14
101271.41
101289.24
101303.63
101314.76
101322.39
101326.32
100707.12
100714.77
100723.24
100731.41
100739.58
100748.15
100757.48
100767.95
100779.95
100793.89
100810.26
100829.52
100852.14
100878.51
100908.83
100942.94
100979.65
101018.62
101060.33
101095.74
101128.27
101163.07
101194.64
101222.84
101247.8
101269.11
101287.07
101301.6
101312.88
101320.64
101324.65
100748.67
100754.9
100761.95
100768.67
100775.25
100782.07
100789.52
100797.99
100807.89
100819.67
100833.78
100850.68
100870.81
100894.57
100922.14
100953.43
100987.58
101023.95
101062.53
101097.06
101128.15
101161.94
101192.73
101220.6
101245.47
101266.79
101284.83
101299.51
101310.91
101318.79
101322.89
100789.46
100794.25
100799.79
100805.09
100810.24
100815.57
100821.42
100828.18
100836.25
100846.07
100858.1
100872.76
100890.5
100911.69
100936.55
100965.04
100996.52
101030.19
101065.71
101099.05
101128.65
101161.17
101191.01
101218.52
101243.21
101264.46
101282.55
101297.34
101308.87
101316.86
101321.03
100827.65
100831.27
100835.47
100839.53
100843.55
100847.75
100852.4
100857.85
100864.45
100872.65
100882.86
100895.52
100911.04
100929.79
100952.01
100977.71
101006.44
101037.43
101070.3
101101.39
101129.66
101160.93
101189.61
101216.59
101241.01
101262.13
101280.23
101295.11
101306.74
101314.84
101319.09
100863.75
100865.92
100869.12
100872.2
100875.24
100878.54
100882.28
100886.73
100892.23
100899.14
100907.85
100918.76
100932.27
100948.74
100968.42
100991.4
101017.35
101045.61
101075.66
101104.72
101131.92
101161.11
101188.44
101214.96
101238.95
101259.82
101277.89
101292.83
101304.55
101312.73
101317.06
100897.74
100899.09
100900.93
100902.85
100905.12
100907.81
100910.96
100914.77
100919.48
100925.43
100932.93
100942.36
100954.08
100968.44
100985.73
101006.06
101029.24
101054.65
101081.39
101107.57
101134.58
101162.56
101188.09
101213.59
101237.02
101257.55
101275.54
101290.5
101302.28
101310.54
101314.94
100927.94
100928.93
100930.54
100932.16
100933.96
100936.2
100938.93
100942.28
100946.43
100951.62
100958.13
100966.28
100976.39
100988.82
101003.85
101021.62
101042.06
101064.6
101088.18
101112.63
101137.52
101163.45
101188.31
101212.74
101235.31
101255.39
101273.21
101288.15
101299.96
101308.28
101312.73
100957.07
100957.83
100959.11
100960.68
100962.19
100963.9
100966.49
100969.59
100973.33
100977.9
100983.55
100990.54
100999.19
101009.8
101022.67
101038.01
101055.79
101075.61
101096.71
101119.19
101140.81
101164.31
101188.91
101212.39
101233.89
101253.36
101270.92
101285.78
101297.59
101305.95
101310.45
100985.51
100986.32
100987.52
100988.78
100990.28
100992.15
100994.43
100997.2
101000.51
101004.48
101009.29
101015.18
101022.42
101031.31
101042.12
101055.11
101070.33
101087.53
101106.13
101126
101144.88
101166.59
101190.23
101211.96
101232.43
101251.57
101268.73
101283.42
101295.19
101303.55
101308.09
101013.52
101014.39
101015.61
101016.91
101018.62
101020.69
101022.82
101025.25
101028.07
101031.39
101035.34
101040.13
101045.99
101053.2
101062.04
101072.76
101085.49
101100.11
101116.14
101133.38
101150.23
101169.78
101191.25
101211.67
101231.52
101250.03
101266.65
101281.1
101292.76
101301.11
101305.66
101041.69
101042.69
101043.99
101045.23
101046.76
101048.71
101050.77
101053.02
101055.48
101058.23
101061.38
101065.1
101069.63
101075.23
101082.17
101090.73
101101.08
101113.19
101126.74
101141.57
101156.18
101173.11
101192.47
101212.18
101231.06
101248.65
101264.75
101278.83
101290.34
101298.63
101303.18
101069.09
101070.14
101071.45
101072.9
101074.63
101076.44
101078.3
101080.28
101082.36
101084.57
101086.96
101089.69
101092.97
101097.04
101102.2
101108.72
101116.82
101126.55
101137.7
101150.09
101162.61
101177.17
101194.96
101213.33
101230.65
101247.33
101262.95
101276.67
101287.94
101296.13
101300.66
101095.85
101096.77
101098.09
101099.59
101101.23
101102.95
101104.68
101106.4
101108.1
101109.78
101111.48
101113.31
101115.46
101118.17
101121.71
101126.37
101132.42
101139.96
101148.89
101159.06
101169.72
101181.98
101197.71
101214.17
101231.04
101246.77
101261.3
101274.62
101285.58
101293.64
101298.12
101122.42
101123.24
101124.41
101125.42
101126.59
101127.91
101129.29
101130.64
101131.91
101133.08
101134.16
101135.24
101136.45
101138.01
101140.18
101143.25
101147.51
101153.12
101160.06
101168.19
101177.08
101187.3
101200.94
101216
101231.62
101246.14
101259.9
101272.72
101283.3
101291.17
101295.57
101147.57
101147.84
101149.03
101150.19
101150.89
101151.56
101152.28
101153.01
101153.67
101154.23
101154.67
101155.04
101155.45
101156.07
101157.13
101158.92
101161.71
101165.71
101170.95
101177.31
101184.59
101192.96
101204.73
101217.92
101231.64
101246.19
101259.45
101271.01
101281.12
101288.76
101293.05
101169.88
101169.37
101169.26
101170.16
101171.72
101172.64
101172.78
101172.8
101172.8
101172.71
101172.53
101172.27
101172.02
101171.93
101172.18
101173.03
101174.72
101177.46
101181.34
101186.25
101192.15
101198.92
101208.96
101220.5
101233.32
101246.22
101258.23
101269.45
101279.07
101286.44
101290.59
101189.01
101188.36
101187.67
101186.81
101186.08
101186.26
101187.3
101188.33
101188.56
101187.98
101187.26
101186.49
101185.77
101185.23
101185.02
101185.32
101186.32
101188.21
101191.09
101194.9
101199.63
101205.13
101213.49
101223.59
101234.8
101246.37
101257.78
101268.19
101277.21
101284.24
101288.22
101204.11
101203.67
101203.31
101202.82
101202.04
101200.94
101199.66
101198.5
101198.08
101198.27
101197.99
101197.24
101196.51
101195.92
101195.63
101195.77
101196.5
101197.94
101200.17
101203.18
101206.98
101211.47
101218.26
101226.94
101236.61
101247.37
101257.74
101266.92
101275.5
101282.21
101285.97
101211.42
101211.25
101211
101210.66
101210.31
101209.9
101209.35
101208.59
101207.57
101206.45
101205.7
101205.3
101204.94
101204.67
101204.61
101204.87
101205.58
101206.82
101208.65
101211.09
101214.15
101217.82
101223.23
101230.62
101239.04
101248.41
101257.53
101266.13
101274.11
101280.35
101283.89
101214.59
101214.53
101214.45
101214.34
101214.19
101214.01
101213.8
101213.59
101213.4
101213.25
101213.08
101212.92
101212.82
101212.82
101212.96
101213.34
101214.05
101215.16
101216.71
101218.7
101221.14
101224.08
101228.35
101234.49
101241.63
101249.48
101258.01
101265.95
101272.9
101278.7
101281.99
101218.43
101218.63
101218.79
101218.9
101219.03
101219.19
101219.38
101219.61
101219.85
101220.08
101220.1
101220.09
101220.36
101220.77
101221.19
101221.69
101222.36
101223.3
101224.55
101226.1
101227.96
101230.23
101233.51
101238.53
101244.5
101251.26
101258.71
101265.72
101272.05
101277.3
101280.33
101224.81
101225
101225.19
101225.37
101225.58
101225.85
101226.19
101226.55
101226.84
101227.08
101227.63
101228.4
101229
101229.45
101229.87
101230.3
101230.79
101231.42
101232.26
101233.32
101234.62
101236.26
101238.66
101242.67
101247.61
101253.3
101259.46