/*--------------------------------*- C++ -*----------------------------------*\
| =========                 |                                                 |
| \\      /  F ield         | OpenFOAM: The Open Source CFD Toolbox           |
|  \\    /   O peration     | Version:  2406                                  |
|   \\  /    A nd           | Website:  www.openfoam.com                      |
|    \\/     M anipulation  |                                                 |
\*---------------------------------------------------------------------------*/
FoamFile
{
    version     2.0;
    format      ascii;
    arch        "LSB;label=32;scalar=64";
    class       volScalarField;
    location    "0.006";
    object      rho;
}
// * * * * * * * * * * * * * * * * * * * * * * * * * * * * * * * * * * * * * //

dimensions      [1 -3 0 0 0 0 0];

internalField   nonuniform List<scalar> 
86779
(
1.1987319
1.198024
1.1977032
1.1973221
1.1969345
1.1965994
1.1963181
1.1960827
1.195891
1.1957413
1.1956296
1.1955498
1.1954939
1.1954568
1.1954329
1.1954259
1.195441
1.1954822
1.1955501
1.1956436
1.1957574
1.1958883
1.1960338
1.1961923
1.1963613
1.1965389
1.1967248
1.196919
1.1971202
1.1973271
1.1975387
1.197754
1.1979721
1.198192
1.1984126
1.1986324
1.1988515
1.199066
1.1992696
1.1994645
1.1996607
1.1998665
1.2000446
1.2002031
1.2003449
1.2004647
1.2005586
1.2006225
1.2006541
1.2006562
1.20064
1.2006212
1.2006123
1.2006182
1.2006365
1.2006628
1.2006929
1.2007244
1.2007559
1.2007868
1.200817
1.2008462
1.2008745
1.2009019
1.2009285
1.2009541
1.2009788
1.2010027
1.2010257
1.201048
1.2010694
1.20109
1.2011097
1.2011286
1.2011466
1.2011637
1.2011798
1.2011951
1.2012095
1.2012231
1.2012359
1.2012479
1.2012593
1.2012701
1.2012802
1.2012897
1.2012985
1.2013068
1.2013143
1.2013213
1.2013277
1.2013334
1.2013386
1.2013432
1.2013473
1.2013509
1.201354
1.2013568
1.2013591
1.2013611
1.2013629
1.2013644
1.2013658
1.201367
1.2013682
1.2013694
1.2013706
1.201372
1.2013735
1.2013752
1.2013771
1.2013794
1.2013818
1.2013845
1.2013874
1.2013904
1.2013936
1.2013967
1.2014
1.2014031
1.2014063
1.2014094
1.2014126
1.2014152
1.2014181
1.2014196
1.2014216
1.2000854
1.199599
1.1991403
1.1986355
1.1981817
1.1977991
1.1974776
1.1972101
1.1969911
1.1968154
1.1966775
1.1965708
1.1964876
1.1964191
1.1963618
1.1963179
1.196291
1.1962849
1.1963057
1.1963527
1.1964229
1.1965154
1.1966276
1.1967554
1.1968955
1.1970457
1.1972048
1.1973726
1.1975476
1.1977286
1.1979145
1.1981044
1.1982972
1.1984921
1.1986881
1.1988837
1.1990786
1.1992703
1.1994569
1.1996241
1.1998002
1.1999906
1.2001506
1.2002932
1.2004204
1.2005271
1.2006092
1.2006625
1.2006855
1.2006827
1.2006663
1.200651
1.2006469
1.2006565
1.2006766
1.2007031
1.2007324
1.2007626
1.2007926
1.2008219
1.2008506
1.2008783
1.2009052
1.2009312
1.2009564
1.2009808
1.2010043
1.201027
1.201049
1.2010701
1.2010905
1.2011101
1.2011289
1.2011469
1.201164
1.2011803
1.2011957
1.2012102
1.2012238
1.2012368
1.2012489
1.2012603
1.201271
1.2012813
1.2012908
1.2012997
1.2013081
1.2013158
1.2013229
1.2013295
1.2013354
1.2013408
1.2013456
1.2013498
1.2013536
1.2013569
1.2013597
1.2013621
1.2013642
1.201366
1.2013675
1.2013689
1.2013701
1.2013712
1.2013722
1.2013733
1.2013744
1.2013756
1.2013771
1.2013787
1.2013807
1.2013828
1.2013853
1.201388
1.2013909
1.2013939
1.2013971
1.2014003
1.2014035
1.2014067
1.20141
1.2014131
1.2014163
1.201419
1.2014219
1.2014235
1.2014254
1.2007279
1.2003711
1.1998627
1.199312
1.1988293
1.1984228
1.1980794
1.1977901
1.197549
1.1973503
1.1971882
1.1970567
1.19695
1.1968617
1.1967895
1.1967321
1.1966903
1.196668
1.19667
1.1966968
1.1967491
1.1968259
1.1969228
1.1970362
1.1971631
1.1973012
1.1974493
1.1976067
1.197772
1.1979439
1.1981211
1.1983027
1.1984876
1.1986747
1.1988629
1.1990509
1.1992378
1.1994219
1.1996027
1.1997577
1.1999271
1.2001097
1.2002594
1.2003924
1.2005093
1.2006052
1.200676
1.200718
1.2007311
1.2007218
1.2007035
1.2006897
1.2006883
1.2006998
1.2007204
1.2007463
1.2007743
1.2008029
1.2008312
1.2008588
1.2008858
1.200912
1.2009374
1.200962
1.2009858
1.2010088
1.2010311
1.2010526
1.2010733
1.2010933
1.2011127
1.2011312
1.2011491
1.2011661
1.2011823
1.2011978
1.2012123
1.201226
1.2012389
1.2012511
1.2012625
1.2012732
1.2012833
1.2012929
1.2013019
1.2013103
1.2013181
1.2013253
1.2013319
1.201338
1.2013435
1.2013484
1.2013528
1.2013567
1.2013601
1.2013631
1.2013656
1.2013677
1.2013695
1.2013711
1.2013724
1.2013735
1.2013745
1.2013754
1.2013763
1.2013773
1.2013783
1.2013794
1.2013808
1.2013824
1.2013843
1.2013864
1.2013889
1.2013915
1.2013944
1.2013975
1.2014007
1.2014039
1.2014072
1.2014105
1.2014138
1.2014169
1.2014202
1.2014229
1.2014258
1.2014274
1.2014294
1.2012134
1.2009103
1.200411
1.1998557
1.1993623
1.1989397
1.1985759
1.1982634
1.1979974
1.1977732
1.1975859
1.1974304
1.1973019
1.1971962
1.1971105
1.1970434
1.196995
1.1969674
1.1969625
1.1969812
1.1970236
1.1970885
1.1971731
1.1972745
1.1973902
1.1975181
1.1976568
1.1978055
1.1979628
1.1981274
1.1982979
1.1984732
1.1986523
1.1988338
1.1990168
1.1991998
1.1993814
1.1995611
1.1997369
1.1998842
1.2000505
1.2002265
1.2003682
1.2004935
1.2006015
1.2006873
1.2007468
1.2007774
1.2007803
1.2007647
1.2007445
1.200732
1.2007325
1.2007451
1.2007657
1.2007905
1.2008171
1.2008439
1.2008705
1.2008964
1.2009218
1.2009463
1.2009702
1.2009933
1.2010157
1.2010374
1.2010583
1.2010786
1.2010981
1.201117
1.2011353
1.2011528
1.2011696
1.2011856
1.2012009
1.2012155
1.2012292
1.2012421
1.2012542
1.2012656
1.2012764
1.2012864
1.2012958
1.2013048
1.2013132
1.201321
1.2013283
1.201335
1.2013411
1.2013467
1.2013517
1.2013562
1.2013602
1.2013637
1.2013668
1.2013694
1.2013716
1.2013734
1.2013749
1.2013762
1.2013773
1.2013782
1.201379
1.2013798
1.2013805
1.2013813
1.2013822
1.2013833
1.2013846
1.2013861
1.201388
1.2013901
1.2013925
1.2013952
1.2013981
1.2014012
1.2014044
1.2014077
1.201411
1.2014143
1.2014177
1.2014209
1.2014242
1.2014269
1.2014299
1.2014315
1.2014335
1.2016731
1.2013897
1.2009052
1.2003603
1.1998677
1.1994383
1.1990624
1.1987343
1.1984506
1.1982073
1.1980005
1.1978261
1.19768
1.1975589
1.1974602
1.1973825
1.1973256
1.1972902
1.1972771
1.1972867
1.1973186
1.1973717
1.1974442
1.1975337
1.197638
1.1977553
1.1978839
1.1980231
1.1981715
1.1983276
1.1984901
1.1986579
1.1988298
1.1990045
1.1991808
1.1993574
1.1995327
1.1997071
1.1998745
1.2000138
1.2001779
1.2003453
1.2004781
1.200595
1.2006934
1.2007685
1.2008165
1.2008355
1.2008291
1.2008082
1.2007872
1.2007763
1.2007786
1.200792
1.2008122
1.2008358
1.2008607
1.2008858
1.2009105
1.2009347
1.2009584
1.2009813
1.2010036
1.2010252
1.2010462
1.2010665
1.2010861
1.2011051
1.2011234
1.2011412
1.2011583
1.2011747
1.2011905
1.2012056
1.2012199
1.2012336
1.2012465
1.2012585
1.2012698
1.2012805
1.2012905
1.2012998
1.2013086
1.2013169
1.2013247
1.2013319
1.2013386
1.2013448
1.2013504
1.2013555
1.2013601
1.2013642
1.2013678
1.2013709
1.2013736
1.2013758
1.2013777
1.2013792
1.2013805
1.2013815
1.2013823
1.201383
1.2013837
1.2013842
1.2013848
1.2013855
1.2013863
1.2013873
1.2013885
1.20139
1.2013918
1.2013939
1.2013963
1.2013989
1.2014019
1.2014049
1.2014082
1.2014115
1.2014149
1.2014182
1.2014216
1.2014249
1.2014282
1.201431
1.201434
1.2014357
1.2014377
1.2020955
1.2018098
1.2013367
1.200809
1.2003251
1.1998964
1.1995158
1.1991793
1.1988841
1.1986276
1.1984064
1.1982174
1.1980573
1.1979232
1.197813
1.1977253
1.1976594
1.1976154
1.1975935
1.1975937
1.1976155
1.1976578
1.1977192
1.1977978
1.1978915
1.1979985
1.1981175
1.1982475
1.198387
1.1985348
1.1986893
1.1988495
1.199014
1.1991816
1.199351
1.1995207
1.1996894
1.1998585
1.2000141
1.2001462
1.2003095
1.2004659
1.2005892
1.2006969
1.2007848
1.2008485
1.2008843
1.2008919
1.2008771
1.2008525
1.2008317
1.2008227
1.2008267
1.2008404
1.2008599
1.2008821
1.2009053
1.2009285
1.2009514
1.2009738
1.2009957
1.201017
1.2010377
1.2010578
1.2010773
1.2010962
1.2011144
1.2011321
1.2011492
1.2011658
1.2011818
1.2011971
1.2012118
1.2012259
1.2012393
1.2012521
1.201264
1.2012752
1.2012858
1.2012957
1.2013049
1.2013135
1.2013216
1.2013293
1.2013364
1.201343
1.2013492
1.2013548
1.20136
1.2013646
1.2013687
1.2013723
1.2013755
1.2013782
1.2013805
1.2013823
1.2013839
1.2013851
1.2013861
1.2013869
1.2013875
1.201388
1.2013884
1.2013888
1.2013892
1.2013897
1.2013904
1.2013913
1.2013925
1.2013939
1.2013956
1.2013977
1.2014001
1.2014028
1.2014057
1.2014088
1.2014121
1.2014154
1.2014188
1.2014222
1.2014257
1.201429
1.2014324
1.2014352
1.2014383
1.20144
1.201442
1.2024759
1.2021753
1.2017107
1.2012037
1.2007336
1.2003109
1.199931
1.199591
1.1992894
1.1990241
1.1987928
1.1985927
1.1984216
1.1982769
1.198157
1.1980603
1.1979862
1.1979342
1.1979041
1.1978957
1.1979083
1.197941
1.1979924
1.198061
1.1981448
1.1982423
1.1983523
1.1984735
1.1986047
1.1987444
1.1988912
1.1990439
1.1992012
1.1993618
1.1995242
1.1996871
1.1998493
1.200013
1.2001532
1.2002822
1.2004445
1.2005876
1.2007011
1.2007989
1.2008757
1.2009271
1.2009505
1.200947
1.200925
1.200898
1.2008783
1.2008713
1.2008766
1.2008904
1.2009089
1.2009295
1.2009508
1.2009721
1.2009931
1.2010136
1.2010337
1.2010534
1.2010724
1.201091
1.201109
1.2011264
1.2011433
1.2011597
1.2011756
1.2011909
1.2012057
1.2012199
1.2012335
1.2012466
1.201259
1.2012709
1.201282
1.2012923
1.201302
1.2013111
1.2013196
1.2013275
1.2013349
1.2013419
1.2013484
1.2013544
1.2013599
1.2013651
1.2013696
1.2013737
1.2013774
1.2013806
1.2013833
1.2013856
1.2013875
1.201389
1.2013902
1.2013911
1.2013918
1.2013923
1.2013927
1.201393
1.2013932
1.2013934
1.2013937
1.2013941
1.2013947
1.2013954
1.2013965
1.2013979
1.2013996
1.2014017
1.201404
1.2014067
1.2014096
1.2014128
1.2014161
1.2014195
1.2014229
1.2014264
1.2014299
1.2014333
1.2014367
1.2014396
1.2014427
1.2014444
1.2014465
1.202818
1.2024967
1.2020393
1.2015541
1.2011006
1.2006876
1.2003123
1.199973
1.199669
1.1993989
1.1991609
1.1989532
1.1987738
1.198621
1.198493
1.1983888
1.1983073
1.1982481
1.1982106
1.1981943
1.1981986
1.1982226
1.198265
1.1983244
1.1983992
1.1984878
1.1985891
1.198702
1.1988251
1.198957
1.1990962
1.1992416
1.1993917
1.1995452
1.1997007
1.1998565
1.200012
1.2001682
1.2002951
1.2004234
1.20058
1.2007099
1.2008136
1.2009006
1.2009654
1.2010041
1.2010148
1.201001
1.2009733
1.2009453
1.2009272
1.2009222
1.2009285
1.2009419
1.2009591
1.2009779
1.2009972
1.2010165
1.2010356
1.2010542
1.2010725
1.2010904
1.2011079
1.2011248
1.2011413
1.2011573
1.2011728
1.2011878
1.2012024
1.2012164
1.2012301
1.2012431
1.2012557
1.2012678
1.2012792
1.20129
1.2013002
1.2013097
1.2013185
1.2013268
1.2013346
1.2013417
1.2013484
1.2013547
1.2013606
1.201366
1.2013709
1.2013755
1.2013795
1.2013831
1.2013863
1.201389
1.2013913
1.2013932
1.2013947
1.2013958
1.2013967
1.2013973
1.2013977
1.2013979
1.201398
1.2013981
1.2013981
1.2013981
1.2013983
1.2013985
1.201399
1.2013997
1.2014007
1.201402
1.2014037
1.2014057
1.2014081
1.2014107
1.2014137
1.2014169
1.2014202
1.2014236
1.2014271
1.2014306
1.2014342
1.2014376
1.2014411
1.2014441
1.2014472
1.2014489
1.201451
1.2031217
1.2027819
1.2023316
1.201868
1.2014321
1.201031
1.2006631
1.2003278
1.2000247
1.1997531
1.1995117
1.1992993
1.1991143
1.1989555
1.1988213
1.1987108
1.1986231
1.1985575
1.1985133
1.1984901
1.1984869
1.1985031
1.1985373
1.1985884
1.1986548
1.1987351
1.1988283
1.1989333
1.1990486
1.1991728
1.1993047
1.1994427
1.1995856
1.199732
1.1998804
1.2000291
1.2001776
1.2003248
1.2004405
1.2005675
1.2007158
1.2008327
1.2009261
1.2010016
1.2010537
1.2010789
1.2010772
1.2010543
1.2010225
1.2009946
1.2009786
1.2009754
1.2009821
1.2009947
1.2010104
1.2010272
1.2010445
1.2010618
1.2010789
1.2010956
1.2011121
1.2011282
1.201144
1.2011593
1.2011742
1.2011887
1.2012028
1.2012164
1.2012297
1.2012425
1.2012549
1.2012668
1.2012783
1.2012893
1.2012997
1.2013096
1.2013188
1.2013274
1.2013354
1.2013429
1.2013498
1.2013562
1.2013621
1.2013678
1.201373
1.2013777
1.2013821
1.2013861
1.2013896
1.2013926
1.2013953
1.2013975
1.2013994
1.2014009
1.201402
1.2014028
1.2014033
1.2014035
1.2014036
1.2014036
1.2014035
1.2014033
1.2014031
1.201403
1.2014029
1.2014031
1.2014034
1.201404
1.2014049
1.2014062
1.2014078
1.2014098
1.2014122
1.2014149
1.2014178
1.201421
1.2014244
1.2014279
1.2014315
1.201435
1.2014386
1.2014421
1.2014457
1.2014487
1.2014518
1.2014536
1.2014557
1.203386
1.2030353
1.202595
1.2021515
1.2017329
1.2013448
1.2009863
1.2006574
1.2003579
1.2000875
1.1998455
1.1996309
1.1994428
1.1992799
1.1991413
1.199026
1.1989332
1.1988621
1.1988123
1.1987828
1.1987731
1.1987822
1.1988092
1.1988527
1.1989114
1.198984
1.1990696
1.199167
1.1992748
1.1993917
1.1995163
1.1996471
1.1997829
1.1999222
1.2000633
1.2002048
1.2003464
1.2004827
1.200588
1.2007141
1.200852
1.2009558
1.2010382
1.2011012
1.2011398
1.2011514
1.2011378
1.2011073
1.201073
1.2010463
1.2010326
1.2010307
1.2010374
1.2010489
1.2010628
1.2010776
1.2010927
1.2011079
1.201123
1.2011377
1.2011523
1.2011667
1.2011807
1.2011944
1.2012077
1.2012207
1.2012333
1.2012456
1.2012576
1.201269
1.2012803
1.201291
1.2013013
1.2013112
1.2013206
1.2013295
1.2013378
1.2013455
1.2013526
1.2013592
1.2013653
1.201371
1.2013761
1.2013811
1.2013856
1.2013897
1.2013935
1.2013968
1.2013998
1.2014023
1.2014045
1.2014063
1.2014077
1.2014087
1.2014094
1.2014098
1.20141
1.2014099
1.2014097
1.2014094
1.201409
1.2014086
1.2014082
1.2014079
1.2014077
1.2014077
1.2014079
1.2014084
1.2014093
1.2014105
1.2014121
1.2014141
1.2014164
1.2014191
1.2014221
1.2014253
1.2014287
1.2014323
1.2014359
1.2014395
1.2014432
1.2014468
1.2014504
1.2014534
1.2014566
1.2014584
1.2014606
1.2036106
1.2032563
1.2028328
1.2024087
1.2020066
1.201632
1.2012844
1.2009637
1.20067
1.2004032
1.2001629
1.1999485
1.1997592
1.1995942
1.1994528
1.1993341
1.1992374
1.199162
1.1991073
1.1990726
1.1990571
1.1990601
1.1990805
1.1991171
1.1991688
1.1992343
1.1993128
1.199403
1.1995037
1.1996135
1.199731
1.1998547
1.1999834
1.2001155
1.2002493
1.2003835
1.2005185
1.2006408
1.200737
1.2008634
1.2009883
1.2010786
1.2011492
1.201199
1.2012234
1.2012213
1.2011968
1.2011606
1.2011255
1.2011007
1.201089
1.201088
1.2010942
1.2011043
1.2011162
1.2011288
1.2011418
1.2011548
1.2011678
1.2011806
1.2011933
1.2012059
1.2012181
1.2012302
1.2012418
1.2012533
1.2012645
1.2012753
1.201286
1.2012961
1.201306
1.2013156
1.2013247
1.2013336
1.2013418
1.2013497
1.2013571
1.2013639
1.2013701
1.2013758
1.2013812
1.201386
1.2013904
1.2013946
1.2013985
1.2014019
1.201405
1.2014078
1.2014102
1.2014122
1.2014139
1.2014152
1.2014161
1.2014167
1.201417
1.201417
1.2014168
1.2014164
1.2014159
1.2014153
1.2014146
1.201414
1.2014134
1.2014129
1.2014126
1.2014124
1.2014125
1.2014129
1.2014137
1.2014149
1.2014165
1.2014184
1.2014208
1.2014235
1.2014265
1.2014297
1.2014332
1.2014368
1.2014405
1.2014442
1.2014479
1.2014515
1.2014552
1.2014583
1.2014615
1.2014633
1.2014655
1.2037979
1.2034481
1.2030439
1.2026398
1.202255
1.2018951
1.2015597
1.2012489
1.2009628
1.2007015
1.2004648
1.2002525
1.2000639
1.1998986
1.1997558
1.1996351
1.1995357
1.199457
1.1993985
1.1993594
1.199339
1.1993366
1.1993512
1.1993818
1.1994271
1.199486
1.1995578
1.1996413
1.1997352
1.199838
1.1999485
1.2000653
1.2001869
1.2003117
1.200438
1.2005651
1.2006932
1.2007971
1.2008891
1.2010152
1.2011241
1.2012007
1.2012586
1.2012942
1.2013039
1.2012886
1.2012549
1.2012149
1.2011802
1.2011577
1.2011478
1.2011472
1.2011525
1.2011608
1.2011706
1.2011809
1.2011916
1.2012026
1.2012135
1.2012242
1.201235
1.2012457
1.2012562
1.2012665
1.2012765
1.2012864
1.2012962
1.2013056
1.2013148
1.2013236
1.2013323
1.2013406
1.2013485
1.2013563
1.2013635
1.2013704
1.2013768
1.2013826
1.2013879
1.2013927
1.2013973
1.2014013
1.2014049
1.2014084
1.2014116
1.2014144
1.2014168
1.201419
1.2014208
1.2014223
1.2014234
1.2014242
1.2014247
1.2014248
1.2014247
1.2014243
1.2014238
1.201423
1.2014222
1.2014213
1.2014204
1.2014195
1.2014187
1.2014181
1.2014175
1.2014172
1.2014172
1.2014176
1.2014183
1.2014194
1.2014209
1.2014229
1.2014252
1.201428
1.201431
1.2014343
1.2014378
1.2014414
1.2014452
1.2014489
1.2014527
1.2014564
1.2014601
1.2014633
1.2014666
1.2014685
1.2014707
1.2039535
1.2036125
1.2032294
1.2028466
1.2024803
1.2021362
1.2018143
1.2015147
1.2012378
1.2009836
1.2007523
1.2005437
1.2003575
1.2001933
1.2000507
1.1999292
1.1998282
1.1997473
1.1996859
1.1996433
1.1996188
1.1996118
1.1996214
1.1996465
1.199686
1.199739
1.1998045
1.1998816
1.199969
1.2000652
1.2001689
1.2002787
1.2003931
1.2005105
1.2006292
1.2007486
1.2008673
1.2009553
1.2010468
1.2011661
1.2012582
1.2013214
1.2013655
1.2013861
1.2013812
1.2013536
1.2013126
1.2012708
1.2012377
1.2012175
1.201209
1.2012081
1.2012121
1.2012185
1.201226
1.2012339
1.2012423
1.2012511
1.2012599
1.2012685
1.2012774
1.2012863
1.2012949
1.2013035
1.2013119
1.2013202
1.2013284
1.2013364
1.2013442
1.2013516
1.201359
1.201366
1.2013728
1.2013794
1.2013855
1.2013913
1.2013968
1.2014016
1.201406
1.20141
1.2014136
1.2014169
1.2014197
1.2014224
1.2014249
1.201427
1.2014288
1.2014304
1.2014316
1.2014325
1.2014331
1.2014334
1.2014334
1.2014331
1.2014326
1.2014318
1.2014309
1.2014298
1.2014286
1.2014275
1.2014263
1.2014252
1.2014242
1.2014233
1.2014226
1.2014222
1.2014221
1.2014223
1.2014229
1.201424
1.2014255
1.2014275
1.2014298
1.2014326
1.2014356
1.201439
1.2014425
1.2014462
1.20145
1.2014538
1.2014577
1.2014615
1.2014653
1.2014685
1.2014718
1.2014737
1.2014759
1.2040827
1.2037535
1.2033926
1.203032
1.202685
1.2023576
1.2020503
1.2017632
1.2014966
1.201251
1.2010265
1.2008231
1.2006406
1.2004789
1.2003378
1.2002167
1.2001152
1.2000331
1.1999696
1.1999244
1.1998966
1.1998858
1.199891
1.1999113
1.1999457
1.1999931
1.2000529
1.200124
1.2002051
1.2002948
1.2003919
1.2004948
1.200602
1.2007119
1.2008228
1.2009344
1.2010412
1.2011158
1.2012068
1.2013152
1.2013904
1.2014399
1.2014692
1.2014743
1.201455
1.2014169
1.2013708
1.201329
1.2012981
1.20128
1.2012723
1.2012706
1.201273
1.2012772
1.2012824
1.2012877
1.2012939
1.2013004
1.201307
1.2013136
1.2013205
1.2013275
1.2013343
1.2013411
1.2013478
1.2013545
1.2013612
1.2013678
1.2013741
1.2013801
1.2013862
1.201392
1.2013975
1.201403
1.201408
1.2014127
1.2014171
1.201421
1.2014245
1.2014275
1.2014303
1.2014328
1.2014348
1.2014367
1.2014385
1.2014399
1.201441
1.201442
1.2014426
1.2014429
1.201443
1.2014428
1.2014423
1.2014415
1.2014405
1.2014394
1.2014381
1.2014367
1.2014352
1.2014337
1.2014323
1.2014309
1.2014297
1.2014287
1.2014278
1.2014272
1.201427
1.2014272
1.2014277
1.2014288
1.2014302
1.2014322
1.2014345
1.2014373
1.2014404
1.2014438
1.2014474
1.2014511
1.201455
1.2014589
1.2014629
1.2014667
1.2014705
1.2014738
1.2014772
1.2014792
1.2014814
1.2041904
1.2038765
1.2035378
1.2031993
1.2028721
1.202562
1.20227
1.2019962
1.2017411
1.2015051
1.2012886
1.2010915
1.2009141
1.2007561
1.2006175
1.2004979
1.200397
1.2003145
1.20025
1.2002028
1.2001726
1.2001586
1.2001601
1.2001763
1.200206
1.2002484
1.2003028
1.2003682
1.2004433
1.2005268
1.2006172
1.2007132
1.2008132
1.2009155
1.2010186
1.2011227
1.2012141
1.2012768
1.2013682
1.2014623
1.2015204
1.2015553
1.2015689
1.2015583
1.2015256
1.2014791
1.2014303
1.2013899
1.2013614
1.201345
1.2013375
1.2013345
1.201335
1.201337
1.2013396
1.2013423
1.2013461
1.2013505
1.2013549
1.2013594
1.2013643
1.2013694
1.2013743
1.2013793
1.2013843
1.2013894
1.2013946
1.2013996
1.2014045
1.2014091
1.2014138
1.2014183
1.2014226
1.201427
1.2014308
1.2014344
1.2014378
1.2014408
1.2014433
1.2014453
1.2014473
1.2014489
1.2014501
1.2014512
1.2014523
1.201453
1.2014535
1.2014537
1.2014538
1.2014535
1.201453
1.2014523
1.2014513
1.2014501
1.2014487
1.2014471
1.2014454
1.2014437
1.2014419
1.2014401
1.2014384
1.2014368
1.2014354
1.2014341
1.2014331
1.2014324
1.2014321
1.2014321
1.2014326
1.2014336
1.2014351
1.201437
1.2014394
1.2014422
1.2014453
1.2014487
1.2014524
1.2014562
1.2014601
1.2014641
1.2014682
1.2014721
1.201476
1.2014794
1.2014828
1.2014848
1.201487
1.2042839
1.203986
1.2036688
1.2033519
1.2030443
1.2027519
1.2024756
1.2022158
1.2019729
1.2017475
1.2015399
1.2013503
1.2011789
1.2010257
1.2008906
1.2007734
1.200674
1.200592
1.2005272
1.2004789
1.2004469
1.2004304
1.2004289
1.2004414
1.200467
1.2005048
1.2005542
1.2006142
1.2006836
1.2007609
1.2008448
1.2009339
1.2010265
1.2011208
1.2012161
1.2013124
1.2013833
1.2014395
1.2015309
1.2016065
1.2016471
1.2016665
1.2016638
1.2016378
1.2015936
1.2015414
1.201492
1.201454
1.2014277
1.2014122
1.2014045
1.2013996
1.2013981
1.2013977
1.2013976
1.2013975
1.2013992
1.2014013
1.2014034
1.2014058
1.2014088
1.2014119
1.2014148
1.2014181
1.2014215
1.2014248
1.2014285
1.201432
1.2014354
1.2014385
1.2014418
1.2014451
1.2014482
1.2014513
1.201454
1.2014565
1.2014589
1.2014608
1.2014623
1.2014635
1.2014645
1.2014653
1.2014657
1.201466
1.2014663
1.2014663
1.2014661
1.2014657
1.2014651
1.2014643
1.2014633
1.201462
1.2014605
1.2014588
1.201457
1.201455
1.2014529
1.2014508
1.2014487
1.2014466
1.2014446
1.2014428
1.2014411
1.2014397
1.2014385
1.2014377
1.2014372
1.2014372
1.2014377
1.2014386
1.20144
1.201442
1.2014443
1.2014472
1.2014503
1.2014538
1.2014575
1.2014614
1.2014654
1.2014695
1.2014736
1.2014776
1.2014816
1.2014851
1.2014885
1.2014906
1.2014928
1.2043659
1.2040845
1.203788
1.2034922
1.2032041
1.2029295
1.2026693
1.202424
1.2021939
1.2019798
1.2017819
1.2016006
1.201436
1.2012884
1.2011577
1.2010438
1.2009467
1.200866
1.2008015
1.2007529
1.2007197
1.2007014
1.2006973
1.2007067
1.2007286
1.2007623
1.2008071
1.2008619
1.2009257
1.2009969
1.2010743
1.2011564
1.2012413
1.2013275
1.2014141
1.2014994
1.2015528
1.2016076
1.2016907
1.2017459
1.2017696
1.2017726
1.2017533
1.2017133
1.20166
1.2016048
1.2015566
1.2015214
1.2014966
1.2014814
1.2014729
1.2014658
1.2014622
1.2014594
1.2014564
1.2014533
1.2014529
1.201453
1.2014526
1.2014529
1.201454
1.201455
1.201456
1.2014575
1.2014592
1.2014607
1.2014629
1.2014649
1.2014668
1.2014685
1.2014704
1.2014723
1.2014741
1.201476
1.2014776
1.201479
1.2014803
1.2014812
1.2014817
1.2014819
1.201482
1.201482
1.2014816
1.201481
1.2014806
1.2014799
1.2014789
1.2014779
1.2014767
1.2014753
1.2014737
1.2014719
1.2014698
1.2014677
1.2014654
1.201463
1.2014605
1.2014581
1.2014556
1.2014532
1.201451
1.2014489
1.201447
1.2014454
1.2014441
1.2014431
1.2014425
1.2014424
1.2014428
1.2014437
1.2014451
1.2014471
1.2014495
1.2014523
1.2014555
1.201459
1.2014628
1.2014668
1.2014709
1.2014751
1.2014793
1.2014834
1.2014874
1.201491
1.2014944
1.2014966
1.2014988
1.2044378
1.2041736
1.2038978
1.2036226
1.203354
1.2030973
1.2028534
1.2026228
1.202406
1.2022036
1.202016
1.2018436
1.2016866
1.2015453
1.2014197
1.2013098
1.2012156
1.2011369
1.2010736
1.2010252
1.2009914
1.2009717
1.2009656
1.2009723
1.200991
1.2010209
1.2010612
1.2011111
1.2011694
1.2012347
1.2013055
1.2013804
1.2014575
1.2015351
1.2016125
1.2016842
1.201723
1.2017763
1.2018455
1.2018799
1.2018868
1.2018727
1.2018373
1.2017854
1.2017262
1.2016706
1.2016244
1.2015918
1.2015676
1.2015525
1.2015428
1.201533
1.2015272
1.201522
1.2015158
1.2015096
1.2015076
1.2015054
1.2015024
1.2015006
1.2014998
1.2014987
1.2014977
1.2014976
1.2014974
1.2014972
1.2014978
1.2014983
1.2014987
1.2014989
1.2014993
1.2015
1.2015005
1.2015012
1.2015015
1.2015018
1.201502
1.2015019
1.2015015
1.2015007
1.2014998
1.2014989
1.2014977
1.2014963
1.201495
1.2014936
1.201492
1.2014902
1.2014884
1.2014864
1.2014842
1.2014819
1.2014793
1.2014767
1.201474
1.2014711
1.2014683
1.2014654
1.2014627
1.20146
1.2014575
1.2014551
1.2014531
1.2014513
1.2014498
1.2014486
1.201448
1.2014478
1.2014481
1.201449
1.2014504
1.2014523
1.2014547
1.2014576
1.2014609
1.2014644
1.2014683
1.2014723
1.2014765
1.2014808
1.2014851
1.2014893
1.2014934
1.201497
1.2015006
1.2015027
1.201505
1.2045022
1.2042561
1.2040005
1.2037457
1.2034964
1.2032575
1.20303
1.2028143
1.202611
1.2024207
1.2022438
1.2020808
1.2019319
1.2017974
1.2016775
1.2015722
1.2014815
1.2014054
1.2013436
1.201296
1.2012621
1.2012416
1.2012339
1.2012384
1.2012541
1.2012804
1.2013166
1.2013617
1.2014146
1.2014738
1.201538
1.2016054
1.2016744
1.2017434
1.2018113
1.2018654
1.2018916
1.2019437
1.2019945
1.2020081
1.2019975
1.2019661
1.2019162
1.2018555
1.2017936
1.2017393
1.2016951
1.2016645
1.2016407
1.2016259
1.2016136
1.2016014
1.2015929
1.2015849
1.2015756
1.2015673
1.2015632
1.2015581
1.2015526
1.201549
1.2015464
1.201543
1.20154
1.2015382
1.2015362
1.2015342
1.2015332
1.2015322
1.201531
1.2015297
1.2015287
1.2015281
1.2015273
1.2015267
1.2015258
1.2015249
1.2015241
1.2015229
1.2015215
1.2015197
1.2015179
1.2015162
1.201514
1.2015118
1.2015097
1.2015076
1.2015052
1.2015028
1.2015004
1.2014977
1.2014949
1.2014921
1.201489
1.2014859
1.2014827
1.2014794
1.2014762
1.201473
1.2014699
1.2014669
1.2014641
1.2014615
1.2014592
1.2014572
1.2014556
1.2014543
1.2014535
1.2014532
1.2014535
1.2014543
1.2014557
1.2014577
1.2014601
1.2014631
1.2014664
1.20147
1.201474
1.2014781
1.2014824
1.2014867
1.2014911
1.2014954
1.2014996
1.2015033
1.2015069
1.2015091
1.2015114
1.2045629
1.2043349
1.204099
1.2038642
1.2036338
1.2034125
1.2032013
1.2030006
1.2028109
1.2026328
1.2024669
1.2023135
1.2021731
1.2020459
1.2019321
1.2018318
1.2017451
1.201672
1.2016123
1.2015658
1.2015323
1.2015113
1.2015024
1.2015049
1.201518
1.2015409
1.201573
1.2016134
1.2016609
1.201714
1.2017712
1.2018309
1.2018913
1.2019515
1.2020093
1.2020395
1.2020596
1.2021088
1.2021362
1.202129
1.2021007
1.2020528
1.2019912
1.2019253
1.2018632
1.2018105
1.2017682
1.2017394
1.2017179
1.2017013
1.2016848
1.2016706
1.2016586
1.2016475
1.2016363
1.2016272
1.2016188
1.2016105
1.2016036
1.2015984
1.2015936
1.2015877
1.2015828
1.2015795
1.2015755
1.2015716
1.201569
1.2015666
1.2015639
1.201561
1.2015585
1.2015566
1.2015545
1.2015525
1.2015506
1.2015484
1.2015465
1.2015443
1.2015418
1.201539
1.2015363
1.2015336
1.2015306
1.2015276
1.2015247
1.2015218
1.2015187
1.2015156
1.2015125
1.2015092
1.2015058
1.2015024
1.2014988
1.2014952
1.2014915
1.2014879
1.2014842
1.2014806
1.2014772
1.2014739
1.2014708
1.201468
1.2014655
1.2014633
1.2014615
1.2014601
1.2014592
1.2014589
1.2014591
1.2014599
1.2014613
1.2014632
1.2014657
1.2014687
1.2014721
1.2014758
1.2014798
1.201484
1.2014884
1.2014929
1.2014974
1.2015017
1.201506
1.2015098
1.2015135
1.2015158
1.201518
1.2046227
1.2044122
1.2041955
1.2039802
1.2037686
1.2035648
1.2033696
1.2031837
1.2030076
1.2028418
1.2026869
1.2025433
1.2024115
1.2022917
1.2021843
1.2020894
1.202007
1.2019373
1.20188
1.2018351
1.2018022
1.2017811
1.2017712
1.2017719
1.2017825
1.2018022
1.2018304
1.201866
1.2019079
1.2019546
1.2020047
1.2020562
1.2021075
1.2021576
1.2022008
1.2022112
1.2022298
1.2022654
1.2022683
1.2022418
1.2021959
1.2021336
1.202064
1.2019963
1.2019346
1.2018828
1.201847
1.2018205
1.201796
1.2017755
1.2017568
1.2017401
1.2017251
1.2017112
1.2016979
1.201686
1.2016749
1.2016648
1.2016558
1.2016482
1.201641
1.2016329
1.2016263
1.201621
1.2016152
1.2016096
1.2016053
1.2016015
1.2015973
1.2015928
1.2015886
1.2015855
1.2015821
1.2015787
1.2015756
1.2015722
1.2015692
1.201566
1.2015625
1.2015587
1.2015549
1.2015513
1.2015475
1.2015436
1.2015398
1.2015362
1.2015324
1.2015285
1.2015247
1.2015209
1.2015169
1.2015129
1.2015088
1.2015047
1.2015006
1.2014964
1.2014924
1.2014884
1.2014846
1.201481
1.2014777
1.2014746
1.2014719
1.2014695
1.2014675
1.201466
1.2014651
1.2014646
1.2014648
1.2014656
1.2014669
1.2014689
1.2014715
1.2014745
1.2014779
1.2014817
1.2014858
1.2014901
1.2014946
1.2014992
1.2015038
1.2015083
1.2015127
1.2015166
1.2015203
1.2015226
1.2015248
1.2046826
1.2044887
1.2042915
1.2040962
1.2039033
1.2037166
1.2035373
1.2033659
1.203203
1.2030493
1.2029053
1.2027715
1.2026483
1.2025362
1.2024353
1.2023459
1.202268
1.2022019
1.2021473
1.2021041
1.2020721
1.2020511
1.2020404
1.2020395
1.2020477
1.2020642
1.2020883
1.202119
1.2021551
1.2021952
1.2022375
1.2022803
1.2023222
1.2023615
1.2023851
1.2023797
1.2023964
1.2024116
1.2023903
1.2023454
1.2022837
1.2022101
1.2021361
1.2020686
1.2020075
1.2019636
1.2019311
1.2019004
1.2018738
1.2018506
1.2018295
1.20181
1.2017922
1.2017755
1.2017598
1.2017454
1.2017319
1.2017195
1.2017083
1.2016981
1.2016885
1.2016794
1.2016705
1.2016624
1.2016555
1.2016483
1.2016419
1.2016368
1.2016313
1.201625
1.2016191
1.2016148
1.20161
1.2016053
1.2016011
1.2015964
1.2015922
1.2015879
1.2015834
1.2015786
1.2015738
1.2015693
1.2015646
1.2015598
1.2015552
1.2015508
1.2015463
1.2015417
1.2015372
1.2015328
1.2015281
1.2015236
1.201519
1.2015143
1.2015097
1.2015052
1.2015007
1.2014964
1.2014922
1.2014883
1.2014847
1.2014814
1.2014784
1.2014759
1.2014737
1.2014721
1.201471
1.2014705
1.2014706
1.2014714
1.2014728
1.2014748
1.2014774
1.2014804
1.201484
1.2014878
1.201492
1.2014965
1.2015011
1.2015057
1.2015105
1.2015151
1.2015195
1.2015235
1.2015273
1.2015297
1.2015319
1.2047497
1.2045701
1.2043914
1.2042155
1.2040409
1.2038709
1.2037068
1.2035493
1.2033992
1.2032571
1.2031237
1.2029995
1.2028848
1.2027802
1.2026859
1.202602
1.2025289
1.2024664
1.2024146
1.2023733
1.2023424
1.2023214
1.20231
1.2023076
1.2023133
1.2023265
1.2023464
1.2023719
1.2024019
1.2024347
1.2024687
1.2025021
1.202534
1.2025615
1.2025585
1.2025442
1.2025568
1.2025456
1.2025016
1.20244
1.2023654
1.2022836
1.2022083
1.2021423
1.2020898
1.2020502
1.2020133
1.2019808
1.2019523
1.2019265
1.2019026
1.2018804
1.2018598
1.2018404
1.2018222
1.2018052
1.2017894
1.2017747
1.2017611
1.2017486
1.2017367
1.2017256
1.2017148
1.2017051
1.2016966
1.2016873
1.2016789
1.2016724
1.2016655
1.2016575
1.20165
1.2016444
1.2016383
1.2016322
1.2016269
1.2016209
1.2016155
1.2016102
1.2016046
1.2015987
1.2015929
1.2015875
1.2015819
1.2015763
1.2015708
1.2015655
1.2015604
1.201555
1.2015498
1.2015448
1.2015395
1.2015344
1.2015293
1.2015241
1.201519
1.201514
1.2015091
1.2015044
1.2014999
1.2014957
1.2014918
1.2014883
1.2014851
1.2014824
1.2014801
1.2014783
1.2014771
1.2014766
1.2014767
1.2014774
1.2014788
1.2014808
1.2014834
1.2014866
1.2014902
1.2014942
1.2014985
1.201503
1.2015077
1.2015125
1.2015174
1.2015221
1.2015267
1.2015307
1.2015345
1.201537
1.2015392
1.204824
1.2046659
1.204501
1.2043424
1.2041849
1.2040305
1.2038806
1.2037362
1.203598
1.203467
1.2033437
1.2032286
1.2031222
1.2030249
1.202937
1.2028587
1.2027901
1.2027314
1.2026824
1.2026431
1.2026131
1.2025923
1.2025801