/*--------------------------------*- C++ -*----------------------------------*\
| =========                 |                                                 |
| \\      /  F ield         | OpenFOAM: The Open Source CFD Toolbox           |
|  \\    /   O peration     | Version:  2406                                  |
|   \\  /    A nd           | Website:  www.openfoam.com                      |
|    \\/     M anipulation  |                                                 |
\*---------------------------------------------------------------------------*/
FoamFile
{
    version     2.0;
    format      ascii;
    arch        "LSB;label=32;scalar=64";
    class       volScalarField;
    location    "0.02";
    object      Ma;
}
// * * * * * * * * * * * * * * * * * * * * * * * * * * * * * * * * * * * * * //

dimensions      [0 0 0 0 0 0 0];

internalField   nonuniform List<scalar> 
2065
(
0.15616236
0.15873064
0.16126689
0.16368981
0.16586987
0.16772236
0.16918197
0.17022424
0.17084691
0.17107649
0.17097353
0.1705779
0.16995438
0.16916781
0.16827436
0.16731762
0.16633221
0.16534699
0.16438387
0.16345736
0.16257837
0.16175369
0.16098464
0.16026835
0.15959124
0.15893339
0.15824461
0.15746719
0.156411
0.15507371
0.15340374
0.15161733
0.15449669
0.15740019
0.16015926
0.16268877
0.16490498
0.16673536
0.16813933
0.16909573
0.1696334
0.16980015
0.16963418
0.16920081
0.16856849
0.16779753
0.16693713
0.16602693
0.16510039
0.16418321
0.16329287
0.16244252
0.16164077
0.16089021
0.16018901
0.15952436
0.15887702
0.15819736
0.1574286
0.15638203
0.15505297
0.15339187
0.14650677
0.14967713
0.15298822
0.1561573
0.1590929
0.16171854
0.16396092
0.16576702
0.16710446
0.16799088
0.16846379
0.16856069
0.16834635
0.16789108
0.1672604
0.16651023
0.16568568
0.16482555
0.16395999
0.16311
0.16229145
0.16151503
0.16078488
0.16010033
0.15944948
0.15881381
0.15814437
0.15738538
0.15634975
0.15502996
0.15338029
0.14183343
0.14521643
0.14878424
0.15225049
0.1555077
0.15847545
0.16107801
0.16325212
0.16495501
0.16618705
0.16697286
0.16734685
0.16736895
0.16710982
0.16663601
0.16601127
0.16528549
0.16450267
0.16369766
0.16289526
0.16211436
0.16136801
0.16066209
0.15999726
0.15936268
0.15874069
0.15808315
0.1573354
0.15631247
0.15500357
0.15336909
0.13780185
0.14127296
0.1449425
0.14856706
0.15203389
0.15525392
0.15814536
0.16063544
0.16267025
0.16423146
0.16532805
0.16598641
0.1662602
0.16621419
0.16591543
0.16543239
0.16482005
0.164127
0.16339275
0.16264621
0.16190955
0.16119848
0.16052089
0.15987903
0.15926333
0.15865712
0.15801326
0.15727837
0.15627001
0.15497357
0.15335544
0.13454844
0.13797392
0.14160169
0.14524104
0.14878721
0.15214782
0.15523581
0.15797005
0.16028503
0.16214378
0.16353735
0.16447959
0.16501354
0.16519519
0.16508877
0.16476426
0.16428066
0.16369085
0.16303863
0.16235717
0.16167219
0.16100235
0.16035787
0.15974278
0.159149
0.15856106
0.15793297
0.1572128
0.15622122
0.15493926
0.15333924
0.13215039
0.135413
0.13887329
0.14239293
0.1458851
0.14926288
0.1524388
0.15532671
0.15785106
0.15995791
0.16161942
0.16283336
0.1636269
0.16404518
0.16414598
0.16399642
0.1636572
0.16318503
0.16262732
0.16202148
0.16139683
0.16077523
0.16016947
0.15958565
0.15901743
0.15845068
0.15784083
0.15713752
0.15616526
0.15490005
0.15331985
0.13061798
0.13361481
0.13680764
0.1400953
0.14341442
0.1466907
0.14984214
0.15278273
0.15543099
0.15771985
0.1596039
0.16106291
0.16210526
0.16276135
0.16307919
0.16311875
0.16293985
0.16260015
0.1621504
0.16163193
0.16107746
0.16051217
0.15995168
0.15940437
0.1588659
0.15832371
0.15773493
0.15705096
0.15610082
0.15485511
0.1532967
0.12984667
0.13250762
0.13537
0.13835424
0.14141322
0.14449079
0.14751629
0.15040997
0.15309051
0.15548368
0.15753047
0.15919349
0.16046144
0.1613472
0.1618846
0.16212365
0.16211895
0.16192703
0.16159906
0.16118067
0.16070739
0.16020757
0.15969984
0.15919509
0.15869127
0.15817757
0.15761315
0.15695132
0.15602645
0.1548035
0.15326909
0.12969727
0.13199212
0.13448953
0.13713231
0.13987943
0.14268932
0.14550763
0.14826646
0.15089093
0.1533064
0.15544631
0.1572597
0.15871727
0.15981323
0.16056438
0.16100667
0.1611872
0.16115649
0.16096457
0.16065945
0.16027928
0.15985516
0.15940871
0.15895347
0.15848992
0.15800924
0.15747298
0.15683653
0.15594048
0.15474407
0.15323612
0.13007993
0.1319996
0.13411276
0.13638275
0.13878495
0.14128307
0.14383639
0.14639076
0.14888217
0.15124166
0.15340169
0.15530338
0.15690338
0.15817848
0.15912739
0.1597694
0.16013993
0.16028113
0.16023865
0.16006015
0.15978553
0.1594482
0.15907253
0.15867463
0.15825778
0.15781533
0.15731157
0.15670415
0.15584093
0.15467541
0.15319675
0.13076864
0.13235694
0.13411549
0.13602685
0.13807691
0.14024332
0.14249738
0.14479902
0.14709741
0.14933353
0.15144458
0.15336989
0.1550576
0.15647061
0.15759071
0.15841977
0.15897788
0.15929657
0.15941459
0.15937526
0.15921866
0.1589797
0.15868506
0.15835321
0.15799029
0.15759194
0.15712564
0.15655142
0.15572545
0.15459581
0.15314972
0.13159929
0.13289896
0.13434659
0.13593376
0.13765531
0.13950006
0.14144951
0.14347735
0.14554653
0.14761033
0.14961496
0.15150364
0.15322217
0.15472489
0.15598009
0.15697345
0.15770868
0.15820393
0.15848846
0.15859881
0.15857192
0.15844288
0.15823991
0.15798349
0.15768244
0.15733478
0.15691148
0.15637536
0.15559127
0.15450316
0.15309357
0.13243043
0.13349173
0.13467978
0.1359898
0.13742203
0.13897409
0.14063663
0.14239439
0.14422225
0.14608595
0.147943
0.14974489
0.15144075
0.15298236
0.15432964
0.15545533
0.15634787
0.15701096
0.15746172
0.15772761
0.15784018
0.15783174
0.15773095
0.15755963
0.15732893
0.15703914
0.15666494
0.15617204
0.1554351
0.15439484
0.15302657
0.13318977
0.13405721
0.13503261
0.13611531
0.13730883
0.13861153
0.14001926
0.1415248
0.14311488
0.14476728
0.14645133
0.14812883
0.14975617
0.15128778
0.15268069
0.15389947
0.15492039
0.15573344
0.15634254
0.15676383
0.15702118
0.15714195
0.15715285
0.15707615
0.15692441
0.15670003
0.15638152
0.15593737
0.15525316
0.15426763
0.15294669
0.13389648
0.13460647
0.13540697
0.13629862
0.13728708
0.1383763
0.13956395
0.14084505
0.14221307
0.14365713
0.14515749
0.14668647
0.14820965
0.14968786
0.15108023
0.15234842
0.15346095
0.15439675
0.15514721
0.15571623
0.15611776
0.1563721
0.15650212
0.15652835
0.15646388
0.15631249
0.15605641
0.15566687
0.15504107
0.15411756
0.15285152
0.13459842
0.13517712
0.13583127
0.13656226
0.13737511
0.13827657
0.13927088
0.14035481
0.14152367
0.14277048
0.14408501
0.14545059
0.14684283
0.14823083
0.14957935
0.15085169
0.15201344
0.15303639
0.1539017
0.15460165
0.15513925
0.15552591
0.15577825
0.15591333
0.15594317
0.1558719
0.15568485
0.15535574
0.15479395
0.15393978
0.15273811
0.13536355
0.13583011
0.13635881
0.13695171
0.1376139
0.13835063
0.13916879
0.14007352
0.14106146
0.14212665
0.14326126
0.14445603
0.14569757
0.14696503
0.14823082
0.14946316
0.1506289
0.15169701
0.15264194
0.15344646
0.15410301
0.15461316
0.15498541
0.15523121
0.15535991
0.15537452
0.15526241
0.15499917
0.1545065
0.15372864
0.15260272
0.13625098
0.13662106
0.13704127
0.13751394
0.1380439
0.13863614
0.13929549
0.14002813
0.14084064
0.14173185
0.14269529
0.14372395
0.14480767
0.14593363
0.14708473
0.14823695
0.1493619
0.15042983
0.15141253
0.15228647
0.15303542
0.15365135
0.1541337
0.15448661
0.15471466
0.15481839
0.15478557
0.15459275
0.15417336
0.15347774
0.15244042
0.13727721
0.1375645
0.1378913
0.13825998
0.13867488
0.13914067
0.13966208
0.14024342
0.14088966
0.14160812
0.14240303
0.14326745
0.14419227
0.14516852
0.14618385
0.14722257
0.14826557
0.14928823
0.15026344
0.15116517
0.15197146
0.15266637
0.1532405
0.15368978
0.15401233
0.1542044
0.1542526
0.15413313
0.15378967
0.15318035
0.15224453
0.13843863
0.13865565
0.138903
0.13918288
0.13949903
0.13985556
0.1402569
0.14070756
0.14121183
0.14177355
0.14239815
0.14309227
0.14385459
0.14467602
0.14554616
0.14645306
0.14738342
0.14832112
0.14924478
0.1501299
0.1509526
0.15169181
0.15233088
0.15285777
0.15326325
0.15353763
0.15366476
0.15361904
0.15335203
0.15282983
0.15200531
0.13971819
0.13987668
0.14005768
0.14026311
0.14049602
0.1407598
0.14105821
0.14139522
0.14177496
0.14220137
0.14267787
0.14320861
0.1438001
0.14445673
0.14517262
0.14593688
0.14673913
0.14756552
0.14840027
0.14922651
0.15002283
0.15076664
0.15143676
0.15201472
0.15248416
0.1528287
0.15302775
0.15305272
0.15286007
0.15242208
0.15171162
0.14107105
0.14118104
0.14130702
0.14145057
0.14161406
0.14180019
0.142012
0.14225286
0.1425264
0.14283649
0.1431871
0.14358193
0.14402399
0.1445173
0.1450689
0.14568101
0.14634149
0.14703834
0.14775994
0.14849317
0.14922343
0.14993123
0.15059446
0.15119088
0.15169849
0.15209457
0.15235316
0.15244187
0.15231886
0.15195886
0.15136343
0.14246786
0.14253838
0.14261956
0.14271259
0.14281923
0.14294149
0.14308172
0.14324255
0.14342697
0.14363828
0.14388009
0.14415622
0.14447055
0.14482664
0.14522738
0.14567758
0.14618275
0.14673721
0.14732971
0.14795034
0.14858589
0.14922186
0.14984067
0.1504202
0.15093541
0.15135881
0.15165955
0.15180138
0.15174158
0.15145295
0.15097975
0.14386577
0.14390463
0.14394988
0.14400233
0.1440632
0.1441339
0.14421612
0.14431182
0.14442327
0.14455307
0.14470419
0.14487993
0.14508388
0.14531977
0.1455911
0.14590072
0.14625287
0.14665511
0.14710935
0.14760331
0.14812634
0.1486654
0.14920766
0.14973652
0.15022734
0.1506505
0.15097232
0.15115384
0.15115103
0.15093329
0.1505678
0.1452316
0.14524495
0.14526127
0.14528106
0.14530507
0.14533422
0.14536963
0.14541264
0.14546487
0.14552826
0.14560507
0.14569795
0.14580996
0.14594454
0.14610549
0.14629676
0.14652224
0.1467853
0.14709171
0.14744678
0.14784237
0.14826963
0.14871667
0.1491686
0.14960603
0.15000137
0.15032164
0.15052788
0.15057638
0.15043003
0.15009876
0.14652827
0.14652217
0.14651638
0.14651112
0.14650677
0.1465038
0.14650288
0.1465048
0.14651061
0.14652158
0.14653932
0.14656578
0.14660335
0.14665486
0.14672369
0.1468137
0.14692909
0.14707398
0.14725181
0.14746787
0.14773095
0.14803868
0.14837842
0.1487371
0.1490985
0.14944171
0.14973876
0.14995381
0.15004524
0.14997752
0.14979405
0.14770676
0.14768807
0.14766771
0.14764566
0.14762198
0.14759682
0.14757045
0.14754321
0.14751554
0.14748807
0.14746167
0.14743748
0.14741706
0.14740249
0.14739658
0.14740287
0.1474257
0.14747011
0.14754107
0.14764375
0.14778296
0.14796606
0.14819283
0.14845078
0.14872149
0.14899491
0.14925267
0.14946756
0.14960789
0.14962402
0.1492491
0.1486324
0.14861217
0.14858971
0.14856477
0.14853703
0.14850634
0.14847255
0.14843565
0.14839556
0.14835227
0.14830579
0.14825611
0.14820315
0.14814727
0.14809201
0.14804097
0.14799727
0.14796302
0.14794171
0.14794011
0.14796805
0.14803038
0.14812698
0.14826486
0.14843302
0.14861966
0.14881775
0.14901967
0.14922423
0.14934056
0.1488657
0.14893158
0.14891401
0.1488947
0.14887352
0.1488503
0.14882475
0.14879644
0.1487649
0.14872988
0.14869116
0.14864856
0.14860197
0.14855134
0.14849669
0.14843914
0.14838177
0.14832728
0.14827708
0.14823106
0.14819009
0.1481574
0.14813593
0.14813438
0.14816845
0.14822098
0.14828237
0.14837403
0.14849492
0.14858436
0.14878649
0.14809442
0.14898326
0.14897534
0.1489661
0.14895514
0.14894206
0.14892647
0.14890804
0.14888648
0.14886162
0.14883338
0.14880188
0.14876745
0.14873067
0.14869236
0.14865365
0.14861594
0.14858094
0.14855033
0.14852543
0.14850682
0.14849401
0.14848498
0.14847109
0.14843004
0.14836566
0.14831277
0.14832625
0.14838754
0.14829961
0.14883939
0.14682856
0.13234502
0.13856289
0.14479072
0.15063294
0.15594602
0.16071145
0.16448419
0.16760274
0.16998838
0.17164055
0.17262597
0.17301847
0.17292804
0.17247164
0.17171572
0.17076166
0.16970033
0.16857567
0.16742977
0.16629578
0.1651963
0.16414621
0.16315256
0.16221484
0.16132202
0.16045085
0.15955233
0.15854219
0.15724462
0.15571288
0.15374247
0.14079918
0.14693961
0.15245122
0.15734927
0.16165784
0.16531114
0.16824158
0.17055646
0.17221773
0.17325229
0.173729
0.17372366
0.17335857
0.17270011
0.17179697
0.17074914
0.16963575
0.16848079
0.16732088
0.16618289
0.16508602
0.16404246
0.16305739
0.16212911
0.16124573
0.16038381
0.15949389
0.15849287
0.15720481
0.15568125
0.15372837
0.14903199
0.15412014
0.15865889
0.16267263
0.16613883
0.16899734
0.17123443
0.17290252
0.17398765
0.17453481
0.17460681
0.17430107
0.17371481
0.17288746
0.1718586
0.17073727
0.16957902
0.16839635
0.16722216
0.166079
0.16498321
0.16394452
0.16296653
0.16204643
0.16117158
0.16031829
0.15943665
0.15844463
0.15716568
0.15564995
0.153713
0.15764315
0.16164435
0.16512778
0.16811879
0.17061758
0.17260198
0.17408081
0.1750811
0.17559563
0.17567451
0.17538502
0.17480503
0.17401601
0.17302728
0.17189003
0.17070969
0.16951017
0.16830288
0.16711676
0.16597014
0.16487656
0.16384356
0.16287325
0.16196184
0.16109594
0.16025165
0.15937862
0.15839592
0.15712647
0.1556189
0.15369703
0.16634626
0.16906574
0.17135544
0.17326352
0.1747925
0.17593077
0.17667818
0.17703735
0.17701754
0.17668402
0.17606413
0.17524086
0.17425832
0.17312065
0.17189783
0.17066859
0.16943067
0.16820237
0.16700687
0.16585851
0.16476821
0.16374155
0.16277932
0.16187684
0.16102005
0.16018487
0.1593206
0.1583474
0.15708752
0.15558818
0.15368038
0.17478315
0.17611528
0.17721496
0.17805612
0.17864787
0.17897241
0.17900844
0.17877313
0.17827427
0.17755972
0.17665073
0.17560183
0.1744399
0.17317413
0.171888
0.17061348
0.16934173
0.1680961
0.16689349
0.16574483
0.16465865
0.16363879
0.16268487
0.16179143
0.16094384
0.16011788
0.1592625
0.15829896
0.15704877
0.1555578
0.15366261
0.18256115
0.18260036
0.18257153
0.18242449
0.18213669
0.18169311
0.18107158
0.1802908
0.17936834
0.1783107
0.17713886
0.17588626
0.17456013
0.17319769
0.17186207
0.17054319
0.16924358
0.16798414
0.16677662
0.16562906
0.16454782
0.16353524
0.16258991
0.16170568
0.16086741
0.16005077
0.15920441
0.15825071
0.1570103
0.15552782
0.15364836
0.1896529
0.1884794
0.18738204
0.18630931
0.18521307
0.18406905
0.18286429
0.18160485
0.18029597
0.17893445
0.17752897
0.17609092
0.17462892
0.17319817
0.17181653
0.17045844
0.16913655
0.16786666
0.16665641
0.16551133
0.16443588
0.16343107
0.1624946
0.16161974
0.16079088
0.15998365
0.15914642
0.1582027
0.15697214
0.15549828
0.15363262
0.19583729
0.1936252
0.19157851
0.18966502
0.18784676
0.1860941
0.18438208
0.18270417
0.18105786
0.17943175
0.17781603
0.17621673
0.17466089
0.17317736
0.17174975
0.17035998
0.16902102
0.16774394
0.16653311
0.16539187
0.16432301
0.16332645
0.16239908
0.16153372
0.16071437
0.1599166
0.1590886
0.15815497
0.15693435
0.15546919
0.15362046
0.20097517
0.19789385
0.19506318
0.19245346
0.1900328
0.18776513
0.18561987
0.18358677
0.18165279
0.17979161
0.17799484
0.17627967
0.17466398
0.17313383
0.17166306
0.17024857
0.16889738
0.16761629
0.16640697
0.16527089
0.16420941
0.16322154
0.16230351
0.16144777
0.16063797
0.15984973
0.15903102
0.15810759
0.15689699
0.15544058
0.15360731
0.20493169
0.20121462
0.1977987
0.19466012
0.19177125
0.18908231
0.18657349
0.18424025
0.18205997
0.18000875
0.17808592
0.17630153
0.17463953
0.17306291
0.17155711
0.17012472
0.16876602
0.16748403
0.16627827
0.16514862
0.16409528
0.16311652
0.16220806
0.16136202
0.16056183
0.15978312
0.15897376
0.1580606
0.15686009
0.15541242
0.15359368
0.20786017
0.20366008
0.19980858
0.19627682
0.19302518
0.19000303
0.18721311
0.18465
0.18229059
0.18011552
0.1781218
0.1762906
0.17457866
0.17296134
0.17143225
0.16998893
0.16862733
0.16734752
0.1661473
0.16502531
0.16398084
0.1630116
0.16211288
0.16127662
0.16048604
0.15971687
0.15891688
0.15801406
0.15682372
0.15538474
0.15357948
0.20991914
0.20535822
0.20116762
0.19731614
0.19377933
0.19053279
0.18757245
0.18487102
0.18239928
0.18015187
0.17811278
0.17622981
0.1744738
0.17283086
0.17128918
0.16984169
0.16848174
0.1672071
0.16601437
0.16490123
0.16386633
0.16290697
0.16201816
0.16119172
0.16041075
0.15965109
0.15886046
0.15796799
0.1567879
0.15535753
0.15356472
0.21111558
0.20637735
0.20199453
0.19791784
0.19416266
0.19078485
0.18773721
0.18495736
0.18242054
0.1801226
0.17803227
0.17610662
0.17432683
0.17267288
0.17112847
0.16968351
0.16832969
0.16706317
0.16587982
0.16477668
0.163752
0.16280285
0.16192407
0.16110747
0.16033607
0.15958587
0.15880458
0.15792246
0.15675269
0.15533081
0.15354941
0.2109713
0.20634386
0.20200288
0.19793771
0.19417836
0.19076164
0.18766712
0.18485499
0.182301
0.17997944
0.17785998
0.17592201
0.17413913
0.17248809
0.17095069
0.1695149
0.16817162
0.16691613
0.16574399
0.16465196
0.16363811
0.16269946
0.16183082
0.16102403
0.16026213
0.1595213
0.15874929
0.15787749
0.15671811
0.15530461
0.15353307
0.20918768
0.2049053
0.20086128
0.19707944
0.19356513
0.19028397
0.1872581
0.18449892
0.18198649
0.17969421
0.17759575
0.17567667
0.17391108
0.17227697
0.17075633
0.16933634
0.168008
0.16676639
0.16560726
0.1645274
0.16352495
0.16259706
0.1617386
0.16094157
0.16018906
0.15945749
0.15869467
0.15783312
0.15668419
0.15527892
0.1535203
0.2066883
0.20278178
0.19908826
0.19562135
0.1923764
0.18933628
0.18650557
0.1838894
0.18148545
0.17927623
0.17724098
0.17537048
0.17364283
0.17203994
0.17054586
0.16914833
0.16783931
0.16661441
0.16547003
0.16440334
0.16341281
0.16249588
0.16164762
0.16086025
0.16011699
0.15939453
0.15864079
0.15778939
0.15665095
0.15525378
0.15350643
0.20318535
0.19982141
0.19660749
0.19356469
0.19069105
0.18798055
0.18542809
0.18303504
0.18080435
0.17872926
0.17679597
0.17500315
0.17333441
0.17177728
0.17031972
0.16895136
0.16766603
0.16646063
0.16533271
0.16428015
0.16330201
0.16239619
0.1615581
0.16078026
0.16004607
0.15933253
0.1585877
0.15774632
0.1566184
0.15522915
0.15349211
0.19871864
0.19603271
0.19342431
0.19092323
0.18852601
0.18623091
0.18403637
0.18193889
0.17994362
0.17805297
0.17626013
0.17457419
0.1729857
0.17148919
0.17007828
0.16874591
0.16748869
0.16630558
0.16519578
0.16415825
0.16319289
0.16229829
0.16147026
0.16070176
0.15997641
0.15927157
0.15853547
0.15770395
0.15658653
0.15520503
0.15347679
0.19331548
0.19142794
0.18954508
0.18769949
0.18588157
0.18409155
0.18233372
0.18060158
0.17890212
0.17724589
0.17563238
0.17408282
0.17259635
0.17117575
0.16982191
0.16853251
0.16730788
0.16614982
0.16505974
0.16403808
0.16308584
0.16220247
0.16138436
0.16062494
0.15990817
0.15921177
0.15848416
0.15766228
0.15655534
0.15518139
0.15346501
0.18703329
0.18604007
0.18498994
0.18390586
0.18276603
0.18156831
0.18032345
0.17902297
0.17767799
0.1763056
0.17491104
0.17352797
0.1721659
0.17083706
0.16955109
0.16831184
0.16712434
0.16599406
0.16492522
0.16392017
0.16298128
0.16210907
0.16130064
0.16054999
0.15984147
0.1591532
0.15843382
0.15762135
0.1565248
0.15515822
0.15345212
0.17992311
0.17989738
0.17978055
0.17955592
0.17918525
0.17866368
0.17800419
0.17719719
0.17626556
0.17522665
0.17409288
0.17290805
0.17169395
0.1704736
0.16926676
0.16808502
0.16693919
0.16583931
0.16479308
0.1638052
0.16287974
0.16201849
0.1612194
0.16047713
0.15977647
0.15909596
0.1583845
0.15758116
0.15649488
0.15513547
0.15343881
0.17191685
0.17288118
0.17380962
0.17456047
0.17507382
0.17533456
0.17534212
0.17509765
0.17464666
0.17399514
0.17316998
0.17221939
0.17117926
0.1700856
0.16896985
0.16785318
0.16675353
0.16568651
0.16466405
0.16369372
0.16278161
0.16193098
0.16114081
0.16040647
0.15971323
0.15904009
0.15833618
0.15754166
0.15646549
0.15511308
0.15342502
0.1632104
0.16476868
0.16661837
0.16840655
0.16996156
0.1711983
0.17206349
0.17255611
0.1727126
0.17254474
0.17210679
0.17144624
0.17061772
0.16967525
0.16866547
0.16762241
0.16657334
0.165541
0.16454262
0.16358937
0.16268974
0.16184876
0.16106652
0.16033922
0.15965263
0.15898622
0.15828935
0.15750317
0.1564367
0.15509091
0.15341004
0.12925724
0.13525618
0.14129083
0.1472156
0.15277512
0.15782967
0.16208
0.16559936
0.16836939
0.1703817
0.17168937
0.17235963
0.17248136
0.17218081
0.17155238
0.17068873
0.16968496
0.16859849
0.16747663
0.16635661
0.16526342
0.16421463
0.163219
0.16227727
0.16137931
0.16050228
0.15959781
0.15858094
0.157277
0.15574092
0.15376088
0.12972348
0.13555917
0.14119954
0.14667983
0.15190946
0.15672966
0.16091916
0.16445198
0.16729899
0.16943596
0.17089382
0.1717233
0.17199021
0.17181157
0.17129198
0.17051757
0.16957966
0.16854189
0.16745512
0.16635923
0.16528252
0.16424399
0.16325382
0.16231401
0.16141547
0.16053586
0.15962757
0.15860511
0.15729634
0.15575733
0.15376886
0.13034789
0.13575542
0.14096248
0.14606612
0.15098819
0.15559794
0.15970708
0.16324972
0.16617538
0.16844007
0.17005234
0.17104518
0.17146512
0.17141856
0.17101389
0.17033242
0.16946416
0.16847974
0.16743213
0.1663626
0.16530326
0.16427577
0.16329145
0.16235368
0.16145451
0.16057215
0.1596598
0.15863145
0.15731751
0.15577544
0.15377923
0.13063844
0.13576422
0.1406578
0.14545705
0.15011737
0.15453267
0.15854693
0.16207746
0.16505828
0.16743153
0.16918483
0.17033272
0.17090473
0.17099473
0.17070934
0.17012613
0.16933353
0.1684069
0.16740209
0.16636195
0.16532201
0.16430713
0.16332973
0.16239467
0.16149522
0.16061016
0.15969367
0.15865914
0.15733985
0.15579474
0.15379158
0.13092622
0.13582288
0.14046138
0.14496969
0.14936593
0.15357499
0.1574691
0.16095705
0.16396305
0.16641931
0.1682949
0.16958631
0.17030714
0.17053636
0.17037446
0.16989505
0.16918442
0.16832089
0.16736302
0.16635621
0.16533831
0.16433772
0.16336851
0.16243693
0.16153761
0.16064998
0.15972926
0.15868829
0.13130896
0.13596982
0.14034565
0.1445879
0.14872917
0.15272439
0.15647559
0.15989244
0.16289463
0.16540774
0.16738522
0.12127314
0.12241802
0.12338756
0.12412114
0.12481187
0.10655766
0.11785597
0.15610428
0.15373893
0.092280587
0.11249942
0.12142602
0.12690172
0.098389286
0.11671569
0.12487044
0.13052687
0.13515642
0.10254119
0.12154564
0.13180306
0.13773899
0.14166721
0.1446702
0.12890183
0.14532353
0.15052395
0.15214355
0.15331338
0.15454624
0.1506387
0.16460373
0.16583342
0.16521376
0.16471451
0.16454942
0.17004755
0.18282914
0.18123564
0.17820021
0.17594927
0.17437829
0.18774149
0.19798488
0.19421017
0.18963663
0.18612253
0.1834565
0.20399825
0.21140537
0.20568812
0.1997903
0.19523102
0.19166305
0.21844073
0.22204511
0.21511603
0.20844558
0.20309888
0.19878974
0.23242223
0.23123178
0.2226919
0.21546564
0.20956754
0.20470288
0.24587746
0.23956013
0.22852813
0.22060082
0.21437899
0.20919407
0.2510015
0.24480954
0.23333837
0.22491673
0.2181753
0.21258373
0.25492046
0.24739336
0.23631388
0.22780869
0.2208644
0.21499295
0.25441083
0.24744812
0.23751493
0.22929676
0.22234414
0.21635523
0.25441694
0.24742122
0.23741966
0.22905747
0.22206928
0.21610192
0.25444244
0.24661928
0.23573703
0.2270586
0.22000826
0.21407688
0.25243019
0.24353012
0.23276741
0.2242269
0.21725161
0.21136253
0.2486663
0.23921947
0.22844289
0.2200351
0.21321748
0.20747467
0.24327202
0.23331139
0.22273612
0.21460483
0.20803955
0.20251564
0.23634743
0.22601604
0.2157709
0.20799927
0.20176059
0.196524
0.22791349
0.21740872
0.20760591
0.20028488
0.19445388
0.18957674
0.21798972
0.20754406
0.19830365
0.19152535
0.18618359
0.18175361
0.19643146
0.18785529
0.18170603
0.17693291
0.17302249
0.17640839
0.17092631
0.16683089
0.16370228
0.15003399
0.14530892
0.14050957
0.13617647
0.1325751
0.129834
0.12800107
0.12707854
0.12690251
0.12730663
0.12814449
0.12920829
0.12909551
0.13033825
0.1303769
0.13140242
0.13149486
0.13234751
0.13250057
0.1332061
0.13346552
0.13403823
0.13446658
0.13491793
0.13556091
0.13590509
0.13676339
0.13701644
0.13807119
0.13824902
0.13946843
0.13958638
0.1409151
0.14098585
0.14238557
0.14241967
0.14384055
0.14384657
0.14525161
0.14523547
0.14658156
0.14654933
0.14777777
0.14773766
0.14869334
0.14865988
0.14898028
0.14895328
0.14900433
0.14899293
)
;

boundaryField
{
    Side1
    {
        type            empty;
    }
    Inlet
    {
        type            calculated;
        value           nonuniform List<scalar> 
92
(
0.15129437
0.15128794
0.15128145
0.15162249
0.15161453
0.1516052
0.15159419
0.15158121
0.15156592
0.15154788
0.15152657
0.1515014
0.15147164
0.15143648
0.15139494
0.15134586
0.15128787
0.15121919
0.15113752
0.15103972
0.15092122
0.15077689
0.1506075
0.150424
0.15023265
0.1496852
0.14985927
0.14927058
0.14906141
0.14895123
0.14977318
0.14977318
0.14977318
0.14977318
0.14977318
0.14977318
0.14977318
0.14977318
0.14977318
0.14977318
0.14977318
0.14977318
0.14977318
0.14977318
0.14977318
0.14977318
0.14977318
0.14977318
0.14977318
0.14977318
0.14977318
0.14977318
0.14977318
0.14977318
0.14977318
0.14977318
0.14977318
0.14977318
0.14977318
0.14977318
0.1482998
0.14977318
0.15182904
0.15182117
0.15181272
0.15180405
0.1517951
0.15143691
0.15177777
0.15142054
0.15176217
0.15175471
0.15174709
0.15173924
0.15173117
0.15172289
0.15136588
0.15170695
0.15169925
0.1516914
0.15133503
0.1516763
0.15166903
0.1516616
0.15165399
0.15164583
0.1514898
0.15149429
0.15149989
0.1515064
0.14977318
0.14977318
)
;
    }
    Side2
    {
        type            empty;
    }
    Outlet
    {
        type            calculated;
        value           nonuniform List<scalar> 0();
    }
    Botwall
    {
        type            calculated;
        value           nonuniform List<scalar> 0();
    }
    Cyli
    {
        type            calculated;
        value           uniform 0;
    }
    procBoundary2to0
    {
        type            processor;
        value           nonuniform List<scalar> 
55
(
0.10507642
0.10788948
0.11039284
0.11256972
0.11436306
0.072247361
0.099166903
0.052363387
0.08439504
0.08439504
0.16426256
0.15948468
0.15948468
0.14480275
0.14317237
0.055511933
0.055511933
0.062026817
0.062026817
0.20672781
0.20672781
0.18429678
0.18429678
0.14001257
0.13545922
0.13149568
0.12820514
0.1256897
0.12401308
0.1231928
0.12315707
0.12377275
0.12485231
0.12621255
0.12767321
0.12767321
0.12786988
0.12935372
0.13063789
0.13178884
0.13288673
0.13400949
0.13521115
0.13650501
0.13788847
0.1393464
0.14084133
0.14234963
0.14383388
0.14526823
0.14661501
0.14781897
0.14872773
0.14900888
0.14901601
)
;
    }
    procBoundary2to3
    {
        type            processor;
        value           nonuniform List<scalar> 
35
(
0.15736347
0.15581535
0.15380623
0.16880682
0.16967142
0.17004085
0.17000605
0.16963595
0.16901375
0.16821917
0.16731299
0.16634365
0.1653512
0.16436688
0.16340738
0.16248025
0.16158158
0.16069155
0.15976654
0.15736347
0.15871885
0.13170696
0.12551681
0.13614324
0.14027769
0.14427331
0.14817391
0.15195768
0.15555316
0.15887796
0.1618523
0.16439847
0.16880682
0.16645807
0.12551681
)
;
    }
}


// ************************************************************************* //
