/*--------------------------------*- C++ -*----------------------------------*\
| =========                 |                                                 |
| \\      /  F ield         | OpenFOAM: The Open Source CFD Toolbox           |
|  \\    /   O peration     | Version:  2406                                  |
|   \\  /    A nd           | Website:  www.openfoam.com                      |
|    \\/     M anipulation  |                                                 |
\*---------------------------------------------------------------------------*/
FoamFile
{
    version     2.0;
    format      ascii;
    arch        "LSB;label=32;scalar=64";
    class       volScalarField;
    location    "0.02";
    object      omega;
}
// * * * * * * * * * * * * * * * * * * * * * * * * * * * * * * * * * * * * * //

dimensions      [0 0 -1 0 0 0 0];

internalField   nonuniform List<scalar> 
2065
(
21383.185
18073.674
14980.191
12250.706
9909.9622
7935.5515
6292.5317
4942.8172
3848.1766
2971.2662
2277.0206
1733.7642
1313.0775
990.25174
744.34817
558.08354
417.56347
311.85558
232.50242
173.02809
128.52791
95.298821
70.547594
52.161628
38.539398
28.464988
21.01386
15.480995
11.329343
8.1719081
5.7444981
17573.214
15018.176
12679.703
10571.689
8705.4093
7082.2092
5694.5297
4527.8868
3562.9249
2776.9275
2145.8076
1645.8767
1254.616
951.57783
718.86983
541.3464
406.58894
304.66659
227.79383
169.94408
126.50779
93.975633
69.680994
51.59421
38.168072
28.222147
20.855111
15.377155
11.260912
8.1254015
5.7093939
14299.117
12418.516
10658.686
9035.451
7561.3607
6245.6717
5092.7942
4101.402
3264.6283
2570.8261
2005.0377
1550.6844
1190.7906
909.0839
690.72889
522.78109
394.37235
296.64017
222.52385
166.48523
124.23818
92.48683
68.704704
50.954281
37.748887
27.947756
20.675579
15.259597
11.183368
8.0727109
5.6725093
11491.198
10150.098
8853.0161
7624.6883
6480.5885
5433.9099
4494.6285
3668.4773
2956.4103
2354.6668
1855.5136
1448.4963
1121.6612
862.71079
659.8284
502.29014
380.83021
287.71029
216.64274
162.61518
121.69308
90.814095
67.606004
50.23312
37.275932
27.637862
20.472659
15.12666
11.095684
8.013146
5.6275958
9117.9796
8184.4183
7249.5463
6340.6377
5472.2047
4657.8904
3909.4904
3235.9642
2642.6709
2131.0105
1698.5873
1339.9311
1047.4559
812.4912
626.11278
479.79269
365.88377
277.81066
210.09877
158.29538
118.84461
88.937729
66.371182
49.421296
36.742787
27.288128
20.243442
14.976407
10.996585
7.9458495
5.5763125
7143.9173
6505.2217
5846.5503
5190.0128
4546.9864
3929.115
3347.4577
2811.5781
2328.7146
1903.1904
1536.1881
1226.0033
968.64291
758.6017
589.60847
455.25
349.47483
266.88402
202.84346
153.48787
115.66442
86.83718
64.985677
48.508662
36.142466
26.893796
19.984716
14.806695
10.884658
7.8698805
5.518489
5525.5021
5095.8246
4641.9141
4179.1274
3715.2146
3258.7817
2818.732
2403.5541
2020.5666
1675.2565
1370.8388
1108.1672
885.98256
701.39396
550.44906
428.68227
331.5752
254.88733
194.83428
148.15656
112.12417
84.491264
63.434136
47.484338
35.467388
26.449649
19.692936
14.615143
10.758334
7.7842035
5.4535044
4218.5579
3934.6379
3628.6968
3310.3919
2984.4205
2656.4371
2332.7953
2020.1009
1724.6447
1451.8153
1205.6037
988.31782
800.55926
641.43086
508.89542
400.18695
312.19837
241.79876
186.03863
142.26944
108.19679
81.87876
61.700702
46.336843
34.709423
25.950028
19.364217
14.399127
10.615881
7.6876876
5.3807088
3180.2271
2996.1468
2794.5053
2580.8742
2357.7851
2128.5764
1897.3198
1668.6128
1447.2344
1237.7215
1043.9392
868.73918
713.77704
579.51127
465.36011
369.9538
291.41365
227.62638
176.43908
135.80156
103.85806
78.979281
59.769448
45.054292
33.859972
25.388849
18.994336
14.155771
10.455397
7.5791051
5.2994194
2369.2102
2252.2114
2122.2724
1982.3609
1833.6195
1677.8038
1517.2559
1354.8544
1193.8555
1037.6453
889.43829
751.97977
627.31414
516.66252
420.42441
338.28128
269.35716
212.41837
166.03957
128.73884
99.088788
75.774449
57.62499
43.624702
32.910106
24.759659
18.57874
13.881942
10.2748
7.4571339
5.2089145
1747.232
1674.1929
1592.1945
1502.6705
1405.9581
1302.8126
1194.4124
1082.3668
968.67004
855.58912
745.49381
640.65105
543.02204
454.10175
374.83089
305.58748
246.24276
196.27141
154.87272
121.08257
93.87759
72.249482
55.253359
42.03644
31.850789
24.055734
18.11259
13.574263
10.071834
7.320363
5.1084283
1279.5858
1234.5236
1183.5991
1127.3367
1065.7279
998.97311
927.54646
852.21898
774.06858
694.45229
614.93369
537.16931
462.76935
393.15693
329.45289
272.40523
222.36892
179.33736
143.0066
112.85473
88.224235
68.395252
52.643186
40.278881
30.67321
23.270244
17.590824
13.229131
9.8440747
7.1673021
4.9971516
934.86236
907.11073
875.61377
840.52116
801.6867
759.06611
712.76884
663.08107
610.49675
555.72963
499.69877
443.48327
388.24806
335.14926
285.23484
239.35781
198.11607
161.82893
130.54948
104.10329
82.143624
64.210814
49.78724
38.343282
29.369267
22.396492
17.008276
12.842779
9.588945
6.9963947
4.8742437
684.9088
667.5264
647.78113
625.68502
601.0772
573.84565
543.94582
511.42822
476.46498
439.37274
400.62424
360.84309
320.77765
281.25318
243.10693
207.11592
173.92937
144.01881
117.65413
94.905921
75.669879
59.706449
46.684362
36.223962
27.932233
21.428273
16.359846
12.411337
9.3037445
6.8060349
4.7388638
505.18124
493.87411
481.07572
466.76339
450.80976
433.10587
413.56914
392.16443
368.91742
343.93361
317.41739
289.68373
261.15861
232.36435
203.88856
176.33882
150.28915
126.22801
104.51802
85.373693
68.859502
54.906829
43.341817
33.919783
26.357646
20.360375
15.640762
11.930949
8.9856933
6.5945862
4.5902243
375.44507
367.72833
359.0585
349.41301
338.70708
326.8588
313.79586
299.465
283.84248
266.94389
248.83733
229.65792
209.61833
189.01142
168.20262
147.60973
127.67107
108.80616
91.37619
75.651894
61.794615
49.85371
39.777707
31.436007
24.644458
19.189257
14.846948
11.397954
8.6319976
6.3603996
4.4276515
280.17145
274.70196
268.61568
261.89154
254.47862
246.32521
237.38156
227.6026
216.95599
205.42884
193.03377
179.81785
165.87232
151.34133
136.42624
121.38195
106.5038
92.105082
78.488404
65.915833
54.583904
44.60879
36.023452
28.786152
22.796479
17.913936
13.975528
10.809138
8.2399442
6.101828
4.2506199
208.54872
204.62141
200.28629
195.52778
190.31661
184.62382
178.41965
171.67504
164.36318
156.46586
147.97705
138.90753
129.29028
119.18675
108.69445
97.951393
87.134413
76.450572
66.121486
56.362513
47.360454
39.254748
32.126053
25.994091
20.823882
16.537111
13.025506
10.162087
7.8070363
5.817234
4.0587193
153.72288
150.92714
147.85931
144.50878
140.8592
136.89473
132.59995
127.95896
122.95601
117.57525
111.80512
105.64193
99.093503
92.181882
84.948854
77.460289
69.809659
62.118187
54.529389
47.198269
40.276105
33.894036
28.149133
23.09595
18.744915
15.066396
11.998638
9.4556736
7.3311925
5.5049997
3.8515301
111.51963
109.57092
107.44219
105.1265
102.61496
99.899242
96.971304
93.823405
90.447607
86.835083
82.976414
78.863238
74.492102
69.8667
65.001151
59.92237
54.673601
49.31696
43.934174
38.62356
33.492169
28.644815
24.172261
20.141079
16.587485
13.515724
10.900449
8.690724
6.8110441
5.1635587
3.6284904
79.291091
77.966756
76.525669
74.963499
73.2757
71.458255
69.507398
67.419397
65.190431
62.816591
60.292909
57.613836
54.772525
51.764361
48.589722
45.255149
41.776625
38.181552
34.510227
30.816749
27.167072
23.633644
20.287874
17.191664
14.390105
11.906689
9.7414009
7.8708733
6.2463953
4.7914773
3.3890362
55.104622
54.227979
53.277452
52.250519
51.145132
49.959707
48.692919
47.343505
45.91006
44.390862
42.783801
41.085929
39.293091
37.400243
35.401703
33.294576
31.08035
28.767302
26.371595
23.918428
21.442075
18.985112
16.595306
14.320303
12.201673
10.269485
8.5381596
7.0036355
5.6389389
4.3876762
3.1336231
37.368462
36.801664
36.189387
35.530309
34.823792
34.069587
33.267696
32.418227
31.521225
30.576455
29.583172
28.539934
27.444637
26.294099
25.083748
23.808406
22.463552
21.047716
19.563315
18.018428
16.427089
14.809542
13.192094
11.605115
10.079607
8.6429853
7.3146414
6.1017273
4.9933931
3.951939
2.8667458
24.713298
24.353734
23.96689
23.552137
23.10955
22.639528
22.142703
21.619843
21.071739
20.499046
19.902095
19.28068
18.633865
17.959894
17.25626
16.519045
15.743938
14.92585
14.061069
13.148063
12.189092
11.190658
10.163484
9.1224325
8.0858525
7.073369
6.1024815
5.1845687
4.3192842
3.4860009
2.5970524
15.946622
15.71992
15.477179
15.21823
14.943491
14.653635
14.349539
14.032228
13.702794
13.362294
13.011616
12.651325
12.2815
11.901573
11.510236
11.105466
10.684204
10.242161
9.7744633
9.2761219
8.7436211
8.1750919
7.5717974
6.9378586
6.2806977
5.6108681
4.9402644
4.2794318
3.6334667
2.9960194
2.3276065
10.041692
9.8975101
9.7440744
9.5814998
9.4103358
9.231334
9.0454151
8.8536338
8.6571326
8.4570748
8.2545582
8.0505118
7.8455778
7.6399818
7.4333987
7.224825
7.0124855
6.7938224
6.5648704
6.3211358
6.0571327
5.7676661
5.4483668
5.0973333
4.7149877
4.304273
3.8706792
3.4211813
2.9625582
2.4971955
2.0487096
6.1880939
6.0921595
5.9908741
5.8845977
5.7739478
5.6597128
5.5428273
5.4243392
5.3053723
5.1870749
5.0705627
4.9568418
4.8467166
4.740675
4.6389104
4.5411644
4.446553
4.3534773
4.2595647
4.1612983
4.0537556
3.9314879
3.7886071
3.6196893
3.4218913
3.1934387
2.9348587
2.6489866
2.34255
2.0291691
1.7257985
3.7739983
3.7046387
3.632063
3.5567266
3.4792907
3.4005403
3.3213652
3.2427476
3.1657372
3.0914197
3.0208781
2.9551516
2.8951974
2.8418591
2.7956537
2.7566853
2.724526
2.6980736
2.6754663
2.6540271
2.6302636
2.5990868
2.5554509
2.4943896
2.4104611
2.300866
2.1643691
1.9998769
1.8099195
1.6101312
1.4925682
2.390166
2.3401816
2.2881193
2.2343052
2.1792469
2.1235951
2.0680957
2.0135965
1.9610185
1.9113137
1.8654324
1.8242868
1.7887144
1.759427
1.7369129
1.7213199
1.712366
1.709236
1.7105166
1.7141533
1.7173936
1.7168706
1.7084807
1.6904698
1.6605598
1.6190623
1.5651491
1.4966976
1.4176938
1.3344285
1.3365475
1.6293378
1.5974068
1.5642365
1.5301495
1.4955467
1.4608633
1.4265939
1.3932773
1.3614918
1.3318346
1.3048995
1.2812514
1.2613965
1.2457456
1.2345697
1.2279612
1.2257706
1.2275267
1.2323941
1.2390789
1.2456901
1.2499098
1.2487496
1.2418027
1.2285222
1.2115918
1.1931417
1.1723647
1.156185
1.1702993
1.1455363
1.1635432
1.1548079
1.1457016
1.1363116
1.1267471
1.1171383
1.107635
1.098402
1.0896137
1.0814473
1.074075
1.0676554
1.0623254
1.0581907
1.0553137
1.0536989
1.0532904
1.0539702
1.0555428
1.0576605
1.0597373
1.0609165
1.0599535
1.0560371
1.0506714
1.0460537
1.0425692
1.0374542
1.0346287
1.0544174
1.0234299
89862.141
74335.3
59648.268
46967.867
36484.07
28030.901
21281.957
15966.329
11836.571
8675.4902
6293.8435
4525.6404
3230.0646
2291.6187
1618.6807
1140.2909
802.41878
564.81263
398.0906
281.15319
199.04333
141.27236
100.53187
71.73389
51.329983
36.835055
26.502268
19.095298
13.739863
9.8302718
7.0021731
76220.463
61202.989
48902.422
38860.369
30600.732
23813.459
18296.74
13877.517
10393.934
7694.1905
5635.7536
4089.9678
2945.0191
2107.1259
1500.5115
1065.334
755.2443
535.31479
379.73622
269.77422
192.00839
136.93364
97.86223
70.095307
50.327059
36.22313
26.130079
18.869345
13.602349
9.7457731
6.9405515
68625.265
55341.567
44230.15
34988.119
27391.192
21231.121
16293.848
12376.272
9303.0307
6922.3435
5101.8117
3727.6647
2703.121
1947.933
1397.111
998.92792
712.97594
508.60759
362.95723
259.27834
185.46515
132.86669
95.341506
68.53744
49.367245
35.633757
25.769339
18.648914
13.467248
9.6620455
6.8805305
61825.504
49691.029
39610.463
31303.685
24521.725
19036.218
14638.606
11147.953
8408.7506
6284.037
4655.0322
3420.5351
2495.426
1809.6227
1306.2942
939.9777
675.07572
484.4322
347.63233
249.6107
179.39001
129.06209
92.966439
67.059507
48.450646
35.067281
25.420391
18.434303
13.334805
9.5792404
6.8219508
56389.553
45073.934
35813.738
28265.909
22144.328
17207.772
13255.248
10119.635
7657.9701
5745.4614
4275.3595
3157.2561
2315.7709
1688.8895
1226.3023
887.56045
641.07165
462.55277
333.64698
240.71768
173.75911
125.51004
90.73353
65.66065
47.577367
34.52406
25.083578
18.225766
13.205177
9.4974548
6.7648135
51620.231
41097.997
32583.667
25696.153
20135.17
15661.24
12084.437
9248.505
7020.4707
5286.3052
3949.8458
2930.0785
2159.6427
1583.1977
1155.6973
840.90901
610.56006
442.76268
320.89852
232.55011
168.55002
122.201
88.639211
64.339864
46.747391
34.004371
24.759193
18.023529
13.07851
9.41678
6.711567
47623.642
37757.461
29862.408
23524.953
18432.348
14348.165
11089.333
8506.7309
6475.8292
4892.5187
3669.3834
2733.2854
2023.5923
1490.5186
1093.3004
799.37929
583.19415
424.88067
309.29498
225.06297
163.74166
119.12575
86.679844
63.096
45.960568
33.508395
24.447474
17.827783
12.954929
9.33733
6.6549323
44166.757
34897.935
27545.833
21678.881
16983.942
13230.807
10241.255
7872.793
6009.0015
4553.779
3427.1042
2562.4733
1904.9108
1409.1598
1038.1535
762.42658
558.67479
408.74734
298.7539
218.21508
159.31434
116.2754
84.851778
61.927796
45.216642
33.036233
24.148603
17.638693
12.83455
9.2591335
6.6004391
41204.196
32454.276
25568.86
20104.953
15750.105
12278.481
9517.1742
7330.2575
5608.3452
4262.0389
3217.6265
2414.1842
1801.3804
1337.7331
989.45242
729.58673
536.74317
394.22236
289.20145
211.96887
155.2497
113.64147
83.151397
60.83392
44.515267
32.587917
23.862717
17.456392
12.717471
9.1822819
6.5426684
38637.755
30356.08
23878.886
18762.145
14698.471
11466.391
8898.8192
6865.9663
5264.5302
4010.9059
3036.7068
2285.6227
1711.1656
1275.1207
946.51944
700.46362
517.1751
381.18233
280.57169
206.29023
151.53078
111.21594
81.575168
59.812989
43.856028
32.163419
23.58991
17.280987
12.603775
9.1068078
6.4855118
36424.601
28557.952
22435.108
17617.117
13802.349
10774.281
8371.3685
6469.3219
4970.1752
3795.3538
2880.9263
2174.4457
1632.7052
1220.3803
908.77957
674.7186
499.7764
369.51889
272.80586
201.14831
148.14194
108.99124
80.119667
58.863602
43.238454
31.762654
23.330235
17.112561
12.493534
9.0327693
6.4299294
34520.561
27017.638
21203.096
16643.059
13041.124
10186.702
7923.5014
6132.2094
4719.5726
3611.297
2747.3782
2078.5939
1564.6975
1172.714
875.74611
652.06239
484.3792
359.13716
265.85185
196.51534
145.0689
106.96033
78.78161
57.984355
42.662027
31.385495
23.083711
16.951172
12.386804
8.9602151
6.3758827
32892.948
25708.89
20161.696
15822.842
12401.626
9693.6326
7547.3796
5848.4606
4507.8784
3455.1818
2633.4322
1996.3729
1506.1079
1131.4554
847.00936
632.2486
470.83891
349.9545
259.66369
192.36646
142.29865
105.11667
77.557876
57.173862
42.126202
31.031773
22.850322
16.796855
12.283629
8.8891846
6.3233294
31575.56
24641.202
19307.157
15146.533
11874.169
9286.37
7235.7222
5612.277
4330.6814
3323.6819
2536.9387
1926.4685
1456.0708
1096.0521
822.22593
615.06855
459.0318
341.89937
254.20111
188.67963
139.81948
103.45427
76.445525
56.430766
41.630407
30.701285
22.630023
16.649624
12.184041
8.8197074
6.2722239
30417.301
23725.004
18586.533
14583.978
11437.296
8949.2123
6977.9063
5416.6608
4183.5674
3214.059
2456.2713
1867.7895
1413.8777
1066.0498
801.11041
600.34712
448.85298
334.91048
249.42919
185.43545
137.62092
101.96764
75.44181
55.753756
41.174059
30.393799
22.422742
16.509472
12.088058
8.7518039
6.2228304
29194.869
22833.247
17926.574
14090.964
11065.1
8667.4948
6764.7686
5255.9252
4063.042
3124.3636
2390.1029
1819.4651
1378.9579
1041.0797
783.42902
587.93948
440.21479
328.93601
245.31801
182.61709
135.69373
100.65187
74.544186
55.141571
40.756567
30.109057
22.228382
16.376373
11.995686
8.685508
6.1703918
28203.478
22094.76
17375.783
13679.95
10759.131
8439.2752
6593.9546
5127.9844
3967.3869
3053.168
2337.4372
1780.8207
1350.8632
1020.8493
768.99477
577.72855
433.04552
323.93305
241.84247
180.21016
134.02987
99.502554
73.750322
54.593013
40.377336
29.846782
22.04682
16.250282
11.906921
8.6208115
6.120073
27316.042
21469.009
16925.867
13352.649
10519.431
8262.9818
6463.6555
5031.2044
3895.3017
2999.4763
2297.5535
1751.3565
1329.2567
1005.1368
757.66393
569.62309
427.28845
319.86708
238.98198
178.20263
132.62245
98.515838
73.058098
54.106946
40.035777
29.606675
21.877914
16.131139
11.821744
8.5577164
6.0710883
26539.55
20944.088
16565.404
13101.758
10342.539
8136.7413
6372.4447
4964.442
3845.8918
2962.6206
2269.9659
1730.7326
1313.9061
993.78623
749.33354
563.55633
422.90111
316.71164
236.72037
176.5848
131.46572
97.688387
72.465614
53.682304
39.731303
29.388421
21.721503
16.018864
11.740127
8.496217
6.0228386
25854.117
20507.787
16285.622
12921.169
10224.732
8058.6358
6319.3491
4927.088
3818.722
2942.2792
2254.4249
1718.762
1304.6765
986.70348
743.9394
559.4851
419.85484
314.4481
235.04574
175.3492
130.55509
97.017392
71.971182
53.318089
39.463332
29.191691
21.577402
15.913362
11.662029
8.436363
5.9716819
25247.287
20150.086
16079.762
12806.614
10163.474
8027.3946
6303.8957
4918.9856
3813.7419
2938.4333
2250.9027
1715.4123
1301.5365
983.86047
741.45747
557.38982
418.13462
313.06545
233.95036
174.49055
129.88702
96.500552
71.573324
53.013371
39.231293
29.016139
21.445412
15.814523
11.5874
8.3780844
5.9232228
24704.282
19861.207
15942.239
12755.228
10157.707
8040.5686
6323.0546
4937.4604
3828.9679
2949.9077
2258.9108
1720.4636
1304.3534
985.17769
741.8673
557.27257
417.73903
312.56047
233.43074
174.0058
129.45909
96.136066
71.270771
52.767285
39.034616
28.861405
21.325312
15.722221
11.516178
8.3213574
5.875888
24197.244
19625.177
15865.24
12762.855
10200.789
8094.9247
6376.1224
4984.9377
3867.8733
2979.5444
2280.1413
1734.8806
1313.7173
990.98763
745.29008
559.16282
418.67849
312.92758
233.48493
173.89393
129.26991
95.922612
71.06244
52.579024
38.872735
28.727112
21.216864
15.636315
11.44829
8.2661524
5.8295789
23673.629
19410.197
15830.793
12815.97
10289.556
8190.3096
6463.0959
5056.9323
3924.4667
3022.199
2311.0274
1756.5058
1328.3496
1000.5677
751.3607
562.87993
420.86339
314.14008
234.09543
174.14591
129.31718
95.859216
70.947402
52.447822
38.745079
28.612866
21.119814
15.55665
11.383653
8.2124332
5.7842829
86247.548
71883.276
58395.595
46497.383
36507.909
28365.687
21746.981
16445.434
12266.407
9028.0819
6566.4955
4727.6212
3374.5621
2392.0708
1686.8074
1185.5278
831.95449
583.84234
410.22916
288.82883
203.8686
144.29767
102.42597
72.919074
52.071668
37.299587
26.793836
19.279252
13.857289
9.9066369
7.0589124
80580.507
67360.701
55525.207
44886.567
35691.004
27901.365
21505.634
16343.71
12246.218
9053.8917
6611.3394
4774.5476
3415.7244
2424.9435
1711.5069
1203.2848
844.31191
592.23629
415.82734
292.51401
206.27322
145.85731
103.43418
73.569844
52.491638
37.570827
26.969403
19.393499
13.932627
9.95746
7.0982529
75154.989
63227.858
52609.007
42985.751
34516.764
27236.945
21162.427
16196.181
12210.178
9073.8272
6653.8893
4821.3255
3457.7868
2459.0487
1737.405
1222.0515
857.44706
601.19412
421.81825
296.46435
208.85407
147.5324
104.51738
74.269088
52.942885
37.86225
27.158027
19.516253
14.013579
10.011995
7.1390276
70082.463
59415.032
49869.201
41146.091
33352.103
26556.366
20799.269
16031.804
12162.342
9086.946
6693.5253
4867.5975
3500.5685
2494.3262
1764.5037
1241.8541
871.39152
610.74518
428.22567
300.69829
211.62366
149.33137
105.68114
75.020448
53.427767
38.175384
27.360699
19.648161
14.100572
10.070508
7.1810785
65337.715
55853.269
47272.11
39360.144
32194.585
25859.944
20415.83
15849.812
12101.842
9092.2417
6729.6366
4913.0028
3543.8723
2530.7003
1792.7959
1262.7159
886.17827
620.92094
435.07517
305.23553
214.59531
151.2633
106.93149
75.827859
53.948838
38.511883
27.578493
19.789928
60922.828
52515.252
44800.701
37623.256
31042.805
25148.201
20012.138
15649.761
12028.105
9089.77
6761.6592
108714.19
97675.422
88853.446
81413.476
74942.684
161588.59
126617.68
41654.938
30108.192
232691.37
178096.61
134007.39
106420.41
300270.39
210421.39
152288.48
118069.33
95094.875
463140.88
296702.99
194404.09
141080.66
107976.24
85427.762
512007.68
287763.6
181304.59
128674.07
97645.893
76987.638
555231.93
282077.21
171743.3
120431.85
90494.873
70662.559
593635.05
276730.84
163389.79
112831.62
83840.398
65000.566
617371.19
271000.44
156509.63
106423.4
78330.222
60297.106
642690.65
266448.93
149918.74
100589.09
73430.777
56187.504
665371.33
260737.99
143696.82
95364.896
69160.175
52651.825
686192.48
255818.37
137749.11
90588.894
65365.4
49557.412
703468.2
245607.47
131139
86140.648
62015.587
46866.671
716518.54
229623.03
124619.24
82280.628
59155.018
44552.157
726726.54
225082.43
121510.24
79558.647
56823.536
42582.11
735051.9
225388.85
120048.74
77770.072
55087.625
41020.526
743183.97
227014.04
119313.39
76343.317
53569.584
39625.278
752382.43
222050.79
115292.65
73438.201
51423.313
37982.174
759365.21
222909.14
114213.61
71918.821
49962.293
36715.09
766001.45
221703.01
111907.36
69977.159
48427.523
35500.55
770895.76
220742.67
110157.79
68371.315
47090.194
34419.946
775127.58
219584.58
108378.69
66832.517
45846.667
33430.885
778262.66
218221.84
106693.19
65420.058
44711.312
32528.078
780393.36
216827.5
105147.63
64150.322
43688.521
31703.578
215316.32
103731.75
63041.045
42795.495
30951.214
102485.64
62124.186
42081.555
30293.889
23654.539
19152.523
15323.28
12127.594
9499.1297
7362.4265
5643.7257
4277.3129
3205.4118
2376.7108
1746.5985
1276.265
898.06883
931.5937
662.30036
682.78573
492.50625
504.3545
369.11857
375.60038
277.49137
280.86509
207.73251
209.41087
153.74725
154.53431
111.86712
112.19027
79.726004
79.807682
55.522842
55.485443
37.733352
37.642426
25.016148
24.908064
16.194432
16.086385
10.244369
10.144288
6.360589
6.2682055
3.9289471
3.8419127
2.5187521
2.4449264
1.718388
1.6666052
1.1885835
1.1735902
)
;

boundaryField
{
    Side1
    {
        type            empty;
    }
    Inlet
    {
        type            inletOutlet;
        inletValue      uniform 1;
        value           nonuniform List<scalar> 
92
(
1
1
5.6725093
1
1
1
1
1
1
1
1
1
1
1
1
1
1
1
1
1
1
1
1
1
1
2.0487096
1
1.4925682
1.3365475
1
1
1
1
1
1
1
1
1
1
1
1
1
1
1
1
1
1
1
1
1
1
1
1
1
1
1
1
1
1
1
1
1
1
1
1
1
1
6.711567
1
6.6004391
1
1
1
1
1
1
6.2228304
1
1
1
6.0228386
1
1
1
1
1
7.0589124
7.0982529
7.1390276
7.1810785
1
1
)
;
    }
    Side2
    {
        type            empty;
    }
    Outlet
    {
        type            zeroGradient;
    }
    Botwall
    {
        type            omegaWallFunction;
        blending        binomial;
        n               2;
        value           nonuniform List<scalar> 0();
    }
    Cyli
    {
        type            omegaWallFunction;
        blending        binomial;
        n               2;
        value           nonuniform List<scalar> 
20
(
463140.88
512007.68
555231.93
593635.05
617371.19
642690.65
665371.33
686192.48
703468.2
716518.54
726726.54
735051.9
743183.97
752382.43
759365.21
766001.45
770895.76
775127.58
778262.66
780393.36
)
;
    }
    procBoundary2to0
    {
        type            processor;
        value           nonuniform List<scalar> 
55
(
127306.3
115570.42
104971.04
95421.727
86874.71
161450.19
141193.56
210244.42
193490.07
193490.07
101274.05
61350.787
61350.787
41075.19
29781.638
276710.04
276710.04
393855.57
393855.57
781346.24
781346.24
213816.88
213816.88
23210.757
18530.057
14701.735
11580.029
9045.8599
7000.9371
5363.5979
4065.797
3049.5466
2264.8262
1668.7504
1224.0515
1224.0515
870.74493
645.97787
483.4343
364.48374
275.34962
206.88134
153.51982
111.92269
79.898699
55.728645
37.933796
25.194376
16.347492
10.374019
6.4736606
4.0318037
2.6044733
1.7775396
1.2055546
)
;
    }
    procBoundary2to3
    {
        type            processor;
        value           nonuniform List<scalar> 
35
(
14.193955
10.133206
7.2245374
4956.9335
3587.3021
2567.9527
1822.1811
1284.6034
901.80827
631.73641
442.38494
310.09233
217.78232
153.33822
108.27562
76.696325
54.509471
38.873948
27.812812
14.193955
19.94236
56818.812
69202.823
49374.87
42444.041
35934.127
29897.752
24422.528
19588.549
15431.219
11940.402
9079.3134
4956.9335
6788.6976
69202.823
)
;
    }
}


// ************************************************************************* //
