/*--------------------------------*- C++ -*----------------------------------*\
| =========                 |                                                 |
| \\      /  F ield         | OpenFOAM: The Open Source CFD Toolbox           |
|  \\    /   O peration     | Version:  2406                                  |
|   \\  /    A nd           | Website:  www.openfoam.com                      |
|    \\/     M anipulation  |                                                 |
\*---------------------------------------------------------------------------*/
FoamFile
{
    version     2.0;
    format      ascii;
    arch        "LSB;label=32;scalar=64";
    class       volScalarField;
    location    "0.02";
    object      p;
}
// * * * * * * * * * * * * * * * * * * * * * * * * * * * * * * * * * * * * * //

dimensions      [1 -1 -2 0 0 0 0];

internalField   nonuniform List<scalar> 
2065
(
102474.89
102304.7
102174.25
102022.43
101872.74
101740.35
101630.22
101541.84
101481.51
101440.95
101414.44
101405.54
101408.19
101418.61
101435.54
101455.47
101477.05
101498.82
101520.25
101540.2
101558.78
101575.6
101591.15
101605.19
101619.43
101632.05
101649.66
101661.58
101699.01
101709.3
101785.59
102679.7
102532.15
102373.47
102200.7
102036.45
101889.36
101762.72
101657.52
101578.04
101519.43
101477.94
101454.72
101445.25
101445.87
101455.02
101468.78
101485.64
101503.95
101522.95
101541.27
101558.85
101575.13
101590.45
101604.45
101618.7
101631.37
101648.88
101660.79
101697.93
101708.76
101787.22
102791.95
102657.71
102496.54
102321.96
102155.85
102004.75
101871.17
101757.14
101666.03
101595.73
101543.65
101510.09
101490.93
101483.62
101486.33
101494.72
101507.18
101521.98
101538.16
101554.18
101569.84
101584.52
101598.45
101611.29
101624.54
101636.48
101653.39
101665.17
101701.8
101712.34
101791.24
102865.43
102742.67
102592.3
102425.5
102263.11
102112.22
101975.57
101855.81
101756.08
101676.04
101614.27
101570.94
101542.28
101526.26
101521.8
101523.97
101531.05
101541.32
101553.76
101566.66
101579.74
101592.33
101604.56
101616.07
101628.27
101639.45
101655.68
101667.17
101703.13
101713.82
101792.83
102916.94
102806.18
102671.02
102517.19
102363.03
102216.13
102079.59
101956.51
101850.12
101761.45
101690.29
101636.98
101598.5
101573.51
101560.65
101556
101557.14
101562.44
101570.82
101580.41
101590.84
101601.33
101611.9
101622.13
101633.3
101643.76
101659.38
101670.71
101706.01
101716.77
101794.64
102949.32
102850.34
102731.62
102593.71
102451.54
102312.37
102179.47
102056.1
101945.65
101850.22
101770.71
101707.8
101659.89
101625.81
101604.02
101591.86
101586.65
101586.5
101590.41
101596.3
101603.71
101611.76
101620.36
101629.03
101638.93
101648.47
101663.27
101674.3
101708.71
101719.64
101797.01
102965.59
102877.92
102775.67
102654.91
102527.04
102398.5
102272.36
102151.8
102040.24
101940.46
101854.29
101782.93
101726.02
101682.93
101652.28
101631.94
101619.77
101613.68
101612.61
101614.32
101618.29
101623.56
101629.91
101636.82
101645.3
101653.83
101667.74
101678.47
101711.9
101723.11
101800.06
102972.32
102898.93
102809.53
102703.76
102590.38
102473.95
102356.8
102241.68
102131.84
102030.31
101939.53
101861.31
101796.27
101744.44
101705.11
101676.51
101656.63
101644.1
101637.59
101634.67
101634.79
101636.94
101640.76
101645.67
101652.54
101659.92
101672.81
101683.19
101715.49
101727.06
101804
102971.52
102915.95
102836.04
102741.84
102642.08
102538.37
102431.67
102324.08
102218.44
102117.73
102024.65
101941.48
101869.64
101809.85
101762.05
101725.31
101697.58
101677.92
101665.53
101657.56
101653.42
101652.08
101653.05
101655.71
101660.76
101666.83
101678.57
101688.52
101719.58
101731.61
101808.93
102950.75
102915.96
102853.13
102770.51
102682.72
102591.49
102496.02
102397.47
102298.11
102200.59
102107.61
102021.66
101944.74
101878.19
101822.63
101777.88
101742.4
101715.51
101696.54
101683.14
101674.34
101669.13
101666.93
101667.06
101670.07
101674.66
101685.08
101694.55
101724.24
101736.84
101814.98
102929.94
102897.15
102849.4
102786.97
102712.4
102633.16
102549.08
102460.55
102369.09
102276.85
102186.26
102099.81
102019.8
101948.08
101885.87
101833.61
101790.75
101756.71
101730.77
101711.48
101697.68
101688.26
101682.54
101679.86
101680.57
101683.5
101692.46
101701.37
101729.56
101742.87
101822.26
102908.29
102883.91
102843.72
102790.02
102728.76
102662.36
102590.18
102512.35
102429.95
102344.63
102258.45
102173.71
102092.76
102017.76
101950.38
101891.69
101841.9
101800.94
101768.22
101742.65
101723.48
101709.54
101700.01
101694.23
101692.4
101693.47
101700.79
101709.04
101735.63
101749.77
101830.85
102881.31
102862.03
102829.73
102789.42
102741.78
102684.81
102621.97
102553.64
102480.17
102402.51
102322.18
102241.06
102161.3
102085.08
102014.37
101950.69
101894.93
101847.5
101808.33
101776.62
101751.76
101733
101719.42
101710.27
101705.67
101704.67
101710.18
101717.66
101742.55
101757.66
101840.77
102858.06
102844.85
102820.05
102784.89
102741.48
102692.5
102639.68
102581.44
102517.49
102448.39
102375.22
102299.45
102222.91
102147.62
102075.64
102008.78
101948.42
101895.48
101850.36
101812.84
101782.44
101758.63
101740.76
101728.02
101720.44
101717.19
101720.71
101727.31
101750.4
101766.61
101851.99
102824.34
102815.32
102795.74
102767.1
102732.29
102691.92
102646.66
102596.84
102541.7
102481.17
102415.82
102346.65
102275.05
102202.75
102131.66
102063.69
102000.51
101943.44
101893.36
101850.56
101814.96
101786.31
101763.99
101747.48
101736.76
101731.08
101732.47
101738.06
101759.28
101776.69
101864.36
102781.16
102776.1
102760.94
102737.94
102712.6
102681.52
102641.92
102598.24
102550.97
102498.91
102441.87
102380.31
102315.16
102247.77
102179.74
102112.88
102048.95
101989.55
101935.92
101888.83
101848.65
101815.44
101788.89
101768.61
101754.6
101746.38
101745.51
101749.97
101769.25
101787.9
101877.61
102725.79
102724.51
102713.87
102695.58
102673.71
102651.15
102623.42
102586.22
102544.22
102499.67
102451.24
102398.18
102340.85
102280.1
102217.21
102153.71
102091.28
102031.63
101976.24
101926.27
101882.52
101845.39
101814.97
101791.14
101773.91
101763.03
101759.82
101763.05
101780.35
101800.22
101891.38
102657.9
102659.48
102652.55
102638.92
102621.74
102602.35
102582.64
102558.93
102526.07
102486.94
102444.69
102399.51
102350.61
102297.83
102241.82
102183.74
102125.05
102067.37
102012.27
101961.18
101915.23
101875.22
101841.6
101814.59
101794.39
101780.93
101775.35
101777.24
101792.54
101813.56
101905.24
102578.99
102582.49
102578.37
102568.56
102555.97
102541.02
102523.72
102506.57
102489.27
102464.09
102428.2
102387.39
102345.07
102300.25
102252.15
102201.12
102148.14
102094.57
102041.92
101991.69
101945.23
101903.68
101867.86
101838.33
101815.58
101799.79
101791.97
101792.4
101805.68
101827.78
101918.76
102495.65
102500.41
102498.57
102492.01
102483.44
102473.39
102461.35
102446.66
102429.52
102412.38
102392.46
102364.05
102328.32
102289.04
102248.16
102204.92
102159.09
102111.48
102063.3
102015.93
101970.83
101929.35
101892.61
101861.52
101836.84
101819.13
101809.34
101808.24
101819.48
101842.57
101931.6
102407.29
102412.48
102412.12
102407.98
102402.33
102395.67
102387.64
102377.76
102365.43
102350.72
102336.25
102321.91
102300.99
102270.77
102235.07
102197.13
102157.94
102117.24
102075.08
102032.35
101990.43
101950.72
101914.54
101883.08
101857.36
101838.29
101826.9
101824.33
101833.42
101857.29
101943.74
102320.9
102326.13
102326.85
102324.64
102321.4
102317.49
102312.64
102306.56
102298.94
102289.36
102277.23
102262.64
102248.43
102234.36
102213.01
102182.05
102147.3
102112.44
102076.78
102039.93
102002.75
101966.44
101932.35
101901.83
101876.14
101856.42
101843.92
101839.93
101846.72
101870.35
101955.26
102237.61
102242.51
102243.87
102243.07
102241.61
102239.79
102237.37
102234.14
102229.89
102224.39
102217.34
102208.29
102196.78
102183.03
102169.41
102153.37
102129.79
102100.69
102069.79
102038.64
102007.12
101975.52
101944.91
101916.63
101892.07
101872.54
101859.42
101854.08
101858.31
101879.22
101964.15
102160.69
102165.01
102166.65
102166.77
102166.5
102166.05
102165.25
102163.94
102161.94
102159.08
102155.13
102149.85
102142.84
102133.6
102122.23
102111.2
102100.33
102083.17
102058.19
102030.8
102004.1
101977.68
101951.51
101926.58
101904.17
101885.63
101872.38
101865.76
101867.03
101882.01
101963.32
102093.43
102097.07
102098.8
102099.51
102100.04
102100.52
102100.84
102100.88
102100.52
102099.63
102098.03
102095.53
102091.9
102086.89
102080.13
102071.28
102060.6
102050.13
102037.41
102018.35
101996
101973.71
101952.1
101931.19
101911.73
101894.86
101881.9
101874.06
101872.06
101879.03
101943.1
102036.64
102039.52
102041.09
102042.04
102042.93
102043.84
102044.7
102045.43
102045.94
102046.13
102045.87
102045.02
102043.4
102040.81
102037.02
102031.71
102024.49
102015.56
102007.14
101999.01
101985.43
101966.57
101947.92
101930.78
101914.61
101899.8
101887.46
101878.56
101873.37
101872.86
101880.61
101993.22
101995.33
101996.62
101997.55
101998.5
101999.52
102000.57
102001.57
102002.46
102003.19
102003.67
102003.77
102003.37
102002.29
102000.38
101997.47
101993.36
101987.85
101980.84
101972.71
101965.15
101955.13
101940.74
101926.5
101913.3
101900.61
101889.08
101879.45
101871.65
101868.07
101903.51
101962.98
101964.17
101964.91
101965.5
101966.13
101966.85
101967.62
101968.39
101969.14
101969.83
101970.39
101970.73
101970.76
101970.38
101969.49
101967.97
101965.66
101962.37
101957.84
101952.04
101945.49
101939.85
101932.07
101920.89
101909.78
101898.82
101888.25
101878.07
101867.71
101856.34
101845.23
101938.67
101939.74
101940.65
101941.49
101942.39
101943.37
101944.41
101945.49
101946.56
101947.58
101948.46
101949.09
101949.37
101949.24
101948.55
101947.16
101945.05
101942.37
101939.3
101935.79
101931.59
101927.26
101924.47
101919.47
101910.43
101901.56
101893.33
101884.99
101877.31
101873.28
101819.41
101951.71
101952.29
101952.74
101953.16
101953.56
101953.83
101953.87
101953.62
101953.1
101952.33
101951.34
101950.12
101948.73
101947.18
101945.53
101943.77
101941.82
101939.61
101937.08
101934.15
101930.66
101926.07
101920.49
101916.05
101912.37
101908.17
101903.76
101899.78
101899.3
101921.01
101873.78
101933.63
101935.4
101936.41
101936.71
101936.41
101935.58
101934.3
101932.63
101930.64
101928.38
101925.91
101923.3
101920.64
101917.96
101915.31
101912.7
101910.12
101907.55
101904.95
101902.19
101899.05
101895.15
101889.95
101883.2
101875.06
101866.7
101863.44
101864.23
101867.35
101915.28
101845.27
100339.84
100290.89
100245.61
100215.1
100201.78
100208.07
100235.4
100280.36
100343.61
100421.42
100512.79
100614.39
100713.85
100811.19
100911.47
101005.14
101090.51
101169.48
101240.35
101303.65
101359.55
101408.13
101450.63
101486.85
101519.76
101546.23
101575.59
101591.46
101632.34
101640.76
101709.64
100238.08
100201.7
100170.56
100156.94
100161.01
100183.68
100224.56
100282.35
100354.83
100438.47
100534.39
100635.94
100731.18
100827.67
100925.61
101015.48
101097.79
101174.02
101243.07
101304.92
101359.7
101407.61
101449.78
101485.93
101518.87
101545.48
101574.88
101590.97
101632.51
101642.37
101711.95
100097.51
100071.33
100057.05
100064.55
100090.54
100133.59
100193.51
100267.56
100352.7
100446.44
100549.2
100651.56
100748.27
100847.83
100944.45
101031.43
101112.84
101187.78
101255.46
101315.95
101369.51
101416.31
101457.45
101492.67
101524.74
101550.65
101579.45
101595.25
101636.44
101645.89
101713.27
99934.711
99932.044
99944.174
99977.408
100026.84
100090.25
100167.35
100256.63
100353.31
100455.93
100562.69
100666.27
100767.37
100868.82
100963.5
101047.83
101128.73
101202.08
101268.04
101326.77
101378.69
101423.98
101463.77
101497.85
101528.94
101554.14
101582.36
101597.93
101639.08
101648.81
101716.07
99765.525
99793.501
99835.473
99895.804
99969.193
100053.13
100147.89
100252.26
100359.23
100467.48
100577.19
100684.4
100788.54
100889.99
100981.18
101064.17
101144.11
101215.59
101279.77
101336.79
101387.16
101431.11
101469.75
101502.9
101533.22
101557.85
101585.6
101601
101642.12
101651.88
101719.29
99604.036
99665.867
99737.166
99823.894
99920.427
100024.52
100137.27
100253.26
100366.83
100481.96
100595.6
100705.12
100811.27
100910.71
100998.19
101081.51
101159.52
101229.11
101291.54
101346.91
101395.8
101438.44
101475.95
101508.14
101537.63
101561.65
101588.86
101604.05
101645.1
101654.87
101722.95
99456.689
99553.639
99654.892
99765.234
99883.322
100006.72
100132.86
100257.88
100379.92
100500.34
100616.7
100728.15
100834.71
100930.52
101016.17
101099.13
101175.05
101242.75
101303.41
101357.11
101404.5
101445.81
101482.15
101513.37
101542.03
101565.42
101592.12
101607.12
101648.13
101657.85
101727.14
99333.286
99457.533
99588.207
99724.082
99861.755
99999.715
100136.4
100269.46
100397.98
100522.1
100640.68
100753.59
100857.49
100949.51
101035.81
101116.89
101190.67
101256.45
101315.29
101367.3
101413.18
101453.15
101488.34
101518.6
101546.43
101569.22
101595.4
101610.2
101651.17
101660.78
101729.08
99242.502
99392.397
99546.367
99701.416
99854.227
100003.76
100148.88
100288.01
100420.89
100547.84
100668.22
100780.15
100879.31
100969.29
101055.79
101134.76
101206.39
101270.19
101327.18
101377.48
101421.85
101460.5
101494.54
101523.83
101550.84
101573.01
101598.68
101613.29
101654.23
101663.72
101732.2
99192.041
99361.187
99531.199
99698.936
99862.119
100019.86
100170.81
100313.75
100449.55
100578.59
100698.09
100805.65
100900.56
100990.37
101076.08
101152.81
101222.22
101283.97
101339.07
101387.67
101430.51
101467.83
101500.73
101529.05
101555.25
101576.81
101601.96
101616.38
101657.29
101666.66
101733.07
99185.947
99366.036
99544.148
99717.862
99886.03
100047.99
100202.23
100347.62
100484.61
100612.25
100726.89
100828.83
100923.44
101013.96
101096.83
101171.09
101238.16
101297.8
101350.98
101397.84
101439.16
101475.15
101506.9
101534.27
101559.65
101580.6
101605.24
101619.47
101660.35
101669.61
101735.35
99210.907
99398.003
99579.836
99756.763
99927.436
100089.17
100242.15
100386.8
100521.91
100644.71
100753.19
100854.4
100950.43
101038.22
101117.94
101189.58
101254.21
101311.66
101362.88
101407.99
101447.78
101482.44
101513.05
101539.46
101564.03
101584.38
101608.5
101622.56
101663.39
101672.57
101737.91
99240.787
99436.042
99621.996
99804.807
99981.045
100139.97
100287.29
100426.83
100557.94
100675.38
100782.93
100885.77
100978.69
101062.89
101139.44
101208.28
101270.36
101325.56
101374.77
101418.11
101456.37
101489.7
101519.16
101544.63
101568.39
101588.13
101611.75
101625.63
101666.4
101675.53
101741.19
99337.393
99518.05
99690.97
99869.639
100042.38
100194.79
100338.76
100473.35
100596.89
100711.8
100820.71
100919.27
101007.74
101088.18
101161.35
101227.2
101286.6
101339.48
101386.65
101428.21
101464.91
101496.92
101525.24
101549.75
101572.72
101591.87
101614.97
101628.68
101669.37
101678.48
101745.09
99562.942
99717.553
99866.815
100003.01
100134.08
100277.05
100412.14
100537.2
100652.58
100760.62
100861.91
100954.25
101037.86
101114.17
101183.65
101246.32
101302.93
101353.41
101398.5
101438.25
101473.4
101504.08
101531.26
101554.84
101577.01
101595.57
101618.17
101631.71
101672.29
101681.41
101749.26
99764.95
99900.673
100025.23
100144.57
100262.9
100382.17
100498.94
100610.25
100714.71
100813.14
100905.43
100990.98
101069.15
101140.84
101206.35
101265.64
101319.35
101367.36
101410.32
101448.24
101481.83
101511.18
101537.23
101559.87
101581.26
101599.23
101621.33
101634.72
101675.15
101684.32
101753.88
100006.78
100114.53
100209.56
100304.51
100400.92
100497.98
100594.99
100689.87
100781.22
100868.64
100951.45
101029.55
101101.59
101168.18
101229.45
101285.15
101335.83
101381.29
101422.09
101458.16
101490.18
101518.2
101543.13
101564.85
101585.45
101602.85
101624.46
101637.7
101677.95
101687.2
101756.57
100280.81
100356.28
100417.5
100481.89
100551.3
100624.23
100699.73
100776.38
100852.72
100927.77
101000.12
101069.93
101135.16
101196.21
101252.93
101304.85
101352.38
101395.2
101433.8
101468
101498.44
101525.14
101548.95
101569.75
101589.59
101606.42
101627.54
101640.64
101680.69
101690.06
101760.62
100584.69
100623.95
100647.39
100677.12
100715.76
100761.54
100813.47
100869.9
100929.41
100990.71
101051.41
101112.09
101169.88
101224.91
101276.78
101324.72
101368.95
101409.06
101445.4
101477.72
101506.58
101531.96
101554.67
101574.57
101593.66
101609.94
101630.59
101643.56
101683.35
101692.89
101764.57
100913.75
100914.16
100897.02
100888.98
100893.65
100909.47
100935.77
100970.19
101011.14
101057.44
101105.29
101156
101205.73
101254.26
101300.97
101344.69
101385.49
101422.81
101456.86
101487.27
101514.57
101538.65
101560.28
101579.3
101597.67
101613.4
101633.59
101646.44
101685.96
101695.73
101769.01
101261.61
101221.37
101162.22
101114.61
101083.08
101066.53
101065.76
101077.02
101097.86
101128.06
101161.82
101201.65
101242.66
101284.16
101325.35
101364.64
101401.87
101436.32
101468.06
101496.59
101522.34
101545.16
101565.74
101583.93
101601.59
101616.8
101636.55
101649.3
101688.52
101698.55
101771.5
101626.57
101543.34
101441.56
101353.89
101284.96
101233.95
101205.14
101192.03
101190.8
101203.57
101221.52
101249.17
101280.58
101314.39
101349.65
101384.27
101417.81
101449.38
101478.84
101505.54
101529.81
101551.43
101571.04
101588.42
101605.42
101620.14
101639.48
101652.13
101691.05
101701.41
101775.29
102021.53
101897.39
101756.28
101627.72
101517.02
101426.73
101365.53
101322.16
101294.87
101287.07
101286.21
101299.36
101319.72
101344.87
101373.66
101403.36
101433.14
101461.84
101489.11
101514.08
101536.97
101557.49
101576.18
101592.83
101609.2
101623.46
101642.39
101654.97
101693.61
101704.31
101779.25
102406.92
102276.06
102128.45
101966.22
101810.69
101674.87
101564.37
101475.79
101417.2
101382.42
101358.76
101354.31
101361.61
101376.84
101398.41
101422.77
101448.57
101474.29
101499.32
101522.55
101544.08
101563.5
101581.29
101597.2
101612.96
101626.76
101645.31
101657.82
101696.2
101707.3
101784.18
100440.27
100403.66
100363.25
100329.96
100309.01
100302.33
100313.52
100341.36
100387.65
100449.69
100526.28
100615.36
100706.84
100798.36
100893.76
100985.07
101069.63
101149.15
101221.61
101286.51
101344.31
101394.89
101439.31
101477.25
101511.64
101539.23
101569.36
101585.47
101626.4
101634.85
101704.03
100460.12
100424.68
100393.21
100367.35
100348.37
100341.56
100348.25
100371.32
100412.06
100468.63
100539.76
100623.43
100711.3
100800.56
100893.33
100982.72
101066.32
101145.37
101217.84
101282.65
101340.46
101391.32
101436.08
101474.4
101509.15
101537.08
101567.49
101583.81
101624.58
101632.82
101702.43
100468.48
100440.9
100417.49
100397.3
100382.51
100377.13
100382.84
100403.05
100439.22
100490.63
100556.31
100634.37
100717.99
100804.3
100894.18
100981.55
101064.11
101142.26
101214.27
101278.91
101336.62
101387.7
101432.75
101471.39
101506.49
101534.74
101565.43
101581.95
101622.42
101630.37
101699.4
100483.65
100464.36
100447.32
100430.58
100418.41
100413.84
100418.86
100436.39
100468.14
100514.22
100574.15
100646.32
100725.26
100808.08
100894.82
100979.99
101061.33
101138.59
101210.08
101274.72
101332.53
101383.79
101429.16
101468.18
101503.66
101532.25
101563.22
101579.96
101620.07
101627.66
101695.03
100500.69
100486.85
100473.37
100461.23
100452.15
100448.85
100453.63
100469.07
100497.07
100538.32
100592.74
100659.17
100733.29
100812.31
100895.66
100978.42
101058.29
101134.58
101205.46
101270.08
101328.19
101379.56
101425.3
101464.72
101500.61
101529.58
101560.85
101577.79
100514.73
100505.29
100496.18
100488.12
100482.27
100480.85
100486.08
100500.28
100525.42
100562.56
100612.01
100469.65
100482.8
100493.59
100504.96
100516.03
100466.52
100462.05
103015.72
102934.71
100433.03
100405.9
100386.89
100370.86
100307.87
100282.18
100255.51
100246.51
100248.05
99945.002
100031.72
100035.94
100042.99
100064.73
100090.74
99537.467
99693.436
99740.449
99789.159
99845.967
99901.556
99100.698
99334.746
99428.608
99518.092
99609.856
99698.494
98694.677
99001.567
99132.583
99251.615
99382.012
99501.997
98352.932
98706.974
98864.178
99016.407
99176.235
99322.62
98062.736
98469.591
98642.152
98818.007
99003.565
99174.242
97802.505
98290.924
98474.105
98666.734
98871.835
99061.83
97550.097
98162.677
98377.536
98583.431
98797.042
98997.926
97387.545
98054.645
98331.206
98563.936
98782.777
98987.706
97446.409
98010.431
98279.854
98545.498
98790.589
99009.416
97671.837
98168.597
98340.056
98572.229
98810.944
99037.246
97947.742
98410.236
98550.338
98748.879
98958.862
99163.656
98126.209
98589.936
98798.005
99014.348
99223.542
99420.266
98416.144
98859.249
99058.197
99255.563
99451.844
99641.323
98766.392
99184.826
99379.544
99560.755
99739.891
99915.569
99177.525
99567.182
99752.849
99911.38
100069
100227.16
99641.836
99999.839
100170.14
100303.33
100436.07
100573.06
100151.99
100475.04
100625.08
100730.32
100835.08
100947.41
100704.35
100981.6
101108.1
101183.62
101257.78
101342.6
101284.75
101513.74
101612
101656.1
101698.25
101754.6
102061.25
102129.41
102142.83
102155.24
102187.48
102647.92
102630.88
102608.78
102605.62
103097.64
103183.08
103240.2
103276.98
103290.36
103282.92
103254.29
103211.06
103161.25
103106.4
103058.28
103011.67
102965.93
102968.14
102927.47
102932
102882.54
102889.96
102829.11
102840.16
102763.95
102778.31
102687.37
102703.61
102601.34
102617.78
102511.61
102527.25
102418.37
102432.2
102327.92
102339.66
102241.45
102250.99
102162.29
102169.66
102093.43
102098.92
102035.76
102039.61
101992.11
101994.55
101962.3
101963.48
101937.87
101938.49
101951.13
101951.47
101929.99
101931.51
)
;

boundaryField
{
    Side1
    {
        type            empty;
    }
    Inlet
    {
        type            totalPressure;
        rho             rho;
        psi             none;
        gamma           1;
        p0              uniform 102920.87;
        value           nonuniform List<scalar> 
92
(
101296.96
101297.09
102920.87
101263.33
101263.5
101263.71
101263.95
101264.23
101264.56
101264.96
101265.42
101265.97
101266.62
101267.39
101268.3
101269.37
101270.64
101272.13
101273.91
101276.04
101278.62
101281.76
101285.45
101289.43
101293.58
102920.87
101301.65
102920.87
102920.87
101321.22
101328.54
101328.54
101328.54
101328.54
101328.54
101328.54
101328.54
101328.54
101328.54
101328.54
101328.54
101328.54
101328.54
101328.54
101328.54
101328.54
101328.54
101328.54
101328.54
101328.54
101328.54
101328.54
101328.54
101328.54
101328.54
101328.54
101328.54
101328.54
101328.54
101328.54
101335.18
101328.54
101258.81
101258.98
101259.17
101259.36
101259.55
102920.87
101259.93
102920.87
101260.27
101260.44
101260.6
101260.77
101260.95
101261.13
102920.87
101261.48
101261.65
101261.82
102920.87
101262.15
101262.31
101262.47
101262.64
101262.82
102920.87
102920.87
102920.87
102920.87
101328.54
101328.54
)
;
    }
    Side2
    {
        type            empty;
    }
    Outlet
    {
        type            freestreamPressure;
        freestreamValue nonuniform List<scalar> 0();
        value           nonuniform List<scalar> 0();
    }
    Botwall
    {
        type            zeroGradient;
    }
    Cyli
    {
        type            zeroGradient;
    }
    procBoundary2to0
    {
        type            processor;
        value           nonuniform List<scalar> 
55
(
100501.37
100510.4
100519.1
100525.7
100531.07
100497.82
100499.79
100489.96
100476.08
100476.08
103152.4
103098.47
103098.47
103440.64
103311.63
100457.54
100457.54
100251.34
100251.34
101880.11
101880.11
102610.07
102610.07
103379.64
103377.09
103389.12
103392.44
103379.01
103349.74
103297.44
103234.35
103169.33
103109.86
103056.67
103008.95
103008.95
102983.78
102940.28
102890.55
102832.34
102762.94
102683.27
102595.43
102504.7
102411.38
102321.26
102235.44
102157.19
102089.24
102032.54
101989.89
101961.14
101937.18
101950.81
101928.86
)
;
    }
    procBoundary2to3
    {
        type            processor;
        value           nonuniform List<scalar> 
35
(
101617.49
101624.63
101689.39
100673.04
100742.36
100817.41
100897.17
100977.3
101055.44
101130.58
101200.78
101265.24
101323.55
101375.1
101421.2
101461.05
101497.36
101526.74
101558.32
101617.49
101575.51
100526.99
100525.71
100521.67
100516.68
100512.19
100509.43
100510.2
100516.4
100530.06
100553.12
100586.88
100673.04
100631.93
100525.71
)
;
    }
}


// ************************************************************************* //
