/*--------------------------------*- C++ -*----------------------------------*\
| =========                 |                                                 |
| \\      /  F ield         | OpenFOAM: The Open Source CFD Toolbox           |
|  \\    /   O peration     | Version:  2406                                  |
|   \\  /    A nd           | Website:  www.openfoam.com                      |
|    \\/     M anipulation  |                                                 |
\*---------------------------------------------------------------------------*/
FoamFile
{
    version     2.0;
    format      ascii;
    arch        "LSB;label=32;scalar=64";
    class       volScalarField;
    location    "0.08";
    object      T;
}
// * * * * * * * * * * * * * * * * * * * * * * * * * * * * * * * * * * * * * //

dimensions      [0 0 0 1 0 0 0];

internalField   nonuniform List<scalar> 
2065
(
292.8912
292.9453
293.07362
292.72937
292.67397
292.62168
292.57143
292.52177
292.4716
292.4249
292.4105
292.46413
292.56228
292.62993
292.67749
292.71986
292.76096
292.7964
292.83238
292.86126
292.89037
292.94442
293.07217
293.65018
293.58363
293.4692
293.35311
293.24886
293.15655
293.07351
292.99713
292.92622
292.85998
292.79768
292.73893
292.68342
292.6306
292.57958
292.5292
292.47808
292.43002
292.41138
292.45913
292.55766
292.62682
292.67487
292.71754
292.75893
292.79465
292.83086
292.85984
292.88951
292.94348
293.07084
293.62318
293.56776
293.46173
293.34945
293.24748
293.15713
293.07604
293.00169
292.93266
292.86798
292.80681
292.74866
292.69321
292.64001
292.5883
292.53715
292.48519
292.43597
292.41278
292.45435
292.55284
292.6236
292.67217
292.71512
292.75681
292.79281
292.82923
292.85835
292.88865
292.94242
293.06981
293.59618
293.55043
293.45368
293.34594
293.24632
293.15783
293.07859
293.00621
292.93905
292.87597
292.81603
292.75861
292.70337
292.64991
292.59762
292.54569
292.49295
292.44264
292.41483
292.44987
292.54782
292.62028
292.66938
292.7126
292.75459
292.79088
292.8275
292.85677
292.88776
292.94111
293.06976
293.57155
293.53259
293.44451
293.34198
293.24525
293.15879
293.08144
293.01097
292.94564
292.88416
292.82547
292.76887
292.71395
292.66035
292.60754
292.55486
292.50132
292.44985
292.418
292.44584
292.5426
292.61685
292.66649
292.70997
292.75227
292.78884
292.82564
292.8551
292.88683
292.93965
293.06913
293.54859
293.51394
293.43516
293.33847
293.24488
293.16052
293.08499
293.01634
292.95274
292.89278
292.83533
292.77957
292.72504
292.67136
292.61811
292.56471
292.51033
292.45761
292.42212
292.4426
292.5372
292.61332
292.66353
292.70724
292.74985
292.7867
292.82365
292.85334
292.88585
292.93805
293.0694
293.52756
293.49648
293.42597
293.33483
293.24502
293.16321
293.08964
293.02274
292.96073
292.90216
292.84584
292.79087
292.73672
292.68302
292.62937
292.57527
292.52007
292.46618
292.42717
292.44027
292.53166
292.60972
292.6605
292.70441
292.74733
292.78446
292.82154
292.85151
292.88478
292.93646
293.07032
293.51004
293.48
293.41638
293.3332
293.24752
293.16803
293.09618
293.03076
292.97009
292.91267
292.85728
292.80297
292.74915
292.69541
292.64137
292.58659
292.53059
292.47553
292.43315
292.43895
292.52603
292.60605
292.65742
292.70151
292.74472
292.78214
292.81933
292.8496
292.88362
292.93486
293.07186
293.49777
293.46813
293.40962
293.33192
293.25117
293.1749
293.10502
293.04094
292.98128
292.92471
292.86996
292.8161
292.76247
292.70862
292.65417
292.59873
292.54193
292.48577
292.44016
292.43886
292.5204
292.60233
292.65431
292.69853
292.742
292.77973
292.81704
292.84765
292.88234
292.93332
293.07407
293.48967
293.45964
293.40665
293.33596
293.2594
293.18566
293.11729
293.05407
292.99493
292.93868
292.8842
292.83049
292.77683
292.72276
292.66786
292.61174
292.55417
292.49699
292.44847
292.43994
292.51491
292.59858
292.65119
292.6955
292.73916
292.77723
292.81468
292.84566
292.88089
292.93202
293.07712
293.49242
293.46076
293.40958
293.34342
293.2714
293.20048
293.13344
293.07065
293.01149
292.95502
292.90027
292.84633
292.7924
292.73793
292.68251
292.62573
292.56747
292.50937
292.45796
292.44213
292.50971
292.59482
292.64807
292.69243
292.73618
292.77464
292.81229
292.84366
292.87923
292.93094
293.08057
293.50231
293.47029
293.42084
293.35737
293.28881
293.2201
293.15387
293.09096
293.03119
292.97394
292.9184
292.86375
292.80926
292.75422
292.69818
292.64078
292.58202
292.52316
292.46885
292.44525
292.50482
292.59109
292.64498
292.68934
292.73304
292.77192
292.80985
292.84165
292.8773
292.9301
293.08424
293.51907
293.48458
293.43521
293.3754
293.31023
293.24352
293.17788
293.11456
293.05381
292.99534
292.93859
292.88284
292.82742
292.77165
292.71492
292.65689
292.59764
292.53816
292.48081
292.44933
292.50077
292.5874
292.64191
292.68624
292.72977
292.76906
292.80735
292.83958
292.87506
292.92942
293.08802
293.53595
293.50033
293.45279
293.39642
293.33416
293.26925
293.20419
293.14046
293.07863
293.01876
292.96056
292.90346
292.84686
292.79016
292.73268
292.67399
292.61408
292.55339
292.49383
292.45557
292.49754
292.58381
292.63893
292.68317
292.72636
292.76605
292.80479
292.83742
292.87248
292.92958
293.0919
293.54881
293.51425
293.46979
293.41685
293.35767
293.29494
293.23094
293.1672
293.10457
293.04343
292.98378
292.92527
292.86739
292.80961
292.75134
292.69196
292.6313
292.56949
292.50827
292.4637
292.49474
292.58022
292.636
292.68012
292.72294
292.76298
292.80219
292.8351
292.86958
292.9301
293.0958
293.5568
293.5254
293.48458
293.43534
293.3795
293.3193
293.25676
293.19348
293.13048
293.06842
293.00756
292.94776
292.88867
292.82982
292.7707
292.71066
292.64926
292.58642
292.52361
292.47351
292.493
292.57673
292.6332
292.67717
292.71957
292.75982
292.79958
292.83265
292.86642
292.93031
293.09899
293.55916
293.53183
293.49558
293.45081
293.39883
293.34153
293.28083
293.21841
293.15548
293.09291
293.03118
292.97035
292.91024
292.85047
292.79054
292.72989
292.66782
292.60405
292.53969
292.48519
292.49339
292.57319
292.63054
292.67431
292.71628
292.75677
292.79691
292.83011
292.8631
292.9303
293.09961
293.55693
293.53398
293.50283
293.46315
293.41556
293.36153
293.30295
293.24165
293.17907
293.11632
293.05405
292.99251
292.93165
292.87116
292.81061
292.74941
292.68683
292.62231
292.5567
292.49855
292.49597
292.56988
292.62799
292.6716
292.71329
292.75368
292.79408
292.82767
292.85988
292.93013
293.09586
293.55076
293.53202
293.50605
293.47187
293.42929
293.37916
293.32315
293.26325
293.2012
293.13843
293.07584
293.01384
292.95249
292.89154
292.83058
292.76902
292.70611
292.64114
292.57478
292.51354
292.49911
292.56709
292.62572
292.66911
292.71035
292.75079
292.79095
292.82552
292.85698
292.92986
293.08984
293.54346
293.52785
293.50622
293.47718
293.43984
293.39424
293.34147
293.2834
293.22211
293.15941
293.09655
293.03419
292.97252
292.91133
292.85019
292.78849
292.72546
292.66036
292.59345
292.52941
292.50332
292.56445
292.62364
292.66658
292.70768
292.74797
292.78781
292.82374
292.85455
292.92917
293.08404
293.53799
293.52418
293.50545
293.48036
293.44763
293.40656
293.35751
293.30189
293.24181
293.1794
293.11633
293.05363
292.99168
292.93037
292.86925
292.80762
292.74471
292.67976
292.61277
292.54643
292.509
292.56135
292.62172
292.66494
292.70544
292.74522
292.78463
292.82225
292.85258
292.92818
293.08484
293.53903
293.52496
293.50665
293.48351
293.45387
293.41646
293.37096
293.31819
293.2599
293.19823
293.13521
293.07225
293.01007
292.94869
292.88767
292.82628
292.76366
292.69898
292.6318
292.56398
292.51756
292.55903
292.62022
292.66326
292.70282
292.74281
292.7819
292.82101
292.851
292.92637
293.0852
293.54069
293.52862
293.51272
293.49119
293.46305
293.42747
293.38419
293.33369
293.27713
293.21636
293.15352
293.09038
293.02793
292.96643
292.9055
292.8444
292.78218
292.71785
292.65071
292.58188
292.52738
292.55681
292.61871
292.66212
292.70131
292.74032
292.77948
292.81994
292.84953
292.92474
293.08446
293.54543
293.53294
293.51712
293.49692
293.47113
293.43855
293.39817
293.34987
293.29471
293.23464
293.17193
293.10852
293.04569
292.98391
292.92296
292.86208
292.80024
292.73632
292.66935
292.59976
292.53934
292.55627
292.61764
292.66147
292.69981
292.73847
292.77756
292.81866
292.84799
292.92227
293.08176
293.5516
293.53991
293.5249
293.50563
293.48096
293.4497
293.41097
293.36455
293.31124
293.2525
293.1903
293.12679
293.06357
293.00141
292.94028
292.87947
292.81795
292.75445
292.68785
292.61813
292.55388
292.55849
292.61699
292.66026
292.69844
292.73677
292.77603
292.81689
292.84593
292.91956
293.08127
293.55031
293.53974
293.52596
293.50813
293.48523
293.45624
293.42017
293.37649
293.32546
293.26842
293.20743
293.14452
293.08134
293.01894
292.95757
292.89675
292.83546
292.77242
292.70642
292.63713
292.57056
292.56177
292.61612
292.65944
292.69789
292.73541
292.77431
292.81427
292.84267
292.91484
293.07535
293.53945
293.53034
293.51833
293.50254
293.482
293.45567
293.42262
293.38233
293.33493
293.28124
293.22256
293.16106
293.09857
293.03631
292.97484
292.91397
292.85284
292.79026
292.72493
292.65624
292.58783
292.5656
292.61635
292.65933
292.69663
292.73411
292.77269
292.81122
292.83798
292.90784
293.0653
293.51766
293.51016
293.50017
293.48691
293.46943
293.44673
293.41782
293.382
293.33894
293.28899
293.23386
293.17507
293.11427
293.05288
292.99173
292.93098
292.87007
292.80793
292.74326
292.6752
292.60588
292.57123
292.61731
292.65985
292.69615
292.73217
292.77049
292.80736
292.83197
292.89856
293.07045
293.4843
293.47832
293.47035
293.45973
293.44564
293.42714
293.40315
293.37259
293.33495
293.29077
293.24061
293.18569
293.12763
293.06795
293.00777
292.94754
292.88703
292.82541
292.76146
292.69419
292.62491
292.57982
292.61828
292.66022
292.6954
292.73022
292.76696
292.80256
292.82506
292.88802
293.04038
293.44198
293.43739
293.43129
293.42311
293.4121
293.39738
293.37807
293.35346
293.32288
293.28562
293.24179
293.19219
293.13816
293.08124
293.02275
292.96352
292.90368
292.84271
292.77958
292.71325
292.64439
292.5904
292.61997
292.66125
292.69439
292.72755
292.7623
292.79658
292.81772
292.87984
293.03511
293.39436
293.39042
293.38546
293.37912
293.37091
293.36011
293.34588
293.32732
293.30338
293.27328
293.23665
293.19365
293.14507
293.09218
293.03637
292.97878
292.91998
292.85985
292.79763
292.73234
292.66409
292.6039
292.62213
292.66154
292.69292
292.72407
292.75635
292.78853
292.80931
292.87269
293.03401
293.35195
293.34815
293.3436
293.33799
293.33093
293.32203
293.31083
293.29653
293.27808
293.25448
293.22494
293.18905
293.14696
293.09942
293.04759
292.9927
292.93567
292.87677
292.81563
292.75144
292.6839
292.62006
292.62558
292.66309
292.69175
292.7196
292.74809
292.77825
292.79963
292.8624
293.03533
293.32108
293.31694
293.31233
293.30711
293.30101
293.2936
293.28423
293.27208
293.25623
293.23626
293.21184
293.18187
293.14578
293.10376
293.05654
293.00517
292.9506
292.8934
292.83359
292.77058
292.70381
292.63772
292.62951
292.66498
292.6899
292.71346
292.73864
292.7662
292.78924
292.85151
293.02663
293.30785
293.30256
293.29683
293.29057
293.28363
293.27577
293.26668
293.25593
293.24297
293.22658
293.20535
293.17887
293.14686
293.1091
293.06586
293.01775
292.96562
292.9102
292.85174
292.78983
292.72366
292.65529
292.63405
292.66594
292.68732
292.7076
292.72867
292.75313
292.77835
292.84183
293.02798
293.31814
293.31187
293.30498
293.29741
293.28907
293.27979
293.26936
293.2574
293.24348
293.22691
293.20692
293.18267
293.15327
293.11832
293.07786
293.03223
292.98204
292.92799
292.87053
292.80939
292.74356
292.67328
292.63991
292.66641
292.68546
292.70215
292.7189
292.74035
292.76604
292.83345
293.00678
293.33617
293.33009
293.3233
293.31566
293.30702
293.29719
293.28595
293.27302
293.25805
293.2406
293.21999
293.19548
293.16647
293.13249
293.09326
293.04899
293.00012
292.94707
292.89023
292.82949
292.76386
292.69305
292.64746
292.66698
292.68435
292.69713
292.7108
292.72799
292.75184
292.8202
292.99653
293.34502
293.34035
293.33499
293.32879
293.32159
293.31313
293.30313
293.29122
293.27694
293.2598
293.23927
293.21478
293.18571
293.15158
293.11232
293.06819
293.01966
292.96712
292.91067
292.85015
292.78474
292.71388
292.65757
292.66849
292.68397
292.69432
292.70469
292.71709
292.73826
292.80632
292.97919
293.33572
293.3325
293.32878
293.32443
293.31927
293.31306
293.30549
293.29616
293.28455
293.27005
293.25194
293.2295
293.20227
293.16981
293.13192
293.0887
293.0406
292.9882
292.93186
292.87143
292.80621
292.73538
292.67098
292.67149
292.68448
292.69263
292.69997
292.70915
292.72826
292.79339
292.95629
293.31502
293.31247
293.30961
293.30636
293.30259
293.29811
293.29267
293.28588
293.27725
293.26613
293.25184
293.23367
293.2107
293.18219
293.1477
293.10716
293.06089
293.00949
292.95358
292.89331
292.82822
292.75728
292.68694
292.67554
292.68619
292.692
292.6972
292.70507
292.7224
292.78384
292.93613
293.29606
293.2934
293.29052
293.28739
293.28395
293.28009
293.27563
293.27029
293.26369
293.25531
293.24444
293.23018
293.21163
293.18783
293.158
293.12166
293.07877
293.02973
292.97513
292.91542
292.85053
292.77936
292.70453
292.68012
292.68825
292.69255
292.69674
292.70416
292.72026
292.77923
292.92365
293.29402
293.29076
293.28724
293.28342
293.27925
293.27469
293.26962
293.26392
293.25733
293.24948
293.23981
293.22757
293.21181
293.19154
293.16573
293.13354
293.09447
293.04847
292.99588
292.93723
292.87264
292.8011
292.72282
292.6853
292.69014
292.6939
292.69768
292.70496
292.72046
292.7783
292.91596
293.30706
293.30343
293.29945
293.29509
293.29031
293.28505
293.27922
293.2727
293.26529
293.25668
293.24648
293.23413
293.2189
293.19983
293.17592
293.14623
293.10995
293.06658
293.01603
292.95857
292.89433
292.8225
292.74255
292.69225
292.69239
292.69574
292.69955
292.70639
292.72136
292.77886
292.91114
293.3214
293.31802
293.31428
293.31013
293.30552
293.30037
293.29458
293.28802
293.28047
293.27167
293.26124
293.24868
293.23337
293.21448
293.19112
293.16235
293.12731
293.08539
293.03619
292.97957
292.91561
292.84378
292.76356
292.70199
292.69595
292.69805
292.70104
292.70781
292.72302
292.77933
292.90721
293.32654
293.32367
293.32048
293.31694
293.31299
293.30856
293.30354
293.29779
293.2911
293.2832
293.27368
293.26205
293.24766
293.22974
293.20738
293.17964
293.14564
293.10466
293.05629
293.00031
292.93662
292.86496
292.78469
292.71387
292.70055
292.70235
292.70517
292.71139
292.72619
292.77901
292.90366
293.32543
293.32284
293.31999
293.31684
293.31335
293.30945
293.30507
293.30007
293.29427
293.28741
293.27911
293.26889
293.2561
293.23993
293.21944
293.19361
293.16143
293.12206
293.07494
293.01983
292.95673
292.8856
292.80578
292.7282
292.70683
292.70898
292.71315
292.71894
292.732
292.7801
292.90256
293.32275
293.32022
293.31743
293.31436
293.31098
293.30722
293.30303
293.2983
293.29287
293.28652
293.27893
293.26968
293.2582
293.24368
293.22512
293.20146
293.17162
293.13458
293.08959
293.03623
292.97455
292.90474
292.82631
292.745
292.71658
292.7202
292.72547
292.73046
292.74096
292.78492
292.90395
293.32264
293.3201
293.3173
293.3142
293.31078
293.30699
293.30275
293.29798
293.29254
293.28625
293.2788
293.26981
293.25872
293.24486
293.22747
293.20543
293.17759
293.14285
293.10031
293.04948
292.99029
292.92309
292.84744
292.76524
292.72911
292.73268
292.73753
292.74083
292.74786
292.78756
292.90069
293.31856
293.31612
293.31341
293.31041
293.30708
293.30337
293.29922
293.29454
293.28921
293.28305
293.27581
293.26715
293.25661
293.24356
293.22718
293.20658
293.18069
293.14844
293.10889
293.06142
293.00587
292.94242
292.87051
292.78945
292.74248
292.74218
292.7448
292.74592
292.75285
292.79203
292.90402
293.31577
293.31346
293.31089
293.30802
293.30483
293.30125
293.29724
293.29269
293.28749
293.28148
293.27443
293.26603
293.25584
293.24332
293.22779
293.20837
293.18405
293.15378
293.11668
293.07211
293.0198
292.9596
292.89068
292.811
292.75323
292.74824
292.75073
292.75128
292.75876
292.80021
292.90587
293.30708
293.30495
293.30258
293.29994
293.297
293.29371
293.29003
293.28587
293.28113
293.27566
293.26926
293.26166
293.25245
293.2411
293.22695
293.2092
293.18685
293.15884
293.12412
293.08188
293.03174
292.97352
292.90663
292.82911
292.76265
292.75377
292.75878
292.76149
292.77268
292.81973
292.90974
293.30283
293.30076
293.29845
293.29587
293.293
293.28979
293.2862
293.28216
293.27758
293.27234
293.26624
293.25901
293.25028
293.23964
293.22642
293.20982
293.18889
293.16251
293.12961
293.08933
293.04098
292.98419
292.91882
292.84351
292.77127
292.75655
292.76142
292.76608
292.77947
292.83673
292.91862
293.29656
293.29462
293.29246
293.29002
293.28729
293.28421
293.28073
293.27678
293.27227
293.26708
293.26104
293.25392
293.24539
293.23503
293.22229
293.2065
293.18678
293.16201
293.13087
293.09226
293.04552
292.99041
292.92694
292.85397
292.77721
292.75413
292.76053
292.76957
292.78895
292.85194
292.92164
293.29212
293.29022
293.28807
293.28564
293.2829
293.27979
293.27625
293.27221
293.26756
293.26217
293.25587
293.24843
293.23955
293.2288
293.21571
293.19968
293.17995
293.15554
293.12532
293.08819
293.0434
292.99055
292.92937
292.85849
292.77859
292.74334
292.74865
292.75858
292.77876
292.84228
292.91989
293.27559
293.27393
293.27206
293.26993
293.26752
293.26477
293.26163
293.25803
293.25388
293.24904
293.24335
293.23659
293.22848
293.21864
293.20656
293.19157
293.17289
293.14955
293.12056
293.085
293.04209
292.99134
292.93235
292.86374
292.78288
292.73466
292.73607
292.7475
292.77379
292.84129
292.91963
293.25961
293.2581
293.25638
293.25442
293.25219
293.24962
293.24667
293.24327
293.23931
293.23469
293.22924
293.22276
293.21495
293.20542
293.1937
293.17909
293.16073
293.13775
293.1094
293.0751
293.03419
292.98595
292.92967
292.86379
292.78464
292.72668
292.72396
292.73674
292.76288
292.83206
292.92558
293.22325
293.22232
293.22124
293.21999
293.21853
293.21681
293.21478
293.21237
293.20949
293.20601
293.20179
293.19663
293.19028
293.18239
293.17246
293.15993
293.14407
293.12411
293.09924
293.06873
293.03194
292.98821
292.93679
292.87642
292.80285
292.73694
292.73039
292.74426
292.77341
292.84634
292.93902
293.19918
293.19833
293.19735
293.19617
293.19476
293.19308
293.19107
293.18867
293.18582
293.18244
293.17842
293.17365
293.16795
293.16107
293.15269
293.1423
293.12934
293.11298
293.09214
293.06587
293.03356
292.99481
292.94886
292.89441
292.82795
292.7599
292.75154
292.76841
292.79744
292.86182
292.95374
293.15778
293.15717
293.1564
293.15541
293.15427
293.15303
293.15171
293.15034
293.14885
293.14718
293.14519
293.14276
293.13968
293.13571
293.13056
293.12382
293.11483
293.10278
293.08694
293.06662
293.04145
293.01072
292.97335
292.92817
292.87267
292.80408
292.78085
292.79516
292.82546
292.88251
292.97372
293.57342
293.57237
293.57089
293.56882
293.56602
293.56246
293.55814
293.55309
293.54748
293.54172
293.53664
293.53358
293.53469
293.54195
293.55573
293.57307
293.5886
293.59734
293.59853
293.59429
293.58782
293.58222
293.58098
293.58372
293.58754
293.59222
293.59508
293.59195
293.58014
293.5593
293.52898
293.48944
293.44517
293.40076
293.36687
293.34868
293.34868
293.36429
293.37586
293.37147
293.58061
293.57815
293.57513
293.57132
293.56662
293.56101
293.5546
293.54762
293.54055
293.53429
293.53049
293.53164
293.54018
293.55616
293.5764
293.59412
293.60374
293.6042
293.59836
293.58947
293.58062
293.57618
293.57692
293.57922
293.58367
293.58794
293.58704
293.57716
293.55782
293.52852
293.48951
293.4446
293.39868
293.36223
293.34076
293.33805
293.35341
293.36726
293.36581
293.34857
293.32595
293.31064
293.31331
293.32801
293.33995
293.34196
293.33942
293.33662
293.33642
293.3317
293.32809
293.31851
293.31402
293.30699
293.30229
293.28446
293.26734
293.22784
293.20458
293.16402
293.59065
293.58519
293.57917
293.57235
293.56464
293.55611
293.54701
293.538
293.53008
293.52499
293.52587
293.53506
293.55221
293.57429
293.59369
293.60527
293.60532
293.599
293.58918
293.57818
293.57086
293.56937
293.57051
293.57401
293.5792
293.58047
293.57279
293.55535
293.52751
293.48942
293.44437
293.39743
293.3588
293.33423
293.32876
293.34331
293.35895
293.36037
293.34507
293.32265
293.30619
293.30756
293.322
293.33473
293.33759
293.3354
293.33264
293.33251
293.328
293.32465
293.31532
293.31092
293.30413
293.29953
293.28205
293.26529
293.22666
293.2029
293.16161
293.60662
293.59477
293.58304
293.57115
293.55904
293.54665
293.53474
293.52465
293.51771
293.51703
293.52578
293.54211
293.56418
293.58367
293.59639
293.59877
293.59366
293.58474
293.57341
293.56433
293.56021
293.56146
293.56348
293.56892
293.57218
293.56685
293.55161
293.52564
293.48888
293.44427
293.39673
293.35629
293.32894
293.32064
293.33395
293.35083
293.35506
293.34182
293.31983
293.30232
293.30238
293.31644
293.32984
293.33353
293.3317
293.32897
293.32887
293.32454
293.3214
293.31231
293.30797
293.30138
293.29686
293.27971
293.26327
293.22546
293.20142
293.15981
293.65486
293.63033
293.60783
293.5869
293.56781
293.54976
293.5332
293.51946
293.50997
293.50589
293.51188
293.52495
293.54496
293.56316
293.57636
293.58168
293.5801
293.57403
293.56459
293.55548
293.54969
293.55109
293.55214
293.55729
293.56227
293.55929
293.54648
293.52274
293.48772
293.44412
293.39631
293.35446
293.3248
293.3136
293.32528
293.34293
293.34983
293.33874
293.31737
293.29892
293.29774
293.31127
293.32524
293.32974
293.32829
293.32557
293.32547
293.32128
293.31834
293.30946
293.30517
293.29875
293.29428
293.27745
293.26127
293.22425
293.20012
293.15852
)
;

boundaryField
{
    Side1
    {
        type            empty;
    }
    Inlet
    {
        type            totalTemperature;
        gamma           1.4;
        T0              uniform 294.31799;
        value           nonuniform List<scalar> 
59
(
292.97961
292.97935
292.97907
292.97877
294.31799
292.97823
292.97792
292.97764
292.97738
292.97711
292.97685
292.97661
292.97638
292.97617
292.97596
292.97577
292.97558
292.97541
292.97522
292.97488
292.97449
292.97403
292.97343
292.97288
292.97289
292.97267
292.97198
292.9708
292.96947
292.9696
292.9705
292.96992
292.96958
292.96887
294.31799
294.31799
292.96666
292.96764
292.96896
292.96992
292.97046
292.97032
292.97047
292.97063
292.9705
292.97026
292.97066
292.97054
292.97107
292.97161
292.97231
292.97296
292.97289
292.97322
292.97358
292.97416
292.97568
292.97734
292.98199
)
;
    }
    Side2
    {
        type            empty;
    }
    Outlet
    {
        type            zeroGradient;
    }
    Botwall
    {
        type            zeroGradient;
    }
    Cyli
    {
        type            zeroGradient;
    }
    procBoundary3to0
    {
        type            processor;
        value           nonuniform List<scalar> 7(293.57417 293.58267 293.58267 293.59573 293.59573 293.61901 293.61901);
    }
    procBoundary3to1
    {
        type            processor;
        value           nonuniform List<scalar> 
62
(
293.56709
293.56641
293.56528
293.5636
293.56135
293.55851
293.55508
293.55103
293.54644
293.54172
293.53756
293.53509
293.53599
293.5418
293.55306
293.56739
293.58087
293.58902
293.59132
293.58947
293.58619
293.58411
293.5858
293.59037
293.59531
293.59951
293.60063
293.59544
293.58205
293.56016
293.52922
293.48954
293.44635
293.40398
293.37299
293.35833
293.36075
293.37602
293.38488
293.37745
293.35245
293.35245
293.32986
293.31581
293.31972
293.33452
293.34556
293.34669
293.34382
293.34095
293.34065
293.33565
293.33176
293.32189
293.31728
293.30999
293.30515
293.28696
293.2694
293.229
293.2065
293.16704
)
;
    }
    procBoundary3to2
    {
        type            processor;
        value           nonuniform List<scalar> 
35
(
292.89202
292.94601
293.07517
292.71998
292.66486
292.61322
292.56384
292.51488
292.46572
292.42051
292.41005
292.46926
292.56674
292.63296
292.68004
292.72211
292.76292
292.79808
292.83382
292.86263
292.86263
293.67694
293.67694
293.59802
293.47612
293.35679
293.25021
293.15579
293.07073
292.99231
292.91957
292.85187
292.78857
292.78857
293.68093
)
;
    }
}


// ************************************************************************* //
