/*--------------------------------*- C++ -*----------------------------------*\
| =========                 |                                                 |
| \\      /  F ield         | OpenFOAM: The Open Source CFD Toolbox           |
|  \\    /   O peration     | Version:  2406                                  |
|   \\  /    A nd           | Website:  www.openfoam.com                      |
|    \\/     M anipulation  |                                                 |
\*---------------------------------------------------------------------------*/
FoamFile
{
    version     2.0;
    format      ascii;
    arch        "LSB;label=32;scalar=64";
    class       volScalarField;
    location    "0.064";
    object      Ma;
}
// * * * * * * * * * * * * * * * * * * * * * * * * * * * * * * * * * * * * * //

dimensions      [0 0 0 0 0 0 0];

internalField   nonuniform List<scalar> 
8260
(
0.14423499
0.14538641
0.14657747
0.14784111
0.14910778
0.15035429
0.15158819
0.15280635
0.15410664
0.15557513
0.15705432
0.15857257
0.16007406
0.16142288
0.16211369
0.16161661
0.15906065
0.1556749
0.15381658
0.1526664
0.15177109
0.15100188
0.1503672
0.14983447
0.14938144
0.1489486
0.14856238
0.14825863
0.14800251
0.14785102
0.14774646
0.14054612
0.14204959
0.14365425
0.1452776
0.1468887
0.14847309
0.15002894
0.15156378
0.15313143
0.154772
0.15641328
0.1580518
0.15962839
0.16099899
0.16164514
0.16102417
0.15836333
0.15512315
0.1534752
0.15241964
0.15157762
0.15084607
0.15024136
0.14973608
0.14930253
0.14888434
0.14850913
0.14821447
0.14796468
0.14781771
0.14771589
0.13629196
0.13814083
0.14018303
0.1422235
0.14422911
0.14619216
0.14810838
0.14998143
0.15184329
0.15371391
0.15555098
0.15733862
0.15901512
0.16042503
0.16105011
0.16032945
0.15757721
0.15455981
0.15311825
0.1521504
0.15136336
0.15067202
0.15009954
0.14962477
0.14921321
0.14881188
0.14844903
0.14816446
0.14792177
0.14777989
0.14768112
0.13221743
0.13435445
0.13672492
0.1391133
0.14147088
0.1437839
0.14604226
0.14824039
0.15039233
0.15250739
0.15455008
0.15649672
0.15828061
0.15972777
0.16032493
0.15948224
0.15665693
0.15393196
0.15270628
0.15183751
0.15111443
0.15046987
0.14993541
0.14949615
0.14910986
0.14872808
0.14837972
0.14810694
0.14787266
0.14773669
0.14764154
0.12844527
0.13078994
0.13338658
0.13603828
0.13868595
0.14130335
0.14387071
0.14637143
0.14880178
0.15115835
0.15340787
0.15551697
0.15741043
0.15888832
0.15944023
0.15844705
0.15558894
0.15325289
0.15224323
0.15148264
0.15083191
0.15024016
0.149749
0.14935011
0.14899216
0.14863286
0.14830105
0.14804156
0.14781687
0.14768757
0.14759654
0.12507625
0.12754778
0.13027681
0.13310037
0.13595838
0.13881397
0.14163712
0.14439995
0.14708215
0.14966518
0.15211282
0.15437976
0.15637826
0.15787392
0.15835215
0.15718326
0.15437346
0.15251761
0.15171986
0.15107863
0.15051004
0.149978
0.14953647
0.14918376
0.14885752
0.14852402
0.14821127
0.14796697
0.14775338
0.14763161
0.14754537
0.12221632
0.12474555
0.12751988
0.13041903
0.13339301
0.13640105
0.13940567
0.14236921
0.14525698
0.1480349
0.1506577
0.15306547
0.15515306
0.15664124
0.15700326
0.15564192
0.15303867
0.15172055
0.15113129
0.15061978
0.15014458
0.14967969
0.14929475
0.14899502
0.1487043
0.14840011
0.14810913
0.14788202
0.14768127
0.1475679
0.14748725
0.12003167
0.12251213
0.1252332
0.12810733
0.13109507
0.13415687
0.1372519
0.1403358
0.14336258
0.14628364
0.14904029
0.15155443
0.15369712
0.15513404
0.15532223
0.15376728
0.15162669
0.1508521
0.15046964
0.1500996
0.14973025
0.14934012
0.14901961
0.14878058
0.14853005
0.14825887
0.14799264
0.14778501
0.14759932
0.14749526
0.14742127
0.11854648
0.1208966
0.12348168
0.1262403
0.12914469
0.13215972
0.13524562
0.13835585
0.14143737
0.14442942
0.14725771
0.14982149
0.15195831
0.15327865
0.15321969
0.15156356
0.15020142
0.14990493
0.14972829
0.1495118
0.1492618
0.14895451
0.14870721
0.14853657
0.14833194
0.14809813
0.14785979
0.14767406
0.14750615
0.14741241
0.1473464
0.11773743
0.11990116
0.12229082
0.12485981
0.12759091
0.13046042
0.1334347
0.13646948
0.13950853
0.14248151
0.14529775
0.14782823
0.14986199
0.15095893
0.15056557
0.14920839
0.1487919
0.1488669
0.1489016
0.14885006
0.14873389
0.14851878
0.148354
0.14825801
0.1481054
0.14791487
0.14770822
0.14754693
0.14739991
0.14731786
0.14726131
0.11750408
0.11943181
0.12157583
0.12390036
0.12639266
0.1290374
0.13181082
0.13467394
0.13756979
0.14042014
0.1431172
0.14549596
0.14727531
0.14796161
0.14739661
0.14702788
0.14735706
0.14774015
0.14799119
0.14810856
0.14814193
0.14802969
0.14795734
0.14793989
0.14784515
0.14770549
0.14753567
0.14740149
0.14727847
0.14720998
0.1471643
0.11779661
0.11942608
0.12125574
0.1232649
0.12545197
0.12780477
0.13030164
0.13290446
0.1355526
0.13815724
0.14058673
0.14262122
0.14393626
0.14425054
0.14437326
0.14507451
0.14589351
0.14652644
0.14698683
0.14729301
0.14748147
0.14748134
0.1475151
0.14757916
0.14754622
0.14746564
0.14733948
0.14723589
0.14713954
0.14708704
0.14705324
0.11815461
0.11948873
0.12101323
0.12270277
0.12455122
0.12655642
0.12870251
0.13094855
0.13322365
0.13542738
0.13742903
0.13901148
0.13993765
0.1406924
0.14197313
0.14330523
0.14435531
0.14523278
0.14590553
0.14640108
0.14674098
0.14687478
0.14702504
0.14717569
0.14720833
0.14719106
0.14711645
0.14704872
0.14698121
0.14694725
0.14692565
0.11816899
0.11924673
0.12048076
0.12186256
0.12339384
0.12505457
0.12681603
0.12864352
0.13047277
0.13221992
0.13378946
0.13518332
0.13661358
0.13834245
0.14006534
0.14153549
0.14282043
0.1438836
0.14475716
0.14544278
0.14592969
0.14620132
0.14648599
0.14673227
0.14683114
0.14687974
0.14686278
0.14683842
0.14680214
0.14678879
0.14677886
0.11790919
0.11859463
0.11946326
0.1205234
0.12179137
0.12317104
0.12460427
0.12612014
0.12771407
0.12935602
0.13103016
0.13279278
0.13472979
0.13660672
0.13831009
0.13989245
0.14131387
0.14253398
0.14356835
0.14442976
0.1450579
0.14546774
0.1458946
0.14624858
0.14641656
0.14653133
0.14657581
0.14660253
0.14660134
0.14661008
0.14661045
0.1190508
0.11956919
0.12013431
0.12075198
0.12148312
0.12240952
0.12352318
0.12481719
0.12625886
0.12780801
0.1295206
0.13141842
0.1333313
0.13511253
0.13678822
0.13834769
0.13989501
0.14123514
0.14237861
0.14338435
0.14414735
0.14468627
0.14525231
0.14571539
0.14596672
0.14614765
0.14625287
0.1463374
0.14637754
0.14640997
0.14641858
0.12044898
0.12097693
0.12157502
0.12223819
0.12292799
0.12366408
0.12446279
0.1252258
0.12609627
0.12728484
0.12878851
0.13033434
0.13198824
0.13383543
0.13553533
0.13701485
0.13855922
0.14001081
0.14123338
0.14233784
0.14321373
0.14388288
0.14457149
0.14512975
0.14547167
0.1457288
0.14589471
0.14603963
0.14612896
0.14618739
0.14620233
0.12186852
0.12220222
0.12259168
0.12304884
0.12359096
0.12424233
0.12504401
0.12602405
0.12699507
0.12789904
0.12872466
0.1298786
0.13122876
0.13274155
0.13445785
0.13599929
0.13741575
0.13886446
0.14016628
0.141326
0.14229281
0.14308361
0.14386352
0.14449821
0.14492282
0.14527253
0.14550485
0.14570914
0.14585307
0.14594109
0.14596154
0.12366816
0.12397707
0.12433092
0.12472938
0.12517234
0.12565637
0.12617167
0.12671824
0.12735848
0.12817947
0.12918042
0.13008808
0.13101247
0.13218248
0.13357505
0.13517948
0.1365334
0.13785227
0.13918704
0.1403965
0.14141294
0.14229819
0.1431552
0.14383637
0.1443256
0.14477878
0.14508884
0.14534834
0.1455471
0.14566858
0.14569673
0.1251496
0.12535057
0.12558281
0.12585222
0.12616876
0.12654493
0.12699817
0.12754112
0.12815774
0.12880689
0.12948036
0.13035291
0.13131531
0.13207023
0.13315344
0.13446544
0.13580438
0.13701358
0.13830295
0.13953521
0.14059946
0.14155291
0.14245173
0.14317638
0.14370929
0.14424686
0.14465037
0.14496008
0.14520878
0.1453673
0.14540827
0.12686476
0.12704802
0.1272579
0.12749603
0.12776508
0.12806715
0.12840086
0.1287654
0.12917552
0.12966575
0.13025632
0.13085776
0.13154456
0.13241266
0.13309103
0.13412364
0.13523485
0.13633998
0.13754637
0.13872775
0.13984233
0.1408804
0.14175975
0.14252813
0.14311282
0.14368292
0.14418254
0.14454798
0.14483825
0.14503453
0.14509539
0.12825689
0.12837425
0.12850973
0.12866649
0.12884991
0.12906658
0.12932463
0.12963334
0.1299975
0.13041167
0.13087487
0.13143919
0.13207789
0.13275226
0.13350977
0.1340601
0.13498325
0.13597694
0.13701095
0.1380482
0.13914075
0.14028685
0.14109582
0.1418558
0.14253719
0.14311192
0.14367779
0.14410952
0.14443833
0.14466888
0.14475697
0.12987311
0.12998174
0.13010615
0.1302477
0.13040816
0.13058889
0.1307909
0.13101538
0.13126552
0.13155029
0.13187906
0.13223961
0.13264743
0.13315296
0.13374318
0.13438798
0.13498267
0.13582615
0.13669698
0.13754023
0.13853326
0.13969062
0.14045417
0.14115243
0.14193991
0.14255834
0.14314533
0.14364066
0.14401366
0.14427164
0.14439182
0.1310802
0.13114373
0.13121706
0.13130206
0.13140172
0.13152004
0.13166236
0.13183513
0.13204229
0.1322902
0.13258347
0.1329335
0.13334111
0.13377367
0.13425632
0.13481002
0.13537458
0.13598109
0.13659472
0.13728803
0.1381382
0.13905254
0.13983381
0.14051243
0.14132356
0.14202397
0.14262475
0.14315203
0.14356627
0.14384851
0.14399886
0.13250882
0.13257022
0.13264045
0.13272036
0.13281098
0.13291314
0.13302719
0.1331534
0.13329504
0.13345343
0.13363396
0.13384328
0.13409327
0.13440473
0.13475263
0.13516184
0.13560048
0.1360736
0.13666784
0.13725161
0.13795487
0.13862325
0.13936725
0.14008871
0.14079834
0.14152725
0.14214597
0.1426624
0.1431023
0.1434057
0.14357769
0.13347993
0.13351344
0.13355213
0.13359703
0.13364971
0.13371229
0.13378754
0.13387892
0.13399015
0.13412445
0.13428324
0.13446587
0.13466986
0.13489642
0.13516827
0.13545166
0.13578173
0.13625739
0.13672344
0.13732478
0.13785909
0.13839807
0.13910774
0.13980834
0.14044826
0.14108129
0.14168306
0.14218814
0.14262842
0.14294636
0.14313141
0.13450832
0.13454442
0.13458581
0.13463293
0.13468622
0.1347458
0.1348114
0.13488229
0.13495743
0.13503613
0.13511932
0.13521125
0.13532138
0.13546403
0.13564988
0.13591532
0.13622536
0.13651154
0.13690835
0.13731782
0.13772933
0.13819794
0.13877133
0.13945891
0.14012397
0.14065218
0.14120696
0.1417172
0.14214299
0.14247426
0.14266937
0.13534153
0.13535752
0.13537634
0.13539852
0.13542491
0.13545673
0.13549557
0.13554356
0.13560324
0.13567738
0.13576917
0.13588021
0.13601007
0.13615836
0.13632565
0.13650035
0.13670055
0.13692807
0.13712794
0.13739407
0.13771111
0.13810357
0.13858242
0.1391249
0.13967096
0.14023437
0.14074174
0.14123942
0.1416624
0.14199936
0.14220319
0.13606939
0.13608361
0.1360998
0.13611844
0.13614013
0.1361656
0.13619575
0.13623159
0.13627431
0.13632518
0.13638469
0.1364533
0.13653022
0.13661097
0.13669885
0.13680971
0.13695591
0.13714333
0.13737743
0.13761076
0.13789821
0.13819908
0.138569
0.13898265
0.13940296
0.13987445
0.14034817
0.14080442
0.14121836
0.1415455
0.1417491
0.13648212
0.13649282
0.13650538
0.13652023
0.13653789
0.13655894
0.13658407
0.13661409
0.13664994
0.13669276
0.13674397
0.13680553
0.1368798
0.13696632
0.13707178
0.13718934
0.1373169
0.13746423
0.13763946
0.13784402
0.13807914
0.13835544
0.13864618
0.1389263
0.13927429
0.13967267
0.14009335
0.14050485
0.14088336
0.14119198
0.14138342
0.13682946
0.13683815
0.13684873
0.13686146
0.13687666
0.13689472
0.13691608
0.13694126
0.13697089
0.1370057
0.13704647
0.13709481
0.13715368
0.1372255
0.13730448
0.13739611
0.1375033
0.13763
0.13778133
0.13795678
0.13815711
0.1383824
0.13862282
0.1389008
0.13922419
0.13958053
0.13996885
0.14035639
0.14071759
0.14101588
0.14120105
0.077384386
0.09441083
0.10569686
0.11404871
0.12099285
0.1272696
0.13303656
0.13795377
0.14275137
0.14721595
0.15130454
0.15501796
0.15837064
0.16134453
0.16390643
0.16586727
0.16681732
0.16636864
0.16361943
0.15965907
0.15706744
0.15538613
0.15398047
0.15277055
0.15179927
0.15096245
0.15028824
0.14974238
0.14931927
0.14904342
0.14886143
0.1001663
0.10874146
0.11526714
0.12094139
0.12639718
0.13171651
0.13667457
0.14123806
0.14555944
0.14954433
0.15319557
0.15653043
0.1595596
0.16225353
0.16456573
0.16624838
0.16689873
0.16612422
0.16303295
0.15914798
0.15676686
0.15517347
0.15381289
0.15263757
0.15169353
0.15087583
0.15021618
0.14968144
0.14926598
0.14899565
0.14882358
0.10690541
0.11309559
0.11897113
0.12462863
0.13003285
0.13507194
0.13967437
0.14388005
0.14778888
0.15138556
0.15469255
0.15772937
0.16050029
0.16296692
0.16507181
0.16651031
0.16690775
0.16583273
0.16246241
0.15872862
0.15651612
0.15498062
0.15365713
0.15251195
0.15159203
0.1507919
0.1501456
0.14962131
0.149213
0.14894794
0.14878166
0.11303846
0.11888824
0.12438111
0.1294851
0.13423839
0.13864079
0.14268394
0.14641041
0.14987908
0.15308928
0.15606352
0.15881729
0.16134507
0.16359795
0.16550135
0.16668993
0.16686052
0.1654788
0.1618944
0.15832003
0.15625689
0.15477892
0.15349465
0.15238148
0.15148708
0.15070556
0.15007329
0.14956
0.14915926
0.14889977
0.14873686
0.11956867
0.12477788
0.12956019
0.13399462
0.13813039
0.14196011
0.14548824
0.14875581
0.15180505
0.15464929
0.15731114
0.15980073
0.1621014
0.16415286
0.16585492
0.16680907
0.16677567
0.16508338
0.16131683
0.15793646
0.15600895
0.15458162
0.15333504
0.15225282
0.15138296
0.15061961
0.15000095
0.14949847
0.14910521
0.14885129
0.14869165
0.12654177
0.13078806
0.13474159
0.13844505
0.14190955
0.14513023
0.14812518
0.15092654
0.15356698
0.15606347
0.15843311
0.16067746
0.16276731
0.16463027
0.16613432
0.1668747
0.16666203
0.16463802
0.16074424
0.15757443
0.1557644
0.15438389
0.15317463
0.15212324
0.15127785
0.15053282
0.14992781
0.14943627
0.14905062
0.14880239
0.14864577
0.13343378
0.136723
0.13981766
0.14274149
0.14550095
0.14810351
0.15056574
0.15291047
0.1551609
0.15733087
0.15942917
0.16144723
0.16334285
0.16503199
0.16634782
0.16690777
0.16649207
0.16414243
0.16018469
0.15723333
0.15552504
0.1541878
0.1530153
0.1519943
0.15117284
0.150446
0.14985437
0.14937373
0.14899566
0.14875315
0.14859967
0.14034278
0.14257342
0.14472438
0.14682272
0.14886848
0.15085801
0.15279936
0.15470504
0.15658761
0.15845352
0.16030151
0.16211208
0.16383049
0.16536208
0.1665048
0.16690308
0.16626941
0.1636048
0.1596469
0.15691006
0.15528897
0.15399252
0.15285636
0.15186542
0.15106755
0.15035888
0.1497805
0.14931076
0.14894033
0.14870358
0.14855324
0.14690545
0.14807593
0.14930375
0.15060558
0.15196608
0.15336742
0.15481363
0.15630616
0.15784671
0.15943259
0.16105181
0.16267381
0.16423188
0.16561693
0.16659271
0.16684851
0.16599009
0.16303406
0.15913734
0.15660218
0.15505621
0.15379845
0.15269825
0.15173703
0.15096232
0.15027172
0.14970639
0.14924751
0.14888469
0.14865371
0.14850657
0.1528845
0.15308183
0.15347995
0.15404273
0.15475846
0.15561105
0.15659835
0.15770984
0.15893731
0.16026876
0.16168135
0.16313375
0.16454784
0.16579088
0.16661856
0.16675057
0.16565974
0.16245468
0.15865801
0.15630681
0.15482617
0.15360556
0.15254091
0.1516091
0.15085715
0.15018454
0.14963206
0.14918402
0.14882878
0.14860357
0.14845966
0.15820124
0.15754811
0.1571897
0.15707898
0.15720686
0.15756998
0.15814365
0.15891208
0.15985844
0.16096267
0.16219124
0.16349242
0.16477575
0.1658784
0.16658455
0.16661353
0.16528816
0.16187656
0.15820763
0.1560217
0.15459882
0.15341404
0.15238451
0.15148178
0.15075221
0.15009747
0.14955763
0.14912037
0.14877267
0.14855321
0.14841252
0.16274096
0.16137546
0.16036178
0.15966949
0.15929555
0.15923007
0.15943775
0.15990848
0.16060881
0.16151456
0.1625817
0.16374869
0.16490947
0.1658946
0.16651662
0.16643775
0.16488423
0.16130556
0.15778455
0.15574505
0.15437403
0.15322403
0.15222912
0.15135517
0.1506476
0.15001058
0.14948317
0.14905662
0.1487164
0.14850264
0.14836517
0.16637554
0.16446434
0.16294207
0.16179147
0.16100676
0.16057436
0.16047817
0.16069095
0.16118382
0.16192127
0.16284916
0.16389601
0.16495841
0.16586615
0.16641193
0.16622135
0.16445343
0.16074964
0.15738634
0.15547547
0.15415189
0.15303575
0.15207485
0.15122937
0.15054347
0.14992397
0.14940879
0.14899285
0.14866002
0.14845192
0.14831763
0.16904604
0.16676844
0.16489721
0.16341444
0.16231739
0.16159996
0.16125205
0.16124997
0.16156642
0.16216257
0.16297824
0.16394186
0.16495245
0.16579384
0.16625697
0.16595863
0.16400147
0.1602111
0.15701063
0.15521201
0.15393251
0.15284944
0.15192182
0.1511045
0.15043994
0.14983774
0.14933457
0.14892914
0.14860359
0.14840105
0.1482699
0.17082562
0.16828545
0.16618405
0.16448302
0.16317288
0.16224945
0.16171005
0.16154673
0.16173754
0.16224208
0.16300279
0.16392457
0.164885
0.16566551
0.16605578
0.16565369
0.16353117
0.15969271
0.15665539
0.15495412
0.15371612
0.15266536
0.15177016
0.15098071
0.15033713
0.14975198
0.14926061
0.14886554
0.14854715
0.14835008
0.14822201
0.17189045
0.16919007
0.16691648
0.16505605
0.16360201
0.16254613
0.16188286
0.16163867
0.1617775
0.16223045
0.1629456
0.16382808
0.16474216
0.16548073
0.16581333
0.16531754
0.16305033
0.15919631
0.15631874
0.15470157
0.15350296
0.15248378
0.15162001
0.15085813
0.15023513
0.14966678
0.14918699
0.14880212
0.14849076
0.14829904
0.14817395
0.17236636
0.1696419
0.16728182
0.16532221
0.16377662
0.16264339
0.16191824
0.16162319
0.16171033
0.1621116
0.16277626
0.16362833
0.16452236
0.16524009
0.16553103
0.16495208
0.16256708
0.1587228
0.1559976
0.1544542
0.15329325
0.1523049
0.15147143
0.15073681
0.15013409
0.14958221
0.1491138
0.14873896
0.14843447
0.14824797
0.14812575
0.17160558
0.16919298
0.16701649
0.16514209
0.16362052
0.16248444
0.16175428
0.16142621
0.16146317
0.16183511
0.16248215
0.16332739
0.16422507
0.16494447
0.16521136
0.16456417
0.16208735
0.15827189
0.15569009
0.15421194
0.15308714
0.15212885
0.1513245
0.15061684
0.15003408
0.14949838
0.14904114
0.14867612
0.14837835
0.1481969
0.14807743
0.16974093
0.16768913
0.16583934
0.16422853
0.16289584
0.16188383
0.16123464
0.16095032
0.16100985
0.16139978
0.16206268
0.16292623
0.16384996
0.16459473
0.16485702
0.16415993
0.1616163
0.15784336
0.1553947
0.15397467
0.15288481
0.15195584
0.15117942
0.1504984
0.1499353
0.14941544
0.14896913
0.14861371
0.14832248
0.1481459
0.14802902
0.16717255
0.16549271
0.16399702
0.16270998
0.16165123
0.16085625
0.16037577
0.1602061
0.16035023
0.160806
0.16151852
0.16242549
0.163397
0.1641915
0.16447076
0.16374638
0.16115777
0.15743637
0.15511001
0.1537428
0.15268693
0.15178648
0.15103669
0.15038189
0.14983807
0.14933364
0.14889798
0.14855185
0.14826694
0.14809498
0.14798052
0.16385277
0.16264257
0.1615797
0.16068253
0.15996242
0.15945804
0.15920636
0.15920485
0.1594905
0.16005558
0.16085111
0.16182672
0.1628668
0.16373543
0.16405566
0.16332796
0.16071442
0.15705157
0.15483651
0.15351803
0.15249508
0.15162197
0.15089726
0.15026795
0.1497428
0.14925326
0.14882784
0.1484906
0.14821176
0.14804414
0.14793193
0.15976625
0.15912176
0.15859387
0.15817209
0.15786766
0.15771468
0.15773119
0.1579571
0.15843344
0.15914792
0.16005939
0.16112945
0.16225846
0.16322558
0.16361335
0.16290979
0.16029223
0.15669415
0.15457768
0.15330299
0.15231111
0.15146355
0.15076192
0.15015694
0.14964966
0.14917433
0.14875866
0.14842988
0.14815682
0.1479933
0.1478832
0.15484746
0.15482117
0.15493516
0.15510475
0.15530982
0.15557241
0.15593164
0.15644174
0.15715938
0.15806775
0.15913117
0.16032468
0.16156456
0.16265568
0.16314173
0.16249887
0.15990044
0.15637242
0.15433579
0.15309757
0.15213421
0.15131017
0.15062959
0.15004787
0.14955785
0.14909625
0.14869
0.1483694
0.14810195
0.14794238
0.14783427
0.14923335
0.14955921
0.15023846
0.1510619
0.15190443
0.15273105
0.15357764
0.15446992
0.15552528
0.15671272
0.15798912
0.1593524
0.16073735
0.16198839
0.16261863
0.16208861
0.15955012
0.15608044
0.1541
0.15289219
0.15195673
0.15115626
0.15049634
0.14993788
0.14946551
0.14901786
0.14862123
0.14830892
0.14804707
0.1478915
0.1477852
0.070775412
0.089649067
0.10195263
0.11102226
0.11840723
0.12492637
0.13090613
0.13622383
0.14123387
0.14591076
0.15021371
0.15412851
0.15766268
0.16079923
0.16350627
0.16562972
0.1667542
0.16648489
0.16393214
0.15998074
0.15728166
0.15555184
0.15411422
0.15287863
0.15188638
0.15103407
0.15034797
0.14979274
0.14936318
0.14908244
0.14889645
0.069753271
0.089445306
0.10168414
0.11075298
0.11810882
0.12455324
0.13043703
0.13576505
0.14075623
0.14543995
0.14978042
0.15375118
0.15734767
0.16054743
0.16330937
0.16549789
0.1666745
0.1665052
0.16407108
0.16013996
0.1573923
0.15564485
0.15419352
0.15294612
0.15194313
0.15108267
0.1503901
0.14982937
0.14939608
0.14911214
0.14892378
0.0693074
0.089335646
0.10167792
0.11062024
0.11782763
0.12414791
0.1299242
0.13520865
0.14017905
0.14487448
0.14925793
0.15329237
0.15696094
0.16023497
0.16306524
0.16533236
0.16658573
0.16650793
0.16422484
0.16031358
0.1575045
0.15573543
0.1542707
0.15301247
0.15199964
0.15113189
0.15043345
0.14986754
0.14943078
0.14914366
0.14896113
0.068742641
0.089025416
0.10152272
0.1103728
0.11748509
0.12370953
0.12939729
0.13464018
0.13959285
0.14429565
0.14871524
0.15280805
0.1565462
0.15989464
0.16279699
0.1651457
0.16648671
0.16650575
0.16437925
0.16050343
0.15762964
0.15583479
0.15435494
0.15308473
0.15206112
0.15118539
0.15048049
0.14990891
0.14946828
0.1491776
0.14899505
0.06790926
0.08833069
0.10111018
0.11001455
0.11711026
0.12327482
0.12889135
0.13409624
0.139027
0.14372688
0.14817047
0.15231142
0.15611251
0.15953209
0.16250719
0.16493689
0.16637197
0.16649618
0.16452712
0.16070391
0.1577658
0.15594288
0.15444669
0.15316342
0.15212798
0.15124358
0.15053149
0.14995364
0.14950867
0.14921405
0.14903365
0.06697064
0.087441982
0.10055915
0.1096203
0.11673975
0.12286562
0.128422
0.13358629
0.13848774
0.1431739
0.14762874
0.15180635
0.15566221
0.15914809
0.16219489
0.16470238
0.1662385
0.16647518
0.16466558
0.16090887
0.15790865
0.1560562
0.15454348
0.15324689
0.15219916
0.15130568
0.15058594
0.15000143
0.14955181
0.14925296
0.14906087
0.066085759
0.086468306
0.099942677
0.10920076
0.11637181
0.12247661
0.12798339
0.13310507
0.13797125
0.14263496
0.14708978
0.15129293
0.15519498
0.15874159
0.16185777
0.16443762
0.16608715
0.16644173
0.16479805
0.16111676
0.15805607
0.15617269
0.15464363
0.1533339
0.15227375
0.15137098
0.15064343
0.15005205
0.14959762
0.14929441
0.1491018
0.065250679
0.085399681
0.099229077
0.10872798
0.11598806
0.12209548
0.12756612
0.13264656
0.13747376
0.14210818
0.14655308
0.15077111
0.15471045
0.1583115
0.16149365
0.16413997
0.16590647
0.16639292
0.16491525
0.1613328
0.158208
0.15629185
0.15474652
0.15342391
0.15235138
0.15143959
0.15070408
0.15010566
0.14964624
0.1493385
0.14914142
0.064485319
0.084244241
0.098408559
0.10818789
0.11557654
0.12171341
0.12716329
0.13220639
0.1369927
0.1415922
0.14601847
0.15024126
0.15420876
0.15785738
0.16110129
0.16381171
0.16568987
0.16632382
0.16501134
0.16155099
0.1583641
0.15641324
0.15485205
0.1535171
0.15243236
0.1515115
0.15076794
0.15016235
0.14969782
0.14938536
0.14919245
0.063824527
0.083026444
0.097483174
0.10757787
0.1151333
0.12132588
0.1267699
0.13178025
0.13652472
0.14108464
0.14548446
0.14970258
0.15368925
0.15737828
0.16067945
0.16345496
0.16544253
0.16623406
0.165095
0.16176848
0.15852442
0.15653677
0.15496008
0.15361336
0.15251663
0.15158687
0.15083522
0.15022232
0.14975253
0.14943515
0.14924244
0.063309404
0.081825295
0.096498809
0.10691906
0.11466498
0.12093253
0.12638234
0.13136392
0.13606554
0.14058194
0.14494871
0.14915364
0.15315095
0.15687328
0.16022709
0.16306873
0.16515872
0.16609619
0.16515867
0.16198494
0.15868836
0.15666169
0.15507013
0.15371252
0.15260419
0.15166575
0.15090601
0.15028572
0.14981053
0.14948803
0.14929185
0.063108045
0.080760153
0.095486663
0.10621364
0.11417002
0.12052985
0.1259953
0.13095135
0.13560911
0.1400785
0.14440667
0.14859118
0.15259149
0.15634055
0.1597426
0.16265094
0.16484191
0.16593153
0.16519092
0.16219321
0.15885503
0.15678712
0.15518162
0.15381429
0.15269487
0.15174814
0.15098037
0.15035265
0.14987193
0.14954417
0.14934294
0.063173839
0.079834735
0.094483801
0.10548503
0.11365764
0.12011861
0.1256041
0.13053515
0.13514732
0.13956679
0.14385203
0.14801041
0.15200745
0.15577763
0.15922405
0.16219928
0.16449149
0.16573346
0.16518926
0.16238106
0.1590231
0.15691182
0.15529351
0.15391805
0.15278852
0.15183391
0.1510583
0.15042319
0.14993684
0.1496037
0.1493977
0.063574517
0.079281489
0.093661202
0.10480153
0.11314486
0.1196957
0.12519852
0.13010304
0.13466785
0.13903552
0.14327549
0.14740429
0.15139378
0.15518092
0.15866888
0.16171119
0.16410476
0.165494
0.16515558
0.16255002
0.15919168
0.15703473
0.15540525
0.15402356
0.1528847
0.15192296
0.15113977
0.15049741
0.15000538
0.14966679
0.14945685
0.0645386
0.079214352
0.09301627
0.10416809
0.1126316
0.11925086
0.12476213
0.12963672
0.13415323
0.13846916
0.14266424
0.14676302
0.1507435
0.1545456
0.15807371
0.16118365
0.16367865
0.16520723
0.16507835
0.16269998
0.15935888
0.15715406
0.15551501
0.15412962
0.15298322
0.15201505
0.15122477
0.15057534
0.15007765
0.14973356
0.14952022
0.065988896
0.07953832
0.092680598
0.10362895
0.1121034
0.11875233
0.12426116
0.12910504
0.13357675
0.13784588
0.14200127
0.14607381
0.15004739
0.15386544
0.15743415
0.16061304
0.16321069
0.16487167
0.16494774
0.16282151
0.15952452
0.15726913
0.1556229
0.15423643
0.15308348
0.15210999
0.15131305
0.15065704
0.15015372
0.14980414
0.14958749
0.067929192
0.080455504
0.092700912
0.10315065
0.11149702
0.11813534
0.12363919
0.1284618
0.13290156
0.1371368
0.14126412
0.14532017
0.14929392
0.15313245
0.15674455
0.15999439
0.16269516
0.16448708
0.16476242
0.16290266
0.15968164
0.15737671
0.15572573
0.15434184
0.15318499
0.15220742
0.15140479
0.15074239
0.15023368
0.1498786
0.14965851
0.070141782
0.081642636
0.092906101
0.10281023
0.11088639
0.1174135
0.12287079
0.12766789
0.13208882
0.13630917
0.14042729
0.14448325
0.14846961
0.1523372
0.15599791
0.15932037
0.16211858
0.16405173
0.16455708
0.16295301
0.15983745
0.15747714
0.15582475
0.15444642
0.15328741
0.15230696
0.15149916
0.1508315
0.15031751
0.1499571
0.14973341
0.072604194
0.083024589
0.093238944
0.1023987
0.11008328
0.11644851
0.12185702
0.12665083
0.13108488
0.13532345
0.13946214
0.14354286
0.14756041
0.1514698
0.15518676
0.15858356
0.16147232
0.16352961
0.16426681
0.16295914
0.15997321
0.15756457
0.15591585
0.15454825
0.15338918
0.15240828
0.15159696
0.15092399
0.15040531
0.1500396
0.14981233
0.074932665
0.084220884
0.093270156
0.1016165
0.10887837
0.11509636
0.12049787
0.12534048
0.12983999
0.13414414
0.13834314
0.14248015
0.14655316
0.15052132
0.1543049
0.15778063
0.16076371
0.16296435
0.16393902
0.16292842
0.16007309
0.15764253
0.15599937
0.15464452
0.15349091
0.15251049
0.15169622
0.1510201
0.15049686
0.1501263
0.14989547
0.076643024
0.084869781
0.092976235
0.10053984
0.10736103
0.1134147
0.11881717
0.12373894
0.12834544
0.13275888
0.13705836
0.14128531
0.14544021
0.1494863
0.15334906
0.15691118
0.15999604
0.16233964
0.16353586
0.16283051
0.16016153
0.15770174
0.15607482
0.15474106
0.15359015
0.1526135
0.1517987
0.15111898
0.15059232
0.15021701
0.14998275
0.077550108
0.084812523
0.092097167
0.09905127
0.10551831
0.1114379
0.11685774
0.12188117
0.12662458
0.13118101
0.1356144
0.13996122
0.14422269
0.14836514
0.1523198
0.15597644
0.15916943
0.16165561
0.16306108
0.16264642
0.16024009
0.15774525
0.15613186
0.15482033
0.15368605
0.15271624
0.15190157
0.15122121
0.15069114
0.15031191
0.15007438
0.077654635
0.084188496
0.090761609
0.097226094
0.10341342
0.10923657
0.1146927
0.11983299
0.12473028
0.12944971
0.13403863
0.13852618
0.14291239
0.14716587
0.15122272
0.15498053
0.15828578
0.16091522
0.1625282
0.16240747
0.16023683
0.15776343
0.15619054
0.15490691
0.15378037
0.15281736
0.1520057
0.15132524
0.15079363
0.1504107
0.15017015
0.077122014
0.082989363
0.089051521
0.095147679
0.10113147
0.10690106
0.11241379
0.11767879
0.12273501
0.12762361
0.13237641
0.13701402
0.14153372
0.14590565
0.15007002
0.15393183
0.15734987
0.16011956
0.16193046
0.1621339
0.160211
0.15777457
0.1562239
0.15497039
0.1538668
0.15291891
0.1521117
0.1514321
0.15089877
0.15051333
0.15027022
0.076033421
0.081409218
0.087074153
0.092897718
0.09874581
0.10450264
0.11009275
0.1154919
0.12071082
0.12576832
0.13068367
0.13546998
0.14012198
0.14461091
0.14888084
0.15284368
0.15636958
0.15926975
0.16125886
0.16178905
0.16016606
0.15777386
0.15621679
0.15501439
0.15394485
0.15301353
0.15221197
0.15153962
0.1510071
0.15061964
0.150374
0.074609598
0.079589006
0.084935385
0.090545877
0.096301062
0.10207738
0.1077734
0.11332731
0.11871734
0.12394431
0.12901764
0.1339447
0.13871942
0.14331526
0.14768079
0.15173483
0.15535779
0.15837548
0.1605232
0.16131253
0.16007408
0.15775334
0.15619683
0.15507684
0.15402702
0.15310871
0.1523204
0.15164857
0.15111697
0.15072894
0.15048182
0.073108913
0.077751384
0.082816545
0.088231003
0.093897777
0.099695584
0.1055042
0.11122536
0.11679922
0.12220208
0.12743076
0.13248858
0.13737117
0.14205684
0.14650064
0.15062932
0.1543336
0.15745445
0.15974892
0.16079046
0.15989048
0.1577142
0.15619679
0.15508939
0.15408506
0.1531989
0.15241336
0.15175786
0.15122939
0.15084157
0.15059264
0.071854798
0.076206175
0.081011173
0.086222098
0.091766895
0.097539352
0.10341548
0.10927445
0.11501974
0.12059301
0.12597055
0.13114729
0.13612003
0.14087375
0.14537256
0.14955352
0.15331866
0.15652375
0.15894896
0.16022152
0.15968586
0.15768136
0.15618402
0.15508259
0.15412577
0.15326904
0.15251466
0.15186472
0.15134159
0.15095579
0.15070694
0.071157666
0.075257595
0.079813283
0.084801262
0.090174587
0.095850767
0.1017158
0.1076385
0.11349602
0.11919852
0.12469625
0.1299679
0.1350061
0.13980093
0.14432661
0.14853225
0.15233307
0.15559967
0.15813477
0.15960931
0.15937457
0.15761251
0.1561114
0.15506312
0.15419051
0.15335422
0.15260883
0.15197377
0.15145557
0.15107259
0.15082289
0.071206318
0.075090532
0.079420506
0.084186337
0.08935743
0.094871826
0.10062892
0.1065058
0.11237585
0.11812921
0.1236867
0.12900536
0.13406864
0.13886833
0.14338727
0.14758612
0.15139387
0.15469628
0.15731729
0.15896816
0.1590831
0.15747217
0.15601067
0.15505774
0.15420735
0.15341019
0.15268545
0.15207357
0.15156714
0.15118939
0.15094162
0.072152753
0.075748
0.079816328
0.084351685
0.089318714
0.094637038
0.1002209
0.10596291
0.11174958
0.11745898
0.1229934
0.12829223
0.13332757
0.13808857
0.1425641
0.14672482
0.15051112
0.15382266
0.15650206
0.15829329
0.15869137
0.15732777
0.15595737
0.15504342
0.15419363
0.15343475
0.15277837
0.15217629
0.15167794