/*--------------------------------*- C++ -*----------------------------------*\
| =========                 |                                                 |
| \\      /  F ield         | OpenFOAM: The Open Source CFD Toolbox           |
|  \\    /   O peration     | Version:  2406                                  |
|   \\  /    A nd           | Website:  www.openfoam.com                      |
|    \\/     M anipulation  |                                                 |
\*---------------------------------------------------------------------------*/
FoamFile
{
    version     2.0;
    format      ascii;
    arch        "LSB;label=32;scalar=64";
    class       volScalarField;
    location    "0.064";
    object      omega;
}
// * * * * * * * * * * * * * * * * * * * * * * * * * * * * * * * * * * * * * //

dimensions      [0 0 -1 0 0 0 0];

internalField   nonuniform List<scalar> 
8260
(
19403.521
16540.129
13846.386
11440.591
9358.8354
7586.0412
6093.7287
4850.9732
3827.3627
2993.1316
2320.736
1785.0275
1363.0836
1034.2515
778.34443
574.55533
394.72597
260.87927
197.43391
166.63066
146.10833
133.3711
123.44327
114.9882
109.57218
105.94947
103.53982
101.7207
100.46451
99.615479
99.170322
16020.292
13799.136
11757.978
9904.8674
8249.6499
6794.4476
5534.3248
4459.1131
3555.1747
2805.88
2192.9961
1698.586
1305.0197
995.52642
752.19223
555.31517
378.57003
250.5229
193.32144
164.42735
144.76375
132.5818
122.97782
114.73773
109.44339
105.87579
103.48911
101.69103
100.44366
99.602186
99.16184
13120.324
11484.097
9944.9519
8515.7441
7206.4287
6024.7477
4975.3185
4058.8971
3272.316
2608.3782
2056.713
1605.5472
1242.1016
953.32237
723.56176
534.12881
362.10769
243.56113
191.09719
163.24055
144.03483
132.1548
122.73056
114.60856
109.37986
105.83759
103.46217
101.675
100.42989
99.591315
99.152526
10628.954
9462.0457
8326.3223
7242.2688
6222.7854
5279.0597
4420.2823
3652.9322
2980.1559
2401.2432
1911.9574
1505.6978
1174.0004
907.26081
692.02118
510.35541
344.2098
235.45609
187.86226
161.29379
142.79235
131.40219
122.27539
114.36974
109.26169
105.76527
103.41067
101.64411
100.40634
99.575544
99.141897
8515.2442
7705.5496
6884.6977
6079.6355
5302.2508
4564.0627
3875.684
3246.0759
2681.7801
2186.2082
1759.535
1399.279
1100.6531
857.10404
657.15213
483.23113
324.36563
227.45271
184.84575
159.50958
141.69391
130.74056
121.86914
114.16141
109.162
105.70339
103.36783
101.6183
100.38524
99.560053
99.129777
6748.1757
6195.4982
5615.0623
5030.7878
4451.8362
3887.9662
3349.0078
2844.155
2381.1886
1965.7124
1600.751
1286.8475
1022.1721
802.67819
618.46153
452.01528
302.8356
219.40668
181.36976
157.30271
140.28705
129.86096
121.31578
113.87357
109.02041
105.61542
103.3066
101.58101
100.35634
99.54028
99.115938
5286.6873
4915.4237
4513.7794
4099.6773
3679.1911
3259.4459
2848.271
2453.6568
2083.0884
1742.8329
1437.3969
1169.2784
938.84487
743.8365
575.25576
416.05843
280.42873
211.59688
177.82338
155.05845
138.88992
128.97497
120.7482
113.58478
108.88121
105.52812
103.2475
101.54452
100.32713
99.519329
99.100158
4091.0594
3846.102
3574.3096
3287.9237
2990.435
2686.411
2381.3511
2081.3661
1792.7086
1521.21
1271.739
1047.7708
851.13134
680.3904
526.43702
374.96367
258.47812
204.0279
173.92333
152.49899
137.2528
127.893
120.04941
113.22452
108.70138
105.41644
103.17152
101.49672
100.29029
99.49382
99.082183
3124.4349
2966.1237
2786.4876
2593.4545
2388.7012
2174.7699
1955.0697
1733.7436
1515.4158
1304.8286
1106.4041
923.77545
759.56998
611.91582
470.27716
329.8456
238.78588
196.71004
169.84601
149.84912
135.56645
126.74891
119.30442
112.84252
108.51028
105.29866
103.09301
101.44604
100.25101
99.465812
99.061728
2352.3918
2252.472
2136.8366
2010.3385
1873.5502
1727.6235
1574.3542
1416.1856
1256.1327
1097.6039
944.09773
798.7756
664.4245
537.28733
404.74278
285.04918
222.5234
189.42743
165.44189
146.93714
133.66421
125.41851
118.43525
112.38464
108.26981
105.1541
102.9965
101.38196
100.20313
99.432364
99.038429
1743.5372
1682.0654
1610.05
1529.832
1441.4092
1345.1197
1241.6861
1132.2838
1018.5839
902.70802
787.03597
673.75613
565.02732
452.81654
331.42198
248.7964
209.49945
182.01985
160.85406
143.90525
131.6996
124.02041
117.50269
111.88587
108.00151
104.99557
102.89314
101.31121
100.15055
99.394959
99.011812
1268.3812
1231.7733
1188.4575
1139.4709
1084.4712
1023.261
955.85644
882.55829
804.03535
721.32616
635.67393
547.52343
457.08164
356.34549
268.05935
225.64419
197.48686
174.10908
156.0944
140.5331
129.64492
122.46878
116.44031
111.30037
107.67532
104.80251
102.76844
101.22425
100.08763
99.350776
98.981244
899.49498
878.81978
853.9706
825.26948
792.23336
754.39917
711.39681
662.9904
609.17613
550.13568
486.25306
416.52536
342.07666
274.39809
232.24613
208.30695
185.22654
166.80475
150.99051
137.33136
127.44092
120.80647
115.32883
110.65926
107.3147
104.5887
102.63046
101.12808
100.01808
99.300981
98.942038
609.80843
598.20677
583.95055
567.29054
547.66909
524.33782
496.93693
465.22769
429.01307
387.75321
343.39031
299.99582
262.24126
230.82856
209.29546
191.46599
174.8028
158.30903
145.82383
133.77014
125.27159
119.05321
114.07142
109.93517
106.88782
104.33786
102.46337
101.01386
99.936937
99.242717
98.892463
390.87608
384.08323
376.41662
367.93142
357.68794
345.11392
330.40099
314.08008
295.6575
275.74657
255.85058
236.6089
220.61435
206.79386
189.92268
177.45516
163.00415
150.89452
140.47522
130.75751
122.83871
117.07035
112.81403
109.18259
106.42845
104.0598
102.27532
100.88894
99.847835
99.177218
98.835133
267.403
264.17995
260.28789
256.17789
251.63593
246.43742
240.32435
233.79603
225.22509
217.12195
209.0425
202.50317
197.25318
185.70923
172.59881
161.62471
153.51169
142.85877
135.24796
126.96648
120.52347
115.18275
111.41632
108.32542
105.87634
103.76095
102.04936
100.74112
99.744723
99.102268
98.77194
201.68434
200.4922
199.11111
197.48572
195.86534
193.92941
191.41549
189.01023
186.61611
184.85836
179.86663
174.57772
169.18037
165.70727
158.08565
148.98489
141.96935
136.19575
129.72695
123.60514
118.23813
112.9734
109.97163
107.45668
105.32314
103.4202
101.80825
100.57159
99.629761
99.020314
98.705428
167.43702
166.54411
165.86883
165.22082
164.82947
165.07752
165.0537
163.63566
161.44596
157.35847
155.47903
154.24604
150.53884
146.28119
145.26985
137.27258
132.60849
128.33538
124.38779
119.69657
115.28651
111.0754
108.5862
106.44388
104.69299
103.04396
101.51025
100.37426
99.50118
98.929779
98.634203
148.2274
148.26502
148.10873
147.57202
146.50423
144.66327
142.3717
141.0089
140.29269
139.98566
139.21865
135.0461
133.85593
131.3243
130.46474
129.64847
123.81481
121.4664
118.67396
115.6311
112.72489
109.21235
107.07204
105.66374
103.9799
102.6028
101.20832
100.15361
99.360904
98.832714
98.555032
130.39479
130.22392
130.05202
129.82495
129.59607
129.68788
130.38728
130.37152
129.59664
127.67878
125.50902
124.64851
124.40565
123.75272
120.90963
119.98251
118.1302
114.43347
113.35234
111.66146
109.98723
107.69271
105.7615
104.7158
103.24316
102.10828
100.82706
99.922758
99.212318
98.726292
98.472418
121.15163
121.26806
121.25827
121.1117
120.77807
120.16885
118.95518
118.40937
118.06623
117.77092
118.0031
117.90688
115.73245
115.72951
114.95109
113.39778
112.01021
110.32315
109.27705
108.38967
108.22777
106.20538
104.61172
103.8748
102.47952
101.53253
100.49465
99.675733
99.047097
98.614558
98.386377
112.32205
112.3382
112.31078
112.2294
112.1271
112.05745
112.28373
112.58516
112.48282
112.1486
111.41498
110.82939
111.29255
110.08152
110.25441
109.33339
108.74698
107.32083
106.43563
105.91083
106.0673
105.07399
103.39552
102.78679
101.85389
100.91382
100.06009
99.420903
98.87917
98.499016
98.294304
107.79912
107.89289
107.90706
107.85781
107.75116
107.58372
107.29037
106.83981
106.72492
106.68286
106.74254
106.86486
106.6694
106.77665
106.03317
106.1572
104.78144
104.63203
104.15683
104.12471
103.53902
103.44538
102.60668
101.67035
101.0957
100.28649
99.693324
99.180824
98.703555
98.383197
98.209007
103.55625
103.5949
103.59567
103.57317
103.54552
103.52393
103.52218
103.63833
103.82109
103.87532
103.84957
103.74156
103.59849
103.30356
103.16184
102.87733
102.89517
102.37882
102.42362
102.36615
101.91781
102.09596
101.43631
100.57425
100.32723
99.825052
99.283321
98.900277
98.549876
98.270919
98.123717
101.52355
101.57357
101.58921
101.58106
101.56183
101.53101
101.47569
101.36871
101.24497
101.21863
101.2096
101.24335
101.33326
101.3861
101.46559
101.17554
101.47036
101.20331
101.40993
101.23186
100.87961
100.51704
100.53139
99.981959
99.560909
99.325782
99.00076
98.696642
98.410026
98.172969
98.054344
99.733978
99.755629
99.760315
99.757026
99.75513
99.757145
99.763906
99.775793
99.793783
99.820069
99.813679
99.777816
99.761239
99.781668
99.805851
99.834541
99.857784
99.648552
99.908998
99.583346
99.627117
99.445526
99.533346
99.373317
99.149954
98.949533
98.785202
98.509026
98.28785
98.105195
98.00734
98.994226
99.011987
99.016641
99.013918
99.008487
99.001163
98.992513
98.988056
98.992237
98.997964
99.010343
99.034115
99.07129
99.108902
99.176102
99.192191
99.193886
99.087641
99.108011
99.042469
99.061741
98.966927
99.046763
99.041702
98.901563
98.744802
98.606404
98.402922
98.217155
98.066788
97.982795
98.470761
98.478743
98.482068
98.484723
98.490462
98.500813
98.516738
98.539313
98.56977
98.615461
98.669671
98.723028
98.765199
98.786847
98.784665
98.821734
98.801702
98.845692
98.773447
98.843937
98.838409
98.810112
98.77883
98.723155
98.728663
98.593248
98.460647
98.322067
98.174147
98.051366
97.969595
98.243401
98.249289
98.253621
98.25854
98.265824
98.276127
98.289802
98.307233
98.328661
98.353663
98.380559
98.40987
98.438898
98.461381
98.473035
98.490401
98.522663
98.541204
98.573907
98.580195
98.624918
98.638327
98.583292
98.551283
98.518329
98.471883
98.383146
98.279375
98.159536
98.067709
98.026029
98.164955
98.169079
98.172772
98.177281
98.183505
98.191864
98.202711
98.2165
98.233735
98.254771
98.279405
98.3074
98.336944
98.363582
98.374754
98.382824
98.392855
98.405566
98.418012
98.441149
98.458715
98.459143
98.461244
98.462716
98.448728
98.422268
98.355616
98.272021
98.22087
98.177331
98.131319
98.274418
98.273794
98.273417
98.27308
98.272615
98.271825
98.270571
98.268986
98.267943
98.2699
98.280092
98.302244
98.330638
98.344884
98.348795
98.354196
98.364355
98.374174
98.38487
98.402909
98.414287
98.422147
98.426269
98.436183
98.445169
98.424222
98.391458
98.362165
98.344295
98.309452
98.304713
106157.55
89990.269
70949.752
54598.124
41698.694
31466.993
23456.69
17344.777
12732.015
9258.2326
6665.7047
4756.1878
3366.7674
2366.5655
1653.261
1148.0574
789.94448
530.4953
346.87039
232.96144
176.24397
148.12442
130.58206
119.10454
112.03257
107.41997
104.53542
102.3932
100.97396
99.974499
99.464557
94028.397
71037.548
54361.755
42482.424
33070.528
25484.522
19468.991
14704.891
10970.254
8083.8532
5891.1756
4251.5238
3041.694
2159.4091
1522.5253
1066.0762
737.99214
496.99349
325.24214
221.14613
171.15981
145.89355
129.38737
118.44316
111.67197
107.21521
104.42687
102.32862
100.93824
99.955115
99.457603
75287.779
59693.613
47795.107
37847.44
29488.211
22673.534
17263.88
13030.139
9743.604
7215.9245
5294.0901
3849.7132
2776.1961
1986.7634
1411.8111
995.76073
693.13333
468.40624
308.24417
214.16776
168.81533
144.90399
128.8559
118.14236
111.50365
107.11563
104.37355
102.29373
100.91557
99.939937
99.448725
66100.428
53257.517
42329.153
33239.422
25870.047
19976.565
15300.951
11614.649
8732.6308
6504.8353
4802.3881
3515.4814
2552.7753
1839.7976
1316.546
934.65373
653.81503
443.38703
293.19872
206.99494
165.67827
143.42972
128.02595
117.66215
111.23209
106.95477
104.2865
102.23977
100.88405
99.922
99.438205
58943.485
46984.261
37223.064
29321.701
22937.997
17802.003
13696.999
10443.128
7890.428
5909.4944
4388.3426
3232.0697
2361.8325
1713.1566
1233.7708
881.07634
619.01773
420.80435
279.5244
201.0662
163.48191
142.45347
127.49329
117.35513
111.06016
106.85254
104.23058
102.20272
100.85995
99.906418
99.426931
52389.823
41800.549
33213.642
26228.959
20567.32
16006.766
12356.823
9459.3784
7180.6554
5405.5867
4036.0499
2989.4855
2197.3288
1603.3013
1161.4452
833.79069
588.05756
400.04933
267.18471
195.78972
161.20532
141.33378
126.85428
116.97371
110.84191
106.72166
104.15796
102.15639
100.83131
99.889389
99.415395
47303.416
37723.552
29955.737
23664.896
18586.796
14501.152
11230.261
8630.2365
6580.0136
4977.0581
3734.8422
2780.8937
2055.0329
1507.6878
1098.0633
791.99193
560.40453
381.07012
256.14255
191.27114
159.35652
140.4599
126.37619
116.68888
110.68102
106.62569
104.10356
102.11981
100.80692
99.873707
99.403657
43199.087
34333.509
27231.279
21524.184
16931.979
13239.538
10283.233
7930.3678
6070.6263
4611.7881
3476.7361
2601.1738
1931.7495
1424.3705
1042.4596
755.01007
535.5832
363.7468
246.3412
187.34233
157.59555
139.56973
125.87606
116.38055
110.50304
106.51883
104.04178
102.07925
100.78043
99.857322
99.391786
39679.273
31482.501
24961.001
19740.416
15547.676
12180.839
9485.8468
7338.7771
5638.1407
4300.1741
3255.4371
2446.2895
1824.9522
1351.8089
993.77577
722.31093
513.42148
348.01532
237.72317
183.95612
156.07562
138.81704
125.47305
116.1315
110.36032
106.43422
103.99115
102.04466
100.7565
99.841736
99.379781
36792.33
29125.036
23072.807
18249.78
14387.12
11291.271
8813.9706
6838.5768
5270.9914
4034.4629
3065.8559
2312.9705
1732.5883
1288.7497
951.32331
693.58201
493.55791
333.78793
230.21553
181.01892
154.67236
138.09141
125.08308
115.88349
110.215
106.34797
103.93807
102.0089
100.7318
99.825851
99.367656
34329.072
27136.709
21485.862
16998.21
13413.131
10543.856
8248.2017
6416.1045
4959.7787
3808.3274
2903.8236
2198.5272
1652.9597
1234.1544
914.43884
668.45182
475.75031
320.99326
223.72524
178.47123
153.43153
137.45333
124.75894
115.67684
110.09341
106.27712
103.89227
101.97716
100.70881
99.810471
99.355409
32250.166
25462.691
20152.583
15948.059
12596.73
9916.8461
7772.8541
6060.2581
4696.8354
3616.5819
2765.9052
2100.7292
1584.645
1187.2029
882.56389
646.60452
459.89428
309.56742
218.16292
176.25463
152.30286
136.85472
124.46117
115.48323
109.97633
106.20919
103.84661
101.94574
100.68578
99.79501
99.343044
30474.425
24046.697
19031.173
15068.176
11913.628
9392.5358
7375.1356
5762.0234
4475.9129
3454.9747
2649.2645
2017.7199
1526.4854
1147.0747
855.18102
627.79885
445.84038
299.45924
213.44009
174.32654
151.29754
136.31938
124.21264
115.32214
109.87698
106.15273
103.80612
101.91734
100.66403
99.779896
99.330565
28958.621
22849.362
18089.366
14333.128
11344.964
8956.8764
7044.6847
5514.0654
4291.9469
3320.0975
2551.6207
1948.0718
1477.4768
1113.0584
831.84663
611.74524
433.46812
290.62945
209.47241
172.6512
150.39244
135.82646
123.99429
115.17962
109.78571
106.10119
103.76711
101.89007
100.64265
99.764815
99.317976
27672.037
21843.048
17304.651
13724.777
10876.808
8599.2931
6773.8205
5310.8883
4141.0665
3209.4377
2471.3017
1890.534
1436.7998
1084.7189
812.32684
598.14827
422.65761
283.03064
206.18648
171.20324
149.5879
135.38584
123.81546
115.06477
109.7091
106.05867
103.73214
101.86533
100.62235
99.750021
99.305257
26606.872
21018.113
16667.085
13233.807
10500.694
8313.0804
6557.514
5148.8763
4020.5575
3120.6946
2406.7107
1844.0065
1403.8111
1061.66
796.40189
586.89129
413.31876
276.63178
203.50064
169.96334
148.87228
134.98878
123.66643
114.97043
109.64239
106.02172
103.69935
101.84213
100.60268
99.735368
99.292373
25765.312
20372.28
16170.507
12853.139
10210.141
8092.456
6390.9336
5023.8481
3927.4134
3051.7088
2356.3099
1807.6681
1377.9728
1043.554
783.87786
577.98891
405.4733
271.39502
201.28147
168.91802
148.24374
134.63926
123.55015
114.90036
109.58888
105.99218
103.67
101.82118
100.58397
99.72096
99.279326
24982.418
19812.482
15762.515
12552.417
9986.9468
7926.1759
6266.8988
4931.1653
3858.6636
3000.986
2319.1966
1780.8652
1358.8715
1030.141
774.5859
571.36432
399.16882
267.20058
199.52684
168.05792
147.69684
134.33319
123.46076
114.85062
109.54632
105.96823
103.6432
101.80198
100.566
99.706732
99.266124
24178.207
19267.416
15391.016
12297.416
9810.1982
7802.1943
6178.9192
4867.9436
3812.6673
2967.3741
2294.6796
1763.1253
1346.2021
1021.2282
768.39611
566.93369
394.43878
263.98324
198.19109
167.37599
147.23113
134.07192
123.39791
114.82266
109.51637
105.95063
103.61963
101.78488
100.54894
99.692744
99.252777
23518.469
18826.082
15097.715
12104.812
9684.8827
7720.8281
6125.8055
4832.5289
3788.3199
2950.1519
2282.2683
1754.1415
1339.7661
1016.6843
765.22332
564.62087
391.30952
261.68633
197.25705
166.86877
146.84715
133.8545
123.35824
114.81471
109.49817
105.93849
103.59892
101.76964
100.53268
99.678962
99.239294
22933.573
18465.473
14878.532
11975.392
9611.8159
7682.0417
6107.027
4824.3378
3785.0937
2948.9559
2281.7292
1753.762
1339.4485
1016.4484
765.03386
564.35848
389.80698
260.27006
196.71024
166.53895
146.55056
133.68388
123.34292
114.82165
109.49273
105.9322
103.58146
101.75638
100.51726
99.665393
99.225678
22410.977
18170.821
14724.77
11905.525
9590.2676
7685.2569
6120.153
4840.125
3799.9405
2961.9618
2292.3651
1761.8167
1345.2256
1020.5164
767.84073
566.2411
389.92408
259.73022
196.55624
166.39518
146.34879
133.56232
123.3476
114.85184
109.49821
105.93121
103.56699
101.74484
100.50255
99.65197
99.211925
21923.252
17925.446
14626.99
11890.682
9614.5995
7724.7811
6163.1704
4881.4092
3836.6977
2991.9191
2315.3273
1778.6753
1357.1769
1028.9263
773.69085
570.31602
391.64689
259.96179
196.70053
166.42135
146.24495
133.48921
123.37114
114.89488
109.5181
105.93333
103.55527
101.73482
100.48841
99.638653
99.19804
21420.673
17699.477
14566.088
11916.541
9678.0957
7799.7646
6235.6438
4944.4528
3888.2458
3032.1931
2345.528
1800.5368
1372.5445
1039.5842
780.95404
575.27833
394.42452
260.85011
197.12824
166.55542
146.22339
133.4543
123.41255
114.9448
109.54526
105.93967
103.54569
101.72598
100.47473
99.625458
99.184033
103498.88
87829.683
69827.873
54264.101
41926.524
32155.519
24285.297
18092.544
13320.903
9704.7763
6992.6521
4988.0335
3526.487
2473.7654
1723.5277
1193.1391
818.31089
547.68284
356.79733
237.2951
177.72977
148.65811
130.85678
119.27163
112.13807
107.49014
104.57297
102.4195
100.99102
99.986383
99.467995
98211.352
83498.82
67243.265
53050.057
41407.268
31911.035
24215.453
18124.409
13406.728
9802.7312
7082.3005
5061.3021
3582.2235
2514.0163
1751.4152
1211.7686
830.50964
555.50617
361.93264
239.79029
178.59229
148.93405
130.99815
119.3657
112.20274
107.53764
104.59954
102.43773
101.00322
99.994549
99.471253
92924.8
79489.638
64504.714
51460.353
40553.33
31512.355
24092.095
18143.803
13487.359
9899.8343
7173.5406
5137.1101
3640.5424
2556.4776
1781.0102
1231.6238
843.51549
563.80692
367.38968
242.49319
179.54033
149.26156
131.17386
119.47648
112.27504
107.58489
104.62344
102.45584
101.01499
100.00366
99.476609
88013.968
75747.325
61855.839
49856.537
39666.374
31082.627
23943.693
18145.156
13560.609
9994.8014
7265.5957
5215.0478
3701.2819
2601.1218
1812.3452
1252.7582
857.36385
572.62973
373.16303
245.40312
180.50289
149.51966
131.30402
119.57109
112.34528
107.64245
104.65735
102.47795
101.02958
100.01281
99.482036
83283.329
72282.928
59344.68
48260.246
38749.158
30619.537
23768.362
18134.382
13624.916
10086.293
7357.6333
5294.6775
3764.2591
2647.9102
1845.4503
1275.2276
872.09027
582.06904
379.22762
248.58316
181.70466
149.98897
131.56409
119.7285
112.44144
107.69738
104.6847
102.49896
101.04298
100.02296
99.486411
78660.3
69005.107
56937.31
46666.527
37798.388
30119.612
23563.187
18104.041
13678.08
10172.773
7448.6517
5375.4322
3829.2084
2696.7573
1880.3334
1299.0802
887.74446
592.15928
385.42656
251.81407
182.7579
150.23457
131.69264
119.83097
112.52145
107.76146
104.71928
102.5233
101.05829
100.03377
99.489105
74110.575
65919.828
54667.188
45100.172
36825.266
29585.216
23326.167
18047.52
13717.276
10252.468
7537.5713
5456.7479
3895.9004
2747.6172
1917.0311
1324.3767
904.41022
602.92008
391.93626
255.37707
184.01151
150.62119
131.90467
119.97719
112.62111
107.82966
104.75629
102.5492
101.07441
100.04525
99.494422
69629.884
62929.123
52491.515
43548.163
35822.127
29010.11
23052.714
17964.714
13739.965
10323.878
7623.5633
5538.2308
3964.2033
2800.4956
1955.6061
1351.1769
922.15919
614.39333
399.09295
259.18034
185.36219
151.03421
132.13028
120.13718
112.72914
107.90395
104.79632
102.57714
101.09151
100.05738
99.502482
65260.204
60008.643
50403.004
42018.471
34795.624
28396.099
22741.392
17851.989
13739.378
10384.2
7704.8225
5618.7209
4033.4576
2855.0681
1995.9316
1379.4479
941.01248
626.62126
406.79873
263.23286
186.82267
151.47651
132.37429
120.31195
112.84604
107.98221
104.83892
102.6067
101.10945
100.07016
99.513447
61026.121
57138.47
48399.674
40521.165
33752.175
27744.3
22390.562
17708.01
13724.351
10432.012
7779.7191
5697.1494
4103.0737
2911.0663
2037.9164
1409.1827
960.9999
639.73515
415.00526
267.5565
188.40605
151.96234
132.63782
120.50452
112.97423
108.06896
104.88561
102.6388
101.12861
100.0836
99.523944
56942.724
54261.536
46462.632
39052.016
32693.234
27055.049
21998.628
17529.719
13684.196
10464.604
7846.3518
5772.2818
4172.3326
2968.1316
2081.423
1440.3565
982.13352
653.74185
423.7839
272.18555
190.12737
152.48017
132.92396
120.71947
113.11258
108.15905
104.93459
102.67251
101.14859
100.09778
99.533659
53089.554
51383.214
44540.76
37606.808
31621.855
26329.52
21564.057
17313.04
13611.325
10475.599
7902.1849
5842.6464
4240.3812
3025.8211
2126.2624
1472.9196
1004.4211
668.54911
432.92543
277.10923
192.01128
153.08333
133.24739
120.95351
113.26586
108.2613
104.98956
102.70931
101.17016
100.11266
99.543766
49486.363
48494.888
42625.446
36179.131
30539.019
25568.184
21085.208
17055.134
13506.898
10467.573
7945.3087
5906.6425
4306.2229
3083.5935
2172.1863
1506.792
1027.8614
684.19168
442.34526
282.34756
194.05484
153.69944
133.58383
121.22397
113.43204
108.36585
105.04546
102.74753
101.19236
100.12836
99.554783
46192.318
45624.834
40663.448
34731.911
29432.16
24767.502
20559.739
16753.466
13368.792
10439.614
7973.958
5962.5656
4368.7313
3140.8118
2218.8825
1541.8609
1052.4422
700.69943
452.23161
287.94336
196.31704
154.49691
134.01322
121.51195
113.6152
108.48652
105.11068
102.78943
101.21678
100.14472
99.566509
43209.374
42779.41
38604.19
33242.691
28292.43
23923.534
19984.786
16404.756
13191.751
10378.366
7980.8013
6007.9218
4426.5563
3196.7377
2265.9952
1577.9812
1078.134
718.08212
462.70035
293.90205
198.74718
155.25393
134.40137
121.85205
113.82069
108.61047
105.17399
102.83247
101.24131
100.16194
99.578759
40488.993
39964.071
36421.563
31639.602
27077.703
23018.839
19353.292
16004.977
12972.474
10286.129
7971.3651
6041.4621
4478.3875
3250.54
2313.0897
1614.975
1104.8944
736.3229
473.86724
300.31028
201.51507
156.33845
135.00612
122.22248
114.03685
108.75042
105.25172
102.87985
101.26905
100.17973
99.591359
37996.674
37242.424
34167.848
29942.885
25795.713
22056.164
18665.568
15553.057
12709.383
10161.803
7942.0301
6061.8451
4522.953
3301.347
2359.678
1652.6386
1132.6966
755.43829
485.83209
306.9887
204.43741
157.36108
135.46741
122.63125
114.29921
108.90313
105.32361
102.92808
101.29583
100.19839
99.604208
35549.154
34519.098
31775.68
28104.525
24408.393
21016.3
17914.517
15046.498
12400.63
10001.545
7882.2278
6062.1631
4558.2868
3348.2095
2405.2452
1690.7458
1161.5263
775.59959
498.84724
314.63526
207.84259
158.76118
136.26295
123.1381
114.55042
109.05818
105.41601
102.9815
101.32721
100.21747
99.61725
33035.485
31747.761
29268.921
26124.332
22908.979
19895.721
17100.227
14486.607
12047.009
9805.6417
7797.7643
6051.8789
4584.3667
3390.378
2449.2739
1729.0291
1191.2537
796.87134
512.9701
322.7808
211.47168
160.28974
136.94924
123.61031
114.88252
109.255
105.49981
103.03532
101.35581
100.23732
99.630411
30378.92
28956.06
26756.447
24098.178
21356.555
18726.934
16241.039
13883.989
11654.365
9576.9694
7688.8727
6023.9466
4600.3925
3427.2296
2491.2818
1767.1956
1221.7181
819.09738
527.98188
331.1769
215.6648
161.9447
137.76341
124.26795
115.17991
109.41787
105.60806
103.0959
101.39076
100.25757
99.643562
27614.08
26222.268
24321.02
22105.473
19804.681
17543.687
15359.266
13253.554
11232.137
9320.6542
7556.6722
5975.9244
4603.6554
3457.9657
2530.827
1804.9817
1252.7915
842.26296
543.94345
340.44926
220.22479
164.17099
138.96308
124.89509
115.56251
109.67432
105.70997
103.15538
101.42063
100.27801
99.656584
24932.691
23676.074
22074.917
20247.579
18324.121
16391.273
14484.918
12615.529
10793.546
9044.6804
7405.7233
5913.4817
4598.95
3482.8654
2567.6439
1842.142
1284.3499
866.33189
560.83121
350.42722
225.21652
165.89116
139.66193
125.54071
115.94675
109.85346
105.83335
103.22431
101.45858
100.29926
99.669313
22509.665
21429.092
20096.84
18584.218
16969.384
15314.237
13650.726
11993.048
10354.449
8759.3595
7242.3074
5839.7411
4585.6443
3502.2603
2601.6609
1878.505
1316.273
891.24762
578.59441
360.85558
230.88414
168.77941
141.21361
126.46074
116.31867
110.15236
105.95851
103.28882
101.49004
100.31924
99.681569
20417.409
19514.718
18412.44
17149.122
15778.013
14346.174
12883.693
11407.418
9930.9117
8475.974
7073.5132
5758.0042
4563.5193
3516.475
2632.9438
1913.9678
1348.4514
916.95382
597.26198
372.13379
236.57104
171.59599
142.35828
127.09175
116.85706
110.40537
106.09566
103.36623
101.52989
100.34127
99.693072
18693.597
17947.649
17028
15956.933
14771.738
13511.796
12208.018
10879.201
9538.8388
8206.0462
6907.0758
5673.0742
4536.8221
3526.6175
2661.7637
1948.4942
1380.7716
943.36076
616.83486
384.60327
242.63031
173.35595
143.174
127.80572
117.18601
110.6567
106.23857
103.43619
101.56493
100.35952
99.703567
17323.723
16704.992
15929.546
15007.552
13963.952
12832.451
11645.49
10426.938
9193.2729
7960.8624
6750.8553
5589.9805
4508.2743
3534.0091
2688.5397
1982.0933
1413.0998
970.30209
637.09793
397.89286
249.17686
176.07417
145.10401
128.88492
117.825
111.04648
106.39528
103.52076
101.60508
100.38127
99.712644
16248.867
15735.177
15077.532
14276.856
13346.609
12313.597
11210.809
10068.705
8910.1119
7752.3104
6612.9699
5513.8139
4480.6921
3540.0166
2713.7279
2014.7876
1445.2995
997.60977
657.88483
411.67834
255.75451
179.05993
146.11385
129.37334
118.29788
111.22959
106.54602
103.59845
101.64452
100.39778
99.719936
15389.477
14966.51
14409.681
13713.34
12881.339
11932.166
10896.149
9807.8115
8697.8732
7589.4786
6500.5813
5449.2704
4456.68
3545.8647
2737.7595
2046.5703
1477.2023
1025.1461
679.12563
425.99959
262.51494
181.15422
146.74127
129.82347
118.62581
111.58507
106.72666
103.68615
101.68462
100.41602
99.724844
14644.753
14308.507
13846.735
13248.401
12509.712
11640.995
10667.499
9624.5405
8549.3834
7472.7878
6416.9368
5399.6083
4438.496
3552.7599
2761.0301
2077.4559
1508.7053
1052.8036
700.79532
440.86254
269.34462
183.25821
147.71744
130.5515
119.3069
111.91244
106.89588
103.77963
101.72175
100.43125
99.726972
13903.086
13653.282
13287.92
12790.664
12150.959
11371.154
10469.472
9478.8367
8439.2609
7388.4128
6355.64
5362.2115
4425.0107
3560.0828
2782.8578
2106.9434
1539.547
1080.4821
722.9248
456.47967
276.94229
185.65756
148.40703
130.81371
119.57504
112.0695
107.05936
103.86055
101.75946
100.44206
99.725514
13090.694
12918.254
12645.949
12252.587
11720.698
11043.912
10232.041
9311.9892
8322.4775
7305.4434
6297.7641
5326.331
4409.7802
3562.7747
2801.5147
2134.3233
1569.2927
1107.9726
745.48692
472.88055
285.56166
187.84452
148.67513
130.79081
119.77652
112.42622
107.27333
103.97195
101.79358
100.45313
99.720022
12205.707
12087.193
11886.105
11581.079
11152.373
10586.656
9883.0507
9057.6101
8143.3197
7182.6851
6216.5015
5276.632
4385.7227
3559.7237
2814.9455
2157.8994
1596.9885
1134.8422
768.37782
490.12561
295.21401
190.408
148.81951
130.65408
120.08068
112.62114
107.36953
104.03297
101.82293
100.45565
99.709419
11262.889
11178.319
11027.044
10788.746
10444.184
9978.3218
9385.0108
8671.3639
7859.467
6983.7213
6083.3757
5193.6359
4341.2723
3545.4013
2817.1353
2175.4009
1621.6463
1160.6464
791.38057
508.15841
306.05213
193.51468
148.93127
130.51007
120.12183
112.72696
107.56083
104.12469
101.86105
100.45358
99.69325
10293.53
10223.729
10102.253
9911.4998
9634.2715
9255.2971
8765.0813
8164.093
7465.4039
6694.2056
5882.572
5063.4158
4265.1212
3509.6526
2811.1905
2186.0926
1642.1325
1184.5994
814.05388
526.69448
317.97294
197.49379
149.17044
130.40319
120.122
112.93145
107.73686
104.19523
101.87761
100.44775
99.670565
9362.0509
9294.4065
9187.2624
9026.5385
8798.1866
8488.5845
8087.238
7590.1329
7002.6887
6340.4788
5627.0879
4890.5175
4157.7491
3451.722
2791.024
2186.5521
1657.3828
1206.0739
835.9555
545.39524
330.70301
201.82979
149.77814
130.35953
120.17871
112.96335
107.77767
104.22038
101.87752
100.43038
99.6409
8535.4202
8464.2347
8362.0922
8218.5075
8022.653
7763.3612
7430.8203
7018.9261
6527.5526
5964.1945
5345.1392
4692.1611
4028.5869
3376.6911
2755.9034
2182.1226
1668.1604
1224.9678
856.89393
564.17927
344.2927
207.29914
151.05515
130.40935
120.17809
112.91077
107.80417
104.22077
101.86877
100.4122
99.604087
7871.3699
7795.5391
7693.8116
7558.7311
7382.0481
7154.9689
6869.0877
6517.7288
6098.2793
5614.2057
5075.0581
4495.9773
3896.1912
3296.0924
2714.995
2170.0757
1674.951
1241.7664
877.10039
583.26974
359.1502
214.35421
153.02857
130.84215
120.14009
112.85536
107.80116
104.20489
101.84976
100.37413
99.559492
7381.8126
7305.0887
7205.0469
7076.3201
6912.257
6705.7194
6449.7416
6138.4313
5768.3063
5339.7154
4858.0458
4334.5084
3784.739
3226.9265
2679.56
2159.5884
1681.5395
1257.8841
896.93904
602.6069
375.02804
222.72367
155.36945
131.34627
120.04879
112.75966
107.73964
104.14166
101.79227
100.32488
99.507675
7009.2998
6939.4036
6848.4016
6731.7676
6583.4678
6396.8499
6165.2557
5883.0153
5546.4174
5154.7148
4711.4871
4225.4605
3710.0119
3181.7074
2658.3281
2157.1872
1690.6213
1274.3863
916.50383
621.65183
390.89183
231.43555
157.45703
131.46757
119.85532
112.47842
107.55529
104.02153
101.72252
100.26445
99.448997
6656.1452
6598.363
6522.2026
6423.4597
6296.6368
6135.457
5933.1507
5683.112
5380.2695
5022.612
4612.2824
4156.2264
3666.4102
3158.816
2651.1245
2160.36
1703.7343
1292.5274
936.17746
639.99685
405.68125
239.26242
158.88401
131.41169
119.34483
111.98506
107.24649
103.85613
101.64098