/*--------------------------------*- C++ -*----------------------------------*\
| =========                 |                                                 |
| \\      /  F ield         | OpenFOAM: The Open Source CFD Toolbox           |
|  \\    /   O peration     | Version:  2406                                  |
|   \\  /    A nd           | Website:  www.openfoam.com                      |
|    \\/     M anipulation  |                                                 |
\*---------------------------------------------------------------------------*/
FoamFile
{
    version     2.0;
    format      ascii;
    arch        "LSB;label=32;scalar=64";
    class       volScalarField;
    location    "0.02";
    object      nut;
}
// * * * * * * * * * * * * * * * * * * * * * * * * * * * * * * * * * * * * * //

dimensions      [0 2 -1 0 0 0 0];

internalField   nonuniform List<scalar> 
2065
(
0.001366927
0.0016266851
0.0018889315
0.0021486188
0.0024100071
0.00073008904
0.00087138874
0.0010448567
0.0012377835
0.0014521072
0.00054840034
0.00064834942
0.00077314788
0.00093569596
0.0009075521
0.0010844596
0.0012632739
0.0016707381
0.0019180117
0.0021668246
0.0024896096
0.0028148099
0.0031840412
0.0037237995
0.0041184006
0.0037252565
0.0032218576
0.0025791971
0.0018091581
0.0020382828
0.0010313537
0.0011821881
0.00052234373
0.00061151742
0.00070580105
0.00048343005
0.00056521633
0.00067016576
0.00080248775
0.00085728034
0.0010062804
0.0011783807
0.0013665177
0.0015762287
0.0031924917
0.0054482169
0.0086304002
0.012292042
0.015576166
0.017518633
0.017651888
0.016270686
0.01405788
0.0033988482
0.0056737372
0.0087771808
0.012293134
0.015418774
0.017211641
0.017270183
0.015867755
0.013669754
0.0036150803
0.0058924553
0.0089289676
0.012317636
0.015278324
0.016899248
0.01687571
0.01545309
0.013276519
0.0038370987
0.0061004627
0.0090632489
0.012322269
0.015117295
0.016580104
0.016472165
0.015030843
0.012884252
0.0040637249
0.006301327
0.0091825295
0.012307732
0.014934669
0.016256078
0.016064878
0.0042917689
0.011531649
0.0088800093
0.0061794349
0.0036141743
0.0014364602
0.00017399202
0.01121669
0.0086333246
0.0060021441
0.0035113128
0.0013984671
0.00017067372
0.01088586
0.0083755587
0.0058219247
0.0034080297
0.0013587174
0.00016709682
0.01055564
0.0081195638
0.0056457378
0.0033079128
0.0013233043
0.00016327311
0.029374176
0.021099344
0.013308885
0.0066801904
0.0020305894
0.0001272049
0.0274351
0.019658474
0.012396369
0.0062601996
0.0019485469
0.00012599555
0.025568065
0.018310577
0.011577847
0.0059068754
0.0018920688
0.00012505701
0.023794271
0.017044858
0.010810603
0.005559687
0.0018092875
0.00012440508
0.022121921
0.015860093
0.010096528
0.0052412121
0.0017448105
0.00012333658
0.020560806
0.01475638
0.0094229402
0.0049189468
0.001648375
0.00012267013
0.019106417
0.013726647
0.0087922
0.004623154
0.0015789236
0.00012119986
0.017758422
0.012766202
0.0081899586
0.0043181997
0.0014777803
0.00011947969
0.016510816
0.011887888
0.0076534591
0.0040641672
0.0014133162
0.0001178051
0.015394475
0.011089177
0.0071525482
0.003813962
0.0013351987
0.000116362
0.014456882
0.010427941
0.0067444978
0.0036154733
0.0012800773
0.00011522251
0.013643329
0.009861439
0.0063967602
0.0034440397
0.0012266139
0.0001146575
0.012953625
0.0094009033
0.0061280753
0.0033203038
0.0011941948
0.00011478576
0.012342895
0.0089794686
0.0058804141
0.0032097676
0.0011684372
0.00011550162
0.011879902
0.0086705337
0.0057010794
0.0031297656
0.001149466
0.00011702251
0.011535909
0.008451524
0.0055833446
0.0030829819
0.001140928
0.00011934216
0.01128833
0.0083040679
0.0055107271
0.0030597075
0.001141719
0.00012249041
0.011137925
0.0082326017
0.0054945008
0.0030711054
0.0011546527
0.00012653152
0.011063786
0.0082132081
0.0055072296
0.0030950602
0.0011730715
0.00013146179
0.011073745
0.0082723933
0.0055864098
0.0031638199
0.0012077865
0.00013736397
0.011122675
0.0083476986
0.005661644
0.0032213955
0.0012398419
0.00014418712
0.011273164
0.0085343535
0.0058435474
0.0033570913
0.001302395
0.00015209914
0.011353593
0.0086261132
0.0059224051
0.0034150962
0.001336612
0.00016087634
0.011804585
0.0091048705
0.006353085
0.0037229807
0.0014703606
0.00017152381
0.035162644
0.042081139
0.049375995
0.055813447
0.059578709
0.059130571
0.054358997
0.046633901
0.037892702
0.032818039
0.039590064
0.046727404
0.052942828
0.056507879
0.055985027
0.051356666
0.043903925
0.035527274
0.030725959
0.037263217
0.044155998
0.050112256
0.053464778
0.052871057
0.048371858
0.041201293
0.033210402
0.028807591
0.035072878
0.041676584
0.047347361
0.050472999
0.049811084
0.04543849
0.038565027
0.030978336
0.027026282
0.032991132
0.039286886
0.044654554
0.047548328
0.046828508
0.042586378
0.036024288
0.028850256
0.025363009
0.031019797
0.036975524
0.042036165
0.044706572
0.043940493
0.039843727
0.033605381
0.026847016
0.023810579
0.029191792
0.034783473
0.039494015
0.041949243
0.041163487
0.037231145
0.031323026
0.024971114
0.022311776
0.027403748
0.032708458
0.037115708
0.039333111
0.038497086
0.034744482
0.029179811
0.023227392
0.020927006
0.025715766
0.030709479
0.0348718
0.036925764
0.036056767
0.032445679
0.027180885
0.021601019
0.019545686
0.024083696
0.028803724
0.032719167
0.034655885
0.033822513
0.030397831
0.025417284
0.020160913
0.018381014
0.022631574
0.027052822
0.030721703
0.032524266
0.031738597
0.02853519
0.023861801
0.018925529
0.017282875
0.021273881
0.025428726
0.028880111
0.030574289
0.029833388
0.026828104
0.022456045
0.017833677
0.016185724
0.019942903
0.023873252
0.027165424
0.028799186
0.028128867
0.025324423
0.021224527
0.016883639
0.015091162
0.018652891
0.022400966
0.025576283
0.027192196
0.026619889
0.02401617
0.020160534
0.016059977
0.014052196
0.017436264
0.021028431
0.024117112
0.02575225
0.025302342
0.022910712
0.019295365
0.015412815
0.01304632
0.016276256
0.019744222
0.022777602
0.024467756
0.024158775
0.021980143
0.018596772
0.014910708
0.012060403
0.01515441
0.018524335
0.021530939
0.023316
0.02316562
0.021197035
0.018042705
0.014531246
0.011058657
0.014036933
0.017336937
0.020348042
0.022259327
0.022296021
0.020538281
0.017616261
0.014263604
0.010035194
0.012912855
0.016164619
0.019213231
0.021264921
0.021526018
0.019981586
0.017298865
0.014100417
0.0089196035
0.011709844
0.014939917
0.01806733
0.020290684
0.020818288
0.019491329
0.017048863
0.014016677
0.0077576679
0.010504007
0.013736743
0.016951512
0.01934471
0.0201679
0.019086338
0.016871536
0.013992093
0.0063841349
0.0090025639
0.012257787
0.015643988
0.018307565
0.019485918
0.018733204
0.016748158
0.014051242
0.0052530622
0.0078871558
0.011135451
0.01460338
0.017436923
0.018793788
0.018400474
0.016618352
0.014068632
0.0031217363
0.0054582011
0.0087605219
0.012542273
0.015914518
0.01793226
0.018074611
0.016656659
0.014397049
0.00034036785
0.0029420369
0.0076908147
0.013727388
0.02057964
0.028023497
0.00032334558
0.0027413016
0.0071417417
0.012749221
0.019161039
0.026135714
0.00030792602
0.002561169
0.0066601244
0.011882472
0.017872356
0.024399125
0.00029398272
0.0023830244
0.0062186255
0.011099821
0.016705665
0.022824349
0.00028160087
0.002220967
0.0058222159
0.010396386
0.015646809
0.021383064
0.00027027923
0.00205031
0.0054253976
0.0097183023
0.014643595
0.020022493
0.00026042178
0.0019259776
0.005107126
0.0091349244
0.013745746
0.018778644
0.0002511905
0.0017598183
0.0047248487
0.0085038461
0.012837293
0.01756403
0.00024340744
0.0016753742
0.0044915582
0.0080379546
0.012081589
0.01648469
0.0002359896
0.0015151847
0.0041014977
0.0074040353
0.011204014
0.015349004
0.00022952371
0.0014310742
0.0038944105
0.0070282743
0.010599301
0.014465753
0.00022477267
0.0014161928
0.0037633992
0.0066976902
0.010027736
0.013627252
0.00022069606
0.0013258319
0.0035617079
0.0063124511
0.0094177683
0.012768801
0.00021660061
0.001159176
0.0032287422
0.0058170817
0.0087362812
0.011877368
0.0002118992
0.001053944
0.0029713168
0.0053726565
0.0080951944
0.011030065
0.00020731255
0.00095278155
0.0027164319
0.0049322356
0.0074616652
0.010199863
0.00020324306
0.00084883821
0.0024592662
0.0044972284
0.0068344422
0.0093787366
0.00019704003
0.0007424733
0.0021858269
0.0040289743
0.0061727002
0.0085285075
0.00018786866
0.00061948037
0.001884162
0.0035403423
0.0054879639
0.0076495856
0.00017517316
0.00049314178
0.0015319399
0.0029613467
0.0047009096
0.006667014
0.0001601133
0.00034710142
0.0011061974
0.0023381539
0.0038481611
0.0056060544
0.00012696697
0.00022958042
0.00063830115
0.0015730766
0.0028928192
0.00442602
6.3490944e-05
0.00012043316
0.00030831949
0.00085896666
0.0018155798
0.0031394474
1.8274008e-05
6.0242882e-05
0.00014261018
0.00038666534
0.0010012278
0.0018603843
1.7987918e-05
7.6025381e-05
0.00010430643
0.00017120325
0.00041576172
0.0010215232
2.0999694e-05
0.00017819345
0.00027115756
0.00024296599
0.00025824908
0.00056403657
2.070282e-05
0.00019717677
0.00044804278
0.00053058973
0.00049899766
0.00048176612
2.3214403e-05
0.00022942321
0.00058849122
0.00086316483
0.00094059155
0.00077006667
2.778774e-05
0.00025595781
0.00069830632
0.0011352181
0.001419044
0.0014940241
3.2809384e-05
0.00034104714
0.00087438159
0.0014253891
0.0018889535
0.0021978622
3.7903586e-05
0.00041671823
0.0010588524
0.0017313525
0.0023264398
0.0027896555
4.3249086e-05
0.00049093971
0.001250394
0.0020395469
0.0027338991
0.0032835674
4.7496371e-05
0.00055693652
0.0014250887
0.0023161055
0.0030831943
0.0036761045
5.0845005e-05
0.00061143505
0.0015660718
0.0025354353
0.0033515872
0.0039650371
5.2881669e-05
0.00064959036
0.0016653663
0.0026851234
0.0035269817
0.0041433403
5.5126854e-05
0.00067116275
0.0017140977
0.0027457816
0.003590836
0.0042026968
5.2538789e-05
0.00065964643
0.0016879901
0.0027118289
0.0035495471
0.0041537992
5.0313966e-05
0.00062741452
0.001607449
0.002591229
0.0034022659
0.003991736
4.7900272e-05
0.00058175512
0.0014840879
0.0023945572
0.0031551007
0.0037180147
4.3871678e-05
0.00051748823
0.0013161277
0.0021284122
0.0028182451
0.0033391677
3.8389264e-05
0.00043908618
0.0011147819
0.0018092533
0.0024064988
0.0028600474
3.2704321e-05
0.00036200054
0.00091384027
0.0014781183
0.0019542417
0.0022893472
2.7242862e-05
0.00026669226
0.00071172782
0.0011534214
0.0014769398
0.0016242432
2.2227561e-05
0.00020497965
0.00056200231
0.00086384914
0.0009836466
0.00090648001
1.7529383e-05
0.00015340118
0.0003902207
0.00052373
0.00052531657
0.00045213991
1.4216465e-05
0.0001215482
0.00025437001
0.00024868943
0.00023671404
0.00041052592
1.1603973e-05
6.7496355e-05
0.00011270275
0.00013717873
0.0002665945
0.00069613528
1.3505911e-05
6.7066082e-05
0.0001180158
0.00026588032
0.00036541809
0.0031944724
0.0085237874
0.015397925
0.00036527432
0.0032608056
0.0087339777
0.01580279
0.023959402
0.032957541
0.00036463205
0.0033162928
0.008914045
0.016156292
0.024523574
0.033779929
0.00036385078
0.0033708094
0.0090848604
0.016480612
0.025028758
0.034499278
0.00036307157
0.0034244936
0.0092476746
0.01677764
0.025475915
0.035112841
0.00036212153
0.0034788389
0.0093970706
0.017037289
0.025853014
0.035613295
0.00035834564
0.0035098673
0.009496831
0.017224578
0.026132273
0.035992939
0.00035539034
0.0035395206
0.0095779003
0.017368716
0.026343919
0.036274331
0.00035197833
0.0035670925
0.0096472127
0.017478988
0.026497395
0.036464976
0.00034810132
0.0035859042
0.0096898818
0.017546773
0.02658361
0.03655692
0.00034557504
0.003599892
0.0097222922
0.017581267
0.026601793
0.036543254
0.00034842924
0.0036140748
0.0097515573
0.017577258
0.026539948
0.036411702
0.00034009545
0.0035994266
0.0096691799
0.017444097
0.026350043
0.036142814
0.00034121972
0.0035645057
0.0095756264
0.017271701
0.026083003
0.035761735
0.00034351769
0.0035295277
0.0094759592
0.017082611
0.025777085
0.035309307
0.00034585451
0.0034895981
0.0093592275
0.016860673
0.025422174
0.034789826
0.00034755776
0.0034446754
0.0092255336
0.016604759
0.025015807
0.034203348
0.00034876487
0.0033993027
0.009090807
0.01634073
0.024586885
0.033573886
0.00035110744
0.0033544963
0.0089419993
0.016052067
0.024126596
0.03290619
0.00035095193
0.0032929854
0.0087658678
0.015730313
0.023629356
0.032195193
0.0003507507
0.0032345676
0.0085940333
0.01540613
0.023115884
0.031452568
0.00035102349
0.0031879742
0.0084345661
0.01508787
0.022595679
0.030688595
0.00035088594
0.0031174552
0.0082470123
0.014752671
0.022082953
0.029944784
0.00035203356
0.003131745
0.0082421011
0.01465611
0.021820436
0.029482305
6.3104748e-05
0.00011309546
0.00013761804
0.00036467464
0.00036523912
0.0031281631
0.036106171
0.037064182
0.038283654
0.039485949
0.040635077
0.041723275
0.042743566
0.043707223
0.044588924
0.04536846
0.046037183
0.046574223
0.046944194
0.047136676
0.047151355
0.04699584
0.046682244
0.046220746
0.04561207
0.044834223
0.043882532
0.042753773
0.041460521
0.042594777
0.044437359
0.046290076
0.04803338
0.049674728
0.051218729
0.052675214
0.054035981
0.055269218
0.056354144
0.057271761
0.057988266
0.058479092
0.058737195
0.05875363
0.058531948
0.05808081
0.057408945
0.056526674
0.055422408
0.054075016
0.052467911
0.05057943
0.050158751
0.052737371
0.055172382
0.057448406
0.05959422
0.061626511
0.063553542
0.065339399
0.066955571
0.068376565
0.069572849
0.070504218
0.071154149
0.071512946
0.071568451
0.071319603
0.070772541
0.069934096
0.068807486
0.067401284
0.065693847
0.063653079
0.061234405
0.058632901
0.061828837
0.064816303
0.067629105
0.070304374
0.072865496
0.075289281
0.077533814
0.07956957
0.081363929
0.08287848
0.084070815
0.084927203
0.085434296
0.085578338
0.085352933
0.08476073
0.083807199
0.082495606
0.08082691
0.078801253
0.076380397
0.073509681
0.067802477
0.071541016
0.075068421
0.078434703
0.081679404
0.084798647
0.087748137
0.090492148
0.092992342
0.095208038
0.097093511
0.09860683
0.099730388
0.10044952
0.10074823
0.10061473
0.10004764
0.099049244
0.097622226
0.095765231
0.093478173
0.090740043
0.087494694
0.077384062
0.08163091
0.085706322
0.08966237
0.093511178
0.097216859
0.10074122
0.10404036
0.10706424
0.10976359
0.11209231
0.11400399
0.11547049
0.11648252
0.11701944
0.11706401
0.11661058
0.11565763
0.1142057
0.11225305
0.10979285
0.10681691
0.10328426
0.087019231
0.0917773
0.096437705
0.10102647
0.10551728
0.10987177
0.11404052
0.11796654
0.12159007
0.12485617
0.12771613
0.13012079
0.13202686
0.13343148
0.13430903
0.13463667
0.13440414
0.13360546
0.1322379
0.13029927
0.12778331
0.12467746
0.1209605
0.09626877
0.10159137
0.10689812
0.11217682
0.11738805
0.12247685
0.12737799
0.13202233
0.13634354
0.14028032
0.14377698
0.14678592
0.14925388
0.15116864
0.15250803
0.1532429
0.15335827
0.15284343
0.15169126
0.14989692
0.14745505
0.1443553
0.14057832
0.10467781
0.11065707
0.11669546
0.1227625
0.12879647
0.13472341
0.14046476
0.14594192
0.15108017
0.15581064
0.16007229
0.16381244
0.16698117
0.1695414
0.1714806
0.17276306
0.17336964
0.17328553
0.17249933
0.17100228
0.16878742
0.16584681
0.16216477
0.11184797
0.11859627
0.1254831
0.13245576
0.13943199
0.14632132
0.15303205
0.15947547
0.16556761
0.17123206
0.17640126
0.18101674
0.18502892
0.18838228
0.19107011
0.19305044
0.19430105
0.19480409
0.19454518
0.19351256
0.19169687
0.18909021
0.18568049
0.11752132
0.12516659
0.13303326
0.14104671
0.14910056
0.15708978
0.16490924
0.17245844
0.17964438
0.18638326
0.1926011
0.19823377
0.2032264
0.20753089
0.21111343
0.21394219
0.21599134
0.21724038
0.21767279
0.21727509
0.21603648
0.2139484
0.21100049
0.12174415
0.13044343
0.13943616
0.14862047
0.15787656
0.16708311
0.1761233
0.18488808
0.19327771
0.20120266
0.20858391
0.21535281
0.22145064
0.22682794
0.23143602
0.23525515
0.23825032
0.24039945
0.24168467
0.24209149
0.2416085
0.24022697
0.23793686
0.12517402
0.13504232
0.14523924
0.15565589
0.16616127
0.17662523
0.18692469
0.19694568
0.20658402
0.21574596
0.22434852
0.2323194
0.23959654
0.24612739
0.25186786
0.25678242
0.2608417
0.26402177
0.26630328
0.26767058
0.26811123
0.26761566
0.12893882
0.13994195
0.15129962
0.16289291
0.17458632
0.18624663
0.19774789
0.20897321
0.21981566
0.23017904
0.23997823
0.24913904
0.25759779
0.26530048
0.27220192
0.27826476
0.28345837
0.28775782
0.2911428
0.29359674
0.29510636
0.29566109
0.13403105
0.14604739
0.15843384
0.171062
0.18379563
0.1965016
0.20905404
0.22133624
0.23324177
0.24467515
0.25555204
0.26579903
0.27535302
0.28416047
0.29217639
0.2993634
0.30569061
0.31113264
0.31566862
0.31928132
0.3219567
0.32368332
0.14088792
0.15375921
0.16700052
0.18047491
0.19404842
0.20759158
0.22098253
0.23410879
0.24686828
0.2591698
0.27093307
0.28208834
0.29257578
0.30234462
0.3113522
0.31956293
0.32694731
0.3334809
0.33914335
0.34391766
0.34778967
0.35074755
0.14914813
0.16269929
0.17660154
0.19071167
0.20490142
0.21904855
0.23303884
0.24676753
0.26014021
0.2730731
0.2854929
0.29733629
0.30854927
0.3190862
0.32890892
0.33798568
0.34629017
0.35380058
0.36049861
0.36636883
0.37139817
0.37557544
0.15748418
0.17148741
0.18580975
0.20030721
0.21485965
0.22935437
0.24368702
0.25776273
0.27149684
0.28481491
0.29765245
0.30995434
0.32167401
0.33277256
0.34321776
0.3529831
0.36204675
0.37039073
0.37799993
0.38486157
0.39096468
0.39629973
0.16282266
0.1769952
0.19145013
0.2060509
0.22068748
0.23525836
0.24967043
0.26383986
0.27769254
0.29116412
0.30419955
0.31675245
0.32878431
0.3402635
0.35116431
0.3614659
0.37115137
0.38020687
0.38862076
0.39638308
0.40348511
0.40991905
0.15979504
0.17370044
0.18788163
0.20220853
0.21658216
0.23091204
0.24511518
0.25911688
0.27285143
0.28626227
0.29930208
0.31193244
0.32412263
0.33584825
0.34709004
0.35783272
0.36806402
0.37777377
0.38695314
0.39559413
0.40368931
0.41123147
0.13756273
0.15070734
0.16418766
0.17788762
0.19171692
0.20558549
0.21940906
0.2331094
0.24661418
0.25985634
0.27278876
0.2853938
0.29765698
0.30956638
0.32111207
0.3322856
0.34307947
0.3534867
0.36350025
0.37311275
0.38231634
0.39110284
0.090165311
0.1009032
0.11208001
0.12355351
0.13524588
0.14710675
0.15909728
0.17118761
0.1833529
0.19556711
0.20777488
0.21993862
0.23202347
0.24399865
0.25583722
0.26751553
0.27901363
0.29031513
0.30140659
0.31227721
0.32290706
0.3332727
0.043472251
0.050039352
0.057062976
0.064393987
0.07202252
0.079923133
0.088069791
0.09644929
0.10507158
0.11399488
0.1232686
0.13279959
0.14251367
0.15236303
0.16231245
0.17232064
0.18235888
0.19240513
0.20244053
0.21244797
0.22242706
0.23238174
0.019082291
0.022459067
0.026072931
0.030013005
0.034244147
0.038731827
0.043434683
0.048307811
0.053297978
0.058336573
0.063477088
0.068750443
0.07414968
0.079651419
0.085236202
0.090908952
0.096667825
0.1025331
0.10851103
0.11461374
0.12086173
0.12728585
0.014249584
0.016299375
0.018459193
0.020701344
0.022990756
0.025298022
0.027611172
0.029917833
0.032205508
0.03447205
0.036718815
0.038945006
0.041168316
0.043406801
0.045677454
0.047997963
0.050387176
0.052867051
0.055452717
0.058152693
0.060982439
0.063950099
0.014293417
0.016110231
0.017958043
0.01981868
0.021674759
0.023509903
0.025309825
0.027061705
0.028755631
0.030386032
0.03194977
0.033443973
0.034866412
0.036218859
0.037502736
0.038720285
0.039873713
0.040974367
0.042029641
0.043037532
0.043994597
0.044908064
0.01566017
0.017620593
0.019579909
0.021510876
0.023388927
0.02519269
0.026902496
0.028503123
0.029984069
0.031339621
0.032568756
0.033674846
0.034665204
0.035550269
0.03634288
0.037057753
0.037710927
0.038310888
0.038860308
0.039360162
0.039813526
0.040224948
0.017438362
0.019535774
0.021587832
0.023567852
0.025453461
0.027227173
0.028876277
0.030392639
0.031772504
0.033015894
0.034125946
0.035108326
0.035970638
0.036719502
0.037361864
0.037906405
0.038362692
0.038740535
0.039051851
0.039309026
0.039522637
0.03970201
0.020762448
0.023082105
0.025273708
0.027309816
0.029171618
0.030848563
0.03233794
0.033643414
0.034773231
0.035739158
0.036553201
0.037229454
0.037783509
0.038233458
0.03859721
0.038890147
0.039125271
0.039313465
0.039463851
0.039583992
0.039679098
0.039753626
0.025735498
0.028159171
0.0302882
0.032117818
0.033660146
0.034938749
0.035983414
0.036825907
0.037497259
0.038026693
0.038442962
0.038771485
0.039029722
0.039232003
0.039389901
0.039512638
0.039607415
0.039679681
0.039733519
0.039772281
0.039799761
0.039818908
0.035024437
0.036232817
0.037151782
0.037851212
0.03838439
0.038791117
0.039101226
0.03933718
0.039515951
0.039650304
0.039749585
0.039820117
0.039869566
0.039903526
0.039926107
0.039940329
0.039948379
0.03995184
0.039951829
0.039949125
0.039944239
0.039937494
0.039204945
0.048218033
0.056311129
0.061554637
0.062423789
0.059040987
0.052890509
0.045846775
0.039512408
0.03870931
0.048130056
0.056863305
0.063070284
0.065124852
0.062994402
0.057973338
0.051788856
0.045715829
0.038071905
0.047857633
0.057254099
0.064489887
0.067847402
0.067100335
0.063330528
0.058121958
0.052683183
0.03712971
0.047263266
0.057351959
0.06568408
0.070467474
0.071260186
0.068917045
0.064878302
0.06038475
0.03573076
0.046183919
0.057008532
0.06648641
0.072826559
0.075335235
0.074626405
0.071980493
0.068666743
0.033755159
0.04446717
0.05602923
0.066699479
0.07471514
0.079117143
0.080256615
0.079227203
0.077265941
0.031137031
0.041991405
0.054223434
0.066104168
0.075877185
0.082326609
0.085509635
0.086297764
0.08583757
0.02796296
0.03874653
0.051473528
0.06451571
0.076040912
0.084638188
0.090018623
0.092794033
0.093948061
0.024531543
0.034949686
0.047857902
0.061857705
0.075005931
0.085740659
0.093388135
0.098259381
0.10113314
0.021382252
0.031127024
0.043789835
0.058315264
0.07282061
0.085500635
0.095355344
0.10233602
0.10699435
0.019030412
0.027975553
0.040040321
0.054570196
0.069928873
0.084174081
0.095973721
0.10492413
0.11131897
0.01758241
0.025870982
0.037268495
0.051447724
0.067099811
0.082364007
0.09566903
0.10627375
0.11421498
0.01707217
0.025027633
0.035989732
0.049804013
0.065430918
0.081189452
0.095458768
0.10727337
0.11642902
0.01735966
0.025346402
0.036268677
0.05000965
0.06566499
0.081708628
0.096564538
0.10917085
0.11916738
0.017999015
0.026327019
0.037629449
0.051746406
0.067774066
0.084240619
0.09961578
0.11281959
0.12342166
0.018897507
0.027802331
0.039806969
0.054680456
0.071447357
0.088605669
0.10462751
0.11843258
0.12956977
0.019851147
0.029492906
0.04241721
0.058309362
0.07609294
0.094185389
0.11102065
0.12551137
0.13720547
0.020294723
0.030719873
0.0446371
0.061653424
0.080579338
0.099730876
0.11748435
0.13273049
0.14501766
0.017928817
0.028899495
0.043620464
0.061697788
0.081807815
0.10211819
0.12089925
0.13699345
0.1499432
0.010558308
0.020455187
0.035117963
0.053845772
0.074989786
0.096383327
0.11615957
0.13309867
0.14672006
0.0038007385
0.0086864337
0.018119176
0.032927817
0.051987751
0.072932668
0.092973148
0.11042842
0.12458045
0.0012879186
0.0029872825
0.0067944647
0.013597966
0.024054983
0.037553314
0.052631874
0.066913214
0.079108203
0.00090762648
0.0015645733
0.0028380075
0.0052852205
0.0095487118
0.015672925
0.022829271
0.030193649
0.036933377
0.0009465203
0.0015270041
0.0024193616
0.0037344821
0.0055585953
0.0078900691
0.010589497
0.013424399
0.01610766
0.001005436
0.0016247757
0.0025622138
0.0038518587
0.0054686313
0.0072978687
0.009181973
0.010962912
0.012517451
0.001125263
0.0018067607
0.0028219003
0.004208119
0.00591562
0.0077988587
0.009659991
0.011335606
0.01273607
0.0012908744
0.0020620462
0.0032068489
0.004756702
0.0066410917
0.0086916446
0.010700983
0.012495512
0.013980402
0.0015137332
0.002415267
0.0037409204
0.0055147982
0.0076429145
0.0099233101
0.012120212
0.014051393
0.015628643
0.0020009557
0.0031504016
0.0048107745
0.0069901847
0.0095537726
0.012244746
0.014784207
0.01697189
0.018725856
0.0028498012
0.0044340091
0.0066751761
0.0095357365
0.012787149
0.016076855
0.019073394
0.021566432
0.023496361
0.0074510228
0.0109646
0.015312362
0.020005749
0.024397178
0.027997988
0.030651419
0.032479845
0.033703671
0.030426776
0.029739966
0.029004933
0.027994862
0.026577849
0.024669814
0.022247384
0.019463215
0.016648013
0.014277972
0.012653191
0.011701963
0.011388816
0.011591707
0.011947648
0.012398366
0.01279125
0.01266251
0.010059477
0.0046867303
0.0014861323
0.00059317589
0.00053403988
0.00056382155
0.00060289596
0.00067340786
0.00077799512
0.00090919147
0.001213405
0.0017430079
0.004725551
0.02190686
0.021171843
0.020496575
0.019581787
0.018331377
0.01669825
0.014689926
0.012498444
0.010436966
0.0088559186
0.0078504167
0.0072670264
0.0070659065
0.0071608616
0.0072866626
0.0073910588
0.0073597399
0.0068232901
0.0044194377
0.0015586661
0.00045651372
0.00027591645
0.00028476568
0.00029938381
0.00032024922
0.00035504101
0.00041237376
0.00047686601
0.00063632055
0.00091518828
0.0024909062
0.013877547
0.013197883
0.012694183
0.011985964
0.011038588
0.009833698
0.0084029705
0.0069372568
0.0056823588
0.0048160673
0.0042904882
0.003966653
0.0038312117
0.0038280027
0.0037961592
0.0036791107
0.0033938563
0.0026544403
0.0011685225
0.00033469343
0.00012458833
0.00011575529
0.00012421606
0.00012981724
0.00013903743
0.00015318256
0.00017885533
0.00020558006
0.0002712889
0.00038989613
0.0010232978
0.0070016397
0.0065021311
0.0062163562
0.0057652122
0.0052006533
0.0044965907
0.0037155124
0.0029782441
0.0024302799
0.0020832621
0.0018634264
0.0017055534
0.0016158292
0.0015516153
0.0014463062
0.0012547705
0.00091813913
0.0004270301
0.00011869024
3.6658011e-05
2.9295935e-05
3.2682579e-05
3.4746639e-05
3.7611058e-05
4.0142295e-05
4.5111894e-05
5.2580732e-05
6.222075e-05
8.0590474e-05
0.00011605845
0.00027730355
0.0021250204
0.001905693
0.0018089599
0.0015967947
0.0014055587
0.0011498909
0.00092909292
0.00073575904
0.00061891124
0.00053389414
0.00047161803
0.00041609298
0.00037414672
0.00031821809
0.00022308369
0.00012998546
6.5179704e-05
1.7516706e-05
3.7387165e-06
2.4669956e-06
2.5993568e-06
2.8915317e-06
3.2101953e-06
3.6407294e-06
4.0882106e-06
4.7882622e-06
5.9558507e-06
7.6580266e-06
1.0806537e-05
1.6932825e-05
3.6597259e-05
0.00012262076
0.00011210596
0.00010193267
8.9387105e-05
7.7109403e-05
6.4729181e-05
5.4762304e-05
4.7287892e-05
4.2115621e-05
3.7782697e-05
3.3785546e-05
2.9627971e-05
2.5042813e-05
1.9624722e-05
1.3254949e-05
7.7303565e-06
4.0052239e-06
1.9472417e-06
1.2312016e-06
7.7611439e-07
4.8622017e-07
3.9122109e-07
3.5986111e-07
3.345953e-07
3.105157e-07
2.8101855e-07
2.5392492e-07
2.4539716e-07
2.6879579e-07
4.7386506e-07
1.235462e-06
)
;

boundaryField
{
    Side1
    {
        type            empty;
    }
    Inlet
    {
        type            calculated;
        value           uniform 0.039740317;
    }
    Side2
    {
        type            empty;
    }
    Outlet
    {
        type            zeroGradient;
    }
    Botwall
    {
        type            nutkWallFunction;
        blending        stepwise;
        value           nonuniform List<scalar> 
59
(
1.7207138e-05
1.6745599e-05
1.6246526e-05
1.5712949e-05
1.0729214e-05
1.0553024e-05
1.0416371e-05
1.0314143e-05
1.0160529e-05
1.0052283e-05
9.8417869e-06
9.582763e-06
9.337494e-06
9.1193724e-06
8.9505358e-06
8.859687e-06
8.8734349e-06
8.9693421e-06
9.1827215e-06
9.5111434e-06
9.9577926e-06
1.053143e-05
1.1230765e-05
1.2066338e-05
1.3029912e-05
1.4143629e-05
1.5375207e-05
1.6862526e-05
1.0080179e-05
8.5820552e-06
7.122904e-06
5.3089529e-06
3.5131556e-06
1.6727993e-06
1.586263e-07
0
0
0
0
0
0
0
0
0
0
0
0
0
0
0
0
0
0
0
0
0
0
0
0
)
;
    }
    Cyli
    {
        type            nutkWallFunction;
        blending        stepwise;
        value           nonuniform List<scalar> 
76
(
3.979549e-05
3.7533953e-05
3.5471621e-05
3.3594684e-05
3.19174e-05
3.0375346e-05
2.9025074e-05
2.7754996e-05
2.6680995e-05
2.5651241e-05
2.4754543e-05
2.4098286e-05
2.3518763e-05
2.2945627e-05
2.229675e-05
2.1668809e-05
2.1112663e-05
2.0264114e-05
1.9017768e-05
1.7253645e-05
1.5178002e-05
1.0511183e-05
1.2964002e-06
0
0
0
0
0
0
0
0
0
0
0
0
3.4518144e-08
0
0
0
0
0
0
0
0
0
0
0
0
4.3101249e-05
4.3101376e-05
4.3035342e-05
4.2949851e-05
4.2862655e-05
4.275154e-05
4.2270763e-05
4.1893156e-05
4.1454884e-05
4.0954005e-05
4.0626975e-05
4.100052e-05
3.9907344e-05
4.0052188e-05
4.0347273e-05
4.0645575e-05
4.0859384e-05
4.1006583e-05
4.1301581e-05
4.1268778e-05
4.1227562e-05
4.1246835e-05
4.1211849e-05
4.1344017e-05
1.232739e-06
1.2013621e-05
4.2964258e-05
4.3058245e-05
)
;
    }
    procBoundary0to1
    {
        type            processor;
        value           nonuniform List<scalar> 
44
(
0.0026703413
0.0026703413
0.0016807551
0.0011378232
0.0011378232
0.0014815209
0.0014815209
0.0024096096
0.003098305
0.003098305
0.003555245
0.003555245
0.0040976746
0.0044732588
0.0043980856
0.0043980856
0.0045613604
0.0046103334
0.0045541711
0.0043869441
0.0041103734
0.0041103734
0.0040391858
0.0035383435
0.0028705977
0.0028705977
0.0022494828
0.014602318
0.012491322
0.0064877946
0.0092806767
0.012269307
0.014730179
0.015922211
0.014602318
0.015648768
0.0064877946
0.0045207656
0.01022586
0.0078652298
0.005473589
0.0032117722
0.0012858172
0.00015925235
)
;
    }
    procBoundary0to2
    {
        type            processor;
        value           nonuniform List<scalar> 
55
(
0.0016685204
0.0019672666
0.002259913
0.0025445043
0.0028285803
0.00061802342
0.001258028
0.00025371798
0.00061802342
0.00060523936
0.0083194677
0.023340963
0.015022031
0.023340963
0.032172249
0.00025371798
0.00022437092
0.00022437092
0.00018426182
0.00036353991
0.0030591135
0.0030591135
0.0083194677
0.040179893
0.048470304
0.058418405
0.070118706
0.083659136
0.099116366
0.11657191
0.13608909
0.15771408
0.18144379
0.2071734
0.23472121
0.26618278
0.26618278
0.29525932
0.32445739
0.35278557
0.37889603
0.40086491
0.415687
0.41822732
0.39948653
0.3433878
0.24234138
0.13395882
0.067063342
0.045791956
0.040599983
0.039853764
0.039811835
0.03983363
0.03993305
)
;
    }
    procBoundary0to3
    {
        type            processor;
        value           nonuniform List<scalar> 7(0.00134151 0.00134151 0.00081174853 0.00081174853 0.00095672288 0.00095672288 0.0018027262);
    }
}


// ************************************************************************* //
