/*--------------------------------*- C++ -*----------------------------------*\
| =========                 |                                                 |
| \\      /  F ield         | OpenFOAM: The Open Source CFD Toolbox           |
|  \\    /   O peration     | Version:  2406                                  |
|   \\  /    A nd           | Website:  www.openfoam.com                      |
|    \\/     M anipulation  |                                                 |
\*---------------------------------------------------------------------------*/
FoamFile
{
    version     2.0;
    format      ascii;
    arch        "LSB;label=32;scalar=64";
    class       volVectorField;
    location    "0.02";
    object      U;
}
// * * * * * * * * * * * * * * * * * * * * * * * * * * * * * * * * * * * * * //

dimensions      [0 1 -1 0 0 0 0];

internalField   nonuniform List<vector> 
2065
(
(36.422946 3.9866272 0)
(37.376508 3.9280224 -6.4419504e-18)
(38.213114 3.6739425 5.9512902e-18)
(38.888315 3.3904361 -5.5028848e-18)
(39.448962 3.1508934 5.0968967e-18)
(23.719539 2.0860805 -1.8736369e-22)
(25.417345 2.1381311 1.3943755e-17)
(27.067731 2.1630788 -6.4336739e-18)
(28.612467 2.1792176 0)
(30.016143 2.1433565 0)
(11.518029 0.24096889 -6.9950957e-21)
(12.731609 0.18567912 -2.9531027e-21)
(14.156764 0.22148455 0)
(15.818191 0.4823618 5.7805008e-21)
(4.5062054 -1.0302901 6.2650042e-21)
(5.4679343 -1.047706 -6.0349968e-18)
(6.4691579 -0.97797318 0)
(1.8537475 -2.0599915 -5.9736723e-18)
(2.5340969 -1.9685487 1.1021926e-17)
(3.1839882 -1.8644556 -5.1550113e-18)
(0.47886511 -2.7017076 5.5807698e-18)
(0.88671541 -2.509852 0)
(-0.69515494 -3.020968 -5.2140075e-18)
(-1.7515625 -2.9849208 -3.2481227e-18)
(-2.6498636 -2.7072656 2.3651742e-18)
(-2.2176218 1.8469954 -2.4345678e-18)
(-1.208893 2.1243896 -5.143917e-18)
(-0.074570449 2.1230094 -5.4996614e-18)
(1.2028048 1.7507324 0)
(1.6086063 1.6150784 -5.4200811e-18)
(2.9756341 1.0367865 -6.4039801e-18)
(3.690967 0.95763776 -5.9456476e-18)
(7.1992106 0.22652624 2.806961e-18)
(8.1775066 0.19414411 -3.885367e-18)
(9.2951425 0.046893776 -6.025597e-18)
(16.85839 -1.4609533 4.6624257e-18)
(18.230841 -1.4262611 -5.6119903e-18)
(19.631148 -1.3558692 0)
(21.125074 -1.4802235 0)
(28.580079 -3.406615 7.5368612e-18)
(29.754691 -3.2695776 -6.8547227e-18)
(30.900109 -3.1257548 5.0896034e-18)
(31.934666 -2.9875513 0)
(32.826608 -2.8971052 0)
(43.603266 4.5950999 -5.156504e-19)
(47.130908 4.7638442 0)
(50.556417 4.8922661 0)
(53.787858 4.8719944 1.4212455e-18)
(56.673651 4.544321 0)
(59.086544 4.0487214 -1.1687431e-18)
(61.015899 3.4797844 1.2508737e-18)
(62.510007 2.9202976 1.4531212e-18)
(63.640592 2.4210584 4.4337341e-19)
(43.748958 4.4059367 6.8790631e-19)
(47.362386 4.4844364 -9.9326499e-19)
(50.694431 4.6057131 1.4757315e-18)
(53.797658 4.5080915 -7.5684267e-21)
(56.534988 4.2360058 1.1300291e-18)
(58.837852 3.7945674 8.1088611e-22)
(60.689386 3.2746754 1.1593918e-18)
(62.129115 2.7558787 -1.3451673e-18)
(63.223471 2.2878271 -8.2024585e-19)
(44.052183 4.0388791 7.474599e-19)
(47.658822 4.1043708 2.1505698e-18)
(50.835708 4.233702 -1.6127588e-18)
(53.771109 4.1822918 1.2716274e-18)
(56.373104 3.9377872 -4.1415087e-21)
(58.571687 3.5420479 1.0833317e-18)
(60.347834 3.0670837 -1.1594777e-18)
(61.733885 2.5877501 -1.6289122e-22)
(62.791032 2.1517431 4.0609124e-19)
(44.297692 3.6847798 -1.4175538e-18)
(47.847022 3.7670737 -1.0025264e-18)
(50.916626 3.8918754 -6.0626562e-21)
(53.718634 3.8579917 -2.5055134e-18)
(56.200551 3.6476462 2.3874702e-21)
(58.301085 3.2929291 -1.0773933e-18)
(60.00299 2.8596867 -1.1554239e-18)
(61.335019 2.4180434 -1.458701e-21)
(62.354157 2.0137011 4.0050317e-19)
(44.52283 3.3901084 1.3023553e-18)
(48.004667 3.4791178 0)
(50.986419 3.5856671 -1.4846294e-18)
(53.668645 3.558071 1.2120593e-18)
(56.033917 3.3727342 -1.0786709e-18)
(58.036835 3.0525291 2.1275197e-18)
(59.663531 2.6569219 1.1429343e-18)
(44.74572 3.147707 -5.8835831e-19)
(64.571792 2.0091028 0)
(65.435166 1.6092112 0)
(66.248445 1.222425 0)
(67.024553 0.85278265 0)
(67.740966 0.47658647 0)
(67.978187 0.17524273 0)
(64.122596 1.9000588 0)
(64.955514 1.5249347 0)
(65.740328 1.1610651 0)
(66.490148 0.81389371 0)
(67.185221 0.46666647 0)
(67.422252 0.17367538 0)
(63.660028 1.7905423 0)
(64.466688 1.4408002 0)
(65.228743 1.100891 0)
(65.959438 0.77603368 0)
(66.641918 0.45281664 0)
(66.880941 0.17001666 0)
(63.193178 1.6783699 0)
(63.973467 1.3527312 0)
(64.713256 1.0354509 0)
(65.42606 0.73125316 0)
(66.096506 0.42886608 0)
(66.335024 0.1630733 0)
(49.511539 -5.9196822 7.9036497e-19)
(49.64899 -4.7349998 -9.9483192e-19)
(49.694135 -3.604486 0)
(49.630438 -2.536769 0)
(49.379037 -1.4844319 -3.9928788e-19)
(48.525743 -0.41162696 5.6044943e-19)
(51.836213 -5.9449985 -4.1882263e-19)
(52.002552 -4.7641411 5.3318006e-19)
(52.097489 -3.6478211 -7.3442821e-19)
(52.109102 -2.5938641 1.1226241e-18)
(51.986309 -1.5749009 -1.3864399e-20)
(51.531163 -0.50775257 -2.0484611e-20)
(54.278496 -5.8707537 -6.9412268e-21)
(54.469644 -4.7089126 -8.6875357e-21)
(54.596507 -3.6159627 3.8173136e-19)
(54.636729 -2.5819173 -1.1814257e-18)
(54.506629 -1.575794 9.1945292e-19)
(53.856052 -0.54688017 4.2961296e-20)
(56.805197 -5.6817402 -3.9328351e-22)
(57.028314 -4.5581046 5.8876142e-19)
(57.205012 -3.4975344 0)
(57.324645 -2.4956756 3.4949677e-23)
(57.354018 -1.5173573 5.0534334e-19)
(57.171267 -0.52578175 -7.3996098e-19)
(59.365995 -5.3936559 -4.8522383e-19)
(59.619747 -4.3299143 6.0379569e-19)
(59.834926 -3.3258782 1.2854112e-20)
(59.988581 -2.3746621 3.8872678e-23)
(60.000232 -1.4503158 -2.7718521e-19)
(59.408555 -0.52923805 3.6994217e-19)
(61.888518 -5.0216458 5.0674979e-19)
(62.169512 -4.0395008 0)
(62.426065 -3.11382 4.142453e-19)
(62.650143 -2.2419753 -2.7723112e-19)
(62.83733 -1.4168089 -7.6251552e-19)
(63.220523 -0.57136879 3.5711913e-19)
(64.315398 -4.5321424 8.2795859e-21)
(64.622087 -3.6313802 0)
(64.917225 -2.7787961 0)
(65.204255 -1.9689098 -2.0573344e-20)
(65.501369 -1.1654162 0)
(65.942778 -0.4295606 -1.8443425e-20)
(66.6092 -3.9666698 -8.6871475e-21)
(66.952773 -3.163453 3.4271033e-19)
(67.296643 -2.4026904 -4.6260067e-19)
(67.644519 -1.6791291 0)
(68.001597 -0.94980405 2.8836073e-19)
(68.225522 -0.3253078 -2.6894449e-19)
(68.69511 -3.3613455 0)
(69.078852 -2.6748224 1.847022e-19)
(69.472843 -2.0269823 1.1164909e-22)
(69.878163 -1.4154159 -1.7638882e-19)
(70.281026 -0.80290811 -2.971023e-19)
(70.320141 -0.26291313 -3.7848949e-23)
(70.490019 -2.7293075 -3.0519514e-19)
(70.905692 -2.1709584 -5.8550327e-21)
(71.334297 -1.6441744 0)
(71.772482 -1.1486949 1.826571e-19)
(72.189084 -0.65538444 -2.9594215e-19)
(72.097689 -0.21453923 -9.2811879e-21)
(71.939602 -2.0695046 0)
(72.390823 -1.6484226 -3.045676e-21)
(72.857766 -1.2497172 0)
(73.335135 -0.87527892 0)
(73.774734 -0.50532773 8.2622116e-20)
(73.532691 -0.16876758 -8.4077047e-20)
(72.980861 -1.3939907 0)
(73.462825 -1.1139092 3.169978e-21)
(73.953208 -0.84289337 -3.3659903e-20)
(74.443376 -0.5850403 4.8369038e-20)
(74.876794 -0.32820514 0)
(74.57135 -0.11851549 0)
(73.604175 -0.74477956 4.3284609e-20)
(74.146276 -0.6170601 -5.2513838e-20)
(74.694933 -0.48575533 -3.466812e-20)
(75.238373 -0.35410949 4.9442093e-20)
(75.701198 -0.2128878 0)
(75.261941 -0.069787371 0)
(73.74958 0.0049459744 1.6826637e-19)
(74.324052 0.01150241 9.4562993e-20)
(74.904659 0.018073268 -2.601863e-19)
(75.47862 0.021419028 1.7862769e-19)
(75.966477 0.025455984 -5.6281084e-20)
(75.528885 -0.0076632531 6.5140449e-20)
(73.631138 0.36602865 1.7085483e-19)
(74.211162 0.28863381 -1.7423284e-23)
(74.789944 0.21672633 3.9319438e-19)
(75.345138 0.13335327 -2.154954e-19)
(75.829694 0.082916025 1.9268085e-19)
(75.388577 0.033412077 8.0599155e-21)
(73.266641 0.7788278 -3.7571056e-19)
(73.882798 0.60626125 5.6676981e-21)
(74.485855 0.45555715 0)
(75.05924 0.32232184 0)
(75.539172 0.19952276 8.3989296e-20)
(75.063195 0.084653682 0)
(72.604827 1.1792158 0)
(73.25454 0.92421634 4.671077e-19)
(73.88871 0.69423758 -6.0125791e-19)
(74.496118 0.48517571 -3.8756134e-19)
(74.998146 0.28718241 2.6228936e-19)
(74.535406 0.11690225 3.0035309e-19)
(71.749452 1.5042146 0)
(72.435932 1.181533 -1.4779853e-20)
(73.098988 0.88780267 0)
(73.72991 0.61860314 -4.3740544e-19)
(74.250623 0.36115495 6.0764187e-19)
(73.832786 0.14554682 0)
(70.748097 1.7545665 -8.1502876e-19)
(71.473151 1.3808763 9.6745961e-19)
(72.169159 1.0383459 0)
(72.831234 0.72274901 -2.5521986e-20)
(73.385256 0.41749631 3.2430046e-19)
(73.01238 0.16829094 -2.660511e-19)
(69.659386 1.9309572 -8.1881306e-19)
(70.41828 1.5233356 9.3797381e-19)
(71.13987 1.1475941 0)
(71.820974 0.8005548 2.5095255e-20)
(72.395804 0.46354233 -3.5007241e-20)
(72.115523 0.18527638 0)
(68.541879 2.0402363 8.3183742e-19)
(69.335595 1.6122013 2.9687242e-20)
(70.08953 1.2141732 0)
(70.80519 0.8441373 2.466498e-20)
(71.422865 0.4815733 -5.092881e-19)
(71.199437 0.19603609 4.7672152e-19)
(67.418165 2.0959885 1.6023786e-18)
(68.235769 1.6650151 -1.4665685e-20)
(69.006522 1.2624347 -6.0216568e-19)
(69.734827 0.8868534 1.4859865e-18)
(70.375487 0.51416405 -1.0777108e-18)
(70.277116 0.20320822 2.9401398e-20)
(66.370458 2.0924813 0)
(67.216925 1.6549882 9.2978765e-19)
(68.014859 1.2434944 -2.2919123e-18)
(68.772232 0.86007728 1.5216656e-18)
(69.449302 0.48590425 -1.5745073e-20)
(69.399293 0.20261797 -1.4023076e-20)
(65.259717 2.117366 -1.5607978e-18)
(66.13177 1.6969608 1.8200613e-18)
(66.954262 1.2935056 8.7740038e-21)
(67.738908 0.90905759 0)
(68.461911 0.52101893 5.1615143e-19)
(68.540215 0.1902157 -4.2922916e-19)
(42.193271 -25.052616 1.3523752e-18)
(43.366633 -22.941414 8.5735802e-19)
(44.755341 -20.584811 -9.9109209e-19)
(46.102323 -18.069916 -4.3954038e-19)
(47.280958 -15.498977 -8.3035327e-19)
(48.201565 -13.025969 8.5149132e-19)
(48.826069 -10.785767 -4.7287449e-19)
(49.19216 -8.845596 -5.5278367e-19)
(49.366684 -7.2523348 1.6535865e-19)
(45.72265 -25.337455 1.480942e-18)
(46.702866 -23.098276 -9.432719e-19)
(47.796644 -20.659802 0)
(48.87585 -18.068269 -2.450491e-19)
(49.832713 -15.472767 9.3044093e-19)
(50.597994 -13.003416 -4.7632571e-19)
(51.141245 -10.777243 -5.2527577e-19)
(51.485941 -8.8464636 4.5537881e-19)
(51.672362 -7.2712541 -3.5843561e-19)
(49.385532 -25.089023 -1.5713807e-18)
(50.077229 -22.80337 0)
(50.856629 -20.344195 0)
(51.66852 -17.7641 5.1923268e-19)
(52.424353 -15.20456 0)
(53.061521 -12.78293 5.0437782e-19)
(53.547879 -10.598596 -5.5477636e-19)
(53.885006 -8.7100638 -2.7710743e-22)
(54.092114 -7.1678342 1.8733395e-19)
(53.055126 -24.325943 1.6545147e-18)
(53.455646 -22.076177 -1.4141523e-18)
(53.936533 -19.677727 0)
(54.492871 -17.171049 -2.7583205e-19)
(55.061251 -14.6924 0)
(55.583924 -12.358578 1.3355569e-19)
(56.022814 -10.24615 5.8706873e-19)
(56.357018 -8.4284828 3.660277e-22)
(56.589942 -6.935619 -1.1771752e-18)
(56.662405 -23.081838 1.7402168e-18)
(56.778897 -20.93548 -1.4895665e-18)
(56.982503 -18.659657 1.464006e-18)
(57.301718 -16.284329 5.8305709e-19)
(57.697366 -13.937371 -5.5320842e-19)
(58.118949 -11.726817 -7.0767357e-19)
(58.517635 -9.7251475 6.1896935e-19)
(58.855601 -8.0018305 -8.8526388e-20)
(59.11876 -6.5847828 0)
(60.106658 -21.381558 -3.6548527e-18)
(59.960333 -19.400601 1.6652419e-18)
(59.915274 -17.304368 -1.7180974e-19)
(60.024482 -15.114108 7.7015297e-19)
(60.270095 -12.945733 -5.8529485e-19)
(60.60629 -10.897029 4.4914228e-19)
(60.973772 -9.0406574 -6.5293284e-19)
(61.319444 -7.4402535 -9.2932203e-20)
(61.61233 -6.1244849 -3.7728263e-19)
(63.276422 -19.263294 -9.578713e-19)
(62.904678 -17.501264 -9.7764626e-19)
(62.65261 -15.638816 -9.0244937e-20)
(62.588442 -13.682592 4.8793863e-19)
(62.712376 -11.734087 -6.1881077e-19)
(62.982243 -9.8823973 1.5820689e-19)
(63.329873 -8.1994174 3.4459956e-19)
(63.688374 -6.7424149 -3.9042586e-19)
(64.011381 -5.5405483 -1.0481067e-22)
(66.081987 -16.774459 -1.0060125e-18)
(65.527449 -15.285836 5.4140149e-20)
(65.115066 -13.699616 4.7689195e-20)
(64.921433 -12.01927 6.860253e-19)
(64.957941 -10.328724 -6.53284e-19)
(65.184207 -8.7072679 0)
(65.52616 -7.2248501 0)
(65.907072 -5.9338784 -5.132136e-20)
(66.268079 -4.8646214 -5.9300729e-20)
(68.394584 -13.974327 0)
(67.733545 -12.796771 0)
(67.223064 -11.521658 5.0015365e-20)
(66.948754 -10.152502 4.5059237e-20)
(66.935771 -8.7552329 -3.0104234e-19)
(67.144487 -7.3996887 4.3502285e-20)
(67.497355 -6.1457818 3.8195352e-19)
(67.909711 -5.0453625 5.4073699e-20)
(68.313234 -4.1297374 0)
(70.307074 -11.03959 5.5515861e-19)
(69.567193 -10.128577 0)
(68.962759 -9.1535732 -2.6228193e-20)
(68.624604 -8.1119781 -4.2684912e-19)
(68.584697 -7.0372017 2.7068964e-19)
(68.795755 -5.9781004 -2.3059598e-19)
(69.174409 -4.9809809 -1.8996678e-22)
(69.625295 -4.095901 2.2671078e-19)
(70.071435 -3.3533435 2.6114735e-19)
(71.472967 -6.8998367 -5.5456812e-19)
(70.682596 -6.7327544 5.0063988e-19)
(70.107939 -6.3197422 -6.3282211e-19)
(69.814271 -5.7800237 2.1120782e-19)
(69.812086 -5.1353198 4.7380429e-20)
(70.060316 -4.432821 -1.9344635e-19)
(70.486267 -3.7317687 2.1024255e-19)
(70.986683 -3.0884476 -1.4832917e-20)
(71.480733 -2.5369577 0)
(71.622955 -3.5380658 1.4291e-19)
(70.941323 -3.384456 -1.2198809e-19)
(70.495943 -3.343649 0)
(70.322443 -3.223989 -1.2066719e-20)
(70.443726 -3.1176377 -4.9520709e-20)
(70.827207 -2.7995361 5.0610439e-20)
(71.355327 -2.4247998 0)
(71.92907 -2.0429104 1.5518737e-20)
(72.480181 -1.6967617 -2.1244794e-27)
(71.418547 -0.81849173 1.4553273e-19)
(70.831699 -1.0644296 1.8441019e-22)
(70.454246 -1.2676201 -2.2858072e-19)
(70.363557 -1.345629 9.4809048e-20)
(70.598609 -1.2449016 -2.39187e-20)
(71.089568 -1.1864029 4.902091e-20)
(71.723909 -1.1456806 -1.1468452e-19)
(72.400761 -1.0124642 6.4654447e-20)
(73.035774 -0.87451411 2.2157711e-27)
(70.637985 1.8242475 -6.5021268e-19)
(70.256133 1.2276415 0)
(70.072583 0.7240887 2.5253766e-19)
(70.158399 0.32547664 -4.1321829e-19)
(70.501295 0.085650505 7.2126919e-20)
(71.053013 -0.040746634 1.9598391e-19)
(71.740854 -0.010026037 2.7974347e-20)
(72.469123 -0.0095201237 -1.2474274e-19)
(73.1462 -0.002402805 1.8000384e-20)
(69.02281 4.5474973 6.6286601e-19)
(68.982691 3.5729733 0)
(69.125978 2.7143914 0)
(69.493487 1.970079 0)
(70.063307 1.4091807 -1.0800545e-19)
(70.775264 1.0197968 1.6251479e-19)
(71.556223 0.7586733 -5.3882001e-19)
(72.323011 0.5767007 2.5250185e-19)
(73.017738 0.4568422 -3.1124818e-19)
(66.759189 6.8341345 1.5684554e-18)
(67.105531 5.6374085 -1.246149e-18)
(67.625431 4.5019564 6.8234571e-20)
(68.317108 3.5103518 0)
(69.155599 2.6963487 1.7256022e-19)
(70.080729 2.0568583 5.7870583e-20)
(71.006251 1.5781771 6.2028111e-20)
(71.863078 1.2291613 0)
(72.613698 0.9753405 3.229073e-19)
(64.021541 8.56002 4.9380283e-20)
(64.824729 7.1945266 -1.2356728e-18)
(65.760151 5.9106463 1.2018793e-18)
(66.813148 4.7528201 1.2549114e-19)
(67.935603 3.7655985 -9.4429819e-19)
(69.065367 2.9619803 9.5550069e-19)
(70.13542 2.3290698 0)
(71.091942 1.8410457 0)
(71.906765 1.470445 -8.4124213e-20)
(60.950756 9.6299918 4.7851921e-18)
(62.245016 8.2293741 8.708809e-20)
(63.635209 6.8940532 -1.1706467e-18)
(65.075307 5.6616926 -3.8668978e-19)
(66.501081 4.5772777 -3.6174494e-19)
(67.851271 3.664654 2.4333654e-19)
(69.073399 2.9201975 -6.5637702e-19)
(70.129269 2.3282764 5.92219e-19)
(71.006614 1.8686415 8.5557009e-20)
(57.746225 9.9967942 3.6344607e-18)
(59.530651 8.7010676 -1.7968375e-19)
(61.378267 7.4326142 -4.5399764e-19)
(63.206956 6.2254589 -3.0631715e-22)
(64.936445 5.1231423 -2.3709005e-22)
(66.505175 4.1618478 -2.4629811e-19)
(67.875699 3.3524676 1.3267458e-19)
(69.026328 2.6925172 0)
(69.961972 2.1710737 1.7324317e-19)
(54.644619 9.6943796 -3.7556389e-18)
(56.86482 8.6330576 5.6523578e-18)
(59.124484 7.5449219 3.1274382e-19)
(61.311253 6.4590548 -1.6192954e-18)
(63.325116 5.414887 -7.4672068e-19)
(65.098781 4.4629561 9.9395724e-19)
(66.607585 3.6327971 0)
(67.846118 2.9378407 0)
(68.83455 2.3794987 -3.4868569e-19)
(51.747698 8.8882588 -8.0433601e-18)
(54.364335 8.1579054 3.5585756e-18)
(56.986418 7.32466 2.5827043e-18)
(59.482756 6.4229373 -2.4778623e-18)
(61.744697 5.4908121 0)
(63.699253 4.5932633 0)
(65.329752 3.7788098 0)
(66.646169 3.0777224 0)
(67.681196 2.5040439 -3.4934808e-19)
(49.204661 7.7259539 -3.8200719e-18)
(52.064264 7.3559756 -4.1907941e-19)
(54.967412 6.8313709 -6.7046876e-19)
(57.732974 6.1666867 5.6265055e-19)
(60.21891 5.3904774 1.5236646e-18)
(62.337741 4.5830578 -1.9995416e-18)
(64.074823 3.811819 -1.5998819e-18)
(65.457624 3.1277448 1.199454e-18)
(66.530525 2.5575749 -1.566479e-18)
(47.014806 6.5703945 -5.9107163e-19)
(50.215739 6.5460346 -4.4147952e-19)
(53.331717 6.2774456 6.9203987e-19)
(56.250341 5.8177531 -4.0072396e-18)
(58.871994 5.1945593 4.6010593e-18)
(61.102726 4.4851972 -1.9969697e-18)
(62.919063 3.7695585 -2.8888805e-22)
(64.352199 3.1134645 1.1902758e-18)
(65.455668 2.5522673 -1.3849022e-18)
(44.185394 5.4660134 -5.4403002e-18)
(47.569021 5.6208428 9.7902639e-19)
(51.095003 5.613844 5.8976039e-18)
(54.402092 5.3764208 -2.3622688e-18)
(57.309931 4.9200241 0)
(59.731834 4.3287765 0)
(61.670389 3.6917259 -5.2179807e-19)
(63.176085 3.0835167 -1.7561264e-18)
(64.31834 2.5523054 1.3632454e-18)
(45.533164 -43.916636 -5.6082672e-21)
(45.029359 -38.242872 1.2503714e-17)
(43.471095 -35.074885 -4.4353504e-18)
(42.626945 -32.257806 7.5086223e-19)
(42.107881 -29.699793 -2.2151671e-18)
(41.69789 -27.447056 1.5458997e-21)
(50.679251 -43.227988 -1.9320326e-18)
(50.114441 -37.747265 1.8648913e-18)
(48.166619 -34.886069 0)
(46.99412 -32.209625 -1.5753406e-18)
(46.164803 -29.777467 -5.7837252e-19)
(45.451899 -27.629894 0)
(55.685621 -41.88703 2.9736055e-18)
(55.04898 -36.602264 -1.5471674e-17)
(52.77815 -34.062031 4.8378061e-18)
(51.332267 -31.567133 1.6474178e-18)
(50.255579 -29.30376 6.079443e-19)
(49.343038 -27.310464 1.8824798e-18)
(60.466042 -39.896672 -1.0075387e-17)
(59.809492 -34.761081 0)
(57.271958 -32.579484 5.0448644e-18)
(55.600335 -30.318984 -4.2993191e-18)
(54.322514 -28.254913 0)
(53.245831 -26.440181 0)
(64.923632 -37.277188 1.0297566e-18)
(64.297139 -32.273879 -1.0398462e-18)
(61.567747 -30.496485 0)
(59.716028 -28.499358 -3.5846336e-18)
(58.280679 -26.658009 2.6450386e-18)
(57.073346 -25.043405 -2.0584531e-18)
(68.961881 -34.08134 -8.3894617e-18)
(68.406523 -29.198061 5.4054316e-18)
(65.553967 -27.836788 -5.467536e-18)
(63.567178 -26.127624 3.7346868e-18)
(62.01282 -24.537351 0)
(60.712034 -23.143497 2.6884933e-18)
(72.475173 -30.342954 0)
(72.050382 -25.595808 1.1146507e-18)
(69.121265 -24.669711 -2.8345405e-18)
(67.040673 -23.269312 1.9415303e-18)
(65.402815 -21.94989 -3.5935092e-19)
(64.043029 -20.791637 1.6846458e-18)
(75.317181 -26.14878 0)
(75.010045 -21.508656 -1.1614081e-18)
(72.109996 -21.042655 -7.3834202e-19)
(70.00862 -19.981781 2.0322748e-18)
(68.343584 -18.950542 -1.1279341e-18)
(66.967656 -18.033352 1.4699728e-18)
(77.444616 -21.551072 0)
(77.450367 -16.987445 5.9315596e-19)
(74.54588 -16.990085 7.6367744e-19)
(72.381087 -16.306229 0)
(70.690382 -15.590123 0)
(69.329584 -14.930576 -3.0770905e-19)
(78.628097 -16.685779 0)
(78.582133 -12.377032 -6.1602581e-19)
(75.882044 -13.117213 -1.5991928e-18)
(73.956726 -12.738672 1.106634e-18)
(72.450642 -12.239943 2.0597842e-19)
(71.221126 -11.764617 -6.4628734e-19)
(79.052811 -11.732245 1.1942334e-18)
(79.328163 -7.2002753 -3.7793461e-18)
(77.138812 -7.2170514 1.4230185e-18)
(75.247061 -7.2461752 -9.0190434e-19)
(73.708831 -7.1417128 5.9001947e-19)
(72.449343 -7.0906628 6.2837347e-19)
(79.50943 -6.3689737 0)
(79.637524 -1.1252412 -1.0392271e-18)
(77.325775 -3.1325616 9.5782507e-19)
(75.348396 -3.1913845 -5.9980743e-19)
(73.773206 -3.3428082 3.7850292e-19)
(72.5433 -3.5002547 -1.5410157e-19)
(78.624786 -2.8020486 3.2150647e-19)
(78.879458 2.5733187 -4.8922674e-19)
(76.548064 0.6100761 0)
(74.690851 0.15255883 -2.6718292e-19)
(73.268131 -0.21408892 2.0892381e-19)
(72.189823 -0.52647926 2.5175784e-27)
(76.988456 -1.5164294 0)
(76.81068 7.2315727 1.2185219e-18)
(74.868749 4.6506335 1.7069648e-18)
(73.262304 3.6904559 -2.5006978e-18)
(72.077939 2.9954105 -2.4037791e-19)
(71.207757 2.4063429 1.325304e-18)
(72.036766 4.6884177 6.0672714e-19)
(72.946255 12.195571 0)
(72.013162 8.6538416 0)
(70.823989 7.3051476 -3.3809733e-19)
(69.920192 6.302475 7.7265387e-19)
(69.299128 5.4278779 -1.0236445e-18)
(66.471399 9.2048618 -6.16183e-19)
(68.528539 15.411792 0)
(68.29713 11.827412 -3.8678305e-18)
(67.532738 10.260848 6.0214824e-18)
(66.988213 9.0234117 -1.6260752e-18)
(66.684893 7.9191083 -8.6468553e-19)
(60.367141 12.349201 -1.2598864e-18)
(63.651999 17.853951 -4.192859e-18)
(63.967842 14.388723 3.9924826e-18)
(63.627056 12.504234 0)
(63.477709 11.036417 0)
(63.54578 9.7415252 1.3712771e-18)
(54.101275 14.044456 1.3847637e-18)
(57.359241 19.375814 -2.9063986e-18)
(58.741891 15.70869 0)
(59.10808 13.822019 0)
(59.508244 12.245554 0)
(60.025113 10.825637 -4.7934781e-18)
(46.44038 14.411525 4.9243555e-21)
(51.123671 19.820617 2.954953e-18)
(53.356544 16.191276 -4.3896177e-18)
(54.391711 14.152928 0)
(55.36339 12.511512 0)
(56.369534 11.056698 -4.1250744e-18)
(38.833637 12.98618 0)
(43.099849 18.158951 -1.4911937e-18)
(47.349464 15.135337 1.1491286e-17)
(49.567927 13.312496 -5.2650062e-18)
(51.285132 11.838685 -1.3798258e-18)
(52.833068 10.49869 -1.1071023e-18)
(30.516296 10.536179 1.2550664e-17)
(36.989018 15.343425 0)
(41.749335 12.89802 7.2588034e-18)
(44.900797 11.451049 -1.8802618e-18)
(47.369177 10.370164 -2.1828702e-21)
(49.505677 9.3217431 1.1940288e-18)
(14.866017 1.6132374 -1.5761588e-17)
(27.529627 9.7532164 1.2187822e-17)
(37.073762 9.7026043 0)
(41.327973 8.9733471 -8.1791678e-18)
(44.262081 8.44087 8.1355825e-18)
(46.728103 7.7777581 5.2296715e-18)
(4.970591 -1.2642415 1.066626e-18)
(14.671799 3.8838487 0)
(27.519169 5.9618154 0)
(36.765582 6.5435537 -2.2099734e-18)
(41.041138 6.501218 0)
(44.040837 6.1970086 0)
(-6.5672841 -5.1772494 0)
(8.4765545 1.2581811 1.1467598e-17)
(15.706317 3.1217704 -1.0077219e-17)
(26.807565 4.4709304 2.2747018e-18)
(36.578962 5.290716 0)
(41.386128 5.214253 0)
(-3.9237058 -4.6074547 0)
(-0.086887629 -1.3353268 0)
(7.2431425 0.53181152 0)
(14.111214 1.8267932 6.8605334e-18)
(23.149539 3.1641942 -7.8966545e-18)
(34.016604 4.1665698 0)
(-4.5074843 -4.9786294 -3.0729743e-18)
(-3.2013686 -3.2225178 -1.3959353e-17)
(0.44558434 -1.9977189 9.953402e-18)
(5.3430548 -0.5392243 0)
(11.357636 0.84921379 3.7936868e-18)
(20.818143 2.3649057 -6.9631462e-18)
(-3.3670996 -4.7213408 -1.2355541e-17)
(-3.1210667 -3.8454333 -8.3764728e-18)
(-1.9917986 -3.1642899 2.4759075e-18)
(0.060918974 -2.1355286 1.7521392e-17)
(3.4376573 -0.6909151 -1.4176945e-17)
(10.341356 0.39514921 0)
(-2.9000193 -4.9218811 -1.5434056e-17)
(-2.6876756 -4.2664773 -2.8192705e-18)
(-2.1192044 -3.5668496 -1.2137487e-17)
(-1.3622296 -2.7896413 8.5129149e-18)
(0.037462112 -1.7861519 -3.7980112e-18)
(3.1171558 -0.9515728 1.015867e-17)
(-2.6231853 -5.3444205 6.1485978e-18)
(-2.3250254 -4.7161858 -8.1993464e-18)
(-1.8085301 -4.0666627 9.4028323e-18)
(-1.2670221 -3.4430238 -2.0369947e-18)
(-0.49759226 -2.8186494 0)
(0.9009106 -2.2396074 0)
(-2.422708 -5.7131732 -9.1722919e-18)
(-2.1728822 -4.995903 -1.0548363e-17)
(-1.7605428 -4.4133097 1.1232465e-17)
(-1.3685047 -3.9081925 1.9291172e-18)
(-0.87399972 -3.4383737 0)
(-0.14878476 -3.0071197 -6.0859082e-18)
(-2.170698 -5.8761104 0)
(-2.0345479 -5.1371564 0)
(-1.8055756 -4.5378764 -4.4144371e-18)
(-1.5965656 -4.0561184 0)
(-1.3599612 -3.6455159 2.0082851e-18)
(-1.0047134 -3.3137929 -1.4371102e-18)
(-1.9156241 -5.7303946 0)
(-1.9102542 -4.9433057 1.3368455e-18)
(-1.9201924 -4.3592988 1.091456e-18)
(-1.9196841 -3.9124703 0)
(-1.8811341 -3.5515174 -3.9415566e-23)
(-1.8075086 -3.2502966 2.7334963e-18)
(-1.4481877 -4.950346 0)
(-1.7465383 -4.3363312 -1.3189554e-18)
(-1.9811837 -3.8430923 1.0646724e-18)
(-2.1930864 -3.462999 -3.5255631e-18)
(-2.3741543 -3.1573347 4.5301942e-18)
(-2.5032455 -2.9165569 -1.3072011e-18)
(-1.0930728 -3.9535882 -3.9666653e-18)
(-1.5508284 -3.4353307 2.5809021e-18)
(-1.9767541 -3.0684354 -2.0724976e-18)
(-2.3764193 -2.776294 1.7200724e-18)
(-2.7342892 -2.5528365 -7.3677989e-19)
(-3.0421969 -2.385887 2.59058e-18)
(-0.8408702 -2.5930522 3.5228141e-18)
(-1.3249113 -2.2215845 -2.5599564e-18)
(-1.9647391 -2.0119408 -2.0558028e-18)
(-2.4870676 -1.8674338 1.6906222e-18)
(-2.9702382 -1.7500612 1.0873664e-18)
(-3.4158539 -1.6535168 1.6100752e-18)
(-1.3189967 -0.86634617 2.5293427e-19)
(-1.2354893 -0.99980783 -6.0799293e-23)
(-1.9900842 -0.92870512 -3.4728728e-23)
(-2.5474414 -0.89026713 -4.1945171e-19)
(-3.0739189 -0.86275438 -3.5994228e-19)
(-3.5728991 -0.84405238 -6.4119056e-19)
(-0.99238481 0.86567701 0)
(-1.1539374 0.45877322 6.3892607e-19)
(-1.886969 0.24953918 -2.5576873e-19)
(-2.4554506 0.13951388 -1.4880608e-23)
(-2.990004 0.056723431 3.6136611e-19)
(-3.4924877 0.0010970187 -9.6571488e-19)
(-0.7077437 2.1708144 2.7421227e-18)
(-1.1967169 1.6857287 -1.5865939e-22)
(-1.793964 1.3716578 2.5819946e-19)
(-2.297166 1.1504917 -4.2513816e-19)
(-2.7667163 0.97480309 7.3014017e-19)
(-3.2035179 0.82930609 -1.3043642e-18)
(-0.97977695 3.4235525 7.9501876e-19)
(-1.3942648 2.8299435 0)
(-1.776113 2.3648086 3.1148413e-18)
(-2.1195669 2.0200962 -8.636826e-19)
(-2.4531064 1.7390952 -7.475085e-19)
(-2.7388226 1.5383663 0)
(-1.332334 4.5012343 0)
(-1.500422 3.6893889 0)
(-1.6742739 3.1096151 4.3278275e-18)
(-1.8388428 2.6803242 -9.013778e-19)
(-1.9762754 2.3460889 -3.0742274e-18)
(-2.0843052 2.0763578 2.7269402e-18)
(-1.6212088 5.0271005 6.2430693e-18)
(-1.5445157 4.193455 -5.4051858e-18)
(-1.5060144 3.5684629 -1.1140884e-18)
(-1.4606448 3.0955281 0)
(-1.410363 2.7028717 0)
(-1.2799299 2.3976249 1.4339147e-18)
(-1.8408917 5.0677765 0)
(-1.6235193 4.2795539 0)
(-1.343704 3.6818718 0)
(-1.1254339 3.2091182 0)
(-0.84774892 2.7804545 0)
(-0.4135987 2.4188684 3.0216658e-18)
(-1.8289958 4.8430093 0)
(-1.710143 4.1261242 -1.8289984e-18)
(-1.2736689 3.5481418 0)
(-0.8845671 3.0242205 0)
(-0.34214716 2.5017275 1.7891251e-18)
(0.55404541 2.0137377 1.5934206e-18)
(-2.0543091 4.3980587 0)
(-1.8665681 3.8018713 -1.1161305e-17)
(-1.3304534 3.1940905 9.6747773e-18)
(-0.79975348 2.5533719 0)
(0.12519647 1.8083887 -9.4363196e-18)
(1.9082594 1.2043999 1.6865786e-17)
(-2.1266211 4.0569299 9.354978e-18)
(-2.1417976 3.4474987 2.8631338e-18)
(-1.3811782 2.8351003 0)
(-0.36017278 2.1123966 8.8962248e-18)
(1.7879436 0.84177201 -7.8843879e-18)
(6.2043907 0.12160702 -1.8575279e-18)
(-2.6870521 3.6275025 1.5996956e-17)
(-2.329765 3.0528991 -2.5772989e-17)
(-0.25459837 2.2303979 1.0079649e-17)
(2.8416688 1.0830599 0)
(7.6046266 -0.3146058 0)
(14.902092 -1.6609073 0)
(-3.2833567 3.1826739 -3.1214564e-18)
(-1.394577 1.7317777 1.7093238e-17)
(4.6313596 -0.11323721 -2.489998e-18)
(10.073164 -1.3775472 -2.1877316e-18)
(16.53196 -2.3899531 -3.9781643e-18)
(26.366871 -3.7097645 -1.0665303e-17)
(-5.1436194 4.2248703 1.5794124e-17)
(6.5635782 -1.1514508 -1.4042611e-17)
(11.988561 -2.8050465 2.4290593e-18)
(20.411973 -3.8653329 2.2509755e-18)
(43.927711 47.960328 9.1695571e-18)
(44.391707 42.599098 0)
(43.613169 39.379179 0)
(43.370825 36.716528 2.7371026e-18)
(38.233797 47.072528 -1.8685651e-18)
(38.959426 41.964764 -8.3913565e-18)
(38.710492 38.722153 4.0491105e-18)
(38.88465 36.096518 0)
(39.340576 33.751983 9.7591537e-19)
(40.047764 31.510587 1.4240416e-18)
(32.666343 45.403434 -7.6800127e-18)
(33.591227 40.604239 -4.9995238e-18)
(33.858147 37.417942 1.0041882e-18)
(34.439349 34.886197 5.2961643e-18)
(35.242718 32.653168 -3.8286378e-18)
(36.256061 30.54735 7.0239613e-19)
(27.374368 42.961584 -9.8613044e-18)
(28.438073 38.50304 -1.6576999e-18)
(29.205574 35.466758 -4.9391717e-18)
(30.182135 33.097001 2.6122044e-18)
(31.319348 31.033016 -9.4237657e-19)
(32.618666 29.105945 -6.9069287e-19)
(22.558848 39.798536 4.084569e-18)
(23.669113 35.681365 -4.9225222e-18)
(24.885453 32.90035 3.904205e-18)
(26.224086 30.760012 -6.3836319e-19)
(27.643986 28.932177 0)
(29.199507 27.207917 0)
(18.437803 36.116522 -6.8714082e-18)
(19.554604 32.263989 -6.4668518e-18)
(21.043468 29.853483 4.7700158e-18)
(22.642513 28.005859 6.1862116e-19)
(24.308328 26.407798 0)
(26.035459 24.934372 1.3456068e-18)
(13.358396 30.676373 0)
(15.655885 28.29148 0)
(17.458332 26.436505 -1.8640084e-18)
(19.298578 24.922335 0)
(21.249895 23.528807 1.3550578e-18)
(23.163372 22.294496 -3.0946238e-18)
(9.9525725 26.024778 0)
(12.246156 24.117225 7.8658023e-19)
(14.257212 22.637133 4.6964292e-19)
(16.412049 21.357659 0)
(18.539515 20.264956 -9.2942836e-22)
(20.64541 19.29404 6.9011504e-19)
(7.0907436 20.579281 0)
(9.3214595 19.469442 -7.9673857e-19)
(11.684491 18.343362 4.7679046e-19)
(13.995737 17.44385 -1.2526386e-18)
(16.282801 16.677508 1.355054e-18)
(18.522013 16.004122 -3.4448921e-19)
(4.6289859 15.058313 -3.3611955e-18)
(7.0964884 14.371113 1.6123399e-18)
(9.6228184 13.744237 -9.502908e-19)
(12.083215 13.25913 6.2616172e-19)
(14.491833 12.8459 -2.253322e-19)
(16.824268 12.487181 6.8921362e-19)
(3.4104591 9.7285409 3.0024131e-18)
(5.5708451 8.9918298 -1.5850871e-18)
(8.2222173 8.8700118 -9.4423029e-19)
(10.753055 8.8375588 6.2361857e-19)
(13.210605 8.8116274 3.3695667e-19)
(15.580243 8.7897569 4.3105467e-19)
(5.8533848 3.2578886 0)
(5.1160233 4.0002639 -7.1809627e-22)
(7.6642457 4.2693839 -4.8135983e-22)
(10.10516 4.5290507 -1.5560464e-19)
(12.501589 4.7870668 -1.123083e-19)
(14.833876 5.0451572 -1.7275745e-19)
(2.2588301 -3.7850901 -3.3492462e-19)
(4.6814363 -1.5612403 3.9783381e-19)
(7.2489937 -0.54195067 -1.1878448e-19)
(9.7335925 0.13065025 -2.335477e-22)
(12.15447 0.71640177 1.1288037e-19)
(14.486597 1.2711965 -2.6094656e-19)
(3.00737 -8.3423362 2.2717475e-18)
(5.1331104 -6.6895804 -2.2782342e-21)
(7.6088081 -5.4113826 1.1700431e-19)
(10.007262 -4.3676744 -1.5869678e-19)
(12.354672 -3.4340304 2.2624858e-19)
(14.61984 -2.5659133 -3.5060103e-19)
(4.4614703 -13.839855 6.6858518e-19)
(6.5327866 -11.780637 0)
(8.6642472 -10.134689 1.419723e-18)
(10.913686 -8.6850777 -3.1886473e-19)
(13.113738 -7.4085872 -2.3012448e-19)
(15.253554 -6.2454428 0)
(6.6476734 -19.291407 0)
(8.49779 -16.55323 0)
(10.390081 -14.520185 1.8740385e-18)
(12.348634 -12.837079 -3.2000571e-19)