/*--------------------------------*- C++ -*----------------------------------*\
| =========                 |                                                 |
| \\      /  F ield         | OpenFOAM: The Open Source CFD Toolbox           |
|  \\    /   O peration     | Version:  2406                                  |
|   \\  /    A nd           | Website:  www.openfoam.com                      |
|    \\/     M anipulation  |                                                 |
\*---------------------------------------------------------------------------*/
FoamFile
{
    version     2.0;
    format      ascii;
    arch        "LSB;label=32;scalar=64";
    class       volScalarField;
    location    "0.018";
    object      k;
}
// * * * * * * * * * * * * * * * * * * * * * * * * * * * * * * * * * * * * * //

dimensions      [0 2 -2 0 0 0 0];

internalField   nonuniform List<scalar> 
23203
(
28.049309
26.858325
25.222469
23.748688
22.193795
20.71413
19.243107
17.77124
16.443374
15.252773
14.076988
12.940402
11.929198
11.006021
10.123597
9.3034566
8.5605491
7.8734139
7.2440034
25.782397
24.496004
23.069408
21.557317
20.15465
18.861695
17.59736
16.328038
15.138878
14.082859
13.068251
12.047468
11.126855
10.304477
9.5099064
8.7642276
8.0900483
7.4596766
6.8803079
22.74948
21.731601
20.67291
19.496229
18.280245
17.101884
16.05046
15.024343
13.938284
12.977856
12.110004
11.205916
10.37121
9.6379523
8.9210762
8.2452141
7.6396472
7.0642979
6.5313862
20.352033
19.529389
18.604645
17.57769
16.550596
15.566954
14.611784
13.697444
12.828271
11.96783
11.165969
10.391734
9.6509082
8.987884
8.3436537
7.7349002
7.1954446
6.6752071
6.1867346
18.159514
17.464097
16.695033
15.846243
14.982653
14.139092
13.325388
12.533778
11.759126
11.010608
10.296808
9.6319967
8.9964362
8.3853174
7.8048439
7.260082
6.7728553
6.3059891
5.8615323
16.253872
15.680742
15.029331
14.304218
13.566955
12.844321
12.138427
11.449503
10.779488
10.132902
9.5123769
8.9146351
8.3431907
7.8028141
7.3079427
6.8234854
6.3620771
5.9450543
5.5491126
14.544658
14.064769
13.513991
12.902452
12.278377
11.662412
11.057435
10.463644
9.8835413
9.3195662
8.7753962
8.2539808
7.7530577
7.2746867
6.8201343
6.3899963
5.9831246
5.6009022
5.249182
13.031498
12.634017
12.169188
11.650719
11.120095
10.59413
10.074817
9.5629477
9.0610103
8.5718292
8.0969274
7.6376903
7.1961429
6.772825
6.3692223
5.9863371
5.6212977
5.2735227
4.9470602
11.683221
11.351794
10.958945
10.521157
10.072241
9.625002
9.1810192
8.7411477
8.3075892
7.8827405
7.4687427
7.0669636
6.6784181
6.3043378
5.9453918
5.6020903
5.2752757
4.9661011
4.6735409
10.484659
10.208836
9.8778629
9.5086585
9.1287619
8.7483287
8.368707
7.9908459
7.61683
7.248778
6.888244
6.5366071
6.1950779
5.8647331
5.5467167
5.241707
4.9499448
4.6718082
4.4078708
9.4155917
9.1852625
8.9063136
8.595466
8.2748672
7.9522727
7.6287123
7.3050783
6.9831353
6.6647216
6.3513991
6.0444428
5.7450216
5.4541961
5.1728712
4.9019739
4.6422377
4.3939438
4.1571975
8.4613992
8.2689132
8.0343195
7.7732765
7.5032848
7.2302316
6.9549601
6.6783212
6.4018745
6.1272133
5.8556645
5.5883956
5.326517
5.0711206
4.8232107
4.5835609
4.3527582
4.1312142
3.9191882
7.6101192
7.4488831
7.2517336
7.0329279
6.8061521
6.5757872
6.3424512
6.106859
5.870284
5.6340544
5.3993609
5.1673065
4.9389529
4.7152976
4.4972565
4.2856518
4.0811117
3.8839845
3.6944955
6.8544327
6.7192015
6.5536861
6.3705865
6.1804621
5.9864915
5.7890927
5.5888421
5.3867803
5.1840199
4.9815922
4.7804817
4.5816645
4.3860988
4.194668
4.0081155
3.8270082
3.6517134
3.4825104
6.1899924
6.0757954
5.936442
5.7829774
5.623424
5.4600134
5.2929779
5.1227438
4.9501274
4.7760365
4.6013619
4.4269975
4.2538477
4.0827952
3.9146588
3.7501485
3.5898084
3.4339778
3.2829093
5.6104186
5.5130476
5.3951063
5.2659305
5.1314608
4.9931858
4.8512027
4.7058357
4.5577462
4.4076958
4.2564598
4.1048369
3.9536521
3.8037259
3.655821
3.5105851
3.3685022
3.2298784
3.0949578
5.1033921
5.0202357
4.9201175
4.8108882
4.6968735
4.5790476
4.4574762
4.3324675
4.2046023
4.0745426
3.9429698
3.8105991
3.6781802
3.5464612
3.4161322
3.2877702
3.1617936
3.0384551
2.9179581
4.6528697
4.5821402
4.4973811
4.4050101
4.3080742
4.2072118
4.1025551
3.9944841
3.8835763
3.7704425
3.6556898
3.5399484
3.4238815
3.3081518
3.193363
3.0800029
2.9684056
2.8587638
2.7512459
4.239836
4.1814227
4.1112189
4.0341875
3.9524414
3.8664999
3.77667
3.6834793
3.5875554
3.4894833
3.3897971
3.2890301
3.1877412
3.0864897
2.9857787
2.8860023
2.7874175
2.6901703
2.5944096
3.8578048
3.8108739
3.7540357
3.690858
3.622791
3.5503693
3.4740851
3.394591
3.3125384
3.2284611
3.1427944
3.0559477
2.9683517
2.8804481
2.7926387
2.7052378
2.6184505
2.5324086
2.4472762
3.5147314
3.4757004
3.4288679
3.3767621
3.3202094
3.2596361
3.1955366
3.1285517
3.0592651
2.9880997
2.9153528
2.841283
2.7661773
2.6903579
2.6141404
2.5377893
2.4614978
2.385423
2.3097759
3.2173172
3.1831176
3.1427568
3.0986238
3.0510728
3.0002522
2.9464158
2.8900706
2.8316975
2.7715994
2.7099362
2.6468213
2.5824073
2.5169136
2.4505945
2.3836953
2.3164282
2.2489989
2.181674
2.9659656
2.9362325
2.9008964
2.8622611
2.8209789
2.7772299
2.7310088
2.6826304
2.6324843
2.5807925
2.5276252
2.4729964
2.4169631
2.3596709
2.3013334
2.2421909
2.1824793
2.1224439
2.0623825
2.7508221
2.7243282
2.6956121
2.6624748
2.6259446
2.5869539
2.5458266
2.5028553
2.4583536
2.4124953
2.3653309
2.3168538
2.2670864
2.2161334
2.1641768
2.1114418
2.0581647
2.0045943
1.9510131
2.55189
2.5297167
2.5061378
2.4788909
2.4486395
2.4146354
2.3780793
2.3396594
2.2997339
2.2585024
2.2160925
2.1725766
2.1280099
2.0824857
2.0361523
1.9891987
1.9418286
1.8942556
1.8467072
2.3431131
2.3338676
2.3164663
2.2946431
2.2708513
2.2436007
2.2135295
2.1810629
2.146624
2.1105972
2.0733077
2.0350004
1.995815
1.9558531
1.9152261
1.8740727
1.8325455
1.7908064
1.7490193
2.1564558
2.1451273
2.1346547
2.1194649
2.0997951
2.0766907
2.0520179
2.0257397
1.9975208
1.9675384
1.9361568
1.9037303
1.870456
1.8364325
1.8017282
1.766426
1.7306266
1.6944472
1.6580086
2.0180314
1.9987239
1.9817798
1.9662021
1.9521326
1.9324333
1.9099817
1.8863551
1.8619827
1.8367425
1.8105663
1.7835525
1.7557618
1.7272093
1.6978944
1.6678353
1.6370816
1.6057179
1.5738456
1.8870581
1.8751312
1.8591457
1.8434849
1.8275788
1.8097064
1.7918211
1.7713184
1.7488409
1.7259658
1.702819
1.6793507
1.6553897
1.630769
1.6053937
1.5792182
1.5522465
1.524539
1.4961861
1.7613933
1.7513935
1.7435879
1.7335998
1.7187817
1.7058332
1.690173
1.6720688
1.6535345
1.6334312
1.6120327
1.5903518
1.5684136
1.5460027
1.5229683
1.4992323
1.4747775
1.4496494
1.4239224
1.6501744
1.6409382
1.6319949
1.6231641
1.6133813
1.6066522
1.5960111
1.5810231
1.5650208
1.5473799
1.5290093
1.5094005
1.4889978
1.468082
1.4466494
1.4246775
1.4021693
1.3791678
1.3557212
1.5499542
1.5420214
1.5328438
1.5225775
1.5131593
1.5022528
1.4946149
1.4876493
1.4750129
1.4598784
1.4441712
1.4278044
1.4103663
1.3918847
1.3726373
1.352838
1.3325928
1.3119695
1.2909983
1.4593254
1.4527548
1.4456231
1.4357333
1.426657
1.4150732
1.4037309
1.3941826
1.3862347
1.3760865
1.3616744
1.3470758
1.3323633
1.3169835
1.3007995
1.2839234
1.2665057
1.2486504
1.2303972
1.3770926
1.371554
1.3658037
1.3590578
1.3502304
1.3420359
1.3316602
1.320145
1.3091329
1.3002253
1.2902884
1.2769078
1.2630511
1.2493194
1.2354414
1.2211221
1.2062836
1.1909336
1.1751024
1.301994
1.2971053
1.2920819
1.2861684
1.2794579
1.27169
1.2636448
1.2558682
1.2462773
1.2346164
1.2268012
1.2170572
1.2049335
1.1921471
1.1793617
1.1664386
1.1531812
1.1394473
1.125247
1.2335885
1.2292605
1.2248339
1.2196496
1.2136931
1.2070167
1.2002559
1.1919587
1.1853727
1.176768
1.166562
1.1600715
1.1512246
1.1402844
1.1286912
1.1168228
1.1046586
1.0920152
1.07894
1.1711344
1.1672652
1.1633146
1.1586666
1.1533887
1.1475301
1.141072
1.1342543
1.1259702
1.1195144
1.1107621
1.1021346
1.0962293
1.0887399
1.0787485
1.0680033
1.0569628
1.0455258
1.1140635
1.110564
1.1069826
1.1027397
1.0979137
1.0925704
1.0867315
1.0802682
1.0732786
1.0650146
1.0585698
1.049767
1.0417259
1.036137
1.0295965
1.0203355
1.0102207
0.99990176
1.0619173
1.0587572
1.0555213
1.0516671
1.0472807
1.0424187
1.037087
1.0312906
1.0249556
1.0181857
1.0101667
1.0038079
0.99566752
0.98786919
0.9814403
0.97542324
0.96737656
0.95817689
1.014211
1.0113637
1.0084551
1.0049851
1.0010529
0.99672027
0.99200161
0.98689547
0.98141857
0.97552107
0.96932206
0.9619982
0.95620655
0.94867547
0.94096716
0.9345954
0.92826639
0.92139291
0.97048498
0.96792042
0.96530588
0.9621815
0.95865639
0.95479658
0.95062407
0.94615322
0.94139763
0.93638236
0.93105491
0.92550113
0.91903134
0.91354227
0.90717575
0.90110014
0.8949231
0.88843717
0.93032199
0.92800755
0.92565152
0.92283127
0.9196605
0.91620328
0.91247953
0.90850155
0.90428632
0.89984887
0.89520379
0.89025234
0.88487172
0.8792764
0.87419072
0.86942224
0.86470215
0.85939614
0.89335489
0.89126025
0.88912874
0.88657271
0.88370774
0.88059413
0.87724728
0.87367381
0.86988192
0.86588154
0.86167652
0.85725341
0.85249565
0.84730492
0.84274915
0.83711861
0.83366728
0.83010149
0.85927046
0.85736817
0.85543177
0.8531058
0.85050627
0.84769014
0.84467033
0.84145153
0.83803941
0.83443813
0.8306485
0.82665963
0.82243704
0.81784268
0.81268414
0.80786719
0.80258105
0.7977519
0.82779748
0.82606611
0.8243026
0.82218219
0.81982062
0.81727194
0.81454752
0.81165173
0.80859107
0.80537274
0.80200349
0.79848996
0.79482225
0.7908929
0.78620071
0.78159094
0.77609116
0.7707904
0.79868924
0.79710648
0.79549166
0.7935483
0.7913906
0.78906936
0.78659428
0.78396912
0.78120041
0.77829603
0.77526481
0.77211759
0.76886533
0.76548777
0.7618964
0.75763374
0.75362659
0.74890663
0.77173782
0.7702868
0.76880267
0.76701528
0.76503633
0.76291275
0.76065155
0.75825408
0.75572397
0.75306518
0.75028073
0.74737263
0.74434063
0.74117715
0.73784888
0.73436357
0.73063631
0.72682441
0.74675051
0.74541699
0.74404893
0.74240069
0.74058116
0.73863392
0.73656417
0.73437214
0.73206048
0.72963229
0.7270897
0.72443336
0.72166161
0.71876855
0.7157421
0.71254747
0.70915409
0.7057958
0.72355545
0.72232851
0.72106543
0.71954334
0.71786804
0.71607998
0.7141829
0.71217619
0.7100619
0.70784278
0.70552102
0.70309789
0.70057336
0.69794524
0.69520715
0.69234723
0.68934906
0.68616772
0.7019953
0.70086578
0.69969861
0.69829178
0.69674776
0.69510414
0.69336342
0.69152434
0.68958832
0.68755751
0.68543343
0.68321664
0.68090633
0.67849997
0.67599331
0.67338152
0.67066265
0.66783612
0.6819308
0.68089131
0.67981287
0.67851262
0.67708962
0.67557894
0.67398228
0.67229819
0.67052801
0.66867399
0.66673804
0.66472146
0.66262474
0.66044725
0.65818713
0.65584217
0.65341183
0.65089408
0.66323687
0.66228062
0.66128424
0.66008233
0.65877044
0.65738129
0.65591597
0.65437291
0.65275342
0.65105978
0.64929412
0.64745823
0.64555348
0.64358077
0.64154069
0.63943445
0.6372652
0.63503359
0.64580203
0.64492293
0.64400259
0.64289152
0.64168171
0.64040368
0.63905799
0.63764295
0.63615974
0.63461047
0.63299706
0.63132102
0.6295834
0.62778457
0.62592436
0.62400271
0.62202071
0.61997619
0.62952474
0.62871725
0.62786746
0.62684047
0.62572465
0.62454848
0.62331208
0.62201372
0.62065446
0.6192363
0.61776102
0.61623004
0.61464429
0.61300411
0.6113093
0.60955962
0.60775535
0.60589274
0.61431129
0.61357042
0.6127863
0.61183737
0.61080839
0.60972591
0.6085897
0.60739799
0.60615175
0.60485282
0.60350284
0.60210306
0.60065428
0.59915673
0.59761022
0.5960146
0.59437028
0.59267391
0.60007451
0.59939579
0.59867298
0.5977968
0.59684834
0.59585237
0.59480836
0.59371455
0.59257181
0.59138184
0.59014613
0.58886577
0.58754139
0.58617314
0.58476069
0.58330377
0.5818024
0.58025273
0.58673406
0.58611349
0.58544821
0.58464013
0.58376672
0.58285105
0.58189239
0.580889
0.57984168
0.57875203
0.57762139
0.57645074
0.57524059
0.57399097
0.57270152
0.57137187
0.57000185
0.56858764
0.57421685
0.57365085
0.5730397
0.57229558
0.57149233
0.57065145
0.56977206
0.56885248
0.56789349
0.56689659
0.56586304
0.56479376
0.56368921
0.56254944
0.5613742
0.56016325
0.55891654
0.55763064
0.562458
0.56194331
0.56138323
0.56069934
0.55996187
0.55919087
0.55838536
0.55754376
0.55666683
0.555756
0.55481245
0.55383702
0.55283015
0.5517919
0.55072206
0.54962047
0.54848711
0.54731892
0.55140047
0.550934
0.55042209
0.54979489
0.54911911
0.54841343
0.54767683
0.54690785
0.54610723
0.54527631
0.54441622
0.54352774
0.54261127
0.54166689
0.54069446
0.53969386
0.53866509
0.53760531
0.54099464
0.54057344
0.54010693
0.53953309
0.53891518
0.53827062
0.5375984
0.53689715
0.5361676
0.53541099
0.53462838
0.53382044
0.53298754
0.53212976
0.53124695
0.53033901
0.52940591
0.52844506
0.53119638
0.53081754
0.53039373
0.52987004
0.52930636
0.52871898
0.52810689
0.52746883
0.52680549
0.52611803
0.52540738
0.52467416
0.5239187
0.52314103
0.52234103
0.52151858
0.52067357
0.51980359
0.52196553
0.52162622
0.52124251
0.5207659
0.52025304
0.51971913
0.51916321
0.5185841
0.51798243
0.51735924
0.51671537
0.51605132
0.51536738
0.51466356
0.51393972
0.5131957
0.51243131
0.51164431
0.51326428
0.51296181
0.51261573
0.51218332
0.51171807
0.51123421
0.51073079
0.5102067
0.5096625
0.50909912
0.50851727
0.5079174
0.50729973
0.50666427
0.50601086
0.50533928
0.50464926
0.50393872
0.50505711
0.50478895
0.50447818
0.50408725
0.50366663
0.50322959
0.5027752
0.50230241
0.5018117
0.50130388
0.50077955
0.50023909
0.49968266
0.49911028
0.49852178
0.49791689
0.49729526
0.49665499
0.49731181
0.49707567
0.49679803
0.49644603
0.49606722
0.49567396
0.49526536
0.49484039
0.49439946
0.49394325
0.49347229
0.49298688
0.49248718
0.49197316
0.49144467
0.49090141
0.49034296
0.48976757
0.49000138
0.48979514
0.48954853
0.48923296
0.48889323
0.48854084
0.48817488
0.48779436
0.48739962
0.48699125
0.4865697
0.48613522
0.48568792
0.4852278
0.4847547
0.48426832
0.48376817
0.48325272
0.48310556
0.48292726
0.48270958
0.482428
0.48212467
0.48181027
0.48148389
0.48114457
0.4807926
0.48042849
0.48005264
0.47966523
0.47926638
0.47885605
0.4784341
0.47800025
0.47755399
0.47709398
0.47661105
0.47645873
0.47626787
0.47601776
0.47574812
0.47546885
0.47517902
0.47487771
0.47456517
0.47424187
0.47390813
0.47356411
0.47320989
0.47284545
0.47247064
0.4720852
0.47168867
0.47127986
0.47050984
0.47038152
0.47021531
0.46999414
0.46975548
0.46950848
0.46925221
0.4689858
0.46870946
0.46842362
0.46812855
0.4678244
0.46751121
0.46718894
0.46685748
0.46651656
0.46616577
0.4658041
0.46479587
0.46468949
0.46454572
0.46435097
0.46414059
0.46392304
0.46369741
0.46346285
0.46321956
0.46296793
0.46270821
0.4624405
0.46216484
0.46188117
0.46158937
0.46128921
0.46098031
0.46066182
0.45946133
0.45937475
0.45925126
0.45908049
0.45889578
0.45870498
0.45850717
0.45830154
0.45808827
0.45786774
0.45764015
0.4574056
0.4571641
0.45691557
0.45665988
0.45639683
0.45612606
0.45584689
0.454494
0.4544251
0.45431986
0.45417076
0.45400928
0.45384268
0.45367002
0.45349055
0.45330445
0.45311204
0.45291353
0.45270898
0.4524984
0.45228169
0.45205871
0.45182925
0.45159298
0.45134937
0.44987706
0.44982383
0.44973493
0.44960539
0.44946488
0.44932012
0.44917016
0.44901429
0.44885267
0.44868561
0.4485133
0.44833579
0.44815306
0.44796503
0.44777152
0.44757231
0.44736705
0.44715536
0.44559056
0.44555113
0.44547685
0.44536495
0.44524336
0.44511827
0.44498874
0.4448541
0.4447145
0.44457023
0.44442146
0.44426823
0.44411052
0.44394823
0.44378119
0.44360911
0.44343159
0.44324829
0.44161355
0.44158621
0.44152497
0.44142897
0.44132441
0.44121701
0.44110584
0.44099027
0.44087043
0.4407466
0.44061892
0.44048744
0.44035212
0.44021286
0.44006948
0.43992167
0.43976889
0.43792546
0.43790867
0.43785904
0.43777732
0.43768809
0.43759657
0.43750187
0.43740338
0.43730124
0.4371957
0.43708688
0.43697483
0.43685949
0.43674078
0.43661849
0.43649236
0.43636187
0.43450677
0.43449911
0.43445979
0.4343909
0.43431541
0.43423812
0.43415816
0.43407495
0.43398862
0.4338994
0.4338074
0.43371265
0.43361511
0.43351466
0.43341114
0.43330426
0.43319355
0.43133912
0.43133931
0.43130912
0.43125171
0.43118853
0.43112396
0.43105716
0.43098758
0.43091534
0.43084065
0.43076361
0.43068424
0.43060249
0.43051825
0.43043135
0.43034152
0.43024833
0.42840527
0.42841217
0.42839003
0.42834288
0.42829069
0.42823746
0.42818237
0.42812492
0.42806521
0.42800342
0.42793965
0.4278739
0.42780613
0.42773623
0.42766402
0.42758926
0.42751152
0.4256891
0.42570164
0.42568657
0.42564858
0.42560618
0.42556303
0.42551834
0.42547164
0.42542303
0.42537267
0.42532063
0.42526693
0.42521151
0.42515425
0.42509499
0.42503349
0.42496937
0.42317545
0.4231927
0.42318383
0.42315396
0.42312025
0.42308603
0.42305055
0.42301337
0.42297456
0.42293429
0.42289261
0.42284952
0.42280496
0.42275882
0.42271095
0.42266111
0.42260894
0.42085015
0.42087128
0.4208678
0.42084513
0.42081911
0.42079278
0.42076543
0.42073663
0.42070646
0.42067507
0.42064249
0.42060872
0.42057369
0.42053731
0.42049942
0.42045978
0.42041808
0.41869994
0.41872423
0.41872542
0.41870908
0.41868985
0.41867046
0.41865024
0.41862881
0.41860622
0.41858261
0.418558
0.41853238
0.4185057
0.41847784
0.41844866
0.41841794
0.41838538
0.41671246
0.41673926
0.41674444
0.41673366
0.41672037
0.41670706
0.41669309
0.41667809
0.41666213
0.4166453
0.41662764
0.41660913
0.41658971
0.41656927
0.41654767
0.41652471
0.41650011
0.41487611
0.41490486
0.41491343
0.4149075
0.4148994
0.41489137
0.41488283
0.41487343
0.41486321
0.41485228
0.41484065
0.4148283
0.41481517
0.41480116
0.41478612
0.41476988
0.41475216
0.41318011
0.41321029
0.41322171
0.41321996
0.41321635
0.4132129
0.41320904
0.41320447
0.41319922
0.41319337
0.41318693
0.41317989
0.41317217
0.41316369
0.4131543
0.41314385
0.41313208
0.41161436
0.41164552
0.41165927
0.41166111
0.41166136
0.41166182
0.41166197
0.41166153
0.41166053
0.41165902
0.41165703
0.41165452
0.41165143
0.41164768
0.41164313
0.41163763
0.41163096
0.41016939
0.41020112
0.41021675
0.41022163
0.41022515
0.41022893
0.41023248
0.41023554
0.41023813
0.41024031
0.41024208
0.41024341
0.41024425
0.4102445
0.41024406
0.41024279
0.41024047
0.40883634
0.40886827
0.40888537
0.40889278
0.40889904
0.40890559
0.40891199
0.40891797
0.40892358
0.40892884
0.40893377
0.40893833
0.40894246
0.4089461
0.40894913
0.40895143
0.40895282
0.4076069
0.4076387
0.40765688
0.40766638
0.4076749
0.40768374
0.40769247
0.40770087
0.40770897
0.40771679
0.40772434
0.40773158
0.40773846
0.40774492
0.40775087
0.40775619
0.40776072
0.40647326
0.40650465
0.4065236
0.40653477
0.40654512
0.4065558
0.40656643
0.4065768
0.40658693
0.40659684
0.40660654
0.40661599
0.40662516
0.40663397
0.40664236
0.40665023
0.40665744
0.4054282
0.40545893
0.40547836
0.40549084
0.40550264
0.40551479
0.40552693
0.40553887
0.40555063
0.40556224
0.4055737
0.40558497
0.40559602
0.40560679
0.40561723
0.40562727
0.40563678
0.40446509
0.40449498
0.40451463
0.40452811
0.40454104
0.40455432
0.40456764
0.40458083
0.40459389
0.40460687
0.40461975
0.40463251
0.40464512
0.40465754
0.40466973
0.40468162
0.40469313
0.40357802
0.40360691
0.40362659
0.4036408
0.40365458
0.40366873
0.40368295
0.40369711
0.40371121
0.40372528
0.40373933
0.40375332
0.40376724
0.40378105
0.40379473
0.40380824
0.40382152
0.40276188
0.40278966
0.40280922
0.40282395
0.40283836
0.40285315
0.40286806
0.40288297
0.40289789
0.40291284
0.40292784
0.40294286
0.40295789
0.4029729
0.40298787
0.4030028
0.40301765
0.40201245
0.40203907
0.40205837
0.40207347
0.40208833
0.40210358
0.40211901
0.40213449
0.40215006
0.40216573
0.40218151
0.40219739
0.40221336
0.40222941
0.40224551
0.40226168
0.40227793
0.40132635
0.40135178
0.40137076
0.40138608
0.40140126
0.40141684
0.40143264
0.40144857
0.40146464
0.40148089
0.40149732
0.40151393
0.4015307
0.40154763
0.40156471
0.40158193
0.40159936
0.40070087
0.40072512
0.40074373
0.40075919
0.40077458
0.4007904
0.40080647
0.40082273
0.40083919
0.4008559
0.40087285
0.40089005
0.40090749
0.40092517
0.40094306
0.40096115
0.4001337
0.40015682
0.40017505
0.40019058
0.4002061
0.40022207
0.40023833
0.40025482
0.40027158
0.40028863
0.40030598
0.40032365
0.40034162
0.40035989
0.40037846
0.40039731
0.39962252
0.39964458
0.39966243
0.39967798
0.39969359
0.39970964
0.39972601
0.39974267
0.39975962
0.39977691
0.39979455
0.39981255
0.3998309
0.39984961
0.39986867
0.39988808
0.3991646
0.3991857
0.39920319
0.39921873
0.39923438
0.39925046
0.3992669
0.39928364
0.39930072
0.39931816
0.39933597
0.39935417
0.39937276
0.39939174
0.39941111
0.39943088
0.39875658
0.3987768
0.39879395
0.39880947
0.39882512
0.39884121
0.39885766
0.39887443
0.39889156
0.39890905
0.39892695
0.39894524
0.39896394
0.39898305
0.39900257
0.39902252
0.39839439
0.39841381
0.39843065
0.39844611
0.39846174
0.3984778
0.39849422
0.39851098
0.39852809
0.39854558
0.39856347
0.39858177
0.39860048
0.3986196
0.39863916
0.39865914
0.39807351
0.3980922
0.39810872
0.39812411
0.39813969
0.39815567
0.39817202
0.39818871
0.39820576
0.39822319
0.39824102
0.39825925
0.39827789
0.39829696
0.39831645
0.39833638
0.39778952
0.39780751
0.39782369
0.39783895
0.39785441
0.39787028
0.3978865
0.39790307
0.39792
0.39793731
0.39795502
0.39797314
0.39799166
0.3980106
0.39802997
0.39804978
0.39753865
0.39755591
0.3975717
0.39758676
0.39760203
0.3976177
0.39763373
0.3976501
0.39766684
0.39768397
0.3977015
0.39771943
0.39773777
0.39775653
0.39777572
0.39779533
0.39731826
0.39733476
0.39735007
0.39736481
0.39737979
0.39739516
0.39741089
0.39742698
0.39744343
0.39746028
0.39747753
0.39749519
0.39751326
0.39753176
0.39755068
0.39757003
0.39712694
0.3971426
0.39715734
0.39717165
0.39718622
0.39720117
0.39721648
0.39723216
0.39724821
0.39726466
0.39728151
0.39729878
0.39731647
0.39733458
0.39735312
0.39737209
0.39696415
0.39697893
0.39699299
0.39700676
0.39702079
0.3970352
0.39704998
0.39706512
0.39708064
0.39709656
0.39711289
0.39712963
0.39714679
0.39716438
0.39718239
0.39720083
0.39682957
0.39684343
0.39685675
0.39686989
0.3968833
0.39689708
0.39691122
0.39692572
0.39694061
0.39695589
0.39697157
0.39698766
0.39700416
0.39702109
0.39703844
0.3970562
0.39672243
0.39673537
0.39674793
0.39676038
0.39677312
0.39678621
0.39679966
0.39681346
0.39682764
0.39684221
0.39685716
0.39687252
0.39688828
0.39690445
0.39692103
0.39693803
0.39664118
0.39665322
0.39666502
0.39667679
0.39668883
0.39670123
0.39671396
0.39672705
0.3967405
0.39675433
0.39676853
0.39678312
0.3967981
0.39681348
0.39682927
0.39684545
0.39658362
0.39659481
0.39660588
0.39661697
0.39662833
0.39664004
0.39665208
0.39666446
0.39667719
0.39669028
0.39670375
0.39671759
0.39673181
0.39674641
0.39676141
0.3967768
0.39654751
0.39655789
0.39656823
0.39657864
0.39658934
0.39660036
0.39661172
0.3966234
0.39663544
0.39664783
0.39666057
0.39667369
0.39668718
0.39670104
0.39671528
0.39653099
0.39654056
0.39655018
0.39655992
0.39656993
0.39658027
0.39659094
0.39660193
0.39661327
0.39662496
0.39663701
0.39664941
0.39666218
0.39667531
0.39668882
0.39653276
0.39654153
0.39655042
0.39655946
0.39656878
0.39657841
0.39658837
0.39659866
0.39660929
0.39662027
0.39663159
0.39664326
0.39665528
0.39666767
0.39668041
0.39655176
0.39655974
0.39656787
0.39657619
0.39658479
0.39659371
0.39660294
0.3966125
0.39662239
0.39663262
0.39664318
0.39665408
0.39666531
0.39667688
0.3966888
0.3965867
0.39659388
0.39660125
0.39660883
0.39661669
0.39662486
0.39663335
0.39664215
0.39665128
0.39666073
0.39667049
0.39668056
0.39669094
0.39670162
0.39671261
0.3966358
0.39664217
0.39664876
0.39665557
0.39666267
0.39667006
0.39667777
0.39668579
0.39669411
0.39670273
0.39671163
0.39672082
0.39673027
0.39673999
0.39674998
0.39669704
0.39670256
0.39670832
0.39671432
0.3967206
0.39672718
0.39673406
0.39674123
0.39674869
0.39675642
0.39676441
0.39677264
0.3967811
0.39678979
0.39679871
0.39676878
0.39677341
0.39677829
0.39678342
0.39678882
0.39679452
0.39680051
0.39680677
0.3968133
0.39682006
0.39682706
0.39683427
0.39684169
0.39684932
0.39685714
0.39685041
0.39685411
0.39685807
0.39686229
0.39686679
0.39687158
0.39687663
0.39688195
0.3968875
0.39689327
0.39689925
0.39690543
0.3969118
0.39691836
0.3969251
0.3969422
0.39694499
0.39694806
0.39695141
0.39695504
0.39695895
0.39696311
0.3969675
0.3969721
0.3969769
0.39698189
0.39698705
0.3969924
0.39699792
0.39700361
0.39704388
0.39704587
0.39704818
0.39705079
0.39705368
0.39705682
0.39706018
0.39706373
0.39706744
0.39707132
0.39707535
0.39707952
0.39708383
0.39708828
0.39709286
0.39715422
0.39715562
0.39715737
0.39715941
0.39716169
0.39716414
0.39716672
0.3971694
0.39717216
0.39717501
0.39717794
0.39718094
0.39718401
0.39718714
0.39727757
0.39727865
0.39727986
0.39728119
0.39728261
0.39728409
0.39728561
0.39728714
0.39728871
0.39729032
0.39729199
0.3972937
0.39729546
0.39729727
121.69583
173.84457
208.12496
215.39553
200.24523
171.08462
138.02706
108.25847
84.677077
66.972123
54.018765
44.675902
37.957265
33.065727
29.390996
26.4928
24.074476
21.954208
20.029194
158.35816
201.61381
217.8298
207.14488
179.12222
144.81976
113.24819
88.016768
69.121813
55.428569
45.677288
38.769281
33.814156
30.134526
27.252783
24.848885
22.732259
20.796565
191.8417
217.75524
213.60606
186.74781
151.09277
117.49921
90.622069
70.674419
56.382449
46.347849
39.349946
34.406829
30.780395
27.954093
25.591119
23.494112
21.559049
19.738121
216.22246
220.13445
196.6018
159.49731
123.2151
93.940213
72.472576
57.371289
46.977597
39.881382
34.966474
31.412489
28.658061
26.350918
24.28293
22.353868
20.520162
226.35841
206.69076
168.74629
129.44872
97.486264
74.309466
58.32311
47.561436
40.379149
35.512342
32.049493
29.38369
27.138167
25.106065
23.186443
21.340271
19.562364
216.62159
178.93981
136.59674
101.51623
76.315416
59.287811
48.101852
40.834692
36.036106
32.686577
30.125005
27.958094
25.967921
24.059952
22.203961
20.398338
190.31098
144.90763
106.16299
78.525534
60.2654
48.598773
41.247454
36.538639
33.325346
30.886113
28.805976
26.86877
24.979272
23.112905
21.280617
19.501729
154.75022
111.63482
81.019017
61.270926
49.043529
41.605963
37.010767
33.961594
31.666975
29.687968
27.808525
25.939711
24.068436
22.210424
20.39151
118.16008
83.875633
62.316848
49.42744
41.899434
37.445933
34.592179
32.46719
30.607902
28.79649
26.957631
25.080671
23.195983
21.334951
19.532946
87.207145
63.419239
49.740279
42.113116
37.83152
35.209246
33.282834
31.562736
29.833693
28.028881
26.156278
24.248078
22.348108
20.491307
64.653287
49.983575
42.230083
38.151213
35.800894
34.107857
32.550922
30.919648
29.159004
27.291048
25.362334
23.425104
21.515445
19.675183
50.169992
42.227205
38.379955
36.349043
34.930439
33.566812
32.052539
30.348971
28.492369
26.545204
24.566675
22.608874
20.705088
18.890249
42.081917
38.481505
36.824517
35.732593
34.600543
33.2289
31.598932
29.764385
27.803069
25.787662
23.775751
21.811007
19.927935
38.40191
37.182536
36.48325
35.634931
34.44079
32.906939
31.108253
29.140276
27.090375
25.026776
22.997667
21.039564
19.183163
37.364455
37.137983
36.641003
35.67315
34.266801
32.52374
30.560515
28.480828
26.366086
24.273615
22.244945
20.305107
18.480493
37.632038
37.574898
36.899961
35.666145
34.00755
32.065032
29.964804
27.801218
25.644029
23.539567
21.524224
19.611219
38.365673
38.078285
37.083145
35.551633
33.654147
31.545307
29.339849
27.117062
24.935073
22.829827
20.833255
18.951438
39.134247
38.476857
37.137005
35.323472
33.225089
30.986898
28.704691
26.444084
24.25011
22.150928
20.173559
18.332891
39.771772
38.725272
37.058892
35.003479
32.746546
30.411261
28.076416
25.795901
23.599999
21.521047
19.560293
17.757223
40.242568
38.828184
36.871777
34.621305
32.241061
29.834032
27.464699
25.17476
22.986391
20.939528
19.005638
40.552513
38.801793
36.608553
34.200931
31.725072
29.267768
26.877261
24.582366
22.408407
20.377887
18.491532
40.723288
38.687959
36.292332
33.757584
31.209987
28.718131
26.316677
24.025073
21.87178
19.847923
18.002295
40.788885
38.498903
35.936403
33.303702
30.702452
28.185596
25.776417
23.494362
21.364231
19.369334
17.54707
40.756932
38.249327
35.552907
32.848732
30.213922
27.686367
25.275231
23.007217
20.88283
18.932578
17.145653
40.645195
37.949357
35.143904
32.38917
29.743398
27.217952
24.81607
22.569937
20.461196
18.5351
16.795201
40.464073
37.619707
34.733555
31.93758
29.28663
26.757547
24.364734
22.130249
20.064549
18.163092
16.446367
40.205539
37.256853
34.342901
31.534967
28.874427
26.344035
23.97178
21.733092
19.700132
17.823638
16.121667
39.916342
36.844071
33.910114
31.122321
28.467104
25.948839
23.606203
21.406201
19.392177
17.551804
15.868126
39.645785
36.491039
33.506242
30.707061
28.059479
25.559756
23.209979
21.049004
19.065564
17.276608
15.643171
39.239959
36.107188
33.147202
30.374466
27.740343
25.263397
22.925377
20.74868
18.768377
17.00262
15.413055
38.850981
35.654702
32.715308
29.981279
27.384557
24.942511
22.652217
20.531535
18.562176
16.805462
15.215604
13.787584
38.565562
35.316084
32.39185
29.626566
27.028656
24.580819
22.317482
20.258893
18.364788
16.623082
15.053781
13.636985
38.068711
34.887308
32.047839
29.365429
26.793568
24.349624
22.083857
20.010286
18.140575
16.434999
14.896169
13.503168
37.63073
34.428342
31.560804
28.966209
26.472712
24.105155
21.869296
19.811122
17.9485
16.2725
14.755122
13.384559
37.220241
34.048418
31.19709
28.560866
26.094302
23.774834
21.609925
19.60854
17.786563
16.131316
14.634432
13.281639
12.061812
36.611611
33.528439
30.839529
28.257659
25.814999
23.512629
21.381191
19.422803
17.631266
16.00298
14.52691
13.192185
11.987342
36.098918
33.011649
30.399112
27.929753
25.548156
23.288996
21.184076
19.251881
17.490114
15.887047
14.432385
13.115093
11.924634
35.65582
32.583152
30.018243
27.59426
25.264487
23.054253
20.992605
19.095908
17.363161
15.784716
14.350134
13.049668
11.873026
10.810789
35.14294
32.125653
29.640259
27.277918
24.999232
22.834542
20.812832
18.951034
17.247946
15.693818
14.279169
12.99504
11.831923
10.780503
34.635304
31.667345
29.263353
26.963712
24.737571
22.62073
20.641462
18.816304
17.143601
15.614045
14.218971
12.950709
11.800754
10.759885
34.107763
31.201438
28.88409
26.652993
24.482722
22.415441
20.479322
18.691255
17.04918
15.544439
14.169077
12.916279
11.77909
10.74859
9.8155585
33.567113
30.733647
28.504703
26.344228
24.231572
22.215796
20.324423
18.574702
16.963783
15.4843
14.129146
12.891615
11.766623
10.746264
9.8206472
33.008318
30.261317
28.121787