/*--------------------------------*- C++ -*----------------------------------*\
| =========                 |                                                 |
| \\      /  F ield         | OpenFOAM: The Open Source CFD Toolbox           |
|  \\    /   O peration     | Version:  2406                                  |
|   \\  /    A nd           | Website:  www.openfoam.com                      |
|    \\/     M anipulation  |                                                 |
\*---------------------------------------------------------------------------*/
FoamFile
{
    version     2.0;
    format      ascii;
    arch        "LSB;label=32;scalar=64";
    class       volScalarField;
    location    "0.018";
    object      omega;
}
// * * * * * * * * * * * * * * * * * * * * * * * * * * * * * * * * * * * * * //

dimensions      [0 0 -1 0 0 0 0];

internalField   nonuniform List<scalar> 
23203
(
17969.687
16599.063
15213.022
13961.549
12757.403
11647.732
10608.097
9652.4497
8799.2417
8014.5536
7304.644
6664.99
6081.6244
5556.5723
5082.1447
4650.2562
4260.433
3907.6346
3588.0263
15931.178
14755.33
13603.178
12499.843
11478.171
10530.986
9641.4559
8817.786
8074.4869
7384.9992
6758.542
6188.2365
5664.9113
5194.0661
4765.3453
4372.093
4016.8773
3693.8292
3399.6116
13876.382
12939.874
12044.771
11158.841
10295.602
9482.4426
8737.1492
8043.4876
7384.1583
6780.9786
6234.3784
5726.9178
5260.4925
4841.3642
4455.2583
4098.8429
3777.1901
3482.6841
3213.1465
12192.439
11437.675
10690.601
9942.1728
9221.462
8540.287
7898.5444
7295.2211
6734.8465
6216.9418
5735.7042
5283.8926
4871.4762
4499.7279
4152.514
3832.0961
3542.5484
3274.7354
3029.1689
10709.32
10087.968
9476.2902
8863.2674
8263.2821
7687.9571
7142.3309
6627.5949
6142.3103
5686.4436
5263.5978
4874.6526
4514.9947
4178.2172
3865.4786
3580.8384
3320.0266
3076.0662
2853.3238
9434.7265
8929.4634
8423.704
7911.5064
7407.255
6920.5765
6454.9454
6011.8394
5593.107
5200.2122
4832.5335
4488.5707
4167.8211
3871.0495
3597.2151
3343.4339
3106.7191
2885.423
2684.5657
8320.9484
7905.8627
7487.1159
7061.3927
6639.3519
6228.4702
5832.3626
5453.2167
5092.5665
4751.5215
4430.8744
4130.5238
3849.7118
3587.473
3342.4965
3113.986
2902.3719
2707.0353
2525.3247
7351.1737
7011.3843
6664.5084
6309.1783
5954.5426
5606.9596
5269.6413
4944.805
4634.3885
4339.6423
4060.977
3798.3408
3551.4593
3319.9122
3103.2576
2900.783
2711.3746
2534.2392
2369.9778
6502.4636
6223.1334
5935.1633
5638.8326
5341.4286
5047.9477
4761.2854
4483.6745
4216.9182
3962.2523
3720.3409
3491.3455
3275.1141
3071.3141
2879.4842
2699.206
2530.112
2371.7445
2224.404
5760.3263
5530.6755
5291.7495
5044.5659
4794.9182
4546.9318
4303.2475
4066.0004
3836.9541
3617.2926
3407.6136
3208.129
3018.8436
2839.6412
2670.3101
2510.5243
2359.8949
2218.1181
2085.6984
5110.5803
4921.2949
4722.7514
4516.4704
4306.9952
4097.6347
3890.7214
3688.2399
3491.7988
3302.4908
3120.9416
2947.4453
2782.0815
2624.7979
2475.4715
2333.9404
2199.9974
2073.4515
1954.8658
4541.7185
4385.4507
4220.389
4048.2098
3872.3819
3695.5716
3519.8613
3347.0781
3178.6939
3015.7083
2858.6992
2707.9637
2563.6417
2425.7807
2294.3515
2169.2572
2050.3603
1937.5617
1831.4758
4043.2135
3913.9035
3776.5042
3632.682
3485.0516
3335.7567
3186.627
3039.3022
2895.088
2754.8731
2619.2004
2488.3861
2362.6055
2241.9402
2126.41
2015.9924
1910.6258
1810.2697
1715.5582
3606.084
3498.9396
3384.4966
3264.3108
3140.3127
3014.2234
2887.6461
2762.0415
2638.5657
2518.0097
2400.8698
2287.4493
2177.936
2072.445
1971.0364
1873.7233
1780.4802
1691.3111
1606.8632
3222.8509
3133.8146
3038.3372
2937.7919
2833.5656
2727.0386
2619.6033
2512.5424
2406.8636
2303.2603
2202.1805
2103.9142
2008.6531
1916.5227
1827.6002
1741.9258
1659.5068
1580.3772
1505.1752
2886.6903
2812.4673
2732.7008
2648.5123
2560.8462
2470.801
2379.5796
2288.3021
2197.8463
2108.821
2021.6275
1936.5324
1853.7179
1773.3113
1695.3999
1620.0375
1547.2469
1477.0801
1410.1637
2591.3237
2529.4371
2462.7795
2392.2368
2318.4313
2242.2508
2164.7406
2086.8795
2009.4308
1932.9249
1857.7155
1784.0414
1712.0704
1641.9236
1573.6889
1507.4265
1443.1697
1380.9825
1321.4725
2331.802
2280.1372
2224.3714
2165.1727
2102.9346
2038.3878
1972.4462
1905.9659
1839.6093
1773.8354
1708.9498
1645.1603
1582.615
1521.4244
1461.6732
1403.4223
1346.7095
1291.6042
1238.6937
2103.5604
2060.2553
2013.5156
1963.7489
1911.1645
1856.3746
1800.1884
1743.3591
1686.4602
1629.8824
1573.8829
1518.6366
1464.2706
1410.8831
1358.5526
1307.3383
1257.2788
1208.4468
1161.4083
1902.2278
1865.8883
1826.7122
1784.8307
1740.3134
1693.6985
1645.726
1597.0688
1548.2221
1499.5118
1451.1475
1403.2714
1355.9899
1309.3889
1263.5394
1218.4967
1174.2979
1131.0165
1089.1978
1724.5231
1694.0142
1661.113
1625.7483
1587.9146
1548.1123
1507.033
1465.2805
1423.2769
1381.2856
1339.47
1297.9418
1256.7881
1216.0825
1175.888
1136.2545
1097.2164
1058.8462
1021.669
1567.5504
1541.7871
1513.9754
1483.9318
1451.6219
1417.5088
1382.2317
1346.3223
1310.1341
1273.8755
1237.6711
1201.6064
1165.7514
1130.168
1094.9106
1060.0224
1025.533
991.51333
958.46819
1427.55
1405.793
1382.2576
1356.7277
1329.141
1299.8943
1269.5718
1238.6447
1207.4166
1176.0598
1144.6722
1113.3199
1082.0578
1050.9363
1020.0002
989.28481
958.81426
928.6566
899.29652
1301.9009
1283.7003
1263.7079
1242.0206
1218.5478
1193.5466
1167.5164
1140.8774
1113.909
1086.7677
1059.5377
1032.2713
1005.0103
977.7931
950.65441
923.62113
896.7116
869.99109
843.92351
1188.1032
1173.788
1156.9851
1138.4586
1118.4388
1097.1084
1074.8243
1051.9176
1028.6478
1005.1643
981.54804
957.84381
934.08339
910.29463
886.50236
862.7255
838.97721
815.32045
792.19737
1086.4325
1074.494
1060.9305
1045.4539
1028.2467
1009.9317
990.80465
971.10559
951.04254
930.73346
910.25423
889.64816
868.94199
848.15576
827.3058
806.40369
785.45797
764.52949
744.03704
997.59172
986.41893
974.9298
961.9923
947.48178
931.80007
915.2409
898.16614
880.79078
863.18078
845.38631
827.4419
809.37127
791.18958
772.90634
754.52617
736.05274
717.54421
699.39442
917.865
908.0688
898.15537
887.13996
874.87475
861.57545
847.36424
832.5863
817.45338
802.11474
786.60258
770.93168
755.12096
739.18281
723.12319
706.94144
690.6364
674.26306
658.19048
845.53915
837.47615
828.72285
819.39804
809.1266
797.89962
785.91767
773.30179
760.23231
746.88675
733.34759
719.64277
705.79069
691.79762
677.66902
663.40251
648.99396
634.49703
620.25966
781.64212
774.69354
767.01481
758.63423
749.6906
740.18579
730.16768
719.48306
708.27463
696.73024
684.95836
672.9976
660.87748
648.59594
636.15985
623.56847
610.81812
597.9663
585.34703
725.25215
718.92654
712.38666
704.93676
696.80202
688.32487
679.52681
670.7113
661.2227
651.24962
640.99398
630.54523
619.93967
609.15873
598.20507
587.07687
575.7717
564.35779
553.16352
674.43778
669.05735
663.15921
656.77418
649.74833
642.22621
634.41544
626.51027
618.51498
610.12309
601.19667
591.99543
582.64291
573.13587
563.45925
553.59715
543.54334
533.38272
523.44498
628.72758
624.02729
618.94548
613.27771
607.07806
600.54259
593.7296
586.66511
579.54062
572.44669
564.85861
556.86504
548.60465
540.17128
531.58408
522.81224
513.84292
504.78196
495.96482
587.45172
583.34415
578.9167
573.97223
568.48621
562.66578
556.57398
550.40839
544.20155
537.81104
531.36283
524.59005
517.34392
509.87464
502.23186
494.40198
486.38484
478.30914
470.51909
550.08451
546.47768
542.60206
538.28649
533.53463
528.35601
523.01977
517.37039
511.81224
506.06624
500.38466
494.59528
488.40336
481.86325
475.06092
468.07444
460.91637
453.74518
446.93296
516.18289
513.00269
509.58767
505.78539
501.61751
497.14758
492.33527
487.4875
482.31246
477.18853
472.02838
466.7999
461.55172
455.91319
449.928
443.68295
437.28973
430.94141
425.09347
485.37352
482.56137
479.54426
476.18354
472.50681
468.57168
464.42974
460.04716
455.56753
450.91937
446.26555
441.47054
436.76314
431.90501
426.74575
421.21371
415.48089
409.82287
457.31665
454.8224
452.14878
449.16987
445.91467
442.43947
438.78241
434.9624
430.94589
426.85108
422.63088
418.38693
414.02556
409.70105
405.21978
400.40929
395.32765
390.23256
431.7106
429.49239
427.11617
424.46772
421.57648
418.4931
415.25578
411.87893
408.36267
404.68989
400.91069
397.02618
393.11183
389.14468
385.12202
380.93721
376.49132
371.97725
408.28934
406.31202
404.19518
401.83544
399.26187
396.51956
393.64132
390.64342
387.52629
384.27529
380.86367
377.35567
373.78518
370.12907
366.44556
362.72629
358.84754
354.90103
386.83055
385.06349
383.17374
381.06835
378.77577
376.33579
373.7763
371.11033
368.34065
365.46021
362.43954
359.30103
356.02607
352.69842
349.2737
345.80542
342.33385
338.92885
367.15811
365.57263
363.88052
361.99841
359.95347
357.77986
355.50032
353.125
350.65536
348.08771
345.41637
342.61856
339.69847
336.66959
333.53526
330.31847
327.09654
323.9903
349.1321
347.70195
346.18088
344.49439
342.66794
340.72992
338.69771
336.57811
334.37108
332.07329
329.67999
327.18592
324.57647
321.82376
318.98062
316.04089
313.05155
310.18596
332.62178
331.3243
329.9507
328.4348
326.80028
325.07014
323.25674
321.3637
319.38969
317.33141
315.18528
312.94659
310.60522
308.14048
305.54977
302.85983
300.11028
297.49624
317.48321
316.30101
315.05573
313.68899
312.22291
310.6759
309.05573
307.36266
305.59352
303.74441
301.81197
299.79314
297.68308
295.47246
293.13978
290.69625
288.20545
285.74934
303.55404
302.47519
301.34385
300.10891
298.7914
297.4061
295.95708
294.44161
292.85443
291.19062
289.44676
287.62043
285.70855
283.70558
281.60359
279.38934
277.09531
274.86427
290.67029
289.68682
288.65893
287.54225
286.35703
285.11543
283.81884
282.46225
281.03866
279.54203
277.96863
276.31665
274.58425
272.76751
270.85949
268.85513
266.76606
264.72495
278.69275
277.79796
276.86488
275.85517
274.78846
273.67494
272.51416
271.2996
270.02295
268.67704
267.2573
265.76151
264.18796
262.53297
260.79066
258.95998
257.06776
255.20066
267.52535
266.71179
265.86495
264.95177
263.99114
262.99166
261.95159
260.86356
259.71851
258.50843
257.22771
255.87317
254.44245
252.93189
251.33643
249.65703
247.92276
246.23444
257.10988
256.36921
255.59983
254.77307
253.9069
253.00842
252.07498
251.09883
250.07074
248.98227
247.82706
246.60086
245.30041
243.92186
242.46113
240.92099
239.33173
237.78883
247.40048
246.72503
246.02505
245.27555
244.49331
243.68404
242.8444
241.9666
241.04161
240.06108
239.0183
237.90817
236.7264
235.46855
234.13089
232.71728
231.25835
229.84604
238.3389
237.72288
237.08593
236.40613
235.69896
234.96888
234.21202
233.42075
232.58648
231.70127
230.75845
229.75248
228.67822
227.53048
226.30544
225.00762
223.66789
222.37425
229.84693
229.28658
228.70804
228.0921
227.45295
226.79399
226.11099
225.39656
224.64259
223.84166
222.98742
222.07426
221.09662
220.04875
218.9266
217.73499
216.5047
215.32005
221.83525
221.32824
220.80481
220.24823
219.67153
219.07727
218.46103
217.81566
217.13351
216.40762
215.63208
214.80151
213.91036
212.95281
211.92484
210.83145
209.70301
208.62009
214.2197
213.76428
213.29332
212.79238
212.27355
211.73876
211.18353
210.60096
209.98381
209.32554
208.62062
207.86405
207.05064
206.1749
205.23319
204.23084
203.19758
202.21004
206.9365
206.53065
206.10946
205.66067
205.19554
204.71559
204.21638
203.69135
203.13361
202.53699
201.89633
201.207
200.4643
199.6634
198.80143
197.88433
196.9413
196.0449
199.95108
199.59185
199.21721
198.8168
198.40121
197.97164
197.52383
197.05157
196.54838
196.00842
195.4268
194.79924
194.12154
193.3896
192.60155
191.76419
190.90623
190.09607
193.256
192.93955
192.60762
192.25152
191.88116
191.49756
191.09669
190.67275
190.21964
189.73186
189.20476
188.63435
188.01685
187.34891
186.62967
185.86683
185.08867
184.35935
186.85902
186.581
186.28762
185.97158
185.64216
185.30021
184.94195
184.56202
184.15475
183.71492
183.23812
182.72059
182.15894
181.55046
180.89522
180.20174
179.49773
178.84308
180.76731
180.52345
180.26453
179.98444
179.69181
179.38734
179.06754
178.72748
178.3619
177.96592
177.53533
177.0666
176.55666
176.00341
175.40768
174.77861
174.14313
173.55693
174.97397
174.76063
174.53255
174.28467
174.02498
173.75408
173.46879
173.1646
172.83672
172.48055
172.09214
171.66817
171.20592
170.70376
170.16319
169.59374
169.02141
168.49782
169.452
169.26652
169.0664
168.84754
168.61738
168.37649
168.122
167.84992
167.55587
167.23563
166.88551
166.50242
166.08397
165.62897
165.13947
164.62519
164.11109
163.6449
164.16188
164.00236
163.82792
163.63538
163.4317
163.21753
162.9904
162.74684
162.48297
162.19497
161.87944
161.53357
161.1553
160.74388
160.30176
159.83872
159.3785
158.96502
159.07257
158.93713
158.78614
158.61726
158.43712
158.24649
158.04341
157.82496
157.58781
157.32856
157.04419
156.73221
156.3909
156.01991
155.62201
155.20681
154.79654
154.43114
154.18666
154.07258
153.94223
153.79399
153.63419
153.46387
153.28152
153.08483
152.87104
152.63727
152.38087
152.09975
151.79255
151.45926
151.10284
150.73245
150.36838
150.0461
149.55465
149.45801
149.34465
149.21344
149.07049
148.91705
148.75209
148.57387
148.38021
148.16875
147.93732
147.68422
147.40846
147.11034
146.7928
146.46421
146.14237
145.85769
145.26886
145.18477
145.08411
144.96596
144.8362
144.6962
144.54535
144.38243
144.20579
144.01362
143.80422
143.57633
143.32931
143.06366
142.78214
142.49198
142.20799
141.955
141.43705
141.36036
141.26801
141.15902
141.03894
140.90919
140.76944
140.61886
140.45633
140.28053
140.09026
139.88463
139.66333
139.42698
139.178
138.92223
138.67127
138.44418
138.14336
138.06966
137.98184
137.87869
137.76534
137.64312
137.51187
137.37106
137.21997
137.05777
136.88365
136.69711
136.49808
136.28722
136.06653
135.84045
135.61741
135.41115
135.41153
135.33802
135.25219
135.15259
135.04387
134.92719
134.80242
134.66926
134.52732
134.37612
134.21523
134.04444
133.86386
133.67416
133.47692
133.27535
133.07525
132.88584
133.18955
133.11532
133.03044
132.9333
132.82808
132.71573
132.5961
132.46904
132.3344
132.19198
132.04164
131.88338
131.71743
131.54446
131.36575
131.18362
131.00189
130.82641
131.36762
131.29319
131.20937
131.11453
131.01245
130.90388
130.78868
130.66676
130.53814
130.40284
130.26089
130.11243
129.9578
129.79766
129.63314
129.46605
129.29892
129.13519
129.82043
129.74684
129.66464
129.57235
129.47343
129.3685
129.25742
129.14015
129.01682
128.88756
128.75252
128.61192
128.46617
128.31594
128.16235
128.00697
127.85171
127.69812
128.44733
128.37533
128.29518
128.20565
128.10995
128.00864
127.90155
127.78871
127.67028
127.54645
127.41743
127.28349
127.14508
127.00291
126.85811
126.7123
126.56722
126.42297
127.18815
127.11802
127.04004
126.95327
126.86073
126.76293
126.65972
126.55114
126.43736
126.3186
126.19508
126.06712
125.93517
125.79996
125.66268
125.52511
125.38937
125.25525
126.01451
125.9462
125.87032
125.78619
125.69666
125.6022
125.5027
125.39818
125.28883
125.17484
125.05648
124.93405
124.80802
124.67912
124.54853
124.41816
124.291
124.91334
124.84677
124.77286
124.69123
124.60455
124.51327
124.41728
124.31662
124.21145
124.10199
123.98847
123.87123
123.75072
123.62765
123.50314
123.37894
123.2577
123.87647
123.81155
123.73956
123.66032
123.57636
123.48811
123.39548
123.29848
123.19729
123.09211
122.98317
122.87082
122.7555
122.6379
122.51909
122.40069
122.28509
122.89713
122.83382
122.76371
122.68681
122.6055
122.52017
122.43074
122.33726
122.23986
122.13875
122.03417
121.92645
121.81604
121.70361
121.59017
121.47723
121.36698
121.96928
121.90758
121.83934
121.76474
121.686
121.60351
121.51719
121.42707
121.33331
121.2361
121.13568
121.03237
120.92663
120.81911
120.71076
120.60299
120.49782
121.08742
121.02732
120.96094
120.88861
120.8124
120.73268
120.64937
120.56251
120.47225
120.37878
120.28235
120.18327
120.08199
119.97915
119.87564
119.77281
119.67249
120.24641
120.18791
120.1234
120.05332
119.97959
119.90257
119.82219
119.73849
119.65162
119.56176
119.46916
119.37415
119.27714
119.17877
119.0799
118.98178
118.88612
119.44137
119.38447
119.32182
119.25396
119.18268
119.1083
119.03077
118.95015
118.86656
118.78019
118.6913
118.60019
118.5073
118.41323
118.31881
118.22523
118.13404
118.66754
118.61223
118.55144
118.48578
118.4169
118.34512
118.27038
118.19274
118.11233
118.02935
117.94404
117.85672
117.7678
117.67788
117.58775
117.49854
117.41169
117.92015
117.86643
117.8075
117.74401
117.67751
117.60826
117.53625
117.46152
117.38421
117.30453
117.2227
117.13904
117.05397
116.96807
116.8821
116.79713
116.71448
117.19434
117.14223
117.08514
117.02382
116.95965
116.8929
116.82355
116.75167
116.6774
116.60092
116.52248
116.44239
116.36108
116.27909
116.19717
116.11633
116.0378
116.4851
116.4346
116.37937
116.32018
116.25832
116.19404
116.12732
116.05824
115.98693
115.9136
115.83848
115.7619
115.68426
115.6061
115.52815
115.45136
115.37688
115.78718
115.73831
115.68495
115.62791
115.56835
115.50651
115.4424
115.37608
115.30771
115.23747
115.16563
115.0925
115.01849
114.94412
114.8701
114.79731
114.72683
115.09513
115.04794
114.99648
114.94159
114.88434
114.82495
114.76344
114.69987
114.63442
114.56727
114.4987
114.42901
114.35861
114.28803
114.21791
114.14913
114.08263
114.40332
114.35787
114.30837
114.25568
114.20077
114.14386
114.08496
114.02417
113.96165
113.89762
113.83232
113.7661
113.69935
113.63258
113.56642
113.50165
113.43916
113.70605
113.66243
113.61497
113.56455
113.51205
113.45767
113.40145
113.34349
113.28396
113.22308
113.16113
113.09843
113.0354
112.97253
112.9104
112.84973
112.79129
112.99771
112.95605
112.91075
112.8627
112.8127
112.76095
112.7075
112.65246
112.596
112.53837
112.47986
112.4208
112.36161
112.30277
112.2448
112.18834
112.13401
112.27301
112.23347
112.19048
112.14493
112.09757
112.04858
111.99802
111.94602
111.89277
111.83852
111.78357
111.72829
111.67311
111.61848
111.56487
111.51278
111.46264
111.52728
111.49005
111.44954
111.40666
111.3621
111.31603
111.26852
111.21972
111.16984
111.11913
111.06792
111.0166
110.96562
110.91543
110.86642
110.8189
110.77303
110.75683
110.7221
110.68427
110.64426
110.60269
110.55972
110.51546
110.47005
110.42371
110.37672
110.32944
110.28228
110.23572
110.19022
110.14611
110.10344
110.0619
109.9593
109.92731
109.89237
109.85543
109.81705
109.77739
109.73657
109.69474
109.65215
109.60908
109.56592
109.52311
109.48119
109.44066
109.40179
109.36435
109.32723
109.13412
109.10507
109.07325
109.03958
109.00459
108.96845
108.93127
108.89323
108.85458
108.81562
108.77675
108.73848
108.70137
108.66601
108.63275
108.60109
108.5687
108.28283
108.25692
108.2284
108.1982
108.1668
108.13435
108.101
108.06693
108.03239
107.9977
107.96328
107.92965
107.89745
107.86738
107.83999
107.81489
107.78854
107.40939
107.38679
107.36172
107.33514
107.30746
107.27887
107.24949
107.21953
107.18924
107.15894
107.12906
107.10013
107.07282
107.04793
107.02629
107.0084
106.52036
106.50114
106.47963
106.45676
106.43291
106.40825
106.38293
106.35716
106.33119
106.30534
106.28003
106.25579
106.23327
106.21325
106.1965
106.18342
105.62481
105.609
105.59106
105.57191
105.5519
105.5312
105.50995
105.48837
105.4667
105.44527
105.42448
105.40485
105.387
105.37169
105.35963
105.35117
104.73413
104.72165
104.70722
104.69173
104.67548
104.65865
104.64139
104.62389
104.60642
104.58928
104.57286
104.55765
104.54425
104.53335
104.52565
104.5214
103.8615
103.85218
103.8411
103.82908
103.81643
103.80329
103.78983
103.77623
103.76274
103.74965
103.73733
103.72624
103.71694
103.71007
103.70625
103.70569
103.02115
103.01472
103.00673
102.99794
102.9886
102.97889
102.96893
102.95893
102.9491
102.93972
102.93114
102.92376
102.91811
102.91476
102.91426
102.91679
102.22743
102.22355
102.2183
102.21238
102.20601
102.19935
102.19254
102.18574
102.17916
102.17307
102.16776
102.16361
102.16107
102.16066
102.16285
102.16777
101.49372
101.49198
101.48907
101.48561
101.48179
101.47776
101.47363
101.46958
101.46579
101.46248
101.45992
101.45844
101.45843
101.46033
101.46455
101.47117
100.83138
100.83136
100.83034
100.82889
100.82716
100.82528
100.82337
100.82157
100.82004
100.81898
100.81862
100.81924
100.82116
100.82474
100.83032
100.83795
100.24882
100.25006
100.2505
100.25059
100.25048
100.25028
100.25009
100.25003
100.25025
100.25091
100.2522
100.25434
100.2576
100.26227
100.26861
100.27664
99.750749
99.752844
99.754308
99.75551
99.756576
99.757594
99.758653
99.759856
99.761324
99.763192
99.765615
99.76877
99.772857
99.77809
99.784662
99.792584
99.337882
99.340474
99.342586
99.34451
99.346349
99.348175
99.350062
99.352096
99.354375
99.357008
99.360117
99.363837
99.36831
99.373686
99.38009
99.387516
99.007014
99.009813
99.012262
99.014585
99.016863
99.019154
99.021517
99.024022
99.026746
99.029777
99.033208
99.037137
99.041662
99.046874
99.052835
99.059515
98.751521
98.754312
98.756864
98.759338
98.761799
98.764289
98.766856
98.769554
98.772443
98.775591
98.779069
98.78295
98.787296
98.792154
98.797525
98.803342
98.562215
98.564859
98.567352
98.569806
98.572269
98.574773
98.577352
98.580048
98.582906
98.585977
98.589316
98.592978
98.597009
98.601425
98.606183
98.611139
98.428405
98.430828
98.433168
98.435498
98.437852
98.440252
98.442725
98.445298
98.448006
98.450884
98.453975
98.457323
98.460968
98.464929
98.469153
98.473403
98.339011
98.341187
98.34333
98.345485
98.347674
98.349913
98.352218
98.354609
98.357109
98.359742
98.362537
98.36553
98.36876
98.372269
98.376085
98.28354
98.285478
98.287418
98.289384
98.291391
98.293447
98.295566
98.297758
98.300038
98.302421
98.304923
98.307566
98.310375
98.313378
98.316599
98.252818
98.254545
98.256295
98.25808
98.259909
98.261788
98.263725
98.265727
98.267801
98.269956
98.272201
98.274548
98.277013
98.279616
98.282381
98.239389
98.240938
98.242519
98.24414
98.245806
98.247522
98.249292
98.25112
98.253011
98.254967
98.256994
98.259098
98.261287
98.263579
98.265995
98.237631
98.239011
98.240436
98.241908
98.243426
98.244993
98.246611
98.248283
98.25001
98.251793
98.253634
98.255535
98.257502
98.259549
98.261695
98.243485
98.244724
98.246012
98.247346
98.248727
98.250155
98.251633
98.25316
98.254737
98.256362
98.258036
98.25976
98.261538
98.263381
98.265307
98.254278
98.255383
98.256538
98.25774
98.258988
98.260281
98.26162
98.263005
98.264435
98.265907
98.267421
98.268977
98.270579
98.272236
98.273966
98.268315
98.269284
98.270303
98.271367
98.272476
98.273628
98.274823
98.276058
98.277333
98.278645
98.279993
98.281376
98.282798
98.284268
98.285802
98.2846
98.285425
98.286296
98.287212
98.28817
98.289167
98.290203
98.291274
98.292378
98.293512
98.294676
98.295869
98.297094
98.298361
98.299681
98.302601
98.303266
98.303976
98.304727
98.305517
98.306341
98.307197
98.308081
98.30899
98.309922
98.310876
98.311852
98.312856
98.313892
98.314973
98.322199
98.322694
98.323229
98.3238
98.324402
98.325032
98.325684
98.326356
98.327045
98.32775
98.32847
98.329207
98.329966
98.330752
98.331571
98.343513
98.343839
98.344199
98.344585
98.344993
98.345416
98.345851
98.346296
98.34675
98.347213
98.347685
98.348169
98.348671
98.349199
98.367816
98.367995
98.368193
98.368404
98.368622
98.368847
98.369076
98.369308
98.369545
98.369786
98.370032
98.370286
98.370549
98.37083
96357.644
98219.875
96592.375
91566.886
84196.244
75386.679
66177.184
57481.475
49854.996
43350.288
37832.388
33143.097
29141.238
25709.872
22751.565
20185.851
17946.392
15979.959
14242.728
104060.14
103119.46
98657.533
90976.317
81446.262
71275.667
61651.699
53221.498
46069.935
40053.874
34982.583
30687.527
27028.384
23891.012
21181.955
18825.692
16763.007
14946.404
109391.27
105680.14
98134.585
87860.25
76684.126
66030.854
56715.767
48876.151
42333.174
36861.377
32260.41
28364.734
25041.259
22183.474
19706.288
17543.787
15644.426
13968.224
113456.42
106282.32
95605.733
83291.348
71339.128
60845.634
52093.901
44882.758
38922.487
33962.246
29797.424
26266.727
23245.289
20636.556
18365.615
16376.403
14624.609
115803.34
104640.94
91065.722
77515.807
65587.761
55734.21
47729.175
41200.902
35827.444
31355.9
27591.448
24387.034
21631.314
19240.589
17152.287
15316.855
13696.956
115352.66
100353.31
84898.461
71179.614
59946.395
50962.173
43746.43
37885.609
33060.377
29030.752
25620.675
22701.45
20177.944
17979.501
16052.079
14353.744
111758.96
93877.97
77873.21
64878.012
54667.896
46615.404
40175.602
34938.584
30605.349
26962.773
23859.888
21187.663
18866.513
16837.066
15052.866
13478.493
105180.81
86055.537
70752.905
58973.381
49881.349
42742.449
37020.495
32336.548
28429.111
25118.948
22280.327
19822.585
17679.941
15800.636
14144.886
96430.571
77891.316
64051.761
53642.221
45646.161
39346.056
34253.186
30041.743
26496.126
23469.397
20858.09
18587.681
16602.233
14857.149
13318.31
86847.907
70135.709
58025.828
48963.083
41964.683
36389.521
31825.688
28010.457
24770.143
21985.685
19572.394
17467.629
15621.976
13997.99
77636.884
63205.391
52792.094
44939.339
38789.393
33813.678
29686.847
26202.291
23220.878
20645.971
18406.872
16449.693
14730.231
13215.987
69482.194
57264.321
48350.251
41507.316
36044.909
31555.013
27788.466
24582.034
21823.353
19432.153
17347.553
15521.383
13916.325
12503.408
62609.277
52305.296
44613.966
38570.06
33652.728
29557.495
26090.992
23122.065
20558.197
18330.018
16383.798
14675.85
13174.428
56972.251
48199.111
41452.637
36027.809
31545.587
27775.532
24563.214
21800.882
19409.168
17326.603
15504.656
13905.045
12498.736
52394.527
44774.536
38740.506
33798.751
29671.09
26174.629
23182.365
20602.424
18363.962
16411.958
14701.813
13200.043
11882.722
48645.486
41868.716
36376.435
31822.591
27990.511
24729.302
21930.983
19513.55
17412.739
15578.336
13970.164
12556.773
45510.72
39354.674
34288.701
30055.55
26475.719
23421.058
20795.26
18523.24
16546.392
14818.177
13302.832
11971.271
42826.153
37145.369
32427.946
28466.002
25106.445
22235.075
19763.148
17621.609
15756.215
14124.029
12690.903
11436.312
40484.707
35184.252
30758.216
27031.342
23866.901
21158.751
18824.553
16800.3
15035.543
13490.212
12131.639
10949.955
38417.652
33430.168
29254.165
25734.964
22743.942
20181.411
17970.584
16051.74
14377.502
12910.832
11621.308
36576.344
31853.119
27897.636
24562.544
21725.917
19293.84
17193.899
15369.742
13776.737
12380.801
11153.509
34926.611
30434.261
26672.895
23501.126
20802.548
18487.607
16487.653
14748.983
13230.346
11896.909
10726.393
33446.39
29154.992
25565.564
22539.182
19963.659
17753.282
15843.276
14182.25
12732.083
11455.673
10337.821
32113.173
27999.863
24563.881
21667.106
19201.093
17084.33
15254.369
13662.665
12273.071
11051.675
9979.8162
30908.665
26954.217
23656.264
20876.771
18509.857
16478.547
14721.201
13192.597
11854.215
10682.878
9651.9041
29815.094
26001.933
22827.513
20154.605
17880.011
15927.25
14237.042
12768.844
11479.584
10352.373
9357.9286
28821.288
25138.784
22073.904
19494.298
17302.189
15420.163
13791.093
12375.052
11135.681
10046.482
9089.4659
27906.512
24353.324
21397.916
18905.161
16785.309
14966.025
13392.167
12021.367
10822.173
9764.9115
8838.7715
27069.645
23627.433
20770.37
18363.924
16317.179
14557.167
13038.093
11709.791
10545.611
9519.1318
8616.8357
26330.623
22989.769
20210.095
17869.922
15885.482
14181.084
12705.324
11417.017
10289.42
9295.2057
8418.9304
25641.765
22414.355
19720.867
17453.129
15516.245
13857.17
12414.103
11156.993
10056.15
9090.7586
8235.5995
7482.1652
25025.394
21885.182
19257.336
17055.201
15177.905
13562.44
12159.832
10933.235
9856.0025
8909.7496
8072.9283
7335.3096
24491.513
21426.787
18861.345
16696.914
14865.948
13288.84
11923.482
10729.716
9678.1764
8748.7408
7928.9975
7205.4742
23972.753
20988.943
18506.358
16400.946
14607.661
13058.872
11715.508
10543.697
9513.8623
8604.4661
7800.0013
7089.2037
23498.64
20579.565
18149.746
16100.678
14350.422
12840.729
11524.099
10373.696
9364.4256
8473.4221
7683.5638
6982.9452
6365.3929
23053.597
20196.053
17819.18
15817.678
14108.304
12634.495
11350.86
10224.968
9233.0779
8356.4074
7579.2236
6889.3745
6280.0867
22634.903
19837.157
17526.968
15572.379
13901.056
12455.545
11195.02
10088.74
9113.8733
8251.441
7486.0723
6805.8509
6203.8773
22260.874
19505.528
17250.396
15342.607
13707.508
12291.309
11054.288
9967.3523
9008.0861
8158.4878
7403.7307
6732.0271
6134.682
5606.8928
21894.638
19188.011
16990.515
15130.333
13532.493
12144.628
10929.563
9859.9661
8914.9115
8077.0123
7331.8809
6668.0042
6076.727
5553.5995
21546.629
18888.245
16749.613
14935.682
13373.438
12013.034
10819.174
9766.1887
8834.272
8006.9769
7270.4281
6613.3981
6027.1637
5507.408
21203.954
18597.951
16522.926
14757.744
13231.463
11897.794
10723.916
9686.2549
8766.3009
7948.5019
7219.5496
6568.4788
5986.343
5466.8442
5006.7507
20867.158
18319.784
16312.117
14596.889
13106.415
11798.881
10643.983
9620.6077
8711.5367
7902.1459
7179.781
6533.8181
5955.3969
5437.9424
4978.2337
20529.487
18051.734
16117.191
14454.237
12999.637
11717.687
10580.595
9570.3018
8670.9677
7868.8212
7151.9686
6510.1439
5934.6102
5418.4736
4956.7198
4546.0754
20188.481
17795.927
15940.367
14331.849
12912.717
11655.691
10535.116
9536.6259
8645.856
7849.7179
7137.2064
6498.4353
5924.9133
5409.7657
4947.6511
4535.6581
19841.728
17554.413
15783.661
14232.137
12847.702
11614.756
10509.19
9521.0237
8637.527
7846.0223
7136.5881
6499.6273
5927.0038
5411.9906
4948.7078
4532.8541
4161.3669
19490.553
17331.228
15649.013
14157.25
12806.444
11596.492
10504.166
9524.6549
8647.0561
7858.6167
7150.9562
6514.475
5941.4474
5425.6896
4960.8711
4542.5236
4168.2704
19141.088
17131.327
15536.54
14107.222
12789.377
11601.368
10520.357
9547.7419
8674.8656
7887.7327
7180.5651
6543.3446
5968.4636
5450.9221
4983.7542
4562.0544
4182.6155
3842.3636
18803.114
16959.369
15443.278
14077.16
12792.679
11626.395
10555.326
9587.9969
8719.5921
7932.1596
7224.213
6585.4416
6007.3832
5487.0626
5016.9316
4591.549
4208.1561
3863.9291
18477.933
16812.422
15360.727
14053.849
12804.606
11662.019
10601.888
9638.5568
8775.7259
7987.4147
7277.3874
6636.8117
6054.814
5531.0111
5057.5718
4627.9986
4240.2461
3889.9036
3574.3556
89697.995
93039.919
92665.964
88776.386
82389.471
74384.176
65401.046
56602.849
48945.292
42540.569
37184.269
32653.347
28783.014
25453.553
22572.006
20063.992
17867.665
15932.761
14220.264
86942.629
89748.717
89224.934
85544.134
79646.41
72247.651
63868.163
55422.884
47937.982
41689.352
36498.534
32123.099
28383.767
25158.311
22356.73