/*--------------------------------*- C++ -*----------------------------------*\
| =========                 |                                                 |
| \\      /  F ield         | OpenFOAM: The Open Source CFD Toolbox           |
|  \\    /   O peration     | Version:  2406                                  |
|   \\  /    A nd           | Website:  www.openfoam.com                      |
|    \\/     M anipulation  |                                                 |
\*---------------------------------------------------------------------------*/
FoamFile
{
    version     2.0;
    format      ascii;
    arch        "LSB;label=32;scalar=64";
    class       surfaceScalarField;
    location    "0.018";
    object      phi;
}
// * * * * * * * * * * * * * * * * * * * * * * * * * * * * * * * * * * * * * //

dimensions      [1 0 -1 0 0 0 0];

oriented        oriented;

internalField   nonuniform List<scalar> 
45979
(
0.0099963862
-0.011481349
0.011815806
-0.01033078
0.0096936615
-0.012000087
0.012302882
0.0093956705
-0.012414049
0.012712062
0.0090685692
-0.012815531
0.01314296
0.0087449106
-0.013230341
0.013554147
0.0084283444
-0.0136439
0.013960459
0.0081236904
-0.01406596
0.014370444
0.0078300602
-0.014460282
0.014753771
0.0075491223
-0.014847296
0.015128201
0.0072699693
-0.015232485
0.015511704
0.0070028378
-0.015630325
0.015897545
0.0067502515
-0.016012665
0.016265353
0.0065036827
-0.0163799
0.01662661
0.006265151
-0.016758102
0.016996745
0.0060377603
-0.01713881
0.017366238
0.0058201032
-0.017511295
0.017728976
0.0056119499
-0.017885325
0.018093497
0.0054135856
-0.018262803
0.018461163
-0.018639437
0.01882936
0.0097082738
-0.011186731
-0.010002851
0.0093612157
-0.011653112
0.0090569213
-0.01210948
0.0087806221
-0.012538806
0.0085010258
-0.012950736
0.0082124456
-0.013355471
0.0079308704
-0.01378465
0.0076803823
-0.014209983
0.0074284347
-0.01459542
0.007166533
-0.01497058
0.0069159394
-0.015379632
0.0066776806
-0.015774239
0.006446182
-0.016148246
0.0062223575
-0.016534135
0.0060074062
-0.016923847
0.0057996824
-0.01730357
0.0056003775
-0.017686001
0.0054105762
-0.018073004
-0.018457123
0.0096228541
-0.010954206
-0.0098554137
0.0093744495
-0.011404645
0.0091053501
-0.011840016
0.0088312914
-0.012264539
0.0085663093
-0.012685737
0.0083161669
-0.013105637
0.0080438773
-0.013512695
0.0077619709
-0.013928271
0.0075170325
-0.014350717
0.0072839606
-0.014737672
0.0070344768
-0.015129786
0.0067955477
-0.015534936
0.0065687712
-0.015921381
0.0063469599
-0.016312195
0.0061333016
-0.016710189
0.005925175
-0.017095473
0.0057246458
-0.017485447
0.0055336915
-0.017882044
-0.018273412
0.0094109657
-0.010722596
-0.0096425455
0.0091676288
-0.011161186
0.0089224602
-0.011594719
0.0086788518
-0.012020864
0.0084351918
-0.012442198
0.0081890245
-0.012859695
0.0079545598
-0.013278544
0.007717149
-0.013691008
0.0074637197
-0.014097391
0.0072261247
-0.014500236
0.0069989131
-0.014902044
0.0067768924
-0.01531229
0.0065691819
-0.015713709
0.0063599766
-0.016103118
0.0061527896
-0.016503002
0.0059530903
-0.01689582
0.0057592858
-0.01729157
0.0055731126
-0.017695845
-0.01809417
0.0092473479
-0.01052646
-0.0094434882
0.0090433429
-0.010957168
0.0088304992
-0.011381858
0.0086116842
-0.011802081
0.0083894605
-0.012220084
0.0081662343
-0.012636606
0.0079380055
-0.013050434
0.0077099837
-0.013463041
0.0074859113
-0.013873372
0.0072676934
-0.014281832
0.00705548
-0.014689432
0.0068346765
-0.01509133
0.0066130156
-0.015492135
0.0064039995
-0.015894076
0.0062083685
-0.016307351
0.0060252091
-0.016712747
0.005834045
-0.017100272
0.0056467364
-0.017508469
-0.017916655
0.0090536486
-0.010351231
-0.0092289213
0.008867989
-0.010771553
0.0086744209
-0.011188342
0.0084751281
-0.01160286
0.0082716994
-0.012016736
0.008065229
-0.012430202
0.0078578609
-0.012843108
0.0076493518
-0.013254533
0.0074409976
-0.013664958
0.0072330067
-0.014073693
0.007025366
-0.014481592
0.0068238054
-0.014889628
0.0066283631
-0.015296699
0.00643709
-0.015702795
0.0062345177
-0.016104853
0.0060404752
-0.016518834
0.0058655117
-0.016925107
0.0056867081
-0.017329456
-0.017742996
0.0088624511
-0.010200847
-0.0090129023
0.0087019492
-0.010611122
0.0085326697
-0.011019137
0.0083561279
-0.01142639
0.0081738775
-0.011834547
0.0079871972
-0.01224356
0.0077968766
-0.012652797
0.007604382
-0.013062015
0.007410535
-0.013471046
0.0072170759
-0.013880125
0.0070243292
-0.014288732
0.0068316174
-0.014696849
0.0066404178
-0.015105501
0.0064519097
-0.015514329
0.0062716689
-0.015924663
0.0060888731
-0.016336055
0.0059106139
-0.016746775
0.0057368427
-0.017155689
-0.01756599
0.0086621914
-0.01007081
-0.0087922996
0.0085213426
-0.010470348
0.0083713657
-0.010869233
0.0082138018
-0.011268893
0.008049846
-0.011670646
0.0078806161
-0.012074367
0.0077072839
-0.012479479
0.0075308446
-0.012885564
0.0073522693
-0.013292433
0.0071721318
-0.01369993
0.0069916226
-0.014108166
0.0068118856
-0.014517086
0.0066330908
-0.014926722
0.0064560233
-0.0153373
0.0062799651
-0.015748648
0.0061048866
-0.016160997
0.0059328037
-0.016574666
0.005767838
-0.016990738
-0.017408919
0.0084603913
-0.0099606621
-0.008570605
0.0083395882
-0.010349612
0.0082094406
-0.010739152
0.0080711338
-0.011130648
0.0079257324
-0.011525299
0.0077742502
-0.011922927
0.0076176694
-0.012322926
0.0074569604
-0.012724865
0.0072930624
-0.013128525
0.00712692
-0.013533763
0.0069592018
-0.013940422
0.0067906387
-0.014348514
0.0066219243
-0.014758024
0.0064535515
-0.015168962
0.0062864553
-0.015581587
0.0061212836
-0.01599585
0.0059582387
-0.016411648
0.0057963862
-0.01682893
-0.017248818
0.0082561737
-0.0098683362
-0.0083485571
0.0081530153
-0.010246511
0.0080403056
-0.010626498
0.0079191852
-0.011009582
0.0077905907
-0.011396755
0.0076554027
-0.011787784
0.0075145253
-0.012182085
0.0073688595
-0.012579223
0.0072192512
-0.012978926
0.0070665084
-0.013381017
0.0069114645
-0.013785371
0.0067548147
-0.014191865
0.0065972266
-0.014600452
0.0064393399
-0.015011106
0.0062814794
-0.015423763
0.0061241064
-0.015838516
0.0059679974
-0.016255582
0.0058141252
-0.016675124
-0.017097092
0.0080523209
-0.0097923485
-0.0081283555
0.0079656933
-0.01015993
0.0078695372
-0.010530387
0.0077648119
-0.010904901
0.00765231
-0.011284296
0.0075328019
-0.011668316
0.0074070906
-0.012056409
0.0072759909
-0.012448151
0.0071403148
-0.012843268
0.0070008338
-0.013241545
0.0068582535
-0.013642794
0.0067132619
-0.014046879
0.0065664816
-0.014453687
0.0064185164
-0.014863167
0.0062700255
-0.015275309
0.0061215536
-0.015690088
0.005973456
-0.01610754
0.0058260058
-0.016527745
-0.016950774
0.007850041
-0.0097309195
-0.0079115045
0.0077782228
-0.010088145
0.0076969761
-0.010449173
0.0076071375
-0.010815094
0.0075093958
-0.011186585
0.0074044204
-0.011563371
0.0072929181
-0.011944936
0.0071756176
-0.012330876
0.0070532368
-0.012720907
0.0069264777
-0.013114799
0.0067960254
-0.013512351
0.0066625311
-0.013913394
0.0065266211
-0.014317791
0.0063888664
-0.014725434
0.0062497846
-0.015136258
0.0061099109
-0.015550256
0.0059697631
-0.015967444
0.0058297896
-0.016387833
-0.016811416
0.0076512295
-0.0096825866
-0.007699583
0.0075928848
-0.010029819
0.007525339
-0.010381645
0.0074492807
-0.010739054
0.0073652762
-0.0111026
0.0072738936
-0.011472008
0.007175749
-0.011846811
0.0070714891
-0.012226635
0.0069617679
-0.012611203
0.0068472276
-0.013000272
0.0067284879
-0.013393622
0.0066061458
-0.013791061
0.0064807762
-0.014192432
0.0063529467
-0.014597621
0.0062232059
-0.015006541
0.0060920516
-0.015419134
0.0059599367
-0.01583537
0.0058272877
-0.016255232
-0.016678698
0.0074572049
-0.0096459627
-0.0074938365
0.0074109411
-0.0099835617
0.0073557262
-0.010326436
0.0072921333
-0.010675468
0.0072206363
-0.01103111
0.0071417221
-0.011393102
0.0070559267
-0.011761025
0.0069638167
-0.012134536
0.0068659667
-0.012513363
0.0067629491
-0.012897264
0.0066553309
-0.013286012
0.0065436716
-0.013679409
0.0064285166
-0.014077285
0.006310389
-0.014479504
0.0061897929
-0.014885962
0.0060672201
-0.015296585
0.0059431409
-0.01571132
0.005817994
-0.016130118
-0.016552924
0.007268941
-0.0096195687
-0.0072953326
0.0072333928
-0.0099480107
0.0071892353
-0.010282276
0.0071369164
-0.010623147
0.0070768104
-0.010971002
0.00700932
-0.011325613
0.006934902
-0.01168661
0.0068540488
-0.012053687
0.0067672685
-0.012426589
0.0066750745
-0.012805077
0.0065779798
-0.013188924
0.0064764927
-0.013577928
0.0063711156
-0.013971915
0.0062623439
-0.014370741
0.0061506604
-0.01477429
0.006036528
-0.015182468
0.0059203901
-0.015595202
0.0058026747
-0.016012424
-0.016434072
0.0070855916
-0.0096022583
-0.0071028926
0.0070596077
-0.0099220175
0.0070253664
-0.010248026
0.006983212
-0.010580984
0.0069334405
-0.010921225
0.0068763851
-0.011268553
0.0068124334
-0.011622656
0.0067420081
-0.011983263
0.0066655512
-0.012350135
0.0065835155
-0.012723046
0.0064963622
-0.013101777
0.0064045561
-0.013486129
0.0063085604
-0.013875927
0.0062088313
-0.014271021
0.0061058161
-0.014671286
0.0059999545
-0.015076619
0.0058916763
-0.015486937
0.0057813988
-0.015902161
-0.016322213
0.0069053952
-0.009593241
-0.0069144
0.0068881044
-0.0099047148
0.0068628744
-0.010222785
0.0068299994
-0.0105481
0.006789727
-0.010880945
0.006742332
-0.011221153
0.0066881348
-0.011568457
0.0066274904
-0.01192262
0.0065607759
-0.012283426
0.0064883868
-0.012650664
0.0064107323
-0.013024131
0.0063282288
-0.013403635
0.0062412951
-0.013789004
0.006150349
-0.014180087
0.0060558055
-0.014576754
0.0059580754
-0.0149789
0.0058575648
-0.015386437
0.0057546763
-0.015799281
-0.016217353
0.0067269738
-0.0095915161
-0.0067286853
0.006717465
-0.0098951945
0.0067004346
-0.010205745
0.0066761181
-0.010523775
0.0066447042
-0.010849525
0.0066064003
-0.011182847
0.0065614525
-0.011523512
0.0065101393
-0.011871313
0.0064527674
-0.012226063
0.0063896689
-0.012587579
0.0063211956
-0.012955673
0.0062477143
-0.01333017
0.0061695983
-0.013710905
0.0060872255
-0.014097729
0.0060009779
-0.014490521
0.0059112415
-0.014889176
0.0058184066
-0.015293612
0.0057228624
-0.015703744
-0.016119493
0.0065499911
-0.0095963423
-0.0065451606
0.0065476361
-0.0098928358
0.0065382553
-0.010196361
0.0065219838
-0.010507502
0.0064989431
-0.010826485
0.0064692767
-0.011153186
0.0064331565
-0.011487402
0.0063907836
-0.011828955
0.0063423908
-0.012177689
0.0062882434
-0.012533453
0.0062286346
-0.012896087
0.0061638777
-0.013265436
0.0060943024
-0.013641351
0.0060202514
-0.014023699
0.0059420792
-0.014412366
0.0058601527
-0.014807264
0.005774847
-0.015208317
0.0056865412
-0.015615446
-0.016028572
0.0063801578
-0.009606196
-0.0063703039
0.0063835322
-0.0098962116
0.0063805538
-0.010193386
0.0063712592
-0.010498214
0.0063556649
-0.010810902
0.0063338158
-0.011131353
0.0063057852
-0.011459393
0.0062716786
-0.011794875
0.0062316424
-0.012137683
0.0061858658
-0.012487708
0.0061345782
-0.012844831
0.0060780413
-0.013208929
0.0060165438
-0.013579881
0.0059503986
-0.013957577
0.0058799401
-0.014341927
0.0058055201
-0.01473286
0.0057275012
-0.015130311
0.0056462501
-0.015534204
-0.01594446
0.0062222285
-0.0096197325
-0.006208696
0.0062299969
-0.0099039863
0.0062321124
-0.010195513
0.0062285221
-0.010494641
0.0062191339
-0.010801538
0.006203892
-0.011116141
0.0061827771
-0.011438313
0.0061558128
-0.011767949
0.0061230704
-0.012104981
0.0060846737
-0.012449351
0.0060407958
-0.012800991
0.0059916544
-0.013159822
0.005937506
-0.013525763
0.0058786395
-0.013898736
0.0058153692
-0.014278678
0.0057480281
-0.014665535
0.0056769587
-0.015059254
0.0056025022
-0.015459758
-0.015866962
0.0060782197
-0.0096368664
-0.0060611365
0.0060898082
-0.0099156122
0.0060959275
-0.010201664
0.0060966881
-0.010495434
0.0060920528
-0.010796939
0.0060819198
-0.011106049
0.0060662171
-0.011422655
0.0060449256
-0.011746704
0.0060180827
-0.012078184
0.0059857779
-0.01241709
0.0059481512
-0.012763403
0.0059053907
-0.013117095
0.0058577262
-0.013478126
0.0058054191
-0.013846451
0.0057487557
-0.014222032
0.0056880345
-0.014604827
0.0056235574
-0.014994789
0.0055556206
-0.015391832
-0.015795866
0.0059474269
-0.0096557077
-0.0059286295
0.0059615035
-0.0099297516
0.0059701899
-0.010210412
0.0059738676
-0.010499162
0.0059725828
-0.010795701
0.0059661648
-0.011099678
0.0059545125
-0.01141105
0.0059375922
-0.011729831
0.0059154357
-0.012056073
0.0058881265
-0.012389821
0.0058557932
-0.012731105
0.0058186033
-0.013079934
0.0057767563
-0.013436301
0.0057304765
-0.013800187
0.0056800006
-0.014171567
0.0056255709
-0.014550407
0.0055674254
-0.014936652
0.005505795
-0.015330211
-0.015730988
0.0058139688
-0.0096751604
-0.0057944642
0.0058290475
-0.0099448194
0.005841885
-0.010223297
0.005850101
-0.01050743
0.0058527069
-0.010798356
0.0058499677
-0.011096986
0.0058420921
-0.011403221
0.0058292031
-0.011716985
0.0058114053
-0.012038314
0.0057888093
-0.012367259
0.0057615406
-0.012703863
0.0057297445
-0.013048159
0.0056935817
-0.013400153
0.0056532212
-0.013759837
0.0056088374
-0.014127191
0.0055606003
-0.014502175
0.005508674
-0.014884732
0.0054532176
-0.015274764
-0.015672178
0.005664367
-0.0097104781
-0.0056290519
0.0056896495
-0.0099700735
0.0057059504
-0.010239531
0.0057170938
-0.010518558
0.0057243356
-0.010805626
0.0057265528
-0.011099247
0.0057235126
-0.011400224
0.0057155157
-0.011709027
0.0057028227
-0.012025654
0.0056855982
-0.012350061
0.0056639645
-0.012682252
0.0056380312
-0.013022243
0.0056079076
-0.013370042
0.0055737068
-0.013725645
0.0055355393
-0.014089029
0.0054935126
-0.014460154
0.005447731
-0.014838956
0.0053983031
-0.015225346
-0.015619239
0.0054976909
-0.0097330766
-0.0054753288
0.0055292304
-0.010001794
0.0055566238
-0.010266942
0.0055760406
-0.01053798
0.0055890316
-0.01081862
0.0055967427
-0.011106975
0.0055995687
-0.011403078
0.0055976546
-0.011707142
0.0055911286
-0.012019152
0.0055801395
-0.012339092
0.0055647987
-0.012666928
0.0055451851
-0.013002645
0.0055213669
-0.013346238
0.005493412
-0.013697702
0.0054613921
-0.014057019
0.0054253817
-0.014424152
0.0053854598
-0.014799045
0.0053417192
-0.015181618
-0.015571815
0.0054135016
-0.0097464296
-0.005400117
0.005415377
-0.010003793
0.0054295136
-0.010281286
0.0054488377
-0.010557368
0.0054649399
-0.010834734
0.00547558
-0.011117622
0.0054821227
-0.011409626
0.0054850598
-0.011710088
0.0054840404
-0.012018142
0.0054788033
-0.012333865
0.0054692576
-0.012657394
0.0054553993
-0.0129888
0.0054372541
-0.013328109
0.0054148619
-0.013675327
0.0053882766
-0.01403045
0.0053575652
-0.014393457
0.0053228105
-0.014764307
0.0052841163
-0.015142944
-0.015529337
0.0053205378
-0.0097910259
-0.005276021
0.0053479967
-0.010031242
0.0053512479
-0.010284614
0.0053514272
-0.01055773
0.0053619757
-0.01084537
0.0053743883
-0.011130077
0.005383518
-0.011418792
0.0053886708
-0.011715247
0.0053902928
-0.012019757
0.0053882334
-0.0123318
0.0053822801
-0.01265144
0.0053722583
-0.012978784
0.0053580826
-0.013313945
0.0053397371
-0.013656999
0.00531725
-0.014007984
0.0052906816
-0.014366912
0.0052601173
-0.014733768
0.0052256675
-0.015108521
-0.015491171
0.0051791097
-0.009825635
-0.0051445561
0.005223305
-0.010075566
0.0052638125
-0.010325421
0.0052856425
-0.010579481
0.0052891843
-0.010848448
0.005290543
-0.011131335
0.0052982337
-0.011426578
0.005305952
-0.011723012
0.0053087777
-0.012022577
0.0053075469
-0.012330563
0.0053028908
-0.012646778
0.0052946464
-0.012970535
0.0052826634
-0.013301965
0.0052668659
-0.013641214
0.0052472406
-0.01398838
0.0052238211
-0.01434352
0.0051966732
-0.014706652
0.0051658869
-0.015077771
-0.015456898
0.0050697243
-0.0098577369
-0.0050376003
0.0050987983
-0.010104518
0.0051286804
-0.01035498
0.005163395
-0.010614222
0.0051958636
-0.010881382
0.0052194335
-0.011154961
0.0052235154
-0.011430419
0.0052225932
-0.011722046
0.0052249894
-0.012025088
0.0052263572
-0.012331979
0.0052234049
-0.012643836
0.0052165675
-0.012963694
0.0052062804
-0.013291675
0.0051926212
-0.013627562
0.0051755721
-0.013971351
0.0051551253
-0.014323104
0.0051313001
-0.014682866
0.0051041383
-0.015050653
-0.015426509
0.0049634927
-0.0098892472
-0.0049320204
0.0049917923
-0.010132864
0.0050196721
-0.010382918
0.005043629
-0.010638303
0.0050610023
-0.010898946
0.0050840983
-0.011178191
0.0051125211
-0.011458908
0.0051311241
-0.01174058
0.0051366655
-0.012030454
0.0051365973
-0.012331816
0.0051353212
-0.012642518
0.0051315284
-0.012959885
0.0051244006
-0.013284543
0.0051139946
-0.013617165
0.0051004085
-0.01395779
0.0050836494
-0.014306385
0.0050637027
-0.014662968
0.0050405688
-0.015027573
-0.015400269
0.0048642881
-0.0099212186
-0.0048323341
0.0048941185
-0.010162703
0.0049219726
-0.010410768
0.0049488011
-0.010665126
0.0049681945
-0.010918284
0.0049719806
-0.011182009
0.0049801939
-0.011467286
0.0049994709
-0.011759974
0.0050190323
-0.012050047
0.0050318257
-0.012344594
0.0050375193
-0.012648179
0.0050389324
-0.012961283
0.0050370645
-0.013282687
0.0050317709
-0.013611903
0.0050229987
-0.013949063
0.0050108243
-0.014294265
0.0049953121
-0.014647518
0.0049765013
-0.015008826
-0.015378268
0.0047692927
-0.0099535861
-0.0047369468
0.0047997631
-0.010193201
0.0048283672
-0.010439411
0.0048555176
-0.010692331
0.0048895444
-0.010952373
0.0049195321
-0.011211961
0.0049269789
-0.011474592
0.0049213639
-0.011754341
0.0049256544
-0.012054408
0.0049362937
-0.012355283
0.0049453988
-0.012657341
0.0049511907
-0.012967147
0.0049535299
-0.013285103
0.0049525308
-0.013610981
0.0049480875
-0.013944697
0.004940104
-0.014286359
0.0049285962
-0.014636083
0.0049136312
-0.014993929
-0.01535999
0.0046762744
-0.0099854839
-0.0046443905
0.0047061742
-0.010223112
0.0047338834
-0.01046712
0.0047592029
-0.010717626
0.0047816211
-0.010974728
0.0048082993
-0.011238646
0.0048415205
-0.01150792
0.0048640516
-0.0117769
0.0048667191
-0.01205707
0.0048690536
-0.012357696
0.0048753527
-0.012663783
0.0048805464
-0.01297247
0.0048831673
-0.013287837
0.0048829933
-0.013610908
0.0048799538
-0.013941748
0.0048739111
-0.014280398
0.0048647228
-0.014626967
0.0048523105
-0.014981577
-0.015344407
0.0045875959
-0.010017199
-0.0045559006
0.0046175655
-0.010253104
0.0046457151
-0.010495295
0.0046719846
-0.010743923
0.004696388
-0.010999174
0.0047189077
-0.011261244
0.0047401915
-0.011529285
0.0047682782
-0.011805069
0.0047917419
-0.012080666
0.0048009632
-0.012367035
0.0048076462
-0.01267055
0.004812907
-0.012977818
0.0048159419
-0.013290958
0.0048162862
-0.013611333
0.00481385
-0.013939386
0.004808714
-0.014275326
0.0048008638
-0.014619169
0.0047901972
-0.01497095
-0.015330883
0.0045022934
-0.010048658
-0.004470866
0.0045321698
-0.010283015
0.0045603925
-0.010523558
0.0045868579
-0.010770438
0.0046114254
-0.011023802
0.0046338752
-0.011283766
0.00465517
-0.011550655
0.0046744782
-0.01182446
0.0046985462
-0.012104825
0.0047158313
-0.012384423
0.0047217231
-0.012676552
0.0047299231
-0.01298611
0.0047363873
-0.013297489
0.0047396107
-0.013614614
0.0047399001
-0.013939725
0.0047373886
-0.014272856
0.0047320914
-0.014613903
0.0047239608
-0.014962839
0.0044198876
-0.010079691
-0.0043888912
0.0044494509
-0.010312615
0.0044774687
-0.010551614
0.0045038202
-0.010796831
0.0045283827
-0.011048412
0.0045510605
-0.011306497
0.0045715771
-0.011571231
0.0045898275
-0.011842778
0.0046060629
-0.012121126
0.0046282055
-0.012406617
0.0046427062
-0.012691086
0.0046443515
-0.012987806
0.0046502256
-0.013303432
0.0046565673
-0.013621007
0.0046598692
-0.013943056
0.0046607313
-0.014273739
0.0046589104
-0.014612097
-0.014958128
0.0043407323
-0.010110339
-0.0043101255
0.0043700489
-0.01034197
0.0043979654
-0.010579567
0.0044243632
-0.010823265
0.0044491169
-0.011073202
0.0044720909
-0.011329507
0.004493139
-0.011592314
0.0045120609
-0.01186173
0.0045287911
-0.012137881
0.0045430798
-0.012420928
0.004563564
-0.01271159
0.0045773695
-0.013001624
0.0045761669
-0.013302261
0.0045789744
-0.013623863
0.004585118
-0.013949233
0.0045885479
-0.014277188
0.0045889706
-0.014612526
-0.014955884
0.0042643864
-0.010140565
-0.0042341979
0.0042934266
-0.010371043
0.0043212246
-0.010607395
0.0043476853
-0.010849752
0.0043727141
-0.011098253
0.0043962193
-0.011353031
0.0044181053
-0.011614215
0.0044382948
-0.01188193
0.0044567153
-0.012156306
0.0044732871
-0.012437498
0.0044873663
-0.012725664
0.0045073812
-0.013021635
0.0045224366
-0.013317308
0.0045206706
-0.013622072
0.0045178898
-0.01394647
0.0045225347
-0.014281948
0.0045262927
-0.014616341
-0.014955685
0.0041907798
-0.010170372
-0.0041610016
0.0042195399
-0.010399828
0.0042471977
-0.010635073
0.0042736701
-0.01087624
0.0042988773
-0.011123473
0.0043227472
-0.011376911
0.0043452206
-0.011636696
0.0043662549
-0.01190297
0.0043858211
-0.012175876
0.0044038785
-0.012455558
0.0044203671
-0.012742159
0.0044345369
-0.013035817
0.0044548745
-0.013337655
0.0044750743
-0.013642334
0.0044797328
-0.013951193
0.004471365
-0.014273454
0.0044666212
-0.014611352
-0.014957656
0.0041195012
-0.010199715
-0.0040901813
0.0041479117
-0.010428259
0.0041753344
-0.010662512
0.0042016894
-0.010902608
0.0042268983
-0.011148693
0.0042508858
-0.011400909
0.0042735839
-0.011659406
0.0042949367
-0.011924337
0.0043149066
-0.012195861
0.0043334741
-0.012474144
0.0043506371
-0.012759351
0.0043664031
-0.013051643
0.004379646
-0.013351016
0.0043930134
-0.013655773
0.0044101958
-0.013968252
0.00442537
-0.014288311
0.0044306619
-0.014616349
-0.014955777
0.0040505127
-0.010228604
-0.0040216483
0.0040785691
-0.010456338
0.0041057436
-0.010689708
0.0041319616
-0.010928846
0.0041571477
-0.011173898
0.004181226
-0.011425008
0.0042041187
-0.011682323
0.0042257454
-0.011945993
0.0042460222
-0.01221617
0.0042648609
-0.012493012
0.0042821663
-0.012776679
0.0042978223
-0.01306733
0.0043117417
-0.013365034
0.0043254763
-0.013669755
0.0043369906
-0.013980035
0.0043478663
-0.014299462
0.0043616748
-0.014630438
-0.014967785
0.0039834585
-0.010257003
-0.0039550882
0.0040111035
-0.010484013
0.0040379528
-0.010716587
0.0040639352
-0.010954858
0.0040889785
-0.011198971
0.0041130095
-0.01144907
0.0041359523
-0.011705302
0.0041577292
-0.011967814
0.0041782584
-0.012236755
0.0041974556
-0.012512271
0.0042152347
-0.012794508
0.0042315047
-0.013083599
0.0042461994
-0.013379625
0.004259251
-0.013682612
0.0042723299
-0.013993071
0.0042840491
-0.014311379
0.0042932037
-0.0146398
-0.014973742
0.003918325
-0.010284924
-0.0038904362
0.0039455687
-0.010511292
0.0039721021
-0.010743159
0.0039978596
-0.010980656
0.0040227745
-0.011223928
0.0040467803
-0.01147312
0.0040698091
-0.011728378
0.0040917908
-0.011989849
0.0041126555
-0.012257685
0.0041323364
-0.012532033
0.0041507751
-0.012813041
0.0041679404
-0.013100856
0.004183902
-0.013395645
0.0041989187
-0.013697635
0.0042123747
-0.014006551
0.0042181457
-0.014317228
0.0042149176
-0.014636841
-0.014972528
0.0038548168
-0.010312341
-0.0038274322
0.0038816246
-0.010538136
0.0039077935
-0.010769369
0.0039332619
-0.01100617
0.0039579686
-0.011248684
0.0039818529
-0.011497055
0.0040048553
-0.011751432
0.0040269172
-0.012011964
0.0040479827
-0.012278808
0.0040680033
-0.012552119
0.0040869459
-0.012832061
0.0041048043
-0.013118804
0.0041215886
-0.013412525
0.0041372517
-0.013713392
0.0041520676
-0.014021466
0.0041717627
-0.014337029
0.0041899698
-0.014655109
-0.014976443
0.0037928983
-0.010339256
-0.0037660125
0.0038192695
-0.010564541
0.0038450661
-0.010795204
0.0038702277
-0.011031376
0.0038946931
-0.011273199
0.0039184005
-0.011520816
0.0039412866
-0.011774372
0.003963286
-0.012034016
0.0039843284
-0.012299898
0.0040043366
-0.012572173
0.0040232238
-0.012850993
0.0040408891
-0.013136516
0.0040572114
-0.013428897
0.0040720608
-0.013728292
0.0040853794
-0.014034826
0.0040967701
-0.014348432
0.0041106979
-0.014669049
-0.014997606
0.0037324097
-0.010365665
-0.0037060252
0.0037583364
-0.010590493
0.003783749
-0.010820647
0.0038085898
-0.011056252
0.0038327995
-0.01129745
0.003856319
-0.011544382
0.0038790877
-0.011797191
0.0039010441
-0.012056022
0.0039221241
-0.012321025
0.0039422598
-0.01259235
0.0039613774
-0.012870146
0.0039793959
-0.013154566
0.0039962257
-0.013445759
0.0040117706
-0.013743873
0.0040259627
-0.014049059
0.0040390099
-0.014361526
0.0040514228
-0.014681515
-0.015008036
0.003673301
-0.010391578
-0.0036474094
0.0036987886
-0.010616002
0.0037238194
-0.010845698
0.0037483392
-0.011080795
0.0037722921
-0.011321429
0.003795621
-0.011567741
0.0038182684
-0.011819874
0.0038401754
-0.01207797
0.0038612833
-0.012342176
0.0038815322
-0.012612641
0.0039008605
-0.012889515
0.0039192054
-0.013172951
0.0039365032
-0.013463098
0.0039526914
-0.013760107
0.0039677017
-0.014064124
0.00398139
-0.014375277
0.0039934727
-0.014693664
-0.015019609
0.0036154666
-0.010417008
-0.0035900623
0.0036405148
-0.010641071
0.0036651578
-0.010870359
0.0036893454
-0.011104998
0.0037130249
-0.011345123
0.0037361415
-0.011590874
0.0037586387
-0.01184239
0.0037804584
-0.012099813
0.0038015407
-0.012363287
0.0038218251
-0.012632959
0.003841249
-0.012908975
0.0038597483
-0.013191486
0.0038772559
-0.01348064
0.0038937025
-0.013776586
0.0039090165
-0.01407947
0.0039231344
-0.014389429
0.0039360276
-0.014706595
-0.015031097
0.0035588488
-0.010441971
-0.0035339189
0.003583466
-0.010665717
0.003607726
-0.010894643
0.0036315822
-0.011128872
0.0036549865
-0.011368542
0.0036778879
-0.011613786
0.0037002335
-0.011864746
0.0037219684
-0.01212156
0.0037430357
-0.012384371
0.0037633783
-0.012653324
0.0037829386
-0.012928564
0.0038016602
-0.013210239
0.0038194856
-0.013498495
0.0038363561
-0.013793481
0.0038522106
-0.014095342
0.0038669895
-0.014404221
0.0038806411
-0.014720261
-0.015043624
0.0035033591
-0.010466482
-0.0034788908
0.0035275538
-0.010689951
0.0035514334
-0.010918558
0.003574956
-0.011152425
0.003598077
-0.011391686
0.0036207501
-0.011636477
0.003642927
-0.011886937
0.0036645565
-0.012143202
0.0036855861
-0.012405415
0.0037059627
-0.01267372
0.0037256345
-0.012948262
0.0037445523
-0.013229189
0.0037626729
-0.013516651
0.0037799583
-0.0138108
0.0037963788
-0.014111791
0.0038119145
-0.014419779
0.0038265566
-0.014734923
-0.015057401
0.0034489244
-0.010490552
-0.0034249034
0.0034727061
-0.010713781
0.0034962105
-0.010942108
0.0035193981
-0.011175654
0.0035422282
-0.011414553
0.003564658
-0.011658938
0.0035866421
-0.011908945
0.0036081329
-0.012164712
0.0036290799
-0.012426379
0.0036494304
-0.012694089
0.0036691306
-0.012967986
0.003688126
-0.013248216
0.0037063624
-0.013534928
0.0037237869
-0.01382827
0.0037403447
-0.014128396
0.0037559787
-0.014435458
0.0037706262
-0.014749609
-0.015071022
0.0033954759
-0.010514192
-0.003371888
0.003418856
-0.010737214
0.0034419925
-0.010965297
0.003464849
-0.011198561
0.0034873873
-0.011437139
0.0035095678
-0.011681161
0.0035313488
-0.011930763
0.0035526866
-0.01218608
0.0035735355
-0.012447252
0.0035938468
-0.012714421
0.00361357
-0.012987729
0.0036326535
-0.013267324
0.0036510446
-0.01355335
0.0036686909
-0.013845957
0.0036855412
-0.014145295
0.0037015428
-0.014451514
0.0037166409
-0.014764764
-0.015085211
0.0033429566
-0.010537411
-0.0033197887
0.0033659457
-0.010760256
0.0033887224
-0.010988127
0.003411252
-0.011221145
0.0034334985
-0.011459439
0.0034554243
-0.011703139
0.0034769907
-0.011952377
0.0034981568
-0.012207289
0.0035188797
-0.012468011
0.0035391148
-0.012734685
0.0035588147
-0.013007453
0.0035779298
-0.013286459
0.0035964095
-0.013571851
0.0036142024
-0.013863775
0.0036312574
-0.014162382
0.0036475268
-0.014467823
0.0036629661
-0.014780249
-0.01509983
0.0032913187
-0.010560218
-0.0032685581
0.0033139272
-0.010782914
0.0033363521
-0.011010604
0.0033585608
-0.011243408
0.0033805189
-0.011481453
0.003402191
-0.011724867
0.0034235401
-0.011973781
0.0034445277
-0.012228329
0.0034651141
-0.012488646
0.0034852572
-0.012754871
0.0035049135
-0.013027145
0.0035240372
-0.013305613
0.0035425799
-0.013590418
0.0035604917
-0.013881709
0.0035777213
-0.014179634
0.0035942166
-0.014484343
0.0036099254
-0.014795986
-0.01511473
0.0032405204
-0.010582625
-0.0032181561
0.0032627578
-0.010805196
0.0032848382
-0.011032733
0.0033067309
-0.011265351
0.0033284033
-0.011503178
0.0033498216
-0.01174634
0.0033709507
-0.011994967
0.0033917538
-0.012249189
0.0034121929
-0.01250914
0.0034322285
-0.012774959
0.0034518191
-0.013046785
0.0034709216
-0.01332476
0.0034894908
-0.013609027
0.0035074792
-0.013899732
0.0035248379
-0.014197024
0.0035415168
-0.014501051
0.0035574653
-0.014811964
-0.015129928
0.0031905269
-0.010604643
-0.0031685478
0.0032124018
-0.010827112
0.0032341446
-0.011054519
0.0032557263
-0.011286979
0.0032771165
-0.011524617
0.0032982831
-0.011767558
0.0033191927
-0.01201593
0.0033398109
-0.012269862
0.0033601015
-0.012529487
0.0033800274
-0.012794942
0.0033995497
-0.013066362
0.0034186284
-0.013343891
0.0034372215
-0.013627669
0.0034552858
-0.013917843
0.0034727763
-0.014214558
0.0034896473
-0.014517963
0.0035058519
-0.014828209
-0.01514546
0.0031413044
-0.010626282
-0.0031197011
0.0031628244
-0.01084867
0.0031842351
-0.011075969
0.0032055094
-0.011308296
0.0032266184
-0.011545771
0.0032475321
-0.011788518
0.0032682188
-0.012036666
0.0032886458
-0.01229034
0.0033087791
-0.012549673
0.003328583
-0.012814798
0.0033480209
-0.013085853
0.0033670547
-0.013362977
0.0033856452
-0.01364631
0.0034037513
-0.013935998
0.0034213313
-0.014232184
0.0034383423
-0.014535019
0.0034547411
-0.014844652
-0.015161248
0.0030928263
-0.010647553
-0.0030715889
0.0031139997
-0.010869879
0.0031350848
-0.011097092
0.0031560562
-0.011329307
0.0031768867
-0.011566643
0.0031975486
-0.011809224
0.003218012
-0.012057175
0.003238246
-0.012310621
0.0032582185
-0.012569693
0.0032778961
-0.012834525
0.0032972445
-0.01310525
0.0033162279
-0.013382008
0.0033348095
-0.013664938
0.0033529511
-0.013954183
0.0033706134
-0.014249889
0.0033877561
-0.014552202
0.0034043386
-0.014861274
-0.015177268
0.0030450649
-0.010668464
-0.0030241853
0.0030658984
-0.010890746
0.003086663
-0.011117892
0.0031073346
-0.011350015
0.0031278883
-0.011587236
0.0031482972
-0.011829673
0.0031685336
-0.012077453
0.0031885682
-0.012330699
0.0032083706
-0.01258954
0.0032279091
-0.012854109
0.0032471512
-0.013124537
0.0032660631
-0.013400964
0.0032846098
-0.013683528
0.0033027555
-0.01397237
0.0033204633
-0.014267635
0.0033376955
-0.01456947