/*--------------------------------*- C++ -*----------------------------------*\
| =========                 |                                                 |
| \\      /  F ield         | OpenFOAM: The Open Source CFD Toolbox           |
|  \\    /   O peration     | Version:  2406                                  |
|   \\  /    A nd           | Website:  www.openfoam.com                      |
|    \\/     M anipulation  |                                                 |
\*---------------------------------------------------------------------------*/
FoamFile
{
    version     2.0;
    format      ascii;
    arch        "LSB;label=32;scalar=64";
    class       volScalarField;
    location    "0.076";
    object      alphat;
}
// * * * * * * * * * * * * * * * * * * * * * * * * * * * * * * * * * * * * * //

dimensions      [1 -1 -1 0 0 0 0];

internalField   nonuniform List<scalar> 
8260
(
0.039978852
0.045334825
0.051630809
0.058740675
0.066501935
0.074741492
0.083239977
0.091701738
0.099726571
0.1067412
0.11193754
0.11419991
0.11202228
0.10353666
0.086755228
0.060782019
0.032283518
0.015135976
0.0098447871
0.0081692235
0.0071802952
0.006496197
0.0059780703
0.0056247008
0.0054235498
0.0052747767
0.0051564065
0.0050700695
0.0050068842
0.0049660415
0.0049453777
0.047323788
0.052840324
0.058893779
0.065552506
0.072774824
0.080430029
0.088310487
0.096120202
0.10345082
0.10972066
0.11409191
0.11542567
0.11219547
0.10254424
0.084544509
0.057849597
0.029508311
0.014239155
0.0095680095
0.0080655689
0.0071276438
0.0064665282
0.0059594147
0.0056144349
0.0054175651
0.0052708676
0.0051537749
0.005068267
0.0050057251
0.004965264
0.004944853
0.055740075
0.061047763
0.066796447
0.073023742
0.079706164
0.086739039
0.093932711
0.10099955
0.10752629
0.11291685
0.11631975
0.11656963
0.11212117
0.10113716
0.081789409
0.054300796
0.026758666
0.013316172
0.0093774493
0.0080112048
0.0071004714
0.0064519655
0.005950108
0.0056092736
0.0054145086
0.0052688652
0.0051523682
0.0050672401
0.0050049
0.0049645714
0.0049442768
0.065336385
0.070211985
0.075516165
0.081226523
0.087304404
0.093645752
0.10006686
0.10628382
0.11187926
0.1162456
0.11851634
0.11750367
0.11164734
0.099142497
0.07831323
0.050057667
0.02391835
0.012507113
0.0092037237
0.0079249283
0.0070537749
0.0064260056
0.0059331557
0.0055997946
0.0054087822
0.0052649232
0.0051496511
0.0050652594
0.0050035771
0.0049636317
0.0049436202
0.076108293
0.080386177
0.085120843
0.090198213
0.095566123
0.10111235
0.10664887
0.11188777
0.1164039
0.11957797
0.1205278
0.11804646
0.11056576
0.0963308
0.073892275
0.045033601
0.021045972
0.011727097
0.0090153451
0.007842996
0.0070106894
0.0064022779
0.0059182741
0.0055919526
0.0054039596
0.0052616022
0.0051473781
0.0050636032
0.0050023554
0.0049626731
0.0049428714
0.087849444
0.091459297
0.095509783
0.099835912
0.1043735
0.109
0.11351794
0.11762943
0.12089693
0.12268693
0.12210186
0.11791889
0.10857381
0.092387955
0.068249043
0.039192939
0.018492493
0.011006898
0.0088285981
0.0077420895
0.0069545176
0.0063703757
0.0058977704
0.005581029
0.0053971286
0.0052568099
0.0051441131
0.0050612178
0.005000727
0.0049614867
0.0049420167
0.10019114
0.1030914
0.10636913
0.10984071
0.11343063
0.11700594
0.12035795
0.12317566
0.12500599
0.12519901
0.12284206
0.11670119
0.10523743
0.086887741
0.061055782
0.032638136
0.016090307
0.010353902
0.0086325343
0.0076363249
0.0068955533
0.0063370145
0.0058770004
0.0055706757
0.0053904829
0.0052520644
0.005140923
0.0050588885
0.0049990596
0.0049602085
0.0049410421
0.1125287
0.11468862
0.11712475
0.11965328
0.12218714
0.12458206
0.1266167
0.12796513
0.12815704
0.12652528
0.12214353
0.11377478
0.09994477
0.079266828
0.051984991
0.025750467
0.013902272
0.0098401709
0.0084323693
0.0075147756
0.0068236498
0.0062957421
0.0058508503
0.005557602
0.0053819694
0.0052459077
0.0051367928
0.0050558699
0.0049969835
0.0049586803
0.004939931
0.12390565
0.12529822
0.12683486
0.12834477
0.12972629
0.13082106
0.13139282
0.13109877
0.12945055
0.12576475
0.11910558
0.10824608
0.091853237
0.068824216
0.040910349
0.020141006
0.012094605
0.0094350555
0.0082186143
0.007384725
0.0067442335
0.0062506413
0.0058228156
0.0055442919
0.0053731826
0.0052393751
0.0051324593
0.0050527104
0.0049947522
0.0049569909
0.0049386649
0.13282012
0.13343707
0.13402756
0.13445782
0.13460843
0.13430256
0.13328541
0.13119479
0.12752449
0.12157957
0.11242456
0.098861692
0.079847212
0.054840704
0.028536796
0.015728578
0.01070435
0.0090335842
0.0079925384
0.0072382194
0.0066507544
0.0061969804
0.005788982
0.0055277969
0.0053623438
0.0052312958
0.0051270811
0.0050488006
0.0049920474
0.0049549997
0.0049372204
0.13700776
0.13686312
0.13649604
0.13581478
0.1346828
0.13290646
0.13020982
0.12621001
0.12038774
0.11205065
0.10028775
0.083949393
0.062638821
0.037074571
0.019638488
0.012588454
0.0099363649
0.0086851816
0.0077533415
0.0070783994
0.0065490128
0.0061381317
0.0057525897
0.0055098995
0.0053506445
0.0052225024
0.0051212434
0.0050445705
0.0049890613
0.0049527705
0.0049355685
0.13316156
0.13223533
0.13093538
0.12916622
0.12676979
0.12352768
0.11914041
0.11321073
0.10522666
0.094541905
0.080341063
0.061463603
0.039356919
0.022721742
0.014190412
0.010617907
0.0093696299
0.0082833112
0.0075041768
0.0068940086
0.006437622
0.0060701469
0.0057108754
0.0054879664
0.0053362325
0.0052119463
0.0051141967
0.0050394717
0.0049854984
0.0049501679
0.0049331744
0.11660831
0.11503336
0.11289979
0.11011895
0.10652703
0.10189101
0.095890961
0.088151818
0.078247443
0.065745389
0.050615688
0.035878068
0.023155659
0.014917909
0.011131064
0.0098141632
0.0087499258
0.0079368181
0.0072358064
0.0067156899
0.0063146753
0.005992749
0.0056682838
0.0054643151
0.005320094
0.0052004503
0.0051064584
0.005033881
0.0049815479
0.0049472453
0.0049304239
0.082013431
0.079831574
0.077163804
0.074036895
0.070306939
0.065791498
0.060291728
0.0537512
0.046126009
0.037497491
0.028350464
0.020119099
0.014263236
0.011061126
0.0097711656
0.0089691581
0.0082507737
0.0075163968
0.0069909675
0.0065127153
0.0061789229
0.0059119665
0.0056182278
0.0054370424
0.0053009065
0.0051868671
0.0050972594
0.0050272397
0.0049769608
0.004943869
0.0049273751
0.046162458
0.044772767
0.043055875
0.041011848
0.038498248
0.035455691
0.032111681
0.028378289
0.024290049
0.019959084
0.015750027
0.012405253
0.010412861
0.0093476034
0.0090712821
0.0084019036
0.0076103587
0.0071952607
0.0067322549
0.0063260137
0.0060481631
0.0058156628
0.0055676152
0.005408943
0.0052795102
0.0051719598
0.0050871846
0.0050198514
0.0049719686
0.0049401069
0.0049241135
0.02286907
0.02237356
0.021639902
0.020709795
0.019555318
0.018178947
0.016658796
0.015022319
0.013326139
0.011678298
0.010258531
0.009329736
0.0087605257
0.0087183438
0.0080466307
0.0076830097
0.0072743847
0.0068240062
0.0065223497
0.006142551
0.0059048443
0.0057195243
0.005509619
0.0053746078
0.0052544982
0.0051548759
0.0050750553
0.0050112037
0.0049662925
0.0049358523
0.0049207779
0.012169949
0.01205183
0.011806884
0.011464699
0.011042222
0.010564039
0.010058727
0.0095229574
0.0089498581
0.0085024912
0.0082954619
0.0082181529
0.0081699253
0.0076744692
0.0075275541
0.007328482
0.0068433625
0.0066232782
0.0063233725
0.0059893626
0.0057875402
0.0056085029
0.0054544928
0.0053397457
0.0052268268
0.005135014
0.0050622638
0.0050015876
0.0049600713
0.0049311984
0.0049168278
0.0082601628
0.0082329093
0.008158006
0.0080525381
0.0079177179
0.0077808171
0.0076630611
0.0075566212
0.0074982036
0.0075005606
0.0075845814
0.0075160453
0.0071452885
0.0071209419
0.0068097926
0.0066319122
0.0066189146
0.00634385
0.0061237739
0.0058324761
0.0056673271
0.005515334
0.0053868643
0.0052940638
0.0051958329
0.0051144811
0.0050460877
0.0049911352
0.0049529162
0.004926028
0.0049123841
0.0069890808
0.0069419495
0.006911118
0.0068923723
0.0068870731
0.0068860691
0.0069097819
0.0068777768
0.0068495229
0.0068469204
0.0067662075
0.0066349293
0.0067198983
0.0066372752
0.0064375181
0.0063455182
0.006148826
0.0060485683
0.0058809232
0.005721488
0.0055629824
0.0054094195
0.0053343842
0.0052496913
0.0051625459
0.0050913756
0.0050290331
0.0049800194
0.0049451525
0.0049203941
0.004907761
0.0063867655
0.006384738
0.0063788809
0.0063771556
0.0063928072
0.0064167461
0.0064012059
0.0063793097
0.0063343077
0.006236368
0.0061721324
0.0061725195
0.006116013
0.006005667
0.0060543633
0.0058370769
0.0057367424
0.0056506718
0.0056276111
0.0055515169
0.0054558474
0.0053388878
0.0052713635
0.0051953715
0.0051258016
0.0050680281
0.0050087089
0.0049682589
0.0049366238
0.004914244
0.0049023503
0.005953567
0.0059492856
0.0059411006
0.0059211581
0.0058880958
0.0058465465
0.0058270625
0.0058233952
0.0058128097
0.0058024487
0.0057960819
0.0057417599
0.0057208213
0.005691663
0.0056684343
0.0056313548
0.0055698651
0.0054880211
0.0054252127
0.0054251292
0.0053592613
0.005256365
0.0052219828
0.0051457689
0.0050894657
0.005040373
0.0049895508
0.0049556318
0.0049274543
0.0049076577
0.0048972701
0.0055453836
0.0055457149
0.0055434105
0.0055381895
0.0055324352
0.0055289053
0.0055395288
0.005543775
0.0055351705
0.005513043
0.0054788987
0.0054684616
0.0054423462
0.0054292269
0.0054114498
0.0053848156
0.0054012618
0.0053419271
0.0052778611
0.0052436102
0.005255316
0.0052094187
0.0051439919
0.005095333
0.005046204
0.0050110259
0.0049683997
0.0049424233
0.0049179019
0.0049005813
0.0048912086
0.0053317302
0.0053332561
0.0053320837
0.0053288811
0.0053233101
0.0053151084
0.0053015424
0.0052872071
0.0052833295
0.0052807113
0.0052860387
0.0052863864
0.0052782678
0.0052696643
0.0052610157
0.0052548415
0.0052203058
0.0052028745
0.0051930303
0.0051525999
0.0051407364
0.0051168587
0.005082113
0.0050436779
0.0050104293
0.0049794792
0.0049498591
0.0049287986
0.0049074995
0.0048934533
0.0048857146
0.0051350356
0.0051364228
0.0051360466
0.0051345177
0.005132675
0.0051311161
0.0051309156
0.0051376133
0.0051415542
0.0051419987
0.005138233
0.0051294405
0.0051228593
0.0051076169
0.0051033575
0.0051095419
0.0050988777
0.0050863897
0.0050843789
0.0050821159
0.0050493755
0.0050579188
0.0050185865
0.0049901474
0.0049721685
0.0049513749
0.0049319473
0.0049128548
0.004898736
0.0048864416
0.0048794753
0.0050386441
0.0050402065
0.0050401264
0.0050389344
0.00503686
0.0050338953
0.0050296448
0.005024263
0.0050224578
0.0050211187
0.005019623
0.0050180289
0.005016086
0.0050162894
0.0050215641
0.0050113735
0.0050178578
0.0050166747
0.0050213131
0.0050065163
0.0049961518
0.0049768264
0.0049788798
0.0049577419
0.0049403885
0.0049273495
0.0049190294
0.0049019713
0.0048902048
0.0048798644
0.004873938
0.0049587726
0.0049596076
0.0049595569
0.0049590712
0.0049585054
0.0049580285
0.0049577566
0.0049583755
0.0049604527
0.0049609228
0.0049602261
0.0049582723
0.0049567952
0.0049578892
0.0049575915
0.0049575861
0.0049565095
0.0049516056
0.0049560015
0.0049433342
0.004937122
0.0049370734
0.0049370274
0.0049365534
0.0049230634
0.004913744
0.0049051617
0.0048927873
0.0048829496
0.0048738223
0.0048680185
0.0049199417
0.0049206493
0.0049207368
0.0049204828
0.0049200701
0.0049195105
0.0049187125
0.0049176145
0.0049165317
0.0049167244
0.0049180081
0.0049201949
0.0049229101
0.0049254469
0.004928772
0.0049280585
0.0049287329
0.0049246165
0.0049208667
0.0049206322
0.0049178132
0.0049184694
0.0049172939
0.0049178046
0.0049136758
0.00490395
0.0048963388
0.0048867024
0.0048757153
0.0048679836
0.0048639371
0.0048863594
0.0048867163
0.004886892
0.0048870507
0.0048873464
0.0048878266
0.0048885054
0.0048894154
0.0048907522
0.0048936909
0.0048974126
0.0049012465
0.0049043671
0.0049058874
0.004904823
0.0049051736
0.0049038181
0.0049065045
0.0049029912
0.0049087133
0.004910754
0.0049093358
0.0049054207
0.004899324
0.0049004296
0.0048928978
0.0048832069
0.0048765815
0.004869769
0.0048645781
0.0048619747
0.0048724989
0.004872805
0.0048730209
0.0048732445
0.0048735442
0.0048739226
0.0048743625
0.0048748414
0.0048753447
0.004875942
0.0048765799
0.0048778075
0.0048792536
0.0048800137
0.0048799346
0.0048804458
0.0048826403
0.0048829041
0.004884841
0.0048840459
0.0048884023
0.0048852055
0.0048870575
0.0048831582
0.0048810281
0.0048791748
0.004875352
0.0048709087
0.0048664069
0.0048621739
0.0048580473
0.0048661082
0.0048662753
0.0048664131
0.0048665775
0.0048667909
0.0048670505
0.0048673614
0.0048677129
0.004868076
0.0048684035
0.0048688538
0.0048697618
0.0048709861
0.0048713669
0.0048710706
0.0048710922
0.0048717515
0.0048714828
0.0048718651
0.0048717946
0.0048733754
0.0048733848
0.00487282
0.0048734631
0.0048728884
0.0048721277
0.0048706381
0.0048682041
0.0048624868
0.0048585383
0.0048586515
0.0048593463
0.0048594795
0.0048596697
0.0048599176
0.0048602346
0.0048606347
0.0048611321
0.0048617404
0.0048624708
0.004863331
0.0048642944
0.0048655184
0.0048667275
0.0048670535
0.0048669788
0.0048669131
0.0048668272
0.0048666243
0.0048666797
0.0048669146
0.0048680432
0.0048684599
0.0048678444
0.0048690807
0.0048688188
0.004868062
0.004867008
0.0048643794
0.004862526
0.0048616912
0.0048599794
0.00085898311
0.0018591173
0.0037332808
0.006548606
0.010281591
0.015025889
0.02087584
0.027887284
0.036182149
0.045190974
0.05508015
0.06541262
0.075410691
0.083850654
0.088881785
0.087867261
0.077475576
0.056620997
0.032171086
0.015494454
0.0090400543
0.0071061248
0.0063439329
0.005858663
0.005553695
0.0053504398
0.0052102349
0.0051083451
0.005035401
0.0049883503
0.0049639931
0.0021042112
0.0042469462
0.0070883724
0.010489006
0.014643186
0.01967892
0.025668043
0.032937922
0.040999736
0.049948617
0.059645282
0.069585418
0.078939126
0.086419665
0.090118508
0.087370201
0.074959449
0.052633873
0.028391191
0.013982729
0.0085432294
0.0069592527
0.0062837069
0.0058249444
0.0055362865
0.0053410739
0.0052046614
0.0051051506
0.0050335193
0.0049872571
0.00496343
0.0039087176
0.0062416227
0.0091195485
0.012723706
0.017198813
0.022641141
0.029160245
0.036650861
0.044935854
0.054020668
0.063640501
0.073260454
0.082013378
0.088563051
0.090957317
0.086524756
0.072228283
0.048814546
0.025464235
0.012501898
0.0081767154
0.0068955896
0.0062559136
0.0058088511
0.0055279948
0.0053365926
0.0052019043
0.0051035232
0.0050323241
0.004986348
0.0049628244
0.0056934906
0.0082522796
0.011487188
0.015488387
0.020303059
0.026051645
0.032846289
0.040385596
0.048786704
0.057896527
0.067373354
0.076635686
0.084765385
0.090373285
0.091468241
0.085388415
0.069324025
0.045152481
0.022895778
0.011656191
0.0079757061
0.00681872
0.0062135743
0.0057833921
0.0055146932
0.0053292914
0.005197354
0.0051008178
0.0050306523
0.0049853069
0.0049621657
0.0074341538
0.010350628
0.013934163
0.018238613
0.023358444
0.029422518
0.036300751
0.044020948
0.052530017
0.061618799
0.070907607
0.079774236
0.087251299
0.091900086
0.091697049
0.08400497
0.066291247
0.041629065
0.020618175
0.010737928
0.0077729284
0.006765259
0.0061861914
0.0057670568
0.0055063147
0.0053246514
0.0051944005
0.0050989991
0.0050293713
0.0049843682
0.0049614622
0.0092795093
0.012498418
0.016358753
0.020937968
0.026399056
0.032678597
0.039736437
0.047611384
0.05618166
0.065204637
0.074266216
0.082703089
0.089500755
0.093175468
0.09167799
0.082405062
0.063176714
0.038251965
0.018619633
0.01016565
0.0076437747
0.0067116518
0.0061530809
0.0057466015
0.0054955946
0.0053186494
0.0051905672
0.0050966377
0.0050278442
0.0049833581
0.0049607307
0.0110683
0.014574456
0.018734789
0.023648559
0.029378398
0.035855646
0.043121546
0.051127229
0.059726858
0.068652097
0.077456001
0.085435838
0.091533328
0.094224573
0.091440442
0.080627896
0.060023844
0.035076273
0.016912301
0.0096037465
0.0075242445
0.0066687204
0.0061281145
0.0057313761
0.005487746
0.0053142042
0.0051876595
0.0050947735
0.0050265385
0.004982405
0.0049599819
0.012800248
0.016623905
0.021098306
0.02635832
0.032301335
0.039000555
0.046444551
0.054552712
0.063155653
0.071957771
0.080479956
0.087982134
0.093365611
0.095070973
0.091013441
0.078707359
0.05686842
0.032138622
0.015490327
0.0092302253
0.0074400465
0.0066287006
0.0061015954
0.0057147028
0.0054789647
0.0053091869
0.0051843682
0.0050926565
0.0050251149
0.0049814152
0.0049592247
0.014528484
0.018651576
0.023445959
0.028973439
0.035160216
0.042077558
0.049683098
0.057874387
0.066459987
0.075118569
0.083340687
0.090351208
0.095014317
0.095740065
0.090435409
0.076681749
0.053763134
0.029473449
0.014357929
0.0089235482
0.0073652321
0.0065948376
0.0060799633
0.0057012636
0.0054719393
0.0053051334
0.0051816392
0.0050908334
0.005023822
0.0049804584
0.0049584606
0.016202977
0.020629622
0.025747513
0.031508731
0.037950901
0.045076329
0.052826911
0.061083319
0.069633745
0.078132603
0.086041826
0.092553385
0.096497548
0.096257789
0.089745294
0.074607047
0.050749084
0.027101138
0.013404095
0.0087132933
0.0073086274
0.0065644701
0.0060586663
0.0056877088
0.0054646926
0.0053009253
0.0051787861
0.0050889128
0.0050224811
0.0049794843
0.0049576904
0.017861006
0.022582977
0.027980735
0.033986757
0.040673151
0.047988148
0.055866432
0.064171518
0.072672032
0.080999344
0.088588475
0.094600659
0.097835314
0.096651773
0.088975034
0.072522466
0.047862594
0.025031012
0.012664738
0.0085469742
0.0072590601
0.0065385144
0.0060406825
0.0056763721
0.0054585988
0.0052973661
0.0051762994
0.0050871814
0.0050212232
0.0049785307
0.0049569146
0.01947492
0.024494258
0.030139209
0.036401666
0.043314571
0.050801207
0.058792383
0.06713191
0.075571164
0.083719657
0.090987282
0.096506632
0.099048174
0.096953189
0.088157424
0.070465765
0.045147642
0.023263104
0.012065224
0.0084230895
0.0072204785
0.0065159783
0.0060238595
0.0056655814
0.0054526387
0.0052938711
0.0051738219
0.0050854357
0.0050199548
0.004977571
0.0049561332
0.021063836
0.026354428
0.032241283
0.038744314
0.045853096
0.05350502
0.061595812
0.069958508
0.078328815
0.086295898
0.093246242
0.098285595
0.10015629
0.097185607
0.087324094
0.06847672
0.042635637
0.021783166
0.011616557
0.0083288081
0.0071879522
0.0064970819
0.0060095694
0.0056564889
0.0054475104
0.0052908547
0.005171606
0.0050838257
0.0050187449
0.0049766254
0.0049553465
0.022623478
0.028158659
0.034283145
0.041006003
0.048283763
0.05609387
0.064268601
0.072645361
0.080943837
0.088732892
0.09537519
0.099954066
0.10118214
0.097376098
0.086506445
0.066582585
0.040351254
0.020572694
0.011290645
0.0082587578
0.0071628381
0.0064813887
0.0059967857
0.0056482655
0.0054426975
0.0052880123
0.005169468
0.0050822456
0.005017545
0.0049756798
0.0049545547
0.02416151
0.02991323
0.036258206
0.043182013
0.050635172
0.058536415
0.066806459
0.075190572
0.083415769
0.091036407
0.097384123
0.10152692
0.10215127
0.097561185
0.085748976
0.064802902
0.038310003
0.019612972
0.011066568
0.0082075611
0.0071430539
0.0064689601
0.0059861314
0.0056414629
0.0054385509
0.0052855511
0.005167537
0.0050807728
0.0050163923
0.0049747463
0.0049537568
0.025656644
0.031612674
0.038156666
0.045259038
0.052863761
0.060881286
0.069177348
0.07758409
0.085739722
0.093198783
0.099281054
0.10302124
0.1030873
0.097772949
0.085092482
0.063173537
0.036523705
0.018892775
0.010902686
0.0081689239
0.0071289297
0.0064595822
0.0059771442
0.0056356238
0.0054348135
0.0052833113
0.0051657202
0.0050793523
0.0050152635
0.0049738182
0.004952951
0.027062785
0.033217857
0.039946317
0.047211131
0.054948966
0.063064948
0.071408864
0.079782937
0.087884947
0.095222705
0.1010657
0.10444987
0.10401157
0.098041152
0.084573691
0.061758688
0.035044645
0.018288409
0.01073492
0.008137795
0.0071194985
0.0064532662
0.005970123
0.0056309498
0.00543166
0.0052813914
0.0051640832
0.0050780233
0.0050141765
0.0049729007
0.0049521374
0.028340635
0.034664507
0.041555839
0.048968886
0.056836164
0.065051244
0.073460727
0.081847201
0.08988387
0.097076689
0.10273552
0.1058241
0.10494402
0.098392882
0.084224737
0.060609714
0.033853313
0.017783727
0.010594167
0.0081166661
0.00711469
0.0064498594
0.0059648523
0.0056271882
0.0054289651
0.0052797079
0.0051625805
0.0050767577
0.00501312
0.0049719908
0.0049513163
0.029687208
0.036085926
0.043065393
0.05057518
0.058534546
0.066829627
0.075298042
0.083710363
0.091724851
0.098834827
0.10432002
0.10712542
0.10589999
0.098852055
0.084073546
0.059766837
0.032930617
0.017359646
0.010466242
0.0081036826
0.0071140503
0.0064493111
0.0059614831
0.0056244157
0.0054268116
0.0052783071
0.0051612465
0.0050755757
0.005012104
0.0049710915
0.0049504879
0.031027296
0.037476148
0.044500539
0.052058879
0.060070313
0.068417234
0.076929892
0.085368904
0.093377884
0.10043827
0.10580882
0.10842982
0.10689799
0.099415371
0.08414244
0.05926038
0.032264662
0.017000184
0.010353087
0.0080994869
0.0071170057
0.0064515246
0.005959976
0.0056225278
0.0054251443
0.005277151
0.0051600618
0.0050744646
0.0050111236
0.0049702014
0.0049496527
0.032339569
0.038801179
0.045833746
0.053403719
0.061432841
0.069807138
0.078350744
0.086818069
0.094838306
0.10188435
0.10719395
0.10969383
0.10794862
0.10015543
0.084432072
0.059112374
0.03185513
0.016683546
0.010248168
0.0080992931
0.0071247251
0.0064565256
0.0059603117
0.0056215783
0.0054240072
0.0052762641
0.0051590445
0.0050734338
0.0050101831
0.0049693211
0.0049488105
0.033610757
0.040045551
0.047046814
0.054592664
0.062606116
0.070992419
0.079583052
0.088105117
0.09617678
0.10323045
0.10850285
0.1109278
0.10905324
0.1010478
0.085007859
0.059344356
0.03171969
0.016380148
0.010149968
0.0081116562
0.007135985
0.0064643282
0.0059628858
0.0056215264
0.0054233663
0.0052756215
0.005158179
0.0050724723
0.0050092762
0.0049684476
0.0049479609
0.034853076
0.041192207
0.048105863
0.055589842
0.063600352
0.072014045
0.080643228
0.089200063
0.097293504
0.10438232
0.10968588
0.11211849
0.11021153
0.10209943
0.085842621
0.059985999
0.031855081
0.016045396
0.010052523
0.0081293323
0.0071514733
0.0064747297
0.0059673401
0.005621995
0.0054231838
0.0052752023
0.0051574545
0.0050715742
0.0050083987
0.0049675791
0.0049471026
0.036060065
0.042200451
0.04892634
0.056260317
0.06418157
0.072559023
0.081193616
0.089800278
0.09797894
0.10516475
0.11056909
0.113089
0.11123237
0.10311088
0.086733051
0.060783707
0.032279173
0.015602766
0.0099524393
0.0081509083
0.0071677696
0.0064871411
0.0059732286
0.0056231402
0.0054232973
0.0052749399
0.0051568396
0.0050707268
0.0050075454
0.0049667161
0.0049462366
0.00088168096
0.0017982454
0.0035633059
0.0062277261
0.0097755879
0.014235383
0.019757677
0.026453401
0.034479282
0.043297506
0.053074377
0.06339499
0.073521132
0.082293348
0.087912765
0.087777679
0.078505357
0.058474075
0.033827829
0.016071661
0.0091715238
0.0071457986
0.0063628716
0.0058699552
0.0055595465
0.0053534577
0.0052122016
0.0051094955
0.0050362855
0.0049890579
0.004964284
0.00093529399
0.0018472134
0.0035833016
0.0061723394
0.0096230082
0.014008893
0.019446634
0.02603447
0.033919981
0.042647135
0.052272692
0.062468995
0.072569902
0.081415263
0.087241869
0.087482351
0.078795384
0.059307207
0.034690439
0.016448934
0.0092541
0.0071704281
0.006375591
0.0058777107
0.005563428
0.0053555956
0.0052136494
0.0051103862
0.0050369551
0.0049895466
0.004964559
0.0010009784
0.0019006636
0.003612373
0.0061523668
0.0095344116
0.01383129
0.019154733
0.025607365
0.033316557
0.041917408
0.051418612
0.061521988
0.07158616
0.080497456
0.086528089
0.087148577
0.079059166
0.060152697
0.035607003
0.016859096
0.0093506829
0.00719644
0.0063884683
0.0058854494
0.0055675186
0.0053575341
0.0052149204
0.0051110814
0.0050375718
0.0049901136
0.0049648836
0.0010798254
0.0019594342
0.0036417215
0.0061311583
0.0094431708
0.013649873
0.018859042
0.025178524
0.032708926
0.041175946
0.050546571
0.060548758
0.070569253
0.079538513
0.085768667
0.086772203
0.079289466
0.061008626
0.036575352
0.017310237
0.0094591477
0.0072269423
0.0064038957
0.0058947276
0.0055719464
0.0053602535
0.005216729
0.005112232
0.0050383924
0.0049906615
0.0049652714
0.0011740819
0.0020274184
0.0036721189
0.0061090188
0.0093506426
0.0134664
0.018560509
0.024737532
0.032096691
0.040423897
0.049657318
0.059549271
0.069519061
0.078537582
0.084961412
0.086349393
0.079476971
0.061864398
0.037589007
0.017813179
0.0095833999
0.0072584725
0.0064187311
0.0059034674
0.0055768992
0.0053624838
0.0052181759
0.0051129961
0.0050390885
0.0049912724
0.0049656227
0.0012880144
0.0021056088
0.0037114294
0.0060933835
0.009262499
0.013285204
0.018262176
0.024294204
0.031481552
0.039663425
0.048752879
0.058527071
0.068436795
0.07749491
0.084104766
0.085876012
0.079623599
0.062718089
0.038627309
0.018348908
0.0097219038
0.0072956553
0.0064370932
0.0059144168
0.0055820228
0.0053652667
0.0052199362
0.0051140099
0.0050399107
0.0049919196
0.0049659204
0.0014254213
0.0022062399
0.0037557915
0.0060784695
0.0091739248
0.013103185
0.017963067
0.023853558
0.030864632
0.038898484
0.04783654
0.057485228
0.067324785
0.076412493
0.083200069
0.085353535
0.079743887
0.063590829
0.039726094
0.018952036
0.0098761946
0.0073362121
0.0064561681
0.005925549
0.0055876902
0.005368291
0.0052218156
0.0051150829
0.0050407808
0.0049926052
0.0049662565
0.0015941712
0.0023225315
0.0038169001
0.0060761675
0.0090960669
0.012930879
0.017672893
0.023420508
0.030257065
0.038132359
0.046913745
0.056428246
0.066185268
0.075293591
0.08225105
0.084787189
0.079820219
0.064453501
0.040899768
0.019616088
0.010054758
0.0073812249
0.0064768321
0.005937578
0.0055937179
0.0053714967
0.0052237481
0.0051161916
0.005041696
0.0049933255
0.0049667892
0.0017983189
0.0024627577
0.003893559
0.0060860078
0.0090289276
0.012768611
0.017392352
0.022997138
0.02966662
0.03737094
0.045987617
0.055359418
0.065023549
0.074139877
0.081255523
0.084167487
0.079846564
0.065299453
0.042141376
0.020347106
0.010253299
0.0074312019
0.0064992816
0.0059504014
0.0056002538
0.0053750126
0.005225826
0.0051173798
0.0050426667
0.0049940835
0.0049675246
0.0020492854
0.0026430238
0.0039977033
0.0061144126
0.0089766401
0.012620053
0.017125132
0.022585818
0.029075703
0.03661578
0.04506265
0.054283987
0.06385395
0.072955424
0.080215125
0.083493089
0.079819207
0.066130312
0.043436217
0.02115137
0.010480419
0.0074868353
0.0065236756
0.0059644131
0.0056072511
0.0053786882
0.0052279202
0.0051185941
0.0050436842
0.0049948743
0.0049682511
0.0023487541
0.0028602013
0.0041246389
0.0061623942
0.0089420164
0.012488584
0.016874847
0.022190081
0.028501146
0.035870118
0.044143705
0.053206574
0.062664992
0.071743456
0.079132183
0.082763701
0.079734381
0.066935228
0.044782484
0.022037657
0.010736038
0.0075488203
0.0065499787
0.0059791139
0.0056147813
0.0053827523
0.0052302015
0.0051199258
0.0050447685
0.0049957088
0.0049688953
0.0027010768
0.0031281184
0.0043013347
0.0062390029
0.0089295474
0.012378042
0.016645702
0.021816261
0.027959842
0.03514551
0.043237535
0.052133061
0.061466035
0.070508445
0.078009864
0.081979976
0.079588518
0.067696294
0.046147254
0.023006149
0.011025991
0.0076176282
0.0065789076
0.0059954065
0.0056230346
0.0053869311
0.0052324562
0.0051212643
0.0050458963
0.0049965762
0.0049695589
0.0031063453
0.003449839
0.0045084261
0.0063483733
0.0089446798
0.012293281
0.016442695
0.02147009
0.027448595
0.034452069
0.042352827
0.051070585
0.060265929
0.06925514
0.076852117
0.081143504
0.079379259
0.068407537
0.047513285
0.024062985
0.011354265
0.0076950148
0.0066090784
0.0060121803
0.0056316371
0.0053915118
0.0052349321
0.0051227701
0.0050471045
0.0049974964
0.0049703254
0.0035570263
0.0038244619
0.0047647752
0.0064964642
0.0089927212
0.012239539
0.016271405
0.021157259
0.026969444
0.033767855
0.041491039
0.050025903
0.059071295
0.067981994
0.075663497
0.080256939
0.079105475
0.069062274
0.048895223
0.025215382
0.011724793
0.0077796226
0.0066438132
0.0060308118
0.0056415129
0.0053962345
0.0052373844
0.005124262
0.0050483491
0.0049984443
0.0049711446
0.0040450785
0.0042559891
0.0050880533
0.0066976406
0.0090851919
0.012226345
0.016140186
0.020885141
0.026531203
0.033130012
0.040669691
0.049009418
0.05789272
0.066724487
0.07445303
0.079324405
0.078766966
0.069653417
0.050288774
0.026464545
0.012146345
0.0078770011
0.0066768153
0.0060501144
0.0056512648
0.0054011649
0.0052400236
0.0051259598
0.0050496885
0.0049994515
0.0049719988
0.0045557825
0.0047294844
0.0054638435
0.0069530433
0.0092274884
0.012260917
0.016058079
0.020663129
0.026143837
0.032553991
0.039899519
0.048032054
0.056740474
0.065478736
0.07322868
0.078351328
0.07836476
0.070172894
0.051687907
0.027813171
0.012618124
0.0079803174
0.0067191762
0.0060705193
0.0056629061
0.0054065807
0.0052427934
0.0051276575
0.0050510565
0.0050004743
0.0049728826
0.0050763249
0.0052429853
0.0059096435
0.0072896757
0.0094465149
0.01236572
0.016042481
0.02050694
0.025817532
0.032036168
0.03915458
0.047094875
0.055621828
0.064237681
0.071997397
0.077344317
0.077902083
0.070615574
0.053084146
0.029251822
0.013156392
0.0081023673
0.0067534273
0.0060933638
0.0056741923
0.0054115956
0.0052455122
0.0051295235
0.0050525222
0.0050015634
0.0049737967
0.0055874556
0.0057757695
0.0064116515
0.0077055014
0.0097551443
0.012559463
0.016111967
0.020433742
0.025568009
0.031592821
0.03849401
0.046240439
0.05455547
0.063026758
0.070769684
0.076311311
0.077384394
0.070987055
0.054479532
0.030831874
0.013759651
0.0082301811
0.0068032938
0.0061142715
0.0056867819
0.0054180117
0.0052488031
0.0051315105
0.0050540192
0.0050026508
0.0049747419
0.0060865097
0.0063222026
0.0069635255
0.0082067265
0.010164244
0.012857226
0.016283816
0.020461062
0.025412769
0.031241913
0.0379288
0.045438901
0.053547489
0.061856919
0.069550385
0.075260046
0.07681481
0.07129068
0.055861475
0.032481494
0.014433102
0.0083765649
0.0068413402
0.0061414894
0.0057007673
0.0054229712
0.0052514508
0.0051334568
0.0050555862
0.0050038127
0.0049757167
0.006613991
0.0069241087
0.0076049887
0.0088314628
0.010710642
0.013294269
0.016589536
0.020614418
0.025376198
0.031000003
0.037458059
0.044704581
0.052603438
0.060738153
0.06835839
0.074199735
0.076196077
0.071513267
0.057186948
0.034175157
0.015205274
0.0085588154
0.0068908448
0.0061627813
0.0057123075
0.0054305351
0.0052554651
0.0051358336
0.0050572219
0.0050049582
0.0049767174
0.007243879
0.0076386886
0.0083793751
0.0096081565
0.011432154
0.01390864
0.017061981
0.020920407
0.025482492
0.03088694
0.037107185
0.044110176
0.051781418
0.059696514
0.067227404
0.073143977
0.075533852
0.071651896
0.058443907
0.035969203
0.016047296
0.0087228826
0.0069424396