/*--------------------------------*- C++ -*----------------------------------*\
| =========                 |                                                 |
| \\      /  F ield         | OpenFOAM: The Open Source CFD Toolbox           |
|  \\    /   O peration     | Version:  2406                                  |
|   \\  /    A nd           | Website:  www.openfoam.com                      |
|    \\/     M anipulation  |                                                 |
\*---------------------------------------------------------------------------*/
FoamFile
{
    version     2.0;
    format      ascii;
    arch        "LSB;label=32;scalar=64";
    class       volScalarField;
    location    "0.076";
    object      p;
}
// * * * * * * * * * * * * * * * * * * * * * * * * * * * * * * * * * * * * * //

dimensions      [1 -1 -2 0 0 0 0];

internalField   nonuniform List<scalar> 
8260
(
101080.39
101002.14
100956.91
100902.06
100852.02
100815.89
100796.02
100792.01
100802.63
100825.99
100862.41
100909.61
100964.85
101024.8
101085.46
101148.12
101187.04
101217.54
101242.84
101264.28
101283.18
101299.49
101313.74
101326.08
101336.71
101345.84
101353.39
101359.4
101364.43
101367.63
101369.98
101235.97
101167.17
101100.09
101028.39
100965.84
100918.04
100886.23
100870.95
100870.34
100883.37
100910.27
100949.25
100997.07
101051.33
101104.21
101160.67
101195.16
101225.65
101249.24
101269.31
101287.18
101302.67
101316.29
101328.12
101338.35
101347.18
101354.49
101360.31
101365.22
101368.32
101370.62
101340.93
101278
101204.48
101126.22
101057.38
101002.29
100962.14
100938.4
100929.68
100933.33
100952.46
100984.57
101026.55
101076.86
101124.21
101176.26
101205.61
101235.46
101256.75
101275.17
101291.82
101306.36
101319.24
101330.48
101340.25
101348.72
101355.76
101361.37
101366.12
101369.11
101371.34
101427.1
101368.04
101295
101215.09
101142.64
101082.24
101035.32
101003.52
100986.68
100983.17
100995.12
101020.69
101057.21
101103.74
101146.29
101193.49
101218.46
101246.54
101265.29
101281.84
101297.12
101310.58
101322.61
101333.17
101342.41
101350.48
101357.2
101362.57
101367.14
101370.02
101372.17
101501.48
101446.45
101376.88
101298.64
101225.37
101162
101110.26
101071.9
101047.78
101037.62
101042.54
101061.45
101092.33
101134.3
101171.63
101212.28
101234.08
101258.96
101275
101289.44
101303.16
101315.38
101326.45
101336.24
101344.88
101352.48
101358.84
101363.94
101368.3
101371.04
101373.11
101562.89
101511.68
101447.48
101373.97
101303
101239.47
101185.37
101142.66
101112.85
101096.65
101095
101107.37
101132.6
101169.19
101200.61
101232.9
101252.71
101272.86
101286
101298.08
101310.02
101320.84
101330.82
101339.73
101347.69
101354.76
101360.71
101365.5
101369.63
101372.21
101374.17
101611.16
101563.91
101505.75
101439.39
101373.58
101312.66
101258.78
101214.08
101180.51
101159.47
101152.06
101158.4
101178.25
101208.64
101233.22
101256.11
101274.05
101288.45
101298.42
101307.89
101317.82
101327.04
101335.79
101343.69
101350.88
101357.35
101362.83
101367.27
101371.13
101373.54
101375.38
101647.68
101605.03
101554.29
101496.21
101437.22
101381.01
101329.64
101285.25
101249.95
101225.58
101213.56
101214.67
101229.69
101252.62
101269.17
101283.42
101297.52
101305.95
101312.37
101318.99
101326.69
101334.07
101341.44
101348.19
101354.51
101360.3
101365.25
101369.29
101372.83
101375.05
101376.76
101676.95
101637.99
101594.59
101545.46
101494.6
101444.79
101397.88
101355.82
101320.76
101294.7
101279.38
101276.31
101287.01
101300.55
101308.55
101315.81
101322.69
101325.45
101327.96
101331.54
101336.72
101342.05
101347.86
101353.31
101358.63
101363.66
101368
101371.6
101374.78
101376.78
101378.31
101700.77
101668.11
101630.52
101589.83
101547.83
101505.53
101464.4
101426.23
101393.03
101366.8
101349.53
101343.28
101349.26
101352.95
101352.14
101351.68
101349.49
101346.95
101345.31
101345.63
101347.97
101351.09
101355.16
101359.14
101363.33
101367.49
101371.14
101374.23
101376.99
101378.75
101380.09
101719.69
101700.05
101672.17
101639.35
101603.7
101567.43
101531.75
101497.92
101467.51
101442.36
101424.6
101416.08
101416.07
101409.77
101398.96
101388.31
101378.3
101370.36
101364.44
101361.24
101360.48
101361.31
101363.41
101365.78
101368.68
101371.85
101374.72
101377.22
101379.51
101381.01
101382.11
101748.13
101734.5
101715.19
101689.21
101660.45
101630.9
101601.34
101572.59
101545.86
101522.99
101506.11
101495.19
101484.82
101467.17
101445.2
101425.14
101408.59
101395.31
101385.27
101378.36
101374.42
101372.69
101372.65
101373.3
101374.77
101376.79
101378.77
101380.62
101382.39
101383.57
101384.43
101789.33
101785.76
101774.78
101753.5
101729.16
101704.52
101680.01
101655.72
101632.16
101610.42
101590.95
101571.62
101547.29
101517.72
101488.06
101461.65
101439.52
101421.67
101407.62
101397.06
101389.72
101385.22
101382.91
101381.71
101381.64
101382.37
101383.36
101384.48
101385.66
101386.48
101387.09
101865.14
101854.98
101836.85
101814.36
101792.01
101772.05
101753.39
101733.54
101711.19
101686.38
101658.77
101627.99
101594.42
101559.75
101526.5
101496.59
101470.69
101448.84
101431.05
101417.05
101406.43
101398.93
101394.13
101391.01
101389.31
101388.61
101388.55
101388.82
101389.35
101389.77
101390.13
101894.86
101895.17
101892.34
101886.41
101872.62
101849.46
101823.28
101796.23
101766.71
101734.58
101700.72
101665.37
101629.6
101594.16
101560.23
101528.93
101500.79
101476.06
101455.02
101437.98
101424.36
101413.83
101406.37
101401.16
101397.76
101395.62
101394.38
101393.71
101393.49
101393.45
101393.6
101896.63
101887.99
101875.81
101860.9
101848.1
101838.18
101827.7
101815.57
101796.02
101766.83
101731.99
101694.87
101658.53
101623.54
101589.73
101557.7
101528.49
101502.21
101478.81
101459.17
101443.04
101429.82
101419.71
101412.24
101407.07
101403.4
101400.89
101399.18
101398.13
101397.55
101397.52
101888.27
101880.65
101871.18
101860.19
101848.44
101835.43
101819.1
101798.99
101780.09
101764.68
101744.73
101716.86
101683.14
101648.73
101615.96
101583.64
101553.21
101526.18
101501.54
101479.96
101461.84
101446.51
101434.08
101424.35
101417.23
101411.99
101408.09
101405.24
101403.27
101402.11
101401.91
101859.9
101853.93
101846.75
101838.52
101829.08
101818.16
101805.51
101791
101774.92
101756.74
101738.7
101722.53
101700.37
101669.4
101637.32
101606.6
101575.94
101547.85
101522.46
101499.72
101480.1
101463.29
101449.14
101437.37
101428.21
101421.28
101415.92
101411.88
101408.96
101407.16
101406.77
101834.02
101829.21
101823.39
101816.76
101809.18
101800.47
101790.46
101779.07
101766.21
101751.87
101735.33
101715.63
101697.61
101680.04
101652.93
101623.9
101596.44
101568.3
101541.57
101517.96
101497.44
101479.58
101464.2
101450.91
101439.78
101431.12
101424.33
101419.1
101415.21
101412.76
101412.12
101803.88
101800.1
101795.54
101790.36
101784.44
101777.64
101769.82
101760.86
101750.62
101738.91
101725.77
101711.55
101694.77
101678.58
101661.64
101637.51
101612.79
101586.37
101559.52
101535.07
101513.73
101495.12
101478.65
101464.24
101451.7
101441.44
101433.26
101426.89
101422.06
101418.95
101417.97
101776.85
101773.89
101770.31
101766.24
101761.59
101756.24
101750.07
101742.96
101734.75
101725.29
101714.37
101701.73
101687.55
101671.25
101655.84
101643.01
101625.61
101601.7
101575.73
101551.99
101529.48
101509.87
101492.51
101477.11
101463.69
101452.22
101442.79
101435.29
101429.56
101425.79
101424.35
101748.14
101745.86
101743.1
101739.99
101736.43
101732.33
101727.61
101722.16
101715.87
101708.65
101700.37
101690.95
101680.25
101668.16
101654.75
101639.38
101623.64
101607.72
101587.09
101566.82
101545.03
101524.14
101506.18
101489.94
101475.77
101463.45
101452.94
101444.36
101437.69
101433.28
101431.32
101722.02
101720.27
101718.15
101715.76
101713.03
101709.88
101706.24
101702.04
101697.19
101691.57
101685.08
101677.58
101668.96
101659.15
101648.12
101636.11
101622.03
101605.03
101589.85
101574.32
101557.57
101538.27
101519.59
101502.97
101488
101474.89
101463.49
101453.96
101446.43
101441.37
101438.89
101696.22
101694.89
101693.29
101691.48
101689.42
101687.04
101684.28
101681.1
101677.41
101673.14
101668.2
101662.5
101655.89
101648.32
101639.69
101629.48
101618.67
101608.76
101594.66
101577.07
101562.11
101547.76
101531.06
101514.67
101499.67
101486
101473.98
101463.84
101455.64
101449.97
101447.04
101672.86
101671.86
101670.65
101669.28
101667.72
101665.91
101663.81
101661.37
101658.55
101655.26
101651.45
101647.04
101641.96
101636.1
101629.29
101621.66
101612.75
101603.66
101596.62
101584.3
101567.89
101553.32
101538.3
101523.34
101509.65
101496.35
101484.13
101473.72
101465.16
101459.01
101455.72
101651.5
101650.77
101649.91
101648.93
101647.81
101646.51
101644.99
101643.24
101641.19
101638.79
101636
101632.74
101628.92
101624.46
101619.29
101613.21
101606.25
101598.5
101590.05
101583.41
101573.87
101559.82
101545.18
101531.02
101518.27
101505.99
101494.1
101483.56
101474.87
101468.41
101464.84
101632.72
101632.18
101631.53
101630.79
101629.95
101628.97
101627.84
101626.52
101624.99
101623.2
101621.12
101618.7
101615.89
101612.65
101608.84
101604.4
101599.27
101593.65
101587.24
101579.17
101571.74
101563.77
101552.29
101539.46
101526.73
101514.98
101503.83
101493.36
101484.64
101478.04
101474.23
101616.52
101616.13
101615.67
101615.15
101614.55
101613.85
101613.04
101612.09
101610.98
101609.68
101608.18
101606.44
101604.38
101601.97
101599.17
101595.98
101592.26
101587.76
101582.47
101576.47
101568.83
101561.17
101554.51
101545.58
101534.14
101523.06
101512.67
101502.74
101494.21
101487.61
101483.65
101604.94
101604.64
101604.29
101603.9
101603.45
101602.94
101602.34
101601.65
101600.84
101599.9
101598.78
101597.45
101595.89
101594.04
101591.85
101589.26
101586.14
101582.52
101578.2
101573.21
101567.72
101560.74
101552.58
101545.63
101538.61
101529.3
101519.74
101510.99
101503.14
101496.67
101492.7
101594.17
101593.91
101593.61
101593.27
101592.88
101592.42
101591.88
101591.26
101590.54
101589.69
101588.71
101587.56
101586.23
101584.7
101582.94
101580.89
101578.53
101575.74
101572.49
101568.71
101564.12
101559.04
101554.39
101548.37
101540.86
101533.43
101525.62
101517.99
101510.78
101504.68
101500.92
101582.13
101582.01
101581.85
101581.68
101581.47
101581.23
101580.95
101580.63
101580.24
101579.78
101579.24
101578.59
101577.81
101576.86
101575.7
101574.3
101572.63
101570.64
101568.26
101565.45
101562.16
101558.38
101553.92
101548.62
101542.62
101536.07
101529.12
101521.99
101515.21
101509.54
101506.03
100485.32
100473.21
100465.67
100457.9
100449.06
100443.21
100446.52
100460.79
100483.02
100517.22
100562.41
100617.11
100679.88
100748.39
100820.28
100898.95
100967.07
101040.14
101085.83
101132.41
101173.69
101208.56
101238.36
101263.58
101284.72
101302.33
101316.68
101327.96
101336.75
101342.52
101346.54
100498.2
100484.29
100465.28
100449.59
100438.08
100434.31
100441.91
100461.63
100491.18
100531
100580.05
100637.14
100700.95
100768.87
100839.33
100915.03
100981.62
101048.41
101089.03
101138.23
101178.61
101212.67
101241.72
101266.32
101286.97
101304.18
101318.2
101329.25
101337.87
101343.53
101347.48
100462.36
100438.56
100415.79
100402.55
100398.9
100404.62
100421.58
100450.2
100487.08
100533.02
100586.96
100647.62
100713.67
100782.38
100853.26
100926.97
100994.8
101056.26
101094.74
101144.65
101183.74
101216.89
101245.14
101269.11
101289.24
101306.04
101319.75
101330.54
101339
101344.54
101348.4
100403.32
100382.47
100366.26
100360.35
100364.22
100378.01
100402.78
100438.16
100481.57
100533.12
100591.53
100655.47
100723.67
100793.44
100865.84
100937.51
101006.45
101063.91
101101.82
101151.05
101188.82
101221.08
101248.56
101271.9
101291.53
101307.92
101321.3
101331.84
101340.13
101345.56
101349.31
100325.39
100312.15
100305.29
100309.72
100324.41
100348.92
100383.31
100426.61
100477.08
100534.28
100596.94
100663.9
100733.99
100804.73
100878.83
100949.15
101017.45
101070.97
101109.26
101157.35
101193.89
101225.26
101251.98
101274.7
101293.82
101309.81
101322.86
101333.16
101341.27
101346.59
101350.25
100232.5
100231.26
100238.02
100256.3
100284.12
100320.47
100364.94
100416.55
100474.03
100536.66
100603.32
100673.06
100744.79
100816.36
100892
100961.62
101026.84
101077.12
101116.85
101163.55
101198.91
101229.41
101255.38
101277.49
101296.12
101311.71
101324.43
101334.48
101342.42
101347.62
101351.2
100125.44
100142.53
100167.47
100202.21
100244.51
100293.27
100348.04
100408.06
100472.3
100540.04
100610.4
100682.64
100755.75
100827.98
100904.46
100973.22
101036.16
101083.08
101124.54
101169.63
101203.89
101233.54
101258.77
101280.28
101298.42
101313.61
101326.01
101335.81
101343.58
101348.66
101352.17
100016.03
100054.51
100098.96
100150.64
100207.52
100268.52
100333.38
100401.47
100472.02
100544.45
100618.13
100692.59
100766.79
100839.6
100915.8
100984.49
101046.7
101089.28
101132.26
101175.6
101208.84
101237.63
101262.14
101283.06
101300.71
101315.51
101327.6
101337.15
101344.75
101349.71
101353.14
99913.26
99972.611
100035.52
100103.67
100174.66
100247.25
100321.56
100397.11
100473.37
100549.95
100626.55
100702.89
100777.96
100852.05
100927.68
100995.46
101056.58
101096.14
101139.93
101181.48
101213.74
101241.68
101265.49
101285.82
101303
101317.41
101329.18
101338.5
101345.92
101350.76
101354.12
99821.4
99900.807
99979.924
100063.63
100147.64
100230.42
100313.14
100395.26
100476.46
100556.6
100635.66
100713.55
100789.46
100865.19
100939.6
101006.03
101065.49
101103.69
101147.49
101187.28
101218.59
101245.7
101268.82
101288.58
101305.28
101319.31
101330.77
101339.84
101347.09
101351.82
101355.11
99744.052
99840.433
99936.39
100033.19
100127.79
100218.8
100308.67
100396.18
100481.41
100564.42
100645.46
100724.71
100801.84
100878.66
100950.74
101016.39
101073.76
101111.61
101154.89
101192.99
101223.39
101249.68
101272.12
101291.32
101307.56
101321.2
101332.36
101341.2
101348.28
101352.88
101356.09
99689.061
99799.039
99906.898
100012.52
100114.66
100213.36
100308.83
100400.21
100488.38
100573.52
100656.14
100736.69
100815.12
100890.31
100960.7
101026.69
101081.7
101119.68
101162.14
101198.63
101228.14
101253.62
101275.4
101294.03
101309.82
101323.08
101333.94
101342.55
101349.46
101353.94
101357.08
99661.082
99778.886
99893.032
100003.9
100110.98
100214
100313.23
100407.99
100498.01
100584.54
100668.22
100749.65
100826.49
100899.72
100971.2
101036.38
101089.54
101127.82
101169.23
101204.19
101232.83
101257.52
101278.64
101296.73
101312.06
101324.96
101335.52
101343.9
101350.64
101355.01
101358.08
99660.484
99780.967
99896.129
100008.16
100116.95
100221.81
100323.07
100419.93
100511.41
100598.42
100681.72
100760.73
100836.44
100909.97
100981.3
101045.2
101097.56
101135.97
101176.16
101209.69
101237.45
101261.36
101281.85
101299.4
101314.28
101326.83
101337.1
101345.25
101351.83
101356.08
101359.08
99673.446
99798.08
99913.88
100025.24
100133.42
100238.16
100339.61
100435.54
100526.32
100611.56
100691.46
100769.85
100847.75
100920.39
100990.85
101054.48
101105.85
101144.13
101182.94
101215.11
101242.01
101265.16
101285.01
101302.04
101316.49
101328.68
101338.67
101346.59
101353.02
101357.15
101360.08
99694.261
99820.487
99937.684
100049.28
100156.28
100258.96
100358.04
100449.31
100535.18
100619.98
100703.13
100782.41
100859.55
100930.74
101000.32
101064.16
101114.25
101152.27
101189.54
101220.44
101246.5
101268.9
101288.14
101304.64
101318.67
101330.51
101340.22
101347.93
101354.2
101358.23
101361.08
99761.695
99870.234
99973.841
100076.94
100178.61
100276.58
100368.87
100459.96
100550.71
100635.53
100717.32
100795.75
100871.5
100941.02
101009.72
101073.69
101122.67
101160.33
101195.96
101225.68
101250.91
101272.58
101291.22
101307.22
101320.82
101332.33
101341.77
101349.27
101355.38
101359.3
101362.09
99900.949
99984.383
100062.51
100144.14
100229.45
100315.63
100400.07
100486.12
100572.28
100653.69
100732.66
100809.35
100883.57
100951.32
101019.04
101083.11
101131.05
101168.26
101202.23
101230.84
101255.25
101276.21
101294.25
101309.75
101322.95
101334.13
101343.31
101350.6
101356.56
101360.37
101363.1
100033.85
100102.91
100163.11
100226.53
100295.23
100367.28
100440.65
100517.94
100597.17
100673.53
100748.88
100823.3
100895.76
100961.69
101028.27
101092.48
101139.35
101176.03
101208.38
101235.91
101259.52
101279.77
101297.23
101312.25
101325.05
101335.91
101344.83
101351.91
101357.73
101361.44
101364.1
100184.72
100234.24
100273.76
100317.83
100368.92
100425.26
100486.18
100553.72
100624.58
100695.08
100765.99
100837.54
100907.97
100972.14
101037.41
101101.76
101147.52
101183.62
101214.42
101240.87
101263.68
101283.25
101300.15
101314.69
101327.11
101337.65
101346.33
101353.22
101358.9
101362.51
101365.11
100354.7
100381.26
100397.28
100419.38
100450.45
100488.93
100537.37
100593.42
100654.29
100718.32
100784
100852.01
100920.09
100982.63
101046.46
101110.72
101155.48
101190.91
101220.27
101245.68
101267.72
101286.63
101302.98
101317.07
101329.11
101339.37
101347.8
101354.51
101360.05
101363.58
101366.13
100544.21
100543.82
100534.34
100532.17
100540.6
100561.86
100596.05
100637.37
100687.76
100744.33
100803.82
100867.39
100932.6
100993.43
101055.46
101119.04
101162.98
101197.59
101225.83
101250.28
101271.59
101289.87
101305.72
101319.38
101331.07
101341.05
101349.26
101355.79
101361.2
101364.65
101367.14
100760.45
100732.92
100699.04
100670.2
100654.82
100655.02
100668.63
100693.97
100730.59
100777.15
100828.7
100886.28
100947.33
101005.69
101065.03
101126.8
101169.69
101203.42
101231.1
101254.74
101275.35
101293.04
101308.4
101321.65
101333.01
101342.71
101350.71
101357.07
101362.35
101365.72
101368.16
100986.45
100946.61
100903.87
100854.05
100810.36
100781.28
100768.67
100772.35
100790.85
100821.37
100861.78
100911.03
100966.09
101020.95
101076.53
101135.48
101176.22
101209.24
101236.59
101259.38
101279.23
101296.3
101311.14
101323.95
101334.96
101344.39
101352.16
101358.34
101363.5
101366.78
101369.18
100524.13
100519.99
100512.15
100503.63
100496.29
100491.64
100492.96
100502.77
100520.1
100548.89
100588.44
100637.66
100695.19
100758.9
100825.71
100898.57
100962.13
101029.47
101080.04
101126.5
101169.27
101204.98
101235.45
101261.2
101282.78
101300.74
101315.37
101326.87
101335.82
101341.69
101345.72
100533.37
100532.52
100526.01
100517.51
100510.04
100506.1
100507.51
100513.81
100529.06
100555.39
100592.37
100639.2
100694.69
100756.95
100823
100895.05
100960.95
101025.78
101078.66
101124
101166.92
101202.85
101233.61
101259.64
101281.46
101299.62
101314.42
101326.07
101335.11
101341.05
101345.04
100529.84
100530.34
100525.86
100521.53
100517.55
100515.73
100518.11
100524.74
100539.56
100564.27
100599.1
100643.65
100696.97
100757.44
100822.33
100892.89
100959.71
101024.13
101077.07
101121.85
101164.95
101201
101231.97
101258.19
101280.19
101298.52
101313.48
101325.24
101334.38
101340.39
101344.15
100527.39
100528.75
100527.62
100526.74
100525.96
100526.4
100530.02
100537.71
100552.36
100575.63
100608.36
100650.52
100701.43
100759.73
100823
100891.37
100958.13
101022.16
101074.95
101119.36
101162.75
101199
101230.19
101256.63
101278.83
101297.34
101312.45
101324.36
101333.58
101339.67
101343.16
100527.85
100530.91
100532.66
100533.88
100535.14
100537.39
100542.22
100550.8
100565.3
100587.4
100618.25
100658.15
100706.68
100762.74
100824.18
100890.06
100956.36
101019.91
101072.57
101116.62
101160.31
101196.78
101228.23
101254.91
101277.34
101296.05
101311.34
101323.39
101332.73
101338.89
101342.29
100529.72
100534.36
100537.99
100540.95
100543.86
100547.7
100553.71
100563.09
100577.59
100598.83
100628.11
100665.97
100712.26
100766.1
100825.66
100888.98
100954.6
101017.75
101070.05
101113.82
101157.74
101194.42
101226.14
101253.07
101275.75
101294.67
101310.14
101322.36
101331.81
101338.07
101341.6
100532.05
100537.86
100542.88
100547.4
100551.93
100557.27
100564.48
100574.66
100589.32
100609.97
100637.95
100674
100718.19
100769.87
100827.5
100888.35
100953.3
101015.83
101067.69
101110.93
101155.13
101192
101223.96
101251.15
101274.07
101293.2
101308.88
101321.26
101330.83
101337.19
101340.89
100535.08
100541.83
100547.98
100553.82
100559.77
100566.46
100574.78
100585.76
100600.68
100620.93
100647.85
100682.29
100724.52
100774.1
100829.78
100888.56
100952.47
101013.85
101065.84
101108.06
101152.51
101189.52
101221.72
101249.15
101272.31
101291.67
101307.54
101320.1
101329.8
101336.25
101339.83
100538.98
100547.04
100553.98
100560.77
100567.8
100575.59
100584.88
100596.58
100611.8
100631.79
100657.85
100690.87
100731.29
100778.84
100832.56
100889.65
100951.62
101011.56
101064.27
101105.35
101149.87
101187
101219.41
101247.08
101270.47
101290.05
101306.13
101318.87
101328.7
101335.25
101338.6
100544.98
100553.38
100560.98
100568.45
100576.26
100584.88
100594.94
100607.26
100622.77
100642.61
100667.96
100699.74
100738.49
100784.11
100835.87
100891.34
100950.85
101009.5
101062.63
101102.83
101147.25
101184.45
101217.05
101244.93
101268.56
101288.36
101304.64
101317.57
101327.53
101334.19
101337.4
100552.45
100561.12
100569.13
100576.98
100585.28
100594.48
100605.14
100617.95
100633.73
100653.49
100678.26
100708.96
100746.18
100789.96
100839.75
100893.54
100951.1
101008.05
101060.73
101100.55
101144.65
101181.87
101214.63
101242.71
101266.56
101286.59
101303.08
101316.19
101326.29
101333.07
101336.34
100561.19
100569.96
100578.3
100586.26
100594.89
100604.5
100615.6
100628.8
100644.83
100664.53
100688.84
100718.59
100754.41
100796.43
100844.29
100896.32
100952.05
101007.2
101058.91
101098.63
101142.1
101179.28
101212.16
101240.42
101264.49
101284.73
101301.43
101314.73
101324.98
101331.87
101335.27
100571.04
100579.66
100588.06
100596.28
100605.06
100614.97
100626.43
100639.96
100656.21
100675.89
100699.81
100728.73
100763.26
100803.61
100849.54
100899.73
100953.57
101007.02
101057.38
101096.87
101139.63
101176.73
101209.68
101238.08
101262.35
101282.79
101299.7
101313.19
101323.59
101330.6
101334.13
100581.89
100590.11
100598.53
100606.86
100615.83
100625.98
100637.75
100651.59
100668.05
100687.73
100711.32
100739.5
100772.83
100811.57
100855.58
100903.86
100955.64
101006.91
101056.05
101095.72
101137.29
101174.22
101207.19
101235.69
101260.13
101280.78
101297.88
101311.57
101322.12
101329.26
101332.88
100593.34
100601.28
100609.56
100617.94
100627.09
100637.54
100649.66
100663.85
100680.54
100700.26
100723.56
100751.05
100783.23
100820.4
100862.49
100908.77
100958.38
101007.44
101055.02
101094.9
101135.11
101171.81
101204.72
101233.27
101257.86
101278.7
101295.99
101309.87
101320.57
101327.83
101331.53
100605.41
100612.58
100620.46
100629.23
100638.88
100649.82
100662.41
100677.01
100693.97
100713.73
100736.76
100763.58
100794.64
100830.23
100870.38
100914.54
100961.79
101008.61
101054.58
101094.47
101133.13
101169.52
101202.29
101230.84
101255.55
101276.54
101294.02
101308.08
101318.93
101326.33
101330.1
100617.83
100624.97
100633.18
100642.05
100651.94
100663.35
100676.47
100691.5
100708.73
100728.51
100751.23
100777.33
100807.23
100841.22
100879.36
100921.26
100965.8
101010.29
101054.86
101094.56
101131.4
101167.41
101199.94
101228.41
101253.2
101274.33
101291.97
101306.21
101317.21
101324.73
101328.59
100633.25
100640.4
100648.02
100656.18
100666.72
100678.85
100692.51
100707.94
100725.35
100745.04
100767.34
100792.61
100821.25
100853.53
100889.56
100929.05
100970.62
101012.93
101056.88
101095.22
101130
101165.51
101197.69
101226.02
101250.82
101272.07
101289.85
101304.26
101315.4
101323.06
101326.99
100650.46
100656.85
100665.56
100675.41
100686.04
100698.09
100711.83
100727.31
100744.61
100763.92
100785.54
100809.77
100836.95
100867.37
100901.16
100938.11
100977.01
101017.39
101060.11
101096.16
101129.02
101163.91
101195.57
101223.68
101248.45
101269.76
101287.66
101302.22
101313.51
101321.29
101325.31
100674.66
100680.7
100688.94
100698.49
100709.13
100721.33
100735.07
100750.32
100767.15
100785.72
100806.29
100829.14
100854.58
100882.91
100914.29
100948.6
100984.97
101022.8
101062.4
101097.41
101128.83
101162.66
101193.61
101221.44
101246.11
101267.43
101285.42
101300.11
101311.53
101319.43
101323.54
100708.66
100714.38
100720.91
100728.57
100738.8
100750.61
100763.68
100778.02
100793.74
100810.99
100830
100851.04
100874.39
100900.33
100929.07
100960.56
100994.22
101029.27
101065.6
101099.31
101129.15
101161.8
101191.86
101219.3
101243.81
101265.09
101283.13
101297.93
101309.47
101317.49
101321.67
100749.22
100754.25
100761.1
100768.91
100777.62
100787.53
100798.69
100811.13
100824.88
100840.08
100856.93
100875.64
100896.47
100919.7
100945.54
100974.01
101004.71
101036.91
101070.41
101102.01
101130.15
101161.45
101190.3
101217.36
101241.59
101262.75
101280.81
101295.69
101307.33
101315.46
101319.71
100797.3
100801.26
100807.12
100814.05
100821.19
100829.24
100838.36
100848.56
100859.93
100872.62
100886.85
100902.81
100920.76
100940.97
100963.67
100988.9
101016.43
101045.62
101076.18
101105.29
101132.12
101161.61
101188.98
101215.6
101239.47
101260.45
101278.47
101293.39
101305.12
101313.34
101317.66
100848.04
100851.91
100857.09
100862.21
100867.74
100874
100881.05
100888.92
100897.77
100907.77
100919.15
100932.12
100946.96
100963.94
100983.3
101005.14
101029.32
101055.25
101082.19
101107.89
101134.35
101162.61
101188.83
101214.19
101237.53
101258.21
101276.12
101291.06
101302.83
101311.13
101315.51
100898.56
100901.96
100906.09
100910.21
100914.58
100919.37
100924.63
100930.43
100936.92
100944.33
100952.89
100962.85
100974.52
100988.2
101004.15
101022.54
101043.28
101065.87
101089.35
101113.26
101137.52
101164.02
101189.24
101213.1
101235.75
101256.05
101273.79
101288.69
101300.49
101308.85
101313.28
100946.45
100949.31
100952.75
100956.18
100959.7
100963.38
100967.23
100971.32
100975.83
100980.96
100986.94
100994.09
101002.73
101013.2
101025.82
101040.8
101058.16
101077.56
101098.25
101120.35
101142.05
101165.19
101188.85
101212.39
101234.28
101254.02
101271.51
101286.3
101298.1
101306.49
101310.96
100990.87
100992.96
100995.82
100998.71
101001.6
101004.47
101007.3
101010.13
101013.07
101016.33
101020.14
101024.82
101030.73
101038.26
101047.76
101059.52
101073.66
101089.97
101107.88
101127.26
101146.11
101166.96
101189.87
101212.16
101233.02
101252.14
101269.29
101283.93
101295.67
101304.08
101308.57
101031.09
101032.6
101034.87
101037.22
101039.53
101041.76
101043.84
101045.73
101047.5
101049.31
101051.39
101054.05
101057.67
101062.64
101069.38
101078.24
101089.39
101102.76
101117.89
101134.45
101150.95
101170.07
101191.82
101212.18
101231.7
101250.42
101267.17
101281.58
101293.22
101301.61
101306.12
101069.3
101069.88
101071.21
101072.68
101074.11
101075.45
101076.63
101077.61
101078.38
101079.05
101079.8
101080.91
101082.71
101085.63
101090.08
101096.45
101104.98
101115.7
101128.27
101142.42
101156.87
101173.54
101192.94
101212.46
101231.32
101248.99
101265.16
101279.28
101290.77
101299.11
101303.6
101101.62
101102.51
101103.26
101104.03
101104.68
101105.18
101105.49
101105.56
101105.43
101105.15
101104.86
101104.79
101105.26
101106.63
101109.31
101113.7
101120.06
101128.5
101138.78
101150.68
101163.05
101177.28
101195.01
101213.71
101231.21
101247.71
101263.28
101277.05
101288.34
101296.59
101301.06
101125.04
101124.78
101126.08
101127.69
101129.23
101129.83
101129.42
101128.79
101128.02
101127.08
101126.08
101125.24
101124.84
101125.21
101126.69
101129.63
101134.33
101140.92
101149.26
101159.15
101169.72
101182.1
101198.12
101214.83
101231.2
101246.81
101261.56
101274.93
101285.96
101294.09
101298.49
101149.43
101148.16
101147.05
101145.99
101145.04
101144.93
101145.56
101145.98
101145.53
101144.33
101143.08
101141.99
101141.27
101141.18
101142.01
101144.07
101147.6
101152.79
101159.57
101167.76
101176.79
101187.32
101201.19
101216.06
101231.69
101246.45
101260.07
101272.96
101283.66
101291.61
101295.93
101165.08
101164.56
101164.07
101163.4
101162.36
101161
101159.5
101158.05
101157.15
101156.7
101156.04
101155.24
101154.71
101154.68
101155.37
101157.02
101159.86
101164.05
101169.61
101176.36
101184.02
101192.77
101204.78
101218.21
101232.55
101246.14
101258.87
101271.2
101281.46
101289.19
101293.4
101172.06
101171.74
101171.42
101171.06
101170.66
101170.18
101169.58
101168.83
101167.96
101167.04
101166.4
101166.17
101166.16
101166.48
101167.3
101168.83
101171.27
101174.77
101179.35
101184.91
101191.35
101198.53
101208.9
101220.62
101233.22
101246.18
101258.4
101269.63
101279.4
101286.86
101290.94
101176.75
101176.81
101176.79
101176.67
101176.51
101176.35
101176.2
101176.1
101176.08
101176.2
101176.19
101176.23
101176.69
101177.41
101178.45
101179.97
101182.15
101185.1
101188.86
101193.42
101198.74
101204.56
101213.3
101223.46
101234.62
101246.3
101257.93
101268.34
101277.5
101284.62
101288.58
101182.47
101182.82
101183.1
101183.33
101183.6
101183.95
101184.38
101184.81
101185.15
101185.17
101185.43
101186.34
101187.28
101188.27
101189.45
101190.91
101192.79
101195.21
101198.23
101201.86
101206.11
101210.8
101217.94
101226.72
101236.47
101247.09
101257.67
101267.22
101275.82
101282.53
101286.34
101190.56
101190.93
101191.29
101191.64
101192.06
101192.62
101193.27
101193.82
101194.29
101195.35
101196.84
101197.94
101198.85
101199.79
101200.81
101201.98
101203.4
101205.21
101207.48
101210.23
101213.48
101217.19
101222.81
101230.34
101238.86
101248.44
101257.63
101266.17
101274.36
101280.61
101284.25
101202.98
101202.97
101203.13
101203.33
101203.6
101203.93
101204.41
101205.31
101206.62
101207.87
101208.84
101209.68
101210.49
101211.27
101212.02
101212.82
101213.75
101214.94
101216.48
101218.41
101220.75
101223.58
101227.87
101234.17
101241.47
101249.54
101257.9
101265.82
101273.17
101278.93
101282.35
101216.85
101216.94
101216.99
101217.07
101217.21
101217.48
101218.09
101218.78
101219.33
101219.94
101220.6
101221.22
101221.75
101222.21
101222.61
101223
101223.45
101224.08
101224.99
101226.22
101227.8
101229.86
101233.07
101238.17
101244.25
101251.08
101258.48
101265.78
101272.31
101277.51
101280.68
101229.95
101229.76
101229.74
101229.77
101229.82
101229.87
101229.9
101230.37
101231.35
101231.96
101232.06
101232.09
101232.11
101232.11
101232.09
101232.07
101232.12
101232.33
101232.76
101233.48
101234.5
101235.95
101238.28
101242.32
101247.32
101253.06
101259.65
101266.17
101271.57