/*--------------------------------*- C++ -*----------------------------------*\
| =========                 |                                                 |
| \\      /  F ield         | OpenFOAM: The Open Source CFD Toolbox           |
|  \\    /   O peration     | Version:  2406                                  |
|   \\  /    A nd           | Website:  www.openfoam.com                      |
|    \\/     M anipulation  |                                                 |
\*---------------------------------------------------------------------------*/
FoamFile
{
    version     2.0;
    format      ascii;
    arch        "LSB;label=32;scalar=64";
    class       surfaceScalarField;
    location    "0.076";
    object      phi;
}
// * * * * * * * * * * * * * * * * * * * * * * * * * * * * * * * * * * * * * //

dimensions      [1 0 -1 0 0 0 0];

oriented        oriented;

internalField   nonuniform List<scalar> 
16284
(
0.010480891
-0.014615473
0.015060656
-0.010926076
0.010039628
-0.017161029
0.01760229
0.0095770955
-0.020082027
0.020544557
0.0090965456
-0.023457665
0.023938216
0.008605192
-0.027357045
0.027848401
0.008113285
-0.031846549
0.03233846
0.0076327526
-0.037001149
0.03748169
0.0071732544
-0.042910765
0.043370284
0.006740591
-0.049698354
0.050131054
0.0063370627
-0.057505291
0.057908876
0.0059632065
-0.06645977
0.066833702
0.0056145802
-0.076727501
0.077076219
0.0052810754
-0.088474203
0.0888078
0.0049453351
-0.10182469
0.10216051
0.0045786516
-0.1166159
0.11698262
0.0041146264
-0.13249486
0.13295891
0.003538038
-0.1486543
0.14923096
0.0030177667
-0.1659424
0.16646273
0.0026305155
-0.18679682
0.18718417
0.0022993199
-0.21104052
0.2113718
0.0020014429
-0.23864417
0.23894211
0.0017308197
-0.26985555
0.27012626
0.0014889939
-0.30526934
0.30551125
0.0012722967
-0.3455886
0.34580539
0.001069232
-0.39125229
0.39145534
0.00087800764
-0.44299902
0.44319013
0.00069662474
-0.50166999
0.50185119
0.00052295291
-0.56839819
0.56857173
0.00035274793
-0.64416809
0.64433833
0.00018113231
-0.73045431
0.73062604
-0.82846775
0.82864886
0.011617293
-0.014225463
-0.012007317
0.011179193
-0.016722942
0.01071451
-0.019617355
0.010227043
-0.022970204
0.0097215293
-0.026851533
0.0092071797
-0.031332195
0.0086957894
-0.036489744
0.0081991496
-0.042414096
0.0077235082
-0.049222662
0.0072720954
-0.057053803
0.0068475728
-0.066035148
0.006446864
-0.076326678
0.0060598944
-0.088087124
0.0056635812
-0.10142828
0.0052269065
-0.11617918
0.0046745881
-0.13194251
0.0040009849
-0.14798062
0.003417904
-0.16535927
0.0029846264
-0.18636343
0.0026099956
-0.21066579
0.0022720291
-0.23830612
0.0019648949
-0.26954831
0.001690465
-0.30499482
0.0014445899
-0.34534262
0.0012139879
-0.39102171
0.00099679656
-0.44278196
0.00079086012
-0.50146425
0.00059359418
-0.56820107
0.00040036458
-0.64397483
0.00020543551
-0.73025925
-0.82826234
0.012752711
-0.013884618
-0.013093579
0.012355209
-0.016325462
0.011914367
-0.01917653
0.011438222
-0.02249407
0.010933267
-0.02634658
0.010408539
-0.030807458
0.0098756296
-0.035956812
0.0093474642
-0.041885886
0.0088324591
-0.048707586
0.0083338157
-0.05655506
0.0078566328
-0.065557842
0.0073990604
-0.075868969
0.0069512806
-0.087639218
0.0064850595
-0.10096196
0.0059648883
-0.11565897
0.0053055078
-0.1312831
0.0045233855
-0.14719843
0.0038811483
-0.16471697
0.0033970785
-0.18587924
0.0029725481
-0.21024115
0.0025878865
-0.23792137
0.0022379229
-0.26919821
0.0019250017
-0.30468179
0.001644744
-0.34506225
0.0013818454
-0.39075882
0.0011342951
-0.44253455
0.00089978426
-0.50122996
0.00067517187
-0.56797663
0.0004554094
-0.64375502
0.00023363252
-0.73003733
-0.82802873
0.013903663
-0.013601835
-0.014186476
0.013562232
-0.015984056
0.013166251
-0.018780568
0.012721768
-0.022049596
0.012235471
-0.025860279
0.011716081
-0.030288051
0.011174842
-0.035415534
0.010624727
-0.041335708
0.010075859
-0.048158623
0.0095331314
-0.056012206
0.0090027137
-0.065027274
0.0084841444
-0.075350242
0.0079678165
-0.087122749
0.007420749
-0.1004148
0.0068000845
-0.11503828
0.0060111209
-0.13049413
0.0051084388
-0.14629569
0.004407689
-0.16401617
0.0038644867
-0.1853359
0.0033830179
-0.20975955
0.0029451476
-0.23748339
0.0025466306
-0.26879954
0.0021901475
-0.30432517
0.0018710704
-0.34474303
0.0015716911
-0.39045945
0.0012898153
-0.44225283
0.0010230158
-0.5009634
0.00076743673
-0.56772124
0.00051764948
-0.64350519
0.00026542811
-0.72978494
-0.82776333
0.015066684
-0.01338575
-0.015282797
0.01479206
-0.015709454
0.014457282
-0.018445801
0.014064125
-0.021656436
0.013616747
-0.025412885
0.01312197
-0.029793238
0.012589556
-0.034883059
0.012031477
-0.040777536
0.011458573
-0.047585594
0.010877822
-0.055431296
0.010295899
-0.064445173
0.0097134403
-0.074767604
0.0091207038
-0.086529861
0.0084798304
-0.099773825
0.0077364441
-0.11429488
0.0067924392
-0.12955013
0.005762652
-0.14526587
0.0050045201
-0.163258
0.0043951128
-0.18472635
0.0038501475
-0.20921443
0.0033523664
-0.23698549
0.0028990464
-0.26834603
0.0024930209
-0.30391899
0.0021296465
-0.34437949
0.0017885733
-0.39011838
0.0014674258
-0.44193185
0.0011637358
-0.50065998
0.00087273386
-0.56743047
0.00058873896
-0.64322115
0.00030172148
-0.72949772
-0.82746162
0.016232104
-0.013243644
-0.016374225
0.016034242
-0.015511592
0.015774718
-0.018186264
0.015450902
-0.021332594
0.015062851
-0.025024791
0.014613773
-0.029344096
0.014110381
-0.034379575
0.013562315
-0.040229343
0.012979737
-0.047002854
0.012370647
-0.054822016
0.011741822
-0.063816143
0.01109425
-0.074119837
0.010417145
-0.085852598
0.009666715
-0.099023306
0.0087719265
-0.1134001
0.0076454693
-0.1284237
0.0064946668
-0.14411505
0.0056783959
-0.1624417
0.0049957702
-0.18404357
0.0043797724
-0.20859827
0.0038143977
-0.23641998
0.0032993678
-0.26783077
0.0028372188
-0.30345665
0.0024235286
-0.34396561
0.0020351019
-0.38972994
0.0016692861
-0.44156621
0.0013236886
-0.50031468
0.00099236296
-0.56709941
0.00066954003
-0.64289827
0.00034288341
-0.72917084
-0.82711875
0.017395964
-0.013180362
-0.017459233
0.017282163
-0.015397765
0.017109237
-0.01801329
0.016869894
-0.021093189
0.016559446
-0.024714265
0.016176504
-0.028961052
0.015723355
-0.033926294
0.015205739
-0.039711562
0.01463129
-0.046428206
0.014007127
-0.05419763
0.013338946
-0.063147736
0.012626654
-0.073407341
0.011856398
-0.085082191
0.010976414
-0.098143253
0.009893282
-0.11231701
0.0085610876
-0.12709158
0.0073156101
-0.14286959
0.0064352663
-0.16156134
0.0056736461
-0.18328179
0.0049790177
-0.20790348
0.0043381751
-0.23577898
0.0037543044
-0.26724663
0.0032289729
-0.30293109
0.0027581284
-0.34349454
0.0023159121
-0.3892877
0.0018992029
-0.44114969
0.0015059142
-0.49992172
0.0011285842
-0.56672239
0.00076163177
-0.64253125
0.00038972403
-0.72879868
-0.82672902
0.018570987
-0.013196222
-0.01855507
0.018543387
-0.015370102
0.018461182
-0.017931012
0.018314366
-0.020946283
0.018094075
-0.024493862
0.017793759
-0.028660599
0.01741007
-0.033542437
0.016943189
-0.03924448
0.016396039
-0.045880823
0.015772319
-0.053573662
0.015074393
-0.062449571
0.014298316
-0.072631064
0.013422989
-0.08420673
0.012386777
-0.097107003
0.011070328
-0.11100065
0.0095278302
-0.1255492
0.0082337824
-0.14157559
0.007280981
-0.16060853
0.0064349691
-0.18243562
0.0056540492
-0.20712242
0.0049297155
-0.23505446
0.0042695761
-0.26658616
0.0036737048
-0.30233494
0.0031381067
-0.34295868
0.0026350294
-0.38878457
0.0021605134
-0.44067537
0.0017130923
-0.49947465
0.0012834243
-0.56629308
0.00086637593
-0.64211413
0.00044288829
-0.72837489
-0.8262861
0.019766709
-0.013284568
-0.019678255
0.019821447
-0.01542473
0.01982896
-0.017938411
0.019776859
-0.02089406
0.019652948
-0.024369817
0.019445701
-0.028453196
0.019145664
-0.033242212
0.018746286
-0.038844877
0.018243744
-0.045378027
0.017635431
-0.052965086
0.016917076
-0.061730977
0.016075919
-0.071789725
0.015073744
-0.083204452
0.013844588
-0.095877848
0.012255784
-0.10941198
0.010543749
-0.12383733
0.0092502099
-0.14028213
0.008220964
-0.15957929
0.0072842009
-0.18149877
0.0064104268
-0.20624853
0.0055951618
-0.23423894
0.0048515832
-0.26584221
0.0041779584
-0.30166098
0.0035693158
-0.34234973
0.0029975651
-0.38821273
0.0024574796
-0.44013547
0.0019486545
-0.49896621
0.001459506
-0.56580435
0.00098555466
-0.64164011
0.00050333456
-0.72789233
-0.82578271
0.020993404
-0.013433763
-0.020844095
0.021118671
-0.015549898
0.021207521
-0.018027152
0.021245577
-0.020932001
0.021216401
-0.024340527
0.021103908
-0.028340566
0.020892981
-0.033031101
0.020569983
-0.038521643
0.020122766
-0.04493054
0.019539474
-0.052381523
0.018805067
-0.060996339
0.017891558
-0.070876059
0.016736399
-0.082049227
0.015243059
-0.094384552
0.013373973
-0.10754308
0.011618798
-0.12208234
0.01035518
-0.1390186
0.0092580895
-0.15848224
0.0082223736
-0.18046307
0.0072529316
-0.20527895
0.0063392219
-0.2333249
0.0055059633
-0.26500855
0.004747463
-0.30090208
0.0040572363
-0.34165913
0.0034083597
-0.38756372
0.0027941693
-0.43952147
0.0022158928
-0.49838834
0.0016594231
-0.56524837
0.0011208784
-0.64110149
0.00057196681
-0.72734303
-0.82521064
0.022249767
-0.013638626
-0.022044773
0.022435009
-0.015734993
0.02258986
-0.018181867
0.022699864
-0.021041899
0.022748506
-0.024389049
0.02271728
-0.028309179
0.02258631
-0.032899908
0.022334704
-0.03826976
0.021940276
-0.044535806
0.021378341
-0.051819302
0.020617875
-0.06023565
0.019604791
-0.069862838
0.018231377
-0.080675768
0.016406885
-0.092560135
0.014431458
-0.10556784
0.012832623
-0.12048369
0.011563798
-0.13774989
0.010369458
-0.15728802
0.0092502794
-0.17934397
0.0081644678
-0.20419297
0.0071661354
-0.23232624
0.0062388545
-0.26408079
0.0053874519
-0.30005021
0.0046077326
-0.34087897
0.0038728284
-0.38682861
0.0031750431
-0.43882384
0.0025185129
-0.49773223
0.0018861687
-0.5646166
0.0012743603
-0.64048961
0.00064992707
-0.72671815
-0.82456054
0.023424846
-0.013875453
-0.023187991
0.023648888
-0.015958992
0.023849839
-0.018382805
0.024012162
-0.02120422
0.024118229
-0.024495068
0.024147615
-0.028338434
0.024076496
-0.032828571
0.023876641
-0.038069619
0.023513692
-0.044172547
0.022944643
-0.051249971
0.022113163
-0.059403954
0.020931037
-0.068680572
0.019293763
-0.079038434
0.017285892
-0.090552313
0.015512089
-0.10379419
0.01410593
-0.11907767
0.012785423
-0.13642952
0.011562976
-0.15606577
0.010352976
-0.17813413
0.0092014961
-0.20304146
0.0080870907
-0.23121149
0.0070408512
-0.26303397
0.0061052948
-0.29911409
0.0052265979
-0.33999974
0.0043925524
-0.38599428
0.0036039795
-0.43803537
0.0028598181
-0.4969885
0.0021425943
-0.56390004
0.0014479817
-0.63979492
0.00073826465
-0.72600793
-0.82382201
0.024334073
-0.014111326
-0.024098241
0.024561461
-0.016186436
0.024767793
-0.018589159
0.024939359
-0.021375752
0.025058581
-0.024614188
0.025103204
-0.02838288
0.025045068
-0.032770192
0.024847095
-0.037871358
0.024459745
-0.043784902
0.023816113
-0.050606074
0.022831887
-0.058419507
0.021445518
-0.067294025
0.019759666
-0.077352474
0.018143467
-0.088936058
0.016729434
-0.10238017
0.015405411
-0.11775376
0.014114118
-0.13513839
0.01281019
-0.15476217
0.011535972
-0.17686022
0.010278082
-0.20178359
0.0090734609
-0.23000655
0.0079454658
-0.26190534
0.0069004248
-0.29806836
0.0059161344
-0.33901486
0.0049749964
-0.38505275
0.0040849594
-0.43714534
0.0032432206
-0.4961472
0.0024316439
-0.56308924
0.0016439636
-0.63900719
0.00083800919
-0.72520141
-0.82298362
0.024252328
-0.014310562
-0.024053066
0.024438021
-0.01637208
0.024602357
-0.018753416
0.02474145
-0.021514737
0.0248449
-0.024717493
0.024882332
-0.028420124
0.024811052
-0.032698695
0.024583912
-0.037643988
0.024151727
-0.043352488
0.023462789
-0.049916919
0.022500856
-0.057457361
0.021341602
-0.066134564
0.020184119
-0.076194829
0.019087629
-0.087839389
0.017951069
-0.10124347
0.016717292
-0.11652001
0.015409157
-0.1338305
0.014092458
-0.153446
0.012758815
-0.17552701
0.011448384
-0.20047325
0.010157203
-0.22871519
0.008915592
-0.26066307
0.0077783139
-0.29693032
0.0066815394
-0.3379174
0.0056194742
-0.38399013
0.0046184038
-0.43614421
0.0036725388
-0.49520177
0.0027559961
-0.56217358
0.0018643744
-0.63811554
0.00094969387
-0.72428611
-0.82203337
0.023127041
-0.014557808
-0.022879799
0.023359227
-0.016604246
0.023553942
-0.018948077
0.023680375
-0.021641072
0.023712574
-0.024749552
0.023649578
-0.028356951
0.023490716
-0.032539613
0.023245398
-0.03739841
0.022930372
-0.04303717
0.022524807
-0.049511039
0.022043858
-0.056976106
0.021501057
-0.065591429
0.020883058
-0.075576531
0.020095443
-0.087051584
0.019097913
-0.10024586
0.017957336
-0.11537951
0.016710382
-0.13258385
0.015371669
-0.15210795
0.014015393
-0.17417141
0.012648272
-0.19910636
0.011284536
-0.22735131
0.0099758692
-0.25935377
0.0087327649
-0.29568656
0.0075135841
-0.3366975
0.0063393214
-0.38281516
0.0052186149
-0.4350234
0.0041466663
-0.49413025
0.0031185025
-0.56114643
0.0021110982
-0.63710815
0.0010739502
-0.72324829
-0.82095866
0.020763573
-0.014861704
-0.020459662
0.021096953
-0.016937594
0.021461041
-0.019312109
0.02185186
-0.022031804
0.022242364
-0.025139925
0.022592681
-0.028707082
0.022846849
-0.032793527
0.022899908
-0.03745114
0.022733584
-0.042870433
0.022449731
-0.049226648
0.022175291
-0.056700961
0.0218754
-0.065290646
0.021467442
-0.075167773
0.020884311
-0.086468041
0.020091241
-0.099453056
0.019090665
-0.1143796
0.017920782
-0.13141446
0.016623684
-0.15081153
0.015256984
-0.1728056
0.013883546
-0.19773335
0.01247617
-0.22594387
0.011080533
-0.25795752
0.009755171
-0.29436068
0.0084276308
-0.33536939
0.0071239735
-0.38151073
0.0058687997
-0.43376804
0.0046809436
-0.49294278
0.0035215819
-0.55998816
0.0023860805
-0.63597273
0.0012118881
-0.7220734
-0.81974573
0.019243135
-0.015102891
-0.019001869
0.019504059
-0.017198413
0.019785077
-0.019592983
0.02008405
-0.022330591
0.020405313
-0.025460956
0.020749261
-0.029050749
0.021143274
-0.0331872
0.021650919
-0.037958372
0.022145451
-0.043364473
0.022443092
-0.049523742
0.02239871
-0.056655954
0.022142627
-0.065033646
0.021828926
-0.074852619
0.021437476
-0.086075366
0.020852753
-0.098868124
0.020027705
-0.11355594
0.019009248
-0.13039726
0.017792761
-0.14959571
0.016470446
-0.17148429
0.01509411
-0.19635783
0.01367539
-0.22452511
0.012257775
-0.25653918
0.010839741
-0.29294228
0.0093840729
-0.3339134
0.0079676014
-0.38009348
0.0065912105
-0.4323914
0.0052574928
-0.49160935
0.0039664102
-0.55869822
0.0026876555
-0.63469414
0.0013644293
-0.72074947
-0.81837999
0.019021418
-0.015347823
-0.01877633
0.01928495
-0.017461755
0.019566403
-0.019874207
0.019865666
-0.022629577
0.02018546
-0.025780423
0.020523287
-0.029388195
0.020859647
-0.033523126
0.021169048
-0.038267296
0.021508973
-0.043703908
0.021969914
-0.049984252
0.022406731
-0.057092509
0.02249267
-0.065119511
0.02219494
-0.074555259
0.021795582
-0.085675459
0.021285387
-0.098355961
0.020627867
-0.11289789
0.019831937
-0.12960303
0.018809671
-0.14857436
0.01758964
-0.17026518
0.016273945
-0.19504321
0.01486606
-0.22311707
0.013417743
-0.25508976
0.011957761
-0.29148191
0.010408245
-0.33236383
0.0088657192
-0.37855023
0.0073524658
-0.43087771
0.0058897832
-0.49014678
0.0044509344
-0.55726047
0.0030207414
-0.63326422
0.0015337853
-0.71926181
-0.81684464
0.018153842
-0.015578575
-0.017922906
0.018407624
-0.017715331
0.018684107
-0.020150459
0.018982032
-0.02292725
0.019297214
-0.026095341
0.019620976
-0.029711699
0.019939602
-0.033841528
0.020233157
-0.03856071
0.020494488
-0.043965236
0.020671248
-0.05016118
0.02089177
-0.057313371
0.021411666
-0.065640071
0.02180823
-0.074952868
0.021748363
-0.085618402
0.02148146
-0.098090549
0.021003676
-0.11241768
0.02035613
-0.12895448
0.019567504
-0.14778566
0.018545233
-0.16924349
0.017318787
-0.19381767
0.01599744
-0.22179501
0.014599912
-0.25369055
0.013075291
-0.28995645
0.011428179
-0.33071664
0.0097823593
-0.37690373
0.0081603989
-0.42925511
0.0065513499
-0.48853765
0.004968713
-0.5556788
0.0033791127
-0.63167502
0.0017205986
-0.71760263
-0.81512237
0.017798638
-0.015795417
-0.017581728
0.018036705
-0.017953327
0.018296869
-0.020410559
0.018579593
-0.023209926
0.018885319
-0.026401052
0.019215018
-0.030041439
0.019571382
-0.034198024
0.019958271
-0.038947859
0.020369897
-0.044377294
0.02079343
-0.050585353
0.021157917
-0.057678743
0.021298598
-0.065781945
0.021431982
-0.075087011
0.021567098
-0.085753429
0.021436001
-0.097962057
0.021113047
-0.11209665
0.020593104
-0.12843385
0.019929679
-0.14712119
0.019168344
-0.16848159
0.018192254
-0.19284189
0.017022965
-0.22062421
0.015677684
-0.2523428
0.014139004
-0.28841626
0.01244481
-0.32902198
0.010705973
-0.37516411
0.0089735093
-0.42752192
0.0072516432
-0.48681571
0.0055174906
-0.55394548
0.0037591357
-0.62991722
0.0019212187
-0.71576403
-0.8131996
0.016761988
-0.015996179
-0.016561352
0.016984221
-0.018175704
0.017228896
-0.020655396
0.017496423
-0.023477632
0.017786155
-0.026690976
0.018095708
-0.030351198
0.018419705
-0.034522238
0.018749295
-0.039277682
0.019075964
-0.044704223
0.019395152
-0.050904861
0.019716305
-0.058000322
0.020055174
-0.066121235
0.020391317
-0.07542406
0.020728761
-0.086090923
0.021086705
-0.098318712
0.021144418
-0.11215713
0.020727288
-0.1280193
0.020176869
-0.14657184
0.019534082
-0.16783907
0.018772834
-0.19208095
0.017840258
-0.21969056
0.016632142
-0.25113197
0.015070627
-0.28685262
0.01337413
-0.32732477
0.011585728
-0.37337475
0.0097811031
-0.42571662
0.0079450478
-0.4849798
0.0060756968
-0.55207695
0.0041563523
-0.62799847
0.0021381179
-0.71374498
-0.8110603
0.016201155
-0.016183983
-0.016013708
0.016408924
-0.018383895
0.016638538
-0.02088551
0.016891246
-0.023730926
0.017168104
-0.026968515
0.017469945
-0.030653815
0.017797532
-0.034850689
0.018151496
-0.039632578
0.018529751
-0.045083447
0.01892241
-0.051298496
0.019307889
-0.058386783
0.019664824
-0.066479253
0.019972713
-0.075733158
0.020181309
-0.086301488
0.020252736
-0.098391519
0.020569763
-0.11247241
0.020862942
-0.12831018
0.020579319
-0.14628451
0.019963963
-0.16721966
0.019187112
-0.19130431
0.018332126
-0.21883699
0.017247237
-0.25004704
0.015785402
-0.28538897
0.014161048
-0.32569993
0.012402448
-0.37161543
0.010544365
-0.42385801
0.0086337742
-0.48306965
0.0066380499
-0.55008195
0.0045498976
-0.62591066
0.002355514
-0.7115495
-0.80870414
0.01508285
-0.016358554
-0.01490863
0.015277339
-0.018578799
0.015493657
-0.02110233
0.015733303
-0.023971176
0.015997408
-0.027233345
0.016286461
-0.030943732
0.016599976
-0.035165215
0.016936149
-0.039969899
0.017292225
-0.045440768
0.017666591
-0.051674108
0.018059958
-0.058781219
0.018467885
-0.066887813
0.018869896
-0.076135017
0.019282438
-0.086712901
0.019692814
-0.09880004
0.019700782
-0.11247767
0.019701814
-0.12830817
0.020054121
-0.14663611
0.020077362
-0.16724135
0.019433821
-0.19065624
0.018469289
-0.21787393
0.01747134
-0.24905339
0.016208383
-0.28412705
0.014721871
-0.32421375
0.013049393
-0.36994251
0.011215973
-0.42202423
0.0092505201
-0.48110474
0.007147199
-0.54797895
0.0049340618
-0.6236974
0.0025757025
-0.70918971
-0.80612826
0.014318573
-0.016512263
-0.014164871
0.014489887
-0.018750127
0.01468034
-0.021292799
0.014891357
-0.02418221
0.015124272
-0.027466276
0.015380275
-0.031199744
0.015660327
-0.035445259
0.015964968
-0.040274496
0.016293776
-0.045769463
0.01664378
-0.052023869
0.017007884
-0.05914487
0.017377095
-0.067256265
0.01774447
-0.0765013
0.018066732
-0.087033754
0.018317962
-0.099049825
0.018682536
-0.11284167
0.018976787
-0.12860263
0.018906087
-0.14656621
0.018967222
-0.16730542
0.019105547
-0.19079992
0.018546987
-0.21731458
0.017440834
-0.24794581
0.016323694
-0.28301273
0.014992627
-0.32288332
0.013463458
-0.36841259
0.011698154
-0.42025904
0.0097461197
-0.47915321
0.0076036188
-0.54583627
0.0052689753
-0.62136212
0.0027688634
-0.70668801
-0.80335928
0.013366707
-0.016652651
-0.013226346
0.013524059
-0.018907493
0.013700071
-0.021468802
0.013896437
-0.024378532
0.014114763
-0.027684509
0.014356417
-0.031441239
0.014622318
-0.035710915
0.014912719
-0.040564557
0.015227097
-0.046083408
0.015564409
-0.052360697
0.01592357
-0.059503589
0.01630249
-0.067634941
0.016696621
-0.076895534
0.017110376
-0.087447895
0.01753593
-0.099475392
0.017870372
-0.11317421
0.018055507
-0.12878053
0.018057431
-0.14654725
0.017628213
-0.16686673
0.017358833
-0.19055107
0.017356157
-0.21731617
0.016837798
-0.24743235
0.015966584
-0.28214859
0.014925455
-0.32184293
0.013620274
-0.36710644
0.012004369
-0.41864436
0.010090694
-0.4772404
0.0079317231
-0.54367712
0.0055359243
-0.61896563
0.00292768
-0.70407817
-0.80043093
0.012698747
-0.016770644
-0.012580811
0.012830802
-0.019039598
0.012978359
-0.021616395
0.013142824
-0.024543011
0.013325601
-0.027867264
0.013528044
-0.0316436
0.013751384
-0.03593408
0.013996584
-0.040809447
0.014264036
-0.04635036
0.014552863
-0.05264877
0.014859639
-0.059809299
0.015177081
-0.067950975
0.015493139
-0.077209881
0.015791551
-0.087744471
0.016061362
-0.099743661
0.016303801
-0.11341629
0.016515287
-0.12899652
0.016775513
-0.14682706
0.01704414
-0.16714202
0.016704746
-0.19018404
0.016175093
-0.21678363
0.015974645
-0.24723623
0.015507164
-0.28168318
0.014758079
-0.32109447
0.013642679
-0.36599282
0.012108965
-0.41711323
0.010256771
-0.47538966
0.0081268406
-0.5415479
0.005704229
-0.61654256
0.0030283243
-0.70140047
-0.79740092
0.012007987
-0.016874155
-0.01190449
0.012124083
-0.019155706
0.01225406
-0.021746384
0.012399318
-0.024688277
0.012561288
-0.028029239
0.012741373
-0.031823684
0.012940846
-0.036133547
0.013160698
-0.041029287
0.013401445
-0.046591094
0.013663062
-0.05291038
0.013945421
-0.060091687
0.014249923
-0.068255599
0.014580471
-0.077540734
0.014941511
-0.088106093
0.01533183
-0.10013483
0.01575117
-0.11383638
0.016203986
-0.12944963
0.016574499
-0.14719731
0.016841574
-0.16741074
0.016988842
-0.19033302
0.016649637
-0.21644588
0.015902833
-0.24649252
0.01523928
-0.28101753
0.014516042
-0.32037121
0.013481412
-0.36495614
0.012017488
-0.41564992
0.010174122
-0.47354886
0.0080784435
-0.53945394
0.0057107614
-0.61417388
0.0030448984
-0.69873262
-0.79435377
0.011581654
-0.016954152
-0.011501797
0.011670681
-0.019244895
0.011769754
-0.021845646
0.011879686
-0.024798428
0.012001345
-0.028151156
0.01213574
-0.031958384
0.012284153
-0.03628232
0.012448361
-0.041193916
0.012630933
-0.046774158
0.012835507
-0.053115532
0.013066729
-0.060323596
0.013328931
-0.068518632
0.013623961
-0.077836782
0.013946868
-0.08843026
0.014275846
-0.10046539
0.014573043
-0.11413584
0.014795432
-0.12967508
0.014961561
-0.14736677
0.015053268
-0.16750515
0.015276966
-0.19056012
0.015574274
-0.21674423
0.015410505
-0.24632127
0.014725485
-0.28032785
0.013649175
-0.31929908
0.012499001
-0.3638018
0.011245996
-0.41438813
0.0096402303
-0.47194481
0.0077085391
-0.53752357
0.0054861037
-0.61194876
0.0029445785
-0.69618954
-0.79140733
0.010142864
-0.017006765
-0.010090325
0.010202352
-0.019304475
0.010269571
-0.021912977
0.010345367
-0.024874362
0.010430585
-0.028236539
0.010525969
-0.032053968
0.010631982
-0.036388579
0.010748527
-0.041310767
0.010874566
-0.046900579
0.011007659
-0.053249095
0.011143416
-0.060459912
0.011274444
-0.068650283
0.011391022
-0.077953997
0.011483406
-0.088523198
0.011555641
-0.1005379
0.011621137
-0.11420088
0.011692573
-0.1297445
0.011754813
-0.14742454
0.011798422
-0.16754232
0.011671059
-0.19042546
0.011493917
-0.2165628
0.01166428
-0.24649393
0.011855953
-0.28052103
0.011603656
-0.31904149
0.010819394
-0.36302354
0.0097860049
-0.4133701
0.0085195639
-0.47068366
0.0068944922
-0.5358918
0.004941806
-0.60999104
0.0026843639
-0.69393183
-0.78872169
0.0097000769
-0.017032223
-0.0096746703
0.009728355
-0.019332807
0.0097593361
-0.021944015
0.0097930839
-0.024908171
0.0098295641
-0.028273084
0.009868602
-0.032093076
0.0099098645
-0.036429919
0.0099528604
-0.041353852
0.009996977
-0.046944805
0.010041565
-0.053293831
0.010086072
-0.060504636
0.010131087
-0.068695637
0.010179714
-0.078003163
0.010236679
-0.088580991
0.010302815
-0.10060524
0.010376116
-0.11427581
0.010449077
-0.12981955
0.010524413
-0.14750238
0.010617774
-0.16763792
0.010758174
-0.19056741
0.010871583
-0.21667647
0.010751248
-0.24637278
0.010366511
-0.28013774
0.0098832853
-0.31856053
0.0092572239
-0.36240174
0.0083666474
-0.4124728
0.0072769101
-0.46957887
0.0059349081
-0.53453894
0.0042731567
-0.60832783
0.0022994078
-0.69195907
-0.78642251
0.0095977877
-0.0095933491
0.009602788
0.0096088726
0.0096163458
0.0096255852
0.0096370519
0.0096512884
0.0096688978
0.0096904856
0.0097165411
0.0097473008
0.0097825473
0.0098208764
0.0098618286
0.0098982791
0.0099241662
0.0099347468
0.0099208333
0.0098596975
0.0097285314
0.0095060186
0.0091968534
0.0088144823
0.0083999786
0.0079156361
0.0072529935
0.0063385101
0.0051642759
0.0037229942
0.0020036529
0.011424832
-0.011234568
0.0088489631
-0.0090391574
0.013225116
-0.01449511
0.012694886
0.014562861
-0.017767101
0.016429402
0.015625158
-0.021371529
0.0203093
0.016554359
-0.025494053
0.024564953
0.017418441
-0.030253501
0.029389537
0.018220565
-0.035725363
0.034923362
0.018976742
-0.041984458
0.041228399
0.019686913
-0.049179581
0.048469516
0.020327598
-0.057424435
0.056783835
0.020879472
-0.06684826
0.066296438
0.021330964
-0.077608595
0.07715712
0.02167274
-0.089883221
0.089541441
0.021892917
-0.10384809
0.10362791
0.021974101
-0.11967949
0.11959833
0.021856351
-0.13741335
0.13753114
0.021478032
-0.15684608
0.15722441
0.0207391
-0.17751839
0.17825734
0.019564587
-0.19826095
0.19943543
0.018310521
-0.2200422
0.22129619
0.017176237
-0.24606647
0.24720067
0.01603744
-0.27645413
0.27759283
0.0148387
-0.31113005
0.31232869
0.013560255
-0.35075719
0.35203555
0.012173404
-0.39597617
0.39736299
0.010651118
-0.44731687
0.44883918
0.0089683825
-0.505661
0.50734373
0.0070994442
-0.57208281
0.57395174
0.0050104639
-0.64766191
0.64975094
0.0026596423
-0.73390871
0.7362596
-0.83213461
0.83479421
0.01266775
-0.012731071
-0.011171175
0.013684709
-0.015511993
0.01451983
-0.018602135
0.015297154
-0.022148748
0.01606502
-0.026261797
0.016826255
-0.031014607
0.017562497
-0.036461473
0.018264693
-0.042686531
0.018914021
-0.049828801
0.019488183
-0.057998513
0.019975721
-0.067335749
0.020368981
-0.07800184
0.0206598
-0.090174045
0.020836544
-0.10402482
0.020880729
-0.11972365
0.020726309
-0.13725888
0.020319429
-0.15643919
0.019550966
-0.1767499
0.018376904
-0.19708691
0.017194296
-0.2188596
0.016130819
-0.24500308
0.015054429
-0.27537784
0.013921035
-0.30999677
0.012714411
-0.34955064
0.011407337
-0.39466912
0.0099751009
-0.44588462
0.0083944996
-0.50408042
0.006641871
-0.5703302
0.0046853678
-0.64570537
0.0024865317
-0.7317098
-0.82964818
0.012279211
-0.013556466
-0.011453741
0.013006245
-0.016238936
0.01374195
-0.019337736
0.014507109
-0.022913792
0.015278709
-0.027033274
0.016025349
-0.031761115
0.016731221
-0.037167212
0.017390881
-0.043346068
0.017985721
-0.050423533
0.018504263
-0.058516974
0.018938972
-0.067770412
0.019284232
-0.078347088
0.019532752
-0.090422569
0.019673476
-0.10416554
0.019687471
-0.11973761
0.019504224
-0.13707558
0.019077163
-0.15601212
0.018285692
-0.17595837
0.017131902
-0.19593313
0.016030875
-0.21775862
0.01503546
-0.24400775
0.014021697
-0.27436418
0.012955878
-0.30893106
0.011824151
-0.34841899
0.010600727
-0.39344572
0.0092631871
-0.44454707
0.007790106
-0.50260739
0.0061598717
-0.56869999
0.0043429651
-0.64388843
0.0023037498
-0.72967051
-0.82734459
0.011403148
-0.014296131
-0.010663396
0.012167222
-0.017002914
0.012941014
-0.020111421
0.013707724
-0.023680382
0.014451271
-0.027776693
0.015156951
-0.032466662
0.015815698
-0.037825826
0.016421357
-0.043951603
0.016959933
-0.050962003
0.017423587
-0.058980549
0.01780724
-0.068154023
0.018106707
-0.078646545
0.018315254
-0.090631118
0.01842184
-0.10427211
0.018401494
-0.11971722
0.018192737
-0.13686676
0.017755487
-0.15557483
0.016949225
-0.17515204
0.015829951
-0.19481388
0.014809828
-0.21673855
0.013881284
-0.24307928
0.012932982
-0.27341599
0.011938617
-0.3079368
0.010886221
-0.34736665
0.0097513833
-0.39231089
0.0085140358
-0.44330973
0.0071545611
-0.50124798
0.0056534491
-0.56719892
0.0039835666
-0.64221851
0.0021122082
-0.72779908
-0.82523254
0.010507806
-0.015084837
-0.0097190038
0.011292406
-0.017787412
0.012062649
-0.02088155
0.012810253
-0.024427863
0.013523515
-0.028489822
0.014190662
-0.033133672
0.014804112
-0.03843914
0.015357445
-0.044504808
0.015841903
-0.051446353
0.016253052
-0.059391622
0.016588117
-0.068489048
0.016844178
-0.078902598
0.017014976
-0.090801917
0.017089158
-0.10434627
0.017035936
-0.11966395
0.016807656
-0.13663843
0.016363445
-0.15513057
0.015548298
-0.17433681
0.01447597
-0.19374156
0.013538393
-0.21580099
0.012677501
-0.24221846
0.011797188
-0.27253578
0.010877412
-0.30701713
0.0099078823
-0.34639717
0.0088656346
-0.39126866
0.0077329998
-0.44217712
0.0064921824
-0.50000725
0.0051258267
-0.56583262
0.0036092425
-0.64070188
0.0019126796
-0.72610243
-0.82332
0.0095766693
-0.015887906
-0.0087735009
0.010360869
-0.018571503
0.011119633
-0.021640196
0.011843654
-0.025151756
0.012521596
-0.029167627
0.013145001
-0.033756934
0.013708824
-0.039002822
0.014208528
-0.045004382
0.014639514
-0.051877231
0.014999879
-0.059751912
0.015288476
-0.068777609
0.015503336
-0.079117451
0.015638655
-0.090937234
0.015682943
-0.10439054
0.015600917
-0.11958187
0.01535939
-0.13639684
0.014908535
-0.15467964
0.014090605
-0.1735188
0.013077085
-0.19272804
0.012221215
-0.21494515
0.011427996
-0.24142532
0.010617714
-0.27172561
0.009775358
-0.30617487
0.0088919946
-0.34551384
0.0079461226
-0.3903228
0.0069224746
-0.44115351
0.0058050803
-0.49888996
0.0045787765
-0.56460637
0.003221353
-0.63934442
0.0017060635
-0.72458705
-0.82161405
0.0086116085
-0.01669901
-0.0078004212
0.0093906819
-0.019350475
0.010129264
-0.022378662
0.010819155
-0.025841515
0.011453346
-0.029801673
0.012027149
-0.034330586
0.012537682
-0.039513208
0.01298282
-0.045449386
0.013360934
-0.052255237
0.013671923
-0.060062828
0.013915838
-0.06902149
0.014091458
-0.079293064
0.014193615
-0.091039387
0.014211287
-0.10440818
0.01410732
-0.11947783
0.013863332
-0.13615279
0.013405863
-0.15422211
0.012584618
-0.17269747