/*--------------------------------*- C++ -*----------------------------------*\
| =========                 |                                                 |
| \\      /  F ield         | OpenFOAM: The Open Source CFD Toolbox           |
|  \\    /   O peration     | Version:  2406                                  |
|   \\  /    A nd           | Website:  www.openfoam.com                      |
|    \\/     M anipulation  |                                                 |
\*---------------------------------------------------------------------------*/
FoamFile
{
    version     2.0;
    format      ascii;
    arch        "LSB;label=32;scalar=64";
    class       volScalarField;
    location    "0.076";
    object      rho;
}
// * * * * * * * * * * * * * * * * * * * * * * * * * * * * * * * * * * * * * //

dimensions      [1 -3 0 0 0 0 0];

internalField   nonuniform List<scalar> 
8260
(
1.2000294
1.1990952
1.1985489
1.1978667
1.1972255
1.1967407
1.1964471
1.1963466
1.1964311
1.1966837
1.1971127
1.1976949
1.1983994
1.1991843
1.1999919
1.2008086
1.2011899
1.2012588
1.2013627
1.2015231
1.2016802
1.2018145
1.2019284
1.2020289
1.2021202
1.202198
1.2022614
1.2023115
1.2023537
1.2023806
1.202401
1.201607
1.2008113
1.2000244
1.1991651
1.1984027
1.1978073
1.1973984
1.1971876
1.1971589
1.1973056
1.1976349
1.1981301
1.1987544
1.199478
1.2001945
1.2009309
1.2012397
1.2013081
1.2014118
1.2015653
1.2017144
1.2018419
1.2019504
1.2020466
1.2021345
1.2022097
1.202271
1.2023195
1.2023606
1.2023866
1.2024065
1.2025634
1.2018566
1.2010147
1.2001027
1.199293
1.1986393
1.1981586
1.1978729
1.1977705
1.1978245
1.1980775
1.1985039
1.1990687
1.1997534
1.2004068
1.2010841
1.2013075
1.2013746
1.2014729
1.2016156
1.2017548
1.2018742
1.2019762
1.2020671
1.2021511
1.2022232
1.202282
1.2023286
1.2023684
1.2023935
1.2024128
1.2032907
1.2026462
1.2018299
1.2009218
1.2000947
1.1994043
1.1988699
1.1985137
1.1983383
1.1983282
1.1985138
1.1988771
1.199389
1.2000378
1.2006376
1.2012487
1.201392
1.2014513
1.2015431
1.2016727
1.2018005
1.2019108
1.2020055
1.2020905
1.2021699
1.2022385
1.2022945
1.2023391
1.2023773
1.2024014
1.20242
1.2038801
1.2032968
1.2025383
1.2016702
1.2008561
1.2001551
1.1995885
1.1991794
1.1989411
1.1988739
1.1989952
1.1992957
1.199754
1.2003585
1.2008997
1.2014193
1.2014953
1.2015399
1.2016236
1.2017377
1.2018525
1.2019524
1.2020388
1.2021171
1.2021914
1.2022559
1.2023088
1.2023509
1.2023874
1.2024103
1.2024282
1.2043222
1.2037938
1.2031118
1.2023165
1.2015493
1.2008682
1.2002971
1.1998602
1.1995778
1.1994612
1.1995245
1.1997651
1.2001708
1.2007221
1.2011955
1.2015936
1.2016186
1.2016425
1.2017156
1.2018117
1.2019116
1.2019997
1.2020767
1.2021473
1.2022158
1.2022756
1.202325
1.2023644
1.2023989
1.2024204
1.2024374
1.2046196
1.2041443
1.2035428
1.2028453
1.2021552
1.2015236
1.2009758
1.2005374
1.2002329
1.2000805
1.2000962
1.2002835
1.2006413
1.2011295
1.2015209
1.2017743
1.2017597
1.2017623
1.2018202
1.2018956
1.2019788
1.2020532
1.2021197
1.2021816
1.2022436
1.2022982
1.2023434
1.2023798
1.2024119
1.202432
1.2024479
1.2047946
1.2043769
1.203869
1.2032783
1.2026808
1.2021197
1.2016189
1.2012033
1.2008986
1.2007275
1.2007086
1.2008526
1.2011692
1.2015777
1.2018661
1.2019713
1.2019158
1.2019018
1.2019383
1.2019908
1.202055
1.2021139
1.2021685
1.2022207
1.2022751
1.2023238
1.2023643
1.2023974
1.2024267
1.2024452
1.2024599
1.2049064
1.2045327
1.204114
1.2036344
1.2031408
1.2026659
1.2022309
1.2018586
1.2015741
1.2014014
1.2013617
1.2014738
1.2017544
1.2020559
1.2022215
1.2021901
1.2020902
1.2020619
1.2020709
1.2020986
1.202141
1.2021826
1.202224
1.2022651
1.202311
1.202353
1.2023882
1.2024174
1.2024436
1.2024602
1.2024734
1.204981
1.2046805
1.20433
1.2039519
1.2035672
1.2031876
1.2028297
1.2025145
1.2022652
1.2021053
1.2020581
1.2021474
1.2023833
1.2025629
1.2025761
1.2024199
1.20229
1.202242
1.2022192
1.2022194
1.2022369
1.2022604
1.2022869
1.2023157
1.2023518
1.2023862
1.2024154
1.2024402
1.2024628
1.2024774
1.2024889
1.2050295
1.2048816
1.2046448
1.2043589
1.2040493
1.2037426
1.203453
1.2031951
1.2029871
1.2028501
1.202808
1.2028801
1.2030456
1.2030757
1.2028979
1.2026611
1.2025212
1.2024403
1.2023834
1.2023526
1.2023435
1.2023481
1.2023578
1.2023733
1.2023984
1.2024241
1.2024464
1.2024662
1.2024847
1.202497
1.2025065
1.2052294
1.2051474
1.2050076
1.2047991
1.2045685
1.20434
1.2041229
1.2039267
1.2037654
1.2036596
1.2036315
1.2036708
1.2036834
1.203507
1.2031837
1.2029337
1.2027746
1.2026525
1.2025616
1.2024988
1.2024627
1.2024452
1.2024369
1.2024384
1.2024512
1.2024669
1.2024815
1.2024956
1.2025097
1.2025193
1.2025267
1.2056249
1.2056571
1.2056111
1.2054524
1.205268
1.2050915
1.2049283
1.2047796
1.2046498
1.2045486
1.2044734
1.2043762
1.2041514
1.203798
1.2034768
1.2032321
1.2030336
1.2028777
1.2027533
1.2026588
1.2025924
1.2025517
1.2025244
1.202511
1.2025108
1.2025151
1.2025212
1.202529
1.202538
1.2025446
1.2025498
1.2064787
1.2064231
1.2062804
1.2060948
1.2059213
1.2057881
1.2056818
1.2055701
1.2054326
1.2052617
1.2050404
1.2047511
1.2044056
1.204072
1.2037807
1.2035199
1.203297
1.2031097
1.2029541
1.2028286
1.2027348
1.2026681
1.2026197
1.2025912
1.2025771
1.202569
1.202566
1.2025665
1.20257
1.202573
1.2025763
1.2067685
1.20683
1.2068644
1.2068715
1.2067913
1.2066011
1.2063769
1.2061462
1.2058878
1.2055969
1.2052825
1.2049558
1.2046436
1.2043442
1.2040564
1.2037883
1.2035486
1.203342
1.2031589
1.2030062
1.2028865
1.2027942
1.202724
1.2026787
1.2026499
1.2026296
1.2026163
1.2026088
1.2026058
1.2026049
1.2026064
1.2067716
1.2066982
1.2065842
1.2064417
1.2063355
1.2062814
1.2062378
1.2061902
1.2060616
1.205818
1.2055128
1.2051925
1.2048845
1.2045857
1.2043012
1.2040293
1.2037809
1.2035623
1.2033609
1.2031846
1.2030438
1.2029287
1.2028379
1.2027745
1.2027301
1.2026966
1.2026723
1.2026559
1.2026458
1.2026403
1.2026404
1.2067638
1.206707
1.2066322
1.2065422
1.2064452
1.2063336
1.206179
1.2059733
1.2057971
1.2057025
1.2055835
1.20537
1.2050826
1.2047882
1.204521
1.204253
1.2039898
1.2037621
1.2035511
1.2033592
1.2032013
1.203068
1.2029602
1.2028791
1.2028174
1.2027703
1.2027341
1.202708
1.2026902
1.2026797
1.2026783
1.2064815
1.2064322
1.2063718
1.2063043
1.2062288
1.2061435
1.2060488
1.2059436
1.2058191
1.2056558
1.2054901
1.2053801
1.2052186
1.2049559
1.2046886
1.2044439
1.2041857
1.2039424
1.2037236
1.2035239
1.2033536
1.2032069
1.2030879
1.2029909
1.2029111
1.2028494
1.2028009
1.202765
1.2027392
1.2027233
1.2027202
1.2062959
1.2062586
1.206212
1.2061586
1.2060969
1.2060244
1.2059389
1.2058401
1.2057309
1.205618
1.2054879
1.2053039
1.2051504
1.2050352
1.2048098
1.2045748
1.2043513
1.2041132
1.2038809
1.2036755
1.2034974
1.2033415
1.203215
1.2031056
1.2030092
1.2029328
1.2028725
1.2028269
1.202793
1.2027717
1.2027663
1.2060166
1.2059848
1.2059458
1.2059021
1.205853
1.2057977
1.2057356
1.2056658
1.2055857
1.205491
1.2053838
1.2052807
1.2051501
1.2050183
1.2048869
1.2046742
1.2044735
1.204255
1.2040292
1.2038197
1.2036322
1.2034713
1.2033378
1.2032169
1.2031095
1.2030204
1.2029486
1.2028937
1.202852
1.2028252
1.2028167
1.2058112
1.205788
1.2057592
1.2057265
1.2056891
1.2056456
1.2055949
1.2055356
1.2054668
1.2053885
1.2052983
1.2051884
1.2050641
1.2049277
1.2048028
1.2047074
1.2045759
1.2043806
1.2041594
1.2039622
1.2037669
1.2035971
1.2034572
1.2033253
1.2032098
1.2031119
1.2030302
1.2029659
1.2029165
1.2028842
1.2028717
1.2055467
1.2055271
1.205503
1.2054761
1.205446
1.2054118
1.2053731
1.2053294
1.2052797
1.2052227
1.2051577
1.2050859
1.2050051
1.2049051
1.2047966
1.2046741
1.2045395
1.2044164
1.2042457
1.204083
1.2039035
1.2037234
1.203574
1.2034342
1.2033116
1.2032071
1.203117
1.2030439
1.2029864
1.2029487
1.2029317
1.205345
1.2053313
1.2053143
1.2052952
1.2052734
1.2052481
1.2052185
1.2051838
1.2051433
1.205096
1.2050411
1.204977
1.2049037
1.2048247
1.2047321
1.2046353
1.2045209
1.2043609
1.2042416
1.2041329
1.2040065
1.2038485
1.2036843
1.2035426
1.2034146
1.2033033
1.2032067
1.2031258
1.2030613
1.2030181
1.2029967
1.2051126
1.205101
1.2050869
1.2050713
1.2050537
1.2050339
1.2050115
1.2049861
1.2049575
1.204925
1.2048876
1.2048443
1.2047931
1.2047325
1.2046649
1.2045753
1.2044841
1.2044237
1.2043051
1.204142
1.2040262
1.2039206
1.2037771
1.2036356
1.2035103
1.2033962
1.2032955
1.2032097
1.2031402
1.2030917
1.2030667
1.2049282
1.2049204
1.2049108
1.2049001
1.2048878
1.2048736
1.2048568
1.2048371
1.2048137
1.2047861
1.2047539
1.2047168
1.2046751
1.2046279
1.204572
1.2045162
1.204449
1.2043723
1.2043299
1.2042243
1.2040718
1.2039533
1.2038354
1.2037071
1.2035918
1.2034837
1.2033821
1.2032939
1.2032214
1.203169
1.203141
1.2047425
1.2047361
1.2047284
1.2047198
1.2047102
1.2046993
1.2046869
1.2046727
1.2046566
1.2046382
1.204617
1.204592
1.2045622
1.2045264
1.2044847
1.2044318
1.2043711
1.2043058
1.2042349
1.204213
1.2041463
1.2040228
1.203899
1.2037777
1.2036682
1.2035669
1.2034678
1.203378
1.2033042
1.2032492
1.2032188
1.2045927
1.2045887
1.2045839
1.2045786
1.2045725
1.2045653
1.2045567
1.2045463
1.2045338
1.2045185
1.2045001
1.2044782
1.2044527
1.2044241
1.2043928
1.2043596
1.2043212
1.2042799
1.2042335
1.2041562
1.2041083
1.2040568
1.2039611
1.2038502
1.2037432
1.2036421
1.2035492
1.2034609
1.2033866
1.2033308
1.2032987
1.2044567
1.2044529
1.2044485
1.2044436
1.2044381
1.2044319
1.2044249
1.204417
1.2044082
1.2043985
1.204388
1.2043766
1.2043638
1.2043484
1.204329
1.2043046
1.2042758
1.2042387
1.2041923
1.2041427
1.2040654
1.2040046
1.2039627
1.2038971
1.2038015
1.2037072
1.2036203
1.203538
1.2034666
1.2034112
1.2033779
1.2043761
1.2043736
1.2043708
1.2043676
1.204364
1.2043599
1.2043552
1.2043497
1.2043434
1.2043359
1.204327
1.204316
1.2043024
1.2042857
1.2042659
1.2042428
1.2042161
1.2041867
1.2041512
1.2041098
1.20407
1.2040011
1.2039234
1.2038792
1.2038331
1.2037567
1.2036771
1.2036049
1.20354
1.2034861
1.2034529
1.2042732
1.2042708
1.2042681
1.204265
1.2042615
1.2042575
1.2042528
1.2042473
1.2042411
1.2042338
1.2042255
1.2042161
1.2042054
1.2041933
1.20418
1.2041645
1.2041462
1.2041239
1.2040979
1.2040673
1.2040299
1.2039952
1.203966
1.2039133
1.2038487
1.2037903
1.2037266
1.203664
1.2036046
1.203554
1.2035229
1.2041606
1.2041598
1.2041588
1.2041576
1.2041562
1.2041547
1.2041529
1.2041507
1.2041482
1.2041452
1.2041416
1.2041371
1.2041318
1.2041256
1.2041178
1.2041085
1.204097
1.2040827
1.2040656
1.2040454
1.2040213
1.2039919
1.2039552
1.2039108
1.2038609
1.2038082
1.2037528
1.2036951
1.2036396
1.203593
1.203564
1.1885116
1.1888674
1.1892821
1.1896514
1.1899465
1.1902304
1.1905906
1.1910499
1.1915819
1.19223
1.1929834
1.1938268
1.1947484
1.1957257
1.1967384
1.1978375
1.1988099
1.1998009
1.2002796
1.2005511
1.2007915
1.2010512
1.2012955
1.2015073
1.2016849
1.2018327
1.2019532
1.2020477
1.2021212
1.2021692
1.2022027
1.1893694
1.1896571
1.189807
1.1899528
1.1901292
1.1903843
1.1907574
1.1912525
1.1918444
1.1925337
1.1933093
1.1941607
1.1950775
1.1960342
1.19702
1.1980743
1.1990206
1.1999097
1.2002918
1.2005765
1.2008213
1.2010824
1.2013222
1.2015292
1.201703
1.2018477
1.2019656
1.2020582
1.2021304
1.2021775
1.2022107
1.1892044
1.1893121
1.1893987
1.18958
1.1898577
1.190223
1.1906953
1.1912796
1.1919368
1.1926769
1.1934905
1.1943669
1.1952961
1.1962508
1.1972334
1.1982554
1.1992085
1.2000081
1.2003298
1.2006128
1.2008583
1.2011173
1.201351
1.2015526
1.201722
1.2018635
1.2019786
1.2020691
1.2021399
1.202186
1.2022187
1.1887908
1.1889215
1.1890756
1.1893286
1.1896741
1.1901113
1.1906515
1.1912913
1.1920018
1.1927864
1.1936337
1.1945329
1.1954746
1.1964318
1.1974256
1.198415
1.1993716
1.2000999
1.2003803
1.2006496
1.2008956
1.2011517
1.2013793
1.2015757
1.201741
1.2018792
1.2019916
1.20208
1.2021494
1.2021946
1.2022267
1.1881865
1.1883874
1.1886286
1.1889795
1.1894278
1.1899657
1.1905935
1.1913014
1.1920712
1.1929009
1.1937799
1.1946995
1.1956515
1.1966108
1.1976182
1.1985838
1.1995197
1.2001801
1.2004293
1.2006869
1.2009343
1.2011864
1.2014078
1.2015989
1.2017602
1.201895
1.2020048
1.2020911
1.202159
1.2022033
1.2022347
1.1874511
1.1877537
1.1881228
1.1886067
1.1891791
1.1898261
1.1905436
1.1913222
1.1921501
1.1930225
1.1939309
1.1948689
1.1958288
1.1967894
1.1978085
1.198758
1.1996425
1.2002449
1.2004755
1.200725
1.2009737
1.2012209
1.2014362
1.2016221
1.2017793
1.2019109
1.202018
1.2021022
1.2021687
1.202212
1.2022428
1.1865661
1.187044
1.1875908
1.188232
1.1889384
1.189697
1.1905042
1.1913534
1.1922363
1.1931482
1.1940831
1.1950372
1.1960028
1.1969631
1.1979854
1.1989171
1.1997618
1.2003032
1.2005196
1.2007643
1.2010137
1.2012554
1.2014645
1.2016453
1.2017986
1.2019269
1.2020313
1.2021134
1.2021785
1.2022208
1.2022509
1.1856891
1.1863669
1.1870951
1.1878897
1.1887254
1.1895903
1.1904829
1.1913985
1.1923313
1.1932783
1.1942362
1.1952037
1.1961724
1.1971322
1.1981444
1.1990685
1.1998942
1.2003572
1.2005626
1.2008049
1.2010541
1.2012897
1.2014927
1.2016685
1.2018178
1.2019429
1.2020446
1.2021247
1.2021883
1.2022297
1.2022592
1.1849107
1.1857709
1.1866592
1.1875966
1.1885537
1.1895158
1.1904858
1.1914606
1.1924368
1.1934135
1.1943905
1.1953684
1.1963384
1.1973073
1.198306
1.1992129
1.2000151
1.2004111
1.2006058
1.200847
1.2010947
1.2013239
1.2015208
1.2016916
1.201837
1.2019589
1.202058
1.202136
1.2021982
1.2022386
1.2022675
1.1842559
1.1852866
1.1863063
1.1873753
1.1884404
1.1894827
1.1905181
1.1915424
1.1925541
1.1935544
1.1945461
1.1955314
1.1965032
1.197486
1.1984638
1.1993485
1.2001202
1.2004664
1.20065
1.2008902
1.2011352
1.2013578
1.2015487
1.2017147
1.2018562
1.201975
1.2020714
1.2021474
1.2022081
1.2022475
1.2022758
1.1837555
1.1849201
1.1860817
1.1872535
1.1883977
1.1894981
1.1905854
1.1916464
1.192684
1.193701
1.194703
1.1956944
1.1966735
1.1976639
1.1986074
1.1994778
1.2002129
1.2005222
1.2006954
1.2009342
1.2011755
1.2013915
1.2015765
1.2017376
1.2018754
1.2019909
1.2020848
1.2021588
1.2022181
1.2022565
1.2022841
1.1834946
1.1847568
1.1860019
1.1872268
1.1884164
1.1895717
1.1906947
1.1917764
1.1928285
1.1938549
1.1948633
1.1958613
1.1968492
1.1978139
1.1987326
1.1996029
1.2002975
1.2005771
1.2007417
1.2009788
1.2012155
1.2014249
1.2016041
1.2017604
1.2018944
1.2020069
1.2020981
1.2021702
1.2022281
1.2022655
1.2022925
1.1835139
1.1848114
1.1860787
1.1873196
1.188528
1.1897005
1.1908402
1.1919394
1.192995
1.1940236
1.1950336
1.1960337
1.1969956
1.1979318
1.1988617
1.1997169
1.2003771
1.2006308
1.2007891
1.2010237
1.2012552
1.201458
1.2016314
1.2017831
1.2019134
1.2020227
1.2021115
1.2021816
1.2022381
1.2022745
1.202301
1.1838016
1.1850857
1.1863219
1.1875376
1.188732
1.1898968
1.1910362
1.1921401
1.1931969
1.194218
1.1952134
1.1961763
1.1971194
1.1980562
1.1989821
1.1998174
1.2004555
1.2006838
1.2008374
1.2010686
1.2012944
1.2014907
1.2016585
1.2018055
1.2019322
1.2020385
1.2021248
1.202193
1.2022482
1.2022836
1.2023094
1.1841782
1.185481
1.1866952
1.1878745
1.189035
1.1901747
1.1912956
1.1923704
1.1934043
1.1943931
1.1953389
1.1962888
1.1972553
1.1981787
1.199092
1.1999211
1.2005333
1.200737
1.2008865
1.2011133
1.2013331
1.201523
1.2016853
1.2018278
1.2019508
1.2020542
1.2021381
1.2022044
1.2022582
1.2022927
1.2023179
1.1845886
1.1858821
1.1870917
1.188255
1.1893833
1.1904807
1.1915572
1.192562
1.1935253
1.1945009
1.1954814
1.1964384
1.1973924
1.198296
1.1991972
1.2000265
1.2006088
1.2007912
1.2009359
1.2011577
1.2013713
1.201555
1.2017118
1.2018497
1.2019692
1.2020697
1.2021512
1.2022157
1.2022682
1.2023017
1.2023264
1.1855472
1.1865939
1.1876121
1.1886517
1.1896992
1.1907261
1.1917086
1.1927029
1.1937193
1.1946892
1.1956484
1.1965918
1.1975266
1.1984085
1.1992979
1.2001256
1.2006814
1.2008461
1.2009849
1.2012013
1.2014087
1.2015864
1.2017379
1.2018714
1.2019874
1.2020851
1.2021643
1.2022269
1.2022782
1.2023108
1.2023349
1.1873084
1.1880525
1.1887514
1.1895158
1.1903504
1.1912222
1.1920999
1.1930246
1.193978
1.1949013
1.1958225
1.1967425
1.1976574
1.1985169
1.1993939
1.2002201
1.2007503
1.2009012
1.2010335
1.2012443
1.2014456
1.2016172
1.2017636
1.2018927
1.2020053
1.2021002
1.2021772
1.2022381
1.2022881
1.2023199
1.2023435
1.1888689
1.1894665
1.189966
1.1905176
1.1911516
1.1918491
1.1925881
1.1934017
1.1942667
1.1951253
1.1960002
1.1968912
1.1977846
1.198622
1.1994852
1.2003111
1.2008165
1.2009563
1.2010819
1.2012865
1.2014816
1.2016475
1.2017888
1.2019136
1.202023
1.2021152
1.20219
1.2022492
1.202298
1.202329
1.202352
1.1905907
1.1909747
1.1912452
1.1915795
1.1920118
1.1925252
1.193116
1.1938117
1.1945745
1.195361
1.1961812
1.1970375
1.1979068
1.1987237
1.1995718
1.2003986
1.2008805
1.201011
1.20113
1.2013277
1.2015168
1.2016771
1.2018135
1.2019341
1.2020402
1.2021299
1.2022026
1.2022602
1.2023078
1.202338
1.2023605
1.1924894
1.1926243
1.1926357
1.1927261
1.1929336
1.1932439
1.1936923
1.194254
1.1948984
1.1956081
1.1963659
1.1971804
1.198023
1.1988219
1.1996539
1.2004794
1.2009417
1.2010637
1.2011769
1.2013675
1.2015506
1.2017056
1.2018374
1.2019539
1.202057
1.2021443
1.202215
1.202271
1.2023175
1.202347
1.2023691
1.1945706
1.194417
1.194152
1.1939757
1.1939316
1.1940515
1.1943407
1.1947332
1.1952568
1.19588
1.1965656
1.1973286
1.1981388
1.1989197
1.1997323
1.2005504
1.2009978
1.2011108
1.2012213
1.2014054
1.2015828
1.201733
1.2018605
1.2019732
1.2020735
1.2021584
1.2022273
1.2022818
1.2023272
1.2023561
1.2023777
1.1969202
1.196487
1.1959687
1.1955039
1.1951993
1.1950857
1.195142
1.1953533
1.1957188
1.1962266
1.1968201
1.1975138
1.198277
1.1990316
1.1998146
1.2006131
1.2010452
1.2011501
1.2012639
1.2014424
1.2016143
1.2017599
1.2018833
1.2019922
1.2020897
1.2021724
1.2022395
1.2022926
1.2023369
1.2023651
1.2023863
1.1993156
1.1987847
1.1982118
1.1975396
1.1969301
1.1964912
1.1962527
1.1962188
1.1963778
1.1967002
1.1971652
1.1977629
1.1984579
1.1991751
1.1999171
1.2006865
1.2010941
1.2011932
1.2013107
1.2014823
1.2016476
1.2017881
1.2019069
1.2020117
1.2021062
1.2021865
1.2022517
1.2023032
1.2023465
1.202374
1.2023947
1.1889687
1.1893308
1.1897301
1.1900976
1.1904236
1.1907287
1.1910677
1.1914831
1.1919595
1.1925472
1.1932392
1.194024
1.1948894
1.1958155
1.1967721
1.1978051
1.1987262
1.1996595
1.2002186
1.200502
1.200753
1.2010181
1.2012684
1.2014853
1.201667
1.201818
1.201941
1.2020375
1.2021125
1.2021614
1.2021951
1.1891679
1.1895647
1.1899547
1.1902973
1.1906027
1.1909028
1.1912309
1.1915935
1.1920386
1.1925936
1.1932544
1.1940124
1.1948565
1.1957689
1.1967198
1.1977459
1.1986973
1.1996048
1.2002062
1.2004849
1.200733
1.2009986
1.2012516
1.2014712
1.2016552
1.201808
1.2019327
1.2020305
1.2021064
1.2021559
1.2021894
1.1892067
1.1895945
1.1899917
1.1903619
1.1906911
1.1910041
1.191335
1.1916943
1.1921302
1.1926641
1.1932996
1.1940327
1.1948541
1.1957489
1.1966899
1.1977013
1.1986668
1.1995747
1.2001919
1.2004747
1.2007192
1.2009836
1.201238
1.2014592
1.2016446
1.2017989
1.2019248
1.2020236
1.2021003
1.2021504
1.2021813
1.1892474
1.1896135
1.1900347
1.1904304
1.1907854
1.1911164
1.1914551
1.1918216
1.1922515
1.1927658
1.1933758
1.1940817
1.1948772
1.1957496
1.1966747
1.1976627
1.1986306
1.1995396
1.2001698
1.2004611
1.2007041
1.2009676
1.2012236
1.2014465
1.2016335
1.2017891
1.2019163
1.2020163
1.2020937
1.2021444
1.2021726
1.1893195
1.1896688
1.1901079
1.1905183
1.1908889
1.1912341
1.191581
1.1919526
1.1923764
1.1928739
1.1934602
1.1941398
1.1949089
1.1957573
1.196664
1.1976247
1.19859
1.1994998
1.2001429
1.2004449
1.2006869
1.2009498
1.2012075
1.2014324
1.2016212
1.2017784
1.201907
1.2020082
1.2020865
1.2021379
1.2021646
1.1894118
1.1897408
1.1901832
1.190605
1.1909874
1.1913446
1.1916999
1.1920755
1.1924948
1.1929786
1.1935444
1.1941996
1.1949434
1.1957678
1.196655
1.1975873
1.1985475
1.1994593
1.2001126
1.2004278
1.2006686
1.2009305
1.2011901
1.2014171
1.2016078
1.2017668
1.201897
1.2019996
1.2020789
1.202131
1.2021585
1.1895104
1.1898155
1.1902522
1.1906824
1.191077
1.1914462
1.1918104
1.1921904
1.192607
1.1930802
1.1936283
1.1942612
1.1949808
1.1957814
1.1966483
1.1975531
1.1985086
1.1994196
1.2000824
1.2004095
1.2006504
1.2009108
1.2011721
1.2014011
1.2015938
1.2017545
1.2018864
1.2019904
1.2020707
1.2021236
1.2021526
1.189616
1.1898969
1.1903216
1.1907561
1.1911613
1.1915418
1.1919148
1.1922995
1.1927148
1.1931797
1.1937126
1.1943252
1.1950218
1.1957989
1.1966447
1.1975269
1.1984731
1.1993764
1.2000566
1.200391
1.2006325
1.2008908
1.2011535
1.2013845
1.2015791
1.2017417
1.2018752
1.2019807
1.202062
1.2021158
1.202144
1.1897244
1.1899908
1.190399
1.1908326
1.1912449
1.1916347
1.1920155
1.1924046
1.1928194
1.1932778
1.1937977
1.1943918
1.1950667
1.1958208
1.1966451
1.1975092
1.1984349
1.1993262
1.2000322
1.2003739
1.2006152
1.2008706
1.2011345
1.2013673
1.2015638
1.2017282
1.2018634
1.2019704
1.2020528
1.2021075
1.2021328
1.1898499
1.1900967
1.1904857
1.1909143
1.1913303
1.1917269
1.1921141
1.192507
1.1929217
1.1933749
1.1938836
1.1944612
1.1951156
1.1958472
1.1966497
1.1974965
1.1983954
1.1992757
1.2000049
1.2003581
1.2005984
1.2008503
1.201115
1.2013495
1.2015478
1.201714
1.2018509
1.2019594
1.202043
1.2020986
1.2021225
1.1899859
1.1902173
1.1905839
1.191003
1.1914191
1.1918199
1.1922118
1.1926078
1.1930226
1.1934716
1.1939707
1.1945334
1.1951687
1.1958786
1.196659
1.1974878
1.1983657
1.1992302
1.1999703
1.2003438
1.2005824
1.20083
1.2010951
1.201331
1.2015311
1.2016991
1.2018377
1.2019479
1.2020326
1.2020892
1.2021133
1.1901297
1.1903484
1.1906929
1.1910977
1.1915115
1.1919145
1.1923098
1.1927083
1.1931233
1.1935689
1.1940598
1.1946092
1.1952266
1.1959156
1.1966737
1.1974835
1.1983422
1.1991899
1.1999327
1.2003313
1.2005675
1.2008099
1.2010749
1.2013121
1.2015138
1.2016835
1.2018239
1.2019356
1.2020216
1.2020792
1.2021044
1.19028
1.1904867
1.1908074
1.1911986
1.1916068
1.1920107
1.1924087
1.1928094
1.1932249
1.1936677
1.1941516
1.1946891
1.19529
1.1959588
1.1966947
1.1974844
1.1983228
1.1991547
1.1998952
1.2003179
1.2005541
1.2007903
1.2010545
1.2012926
1.2014959
1.2016673
1.2018093
1.2019227
1.20201
1.2020686
1.2020948
1.1904363
1.1906312
1.1909297
1.191304
1.1917059
1.1921092
1.1925093
1.1929123
1.1933285
1.1937694
1.1942473
1.1947742
1.1953596
1.1960089
1.1967226
1.1974911
1.1983073
1.1991172
1.1998564
1.2003085
1.2005425
1.2007714
1.2010342
1.2012728
1.2014774
1.2016504
1.2017941
1.2019091
1.2019977
1.2020573
1.2020845
1.1905914
1.1907797
1.1910577
1.1914134
1.1918071
1.1922096
1.1926121
1.1930179
1.1934356
1.1938753
1.1943483
1.1948656
1.1954364
1.1960667
1.1967582
1.1975044
1.1982969
1.1990838
1.1998173
1.2002987
1.2005328
1.2007536
1.2010141
1.2012527
1.2014584
1.2016329
1.2017781
1.2018948
1.2019847
1.2020454
1.2020734
1.190744
1.1909213
1.1911793
1.1915216
1.1919096
1.1923125
1.1927185
1.1931283
1.1935483
1.1939878
1.1944566
1.1949649
1.1955218
1.1961334
1.1968024
1.1975248
1.1982913
1.1990548
1.1997806
1.2002894
1.2005251
1.2007372
1.2009944
1.2012326
1.201439
1.2016148
1.2017615
1.2018797
1.2019709
1.2020328
1.2020615
1.1908898
1.1910668
1.191317
1.1916425
1.1920199
1.1924222
1.1928321
1.1932465
1.1936698
1.1941095
1.1945746
1.1950744
1.1956174
1.1962102
1.1968562
1.1975532
1.1982892
1.1990279
1.1997479
1.2002825
1.2005194
1.2007227
1.2009753
1.2012124
1.2014193
1.2015961
1.2017443
1.201864
1.2019565
1.2020194
1.202049
1.1910542
1.1912329
1.1914702
1.1917721
1.1921437
1.1925463
1.1929596
1.1933783
1.1938048
1.1942447
1.1947059
1.1951968
1.1957255
1.1962989
1.196921
1.1975905
1.1982924
1.1990071
1.1997306
1.2002795
1.2005167
1.2007103
1.2009572
1.2011926
1.2013994
1.201577
1.2017264
1.2018475
1.2019413
1.2020054
1.2020357
1.1912191
1.191391
1.1916394
1.1919541
1.1923146
1.1927069
1.1931166
1.1935352
1.1939615
1.1943993
1.1948549
1.1953354
1.1958487
1.1964014
1.1969983
1.1976389
1.1983101
1.1990036
1.1997236
1.2002748
1.2005157
1.2007011
1.2009402
1.201173
1.2013795
1.2015575
1.2017079
1.2018304
1.2019254
1.2019906
1.2020215
1.1914538
1.1916239
1.191864
1.1921661
1.1925163
1.1929024
1.1933083
1.193724
1.1941469
1.1945793
1.1950262
1.1954939
1.1959896
1.1965198
1.1970898
1.1977007
1.1983436
1.1990107
1.1997013
1.2002667
1.2005214
1.2006948
1.2009245
1.2011543
1.2013597
1.2015377
1.2016889
1.2018126
1.2019088
1.201975
1.2020066
1.1917964
1.1919647
1.1921804
1.1924502
1.1927855
1.1931594
1.1935535
1.1939586
1.1943712
1.1947923
1.1952254
1.1956761
1.1961508
1.196656
1.197197
1.1977765
1.1983894
1.1990272
1.1996845
1.2002584
1.2005312
1.2006927
1.2009109
1.2011365
1.2013403
1.2015179
1.2016695
1.2017941
1.2018915
1.2019587
1.2019909
1.1922205
1.1923808
1.1925984
1.1928635
1.1931693
1.1935096
1.1938743
1.1942543
1.1946449
1.1950453
1.1954573
1.1958852
1.1963345
1.1968112
1.1973209
1.1978667
1.198447
1.1990545
1.1996839
1.200253
1.2005454
1.2006958
1.2008981
1.2011198
1.2013216
1.2014979
1.2016498
1.2017752
1.2018735
1.2019416
1.2019744
1.1927587
1.192903
1.1931018
1.1933455
1.1936197
1.1939254
1.1942563
1.1946046
1.1949657
1.1953379
1.1957224
1.1961219
1.1965413
1.196986
1.1974615
1.1979715
1.1985164
1.1990917
1.199692
1.2002491
1.2005586
1.2007014
1.2008877
1.2011051
1.2013031
1.2014783
1.2016299
1.2017557
1.2018548
1.2019238
1.2019571
1.1933581
1.1934932
1.1936724
1.1938801
1.1941198
1.1943901
1.1946848
1.1949977
1.1953248
1.1956644
1.1960166
1.1963836
1.1967693
1.197179
1.1976179
1.1980902
1.1985976
1.1991368
1.1996979
1.2002262
1.2005753
1.2007158
1.2008887
1.2010929
1.2012874
1.2014592
1.2016098
1.2017358
1.2018355
1.2019053
1.201939
1.1939841
1.1941024
1.1942545
1.194433
1.1946412
1.1948776
1.1951374
1.1954154
1.1957082
1.1960138
1.196332
1.1966643
1.1970145
1.1973873
1.197788
1.1982213
1.1986897
1.1991907
1.1997131
1.2002332
1.2006003
1.2007365
1.2008924
1.2010828
1.2012709
1.2014403
1.20159
1.2017158
1.2018157
1.201886
1.2019202
1.1946035
1.194702
1.1948294
1.1949811
1.1951596
1.1953643
1.1955917
1.1958375
1.1960984
1.1963718
1.196657
1.1969552
1.19727
1.1976058
1.1979682
1.1983624
1.1987918
1.1992559
1.1997471
1.2002546
1.2006339
1.2007509
1.2008869
1.2010759
1.2012585
1.201423
1.2015703
1.2016953
1.2017955
1.2018662
1.2019008
1.1951964
1.1952735
1.1953781
1.1955045
1.1956551
1.1958304
1.1960285
1.1962454
1.1964778
1.1967225
1.1969781
1.1972453
1.197527
1.1978279
1.1981536
1.1985099
1.1989012
1.199329
1.1997886
1.2002708
1.2006502
1.2007696
1.2008983
1.2010742
1.2012485
1.2014064
1.2015513
1.2016753
1.201775
1.2018458
1.2018807
1.1957506
1.1958101
1.1958934
1.1959957
1.1961193
1.196266
1.1964355
1.1966254
1.1968319
1.1970516
1.1972819
1.1975226
1.1977757
1.1980455
1.1983378
1.198659
1.1990144
1.1994067
1.1998335
1.2002864
1.2006714
1.2008019
1.2009178
1.2010727
1.2012338
1.2013909
1.201533
1.2016549
1.2017541
1.201825
1.2018601
1.1962788
1.1963204
1.1963823
1.1964605
1.1965564
1.1966731
1.1968121
1.196973
1.1971532
1.1973491
1.1975574
1.1977761
1.1980059
1.1982501
1.1985141
1.1988045
1.1991274
1.1994869
1.1998825
1.2003091
1.2006969
1.2008361
1.2009251
1.2010732
1.2012309
1.2013792
1.2015151
1.2016355
1.2017335
1.2018039
1.2018389
1.1967197
1.1967629
1.1968131
1.1968751
1.1969502
1.1970422
1.1971539
1.1972867
1.1974404
1.1976126
1.1977999
1.1979994
1.1982104
1.1984346
1.1986761
1.1989413
1.1992365
1.1995668
1.1999334
1.2003336
1.2007155
1.2008642
1.2009418
1.2010851
1.20123
1.2013664
1.2014995
1.2016164
1.2017127
1.2017826
1.2018174
1.1970321
1.1970582
1.1971109
1.197178
1.1972581
1.1973438
1.1974366
1.1975482
1.1976806
1.1978326
1.1980019
1.198186
1.198383
1.1985931
1.1988188
1.199065
1.1993382
1.1996438
1.1999847
1.2003596
1.2007303
1.2009043
1.2009725
1.2010936
1.2012279
1.2013586
1.2014843
1.201598
1.2016926
1.2017614
1.2017955
1.1973409
1.1973556
1.1973782
1.1974093
1.1974524
1.1975197
1.1976143
1.1977284
1.1978553
1.1979952
1.1981539
1.1983294
1.1985192
1.1987218
1.1989385
1.1991727
1.1994299
1.1997162
1.2000355
1.2003878
1.2007487
1.2009476
1.2010001
1.2011014
1.2012319
1.2013555
1.2014706
1.2015814
1.201673
1.2017403
1.2017738
1.1975184
1.1975418
1.1975714
1.1976064
1.1976471
1.1976968
1.1977609
1.1978448
1.1979569
1.1980973
1.198256
1.19843
1.198619
1.1988208
1.1990348
1.1992633
1.1995108
1.1997829
1.2000845
1.2004174
1.2007696
1.2009877
1.2010308
1.2011196
1.2012386
1.2013519
1.2014614
1.2015661
1.2016538
1.2017199
1.2017523
1.1975904
1.1976142
1.1976438
1.1976802
1.1977258
1.1977826
1.197853
1.1979398
1.1980464
1.198175
1.1983279
1.1985037
1.1986954
1.1988995
1.1991142
1.1993407
1.1995824
1.1998443
1.2001314
1.2004473
1.200787
1.2010252
1.2010682
1.2011397
1.2012426
1.2013522
1.2014566
1.2015521
1.2016371
1.2016998
1.2017314
1.1976551
1.1976799
1.1977091
1.1977443
1.1977884
1.1978444
1.1979153
1.198004
1.1981134
1.1982453
1.1983971
1.1985692
1.1987617
1.1989679
1.1991842
1.1994101
1.1996479
1.1999017
1.2001767
1.2004776
1.2008036
1.2010616
1.2011084
1.2011644
1.2012562
1.2013518
1.2014513
1.201542
1.2016197
1.2016807
1.2017113
1.1977619
1.1977854
1.197813
1.1978464
1.1978887
1.197943
1.1980119
1.1980974
1.1982013
1.1983226
1.1984691
1.1986435
1.1988348
1.1990392
1.1992542
1.199478
1.1997112
1.1999574
1.2002212
1.200508
1.2008194
1.2010905
1.20115
1.2011922
1.2012688
1.201359
1.2014506
1.2015322
1.201606
1.201663
1.2016922
1.1979389
1.197958
1.197981
1.1980091
1.1980452
1.1980922
1.1981524
1.1982266
1.1983185
1.1984389
1.1985859
1.1987489
1.1989287
1.1991244
1.1993322
1.1995495
1.1997756
1.200013
1.2002657
1.2005387
1.2008356
1.2011165
1.2011937
1.2012232
1.2012895
1.2013728
1.2014498
1.201522
1.2015937
1.201646
1.2016743
1.1982014
1.1982132
1.19823
1.1982512
1.1982785
1.1983139
1.1983606
1.1984249
1.1985098
1.1986124
1.1987328
1.1988742
1.199037
1.1992183
1.1994143
1.1996217
1.1998389
1.2000668
1.2003086
1.2005689
1.2008523
1.2011373
1.2012383
1.2012581
1.2013128
1.2013805
1.2014525
1.2015196
1.2015816
1.2016319
1.2016582
1.1984939
1.1985057
1.1985194
1.1985362
1.1985576
1.1985857
1.1986248
1.1986744
1.1987346
1.1988112
1.1989072
1.1990243
1.1991629
1.1993224
1.1995001
1.199693
1.1998985
1.2001162
1.2003476
1.2005966
1.2008687
1.2011584
1.2012817
1.2012941
1.2013354
1.2013938
1.2014567
1.2015188
1.2015762
1.2016196
1.2016434
1.1987601
1.1987691
1.1987816
1.1987968
1.1988148
1.1988364
1.198863
1.1989021
1.1989573
1.1990206
1.1990935
1.1991843
1.1992964
1.1994306
1.199586
1.1997607
1.199952
1.2001585
1.2003803
1.2006199
1.200883
1.2011712
1.201322
1.2013306
1.2013619
1.2014104
1.2014658