/*--------------------------------*- C++ -*----------------------------------*\
| =========                 |                                                 |
| \\      /  F ield         | OpenFOAM: The Open Source CFD Toolbox           |
|  \\    /   O peration     | Version:  2406                                  |
|   \\  /    A nd           | Website:  www.openfoam.com                      |
|    \\/     M anipulation  |                                                 |
\*---------------------------------------------------------------------------*/
FoamFile
{
    version     2.0;
    format      ascii;
    arch        "LSB;label=32;scalar=64";
    class       volScalarField;
    location    "0.09";
    object      omega;
}
// * * * * * * * * * * * * * * * * * * * * * * * * * * * * * * * * * * * * * //

dimensions      [0 0 -1 0 0 0 0];

internalField   nonuniform List<scalar> 
2065
(
102.94429
99.792175
98.040736
5897.5691
4204.4809
2964.0919
2070.2117
1434.6565
985.3819
662.5185
431.64142
275.22849
191.29732
153.05021
134.21386
123.0753
115.67852
110.14382
107.27637
104.06961
102.98803
99.824833
98.058058
80953.46
70370.353
58662.679
48658.04
39886.501
32143.69
25410.204
19704.303
15004.443
11230.51
8265.6065
5988.9223
4279.3076
3021.1268
2111.3669
1462.9866
1004.0065
674.54548
439.33616
280.09887
193.52057
154.07224
134.75313
123.36565
115.86984
110.2581
107.35907
104.12579
103.03709
99.862879
98.076171
76177.618
67123.496
56264.062
46958.791
38794.939
31521.483
25117.239
19619.1
15034.094
11312.599
8362.8676
6080.5575
4355.91
3080.3559
2154.5606
1492.9514
1023.8334
687.42949
447.78957
285.34832
195.96459
155.19124
135.33748
123.67036
116.07093
110.38133
107.44674
104.18599
103.09055
99.907591
98.095213
71500.93
64058.832
54006.963
45306.076
37691.232
30865.532
24788.735
19505.196
15041.967
11384.093
8455.7671
6171.5618
4433.8106
3141.5794
2199.7414
1524.5726
1044.9227
701.30342
456.85652
291.01281
198.65128
156.41133
135.98328
124.00132
116.29012
110.5146
107.53973
104.24888
103.14878
99.959557
98.115426
66947.648
61146.798
51895.139
43713.072
36584.16
30178.662
24423.945
19360.895
15032.279
11443.113
8542.6369
6260.8503
4512.3982
3204.5144
2246.8151
1557.8515
1067.3046
716.17252
466.49392
297.12837
201.5973
157.74693
136.67863
124.34486
116.5177
110.65463
107.63728
104.3157
103.21167
100.01778
98.137103
62540.715
58325.66
49915.679
42187.748
35481.689
29464.137
24022.676
19184.65
15001.884
11487.525
8621.5891
6347.1484
4590.9211
3268.7817
2295.6357
1592.763
1091.0021
732.01018
476.8263
303.72152
204.82715
159.19277
137.44508
124.71879
116.76999
110.80833
107.74262
104.38541
103.27979
100.08344
98.160327
58296.696
55526.984
48047.636
40737.324
34392.301
28725.754
23584.621
18972.757
14939.582
11513.624
8690.3309
6428.9306
4668.4677
3333.9016
2345.9968
1629.2508
1116.0233
748.83912
487.67443
310.75874
208.34388
160.77236
138.26517
125.10766
117.0275
110.97087
107.84999
104.45788
103.3507
100.15924
98.185073
54280.794
52692.137
46226.879
39345.16
33315.433
27964.166
23108.388
18722.124
14845.436
11513.224
8745.6803
6504.3693
4743.9413
3399.2769
2397.6218
1667.2243
1142.3613
766.66014
499.04765
318.29181
212.16379
162.46205
139.15438
125.52365
117.31594
111.1483
107.96275
104.53363
103.4249
100.24051
98.212022
50562.359
49804.764
44398.09
37987.913
32246.961
27178.689
22592.104
18429.927
14717.969
11496.75
8786.2006
6571.5439
4816.0575
3464.1848
2450.1608
1706.5551
1170.0047
785.46374
511.16748
326.25983
216.26929
164.29926
140.10813
125.97571
117.60906
111.3314
108.07248
104.61138
103.49543
100.33199
98.242477
47177.986
46903.95
42490.631
36623.187
31173.18
26364.822
22032.408
18092.511
14552.769
11451.735
8807.2229
6628.0099
4883.289
3527.7601
2503.1908
1747.0729
1198.926
805.26355
524.11022
334.78486
220.69042
166.23748
141.10136
126.42731
117.92897
111.53249
108.18985
104.69303
103.56288
100.44292
98.277087
44167.376
44028.679
40403.129
35147.761
30037.151
25497.239
21417.871
17702.928
14342.834
11368.285
8803.8085
6671.0176
4943.9492
3588.9922
2556.1804
1788.559
1229.0813
826.07091
537.93545
343.70478
225.37963
168.31982
142.18636
126.97608
118.26627
111.74036
108.30427
104.77481
103.62049
100.56398
98.316085
41497.533
41241.065
38195.637
33534.213
28813.887
24562.76
20740.813
17255.59
14084.093
11249.452
8782.2585
6699.42
4996.403
3646.7783
2608.518
1830.7429
1260.4123
847.95418
552.69386
353.48955
230.31601
170.49936
143.24807
127.4548
118.59786
111.95813
108.42795
104.85779
103.67558
100.71722
98.357668
39045.728
38496.107
35821.476
31737.406
27461.638
23535.507
19988.057
16743.432
13771.764
11089.72
8728.9285
6705.7321
5038.146
3699.8535
2659.5111
1873.2878
1292.7798
870.98578
568.51703
363.69572
235.57836
172.76413
144.42355
128.12774
118.98936
112.19439
108.54847
104.93886
103.72307
100.88894
98.398769
36623.325
35710.663
33229.382
29681.766
25911.398
22375.493
19140.917
16158.165
13401.298
10885.012
8641.3478
6696.2439
5068.3738
3747.0978
2708.4245
1915.7783
1325.9326
895.01371
585.13597
373.79021
240.78846
175.18362
145.5461
128.64566
119.30409
112.41968
108.68325
105.01325
103.7786
101.0582
98.439385
34018.116
32785.424
30469.077
27430.552
24193.448
21093.377
18203.539
15501.912
12973.71
10635.823
8522.591
6667.1091
5086.0701
3787.4814
2754.5371
1957.7954
1359.6433
919.87602
602.49368
384.41396
246.59942
177.44749
146.65583
129.38361
119.73935
112.68776
108.82504
105.07868
103.82486
101.24552
98.481916
31084.859
29705.89
27634.173
25089.356
22382.534
19731.457
17199.334
14788.107
12496.534
10345.553
8371.5313
6610.2453
5086.0594
3819.584
2797.115
1998.9038
1393.6889
945.47955
620.51697
395.44968
252.18178
180.09571
147.93952
130.02442
120.0444
112.90786
108.97588
105.13705
103.88064
101.47319
98.527187
28002.92
26670.078
24897.163
22809.794
20587.063
18354.55
16167.191
14040.7
11984.235
10022.33
8192.6447
6533.562
5077.3586
3843.951
2835.7235
2038.7076
1427.8412
971.70017
639.09252
406.62367
258.10464
182.35424
148.74735
130.6143
120.45548
113.20285
109.14321
105.17781
103.92222
101.71045
98.573995
25038.709
23873.97
22408.614
20716.069
18896.787
17027.686
15152
13289.463
11456.032
9677.9836
7992.656
6439.3923
5054.4002
3860.2739
2870.1035
2076.9147
1461.8968
998.42656
658.17219
417.97091
264.6101
184.71853
150.10244
131.47102
120.83247
113.44688
109.30684
105.20037
103.96372
101.91395
98.628457
22414.317
21442.841
20248.45
18874.914
17376.656
15804.777
14193.498
12563.8
10932.981
9326.6881
7780.1973
6331.7742
5018.5602
3868.8986
2900.2627
2113.3684
1495.7079
1025.5924
677.83897
429.9836
270.62222
187.6262
150.97003
131.85303
121.13722
113.74963
109.49781
105.22013
104.01904
102.09557
98.695758
20201.43
19407.871
18438.262
17311.017
16060.291
14722.112
13325.87
11891.684
10436.295
8983.6848
7565.3898
6217.0397
4975.2476
3871.1215
2926.6046
2148.0888
1529.1918
1053.1394
698.07044
442.9107
276.88667
189.0782
151.4887
132.62652
121.61931
114.05239
109.65391
105.24868
104.07766
102.33221
98.774635
18432.805
17783
16982.382
16038.156
14970.995
13808.314
12576.542
11296.609
9985.6742
8664.1947
7359.0682
6102.2726
4928.4411
3869.6692
2949.9695
2181.2971
1562.3503
1081.0313
718.85349
456.4102
283.31785
191.78196
152.96042
133.29658
121.86637
114.30285
109.80603
105.29327
104.16811
102.57326
98.86807
17088.867
16545.797
15868.796
15058.123
14124.294
13087.78
11973.424
10804.992
9602.3033
8384.0428
7172.5267
5995.028
4882.6737
3866.4173
2971.4854
2213.4074
1595.2922
1109.2907
740.21538
470.52281
290.32232
194.89268
153.32231
133.59261
122.21804
114.6038
109.95165
105.35968
104.22953
102.74866
98.98921
16102.975
15642.78
15059.224
14348.517
13513.423
12567.834
11534.435
10439.358
9307.5579
8160.458
7018.1349
5903.4462
4842.8846
3864.6381
2992.5232
2244.9515
1628.1704
1137.9791
762.23364
485.31018
297.50672
196.43002
153.65922
134.51197
122.57061
114.78929
110.12997
105.45343
104.26907
102.89985
99.134862
15367.873
14982.25
14479.375
13852.247
13097.689
12223.556
11249.147
10201.923
9111.6983
8005.673
6906.6293
5835.2773
4813.7157
3865.9589
3014.2478
2276.4859
1661.1995
1167.1776
785.01115
500.92415
305.28754
199.01714
154.99957
135.1279
122.69396
115.15888
110.31957
105.56651
104.30745
102.97903
99.290254
14739.641
14433.784
14015.803
13474.027
12799.714
11994.858
11074.431
10065.474
9001.9663
7917.8635
6841.4508
5795.161
4799.0965
3872.9479
3037.7709
2308.353
1694.4687
1196.9322
808.62796
517.57397
314.20937
202.48377
155.97916
135.31824
123.02049
115.4966
110.47638
105.67466
104.32736
103.13349
99.462305
14076.485
13855.231
13530.315
13085.004
12504.528
11783.658
10931.201
9970.9089
8938.1603
7872.3857
6809.0375
5776.3203
4795.8835
3886.0561
3062.6612
2340.2261
1727.7522
1227.1173
833.06411
535.29963
324.59428
206.15448
156.7704
135.984
123.49554
115.70051
110.58639
105.82375
104.36941
103.76251
99.663768
13293.292
13149.735
12916.424
12572.401
12098.095
11480.907
10720.669
9833.7772
8852.5882
7818.8019
6775.6893
5757.79
4790.6975
3895.6138
3085.4757
2370.6536
1760.2404
1257.3025
858.20581
554.14347
336.30218
210.5178
158.32311
136.45554
123.71079
115.90145
110.64321
106.00247
104.52491
104.31649
99.893145
12395.994
12305.688
12141.571
11882.206
11506.519
10997.59
10347.609
9563.1969
8667.974
7699.8791
6702.4505
5716.5914
4773.1415
3894.3084
3100.4672
2396.1623
1790.3907
1286.9249
883.85013
574.11486
349.49567
215.73784
160.10291
136.76956
124.2748
115.99603
110.70391
106.14778
104.63401
104.95714
100.16083
11411.242
11350.651
11231.731
11034.249
10737.971
10324.778
9783.1797
9113.1185
8329.1525
7460.1214
6544.2111
5621.4791
4725.3726
3878.5077
3101.301
2414.1759
1816.5046
1314.9795
909.53525
595.04946
364.20035
222.29602
161.91717
137.44992
124.6701
116.00992
110.79117
106.19818
104.69189
106.24135
100.50144
10397.048
10343.364
10245.386
10086.105
9848.2847
9515.084
9073.3254
8517.672
7854.2952
7102.2759
6291.1882
5454.9213
4626.1511
3832.5214
3090.6823
2420.4
1836.2643
1340.2314
934.57621
616.54841
380.15535
229.91276
164.03844
137.9877
124.75862
116.08736
110.80125
106.20027
104.85046
107.30799
100.95358
9439.6242
9380.2617
9287.2248
9147.4521
8947.5606
8673.5627
8313.0116
7858.0103
7308.4981
6674.2323
5974.2522
5234.8692
4485.3736
3752.391
3058.1444
2417.1094
1849.7313
1361.9935
958.25745
637.93027
396.60292
237.93863
165.85762
138.18006
124.87692
116.12167
110.77989
106.18601
105.06216
107.82635
101.22744
8624.0116
8554.7344
8458.3663
8325.6851
8146.8359
7911.0779
7607.9879
7229.3614
6771.3645
6236.7045
5636.8682
4990.9222
4321.7035
3653.0539
3007.3353
2403.9
1856.4072
1379.8985
980.11508
658.61645
412.86984
246.1549
167.28226
138.18605
124.88226
116.07753
110.76747
106.15341
105.28217
108.03328
101.32427
8010.0391
7932.6742
7831.4157
7700.0401
7531.1676
7316.662
7048.1876
6718.3289
6322.5183
5860.8239
5338.9119
4768.7253
4167.6481
3556.1911
2955.3063
2384.3648
1859.917
1395.7894
1000.7395
678.65733
428.86473
254.30338
168.37743
138.18294
124.83495
116.02803
110.753
106.13175
105.43598
108.31727
101.47828
7579.5816
7502.5452
7403.2666
7277.0897
7117.7538
6918.3944
6672.0563
6372.564
6015.5208
5599.4652
5127.4811
4608.0361
4054.7736
3485.2719
2918.8964
2374.444
1866.767
1412.5722
1021.6021
699.03734
445.47696
263.43878
170.31666
138.29437
124.81249
116.01066
110.76902
106.11037
105.48363
108.64241
101.72743
7219.5953
7152.29
7065.0786
6953.7173
6812.4025
6634.5633
6413.2834
6142.1716
5816.477
5434.2252
4997.1568
4511.8533
3990.1006
3447.8447
2903.314
2375.3145
1879.5427
1432.7497
1044.5517
720.94138
463.68462
274.68156
173.69848
138.9265
124.90609
116.04528
110.80931
106.07924
105.48749
108.88865
102.31341
6836.4001
6783.4845
6713.4512
6622.177
6504.4582
6354.3362
6165.1713
5929.9558
5642.3195
5298.1361
4897.2222
4444.4577
3950.0512
3429.3133
2900.8803
2385.3515
1899.9342
1457.4082
1069.9766
744.5278
483.54738
288.04536
178.51294
140.14564
125.24363
116.20154
110.80572
106.04481
105.48752
109.13061
103.39174
6413.214
6373.7033
6320.1808
6248.522
6153.8218
6030.3538
5871.7832
5671.5321
5423.3097
5122.0277
4765.0596
4353.8967
3895.6784
3403.1341
2894.8923
2394.5222
1920.1114
1482.3285
1095.6985
768.47695
503.88649
302.57266
183.92017
141.08967
125.39499
116.27691
110.78902
106.00773
105.51547
110.18316
104.03775
5972.8899
5940.0718
5895.8875
5836.688
5758.2406
5655.4972
5522.6717
5353.4792
5141.6251
4881.6255
4569.9284
4206.2418
3794.8544
3345.3323
2871.0753
2389.6099
1927.3294
1500.5873
1117.7729
790.1014
522.68158
316.41457
189.12733
141.64193
125.3987
116.27349
110.75796
105.97036
105.58756
111.73098
104.15973
5564.3595
5531.9646
5489.8769
5435.1661
5364.3526
5273.2249
5156.8508
5009.7049
4826.0154
4600.3841
4328.679
4009.2327
3643.9846
3239.7782
2808.945
2364.502
1922.1414
1506.7923
1132.4247
807.53978
538.85559
328.39395
192.92597
141.99372
125.3063
116.21182
110.74196
105.93568
105.67416
112.40669
104.33828
5213.8372
5180.7905
5138.9393
5085.9581
5018.9552
4934.4278
4828.2404
4695.6914
4531.736
4331.4112
4090.5175
3806.5868
3480.1602
3115.6866
2722.0136
2311.8836
1901.3646
1505.0038
1141.4229
822.2223
554.55478
341.66162
198.79947
142.60089
125.20774
116.13599
110.71236
105.90018
105.74179
113.55185
104.99273
4910.8927
4879.1664
4839.3832
4789.5874
4727.2806
4649.4445
4552.5124
4432.398
4284.6406
4104.7044
3888.4884
3633.2403
3338.4467
3006.7598
2644.8473
2263.5101
1876.8969
1500.4947
1148.8884
836.20318
570.70179
356.67786
207.04898
143.73233
125.20917
116.10796
110.68594
105.86619
105.77281
114.80391
105.55593
4627.0759
4598.5242
4562.8351
4518.2689
4462.6222
4393.2284
4306.925
4200.061
4068.5941
3908.317
3715.2426
3486.1839
3219.6902
2917.1007
2583.2873
2227.1299
1861.1563
1500.4154
1159.3534
851.97342
587.82721
372.38422
216.24746
145.68639
125.27024
116.09216
110.65721
105.83314
105.80027
116.18858
105.66117
4353.6306
4328.3121
4296.8073
4257.5697
4208.6705
4147.7606
4072.0302
3978.1993
3862.5717
3721.1992
3550.1839
3346.152
3106.9851
2832.7207
2526.5516
2195.4282
1850.0821
1504.033
1173.5334
870.87279
607.26246
389.49584
226.58204
147.99129
125.28093
116.0395
110.58284
105.77258
105.82762
117.48791
105.72199
4092.8034
4069.7652
4041.3192
4006.1222
3962.5072
3908.4346
3841.4471
3758.6453
3656.7091
3532.0077
3380.8224
3199.7298
2986.186
2739.3314
2460.8683
2155.8347
1832.9057
1503.9403
1185.8914
889.47261
627.38008
407.99925
239.55913
151.39386
125.25912
115.8072
110.33733
105.67029
105.83578
118.74602
106.07643
3852.4451
3830.9618
3804.6637
3772.3885
3732.6936
3683.8111
3623.6031
3549.5291
3458.648
3347.6837
3213.1834
3051.8096
2860.8204
2638.7378
2386.1794
2106.6875
1807.3387
1498.8125
1192.239
903.46312
644.51375
424.7561
251.7197
154.77802
125.3148
115.53361
110.11916
105.53347
105.81555
120.25792
106.6169
3626.4019
3606.4947
3582.2907
3552.7736
3516.6868
3472.4892
3418.3119
3351.9232
3270.7155
3171.7437
3051.8355
2907.8082
2736.8465
2537.0699
2308.2592
2052.6529
1775.628
1485.9225
1194.443
915.18895
660.79778
441.8109
265.8722
159.99253
125.60612
115.41865
109.98201
105.38386
105.78617
121.98791
106.92133
3418.2506
3399.811
3377.5364
3350.5313
3317.697
3277.6854
3228.8574
3169.2466
3096.5378
3008.0841
2900.9817
2772.2264
2619.0057
2439.1687
2231.8406
1998.1777
1742.0928
1470.6837
1194.0769
925.43143
676.71305
459.21914
281.31962
165.99832
126.27651
115.37464
109.85536
105.25032
105.78199
123.98235
107.11866
3216.8218
3199.8211
3179.4079
3154.7954
3125.0257
3088.9223
3045.0509
2991.6836
2926.7711
2847.9444
2752.5597
2637.8089
2500.9497
2339.6761
2152.652
1940.1827
1704.9455
1452.6022
1192.0206
934.36908
692.14971
476.9541
298.01152
174.48256
127.4107
115.26463
109.63516
105.14923
105.86958
125.61236
107.63516
3035.8554
3019.9338
3000.9375
2978.1764
2950.8122
2917.8154
2877.9295
2829.6367
2771.1272
2700.2915
2614.7452
2511.9054
2389.1602
2244.1503
2075.2145
1882.0123
1666.2143
1432.1551
1187.1652
940.89664
705.68556
493.33501
313.67553
182.7284
128.96995
115.10272
109.41106
105.0779
106.10422
127.51479
109.03496
2856.8795
2842.1062
2824.5722
2803.6768
2778.6872
2748.7035
2712.626
2669.1224
2616.5966
2553.1732
2476.7065
2384.8291
2275.0738
2145.1002
1993.0892
1818.2429
1621.3736
1405.6018
1176.8388
943.76319
717.37663
509.52573
330.77224
194.60554
131.1448
115.02643
109.28016
105.02261
106.49117
129.5554
110.49306
2705.0112
2691.1063
2674.6945
2655.246
2632.1144
2604.5063
2571.4518
2531.7728
2484.0534
2426.6186
2357.533
2274.6314
2175.609
2058.2028
1920.4745
1761.2133
1580.5766
1380.7376
1166.4018
945.04739
727.20615
523.72979
345.68172
205.03083
133.98072
115.05949
109.07094
104.96697
106.97443
130.78455
111.88414
2542.3792
2529.5129
2514.4157
2496.6206
2475.5658
2450.5609
2420.7609
2385.1363
2342.444
2291.2029
2229.6829
2155.9202
2067.7778
1963.0748
1839.7988
1696.4878
1532.7745
1349.965
1151.6623
944.20436
736.14751
538.74676
363.04238
219.77696
138.05327
115.20389
108.74519
104.89487
107.42174
131.38334
113.05518
2411.1018
2398.9062
2384.681
2368.0167
2348.4207
2325.2872
2297.8736
2265.2724
2226.3835
2179.8874
2124.2301
2057.6235
1978.0819
1883.5177
1771.9272
1641.6934
1492.0073
1323.4354
1138.5324
942.39109
744.40887
552.86781
378.85444
232.9074
142.87128
115.53863
108.42384
104.80046
107.84316
133.5349
113.61511
2260.2636
2248.773
2235.4549
2219.96
2201.8649
2180.65
2155.6775
2126.1671
2091.1692
2049.5383
1999.9134
1940.7098
1870.1371
1786.2616
1687.1408
1571.074
1436.9928
1284.9356
1116.6908
936.41781
749.58387
566.25179
396.73565
251.42152
151.36472
116.24038
108.21897
104.72596
108.18921
135.3021
114.49293
2156.9391
2145.8077
2132.9743
2118.1284
2100.8926
2080.8042
2057.2947
2029.6672
1997.071
1958.4756
1912.6498
1858.1516
1793.3385
1716.4172
1625.5504
1519.0429
1395.6632
1255.0619
1098.3504
928.57561
750.9281
574.34382
408.3316
263.34759
157.31523
117.32842
108.13921
104.58066
108.51977
135.87079
115.00628
2010.0086
1999.4872
1987.4429
1973.6139
1957.6838
1939.2647
1917.8807
1892.9463
1863.7432
1829.395
1788.8439
1740.835
1683.9142
1616.4587
1536.7195
1442.9882
1333.8805
1208.695
1067.8638
913.49926
749.98994
583.97624
424.91348
282.52845
170.45386
119.19638
108.08056
104.50164
108.88137
136.84113
116.13094
1937.8847
1927.5834
1915.8342
1902.3985
1886.9875
1869.2486
1848.7483
1824.9533
1797.2082
1764.7101
1726.4863
1681.3757
1628.0252
1564.9145
1490.4074
1402.8558
1300.7942
1183.3166
1050.5335
904.13235
747.9376
588.29294
432.83202
292.17355
178.19212
121.7601
107.90256
104.32414
109.31786
140.15028
116.83209
1771.6139
1761.952
1751.0084
1738.5997
1724.5023
1708.4455
1690.0901
1668.9756
1644.5476
1616.2238
1583.2457
1544.6656
1499.3527
1445.9855
1383.0882
1309.1327
1222.6367
1122.4213
1007.9834
880.01196
740.94655
595.26034
450.34589
314.85527
198.43812
127.18091
107.88145
104.19042
109.84724
142.83707
119.28953
13150.279
13442.808
13998.086
14731.896
15577.915
16481.201
17401.835
18317.831
19220.107
20108.301
20993.401
21900.637
22851.114
23853.113
24908.635
25960.3
26813.626
27172.856
26925.525
25822.701
24050.448
22158.428
20388.804
18879.576
17632.529
16564.628
15565.413
14554.409
13527.432
12524.691
11569.158
10685.018
9883.4081
9172.4455
8583.5898
8126.3159
7743.4637
7341.0053
6882.4414
6412.4967
16374.152
17076.641
17997.625
19028.897
20084.607
21102.818
22048.011
22915.607
23717.727
24481.587
25251.927
26062.625
26923.754
27823.01
28690.673
29307.42
29364.305
28791.689
27184.483
25009.25
22778.611
20764.769
19103.996
17789.064
16723.653
15777.53
14833.522
13841.906
12838.109
11853.002
10912.438
10042.439
9264.514
8619.2447
8126.5287
7734.4768
7341.838
6897.8138
6432.8431
5993.7166
5614.1115
5287.2598
4990.0568
4700.438
4421.4179
4159.2498
3919.4502
3692.3358
3482.7004
3279.3243
3097.5028
2916.815
2763.9978
2599.3601
2467.542
2316.0065
2213.0823
2065.5984
1993.9009
1827.047
24504.24
25497.293
26563.75
27557.26
28386.22
29011.642
29451.775
29757.059
29989.036
30218.335
30503.589
30870.371
31277.713
31667.177
31771.207
31407.081
30257.689
28113.683
25568.087
23087.22
20923.472
19168.585
17810.434
16749.939
15852.674
14986.171
14063.679
13085.294
12092.405
11110.881
10181.331
9341.6568
8642.5474
8115.0397
7713.0746
7329.5676
6900.9032
6443.4375
5999.5839
5609.3036
5274.8719
4975.6168
4686.8952
4408.4242
4145.7449
3905.1457
3677.8216
3468.1311
3264.8721
3082.9269
2902.396
2749.567
2585.1974
2453.2916
2301.6972
2198.5048
2050.9413
1979.0591
1812.181
43869.152
43602.803
43169.386
42489.73
41574.354
40506.191
39368.225
38251.53
37235.678
36385.995
35744.324
35245.265
34787.697
34155.553
33053.781
31150.491
28553.282
25767.555
23151.5
20895.804
19079.839
17694.797
16647.743
15805.566
15019.828
14178.65
13252.957
12274.564
11271.394
10295.48
9402.3531
8654.1626
8092.9458
7680.4103
7305.2976
6892.2702
6444.6789
5998.9938
5599.9525
5258.7125
4957.6479
4670.1459
4392.7659
4130.0869
3889.0652
3661.8036
3452.3093
3249.3876
3067.5174
2887.306
2734.6147
2570.661
2438.8019
2287.2945
2183.9269
2036.4196
1964.3828
1797.6034
77252.523
72533.772
67829.689
63349.223
59190.733
55325.414
51725.664
48457.453
45560.493
43062.967
40983.247
39243.773
37678.191
36031.655
34027.457
31519.751
28610.112
25651.538
22965.145
20682.559
18853.228
17464.899
16437.027
15647.237
14943.745
14194.049
13335.869
12392.051
11388.305
10381.454
9445.2722
8655.1151
8061.8016
7638.0987
7270.5357
6872.9756
6437.0498
5992.261
5586.4673
5239.2466
4936.5993
4650.5688
4374.7356
4112.5157
3871.4157
3644.4552
3435.3743
3232.9785
3051.3555
2871.5999
2719.1719
2555.7576
2424.0606
2272.7665
2169.3019
2021.9735
1949.7988
1783.2497
)
;

boundaryField
{
    Side1
    {
        type            empty;
    }
    Inlet
    {
        type            inletOutlet;
        inletValue      uniform 98.392324;
        value           uniform 98.392324;
    }
    Side2
    {
        type            empty;
    }
    Outlet
    {
        type            zeroGradient;
    }
    Botwall
    {
        type            omegaWallFunction;
        blending        binomial;
        n               2;
        value           nonuniform List<scalar> 0();
    }
    Cyli
    {
        type            omegaWallFunction;
        blending        binomial;
        n               2;
        value           nonuniform List<scalar> 0();
    }
    procBoundary3to0
    {
        type            processor;
        value           nonuniform List<scalar> 7(13195.747 16038.284 16038.284 23826.792 23826.792 44206.196 44206.196);
    }
    procBoundary3to1
    {
        type            processor;
        value           nonuniform List<scalar> 
62
(
11892.637
12133.732
12583.368
13181.329
13878.057
14635.612
15427.617
16237.238
17056.217
17880.804
18716.103
19580.868
20483.465
21429.035
22426.809
23438.796
24332.109
24866.755
24847.291
24168.615
22823.503
21292.445
19794.313
18460.929
17301.425
16244.668
15217.827
14177.734
13150.737
12175.011
11265.6
10444.42
9712.5429
9068.4012
8534.2974
8110.8038
7736.5606
7326.0365
6855.4568
6384.0751
5981.8841
5981.8841
5614.1287
5295.1246
5000.2681
4710.3745
4431.5224
4170.3901
3931.7733
3705.1926
3495.9263
3292.695
3111.2167
2930.5459
2777.9118
2613.2032
2481.6126
2330.2815
2227.7265
2080.472
2008.9978
1842.2701
)
;
    }
    procBoundary3to2
    {
        type            processor;
        value           nonuniform List<scalar> 
35
(
102.9007
99.76705
98.024914
5807.0843
4131.6823
2909.2697
2030.9824
1407.8083
967.83663
651.29734
424.64227
270.70283
189.20611
152.04709
133.69696
122.79795
115.49646
110.0373
107.19575
104.0118
104.0118
85844.721
85844.721
73785.803
61176.331
50375.068
40947.389
32722.959
25664.233
19761.139
14957.124
11139.431
8165.1136
8165.1136
82055.014
)
;
    }
}


// ************************************************************************* //
