/*--------------------------------*- C++ -*----------------------------------*\
| =========                 |                                                 |
| \\      /  F ield         | OpenFOAM: The Open Source CFD Toolbox           |
|  \\    /   O peration     | Version:  2406                                  |
|   \\  /    A nd           | Website:  www.openfoam.com                      |
|    \\/     M anipulation  |                                                 |
\*---------------------------------------------------------------------------*/
FoamFile
{
    version     2.0;
    format      ascii;
    arch        "LSB;label=32;scalar=64";
    class       volScalarField;
    location    "0.09";
    object      rho;
}
// * * * * * * * * * * * * * * * * * * * * * * * * * * * * * * * * * * * * * //

dimensions      [1 -3 0 0 0 0 0];

internalField   nonuniform List<scalar> 
2065
(
1.2025307
1.2021627
1.2007625
1.1944736
1.1953575
1.1963375
1.1973919
1.1984863
1.1996535
1.2007307
1.201565
1.2019141
1.2021242
1.2023352
1.2025485
1.2027067
1.2028034
1.202818
1.2027906
1.202686
1.2025156
1.2021552
1.2007547
1.1889089
1.1893032
1.1898281
1.1903358
1.1908005
1.191235
1.1916628
1.1921089
1.1925988
1.1931567
1.1938049
1.1945549
1.1954088
1.1963595
1.1973893
1.1984618
1.1996116
1.2006784
1.201532
1.2018935
1.2021051
1.202313
1.2025269
1.2026868
1.2027846
1.2027998
1.2027729
1.2026691
1.2024998
1.2021472
1.2007488
1.1890674
1.1894351
1.1899437
1.1904536
1.1909275
1.191372
1.1918071
1.1922558
1.1927414
1.1932872
1.1939152
1.1946393
1.1954645
1.1963863
1.1973906
1.1984429
1.1995668
1.2006204
1.2015023
1.2018746
1.2020865
1.2022906
1.2025047
1.2026661
1.202765
1.2027808
1.2027544
1.2026514
1.2024831
1.2021385
1.2007445
1.1892447
1.1895825
1.1900696
1.1905757
1.1910545
1.1915062
1.1919471
1.192398
1.1928803
1.1934158
1.1940263
1.1947268
1.1955248
1.1964182
1.1973963
1.1984275
1.1995217
1.2005604
1.2014669
1.2018579
1.2020686
1.202268
1.2024818
1.2026445
1.2027444
1.2027608
1.2027353
1.2026328
1.2024656
1.2021288
1.2007415
1.1894346
1.189746
1.1902064
1.1907035
1.1911831
1.1916389
1.1920839
1.1925363
1.1930158
1.1935429
1.1941382
1.1948174
1.1955899
1.1964558
1.1974072
1.1984164
1.199487
1.2005066
1.20142
1.201843
1.2020517
1.2022453
1.2024584
1.2026221
1.2027228
1.2027399
1.202715
1.2026132
1.2024472
1.2021182
1.2007393
1.189632
1.1899216
1.1903485
1.1908344
1.191312
1.19177
1.1922176
1.1926711
1.1931485
1.1936688
1.1942511
1.1949115
1.1956602
1.1964996
1.1974241
1.1984104
1.1994594
1.2004619
1.2013684
1.2018292
1.202036
1.2022228
1.2024345
1.2025989
1.2027003
1.202718
1.2026936
1.2025925
1.2024283
1.2021069
1.2007378
1.1898278
1.190096
1.1904993
1.1909675
1.1914399
1.1918984
1.1923481
1.1928027
1.1932789
1.1937939
1.1943656
1.1950094
1.1957362
1.1965501
1.1974477
1.1984101
1.1994369
1.200427
1.2013202
1.2018146
1.2020219
1.2022007
1.2024102
1.2025748
1.2026769
1.2026951
1.202671
1.2025708
1.2024088
1.2020952
1.2007372
1.1900179
1.1902699
1.1906458
1.191094
1.191562
1.1920218
1.1924743
1.1929311
1.1934074
1.1939189
1.194482
1.1951115
1.1958185
1.196608
1.1974788
1.1984162
1.1994187
1.2003844
1.2012729
1.2018018
1.2020097
1.2021793
1.2023857
1.2025502
1.2026525
1.2026712
1.2026473
1.2025482
1.2023889
1.2020835
1.2007376
1.1901969
1.1904354
1.190784
1.1912157
1.1916768
1.1921382
1.1925952
1.1930562
1.1935346
1.1940447
1.1946014
1.1952189
1.1959077
1.196674
1.197518
1.1984289
1.199402
1.2003398
1.2012262
1.2017887
1.2019994
1.2021589
1.2023612
1.2025249
1.2026273
1.2026464
1.2026225
1.2025245
1.2023685
1.2020721
1.2007391
1.1903573
1.1905824
1.1909089
1.1913243
1.1917817
1.1922468
1.1927107
1.1931785
1.1936616
1.1941727
1.1947254
1.1953328
1.1960051
1.1967491
1.1975663
1.198449
1.1993873
1.2003009
1.2011842
1.2017759
1.2019911
1.20214
1.202337
1.2024992
1.2026014
1.2026207
1.2025965
1.2025
1.202348
1.2020609
1.2007421
1.190502
1.190718
1.1910196
1.19142
1.1918744
1.1923467
1.1928214
1.1932998
1.1937907
1.1943055
1.1948563
1.1954552
1.1961123
1.1968347
1.1976249
1.1984775
1.1993762
1.2002672
1.2011445
1.201765
1.2019848
1.2021231
1.2023131
1.2024733
1.2025749
1.2025941
1.2025693
1.2024746
1.202327
1.2020497
1.2007474
1.1906269
1.1908511
1.1911429
1.1915146
1.191966
1.1924469
1.1929343
1.1934257
1.1939269
1.1944473
1.1949977
1.1955891
1.1962317
1.1969326
1.1976952
1.1985157
1.1993714
1.2002399
1.2011151
1.2017573
1.2019813
1.2021085
1.2022901
1.2024472
1.2025479
1.2025666
1.202541
1.2024484
1.2023057
1.2020373
1.2007547
1.1907283
1.1909454
1.1912528
1.1916429
1.192092
1.1925724
1.1930672
1.1935691
1.1940794
1.1946049
1.1951548
1.1957387
1.1963663
1.1970451
1.1977793
1.1985663
1.199383
1.2002298
1.2011022
1.2017516
1.2019803
1.2020971
1.2022681
1.2024213
1.2025205
1.2025387
1.2025118
1.2024216
1.2022837
1.2020234
1.2007634
1.1908869
1.1911054
1.1914146
1.1917925
1.1922247
1.1927136
1.1932231
1.1937376
1.1942568
1.1947863
1.195334
1.1959089
1.1965198
1.1971749
1.1978793
1.1986322
1.199417
1.2002355
1.2010749
1.2017383
1.2019856
1.202089
1.2022477
1.2023958
1.2024929
1.2025102
1.2024818
1.2023943
1.2022617
1.2020084
1.2007726
1.1911367
1.1913544
1.1916547
1.192026
1.1924616
1.1929449
1.1934486
1.1939608
1.1944786
1.1950045
1.1955443
1.1961055
1.1966965
1.1973252
1.1979974
1.1987146
1.1994665
1.2002487
1.201044
1.2017195
1.2019967
1.2020853
1.2022287
1.2023708
1.2024652
1.2024814
1.2024512
1.2023669
1.2022386
1.2019933
1.2007812
1.1915574
1.1917716
1.1920428
1.1923917
1.1928233
1.1932831
1.1937639
1.1942582
1.1947609
1.1952717
1.1957943
1.1963347
1.1969003
1.1974985
1.1981354
1.1988141
1.1995289
1.2002731
1.2010303
1.2017021
1.2020095
1.2020852
1.2022124
1.2023472
1.2024378
1.2024525
1.2024203
1.2023393
1.2022149
1.2019767
1.2007878
1.1921299
1.192334
1.192611
1.1929464
1.1933243
1.1937385
1.1941808
1.194641
1.1951131
1.1955954
1.1960899
1.1966009
1.1971342
1.1976967
1.1982946
1.1989314
1.1996052
1.2003099
1.2010313
1.2016813
1.2020216
1.2020908
1.2021986
1.2023244
1.2024105
1.2024238
1.2023896
1.202312
1.2021911
1.201958
1.2007923
1.1928594
1.1930429
1.1932919
1.1935912
1.1939227
1.1942893
1.1946845
1.1951
1.1955305
1.195974
1.1964309
1.1969042
1.1973987
1.1979203
1.1984749
1.1990669
1.1996962
1.2003579
1.2010371
1.2016728
1.2020398
1.2020996
1.2021872
1.2023041
1.2023848
1.2023958
1.2023593
1.2022849
1.2021677
1.2019394
1.2007949
1.1936558
1.1938251
1.1940459
1.1942962
1.1945813
1.1949002
1.1952467
1.1956142
1.1959982
1.1963971
1.1968105
1.1972403
1.1976908
1.1981672
1.1986752
1.1992196
1.1998016
1.200417
1.2010476
1.2016656
1.2020659
1.202116
1.2021822
1.2022859
1.2023591
1.2023684
1.20233
1.2022585
1.202145
1.2019223
1.2007949
1.1944705
1.1946156
1.1947981
1.1950101
1.1952548
1.1955306
1.1958322
1.1961542
1.1964932
1.1968473
1.1972157
1.1976
1.198004
1.1984329
1.1988922
1.1993872
1.1999204
1.2004885
1.2010754
1.201673
1.2020956
1.2021394
1.2021769
1.2022689
1.2023366
1.2023429
1.2023018
1.2022324
1.2021232
1.2019071
1.2007919
1.1952593
1.1953753
1.1955259
1.195704
1.1959117
1.1961484
1.19641
1.196692
1.1969908
1.1973037
1.1976297
1.1979702
1.1983286
1.1987102
1.1991208
1.1995663
1.2000504
1.2005719
1.2011197
1.2016873
1.2021149
1.2021609
1.2021822
1.2022607
1.2023164
1.2023186
1.2022747
1.2022069
1.2021018
1.2018896
1.2007915
1.1959978
1.1960879
1.1962094
1.1963558
1.1965291
1.19673
1.1969563
1.1972035
1.1974676
1.1977451
1.1980341
1.1983354
1.1986522
1.1989896
1.1993539
1.1997516
1.2001879
1.2006636
1.2011713
1.2017026
1.2021403
1.2021973
1.2021887
1.2022473
1.2022956
1.2022964
1.2022496
1.2021824
1.2020811
1.2018709
1.2007979
1.1966963
1.1967621
1.1968555
1.1969704
1.1971088
1.1972731
1.1974629
1.1976759
1.1979076
1.1981539
1.1984117
1.1986802
1.1989614
1.1992602
1.199583
1.1999369
1.2003283
1.20076
1.2012276
1.2017238
1.2021599
1.2022194
1.2021943
1.2022425
1.2022843
1.2022775
1.2022258
1.2021597
1.202061
1.2018519
1.20081
1.1973506
1.1973952
1.1974628
1.197548
1.1976522
1.1977788
1.1979301
1.1981061
1.1983041
1.1985202
1.1987502
1.1989914
1.1992438
1.1995111
1.199799
1.2001151
1.2004665
1.2008573
1.2012857
1.2017442
1.2021512
1.2022468
1.202226
1.2022536
1.2022679
1.2022589
1.2022051
1.2021401
1.2020426
1.2018366
1.200827
1.1978914
1.1979378
1.1979914
1.1980572
1.1981373
1.1982349
1.1983532
1.1984942
1.1986583
1.1988433
1.1990458
1.1992621
1.1994909
1.1997334
1.1999941
1.2002797
1.2005973
1.2009521
1.2013435
1.2017644
1.2021574
1.2022977
1.2022551
1.2022473
1.2022574
1.2022466
1.202188
1.2021238
1.2020264
1.2018259
1.2008526
1.1982202
1.1982494
1.1983087
1.1983834
1.1984721
1.1985765
1.1986873
1.1988053
1.198944
1.1991045
1.1992847
1.199482
1.1996939
1.1999197
1.2001619
1.2004254
1.2007169
1.2010421
1.2014027
1.2017931
1.2021812
1.2023487
1.2022718
1.2022552
1.2022623
1.2022399
1.2021754
1.2021115
1.202013
1.2018201
1.2008908
1.1985719
1.1985887
1.1986156
1.1986517
1.1986975
1.1987579
1.198848
1.1989715
1.1991175
1.1992774
1.1994495
1.1996395
1.1998449
1.2000641
1.2002975
1.2005483
1.2008224
1.2011256
1.2014612
1.201827
1.202207
1.2023849
1.2023082
1.2022833
1.2022615
1.2022304
1.202169
1.2021034
1.202005
1.2018174
1.2009399
1.1987264
1.1987525
1.1987855
1.1988257
1.1988741
1.1989329
1.1990064
1.1991
1.1992171
1.1993651
1.1995422
1.1997367
1.1999459
1.2001678
1.2004014
1.2006484
1.200913
1.2012008
1.2015164
1.2018599
1.2022203
1.2024273
1.2023562
1.202298
1.2022696
1.2022375
1.2021694
1.2021002
1.2020015
1.2018127
1.2009902
1.1987352
1.1987652
1.1988015
1.1988458
1.1989005
1.1989687
1.199053
1.1991566
1.1992828
1.1994337
1.199609
1.1998064
1.2000214
1.2002487
1.2004856
1.2007323
1.2009918
1.2012688
1.2015681
1.2018914
1.2022323
1.2024674
1.2023977
1.2023241
1.202297
1.2022453
1.2021739
1.202104
1.2020028
1.2018006
1.2010316
1.19877
1.1988015
1.1988382
1.1988824
1.1989378
1.1990074
1.1990945
1.1992026
1.1993346
1.1994906
1.1996645
1.1998588
1.2000794
1.200315
1.2005577
1.2008063
1.201063
1.201332
1.2016181
1.2019244
1.2022471
1.2025055
1.202451
1.2023643
1.2023175
1.2022603
1.2021891
1.2021136
1.2020131
1.2017909
1.2010555
1.1988737
1.1989027
1.1989365
1.1989775
1.19903
1.1990973
1.1991831
1.1992893
1.1994112
1.199551
1.1997263
1.199936
1.2001603
1.2003935
1.2006344
1.2008809
1.2011331
1.2013941
1.2016685
1.20196
1.2022675
1.2025397
1.2025074
1.2024008
1.2023477
1.2022878
1.2022074
1.2021318
1.202029
1.2017896
1.2010574
1.199101
1.1991225
1.1991484
1.1991802
1.1992218
1.1992764
1.1993463
1.1994322
1.1995443
1.1996928
1.1998688
1.2000613
1.2002679
1.2004894
1.2007217
1.2009607
1.201205
1.2014565
1.2017189
1.2019964
1.2022901
1.2025657
1.2025674
1.2024493
1.2023853
1.2023109
1.2022288
1.202168
1.2020556
1.2018004
1.2010393
1.1994384
1.1994506
1.1994682
1.1994909
1.1995206
1.1995597
1.1996131
1.1996877
1.1997855
1.1999036
1.200042
1.2002035
1.2003883
1.2005926
1.2008111
1.2010389
1.2012736
1.2015151
1.2017661
1.2020306
1.2023111
1.202587
1.202626
1.2025042
1.2024247
1.2023468
1.2022665
1.2022016
1.2020915
1.2018142
1.2010209
1.1998169
1.1998279
1.1998421
1.19986
1.1998827
1.1999134
1.1999566
1.2000109
1.2000757
1.2001575
1.2002605
1.2003874
1.2005389
1.2007134
1.2009073
1.2011164
1.2013369
1.2015668
1.201807
1.2020603
1.2023298
1.2026081
1.2026844
1.2025609
1.2024737
1.2023942
1.2023095
1.2022425
1.2021312
1.20184
1.2010071
1.2001317
1.2001405
1.2001531
1.2001686
1.2001871
1.2002095
1.2002371
1.2002787
1.2003383
1.2004053
1.200481
1.2005761
1.2006946
1.2008374
1.2010033
1.2011896
1.2013925
1.2016095
1.2018396
1.2020837
1.2023445
1.2026189
1.2027406
1.2026251
1.2025323
1.2024462
1.2023554
1.202284
1.2021777
1.2018907
1.2010334
1.2003532
1.2003654
1.2003806
1.200398
1.2004171
1.2004367
1.2004556
1.2004757
1.2005046
1.2005542
1.2006265
1.2007114
1.2008105
1.2009318
1.2010774
1.201246
1.201435
1.2016413
1.2018633
1.2021007
1.2023555
1.2026262
1.2027912
1.202694
1.2025924
1.2025006
1.2024035
1.202322
1.2022218
1.2019573
1.2011218
1.2004212
1.20044
1.2004589
1.2004793
1.200502
1.2005274
1.2005555
1.2005859
1.2006186
1.2006562
1.200705
1.2007753
1.2008686
1.2009819
1.2011179
1.2012775
1.2014594
1.2016609
1.2018791
1.2021131
1.2023642
1.2026321
1.2028357
1.2027643
1.2026569
1.2025576
1.2024523
1.2023542
1.2022497
1.2020097
1.2012464
1.2003796
1.2003999
1.2004226
1.2004478
1.2004758
1.200507
1.2005419
1.2005814
1.2006267
1.2006795
1.2007413
1.2008143
1.2009037
1.2010137
1.2011456
1.2013001
1.2014772
1.2016755
1.2018921
1.2021242
1.202372
1.2026361
1.2028665
1.2028248
1.2027147
1.2026085
1.2024954
1.2023812
1.2022641
1.2020308
1.2013237
1.2003952
1.200413
1.2004327
1.2004548
1.20048
1.200509
1.2005427
1.2005822
1.2006288
1.2006843
1.2007504
1.200829
1.2009235
1.2010371
1.2011706
1.2013251
1.2015004
1.2016954
1.2019084
1.2021369
1.2023792
1.2026366
1.2028805
1.20287
1.2027599
1.2026511
1.2025346
1.2024108
1.2022787
1.20203
1.2013232
1.2005123
1.200525
1.2005395
1.200556
1.2005751
1.2005975
1.2006241
1.2006561
1.200695
1.2007429
1.2008028
1.2008773
1.2009678
1.2010765
1.2012056
1.2013563
1.201528
1.2017188
1.2019265
1.2021484
1.2023823
1.2026298
1.2028773
1.2028975
1.202785
1.2026765
1.2025633
1.2024458
1.2023049
1.2020416
1.2013101
1.2006682
1.2006787
1.2006909
1.2007046
1.2007201
1.2007379
1.2007588
1.2007837
1.2008141
1.2008522
1.2009015
1.2009632
1.2010393
1.201134
1.2012502
1.2013895
1.2015515
1.2017344
1.2019347
1.2021488
1.202374
1.2026118
1.2028585
1.2029126
1.2027979
1.2026861
1.2025747
1.2024718
1.2023399
1.2020762
1.2013455
1.2007969
1.2008082
1.2008209
1.2008348
1.2008501
1.2008671
1.2008862
1.2009083
1.2009343
1.2009652
1.2010024
1.2010517
1.2011161
1.2011957
1.201295
1.2014172
1.2015635
1.201733
1.2019228
1.2021286
1.2023469
1.2025783
1.2028228
1.2029177
1.2028098
1.20269
1.2025741
1.2024767
1.2023597
1.2021083
1.2013963
1.2008365
1.20085
1.2008646
1.2008806
1.2008981
1.2009173
1.2009386
1.2009625
1.2009898
1.2010214
1.2010582
1.2011011
1.2011548
1.2012244
1.201312
1.2014204
1.2015519
1.2017073
1.2018852
1.2020825
1.2022956
1.2025239
1.2027681
1.2029102
1.2028196
1.202695
1.202569
1.2024638
1.2023434
1.2021021
1.2013995
1.200824
1.2008364
1.2008502
1.2008654
1.2008822
1.2009009
1.2009217
1.2009451
1.2009717
1.2010025
1.2010386
1.2010818
1.2011342
1.2011988
1.2012786
1.2013771
1.2014972
1.2016408
1.2018084
1.2019986
1.2022081
1.2024355
1.2026821
1.2028702
1.20281
1.2026882
1.2025615
1.2024525
1.2023244
1.2020802
1.2013921
1.2008099
1.2008195
1.2008302
1.2008421
1.2008553
1.20087
1.2008865
1.2009052
1.2009267
1.2009518
1.2009819
1.2010184
1.2010636
1.2011202
1.2011912
1.2012801
1.2013901
1.2015235
1.2016818
1.2018646
1.2020699
1.2022962
1.2025456
1.2027739
1.2027581
1.2026534
1.2025403
1.2024425
1.2023209
1.2020747
1.2014277
1.2007927
1.2007995
1.2008069
1.2008151
1.2008241
1.2008341
1.2008452
1.2008577
1.2008722
1.2008894
1.2009103
1.2009367
1.200972
1.2010176
1.2010752
1.2011499
1.2012454
1.201365
1.2015106
1.2016831
1.2018817
1.2021052
1.2023569
1.2026163
1.2026573
1.2025782
1.2024903
1.2024166
1.2023102
1.202091
1.2014795
1.200749
1.200754
1.2007594
1.2007653
1.2007716
1.2007785
1.200786
1.2007943
1.2008038
1.2008151
1.2008293
1.2008475
1.2008708
1.2009025
1.2009471
1.2010074
1.2010877
1.2011923
1.2013246
1.2014863
1.201678
1.2018993
1.202154
1.2024366
1.2025403
1.202485
1.2024146
1.202362
1.2022729
1.202082
1.2015239
1.2006666
1.2006706
1.2006748
1.2006794
1.2006844
1.2006895
1.2006951
1.2007012
1.2007081
1.2007164
1.2007268
1.2007404
1.2007587
1.2007845
1.2008213
1.2008726
1.2009431
1.2010376
1.2011603
1.2013145
1.2015018
1.201723
1.2019816
1.2022795
1.2024358
1.2024068
1.2023499
1.2023146
1.2022479
1.2020474
1.2014972
1.2005575
1.2005614
1.2005656
1.2005701
1.200575
1.2005802
1.2005858
1.200592
1.2005991
1.2006075
1.2006179
1.2006315
1.2006497
1.200675
1.2007103
1.2007597
1.2008278
1.2009196
1.2010403
1.2011939
1.2013823
1.2016062
1.2018688
1.2021766
1.2023854
1.2023817
1.2023393
1.2023088
1.2022521
1.2020528
1.2015091
1.2004493
1.200454
1.2004591
1.2004647
1.2004709
1.2004776
1.2004849
1.2004932
1.2005026
1.2005137
1.2005271
1.200544
1.2005658
1.2005947
1.2006334
1.2006854
1.200755
1.2008472
1.2009676
1.2011211
1.2013113
1.2015389
1.2018051
1.2021168
1.2023817
1.2024157
1.2023859
1.2023629
1.2023133
1.2021452
1.201604
1.2003697
1.2003762
1.2003833
1.2003912
1.2004
1.2004097
1.2004205
1.2004325
1.2004461
1.2004616
1.2004796
1.2005011
1.2005267
1.2005589
1.2005998
1.2006529
1.2007239
1.2008181
1.2009404
1.2010954
1.2012864
1.2015154
1.201785
1.2021019
1.2024125
1.2024946
1.2024855
1.2024706
1.2024158
1.2022404
1.2017176
1.2003272
1.2003338
1.2003412
1.2003495
1.2003589
1.2003697
1.200382
1.2003961
1.2004124
1.2004314
1.2004536
1.2004799
1.2005112
1.2005486
1.2005949
1.2006537
1.2007284
1.2008235
1.2009444
1.201097
1.2012866
1.2015163
1.2017885
1.2021101
1.202462
1.2026011
1.20261
1.2025935
1.2025128
1.2023188
1.2018215
1.2003534
1.200361
1.2003693
1.2003783
1.2003883
1.2003995
1.2004121
1.2004264
1.2004427
1.2004616
1.2004838
1.2005104
1.2005427
1.2005822
1.2006305
1.2006902
1.2007647
1.2008586
1.2009777
1.2011283
1.2013166
1.2015469
1.2018209
1.2021434
1.2025129
1.2027046
1.202728
1.202712
1.2026154
1.2024171
1.2019296
1.200498
1.2005028
1.2005081
1.2005141
1.2005211
1.2005291
1.2005386
1.2005496
1.2005627
1.2005784
1.2005973
1.2006204
1.2006488
1.2006843
1.2007287
1.2007848
1.2008558
1.2009459
1.2010602
1.2012045
1.2013857
1.2016093
1.2018781
1.2021961
1.2025736
1.2028189
1.2028556
1.2028537
1.2027425
1.2025619
1.2020783
1.2006609
1.2006655
1.2006707
1.2006766
1.2006835
1.2006915
1.200701
1.2007121
1.2007253
1.2007409
1.2007597
1.2007826
1.2008105
1.2008454
1.2008891
1.2009437
1.2010127
1.2010999
1.2012105
1.2013506
1.2015254
1.2017382
1.2019919
1.2022938
1.2026612
1.202963
1.203032
1.2030651
1.2029131
1.2027375
1.2021928
1.2009209
1.2009243
1.2009281
1.2009325
1.2009377
1.2009439
1.2009513
1.2009602
1.2009711
1.2009845
1.201001
1.2010213
1.2010467
1.2010781
1.2011181
1.2011696
1.2012347
1.2013163
1.2014181
1.2015443
1.2016997
1.2018892
1.2021177
1.2023936
1.2027368
1.2030726
1.2031714
1.2032411
1.2030745
1.2028961
1.2023663
1.2011108
1.2011139
1.2011175
1.2011217
1.2011266
1.2011324
1.2011394
1.2011477
1.2011579
1.2011704
1.2011859
1.2012054
1.2012304
1.2012624
1.201301
1.2013475
1.2014064
1.2014811
1.2015752
1.2016927
1.2018376
1.2020144
1.2022292
1.2024887
1.2028199
1.2031867
1.203307
1.20342
1.2032323
1.2030168
1.2025984
1.2013918
1.2013975
1.2014033
1.201409
1.2014148
1.2014209
1.2014273
1.2014343
1.201442
1.2014506
1.2014602
1.2014712
1.2014834
1.2014981
1.2015188
1.2015484
1.2015885
1.2016419
1.2017126
1.2018046
1.2019226
1.2020716
1.2022531
1.2024947
1.2027728
1.203171
1.2033507
1.2034586
1.2032259
1.2031192
1.2026555
1.1887635
1.1887884
1.1888248
1.188874
1.1889374
1.1890158
1.1891094
1.1892173
1.1893389
1.1894724
1.1896163
1.1897687
1.1899294
1.1901017
1.1902918
1.1905181
1.1908179
1.1912194
1.1917398
1.1923709
1.1930976
1.1938642
1.194638
1.1953925
1.1961171
1.1967787
1.1973357
1.1978166
1.1981916
1.1984444
1.1985625
1.1986123
1.1986949
1.1988513
1.1991279
1.1994693
1.1998217
1.2000938
1.2002527
1.2002771
1.1887628
1.1888003
1.1888541
1.1889246
1.1890118
1.1891152
1.1892333
1.1893639
1.1895046
1.1896523
1.1898035
1.1899564
1.1901109
1.1902751
1.190469
1.1907345
1.1911051
1.19161
1.1922433
1.1929873
1.1937742
1.1945671
1.1953377
1.1960803
1.1967641
1.1973432
1.1978267
1.1982188
1.1984842
1.1985974
1.1986337
1.1987041
1.1988505
1.1991194
1.1994633
1.1998251
1.2001086
1.200282
1.2003119
1.2002768
1.2003241
1.2004663
1.2006232
1.2007364
1.2007638
1.2007556
1.2007555
1.2007512
1.2007139
1.2006357
1.2005278
1.2004175
1.2003311
1.2002923
1.2003201
1.2004755
1.2006395
1.2009062
1.201096
1.2013772
1.1887732
1.1888329
1.1889124
1.1890114
1.1891279
1.1892594
1.1894026
1.1895537
1.1897086
1.1898623
1.1900117
1.1901559
1.1903002
1.1904639
1.1906943
1.1910313
1.1915169
1.1921459
1.1928973
1.1937001
1.1945075
1.1952894
1.1960427
1.1967366
1.1973516
1.1978209
1.1982276
1.1985157
1.1986304
1.1986573
1.1987169
1.1988521
1.1991114
1.199457
1.1998239
1.2001177
1.2003053
1.2003429
1.2003067
1.2003436
1.2004795
1.2006368
1.2007545
1.2007848
1.200775
1.2007709
1.2007632
1.2007241
1.2006448
1.2005364
1.2004266
1.2003419
1.2003019
1.2003287
1.2004814
1.2006451
1.2009099
1.2010997
1.2013796
1.1888019
1.188897
1.1890111
1.1891444
1.189293
1.1894523
1.1896173
1.1897832
1.1899443
1.190096
1.1902354
1.1903664
1.1905051
1.1907038
1.1910064
1.1914669
1.1920814
1.1928302
1.1936403
1.1944557
1.1952458
1.1959983
1.1966969
1.1973403
1.1978157
1.1982145
1.198533
1.1986599
1.1986822
1.1987342
1.1988584
1.1991061
1.1994507
1.199818
1.2001206
1.2003221
1.2003705
1.2003342
1.2003623
1.2004912
1.2006482
1.2007703
1.2008039
1.200793
1.2007851
1.2007741
1.2007335
1.2006531
1.2005444
1.2004351
1.2003521
1.2003111
1.2003371
1.2004872
1.2006506
1.2009137
1.2011036
1.2013827
1.1887055
1.1888445
1.188993
1.1891543
1.1893273
1.1895086
1.1896922
1.1898729
1.1900457
1.1902045
1.1903469
1.190474
1.1905951
1.1907716
1.1910439
1.1914778
1.1920675
1.192804
1.1936086
1.1944222
1.1952151
1.1959593
1.1966582
1.1973088
1.1978176
1.1981861
1.1985348
1.1986842
1.1987078
1.1987565
1.1988709
1.1991055
1.1994435
1.1998098
1.2001182
1.2003332
1.2003957
1.2003594
1.2003806
1.2005019
1.2006577
1.2007839
1.2008212
1.2008097
1.2007983
1.2007841
1.2007419
1.2006606
1.2005517
1.2004429
1.2003617
1.2003198
1.2003454
1.200493
1.2006562
1.2009176
1.2011076
1.2013864
)
;

boundaryField
{
    Side1
    {
        type            empty;
    }
    Inlet
    {
        type            calculated;
        value           nonuniform List<scalar> 
59
(
1.2018072
1.2018044
1.2018014
1.2017982
1.2017949
1.2017916
1.2017883
1.2017849
1.2017815
1.201778
1.2017744
1.2017705
1.2017665
1.2017624
1.2017581
1.2017539
1.2017495
1.2017448
1.2017397
1.2017341
1.2017281
1.2017225
1.2017187
1.2017155
1.2017122
1.2017082
1.2017029
1.201696
1.2016869
1.2016753
1.2016634
1.2016541
1.2016527
1.2016542
1.2016541
1.2016519
1.2016499
1.2016515
1.2016557
1.2016607
1.2016642
1.2016703
1.2016789
1.2016897
1.2017034
1.2017181
1.2017312
1.2017438
1.201745
1.201748
1.2017637
1.2017777
1.2017798
1.2017812
1.2017749
1.2017726
1.2017721
1.201774
1.2017751
)
;
    }
    Side2
    {
        type            empty;
    }
    Outlet
    {
        type            calculated;
        value           nonuniform List<scalar> 
35
(
1.2013805
1.201379
1.2013772
1.2013754
1.2013734
1.2013715
1.2013696
1.201368
1.2013668
1.2013663
1.2013669
1.2013692
1.2013739
1.2013821
1.2013951
1.2014145
1.2014419
1.2014802
1.2015328
1.2016041
1.201699
1.2018219
1.2019768
1.2021678
1.2024065
1.2026811
1.2028051
1.2026979
1.2026824
1.2023598
1.2020024
1.2013882
1.2013864
1.2013845
1.2013823
)
;
    }
    Botwall
    {
        type            calculated;
        value           nonuniform List<scalar> 0();
    }
    Cyli
    {
        type            calculated;
        value           nonuniform List<scalar> 0();
    }
    procBoundary3to0
    {
        type            processor;
        value           nonuniform List<scalar> 7(1.1887451 1.1887386 1.1887386 1.1887301 1.1887301 1.1887223 1.1887223);
    }
    procBoundary3to1
    {
        type            processor;
        value           nonuniform List<scalar> 
62
(
1.1887845
1.1888084
1.1888432
1.1888894
1.1889482
1.1890207
1.1891074
1.1892084
1.1893241
1.1894541
1.1895973
1.1897511
1.1899248
1.1901207
1.1903418
1.1906048
1.1909374
1.1913656
1.1918979
1.1925211
1.1932283
1.1939702
1.1947193
1.1954512
1.1961505
1.1967844
1.197325
1.1977879
1.1981495
1.1983983
1.1985263
1.198593
1.1986886
1.1988536
1.1991358
1.1994729
1.1998134
1.2000726
1.2002169
1.2002379
1.2002457
1.2002457
1.2003033
1.2004512
1.200607
1.2007157
1.2007405
1.2007347
1.2007389
1.2007381
1.2007026
1.2006259
1.2005185
1.200408
1.20032
1.2002824
1.2003114
1.2004694
1.2006338
1.2009025
1.2010923
1.2013753
)
;
    }
    procBoundary3to2
    {
        type            processor;
        value           nonuniform List<scalar> 
35
(
1.2025458
1.2021713
1.2007733
1.1943942
1.1953096
1.1963192
1.1973974
1.1985196
1.1996945
1.2007789
1.2016043
1.2019345
1.2021437
1.2023568
1.2025693
1.2027258
1.2028213
1.2028357
1.2028079
1.202702
1.202702
1.1887652
1.1887652
1.1891854
1.1897163
1.1902162
1.1906692
1.1910921
1.1915121
1.1919556
1.1924511
1.193024
1.1936951
1.1936951
1.1885714
)
;
    }
}


// ************************************************************************* //
