/*--------------------------------*- C++ -*----------------------------------*\
| =========                 |                                                 |
| \\      /  F ield         | OpenFOAM: The Open Source CFD Toolbox           |
|  \\    /   O peration     | Version:  2406                                  |
|   \\  /    A nd           | Website:  www.openfoam.com                      |
|    \\/     M anipulation  |                                                 |
\*---------------------------------------------------------------------------*/
FoamFile
{
    version     2.0;
    format      ascii;
    arch        "LSB;label=32;scalar=64";
    class       volScalarField;
    location    "0.02";
    object      Ma;
}
// * * * * * * * * * * * * * * * * * * * * * * * * * * * * * * * * * * * * * //

dimensions      [0 0 0 0 0 0 0];

internalField   nonuniform List<scalar> 
2065
(
0.10505927
0.10813918
0.11084285
0.11301779
0.11480758
0.066378052
0.071610409
0.076769521
0.081660643
0.08607091
0.031458045
0.035024107
0.039149483
0.044104843
0.012779869
0.015396595
0.018108814
0.0079414808
0.0088827528
0.010039034
0.0080808335
0.00753195
0.0092005354
0.010362003
0.011390455
0.0081435852
0.0068430283
0.0060558341
0.0073088233
0.0087950578
0.01510937
0.018411081
0.037911222
0.043207948
0.048817548
0.07262963
0.078387953
0.083831893
0.08891167
0.10507642
0.10788948
0.11039284
0.11256972
0.11436306
0.12782798
0.13854435
0.14878173
0.15832689
0.16676927
0.1738063
0.17943274
0.18380204
0.18712344
0.12825633
0.13917956
0.14913032
0.15828699
0.16631735
0.1730428
0.17844958
0.18266519
0.18588372
0.1290817
0.13999527
0.14948029
0.15815912
0.16579491
0.17222236
0.17741593
0.18147989
0.18459292
0.12975041
0.14049135
0.14965644
0.1579391
0.16522963
0.17138058
0.17636537
0.18027699
0.18328236
0.13037662
0.14089866
0.14979503
0.15772265
0.16467539
0.17054966
0.17532239
0.1310212
0.1898771
0.19244468
0.19488023
0.19722266
0.19940312
0.20013421
0.18854508
0.19102438
0.19337632
0.19564037
0.19775496
0.19848177
0.18716819
0.18957188
0.19185729
0.19406406
0.19613881
0.19686689
0.18577206
0.18809987
0.19032033
0.19247368
0.19451026
0.19523205
0.14579052
0.14546044
0.14489306
0.14399885
0.14230798
0.13763196
0.15275591
0.152622
0.15234473
0.1518551
0.15084544
0.14798994
0.16003758
0.1600881
0.16002963
0.15976011
0.15892085
0.15587448
0.16752785
0.16777976
0.16797839
0.16806841
0.16788514
0.16669528
0.17508793
0.1755317
0.17593971
0.17623058
0.17609446
0.17378465
0.18250806
0.18312491
0.18373894
0.18431548
0.18478112
0.18558108
0.1896074
0.19037685
0.1911703
0.19198721
0.19286176
0.19415377
0.19629609
0.19723801
0.19822653
0.19926528
0.20035892
0.20103581
0.20237038
0.20348414
0.20466333
0.20590808
0.20717053
0.20732078
0.20758452
0.20883256
0.21014365
0.21150753
0.21282805
0.21260914
0.21178093
0.21316253
0.21460736
0.2161015
0.21750112
0.2168452
0.21477937
0.2162681
0.21779148
0.21932655
0.22070738
0.21988092
0.21656257
0.21823854
0.21994074
0.22163824
0.22311121
0.22188651
0.21695127
0.21872059
0.22051267
0.22229222
0.22382705
0.22262042
0.21658561
0.21836935
0.22015304
0.22187148
0.22338394
0.22213842
0.21549512
0.21739293
0.21925216
0.22102962
0.22251705
0.22117493
0.21352969
0.21551277
0.21745658
0.21932833
0.22089193
0.21958106
0.21100529
0.21308569
0.21510581
0.21703989
0.21865628
0.21747893
0.20805974
0.21024479
0.21235559
0.21437801
0.21609257
0.21504267
0.20485986
0.2071363
0.20931595
0.21138952
0.21316246
0.21238528
0.20157641
0.20394916
0.20621977
0.208393
0.21029176
0.20967534
0.19827085
0.20070851
0.20302373
0.20522973
0.2071929
0.20694601
0.19518821
0.19770784
0.2001012
0.20239199
0.20446171
0.20434987
0.19190918
0.19450118
0.19696338
0.19933113
0.2015347
0.20180249
0.14488612
0.14467205
0.14507886
0.14571057
0.14636536
0.14683922
0.14695017
0.14671235
0.1462024
0.15387256
0.15330378
0.15316565
0.15327346
0.1534981
0.15367359
0.15365733
0.1534238
0.1530229
0.16267358
0.16163593
0.16096479
0.16063583
0.16054519
0.16054871
0.16050988
0.16036668
0.1601321
0.17112284
0.1696893
0.16858977
0.1678994
0.16756786
0.16747088
0.16746555
0.16745945
0.16742484
0.17918189
0.17740537
0.17595954
0.17498316
0.17447735
0.17433873
0.17441646
0.17458627
0.17477601
0.18671019
0.18464608
0.18292985
0.18174763
0.18114087
0.18101979
0.1812214
0.18158739
0.18200097
0.19349913
0.19123424
0.18934674
0.18804867
0.18741522
0.18736673
0.18772435
0.18829522
0.18892274
0.19943206
0.19703578
0.19506226
0.19374043
0.19315692
0.19323279
0.19377606
0.19456749
0.1954194
0.20414589
0.20180513
0.1998868
0.19864619
0.1981941
0.19844834
0.19920624
0.20022745
0.20130275
0.208185
0.20581952
0.20386108
0.20268071
0.20237899
0.20283506
0.20382359
0.20507264
0.20635314
0.20997879
0.20781783
0.20623118
0.20542722
0.20544037
0.20616956
0.20742244
0.20890746
0.21038986
0.20968105
0.20785906
0.20674175
0.20639886
0.20690776
0.20814591
0.2097854
0.21154801
0.21323919
0.2088499
0.20732754
0.20641162
0.20632793
0.20717405
0.20876139
0.2107525
0.21284848
0.2148084
0.20657754
0.2056009
0.20522998
0.20565698
0.20683627
0.20860768
0.21075906
0.21300926
0.21509433
0.20213533
0.2020399
0.20253855
0.20373773
0.2055474
0.20777889
0.21020055
0.21256558
0.21470103
0.19604253
0.19691554
0.19838133
0.20042796
0.20295697
0.20576497
0.20858495
0.21119996
0.21349381
0.18862654
0.19065961
0.19320992
0.19621221
0.19949809
0.20285392
0.20605943
0.20894138
0.21140782
0.18014407
0.1834986
0.1872744
0.19132037
0.1954233
0.19937187
0.2029852
0.20613234
0.20876463
0.17106299
0.17581966
0.18088625
0.18601563
0.19095578
0.19550107
0.19951598
0.20291674
0.20570339
0.16199115
0.16809392
0.17439455
0.180569
0.18631995
0.19143862
0.19583421
0.19947297
0.2024
0.15330928
0.16070831
0.16814587
0.17525843
0.18173821
0.18737563
0.192113
0.19596635
0.19901909
0.14548863
0.15375929
0.16213804
0.17010965
0.17727459
0.18339874
0.18844356
0.19248391
0.19564028
0.13873958
0.14819521
0.1572746
0.16573434
0.17331902
0.17977885
0.18505559
0.18923988
0.19248151
0.12978224
0.14001509
0.15050265
0.16021348
0.16868954
0.17573292
0.18137578
0.1857735
0.18912675
0.18602473
0.1741706
0.1648671
0.15785106
0.15219308
0.1474747
0.19474716
0.18391955
0.17458067
0.1674233
0.16158099
0.15656891
0.20289095
0.19301505
0.18367864
0.17646755
0.17057078
0.16553696
0.21037173
0.20147469
0.19221094
0.18502089
0.17914025
0.17414678
0.21704656
0.20913694
0.20009928
0.19302088
0.18723214
0.18233021
0.22287015
0.21614333
0.20730107
0.20035241
0.19469395
0.18993631
0.22757813
0.22198661
0.21347664
0.20675951
0.20130175
0.19674464
0.230967
0.22681607
0.21869845
0.21223589
0.2069981
0.20265317
0.23302497
0.23024187
0.22232431
0.21611805
0.21117784
0.20715927
0.23246139
0.23133289
0.22473942
0.2191254
0.21463497
0.21100108
0.23160824
0.23134548
0.22557868
0.22044054
0.21617959
0.21269629
0.23247598
0.23164363
0.22498668
0.2196391
0.21544843
0.21215122
0.2284787
0.22942388
0.22270641
0.21761144
0.21376836
0.21088911
0.22360292
0.22409915
0.21844019
0.21389732
0.21054533
0.20812056
0.20888388
0.21490003
0.21121312
0.20755562
0.20482106
0.20296066
0.19358245
0.20391513
0.20162871
0.19895451
0.19708159
0.19599073
0.1772544
0.19171028
0.19057007
0.18874631
0.18776198
0.18755482
0.16033392
0.17508813
0.1764434
0.17649085
0.17690443
0.17785814
0.13874803
0.15825607
0.1616501
0.16328383
0.16519441
0.16745136
0.11657321
0.13426703
0.14359086
0.14884979
0.15308187
0.1569922
0.087686444
0.11478467
0.12639871
0.13449806
0.14109348
0.14687353
0.040100169
0.079817505
0.10972709
0.1225425
0.13112691
0.13817325
0.01207217
0.04045825
0.077779614
0.10710705
0.12060565
0.12963915
0.020733608
0.020738301
0.042618467
0.074936323
0.10583774
0.12109693
0.017061672
0.0062178422
0.018656177
0.038483016
0.063948584
0.097664558
0.018575239
0.013556889
0.0068303711
0.013741803
0.030766283
0.05842348
0.017125045
0.014835795
0.011448047
0.0069803058
0.0090355258
0.028063763
0.0174061
0.015319349
0.012644371
0.0096478798
0.0058728485
0.0089277013
0.018081725
0.015891567
0.013581669
0.011320028
0.0089316786
0.0072803107
0.018620418
0.016334697
0.014267227
0.012481959
0.010757269
0.0091017267
0.018531001
0.016313944
0.014431318
0.012912149
0.011571497
0.010300111
0.017589937
0.015245888
0.013729552
0.012641097
0.01176349
0.010992427
0.014252513
0.013075023
0.012197834
0.011713739
0.011473377
0.011361943
0.010716003
0.010034216
0.0099492925
0.010258181
0.010795497
0.011422588
0.0066475152
0.0064781498
0.0075100982
0.0087084159
0.0099790613
0.011238733
0.0041951047
0.0039921072
0.0061728899
0.007837626
0.0094297926
0.010948644
0.0050961065
0.0048469747
0.0061127815
0.0075515919
0.0090200701
0.010444813
0.0083999827
0.0076281775
0.0077235634
0.0082691746
0.0090551915
0.0099261482
0.012132665
0.010757747
0.0098498928
0.00942791
0.0093159469
0.009381679
0.015405781
0.012882831
0.011291224
0.010195133
0.0093671283
0.0086803407
0.016269472
0.013913481
0.011985161
0.010461506
0.0091431288
0.0079111649
0.016254357
0.013928228
0.011863023
0.010099507
0.0084194105
0.00688018
0.015548101
0.013493499
0.011270788
0.0091199627
0.0068921919
0.0059712865
0.014686856
0.012768987
0.01040398
0.0076130868
0.0045219489
0.011024863
0.013712586
0.012394207
0.0095502992
0.006343697
0.013924469
0.032598144
0.01304922
0.011861323
0.0077282935
0.020652817
0.036883296
0.063711583
0.013250346
0.0074684619
0.025426387
0.045879114
0.072247361
0.099166903
0.0068437926
0.026934273
0.052363387
0.08439504
0.18100172
0.17140716
0.16426256
0.15948468
0.16673172
0.15763676
0.15137273
0.14741012
0.14480275
0.14317237
0.15158813
0.1430111
0.13771593
0.13463711
0.13286944
0.13204115
0.1358997
0.1278214
0.12361966
0.12152543
0.12064577
0.12062062
0.11995206
0.1124821
0.10943904
0.10832522
0.10827043
0.10901493
0.098987979
0.096356559
0.094939775
0.094832781
0.095699923
0.097295764
0.082256315
0.080614371
0.080194719
0.081110979
0.082993315
0.085606059
0.06399072
0.064271973
0.065264654
0.067455524
0.070526864
0.074219214
0.046196229
0.047766702
0.050465716
0.05421061
0.058647289
0.063507385
0.030228674
0.03167145
0.03648576
0.042088167
0.048013151
0.054044669
0.019922373
0.01942472
0.026315276
0.033187002
0.040056903
0.046825974
0.013237041
0.014251283
0.021140052
0.028434277
0.035646979
0.042641863
0.026024622
0.024022646
0.026366641
0.030932284
0.036527104
0.042489958
0.042429463
0.038429731
0.037562491
0.039099211
0.042248781
0.046377895
0.059250305
0.053159748
0.050398186
0.049916291
0.051004831
0.053233293
0.075523156
0.067644881
0.063321578
0.06141664
0.061030755
0.061765894
0.08978731
0.081527095
0.076217523
0.073156318
0.07160955
0.071151552
0.10794319
0.095347626
0.088776
0.084791912
0.08231403
0.080925123
0.12026597
0.10803636
0.10080687
0.096160787
0.092976555
0.090851711
0.13278037
0.12054318
0.11267608
0.1073933
0.10357174
0.10081021
0.14470445
0.13247993
0.12409399
0.11828807
0.11394087
0.11064823
0.15588431
0.14359948
0.13490248
0.12873799
0.12399236
0.12026385
0.16660189
0.15452174
0.14547685
0.13896082
0.133847
0.12969699
0.17665567
0.16428696
0.1550985
0.14835369
0.14298691
0.13860031
0.026167368
0.055511933
0.062026817
0.20672781
0.19433393
0.18429678
0.13330028
0.12454825
0.11557449
0.10649943
0.097335834
0.088200089
0.079222514
0.070596645
0.062624857
0.055799452
0.050796867
0.048436601
0.049278396
0.053158342
0.059506061
0.067701155
0.077082374
0.087189859
0.097696379
0.10838552
0.11908623
0.12965044
0.14001257
0.12736252
0.11838995
0.10994679
0.10156243
0.093265051
0.085175864
0.077454381
0.07030736
0.064004365
0.058985219
0.05570019
0.054588627
0.055874778
0.059383088
0.064790409
0.071669555
0.079607619
0.088267282
0.097406292
0.10681797
0.11638822
0.12595458
0.13545922
0.1209703
0.11249389
0.10477479
0.097225849
0.089931587
0.083012043
0.076662127
0.071014436
0.066359642
0.06295169
0.061059624
0.060889622
0.062481319
0.065695795
0.070330192
0.076109059
0.082777331
0.090108107
0.097922297
0.10608318
0.11445897
0.12297256
0.13149568
0.11461727
0.10699246
0.10014466
0.09358795
0.087430005
0.081814571
0.076851379
0.072715748
0.069565923
0.067536657
0.066746689
0.067270358
0.069060858
0.072023328
0.07601728
0.080875009
0.086441127
0.092572396
0.099148535
0.10608412
0.11329295
0.12069733
0.12820514
0.10871942
0.10211806
0.096275665
0.090839269
0.085928644
0.081632273
0.078067015
0.075334303
0.073485229
0.072570603
0.072625342
0.073638941
0.075550078
0.078288065
0.081755229
0.08585279
0.090488225
0.095576562
0.10104366
0.10683386
0.11291411
0.1192201
0.1256897
0.10356645
0.098094596
0.093354967
0.089119467
0.085471595
0.082493638
0.080242582
0.078719738
0.077935124
0.07788946
0.078563932
0.079911149
0.081880966
0.084413961
0.087447769
0.090923451
0.094787581
0.098992901
0.10349885
0.10827367
0.11329961
0.11856511
0.12401308
0.099385672
0.095094202
0.091513756
0.088488827
0.086085369
0.08433406
0.083208463
0.082682984
0.082736555
0.083338839
0.084444147
0.086006759
0.087982333
0.090327458
0.093002324
0.095971882
0.099206315
0.10268098
0.10637631
0.11027812
0.11438009
0.11868797
0.1231928
0.096332034
0.093238515
0.090816806
0.088971623
0.087715627
0.087005052
0.086794667
0.087048868
0.087725228
0.088777508
0.090163728
0.09184445
0.093784908
0.095954886
0.098329097
0.10088726
0.10361367
0.10649687
0.10952937
0.11270734
0.11603077
0.11950762
0.12315707
0.094525786
0.092590984
0.091283505
0.090508571
0.090206333
0.090324717
0.090818027
0.091637789
0.092738237
0.09407921
0.095625751
0.097347731
0.099220202
0.10122312
0.10334092
0.10556236
0.1078799
0.11028936
0.11278962
0.11538227
0.11807072
0.12086141
0.12377275
0.094013168
0.093174277
0.092852251
0.092936706
0.093371859
0.094104439
0.095085927
0.096274298
0.09763287
0.099130551
0.10074137
0.10244416
0.10422229
0.10606316
0.10795778
0.10990024
0.11188743
0.11391869
0.11599559
0.11812166
0.12030154
0.1225409
0.12485231
0.094802531
0.094900204
0.095347366
0.096063407
0.097004829
0.098131349
0.099406333
0.10079842
0.10228092
0.10383171
0.10543298
0.10707083
0.10873488
0.11041774
0.1121146
0.11382277
0.11554143
0.11727142
0.11901503
0.12077586
0.12255823
0.12436718
0.12621255
0.096737506
0.097506741
0.098463303
0.099575943
0.10081896
0.10216464
0.10358661
0.10506229
0.10657312
0.10810447
0.10964514
0.11118697
0.11272425
0.11425333
0.11577221
0.1172802
0.11877775
0.12026624
0.12174789
0.12322565
0.12470276
0.1261829
0.12767321
0.099555891
0.10067733
0.10191456
0.1032455
0.10464374
0.10608472
0.10754857
0.10902035
0.11048908
0.11194686
0.11338824
0.11480964
0.11620897
0.11758525
0.11893841
0.12026904
0.12157828
0.12286773
0.12413934
0.12539538
0.1266381
0.12786988
0.10297723
0.10431839
0.10570338
0.10711538
0.10853737
0.10995575
0.1113608
0.11274595
0.11410687
0.11544081
0.11674622
0.11802241
0.11926939
0.12048769
0.12167823
0.1228422
0.12398099
0.12509616
0.12618938
0.12726236
0.12831664
0.12935372
0.10700243
0.10838398
0.10975715
0.11111334
0.11244658
0.11375271
0.11502883
0.11627321
0.11748506
0.11866426
0.11981119
0.12092666
0.12201176
0.12306775
0.12409605
0.1250981
0.12607538
0.12702934
0.12796137
0.12887279
0.12976464
0.13063789
0.1112748
0.11257691
0.11384509
0.11507683
0.11627135
0.1174284
0.11854815
0.11963127
0.12067887
0.12169236
0.12267332
0.12362349
0.12454461
0.12543845
0.12630671
0.12715101
0.12797288
0.12877371
0.12955476
0.13031713
0.13106161
0.13178884
0.11555654
0.11673356
0.11786254
0.11894462
0.11998205
0.12097712
0.12193209
0.12284926
0.123731
0.12457961
0.12539738
0.12618649
0.12694901
0.12768689
0.12840194
0.12909582
0.12977004
0.13042593
0.13106469
0.13168729
0.13229446
0.13288673
0.11973802
0.12076317
0.12173505
0.12265702
0.1235331
0.1243669
0.12516168
0.12592046
0.12664605
0.12734107
0.12800796
0.12864896
0.12926617
0.12986148
0.13043663
0.13099321
0.13153261
0.13205608
0.13256471
0.1330594
0.13354082
0.13400949
0.12374235
0.12460944
0.12542305
0.1261881
0.1269095
0.12759147
0.12823762
0.12885117
0.12943495
0.12999156
0.13052333
0.13103238
0.13152062
0.13198978
0.13244144
0.13287699
0.13329767
0.13370458
0.13409868
0.13448075
0.13485142
0.13521115
0.12756861
0.12827301
0.12892901
0.1295419
0.13011656
0.13065701
0.13116665
0.1316484
0.13210484
0.13253823
0.13295061
0.13334379
0.1337194
0.13407892
0.13442366
0.13475478
0.13507332
0.1353802
0.13567621
0.135962
0.13623813
0.13650501
0.13118774
0.13173709
0.13224493
0.13271655
0.13315644
0.13356823
0.1339549
0.13431893
0.1346625
0.13498747
0.13529551
0.13558808
0.13586649
0.13613189
0.13638531
0.13662769
0.13685982
0.13708242
0.1372961
0.13750139
0.13769874
0.13788847
0.13461467
0.1350126
0.1353789
0.13571805
0.13603357
0.13632824
0.1366043
0.13686359
0.13710768
0.13733794
0.13755556
0.13776159
0.13795696
0.1381425
0.13831896
0.138487
0.1386472
0.13880007
0.13894607
0.13908557
0.13921893
0.1393464
0.13779239
0.1380529
0.13829273
0.1385148
0.13872135
0.13891412
0.1390945
0.13926365
0.13942254
0.13957203
0.13971287
0.13984574
0.13997122
0.14008987
0.14020216
0.14030853
0.14040938
0.14050503
0.1405958
0.14068194
0.14076372
0.14084133
0.14074964
0.14088085
0.14100415
0.14112016
0.14122937
0.14133221
0.14142903
0.14152015
0.14160589
0.14168655
0.14176241
0.14183375
0.14190085
0.14196395
0.14202329
0.14207909
0.14213153
0.14218083
0.14222713
0.14227058
0.14231138
0.14234963
0.1434702
0.1434809
0.14349807
0.14351932
0.14354283
0.14356737
0.14359211
0.14361647
0.14364009
0.14366269
0.14368413
0.14370429
0.14372312
0.14374059
0.1437567
0.14377146
0.1437849
0.14379706
0.14380797
0.14381769
0.14382631
0.14383388
0.14593504
0.14585312
0.14578317
0.145724
0.14567374
0.14563063
0.14559318
0.14556018
0.14553068
0.14550391
0.14547928
0.14545632
0.14543466
0.14541402
0.14539419
0.14537499
0.1453563
0.14533804
0.14532012
0.14530251
0.14528522
0.14526823
0.14776815
0.14768499
0.14760131
0.14752039
0.1474437
0.14737166
0.1473042
0.14724096
0.14718155
0.14712552
0.14707248
0.14702206
0.14697397
0.14692795
0.14688377
0.14684127
0.14680029
0.14676072
0.14672247
0.14668545
0.14664964
0.14661501
0.14890174
0.1488376
0.14877381
0.14871136
0.14865073
0.14859206
0.14853524
0.14848007
0.14842644
0.14837437
0.14832381
0.14827445
0.14822599
0.14817822
0.148131
0.14808435
0.14803829
0.14799288
0.14794818
0.14790425
0.14786115
0.14781897
0.1499105
0.14983248
0.14975617
0.14968244
0.14961164
0.14954346
0.14947672
0.1494108
0.1493465
0.1492844
0.14922444
0.1491669
0.14911202
0.14905993
0.14901068
0.14896412
0.14892002
0.14887815
0.14883822
0.14879999
0.14876322
0.14872773
0.15027635
0.15020228
0.15012939
0.15005654
0.14998272
0.14990821
0.14983356
0.14975887
0.14968353
0.14960847
0.14953518
0.14946484
0.1493982
0.14933583
0.14928045
0.14923074
0.14918571
0.14914461
0.14910684
0.14907188
0.14903932
0.14900888
0.14904079
0.14906239
0.14908067
0.14909654
0.14910975
0.14912068
0.14912967
0.14913694
0.14914256
0.14914605
0.14914672
0.14914436
0.14913891
0.14913018
0.14911799
0.14910275
0.14908657
0.14907066
0.14905554
0.14904142
0.14902829
0.14901601
0.14085047
0.14143555
0.14168223
0.14149162
0.1408434
0.13993242
0.13896427
0.138129
0.1375572
0.13657878
0.13719159
0.13741939
0.13713423
0.13632135
0.13514568
0.13383077
0.13261793
0.13189519
0.13192146
0.13257089
0.13277813
0.13239822
0.13141875
0.12997513
0.12828289
0.12659627
0.12541466
0.12694712
0.12763436
0.12783342
0.12739016
0.12628474
0.1246323
0.12264474
0.12059227
0.1189895
0.12170928
0.12245172
0.12266592
0.12220126
0.12102858
0.11925094
0.11708294
0.11481062
0.1129281
0.11628342
0.11712005
0.11738896
0.11695982
0.11579851
0.11400149
0.11178526
0.10944067
0.10741906
0.11076562
0.1117688
0.11215091
0.11182947
0.11077703
0.10908683
0.10697121
0.10471209
0.10270891
0.10520643
0.10652029
0.10711383
0.1069939
0.10616542
0.10472177
0.10286448
0.10085538
0.099032957
0.099655565
0.10149506
0.10245532
0.1026564
0.10217227
0.10111521
0.099663799
0.098051553
0.096569591
0.094480376
0.096972799
0.098384473
0.098986438
0.098915939
0.098324753
0.097394701
0.096302264
0.095269005
0.090735382
0.093555653
0.095373842
0.096336981
0.096712663
0.096623961
0.096251437
0.09573733
0.095239164
0.088887254
0.091743113
0.094088122
0.095328273
0.096018448
0.09638818
0.096563635
0.096606276
0.096565778
0.088365882
0.091207985
0.094091207
0.09596551
0.097113781
0.097870753
0.098382995
0.098737182
0.098982756
0.089468412
0.092058793
0.095728301
0.09806923
0.099440409
0.10039265
0.10112824
0.10171243
0.10216445
0.09195026
0.093919961
0.0974742
0.10065792
0.1025893
0.10385343
0.10478528
0.10551277
0.10608003
0.095552723
0.09736731
0.10059098
0.10413516
0.10642289
0.10789329
0.1089447
0.10974223
0.1103534
0.10003237
0.10157188
0.10426389
0.1078875
0.1104621
0.11209952
0.11323279
0.11406392
0.11468452
0.10538924
0.10686203
0.10904205
0.11225725
0.11483048
0.11646662
0.11757419
0.11836973
0.11895358
0.11091589
0.11227634
0.11411739
0.11681244
0.11924067
0.12079571
0.12182124
0.12254217
0.12306269
0.11678465
0.11813921
0.11969925
0.12171826
0.12377551
0.12511849
0.12598359
0.12658238
0.12701045
0.12236196
0.12367312
0.12507757
0.12661832
0.1281867
0.12926802
0.12995539
0.13042164
0.13075098
0.12755737
0.12889226
0.13024769
0.13147506
0.13253877
0.13329644
0.1337694
0.13408309
0.1343031
0.13222169
0.13357633
0.13489653
0.13597811
0.13668638
0.13708329
0.13732268
0.13748315
0.1375977
0.13614061
0.137545
0.13889559
0.13995096
0.14053045
0.14066852
0.14066644
0.14066362
0.14066963
0.13930106
0.14079662
0.14217278
0.14320535
0.1437634
0.14386482
0.14373639
0.14359617
0.14349989
0.14170673
0.14327313
0.1446775
0.14569658
0.14624192
0.1463948
0.14631596
0.14616691
0.14603354
0.14337224
0.14503099
0.14644929
0.1473949
0.14785778
0.14800093
0.14798897
0.14791941
0.1478411
0.14488568
0.14664796
0.14801785
0.14880291
0.14909897
0.14913792
0.1490867
0.14901846
0.14895734
0.14696891
0.1485865
0.14958547
0.15005782
0.15019247
0.15017383
0.15010762
0.15003676
0.14997515
0.1479775
0.14934114
0.15012562
0.15047644
0.15055659
0.1505229
0.15045785
0.15039316
0.15033898
0.14844669
0.14840537
0.14856692
0.1487516
0.14885824
0.14892613
0.14897032
0.14900004
0.14901989
0.14034037
0.13598084
0.13121612
0.12614335
0.1207835
0.11518142
0.10936348
0.10326681
0.096848866
0.091235451
0.088250231
0.086960011
0.086637258
0.088070963
0.090686694
0.094282242
0.098841357
0.10414517
0.10971032
0.11553015
0.12110605
0.12627548
0.13087839
0.13474631
0.13775932
0.1400478
0.14156713
0.14291279
0.14478806
0.14557814
0.14535146
0.13982836
0.13531945
0.13038377
0.12514391
0.11957203
0.11366142
0.10727765
0.10015759
0.092890932
0.088768154
0.08678345
0.085809531
0.085576982
0.087009136
0.0896074
0.093136721
0.097714505
0.10294136
0.10851092
0.1142838
0.11981512
0.12498323
0.12946745
0.13329131
0.13609598
0.13819553
0.13948905
0.14053447
0.1417694
0.14196074
0.14152541
0.13899641
0.13425552
0.12906339
0.12355543
0.11761445
0.11115259
0.10362226
0.095156073
0.090039606
0.087598481
0.08594265
0.085096057
0.084840512
0.086176455
0.088703538
0.092118367
0.096650492
0.10181295
0.10732139
0.11308852
0.11849505
0.12372169
0.12801247
0.13181526
0.13437742
0.1361996
0.13718891
0.13771602
0.13819669
0.13701671
0.13725067
0.13777574
0.13267357
0.1270984
0.12110454
0.11440294
0.10681955
0.097572826
0.092201198
0.089727889
0.087590918
0.086033506
0.085120358
0.084803469
0.085897886
0.088363856
0.091667441
0.095917044
0.10107086
0.10621527
0.11208734
0.11712605
0.12251892
0.12651081
0.13031266
0.13264269
0.13410158
0.13468141
0.13458365
0.13417721
0.13000049
0.12786812
0.13585698
0.13024866
0.12415391
0.11713833
0.10855239
0.10140105
0.098195241
0.095629034
0.093465729
0.091458791
0.089750719
0.088507029
0.088047932
0.08840654
0.089758176
0.093685077
0.096366677
0.10178968
0.10589162
0.11184208
0.11623149
0.12162981
0.12517362
0.12879452
0.13077845
0.1318628
0.13218235
0.13118792
0.12937233
0.121222
0.11425912
0.13252281
0.12782999
0.12291347
0.11860179
0.11543547
0.11341402
0.11174405
0.11004004
0.10829149
0.10648424
0.1047561
0.10337108
0.1028771
0.10272269
0.103488
0.10489941
0.10708095
0.10992718
0.11320307
0.11679113
0.12038384
0.12384121
0.12681474
0.12922221
0.130811
0.13155064
0.13116753
0.12896969
0.12399357
0.10762939
0.069787113
)
;

boundaryField
{
    Side1
    {
        type            empty;
    }
    Inlet
    {
        type            calculated;
        value           uniform 0.14977318;
    }
    Side2
    {
        type            empty;
    }
    Outlet
    {
        type            calculated;
        value           nonuniform List<scalar> 0();
    }
    Botwall
    {
        type            calculated;
        value           nonuniform List<scalar> 
59
(
0.15010302
0.15009181
0.15008055
0.15006916
0.14982751
0.14988948
0.14993625
0.14999407
0.15003915
0.15009432
0.15014042
0.15018062
0.15021713
0.15024742
0.15027235
0.15028709
0.15029995
0.15029713
0.1502891
0.15027771
0.15026209
0.15024301
0.15022224
0.15019997
0.15017846
0.15015631
0.15013703
0.15011619
0.14978378
0.14974882
0.14971151
0.14967747
0.14965622
0.14964557
0.14963991
0.14963408
0.14962858
0.14962248
0.14961673
0.14961187
0.1496102
0.14960881
0.14961222
0.14961681
0.14962485
0.1496355
0.14964772
0.14966228
0.14967625
0.14969084
0.14970307
0.14971415
0.14972215
0.14972773
0.14972937
0.1497215
0.14971163
0.14968736
0.14974405
)
;
    }
    Cyli
    {
        type            calculated;
        value           uniform 0;
    }
    procBoundary0to1
    {
        type            processor;
        value           nonuniform List<scalar> 
44
(
0.11636106
0.11636106
0.089904996
0.049414155
0.049414155
0.02119302
0.02119302
0.011417643
0.0071765078
0.0071765078
0.008367813
0.008367813
0.01000682
0.01168887
0.012133696
0.012133696
0.012493455
0.012431925
0.01184894
0.010874107
0.0096055839
0.0096055839
0.0079174122
0.0060186028
0.0057520751
0.0057520751
0.010513315
0.17907862
0.18197378
0.14129831
0.14992476
0.15750973
0.16413432
0.16973146
0.17907862
0.17428882
0.14129831
0.13164599
0.184376
0.18662459
0.18877476
0.1908661
0.19285255
0.19356728
)
;
    }
    procBoundary0to2
    {
        type            processor;
        value           nonuniform List<scalar> 
55
(
0.12127314
0.12241802
0.12338756
0.12412114
0.12481187
0.10655766
0.11785597
0.092280587
0.10655766
0.11249942
0.17640839
0.15610428
0.17092631
0.15610428
0.15373893
0.092280587
0.098389286
0.098389286
0.10254119
0.21798972
0.19643146
0.19643146
0.17640839
0.15003399
0.14530892
0.14050957
0.13617647
0.1325751
0.129834
0.12800107
0.12707854
0.12690251
0.12730663
0.12814449
0.12920829
0.12909551
0.12909551
0.1303769
0.13149486
0.13250057
0.13346552
0.13446658
0.13556091
0.13676339
0.13807119
0.13946843
0.1409151
0.14238557
0.14384055
0.14525161
0.14658156
0.14777777
0.14869334
0.14898028
0.14900433
)
;
    }
    procBoundary0to3
    {
        type            processor;
        value           nonuniform List<scalar> 7(0.022022583 0.022022583 0.054816192 0.054816192 0.09352073 0.09352073 0.11596413);
    }
}


// ************************************************************************* //
