/*--------------------------------*- C++ -*----------------------------------*\
| =========                 |                                                 |
| \\      /  F ield         | OpenFOAM: The Open Source CFD Toolbox           |
|  \\    /   O peration     | Version:  2406                                  |
|   \\  /    A nd           | Website:  www.openfoam.com                      |
|    \\/     M anipulation  |                                                 |
\*---------------------------------------------------------------------------*/
FoamFile
{
    version     2.0;
    format      ascii;
    arch        "LSB;label=32;scalar=64";
    class       surfaceScalarField;
    location    "0.09";
    object      phi;
}
// * * * * * * * * * * * * * * * * * * * * * * * * * * * * * * * * * * * * * //

dimensions      [1 0 -1 0 0 0 0];

oriented        oriented;

internalField   nonuniform List<scalar> 
4029
(
0.010798726
-0.016641893
0.017168011
-0.011323549
0.010270379
-0.019554071
0.020083887
0.0097031135
-0.022878607
0.02344753
0.0091005974
-0.026684915
0.027289299
0.0084741434
-0.031032348
0.031660908
0.0078393542
-0.035968088
0.036605248
0.0072131936
-0.041533651
0.042162482
0.0066067821
-0.047789613
0.048399033
0.0060357432
-0.054805078
0.055379473
0.005509055
-0.062657871
0.063188242
0.0050288027
-0.071456179
0.071940409
0.0045979779
-0.081333315
0.081768417
0.0042144338
-0.092443396
0.092831536
0.0038736628
-0.10498149
0.10532711
0.0035705969
-0.11916712
0.1194754
0.0032993497
-0.1352538
0.13553054
0.0030542416
-0.15353805
0.15378847
0.0028305227
-0.17435627
0.1745849
0.0026244691
-0.19809424
0.1983047
0.0024302833
-0.22517391
0.22537163
0.0022428824
-0.25608451
0.25627373
0.0020590984
-0.29135502
0.29153846
0.001874876
-0.33153005
0.331711
0.0016821822
-0.37710561
0.37729153
0.0014670205
-0.42838729
0.4285916
0.0012057158
-0.48527901
0.48552474
0.00086697136
-0.5467096
0.54702914
0.00051326081
-0.61339234
0.61372628
0.00022789344
-0.68997716
0.69024481
0.00010859597
-0.77325306
0.77337141
-0.84940678
0.84948666
0.011822004
-0.016181722
-0.012280719
0.011299183
-0.0190296
0.010732061
-0.022309617
0.010126197
-0.026076941
0.0094880598
-0.030391825
0.0088295107
-0.035306848
0.0081677078
-0.040868814
0.0075174374
-0.047135938
0.006893336
-0.054177195
0.0063092126
-0.062069605
0.0057712891
-0.070913774
0.0052823025
-0.080839496
0.0048434704
-0.091999355
0.0044509733
-0.10458349
0.0041004497
-0.11881064
0.003786066
-0.13493313
0.0035017867
-0.15324774
0.0032423415
-0.17409119
0.0030032868
-0.19785012
0.0027784839
-0.22494504
0.0025622131
-0.25586611
0.0023505068
-0.29114362
0.002138415
-0.3313216
0.0019168037
-0.37689164
0.0016699366
-0.42815267
0.0013699248
-0.48499669
0.00098221519
-0.54634377
0.00058046674
-0.61301356
0.00025739466
-0.68967602
0.00011956355
-0.7731178
-0.8493122
0.012787312
-0.015785153
-0.013182238
0.012315077
-0.018555502
0.01178066
-0.021773091
0.011193605
-0.0254875
0.010561411
-0.029756934
0.0098948005
-0.034637196
0.0092101467
-0.040180739
0.008524345
-0.046446309
0.0078535399
-0.05350215
0.0072134318
-0.061424852
0.0066148743
-0.070310178
0.0060647323
-0.080283905
0.0055660294
-0.09149477
0.005115693
-0.10412696
0.0047112425
-0.11839943
0.0043473073
-0.13456204
0.0040176536
-0.15291132
0.0037166867
-0.17378382
0.0034391548
-0.19756684
0.0031785998
-0.22467989
0.002928718
-0.25561381
0.0026845737
-0.29089981
0.0024401341
-0.33108126
0.0021849937
-0.37664515
0.0019013872
-0.4278829
0.0015564232
-0.48467179
0.0011123263
-0.54592473
0.00065614493
-0.6125838
0.00029061323
-0.6893383
0.00013082348
-0.77296041
-0.84919206
0.013702805
-0.015462128
-0.01402397
0.013302969
-0.018153557
0.012828664
-0.021296399
0.012285899
-0.024942037
0.011681772
-0.029149763
0.011026537
-0.033978532
0.010335607
-0.039485962
0.0096267709
-0.045733181
0.0089179755
-0.052788604
0.0082272997
-0.060728966
0.0075700087
-0.069647215
0.0069561165
-0.079663864
0.0063925992
-0.090924611
0.0058794675
-0.10360684
0.0054144539
-0.11792671
0.0049941391
-0.13413362
0.0046122423
-0.15252184
0.004263257
-0.17342755
0.0039409899
-0.19723804
0.0036387383
-0.22437242
0.0033497505
-0.25532203
0.0030678706
-0.29061826
0.0027858268
-0.33080379
0.0024917032
-0.37636078
0.0021654057
-0.42757226
0.0017681504
-0.48429724
0.0012590182
-0.54544405
0.000741265
-0.61209632
0.00032785317
-0.68896089
0.00014103363
-0.77277108
-0.84903937
0.014569308
-0.015222153
-0.014807179
0.014255118
-0.017836982
0.013860081
-0.020898664
0.013384441
-0.024463353
0.012831952
-0.028593844
0.012210655
-0.03335338
0.011533978
-0.038804966
0.010819298
-0.045013689
0.010085845
-0.052049825
0.0093539534
-0.059991223
0.0086426816
-0.068929556
0.0079664256
-0.078980668
0.0073353425
-0.090286026
0.0067536974
-0.1030173
0.0062223913
-0.11738658
0.0057387962
-0.13364096
0.0052973248
-0.15207178
0.0048930306
-0.17301494
0.0045187993
-0.19685636
0.0041681685
-0.22401586
0.0038336869
-0.25498432
0.0035078949
-0.29029276
0.0031821122
-0.33048309
0.0028425963
-0.37603221
0.0024665689
-0.42721393
0.0020083441
-0.48386473
0.0014241416
-0.54489216
0.00083689036
-0.61154315
0.00036944223
-0.68854035
0.00014966046
-0.77253488
-0.84884809
0.015391447
-0.015070539
-0.015540684
0.015169666
-0.017612509
0.01486606
-0.020592017
0.01447515
-0.024069013
0.013995568
-0.028110403
0.013431093
-0.032784576
0.012791512
-0.03816054
0.012092068
-0.044308852
0.011351889
-0.051303672
0.010592704
-0.059225462
0.0098366061
-0.068166259
0.0091023146
-0.078238538
0.0084042157
-0.089579449
0.0077514708
-0.10235556
0.0071481996
-0.11677338
0.0065941569
-0.13307681
0.0060856768
-0.15155342
0.0056179329
-0.17253778
0.0051840358
-0.19641401
0.0047774377
-0.22360251
0.0043900855
-0.25459322
0.0040132163
-0.28991611
0.0036365578
-0.33011207
0.0032441238
-0.37565206
0.0028100232
-0.42679982
0.0022805652
-0.48336436
0.0016096514
-0.54425759
0.000944189
-0.61091591
0.00041556173
-0.68807226
0.00015612399
-0.77223229
-0.84861084
0.016183756
-0.01500487
-0.01624675
0.0160549
-0.017480624
0.015847798
-0.020381494
0.01555221
-0.023769571
0.015161353
-0.027715215
0.014673541
-0.032291906
0.014093385
-0.037574954
0.013432083
-0.043641501
0.012706627
-0.050571511
0.011938516
-0.058449954
0.011151553
-0.067371181
0.010368153
-0.077446287
0.0096072611
-0.088808971
0.008883174
-0.10162125
0.0082043494
-0.11608345
0.0075739273
-0.13243499
0.0069909147
-0.15095914
0.0064515022
-0.17198769
0.0059494443
-0.19590233
0.005478385
-0.22312375
0.0050297803
-0.25414027
0.0045935844
-0.28948005
0.0041577207
-0.32968241
0.0037035864
-0.3752117
0.0032015598
-0.42632036
0.0025886642
-0.48278431
0.0018175659
-0.54352688
0.0010644492
-0.61020543
0.00046618735
-0.68754899
0.00015990116
-0.77184411
-0.8483185
0.016968314
-0.015017767
-0.016952415
0.016928271
-0.017437181
0.016816507
-0.020265889
0.016619324
-0.023568064
0.016325615
-0.027416648
0.015928369
-0.031889213
0.015426298
-0.037066793
0.014825002
-0.043033419
0.014137172
-0.049876149
0.01338185
-0.057686311
0.012582574
-0.066562757
0.011764018
-0.076617735
0.010949174
-0.087983288
0.010157401
-0.10081787
0.0094022456
-0.11531583
0.0086912902
-0.13171116
0.008027091
-0.15028215
0.0074079263
-0.17135639
0.0068288508
-0.19531229
0.0062841009
-0.22257022
0.005764877
-0.25361597
0.0052599535
-0.28897509
0.0047552654
-0.32918454
0.004229165
-0.37470101
0.0036474917
-0.42576416
0.0029366226
-0.48211046
0.0020498323
-0.54268449
0.0011990633
-0.6094021
0.00052113621
-0.68695941
0.00016015461
-0.7713578
-0.84795875
0.017792023
-0.015094278
-0.017712145
0.017826041
-0.01746738
0.01779765
-0.02023319
0.017691485
-0.023457048
0.017493598
-0.027213313
0.017192343
-0.03158185
0.016780472
-0.036648089
0.016257016
-0.042502344
0.015628489
-0.049239154
0.014909079
-0.056957532
0.014119563
-0.065762924
0.013284647
-0.075771529
0.012429884
-0.087116271
0.011578962
-0.099953803
0.010750714
-0.11447356
0.0099579641
-0.13090389
0.0092077517
-0.14951743
0.0085016162
-0.17063645
0.007836787
-0.19463498
0.0072086794
-0.22193207
0.0066086158
-0.25300998
0.00602442
-0.28839064
0.0054398991
-0.32860745
0.0048298803
-0.3741082
0.0041545681
-0.42511758
0.0033283966
-0.48132588
0.0023082827
-0.54171263
0.0013496047
-0.60849625
0.0005802596
-0.68628721
0.00015547623
-0.77077086
-0.84751886
0.018676001
-0.015217302
-0.018549192
0.018766071
-0.017553168
0.018806404
-0.020268687
0.018780504
-0.023425703
0.018671833
-0.027098524
0.018465466
-0.031368623
0.018149223
-0.036324168
0.017715784
-0.042060338
0.017164635
-0.048678477
0.016503291
-0.056285631
0.015747302
-0.0649953
0.014918678
-0.074930157
0.014043175
-0.086226919
0.013147198
-0.099042947
0.012254247
-0.11356481
0.011382629
-0.13001589
0.010544634
-0.14866301
0.0097461951
-0.16982232
0.0089877708
-0.19386234
0.008266716
-0.22119952
0.007575055
-0.25231136
0.0069000138
-0.28771501
0.0062232205
-0.32793871
0.0055154427
-0.3734196
0.0047297254
-0.42436428
0.0037674563
-0.48041021
0.0025943963
-0.54059182
0.0015178421
-0.60747874
0.00064377219
-0.68551191
0.00014392695
-0.77009951
-0.84699017
0.019624327
-0.015377797
-0.019459575
0.01975953
-0.017683554
0.019854319
-0.020358029
0.019895983
-0.023461238
0.019866791
-0.027062449
0.019749338
-0.031243453
0.019528077
-0.03609427
0.019190543
-0.041713163
0.018729538
-0.048206743
0.018145134
-0.055689334
0.01744582
-0.064282865
0.016648246
-0.0741182
0.015775485
-0.085338522
0.014854198
-0.098104852
0.013910919
-0.11260371
0.01296885
-0.12905534
0.012045795
-0.14772138
0.011152953
-0.16891163
0.010295087
-0.19298827
0.0094724079
-0.22036367
0.0086783997
-0.25150919
0.0079002066
-0.28693577
0.007117336
-0.3271645
0.0062959065
-0.37261948
0.005379678
-0.42348458
0.0042562986
-0.47933899
0.002909103
-0.53930148
0.0017060129
-0.60634191
0.00071272783
-0.68461387
0.00012299934
-0.76936271
-0.84636767
0.020648653
-0.015560175
-0.020461485
0.020816952
-0.017846441
0.020954079
-0.020489056
0.021047845
-0.023548136
0.021084528
-0.02709141
0.021045529
-0.03119579
0.020913069
-0.035952109
0.020671057
-0.041460315
0.020306766
-0.047830384
0.019813126
-0.05518231
0.019190725
-0.063645692
0.018448827
-0.073360102
0.017604973
-0.08447705
0.016683069
-0.097164002
0.015710118
-0.11161068
0.014712553
-0.12803694
0.01371313
-0.14670096
0.012728618
-0.16790686
0.01176893
-0.19201012
0.010838062
-0.21941769
0.0099318556
-0.25059338
0.0090380213
-0.28604028
0.0081341206
-0.32626983
0.0071809636
-0.37168998
0.0061103514
-0.42245511
0.0047958734
-0.47808308
0.003252577
-0.53782095
0.0019165027
-0.60508049
0.00078857906
-0.68357418
8.9879201e-05
-0.7685619
-0.84564337
0.021756271
-0.015748415
-0.02156265
0.021940295
-0.018024388
0.02210509
-0.020646999
0.022237647
-0.02367298
0.022324637
-0.027169735
0.022350497
-0.031211932
0.02229655
-0.035887281
0.022144488
-0.041296098
0.021877561
-0.047549919
0.021482709
-0.054772437
0.020952869
-0.063099269
0.020288934
-0.072677976
0.019500717
-0.083669041
0.01860637
-0.096248361
0.017630174
-0.11061191
0.016599137
-0.12698245
0.015539291
-0.14561742
0.014472381
-0.16681698
0.013413729
-0.19093045
0.01237183
-0.21835846
0.011345751
-0.24955599
0.010324488
-0.28501653
0.0092839004
-0.32523898
0.008178636
-0.37061085
0.0069252833
-0.42124804
0.0053843948
-0.47660824
0.0036242158
-0.5361315
0.002151701
-0.60369227
0.00087406183
-0.68237895
4.3029754e-05
-0.76767662
-0.84478617
0.022922847
-0.015933337
-0.022731913
0.023110671
-0.018205427
0.02328776
-0.020816443
0.023444219
-0.023820834
0.023567849
-0.027283683
0.023645746
-0.031278957
0.023659657
-0.035889024
0.023589542
-0.041212399
0.023416535
-0.047361785
0.023123397
-0.054462514
0.022696644
-0.062653982
0.022129053
-0.072090046
0.021421643
-0.082939493
0.020584495
-0.095387374
0.019635972
-0.10963809
0.018600301
-0.12592045
0.017504019
-0.14449447
0.016372073
-0.16565907
0.015224494
-0.18975899
0.014074405
-0.21718848
0.012924679
-0.24839295
0.011766165
-0.28385445
0.010573226
-0.32405617
0.0092930564
-0.36935945
0.0078228647
-0.41982981
0.0060148792
-0.47487503
0.0040228768
-0.53422087
0.0024134893
-0.60217777
0.00097243625
-0.68101766
-1.1397795e-05
-0.76667586
-0.8436553
0.02409614
-0.016112938
-0.023909837
0.024284345
-0.018386067
0.02446863
-0.020992206
0.024640973
-0.02398359
0.024790489
-0.027422429
0.024905267
-0.031381648
0.024972709
-0.035942931
0.024974118
-0.041198701
0.024888218
-0.047259071
0.024695166
-0.054250809
0.024376892
-0.06231511
0.023919262
-0.071609803
0.023314638
-0.082310238
0.022563751
-0.094609935
0.021676446
-0.10872255
0.02067071
-0.12488527
0.019570021
-0.14336387
0.018399547
-0.16445933
0.017182075
-0.18851443
0.015934465
-0.21591808
0.014663254
-0.24710605
0.013361291
-0.28254753
0.012001233
-0.32270646
0.010520752
-0.36791038
0.0087927367
-0.41815983
0.0066727564
-0.4728399
0.0044482637
-0.53209133
0.0027027675
-0.60053814
0.0010843086
-0.67947952
-5.4881173e-05
-0.7655418
-0.84280686
0.025165773
-0.016290087
-0.024981262
0.025356224
-0.018568209
0.025548262
-0.021174884
0.02573572
-0.024160516
0.025909956
-0.027584831
0.026058852
-0.031517265
0.026170403
-0.036039594
0.026233338
-0.041244977
0.026230323
-0.047237494
0.026136951
-0.054136849
0.025930961
-0.062086383
0.025593822
-0.071247693
0.025110805
-0.081799993
0.024473418
-0.093943152
0.023681639
-0.10789946
0.022744433
-0.12391531
0.021678492
-0.14226452
0.020505346
-0.16325331
0.019247255
-0.1872257
0.017922568
-0.21456729
0.016540144
-0.24570518
0.015093973
-0.28109462
0.013553784
-0.32117666
0.01184447
-0.36623498
0.0098100685
-0.41618966
0.0073342091
-0.47046029
0.0049027113
-0.52977083
0.0030200369
-0.59877186
0.0012120268
-0.67775349
-0.00012037755
-0.76422719
-0.84189012
0.02600843
-0.016471018
-0.025819416
0.026207107
-0.018757763
0.0264124
-0.021369899
0.026619844
-0.024356396
0.026823043
-0.027775035
0.027012963
-0.031692606
0.027176546
-0.03618685
0.027298754
-0.041348939
0.027366323
-0.047284715
0.027365803
-0.054113747
0.027274252
-0.061969912
0.027066457
-0.07101253
0.026721119
-0.081424794
0.02622193
-0.093411659
0.025559117
-0.10720214
0.024730986
-0.12305095
0.023744249
-0.14124067
0.022612657
-0.16208498
0.021353645
-0.18593216
0.019983289
-0.21316714
0.01850973
-0.24420996
0.016925554
-0.27950146
0.015193754
-0.31945521
0.013223023
-0.36429974
0.010826172
-0.41386308
0.0079686405
-0.46771138
0.0053924972
-0.52732274
0.0033667021
-0.59687237
0.0013680131
-0.6758377
-0.00019347589
-0.76269431
-0.84064765
0.026471966
-0.016662248
-0.026272067
0.026685155
-0.018961166
0.026909638
-0.021583354
0.027142263
-0.024576608
0.02737831
-0.027997125
0.027610966
-0.031909589
0.027830615
-0.036388932
0.028023847
-0.041522519
0.028173681
-0.047412612
0.028264688
-0.054180284
0.028285534
-0.061963558
0.028216868
-0.070913988
0.028027687
-0.08120308
0.027691063
-0.093039778
0.027189443
-0.10666277
0.026510892
-0.12233265
0.025650378
-0.1403392
0.024610455
-0.16100423
0.023399104
-0.18468209
0.022025003
-0.21175917
0.020490554
-0.24265018
0.018781895
-0.277781
0.016848725
-0.31753062
0.014575005
-0.36206341
0.01174962
-0.4111148
0.0085511622
-0.46463236
0.005925164
-0.52484115
0.0037446718
-0.59482922
0.0015486062
-0.6737271
-0.00024198485
-0.76092699
-0.83951773
0.026436312
-0.01686975
-0.026219511
0.026670413
-0.019184757
0.026920866
-0.021821951
0.027185794
-0.02482818
0.027461999
-0.028258302
0.027744592
-0.032175301
0.028026542
-0.03665195
0.028297932
-0.041772721
0.028545007
-0.047636047
0.028747791
-0.054356824
0.028883271
-0.062070056
0.028935465
-0.070934101
0.028895225
-0.081127354
0.028736747
-0.092842577
0.028424527
-0.10630915
0.027931737
-0.12179643
0.027242046
-0.13960466
0.026344927
-0.1600621
0.025234512
-0.18352859
0.023905809
-0.21039222
0.022348251
-0.24106319
0.020533543
-0.27595109
0.018385953
-0.31538952
0.01574833
-0.35946376
0.012450428
-0.40789821
0.0090913722
-0.46140235
0.0065034657
-0.52241239
0.0041574012
-0.59263562
0.0017504235
-0.67141657
-0.00023259234
-0.75895005
-0.84054998
0.025735483
-0.017096616
-0.025499083
0.025993315
-0.019431809
0.026272598
-0.022089079
0.026572634
-0.025114537
0.026891608
-0.028561902
0.027226228
-0.032492671
0.02757134
-0.036977738
0.027919429
-0.042099197
0.028259816
-0.04795233
0.028577756
-0.054648032
0.028853012
-0.0623158
0.029058939
-0.071107105
0.029172813
-0.081203655
0.029185213
-0.09281243
0.029074262
-0.10615251
0.028795809
-0.12147071
0.028313899
-0.13907408
0.027604751
-0.15930393
0.02664563
-0.18252213
0.025410793
-0.20911471
0.023866686
-0.23948526
0.021958631
-0.27402386
0.019562728
-0.31299702
0.016487684
-0.35642502
0.012850678
-0.40434321
0.0096320917
-0.45831865
0.0071077516
-0.52005989
0.0046047261
-0.59030491
0.0019808984
-0.66891376
-0.00052172002
-0.75649127
-0.83901777
0.024205328
-0.01734276
-0.023948749
0.024487348
-0.019702002
0.024795787
-0.022384144
0.025131104
-0.025434756
0.025492865
-0.028906635
0.025879444
-0.032860071
0.026287665
-0.037364393
0.026712351
-0.042499686
0.027145826
-0.0483587
0.027577217
-0.055049048
0.027991108
-0.062695771
0.028365662
-0.071444613
0.028666204
-0.081465099
0.028853142
-0.092958451
0.028910842
-0.10616594
0.028835867
-0.12134761
0.028579581
-0.13876712
0.028087421
-0.15875992
0.027314794
-0.1816987
0.026206632
-0.20795979
0.024691795
-0.23793207
0.02266661
-0.27197487
0.019953523
-0.31028273
0.016501502
-0.35300405
0.013039781
-0.40095797
0.010246607
-0.45565804
0.0077269031
-0.51771952
0.0050827579
-0.58785248
0.0022913722
-0.66627798
-0.00045902592
-0.75389813
-0.83649169
0.021555407
-0.017607248
-0.021280938
0.021858583
-0.01999389
0.022192276
-0.022705103
0.022557972
-0.025786106
0.02295643
-0.029288949
0.023387467
-0.033272969
0.023849651
-0.037806228
0.024339835
-0.04296708
0.024852563
-0.048845945
0.025379364
-0.055547393
0.025907824
-0.063192489
0.02642005
-0.071921493
0.026891573
-0.081897484
0.027286415
-0.09331036
0.027546644
-0.10637946
0.027632537
-0.12138273
0.027561945
-0.13864218
0.027294026
-0.15843576
0.026712352
-0.18106168
0.025717094
-0.20691306
0.024199154
-0.23637062
0.022018209
-0.26976446
0.019156103
-0.30741235
0.016015065
-0.34988342
0.013272531
-0.39827649
0.01082079
-0.45332264
0.0083025719
-0.51537448
0.0055613176
-0.58531252
0.0026772004
-0.66359865
0.00035270299
-0.75187044
-0.83726055
0.017262222
-0.017882784
-0.016977689
0.017578577
-0.020299987
0.017929612
-0.023044421
0.01831807
-0.02616116
0.018746168
-0.029701698
0.019215501
-0.033724737
0.019726779
-0.038297443
0.020279361
-0.043496838
0.020870648
-0.04941139
0.021495344
-0.056142991
0.022144551
-0.063809116
0.022804715
-0.072545418
0.023455846
-0.082508616
0.02406867
-0.093879513
0.024602025
-0.10686561
0.02496226
-0.12169151
0.024998128
-0.13862266
0.024661765
-0.15804155
0.024043656
-0.18038416
0.0231108
-0.20592333
0.021721595
-0.23493094
0.01985195
-0.26785638
0.017716286
-0.30525677
0.015663727
-0.34783397
0.013615322
-0.39626445
0.011335597
-0.45112953
0.0088051312
-0.51299716
0.0059787924
-0.58269963
0.0030247849
-0.66092507
0.00047933506
-0.74977067
-0.83804958
0.011741732
-0.018126506
-0.011488197
0.01202734
-0.020574078
0.01234878
-0.023352369
0.01270956
-0.026506425
0.013113178
-0.030087492
0.013562794
-0.034153927
0.014060694
-0.038772297
0.014608131
-0.044018637
0.015204846
-0.049979896
0.015848438
-0.056755743
0.016533612
-0.064460468
0.017251254
-0.073225971
0.017988215
-0.083204984
0.018725753
-0.094572778
0.019437665
-0.1075295
0.020105777
-0.12230789
0.020712297
-0.13917378
0.021093994
-0.15836537
0.020929897
-0.18016085
0.020209094
-0.20514314
0.019212445
-0.23387691
0.018140297
-0.26673298
0.016945004
-0.30402279
0.015555974
-0.3464217
0.013771951
-0.39448054
0.011628685
-0.44902889
0.0091600063
-0.51064857
0.0063147503
-0.58008439
0.0032521088
-0.65823139
0.0003528724
-0.74743526
-0.83909553
0.0084277675
-0.018290053
-0.0082546596
0.0086240764
-0.020759515
0.008846502
-0.023562471
0.0090979764
-0.026744095
0.0093815668
-0.030355699
0.0097003863
-0.034455639
0.010057434
-0.039110355
0.010455395
-0.044395544
0.01089639
-0.050397545
0.01138151
-0.057214951
0.011910257
-0.064960438
0.012479863
-0.073763618
0.013084454
-0.083774151
0.013714506
-0.095163707
0.01435704
-0.10812908
0.014991745
-0.12289581
0.015587667
-0.13971937
0.016180358
-0.15890486
0.016894922
-0.1808196
0.017522699
-0.2057127
0.017599005
-0.23389568
0.01711825
-0.26619529
0.016282034
-0.30313062
0.015063307
-0.34514755
0.013523056
-0.39288941
0.01161963
-0.44709056
0.009324777
-0.50837245
0.0065774604
-0.57746886
0.003412053
-0.65534226
-0.0010176754
-0.74331827
-0.83791993
0.0083472651
-0.018400652
-0.0082303746
0.0084796994
-0.020884861
0.0086298041
-0.023704603
0.008799955
-0.026905276
0.0089928199
-0.03053848
0.0092113689
-0.03466286
0.0094588635
-0.039345136
0.0097387813
-0.044661206
0.010054678
-0.05069747
0.01040999
-0.057552384
0.010807757
-0.06533821
0.011249499
-0.07418303
0.011733296
-0.08423305
0.012252609
-0.095655324
0.012795331
-0.10864108
0.013343267
-0.12340976
0.013875806
-0.14021433
0.014358021
-0.15934542
0.014692798
-0.18110888
0.014884543
-0.20585732
0.015146573
-0.23410885
0.015284853
-0.26628452
0.014973181
-0.30276666
0.014052921
-0.3441628
0.012781677
-0.39153235
0.011190211
-0.44538496
0.0092042115
-0.50624501
0.0068537122
-0.5749769
0.0039752271
-0.65232866
0.00014422671
-0.7391855
-0.83222413
0.0075956193
-0.018496034
-0.0074987165
0.0077057918
-0.020993281
0.007831039
-0.023827841
0.0079733912
-0.027045313
0.0081350939
-0.030697506
0.0083185865
-0.034843251
0.008526454
-0.039549401
0.0087613316
-0.044891889
0.0090257463
-0.050956991
0.009321878
-0.057842798
0.0096512256
-0.065660873
0.010014193
-0.074538183
0.010409637
-0.084619374
0.010834146
-0.096069219
0.011280844
-0.10907547
0.011737488
-0.12385216
0.012182796
-0.14064322
0.012583333
-0.1597268
0.012923703
-0.18142726
0.013223324
-0.2061332
0.013432896
-0.23428778
0.013366762
-0.26618237
0.012981432
-0.3023449
0.012387259
-0.34352399
0.011462517
-0.39052922
0.010249754
-0.4440404
0.0086801962
-0.50445686
0.0069635196
-0.57293447
0.0050844633
-0.64997692
0.0054857974
-0.73911127
-0.83131556
0.0071836253
-0.018576765
-0.0071052385
0.0072721043
-0.021084373
0.0073717248
-0.023930359
0.0074835921
-0.027160374
0.0076087898
-0.030826201
0.0077483244
-0.034986588
0.0079030638
-0.039708232
0.0080736682
-0.045066835
0.0082605344
-0.051148378
0.008463811
-0.058050634
0.0086835048
-0.065884917
0.0089195587
-0.074778022
0.0091717506
-0.084874392
0.0094395659
-0.096338681
0.0097220976
-0.10935832
0.010017596
-0.12414688
0.01032324
-0.1409476
0.010633313
-0.16003618
0.010927362
-0.18172154
0.011142974
-0.20634814
0.011134
-0.23428102
0.010964158
-0.26601813
0.010697943
-0.30207898
0.01022951
-0.34304096
0.0096045895
-0.38986722
0.0087743557
-0.4431195
0.0076497147
-0.50315286
0.0064449367
-0.57147171
0.0054513556
-0.64865968
0.0055044803
-0.73887338
-0.8312903
0.0063447016
-0.018630855
-0.0062927785
0.0064030383
-0.021145242
0.0064685929
-0.023998779
0.0065420444
-0.027237088
0.0066240267
-0.030911958
0.0067151039
-0.035082122
0.0068157273
-0.039814233
0.0069261888
-0.045183922
0.0070468612
-0.051277046
0.0071782422
-0.058191172
0.0073208316
-0.066037303
0.0074749144
-0.074941832
0.0076400494
-0.085048721
0.0078148789
-0.096522058
0.0079967672
-0.10954879
0.0081813958
-0.12434153
0.008361235
-0.14114102
0.0085238898
-0.16021911
0.0086521117
-0.18188054
0.0087269293
-0.20646388
0.0087502576
-0.23434473
0.0086385776
-0.26593956
0.0083752145
-0.30182781
0.0080931435
-0.34274831
0.0077308399
-0.38947463
0.0071683386
-0.44248339
0.0063846605
-0.50225436
0.00550742
-0.57044624
0.0049187055
-0.64788715
0.004078486
-0.73787686
-0.83125079
0.0050867913
-0.0186584
-0.0050649624
0.0051099914
-0.021175837
0.0051344873
-0.024032505
0.0051601576
-0.027273994
0.0051866379
-0.030952034
0.0052134104
-0.035125324
0.0052400124
-0.039860527
0.005266106
-0.045233356
0.0052916555
-0.051329853
0.0053170189
-0.058247889
0.0053429639
-0.066098813
0.0053707394
-0.075009342
0.0054020684
-0.085123745
0.0054389785
-0.09660631
0.0054835381
-0.10964414
0.0055381888
-0.1244504
0.0056073532
-0.14126779
0.0056999347
-0.16037203
0.0058323372
-0.18207413
0.0060257274
-0.20671906
0.0062939651
-0.23468094
0.0066340756
-0.26634605
0.0069343375
-0.3021868
0.007068597
-0.34292648
0.0069543429
-0.38935588
0.0065436497
-0.44202497
0.0059153099
-0.5015558
0.0050702627
-0.56950891
0.0038730282
-0.6466039
0.002233485
-0.7361917
-0.83200074
0.0037181626
-0.0037216984
0.0037138079
0.0037047056
0.0036896081
0.0036672928
0.0036366922
0.0035970184
0.0035478472
0.0034891244
0.0034210656
0.0033439303
0.003257678
0.0031614346
0.0030531551
0.002928803
0.0027813545
0.0026002043
0.0023708752
0.0020769886
0.0017085606
0.0012803655
0.00086891365
0.00059520543
0.00044916577
0.0002747345
0.00010510286
0.00015624802
0.00023230069
-2.8486134e-05
-0.0024702143
0.013971539
-0.015374328
0.01470068
-0.013296266
0.014746751
-0.018354774
0.0175814
0.015613103
-0.021818738
0.020954452
0.016527276
-0.025806843
0.024894986
0.017442673
-0.030380484
0.029467682
0.018319939
-0.035579932
0.034705554
0.019120574
-0.041441675
0.040644276
0.019826402
-0.048007868
0.047305704
0.020422501
-0.05536151
0.054769475
0.020891239
-0.063575285
0.063111029
0.021222057
-0.072735458
0.072409562
0.021413691
-0.082956847
0.08277059
0.02147148
-0.09438601
0.094334049
0.021404197
-0.10720115
0.10727467
0.021224841
-0.12162145
0.12180738
0.020944199
-0.13790217
0.13818952
0.020566565
-0.15633497
0.15671924
0.020095206
-0.17726105
0.1777386
0.019530428
-0.20107061
0.20164081
0.018869976
-0.22822165
0.22888597
0.018105894
-0.25918978
0.2599555
0.0172227
-0.29451726
0.29539925
0.0161998
-0.33478848
0.33580598
0.015012671
-0.38056042
0.38173739
0.013629666
-0.43229853
0.43366582
0.011996006
-0.49028184
0.49189372
0.010038688
-0.55405985
0.55598924
0.0077477689
-0.62237575
0.62463887
0.005239258
-0.69731757
0.69981275
0.0026678925
-0.77459833
0.77712228
-0.84825715
0.85091999
0.013113598
-0.016182885
-0.01230333
0.013989814
-0.019229071
0.014893349
-0.022720121
0.015798904
-0.026709987
0.016676282
-0.031255166
0.017497845
-0.036398488
0.018238237
-0.042178698
0.018883727
-0.048649567
0.019417855
-0.055891426
0.019827678
-0.063980457
0.020108
-0.073010674
0.020260288
-0.083103563
0.020289841
-0.094409525
0.020207647
-0.1071125
0.020026095
-0.12143313
0.019750894
-0.1376201
0.01938601
-0.15596329
0.01893393
-0.17680264
0.018396119
-0.20052726
0.017769913
-0.22759148
0.017045687
-0.25846389
0.016209441
-0.29368237
0.015241443
-0.33382615
0.014119006
-0.37944849
0.012812124
-0.43100779
0.011267026
-0.48875906
0.0094124237
-0.55223343
0.0072443476
-0.62023431
0.0048841364
-0.69496267
0.0024860536
-0.77224818
-0.84591882
0.012117999
-0.01708051
-0.011218567
0.01303896
-0.020148025
0.01395935
-0.023638268
0.014859096
-0.027607225
0.015713792
-0.032107061
0.016499427
-0.037181002
0.017198444
-0.042874229
0.017797451
-0.049244649
0.018281936
-0.056371555
0.018645934
-0.064339655
0.018887196
-0.073246677
0.019007755
-0.083218384
0.019016907
-0.094412462
0.018927548
-0.10701651
0.01874656
-0.12124524
0.018478545
-0.13734508
0.018127449
-0.15560529
0.017697402
-0.17636618
0.017189838
-0.20001412
0.016599231
-0.22699698
0.015917531
-0.25778055
0.015131635
-0.29289803
0.014222655
-0.33292314
0.013169837
-0.37840653
0.011944705
-0.42979921
0.010494567
-0.48733172
0.0087500625
-0.55051743
0.0067130078
-0.61822254
0.0045098882
-0.6927576
0.0022945117
-0.77008091
-0.84377316
0.011110361
-0.018027424
-0.0101616
0.012056423
-0.021092032
0.012981039
-0.024560579
0.013864957
-0.028488561
0.014686949
-0.032926168
0.015428842
-0.037919673
0.016078112
-0.043519894
0.016623662
-0.049786154
0.017057002
-0.056800416
0.01737589
-0.064653614
0.017577834
-0.073443227
0.01767027
-0.083304929
0.017665736
-0.094401566
0.017570881
-0.10691492
0.017391261
-0.12105859
0.017131352
-0.13707806
0.016795879
-0.15526282
0.016391002
-0.17595484
0.01591585
-0.19953337
0.015363076
-0.22644035
0.014726672
-0.25714265
0.013994347
-0.29216745
0.013148195
-0.33208322
0.012169471
-0.37743896
0.011031183
-0.42867785
0.0096818927
-0.48600564
0.0080544074
-0.54891859
0.0061560828
-0.61634816
0.00411825
-0.69071186
0.0020942161
-0.76810498
-0.84168362
0.010076701
-0.019014993
-0.0090873303
0.011036577
-0.022049824
0.011950736
-0.025472375
0.012805426
-0.029340598
0.013585013
-0.033702796
0.014277295
-0.038608648
0.014873196
-0.044112088
0.015364636
-0.050273447
0.015748267
-0.057179461
0.016021213
-0.064921523
0.01618769
-0.073604188
0.016259984
-0.083371205
0.016242762
-0.094377876
0.01614284
-0.10680814
0.015965618
-0.12087424
0.015714705
-0.13681994
0.015398518
-0.15493954
0.015021973
-0.17557178
0.01457965
-0.19908546
0.014066859
-0.22592374
0.01347833
-0.25655276
0.012802564
-0.29149361
0.012022843
-0.33130995
0.011122314
-0.37654987
0.010075496
-0.42764832
0.0088325788
-0.48478629
0.0073285464
-0.54744341
0.0055760617
-0.61461847
0.0037109689
-0.68883605
0.0018862517
-0.76632805
-0.83994702
0.0090783832
-0.020002721
-0.0080887678
0.01001235
-0.022981631
0.010886791
-0.026344383
0.011693415
-0.030144509
0.0124187
-0.034425061
0.013053147
-0.039239719
0.013590473
-0.044645626
0.014027299
-0.050706038
0.014359743
-0.057507226
0.014590656
-0.065147302
0.014730273
-0.073738186
0.014782023
-0.083416846
0.0147529
-0.094342191
0.014649426
-0.10669772
0.014474871
-0.12069247
0.014236465
-0.13657425
0.01394338
-0.1546393
0.013594719
-0.17521657
0.013186875
-0.19867202
0.012716167
-0.22544926
0.012177877
-0.25601319
0.011561439
-0.29087924
0.010851485
-0.33060663
0.010032927
-0.37574302
0.0090818402
-0.42671479
0.0079503814
-0.48367872
0.0065757105
-0.54609781
0.0049755587
-0.61304038
0.0032897785
-0.68714106
0.0016712148
-0.76475678
-0.83842748
0.0080909698
-0.020926151
-0.0071654649
0.0089653473
-0.023853765
0.0097862277
-0.027162762
0.0105328
-0.030888311
0.011195482
-0.035084674
0.011763334
-0.039804141
0.012234766
-0.045113199
0.012616188
-0.051083146
0.012903365
-0.057789646
0.013098677
-0.065337398
0.013209555
-0.073843367
0.013242017
-0.083443124
0.013202672
-0.094296209
0.013095788
-0.10658381
0.012925011
-0.12051441
0.012702614