/*--------------------------------*- C++ -*----------------------------------*\
| =========                 |                                                 |
| \\      /  F ield         | OpenFOAM: The Open Source CFD Toolbox           |
|  \\    /   O peration     | Version:  2406                                  |
|   \\  /    A nd           | Website:  www.openfoam.com                      |
|    \\/     M anipulation  |                                                 |
\*---------------------------------------------------------------------------*/
FoamFile
{
    version     2.0;
    format      ascii;
    arch        "LSB;label=32;scalar=64";
    class       volScalarField;
    location    "0.09";
    object      T;
}
// * * * * * * * * * * * * * * * * * * * * * * * * * * * * * * * * * * * * * //

dimensions      [0 0 0 1 0 0 0];

internalField   nonuniform List<scalar> 
2065
(
292.25884
292.26475
292.27686
292.29989
292.33209
292.37127
292.41499
292.46136
292.50867
292.55486
292.59813
292.63738
292.67194
292.70126
292.72533
292.74433
292.75863
292.76862
292.77446
292.7764
292.77516
292.77078
292.76386
292.7548
292.74467
292.73678
292.74063
292.78019
292.83507
292.92365
293.1724
292.35604
292.35476
292.36078
292.37554
292.3977
292.42638
292.46026
292.49777
292.53729
292.57696
292.61502
292.65018
292.6816
292.70858
292.73089
292.74859
292.76194
292.77121
292.77649
292.77802
292.77645
292.77182
292.76469
292.75549
292.74534
292.73756
292.74182
292.782
292.83674
292.92414
293.17197
292.45626
292.44992
292.44925
292.45556
292.46809
292.48659
292.51049
292.5387
292.56985
292.60237
292.63453
292.66506
292.69286
292.71711
292.73738
292.75358
292.76583
292.77427
292.77891
292.77996
292.77802
292.77308
292.7657
292.75633
292.74612
292.73843
292.74317
292.78403
292.83853
292.92449
293.17192
292.55546
292.54469
292.53798
292.53667
292.54058
292.54981
292.56425
292.5833
292.60597
292.63098
292.65684
292.68222
292.70596
292.7271
292.74501
292.75946
292.77042
292.77788
292.78175
292.78225
292.77985
292.77456
292.76688
292.75731
292.74702
292.73945
292.74475
292.7863
292.84036
292.92482
293.17239
292.65091
292.63668
292.62507
292.6174
292.61389
292.6149
292.62067
292.63102
292.64537
292.66277
292.68202
292.70186
292.72111
292.73875
292.75397
292.76639
292.77582
292.78212
292.78511
292.78494
292.78202
292.7763
292.76827
292.75846
292.74807
292.74065
292.74664
292.78886
292.84211
292.92547
293.1735
292.7411
292.72446
292.70923
292.69658
292.68697
292.68096
292.67904
292.68137
292.68776
292.69765
292.71012
292.72412
292.73851
292.75226
292.76445
292.77454
292.78219
292.78712
292.78908
292.78813
292.78457
292.77835
292.76992
292.75982
292.74932
292.74206
292.74889
292.79175
292.84366
292.92699
293.17532
292.82431
292.80634
292.78879
292.77261
292.75836
292.7467
292.73827
292.73354
292.73262
292.73532
292.74108
292.74907
292.75832
292.76783
292.77664
292.78409
292.78968
292.79302
292.79377
292.79189
292.78759
292.78078
292.77187
292.76143
292.75079
292.74372
292.75157
292.79503
292.84491
292.92996
293.17803
292.89924
292.88088
292.86213
292.84376
292.82634
292.81052
292.79701
292.78641
292.77912
292.77526
292.77461
292.77665
292.78061
292.78561
292.79073
292.79522
292.79847
292.79998
292.79932
292.79636
292.79117
292.78366
292.77418
292.76335
292.75254
292.74569
292.75479
292.79878
292.8459
292.93473
293.18196
292.96467
292.94651
292.9276
292.90837
292.88925
292.87081
292.85373
292.83868
292.82622
292.81671
292.81024
292.80661
292.80532
292.80568
292.80687
292.80812
292.80875
292.80817
292.80588
292.80164
292.79542
292.78709
292.77694
292.76564
292.75462
292.74806
292.7587
292.80304
292.84681
292.94119
293.18765
293.02027
293.00289
292.98465
292.96562
292.94601
292.92631
292.90711
292.88905
292.87274
292.85871
292.84729
292.83855
292.83228
292.82803
292.82515
292.82294
292.82069
292.81778
292.81363
292.80791
292.80047
292.79117
292.78025
292.76838
292.75712
292.75093
292.7635
292.80788
292.84807
292.94839
293.19576
293.06689
293.05071
293.03343
293.01519
292.99601
292.97615
292.95608
292.93635
292.91756
292.90026
292.88493
292.87186
292.86112
292.85251
292.84559
292.83979
292.83447
292.82898
292.82273
292.81531
292.80648
292.79604
292.7842
292.77167
292.76011
292.75442
292.7694
292.81333
292.84996
292.955
293.20695
293.10454
293.09006
293.07423
293.05717
293.03901
293.01985
292.99994
292.97971
292.95967
292.94035
292.92227
292.90585
292.89136
292.87883
292.86808
292.85871
292.8502
292.84196
292.8334
292.82405
292.8136
292.80185
292.78894
292.77563
292.76372
292.75874
292.77656
292.8194
292.85263
292.96051
293.22162
293.13436
293.12158
293.1075
293.09206
293.0753
293.05739
293.0384
293.01861
292.99838
292.97817
292.95847
292.93974
292.92237
292.90658
292.8924
292.87965
292.86796
292.85685
292.84579
292.8343
292.82204
292.80878
292.79463
292.78041
292.76811
292.76411
292.7852
292.82609
292.85613
292.96477
293.23926
293.15771
293.14655
293.13417
293.12052
293.10554
293.08923
293.07166
293.05293
293.03332
293.01316
292.99285
292.97283
292.95352
292.93525
292.91821
292.90242
292.88771
292.87373
292.86006
292.84627
292.83199
292.81701
292.80146
292.78618
292.77346
292.77084
292.79545
292.83335
292.86046
292.9678
293.25714
293.17646
293.16678
293.15597
293.14394
293.13058
293.1159
293.09997
293.08278
293.06438
293.045
293.02493
293.00453
292.98419
292.96427
292.94508
292.92676
292.90932
292.89261
292.87632
292.86011
292.84365
292.82678
292.80963
292.79316
292.78004
292.77938
292.80737
292.84112
292.86556
292.97022
293.27143
293.19177
293.18337
293.17396
293.16345
293.15173
293.13869
293.12433
293.10875
293.0919
293.07376
293.05452
293.03445
293.01387
292.99312
292.9725
292.95227
292.93257
292.91339
292.89459
292.87594
292.8572
292.83828
292.81938
292.80162
292.78824
292.79036
292.82088
292.84929
292.87142
292.97231
293.28262
293.20505
293.19778
293.1896
293.18043
293.17014
293.15865
293.14581
293.13155
293.11605
293.09939
293.08149
293.06235
293.0422
293.0213
292.99998
292.97851
292.95711
292.93587
292.91481
292.89381
292.87279
292.85173
292.83097
292.81188
292.79863
292.80453
292.8357
292.8578
292.87804
292.97417
293.29418
293.21633
293.21002
293.2029
293.19489
293.18589
293.17579
293.16451
293.15194
293.13795
293.12257
293.10596
293.08808
293.06885
293.04841
293.02702
293.00497
292.98247
292.95971
292.93676
292.91368
292.89047
292.8673
292.84468
292.82441
292.81211
292.82277
292.85117
292.86659
292.88535
292.97676
293.31055
293.22587
293.22046
293.21434
293.20743
293.19963
293.19083
293.18094
293.16983
293.15739
293.14346
293.12794
293.11108
293.09304
293.07369
293.05296
293.03102
293.00811
292.98442
292.96011
292.93532
292.91022
292.88512
292.86082
292.83987
292.83016
292.84501
292.86615
292.87555
292.89321
292.9804
293.31001
293.23219
293.22762
293.22243
293.21656
293.2099
293.20235
293.19382
293.18418
293.17333
293.16116
293.14752
293.13217
293.11514
293.09676
293.07711
293.05599
293.03335
293.00938
292.98431
292.95836
292.93181
292.90519
292.87979
292.85954
292.85522
292.86894
292.87963
292.88446
292.90145
292.98498
293.29303
293.23396
293.23022
293.22596
293.22112
293.2156
293.20931
293.20215
293.19401
293.18478
293.17432
293.16253
293.14928
293.13433
293.11747
293.09895
293.07894
293.05719
293.03363
293.00847
292.98203
292.95476
292.9275
292.90272
292.88652
292.88701
292.89103
292.89163
292.8933
292.90963
292.99034
293.32008
293.22948
293.22666
293.22343
293.21972
293.21546
293.21056
293.20492
293.19843
293.19097
293.1824
293.17256
293.1613
293.14846
293.13377
293.11684
293.09781
293.07724
293.05491
293.03069
293.00506
292.97875
292.95319
292.93272
292.92284
292.91711
292.909
292.90312
292.90241
292.91721
292.99252
293.34471
293.21581
293.21398
293.21185
293.20937
293.20646
293.20306
293.19906
293.19438
293.18887
293.18242
293.17486
293.16604
293.15576
293.14381
293.12986
293.11319
293.09349
293.07209
293.05015
293.02765
293.00523
292.98491
292.9693
292.9565
292.94009
292.92532
292.91547
292.91215
292.92364
292.98726
293.31244
293.18635
293.18567
293.18482
293.18377
293.18247
293.18085
293.17882
293.17629
293.17312
293.1692
293.16438
293.15851
293.15148
293.14317
293.13358
293.12279
293.11044
293.09495
293.07564
293.05512
293.03531
293.01621
292.99789
292.97873
292.95934
292.94241
292.92936
292.9226
292.92892
292.97925
293.27291
293.15924
293.15899
293.15866
293.15822
293.15763
293.15686
293.15585
293.15454
293.15284
293.15065
293.14783
293.14425
293.13974
293.13414
293.12733
293.11932
293.11039
293.10125
293.09182
293.07898
293.06056
293.03994
293.01897
292.9983
292.97953
292.96181
292.94602
292.93519
292.93598
292.97787
293.20991
293.15263
293.1522
293.1517
293.1511
293.1504
293.14955
293.14852
293.14725
293.14568
293.14373
293.14131
293.13828
293.13453
293.12991
293.12423
293.11733
293.10902
293.09922
293.08814
293.07701
293.06691
293.05445
293.03655
293.01733
292.99993
292.98341
292.96728
292.95417
292.95044
292.98873
293.24468
293.13993
293.13948
293.13895
293.13832
293.13756
293.13665
293.13555
293.13423
293.13264
293.13074
293.12847
293.12578
293.12263
293.11895
293.11467
293.10969
293.10387
293.09702
293.089
293.07982
293.06918
293.05744
293.04511
293.03177
293.01782
293.00397
292.99002
292.97804
292.9729
293.00716
293.28255
293.11693
293.11665
293.11632
293.11593
293.11546
293.1149
293.11424
293.11344
293.11249
293.11137
293.11004
293.10846
293.10658
293.10429
293.10145
293.09794
293.09361
293.08841
293.08235
293.07545
293.06778
293.05991
293.05178
293.04219
293.03075
293.01839
293.00639
292.99571
292.99048
293.01154
293.2562
293.10102
293.10089
293.10074
293.10056
293.10036
293.10014
293.0999
293.09965
293.0994
293.09912
293.09878
293.09832
293.09768
293.09676
293.09545
293.09361
293.0911
293.08788
293.08397
293.07948
293.07439
293.06694
293.05829
293.04959
293.03855
293.02689
293.01547
293.00451
292.99536
292.99715
293.19912
293.10895
293.10874
293.1085
293.10822
293.1079
293.10754
293.10717
293.10679
293.10641
293.10604
293.10565
293.10521
293.10469
293.104
293.10305
293.1017
293.0998
293.09714
293.09351
293.08864
293.0825
293.07613
293.06818
293.05724
293.04565
293.03276
293.0201
293.00709
292.99274
292.97902
293.09916
293.10968
293.10948
293.10925
293.10898
293.10868
293.10835
293.10798
293.10756
293.10709
293.10655
293.1059
293.1051
293.10409
293.10278
293.10109
293.09891
293.09609
293.09251
293.088
293.08243
293.07592
293.06896
293.06132
293.05127
293.04029
293.02971
293.02027
293.00972
293.00515
292.99442
292.98224
293.5864
293.4733
293.36332
293.25723
293.15728
293.0653
292.98388
292.91496
292.85913
292.81657
292.78639
292.76698
292.75631
292.75224
292.75271
292.7555
292.75895
292.76212
292.76423
292.76481
292.76354
292.75996
292.75427
292.74637
292.73647
292.72587
292.71973
292.73476
292.79456
292.92081
293.31063
293.46998
293.35352
293.24878
293.15175
293.06243
292.98249
292.91385
292.85734
292.81311
292.7809
292.75955
292.74735
292.74233
292.7426
292.74614
292.75097
292.75582
292.75995
292.7627
292.76366
292.7626
292.75917
292.75358
292.74578
292.73601
292.72569
292.72004
292.73617
292.79646
292.92027
293.30657
293.36138
293.25179
293.15362
293.06333
292.98212
292.91184
292.85349
292.80731
292.77315
292.7499
292.73616
292.73018
292.73014
292.73416
292.74026
292.74687
292.753
292.75802
292.76136
292.76264
292.7618
292.75851
292.75301
292.74529
292.73562
292.72555
292.72039
292.73771
292.79869
292.9197
293.30107
293.23526
293.13679
293.04871
292.96913
292.89957
292.8414
292.79495
292.76012
292.73616
292.72153
292.715
292.71492
292.71943
292.72667
292.73502
292.74325
292.75056
292.75639
292.7602
292.76178
292.76113
292.75795
292.75253
292.74487
292.73529
292.72548
292.72078
292.7394
292.80119
292.91912
293.29417
293.09885
293.01362
292.93857
292.87274
292.81717
292.77249
292.73869
292.71552
292.70157
292.69529
292.69582
292.70126
292.7098
292.71994
292.73036
292.74009
292.7485
292.75501
292.75921
292.76107
292.76058
292.7575
292.75213
292.74452
292.73503
292.72547
292.72124
292.74124
292.80387
292.91856
293.28922
292.94751
292.88088
292.82407
292.77542
292.73586
292.70573
292.68511
292.6737
292.66946
292.67139
292.67857
292.68892
292.70113
292.71394
292.72626
292.73742
292.74679
292.75384
292.75841
292.7605
292.76015
292.75714
292.75183
292.74426
292.73484
292.72552
292.72176
292.74321
292.8066
292.91805
293.28293
292.78887
292.74587
292.7099
292.67971
292.65703
292.642
292.63475
292.63481
292.64005
292.64979
292.66289
292.6778
292.6934
292.70862
292.72273
292.73522
292.74537
292.7529
292.7578
292.7601
292.75985
292.7569
292.75162
292.74409
292.73473
292.72564
292.72235
292.74528
292.80923
292.9176
293.27557
292.63368
292.61337
292.59737
292.58655
292.58147
292.58215
292.58822
292.59892
292.61317
292.63014
292.64876
292.66788
292.68652
292.70398
292.71983
292.73342
292.74419
292.75219
292.75737
292.75985
292.75969
292.75677
292.75151
292.74399
292.73469
292.72583
292.723
292.74743
292.81163
292.91725
293.26752
292.47895
292.48326
292.48947
292.4985
292.51084
292.52651
292.54512
292.56607
292.58876
292.61239
292.63611
292.65903
292.68047
292.70009
292.7175
292.73194
292.74329
292.7517
292.75713
292.75974
292.75965
292.75675
292.75149
292.74399
292.73472
292.72608
292.7237
292.74961
292.81373
292.91701
293.25924
292.33221
292.36079
292.38869
292.41677
292.44562
292.47533
292.50566
292.53627
292.56674
292.59646
292.62481
292.6512
292.67533
292.69699
292.71558
292.73075
292.74266
292.75143
292.75707
292.75978
292.75974
292.75684
292.75158
292.74407
292.73483
292.7264
292.72446
292.7518
292.81552
292.91689
293.25308
292.19736
292.24857
292.29661
292.34236
292.38641
292.42899
292.47003
292.50946
292.54702
292.58224
292.61481
292.64451
292.67119
292.69447
292.71397
292.72987
292.74229
292.75137
292.75719
292.75998
292.75996
292.75705
292.75177
292.74423
292.73502
292.72678
292.72528
292.75398
292.81704
292.91691
293.24588
292.08033
292.15002
292.2152
292.27629
292.33367
292.38765
292.43828
292.4856
292.52951
292.5698
292.60636
292.63904
292.66784
292.69237
292.71275
292.72931
292.74216
292.75152
292.75748
292.76033
292.76031
292.75738
292.75205
292.74449
292.73528
292.72721
292.72614
292.75613
292.81833
292.91705
293.23827
291.98362
292.06795
292.14666
292.21979
292.28782
292.35152
292.41069
292.46514
292.51466
292.55947
292.59952
292.63469
292.66505
292.69064
292.7119
292.72904
292.74228
292.75187
292.75794
292.76082
292.76079
292.75782
292.75244
292.74483
292.73561
292.72769
292.72704
292.75824
292.81944
292.91733
293.23267
291.90885
292.00481
292.09348
292.17497
292.25033
292.32157
292.38791
292.44854
292.5028
292.55119
292.59393
292.631
292.66265
292.68935
292.71139
292.72905
292.74262
292.75241
292.75857
292.76146
292.76138
292.75837
292.75293
292.74525
292.73601
292.72822
292.72799
292.76029
292.82044
292.91775
293.22604
291.83303
291.94402
292.04568
292.13702
292.22023
292.29835
292.3701
292.4351
292.49313
292.54429
292.58898
292.62774
292.66079
292.68849
292.71122
292.72933
292.74318
292.75314
292.75937
292.76224
292.76211
292.75903
292.75351
292.74576
292.73649
292.7288
292.72898
292.7623
292.82138
292.91829
293.21891
291.76696
291.88415
291.99424
292.09755
292.1936
292.27957
292.35575
292.4235
292.48428
292.53799
292.58483
292.6252
292.65946
292.68803
292.71135
292.72985
292.74394
292.75404
292.76032
292.76315
292.76295
292.7598
292.75419
292.74636
292.73704
292.72942
292.73002
292.76427
292.82233
292.91894
293.21164
291.7551
291.86638
291.97409
292.07777
292.17495
292.263
292.34256
292.4138
292.47719
292.53306
292.58167
292.6234
292.65867
292.68796
292.71179
292.73061
292.7449
292.75511
292.76142
292.7642
292.76393
292.76068
292.75497
292.74704
292.73766
292.73008
292.73109
292.76619
292.82336
292.9197
293.20442
291.75714
291.86487
291.9693
292.06985
292.16493
292.25307
292.33394
292.40705
292.47222
292.52962
292.57954
292.62231
292.65838
292.68827
292.71251
292.73161
292.74605
292.75634
292.76266
292.76537
292.76501
292.76166
292.75583
292.74779
292.73835
292.7308
292.7322
292.76807
292.82452
292.92052
293.19737
291.77637
291.8775
291.97652
292.07239
292.16398
292.25022
292.33035
292.40364
292.46949
292.52771
292.57842
292.62192
292.65859
292.68894
292.7135
292.73281
292.74737
292.75772
292.76404
292.76667
292.76622
292.76274
292.75679
292.74863
292.73911
292.73156
292.73335
292.76992
292.82584
292.9214
293.19045
291.81261
291.90403
291.99519
292.08464
292.17119
292.25379
292.33156
292.40359
292.46904
292.52732
292.57833
292.62222
292.65928
292.68994
292.71475
292.73421
292.74886
292.75923
292.76554
292.76808
292.76752
292.76392
292.75783
292.74953
292.73994
292.73237
292.73454
292.77173
292.82729
292.92227
293.18392
291.86558
291.94445
292.02526
292.10622
292.18599
292.26337
292.33731
292.40682
292.47086
292.52846
292.57924
292.62318
292.66041
292.69125
292.71621
292.73579
292.75049
292.76088
292.76715
292.7696
292.76892
292.76518
292.75895
292.75051
292.74082
292.73322
292.73575
292.77351
292.82883
292.92296
293.18031
291.93341
291.99743
292.06579
292.13628
292.20761
292.27837
292.34721
292.41302
292.47477
292.53102
292.58109
292.62475
292.66194
292.69284
292.71788
292.73752
292.75225
292.76263
292.76886
292.77121
292.77042
292.76653
292.76014
292.75156
292.74177
292.73411
292.737
292.77526
292.83043
292.92359
293.17572
292.01485
292.06112
292.11427
292.17228
292.23387
292.29715
292.36017
292.42152
292.48034
292.53478
292.58375
292.62685
292.66383
292.69467
292.71972
292.73937
292.75411
292.76447
292.77065
292.7729
292.77199
292.76796
292.76141
292.75266
292.74276
292.73503
292.73826
292.77698
292.83204
292.92391
293.17365
292.11739
292.14323
292.17617
292.21813
292.26716
292.32105
292.3769
292.43285
292.48785
292.53983
292.58725
292.62946
292.66602
292.69669
292.72168
292.74132
292.75605
292.76638
292.7725
292.77466
292.77363
292.76945
292.76273
292.75383
292.7438
292.73596
292.73951
292.77865
292.83363
292.92394
293.17297
293.59807
293.48106
293.37506
293.27545
293.18103
293.0929
293.01268
292.94254
292.88456
292.83893
292.80525
292.78224
292.76823
292.76123
292.75926
292.7602
292.76228
292.76444
292.76582
292.76591
292.76433
292.76056
292.75475
292.74677
292.7368
292.72605
292.71958
292.73383
292.79335
292.92091
293.31469
293.57667
293.46224
293.36198
293.26965
293.18344
293.10202
293.02654
292.95911
292.9018
292.85543
292.82012
292.79495
292.7786
292.76937
292.76541
292.7647
292.7655
292.76668
292.76734
292.76694
292.76499
292.76101
292.75507
292.74699
292.73695
292.72608
292.7194
292.73316
292.79279
292.92187
293.31916
293.56128
293.45335
293.35891
293.2722
293.19086
293.11383
293.04166
292.97616
292.91926
292.87215
292.8353
292.80807
292.78947
292.77801
292.77202
292.7696
292.76903
292.76918
292.76905
292.7681
292.76577
292.76155
292.75544
292.74726
292.73713
292.72613
292.71921
292.73247
292.79225
292.92294
293.32345
293.54854
293.44639
293.35636
293.27452
293.19734
293.12426
293.0554
292.99206
292.93604
292.88866
292.85062
292.82162
292.80088
292.78724
292.77918
292.77497
292.77296
292.77197
292.77099
292.76943
292.76666
292.76217
292.75589
292.74758
292.73734
292.7262
292.71905
292.73177
292.79166
292.92412
293.32726
293.53507
293.43866
293.35291
293.27511
293.20223
293.13321
293.06785
293.007
292.95227
292.90503
292.86613
292.83559
292.81287
292.79708
292.78693
292.78085
292.7773
292.77509
292.77319
292.77095
292.7677
292.76289
292.75641
292.74795
292.7376
292.72631
292.7189
292.73103
293.52161
293.43103
293.34922
293.27503
293.20633
293.14131
293.07943
293.02125
292.9681
292.92131
292.88182
293.75594
293.72339
293.69316
293.66791
293.64485
293.92266
293.80609
292.08283
292.18989
294.01498
293.91089
293.80063
293.69652
294.03667
293.91758
293.82375
293.71751
293.59326
293.88696
293.90784
293.845
293.72828
293.59911
293.47796
293.75045
293.79583
293.67308
293.54999
293.43651
293.33644
293.49219
293.45825
293.41141
293.33802
293.25756
293.18285
293.12347
293.19155
293.16868
293.11582
293.06244
293.01183
292.80603
292.83984
292.87161
292.86625
292.84809
292.82786
292.45183
292.53892
292.60166
292.6271
292.63895
292.64598
292.09316
292.2139
292.32499
292.39048
292.43363
292.46611
291.74528
291.94181
292.07495
292.16892
292.23906
292.29493
291.36588
291.68148
291.84827
291.96559
292.05992
292.13729
291.02189
291.43946
291.66258
291.80237
291.91176
292.00313
290.77624
291.23707
291.50593
291.66646
291.78918
291.89265
290.70027
291.04768
291.32832
291.52972
291.68236
291.80424
290.64022
290.96089
291.20624
291.40788
291.57339
291.71177
290.5508
290.94327
291.18244
291.35404
291.50511
291.64197
290.48217
290.87418
291.14696
291.34224
291.49967
291.63563
290.47452
290.86908
291.13464
291.33452
291.49772
291.63753
290.48926
290.88925
291.15615
291.35692
291.52058
291.66046
290.57402
290.94656
291.20773
291.40516
291.56602
291.70332
290.67204
291.03252
291.28607
291.47754
291.63315
291.76557
290.80572
291.14795
291.38899
291.57143
291.71947
291.84496
291.28781
291.51354
291.68462
291.8233
291.94041
291.65679
291.81597
291.94579
292.05608
292.28833
292.38774
292.49065
292.59139
292.6873
292.77665
292.85787
292.93011
292.99255
293.04506
293.08829
293.12273
293.16915
293.14971
293.18666
293.17067
293.20073
293.18741
293.2124
293.20113
293.22268
293.21307
293.23143
293.22324
293.23856
293.23171
293.24252
293.237
293.24191
293.23774
293.23481
293.23212
293.2182
293.21716
293.18599
293.18645
293.15902
293.15924
293.15328
293.15297
293.14043
293.14021
293.11716
293.11707
293.10133
293.10116
293.10952
293.1092
293.11016
293.1099
)
;

boundaryField
{
    Side1
    {
        type            empty;
    }
    Inlet
    {
        type            totalTemperature;
        gamma           1.4;
        T0              uniform 294.31799;
        value           nonuniform List<scalar> 
92
(
294.31799
292.98732
292.98748
292.98769
292.98796
292.98832
292.9888
292.98944
292.9903
292.99142
292.99283
292.99448
292.99629
292.99813
292.99992
293.00162
293.00333
293.00505
294.31799
293.00826
293.01079
294.31799
294.31799
294.31799
293.01639
293.01923
294.31799
294.31799
294.31799
294.31799
293.00245
293.00245
293.00245
293.00245
293.00245
293.00245
293.00245
293.00245
293.00245
293.00245
293.00245
293.00245
293.00245
293.00245
293.00245
293.00245
293.00245
293.00245
293.00245
293.00245
293.00245
293.00245
293.00245
293.00245
293.00245
293.00245
293.00245
293.00245
293.00245
293.00245
293.02206
293.00245
292.98458
294.31799
294.31799
292.98502
294.31799
294.31799
294.31799
294.31799
292.98566
294.31799
294.31799
292.98602
294.31799
294.31799
294.31799
294.31799
294.31799
294.31799
294.31799
292.98644
294.31799
292.98668
292.98686
292.98705
294.31799
294.31799
294.31799
294.31799
293.00245
293.00245
)
;
    }
    Side2
    {
        type            empty;
    }
    Outlet
    {
        type            zeroGradient;
    }
    Botwall
    {
        type            zeroGradient;
    }
    Cyli
    {
        type            zeroGradient;
    }
    procBoundary2to0
    {
        type            processor;
        value           nonuniform List<scalar> 
55
(
293.89176
293.86279
293.82421
293.7884
293.7559
293.94689
293.90981
293.91239
293.99235
293.99235
291.80929
291.95807
291.95807
292.20619
292.30162
293.97785
293.97785
294.00977
294.00977
290.96891
290.96891
291.44767
291.44767
292.39326
292.494
292.59087
292.68264
292.76858
292.84758
292.91874
292.98171
293.03582
293.08093
293.11758
293.1466
293.1466
293.18771
293.20211
293.21373
293.22351
293.2322
293.23959
293.24538
293.24802
293.24605
293.23745
293.21916
293.18542
293.15879
293.15361
293.14064
293.11724
293.10147
293.10985
293.11043
)
;
    }
    procBoundary2to3
    {
        type            processor;
        value           nonuniform List<scalar> 
35
(
292.791
292.92539
293.32992
292.84997
292.8254
292.80752
292.79527
292.78727
292.7821
292.77858
292.77567
292.77268
292.76889
292.76373
292.75702
292.7484
292.73791
292.72646
292.71878
292.791
292.73026
293.50827
293.62316
293.42363
293.34621
293.27575
293.21064
293.14919
293.0906
293.03507
292.98364
292.93752
292.84997
292.89769
293.62316
)
;
    }
}


// ************************************************************************* //
