/*--------------------------------*- C++ -*----------------------------------*\
| =========                 |                                                 |
| \\      /  F ield         | OpenFOAM: The Open Source CFD Toolbox           |
|  \\    /   O peration     | Version:  2406                                  |
|   \\  /    A nd           | Website:  www.openfoam.com                      |
|    \\/     M anipulation  |                                                 |
\*---------------------------------------------------------------------------*/
FoamFile
{
    version     2.0;
    format      ascii;
    arch        "LSB;label=32;scalar=64";
    class       volScalarField;
    location    "0.06";
    object      nut;
}
// * * * * * * * * * * * * * * * * * * * * * * * * * * * * * * * * * * * * * //

dimensions      [0 2 -1 0 0 0 0];

internalField   nonuniform List<scalar> 
2065
(
0.0026747857
0.002938658
0.003206885
0.0034834855
0.0037717902
0.0040784376
0.0044015368
0.0047498706
0.0051213104
0.0055178205
0.0059421019
0.0063854589
0.0068487045
0.0073121183
0.00777304
0.0082248226
0.0086342598
0.0089876249
0.0092874804
0.0095208939
0.0096852094
0.0097846634
0.0098258508
0.0098179441
0.0097712062
0.0096923692
0.0095868017
0.0094569516
0.0093028585
0.0091280632
0.008936679
0.0087477761
0.0085799374
0.0084229179
0.0082687254
0.0081392486
0.0080615225
0.0080372419
0.0080838273
0.008213754
0.0084208853
0.0087067377
0.0090895612
0.0095775408
0.01014359
0.010785979
0.011448701
0.012144043
0.012839067
0.013513971
0.014116254
0.014614143
0.014980406
0.015201854
0.015279307
0.015182321
0.015016175
0.014462266
0.0016805451
0.0019254658
0.0021908371
0.0024821185
0.0028005664
0.0031440161
0.0035121536
0.0039111661
0.0043363053
0.0047906183
0.0052751869
0.0057825439
0.0063210366
0.0068693743
0.0074228787
0.0079466503
0.0084345448
0.0088796222
0.0092467893
0.0095322315
0.0097363905
0.0098665783
0.0099289487
0.0099395588
0.0099122959
0.0098506822
0.0097585801
0.0096394341
0.009495442
0.0093326744
0.0091580911
0.0089926626
0.0088533135
0.0087284075
0.0086138301
0.0085340338
0.0085155984
0.0085594273
0.0086826495
0.0088938783
0.0091843273
0.009550417
0.010010105
0.010564723
0.011192345
0.011879358
0.012587378
0.013316169
0.014042122
0.0147466
0.015383602
0.015909591
0.016322132
0.016571446
0.016691244
0.016624747
0.016482017
0.015950801
0.0011298211
0.0013559264
0.0016082552
0.0018947776
0.0022129802
0.0025487297
0.0028970178
0.0032745751
0.0036670262
0.0040774305
0.0045179244
0.0049934768
0.0055106646
0.0060779711
0.0066554245
0.0072502233
0.007819049
0.0083593666
0.008862651
0.009267521
0.0095771321
0.0097997637
0.0099402513
0.010017272
0.010047129
0.010034565
0.0099858535
0.009905564
0.0097975886
0.0096673062
0.0095230452
0.0093741937
0.0092427365
0.0091421833
0.0090616224
0.0089997144
0.0089823251
0.0090348164
0.0091566361
0.0093632897
0.009658698
0.010031418
0.01047311
0.011002078
0.011614203
0.012293632
0.013016761
0.013761075
0.014514254
0.015266984
0.015991543
0.016660127
0.0172047
0.017660237
0.017932307
0.018090723
0.018051852
0.017928881
0.017421387
0.0014662543
0.0016920472
0.0019200318
0.0021564518
0.0023948544
0.0026393042
0.0028969724
0.0031936105
0.0034958957
0.0038195529
0.0041867957
0.0046001704
0.0050551483
0.0055583694
0.0061041494
0.0066846217
0.0072949598
0.0078618629
0.0084141524
0.0089307261
0.0093322169
0.0096359431
0.0098576483
0.010006193
0.010095908
0.010133144
0.010128742
0.010090321
0.010022783
0.0099315477
0.0098235483
0.0097082985
0.0095971239
0.0095121756
0.0094641526
0.0094418794
0.009446249
0.0095031745
0.0096360497
0.0098422345
0.010134689
0.010512521
0.010962274
0.011471767
0.012060407
0.012720058
0.013441296
0.014192449
0.014964191
0.015734976
0.016508927
0.017245721
0.017941678
0.018498416
0.018992315
0.019282885
0.019476231
0.019461866
0.019355763
0.01887186
0.0023881964
0.0025957279
0.0027907218
0.0029861245
0.0031819853
0.0033782707
0.0035809991
0.0038063388
0.0040456704
0.0043070118
0.0046080948
0.0049520315
0.0053322179
0.0057843687
0.0063095467
0.006877817
0.007463221
0.0080020978
0.0085421904
0.0090266138
0.0094073058
0.0097008151
0.0099152265
0.010058108
0.010144705
0.010185626
0.010191578
0.010167925
0.010119966
0.010054559
0.0099801426
0.0099071022
0.0098479035
0.0098238345
0.0098424659
0.0098924961
0.0099752471
0.010115347
0.010333794
0.010625668
0.011001147
0.011455168
0.011973309
0.012540677
0.013178367
0.013875467
0.014628876
0.015400502
0.016191799
0.016974091
0.017763068
0.018507376
0.019224587
0.019789883
0.020316251
0.020622158
0.020846568
0.020853654
0.020762029
0.020300851
0.0030799485
0.003309891
0.0034996788
0.0036656931
0.0038139872
0.0039576285
0.0041046168
0.0042616107
0.0044384967
0.0046335832
0.0048558258
0.0051198965
0.0054284828
0.0057977131
0.0062049104
0.0066681327
0.0071828724
0.0077080541
0.0082090768
0.008716425
0.0091550004
0.0094956355
0.0097574793
0.0099455923
0.010076882
0.010163005
0.010212377
0.01023374
0.010232237
0.010213951
0.010187086
0.010160946
0.010145897
0.010154342
0.010204789
0.010304124
0.010437754
0.010606874
0.010833803
0.011137298
0.011510613
0.011961575
0.012482063
0.013057781
0.013672128
0.014348164
0.015073144
0.015849853
0.016635142
0.017439133
0.018227565
0.019026065
0.019773751
0.020506419
0.021077549
0.021630244
0.02194938
0.022200715
0.022226564
0.022147331
0.021707546
0.0035429045
0.0038325645
0.0040502832
0.0042182897
0.0043562165
0.0044786088
0.0045909287
0.0047065273
0.0048366368
0.0049883794
0.0051647032
0.0053717829
0.0056199451
0.0059146906
0.0062621421
0.0066643332
0.0070816534
0.007552004
0.0080195059
0.0084576362
0.0088946736
0.0092580739
0.0095465673
0.0097738495
0.0099434642
0.010069343
0.010161646
0.010227743
0.010274715
0.010307609
0.010333363
0.010361021
0.010399839
0.010458979
0.010548568
0.010686266
0.010875135
0.011098148
0.011355356
0.011666433
0.012048631
0.012494322
0.013009782
0.013585022
0.014206686
0.014857185
0.015561496
0.016305709
0.01709785
0.017890841
0.018701652
0.0194916
0.02029481
0.021042281
0.021785325
0.022359708
0.022933259
0.023263538
0.02353775
0.02358036
0.023511542
0.023091548
0.0040902677
0.0043665176
0.0045653269
0.0047126486
0.0048305136
0.0049336548
0.0050342312
0.005143086
0.0052686962
0.0054159455
0.0055906433
0.0057966232
0.00604116
0.0063312184
0.0066709239
0.0070480901
0.0074336169
0.0078425299
0.0082452845
0.0086234377
0.0089988682
0.0093043013
0.0095530659
0.0097565049
0.0099195081
0.010053213
0.010165594
0.010262753
0.010350405
0.010433624
0.010520034
0.010618694
0.010737679
0.010882608
0.011063337
0.011294802
0.011574577
0.01188541
0.012225569
0.012612314
0.013062376
0.013568307
0.01413563
0.014753438
0.015409751
0.016086406
0.016810018
0.017565957
0.018366778
0.019162389
0.019975083
0.020762636
0.021566417
0.022310588
0.023059599
0.023634846
0.024224415
0.02456383
0.024856902
0.024915071
0.024854702
0.02445277
0.0044689166
0.0047183406
0.004889567
0.0050142393
0.005114824
0.0052093127
0.0053088952
0.0054219026
0.0055537992
0.0057089535
0.0058917851
0.0061049105
0.0063523663
0.0066357495
0.0069618164
0.0073163164
0.0076744539
0.0080319537
0.0083798468
0.0087052842
0.0090318921
0.0093000324
0.0095284494
0.0097298276
0.0099077473
0.010069969
0.010221951
0.010368231
0.010513412
0.010662672
0.010824034
0.011005704
0.011211789
0.011449218
0.01172344
0.012044685
0.012409267
0.01279947
0.013211996
0.013662158
0.014166965
0.014719987
0.015326568
0.015975506
0.016656303
0.017350413
0.018085681
0.018847063
0.019650928
0.020444936
0.02125544
0.022037351
0.022838207
0.023576465
0.024327661
0.024901614
0.025502951
0.025849611
0.026157961
0.026230499
0.02617696
0.025791368
0.0043936961
0.0047144738
0.0049322954
0.0050750757
0.0051783749
0.0052677673
0.0053568904
0.0054560601
0.0055720791
0.0057095691
0.0058717422
0.0060618165
0.0062827455
0.0065340409
0.0068132018
0.0071188384
0.0074535629
0.0077818638
0.0081092489
0.0084194822
0.0087165702
0.0090162286
0.0092823899
0.0095201263
0.009749765
0.0099696681
0.010183863
0.010395317
0.01060686
0.010822303
0.011047166
0.011288228
0.011554544
0.011850171
0.012175889
0.012534493
0.012934814
0.013372103
0.013828829
0.014300424
0.014800581
0.015346968
0.01593465
0.016569133
0.017239271
0.017935947
0.018640294
0.019380954
0.020142686
0.020945019
0.021734003
0.022539023
0.023312661
0.024107687
0.024837864
0.025588039
0.02615879
0.026768201
0.027120357
0.027440831
0.027526579
0.027478557
0.027107664
0.0045565668
0.0048441747
0.0050347629
0.0051539585
0.0052406994
0.0053184596
0.0054009788
0.0054967709
0.0056111758
0.0057481688
0.0059117495
0.0061035567
0.0063258926
0.0065772409
0.0068532262
0.0071494908
0.007472987
0.0077866606
0.0081021193
0.0084082604
0.0087106189
0.0090177946
0.0093174361
0.0096005856
0.0098889444
0.01017485
0.010459461
0.010743584
0.011027647
0.011316302
0.011615888
0.011935332
0.012280982
0.012654519
0.013055378
0.013484442
0.013949146
0.014444604
0.014953904
0.01547136
0.016009107
0.01658547
0.017197192
0.017850124
0.018533365
0.019238994
0.019947843
0.020688944
0.02144703
0.022244214
0.023025478
0.023822412
0.024585704
0.025372536
0.026092875
0.026839354
0.027405256
0.028019567
0.028375633
0.028705498
0.028803347
0.028759801
0.028402137
0.0046047407
0.0048740423
0.0050500472
0.0051543197
0.0052279865
0.0052950903
0.0053689185
0.0054567798
0.0055634566
0.0056930342
0.0058499074
0.0060367895
0.0062554701
0.0065067732
0.0067822948
0.0070808227
0.0074092014
0.0077384761
0.0080707268
0.00840793
0.0087519054
0.0091090125
0.0094587649
0.009822529
0.010190286
0.01055678
0.010921105
0.011282329
0.011640073
0.011999175
0.012366914
0.012753213
0.013164611
0.01360179
0.014062885
0.01454746
0.015062021
0.015602088
0.016151545
0.016703642
0.017268863
0.017865956
0.018493348
0.019157357
0.019847441
0.020556698
0.021265666
0.02200343
0.022754847
0.023544099
0.02431559
0.025102445
0.025853819
0.026630587
0.027339706
0.028080301
0.028639976
0.029256496
0.029615067
0.029951995
0.030060908
0.030021048
0.029675573
0.0045473536
0.0048133737
0.004983699
0.0050824382
0.0051496681
0.0052091722
0.0052740353
0.0053514633
0.0054468447
0.005564675
0.0057091285
0.0058886263
0.006102402
0.0063557514
0.0066364832
0.0069479434
0.0073024502
0.0076662526
0.0080469804
0.0084404194
0.0088552232
0.0092858766
0.0097149934
0.01016439
0.010629
0.011083793
0.011533396
0.011974131
0.012404609
0.012829711
0.013258251
0.013701406
0.014166918
0.014655424
0.01516418
0.015692
0.016244823
0.016818864
0.017398901
0.017977178
0.018562419
0.019173474
0.019810387
0.020480044
0.021172366
0.021881322
0.022587195
0.023318848
0.0240614
0.024840657
0.025600876
0.02637619
0.027114518
0.027879797
0.028576666
0.029309632
0.029861972
0.030478468
0.030838333
0.031180391
0.031299416
0.031262693
0.030928717
0.0043803677
0.0046589685
0.0048363596
0.0049401709
0.005008069
0.0050636902
0.0051207741
0.0051877743
0.005270354
0.0053751904
0.0055082076
0.0056761363
0.0058829879
0.0061318722
0.0064211022
0.0067529149
0.0071405179
0.0075563361
0.0080000938
0.0084667632
0.0089677544
0.009486939
0.010012651
0.010562428
0.011129206
0.011682625
0.01222554
0.012751648
0.013258282
0.013750288
0.014237581
0.014732804
0.015245357
0.01577697
0.016324993
0.016887846
0.01747109
0.018071817
0.018675826
0.019274494
0.019874726
0.020495162
0.02113737
0.021808892
0.022500224
0.023206109
0.023906633
0.024630236
0.025362405
0.026130217
0.026878145
0.027640915
0.028365464
0.029118233
0.029802143
0.030526148
0.031070309
0.031684975
0.032045127
0.032390759
0.032519059
0.032485155
0.032162314
0.0041057437
0.0044062706
0.0046010197
0.0047191348
0.0047939936
0.0048489226
0.0048987448
0.0049532369
0.0050209695
0.0051107057
0.0052287899
0.0053817829
0.0055753132
0.0058177828
0.0061137854
0.0064720722
0.0069052382
0.0073728658
0.0078808138
0.0084362572
0.0090292099
0.0096507674
0.010285724
0.01094973
0.011625432
0.012288572
0.012935011
0.013555366
0.014145338
0.014709241
0.015257792
0.015805061
0.016362622
0.016933829
0.017516778
0.018110076
0.018719127
0.019342061
0.019965855
0.020581254
0.021193359
0.021820313
0.022465113
0.02313602
0.023824217
0.02452518
0.025218867
0.025933155
0.026653972
0.027409409
0.028144436
0.028894054
0.02960444
0.030344047
0.031014588
0.031728675
0.03226408
0.032875512
0.033235161
0.033583175
0.033720041
0.03368887
0.033376907
0.0040439376
0.0042609344
0.0044001825
0.0044892992
0.0045495258
0.0045964074
0.0046414927
0.0046936188
0.0047624198
0.0048607101
0.004994591
0.0051739798
0.005415162
0.005721419
0.0061105034
0.006578426
0.0070936951
0.0076840437
0.0083316831
0.0090269514
0.0097611463
0.010515479
0.011298926
0.012091748
0.012871627
0.013629249
0.014351237
0.015031466
0.015673164
0.0162874
0.01688972
0.017492931
0.018102408
0.018718592
0.019340156
0.019972576
0.020615144
0.021256204
0.021886138
0.022508331
0.023140171
0.023785991
0.024454775
0.025138514
0.025833403
0.026519362
0.027223605
0.027932549
0.028675111
0.029396973
0.030133182
0.030829327
0.031555454
0.032212493
0.03291606
0.033442393
0.034049568
0.034408151
0.034757703
0.034902576
0.034874288
0.034573255
0.0035499353
0.0037850384
0.0039463413
0.0040547713
0.0041283244
0.0041810924
0.0042236509
0.0042653985
0.0043173479
0.0043986356
0.0045190809
0.004691844
0.0049312209
0.0052511323
0.0056647557
0.0061581814
0.0067425154
0.0074324795
0.0081873815
0.0089995401
0.0098563005
0.010735574
0.011633386
0.012544828
0.013440089
0.014309038
0.015133871
0.015906887
0.016629598
0.017311894
0.017969863
0.018619082
0.019267565
0.019916489
0.020565312
0.0212198
0.021880487
0.022537245
0.02318039
0.023811711
0.024447612
0.025093669
0.025759518
0.026438069
0.027126258
0.027804055
0.028497947
0.029194861
0.029924407
0.030633137
0.031355978
0.032038084
0.032750719
0.033394384
0.034087155
0.03460436
0.035206623
0.035563812
0.035914396
0.036066883
0.036041871
0.035752132
0.0028867873
0.0031271188
0.0033029471
0.0034307935
0.0035248033
0.0035978392
0.003659658
0.0037158068
0.0037702589
0.0038474003
0.003972648
0.0041520164
0.0043900682
0.0047313624
0.0051682161
0.0057064458
0.0064124032
0.007220907
0.0081032799
0.009040631
0.01000865
0.01100005
0.011998052
0.013014326
0.014015578
0.014987018
0.015907675
0.016769303
0.017571043
0.018321423
0.019036732
0.019733226
0.02042068
0.021101876
0.02177719
0.022452802
0.023130503
0.023801808
0.024457249
0.025097175
0.025736793
0.026382825
0.0270454
0.027718459
0.028399713
0.029069258
0.029752825
0.030437858
0.031154543
0.031850432
0.032560212
0.033228728
0.033928142
0.034558804
0.035240818
0.035749099
0.03634615
0.036701863
0.037053298
0.037213185
0.03719209
0.036914287
0.0022728269
0.0024573376
0.0026058324
0.0027320019
0.0028440815
0.0029501084
0.0030496139
0.0031411907
0.0032357115
0.0033906998
0.0036086851
0.0038708596
0.0042612
0.0047762209
0.0054510656
0.0062426388
0.0071356388
0.0081127401
0.009149192
0.010220815
0.011316231
0.012417282
0.013513732
0.014613048
0.015676474
0.016682775
0.017626126
0.018502653
0.019318772
0.020089623
0.020832068
0.021557368
0.022269737
0.022970449
0.023666115
0.024359722
0.025044491
0.025711422
0.026359591
0.027002834
0.027648899
0.028308175
0.028975737
0.029650105
0.030311577
0.030985117
0.031658667
0.032362903
0.033046463
0.033743725
0.034399327
0.035086052
0.035704313
0.036375908
0.036875733
0.037467621
0.03782203
0.038174454
0.038341711
0.038325431
0.038060424
0.028887885
0.029544035
0.030206307
0.030874063
0.031527851
0.03219188
0.032854562
0.033546983
0.034218928
0.034904428
0.035547996
0.036222809
0.036829488
0.037491294
0.037983397
0.038570519
0.038924063
0.039277918
0.039452706
0.039442398
0.039190923
0.014560121
0.01245411
0.0064888445
0.0092725291
0.012248638
0.014697262
0.015881039
0.01560464
0.014129891
0.01206353
0.0045257068
0.0066685766
0.0093570452
0.012192654
0.014474797
0.015525065
0.015182204
0.013702041
0.011678223
0.0047572983
0.0068382037
0.009424125
0.012117215
0.014234076
0.015148864
0.014751455
0.013271587
0.01129734
0.0049923764
0.0070014955
0.0094777749
0.012024073
0.013967206
0.014733002
0.014310299
0.012836497
0.010912544
0.0052308187
0.0071596642
0.0095196229
0.011913832
0.013689456
0.014350974
0.013867582
0.012405572
0.010533294
0.0054790013
0.0073181055
0.0095529772
0.011790659
0.013404876
0.013966751
0.013419009
0.01197728
0.010161632
0.0057352645
0.0074764539
0.0095790897
0.011657508
0.013112013
0.013568912
0.012955636
0.011547537
0.0097927727
0.0060071501
0.0076409402
0.0096031295
0.011517677
0.012811788
0.013165095
0.012508088
0.011121821
0.0094271337
0.0062942156
0.00781333
0.0096274536
0.011373564
0.012506988
0.012761198
0.012071396
0.010702596
0.0090656626
0.0065997787
0.0079967204
0.0096552457
0.01122747
0.01219886
0.01235736
0.011633838
0.010287432
0.00870765
0.0069271144
0.0081934029
0.0096877972
0.011080297
0.01189096
0.011954144
0.01119817
0.0098762238
0.0083529872
0.0072697536
0.00840026
0.0097249654
0.010930747
0.011583715
0.011552506
0.010765508
0.0094688966
0.008001241
0.007625412
0.0086139489
0.009763642
0.010777104
0.011277735
0.011153411
0.010337489
0.0090668246
0.0076537231
0.0079815531
0.0088256805
0.0097969877
0.010616767
0.010975581
0.010757415
0.0099150775
0.0086706984
0.007310823
0.0083268688
0.0090248191
0.0098180256
0.010448443
0.010675155
0.010366739
0.0095009892
0.008283587
0.0069758531
0.0086566696
0.0092056428
0.0098221142
0.010273116
0.010374928
0.0099828258
0.0090971891
0.0079072358
0.006650183
0.0089537013
0.0093594271
0.0098014396
0.010097697
0.010075423
0.009608056
0.0087069425
0.0075454207
0.0063380158
0.0092070922
0.0094801305
0.0097673808
0.0099154711
0.009778955
0.0092452551
0.0083331862
0.0072007577
0.0060413326
0.0094110421
0.0095674761
0.0097153956
0.0097281037
0.0094880736
0.0088965117
0.0079772035
0.0068736029
0.0057596066
0.009565426
0.0096214144
0.0096471905
0.0095397664
0.0092070099
0.0085655384
0.007642433
0.0065674112
0.0054964734
0.0096663915
0.0096399501
0.0095628782
0.0093522058
0.0089379645
0.0082533629
0.0073283924
0.0062804063
0.0052493539
0.0097160792
0.0096241069
0.009463254
0.0091662268
0.0086821498
0.0079608248
0.0070358297
0.0060138017
0.0050202491
0.0097173399
0.009574645
0.009347666
0.0089810706
0.0084389008
0.0076869541
0.0067630701
0.0057651272
0.0048059097
0.0096792118
0.0094964576
0.0092171178
0.0087960271
0.0082053676
0.0074279629
0.0065056324
0.0055294306
0.0046012387
0.009608481
0.0093955102
0.009076039
0.0086131949
0.0079837429
0.0071858372
0.0062657425
0.00530949
0.0044097405
0.0095108695
0.0092758431
0.0089273099
0.0084330861
0.007774353
0.0069609797
0.0060439004
0.0051057819
0.0042317143
0.009391163
0.009140318
0.0087721876
0.0082561533
0.0075779606
0.0067548448
0.0058419568
0.0049200591
0.0040684826
0.0092510729
0.0089900286
0.0086099847
0.0080814804
0.0073932094
0.0065668478
0.0056604207
0.0047535616
0.0039215402
0.0090894805
0.0088225207
0.0084370642
0.0079044616
0.0072148761
0.0063920829
0.0054954301
0.0046036343
0.0037892439
0.0089075142
0.0086365309
0.0082496185
0.007719093
0.0070356462
0.0062232306
0.0053408054
0.0044657653
0.0036686996
0.0087065879
0.0084307396
0.0080428369
0.0075167017
0.0068434492
0.0060462405
0.0051823392
0.004327031
0.003548951
0.0085036443
0.0082200203
0.0078287509
0.0073057195
0.0066427414
0.0058619564
0.0050183295
0.0041844637
0.003426749
0.0083184171
0.0080244666
0.0076275711
0.0071059195
0.0064519921
0.0056866552
0.0048623171
0.0040488107
0.0033103682
0.0081418898
0.0078358554
0.00743213
0.006911611
0.0062673887
0.0055185173
0.0047142155
0.0039212419
0.0032017513
0.007962645
0.0076398945
0.0072251127
0.0067026558
0.0060667765
0.0053347715
0.0045522347
0.0037821925
0.0030841319
0.0078001802
0.0074540324
0.0070210255
0.0064899251
0.005857133
0.0051387549
0.004376808
0.0036301822
0.002955037
0.0076810627
0.0073036264
0.006843353
0.0062946891
0.0056573972
0.0049469668
0.0042018673
0.0034765557
0.0028234301
0.0076072288
0.0071907222
0.0066945015
0.0061198901
0.0054710266
0.0047634213
0.0040318815
0.0033259769
0.0026938636
0.0075954021
0.0071307193
0.006586994
0.0059737978
0.0053019212
0.004588577
0.0038651645
0.0031757443
0.0025633632
0.0076604115
0.007139895
0.006537824
0.0058734606
0.0051664647
0.0044372824
0.0037146826
0.0030369163
0.0024412152
0.0077980015
0.0072153555
0.0065446344
0.0058153514
0.0050586142
0.004301433
0.0035714875
0.002900773
0.0023195433
0.0080143423
0.0073677725
0.0066222931
0.0058169793
0.0049965645
0.0041979132
0.0034498166
0.0027788669
0.0022076012
0.0083282712
0.0076167557
0.006790842
0.0058972899
0.0049951589
0.0041357466
0.0033536278
0.002671448
0.0021035553
0.0087547998
0.0079842817
0.007080803
0.0060949837
0.0050978914
0.00415733
0.0033193772
0.0026074139
0.0020292398
0.0092633668
0.0084376896
0.0074591884
0.0063800603
0.0052811047
0.0042466951
0.0033375615
0.0025816719
0.0019819966
0.0098635908
0.0089976588
0.0079599342
0.0067980217
0.0055951296
0.0044491252
0.0034421764
0.002616784
0.0019763281
0.010484964
0.0095820492
0.0084922482
0.0072630207
0.0059796561
0.0047450869
0.0036465588
0.0027382207
0.0020354158
0.0111499
0.010221046
0.0090905407
0.007799792
0.0064330094
0.0051013917
0.0039107369
0.002925158
0.0021618133
0.011818308
0.010869219
0.0097072248
0.0083697676
0.0069376567
0.005521791
0.0042338333
0.0031554205
0.0023172385
0.012468932
0.011503606
0.010316279
0.0089411077
0.0074566842
0.005974834
0.0046119138
0.0034555077
0.0025442106
0.01304612
0.012066423
0.01085722
0.0094501369
0.00792227
0.0063863482
0.0049627076
0.0037450028
0.0027779693
0.013519266
0.012525474
0.011296869
0.0098636176
0.0083024751
0.0067274002
0.0052614887
0.0040018434
0.0029961878
0.013854078
0.012845363
0.011598353
0.010144791
0.0085607398
0.0069596205
0.0054666776
0.0041812221
0.0031524744
0.014057594
0.013045783
0.011791113
0.010323164
0.0087212924
0.0071062096
0.0056017957
0.0043065899
0.0032689687
0.014108253
0.013089275
0.01182815
0.010356411
0.0087541729
0.0071381638
0.0056373627
0.0043481372
0.003315695
0.013996513
0.012983688
0.011732415
0.010274944
0.0086904447
0.0070944301
0.0056098035
0.0043336578
0.0033124325
0.013820936
0.012818138
0.011579763
0.010138442
0.008573549
0.0070005
0.0055412491
0.0042893861
0.003288571
0.013264213
0.012283536
0.011079057
0.0096854503
0.0081814318
0.0066782564
0.0052908104
0.0041046501
0.0031575618
0.010194726
0.0078408903
0.0054565687
0.0032021037
0.0012840011
0.0001585218
0.0098690741
0.0075934452
0.0052857851
0.0031090964
0.0012480395
0.00015434207
0.0095506896
0.0073476731
0.0051219378
0.0030199054
0.0012169386
0.00015001316
0.0092328725
0.0071051031
0.0049618058
0.0029326702
0.0011839633
0.00014558349
0.0089170975
0.0068697349
0.004805646
0.0028481833
0.0011543076
0.00014105901
0.0086096253
0.0066388281
0.0046526994
0.0027649313
0.0011229095
0.00013647011
0.0083071609
0.0064119972
0.0045024074
0.0026830606
0.0010933238
0.00013181303
0.008008662
0.0061884497
0.0043538942
0.0026012987
0.0010620264
0.00012709696
0.0077132094
0.0059670897
0.0042062063
0.0025192796
0.0010308506
0.00012230646
0.0074205211
0.0057471502
0.0040585165
0.0024361743
0.0009981262
0.00011743119
0.0071298066
0.0055276282
0.0039098817
0.0023514598
0.00096442452
0.00011244773
0.0068409439
0.0053083323
0.0037601155
0.0022650046
0.0009293744
0.0001073384
0.0065533443
0.0050886164
0.0036086781
0.0021765448
0.00089313177
0.00010208284
0.0062683204
0.0048697532
0.0034567307
0.0020870027
0.00085616427
9.6678068e-05
0.0059860507
0.0046518017
0.003304329
0.0019965045
0.00081865188
9.1126193e-05
0.0057099402
0.0044380431
0.0031543523
0.0019072259
0.00078182636
8.5463151e-05
0.005441047
0.004229361
0.0030076951
0.0018201601
0.00074645629
7.9771296e-05
0.0051838746
0.004030279
0.00286832
0.0017378278
0.00071309455
7.4148996e-05
0.0049395369
0.0038408223
0.0027350088
0.0016581265
0.00067995744
6.8622279e-05
0.0047067314
0.0036590259
0.0026053916
0.0015787063
0.00064514314
6.3027804e-05
0.0044893719
0.003489167
0.0024841777
0.001504609
0.00061321701
5.7587473e-05
0.0042845561
0.0033283982
0.0023688116
0.0014335163
0.0005820265
5.2711206e-05
0.004095032
0.0031799604
0.0022625298
0.0013680762
0.00055342046
4.8581729e-05
0.0039168251
0.0030392362
0.0021603156
0.0013035226
0.00052386209
4.49538e-05
0.0037450264
0.0029018942
0.0020589316
0.0012381053
0.00049302439
4.1654013e-05
0.0035838508
0.0027727463
0.001963498
0.0011766508
0.0004645376
3.8620549e-05
0.003433294
0.0026513812
0.0018731471
0.0011180004
0.00043740514
3.5822802e-05
0.0032941192
0.0025379559
0.0017875076
0.0010614487
0.00041080803
3.325073e-05
0.0031678011
0.002433764
0.0017076363
0.0010078248
0.00038529831
3.0919808e-05
0.0030534902
0.0023385772
0.0016337544
0.00095758243
0.00036126928
2.8848222e-05
0.0029496746
0.0022520164
0.0015662845
0.00091152575
0.0003394147
2.7060143e-05
0.0028475363
0.0021675075
0.0015008706
0.00086730106
0.00031894267
2.5525494e-05
0.0027440274
0.002082508
0.0014356623
0.00082377376
0.00029935496
2.4211494e-05
0.0026453096
0.0020012911
0.0013733195
0.00078236059
0.00028124057
2.3132956e-05
0.0025537993
0.0019264831
0.0013163715
0.00074514223
0.00026577804
2.2312562e-05
0.0024556598
0.001847337
0.0012571741
0.00070736574
0.00025069862
2.1646003e-05
0.0023479995
0.0017609981
0.0011933175
0.00066736424
0.00023522248
2.1064314e-05
0.002237663
0.0016723546
0.0011279872
0.00062700653
0.00022032562
2.0579425e-05
0.0021288453
0.0015849745
0.0010638205
0.00058772838
0.00020617158
2.0183205e-05
0.0020186869
0.0014963813
0.00099892847
0.00054837462
0.0001923785
1.9843479e-05
0.0019148095
0.0014124844
0.00093743255
0.00051124147
0.00017956147
1.9548497e-05
0.0018104623
0.0013279142
0.00087552774
0.00047415294
0.00016697461
1.9251755e-05
0.0017129112
0.001248063
0.00081682322
0.00043905053
0.0001551455
1.8944926e-05
0.0016193423
0.0011699415
0.0007588353
0.00040445796
0.00014370319
1.8616246e-05
0.0015456762
0.0011043856
0.00070823733
0.00037378987
0.0001336854
1.8295458e-05
0.0014903191
0.0010502523
0.00066411118
0.00034630442
0.0001247053
1.7954835e-05
0.0014624915
0.001012873
0.00062907465
0.0003230382
0.00011696979
1.7582315e-05
0.0014780763
0.0010007651
0.00060640211
0.00030441526
0.00011014354
1.7177427e-05
0.0015545832
0.0010340374
0.00061043131
0.00029716794
0.00010577581
1.680285e-05
0.0016520178
0.0010856021
0.00063018641
0.00029907479
0.00010490272
1.6522231e-05
0.0018104628
0.0011795131
0.00067368507
0.0003118731
0.00010415157
1.6239324e-05
0.0019911516
0.0013041349
0.00074431147
0.00033764887
0.00010590764
1.5968293e-05
0.0021702872
0.0014391055
0.00083360774
0.00038007902
0.00011028199
1.5708875e-05
0.0023022912
0.0015422246
0.00090639469
0.00041995158
0.00011870867
1.5583695e-05
0.0024063948
0.0016276755
0.00096932237
0.00045455879
0.00012482687
1.5366655e-05
0.0024534139
0.0016689299
0.0010022921
0.00047559497
0.00013106345
1.5088922e-05
0.0024568285
0.0016749404
0.0010096201
0.00048100875
0.00013128387
1.4615237e-05
0.0024459767
0.0016703947
0.0010092776
0.00048241831
0.00013197101
1.4042131e-05
0.0023559021
0.0016116027
0.00097463712
0.00046486004
0.00012886844
1.3144995e-05
)
;

boundaryField
{
    Side1
    {
        type            empty;
    }
    Inlet
    {
        type            calculated;
        value           nonuniform List<scalar> 0();
    }
    Side2
    {
        type            empty;
    }
    Outlet
    {
        type            zeroGradient;
    }
    Botwall
    {
        type            nutkWallFunction;
        blending        stepwise;
        value           nonuniform List<scalar> 
59
(
1.5046188e-05
1.4459867e-05
1.3852523e-05
1.3229102e-05
1.2591749e-05
1.1943427e-05
1.1284517e-05
1.0615425e-05
9.9343929e-06
9.2394557e-06
8.5272915e-06
7.7950283e-06
7.0394881e-06
6.2597789e-06
5.4556779e-06
4.6315886e-06
3.7988805e-06
2.9710988e-06
2.1509311e-06
1.3118209e-06
4.8664589e-07
0
0
0
0
0
0
0
0
0
0
0
0
0
0
0
0
0
0
0
0
0
0
0
0
0
0
0
0
0
0
0
0
0
0
0
0
0
0
)
;
    }
    Cyli
    {
        type            nutkWallFunction;
        blending        stepwise;
        value           nonuniform List<scalar> 0();
    }
    procBoundary1to0
    {
        type            processor;
        value           nonuniform List<scalar> 
44
(
0.0024156145
0.0042973271
0.001451953
0.001451953
0.00092940631
0.00092940631
0.0012492239
0.0021479752
0.0021479752
0.0027978132
0.0027978132
0.0031730038
0.0037167093
0.0041135641
0.0041135641
0.0039596743
0.0041367114
0.0041948042
0.0041441905
0.003981135
0.0037238551
0.0037080725
0.0037238551
0.0032254652
0.0025850697
0.0020540262
0.0020540262
0.014988791
0.01284705
0.0063032691
0.0091751471
0.012287751
0.014902399
0.016215422
0.016020918
0.016020918
0.0042973271
0.0042973271
0.010524452
0.0080950955
0.0056282976
0.0032969941
0.0013175963
0.00016255426
)
;
    }
    procBoundary1to3
    {
        type            processor;
        value           nonuniform List<scalar> 
62
(
0.0013529626
0.001525829
0.0016935801
0.0018559531
0.0020089945
0.0021665124
0.0023379987
0.0025012163
0.0026443406
0.002863736
0.0031609348
0.0035289754
0.0040272388
0.0046359064
0.0053772636
0.006250277
0.0072401035
0.0083164953
0.0094459809
0.010603534
0.011774901
0.012951955
0.014107549
0.01527115
0.016408485
0.017480758
0.018491745
0.019433265
0.020308491
0.021130312
0.021915224
0.022675557
0.023416825
0.024141017
0.024855045
0.025563061
0.0262602
0.026938135
0.027594589
0.028241663
0.028241663
0.030096253
0.030749518
0.031406862
0.032068624
0.032715478
0.033370724
0.034023205
0.034704573
0.035365903
0.036040759
0.036673428
0.037337311
0.037933446
0.038586524
0.039071824
0.039654738
0.040008389
0.040364305
0.040547008
0.040543846
0.040306822
)
;
    }
}


// ************************************************************************* //
